                         Program Version 4.2.1 -  RELEASE  -
|  1> ! wB97X-D3 SP def2-SVP
|  2> %pal
|  3> nprocs 16
|  4> end
|  5>
|  6> * xyz 0 1
|  7> S 	 -35.9001 	 52.2498 	 107.995
|  8> C 	 -37.2695 	 51.9274 	 108.985
|  9> C 	 -37.5869 	 50.6062 	 109.069
| 10> C 	 -36.7336 	 49.8234 	 108.232
| 11> C 	 -35.8392 	 50.5795 	 107.542
| 12> H 	 -36.7025 	 48.6807 	 108.247
| 13> C 	 -38.7142 	 49.9734 	 109.853
| 14> H 	 -39.0719 	 50.7067 	 110.594
| 15> H 	 -38.2764 	 49.204 	 110.481
| 16> C 	 -39.8799 	 49.4596 	 109.001
| 17> H 	 -40.1635 	 50.4197 	 108.534
| 18> H 	 -39.5535 	 48.6426 	 108.32
| 19> C 	 -41.1308 	 48.9788 	 109.862
| 20> H 	 -41.9292 	 48.4357 	 109.322
| 21> H 	 -40.8389 	 48.4304 	 110.807
| 22> H 	 -41.5803 	 49.8743 	 110.116
| 23> S 	 -33.1663 	 50.3324 	 107.064
| 24> C 	 -32.5888 	 49.2856 	 105.82
| 25> C 	 -33.6334 	 48.7195 	 105.064
| 26> C 	 -34.9305 	 49.1595 	 105.574
| 27> C 	 -34.7851 	 49.9989 	 106.694
| 28> H 	 -33.5341 	 48.0141 	 104.252
| 29> C 	 -36.2463 	 48.7255 	 104.909
| 30> H 	 -36.2988 	 49.2919 	 103.975
| 31> H 	 -37.0792 	 49.0926 	 105.518
| 32> C 	 -36.4289 	 47.2271 	 104.564
| 33> H 	 -36.1747 	 46.6886 	 105.51
| 34> H 	 -35.7315 	 46.9398 	 103.743
| 35> C 	 -37.9219 	 46.7779 	 104.319
| 36> H 	 -38.0922 	 45.7078 	 104.495
| 37> H 	 -38.331 	 47.0567 	 103.326
| 38> H 	 -38.5965 	 47.1871 	 105.08
| 39> H 	 -37.8057 	 52.6749 	 109.599
| 40> H 	 -31.5644 	 49.1842 	 105.452
| 41> *
| 42>
| 43>                          ****END OF INPUT****

CARTESIAN COORDINATES (ANGSTROEM)
---------------------------------
  S    -35.900100   52.249800  107.995000
  C    -37.269500   51.927400  108.985000
  C    -37.586900   50.606200  109.069000
  C    -36.733600   49.823400  108.232000
  C    -35.839200   50.579500  107.542000
  H    -36.702500   48.680700  108.247000
  C    -38.714200   49.973400  109.853000
  H    -39.071900   50.706700  110.594000
  H    -38.276400   49.204000  110.481000
  C    -39.879900   49.459600  109.001000
  H    -40.163500   50.419700  108.534000
  H    -39.553500   48.642600  108.320000
  C    -41.130800   48.978800  109.862000
  H    -41.929200   48.435700  109.322000
  H    -40.838900   48.430400  110.807000
  H    -41.580300   49.874300  110.116000
  S    -33.166300   50.332400  107.064000
  C    -32.588800   49.285600  105.820000
  C    -33.633400   48.719500  105.064000
  C    -34.930500   49.159500  105.574000
  C    -34.785100   49.998900  106.694000
  H    -33.534100   48.014100  104.252000
  C    -36.246300   48.725500  104.909000
  H    -36.298800   49.291900  103.975000
  H    -37.079200   49.092600  105.518000
  C    -36.428900   47.227100  104.564000
  H    -36.174700   46.688600  105.510000
  H    -35.731500   46.939800  103.743000
  C    -37.921900   46.777900  104.319000
  H    -38.092200   45.707800  104.495000
  H    -38.331000   47.056700  103.326000
  H    -38.596500   47.187100  105.080000
  H    -37.805700   52.674900  109.599000
  H    -31.564400   49.184200  105.452000

 Total Charge           Charge          ....    0
 Multiplicity           Mult            ....    1
 Number of Electrons    NEL             ....  134
 Basis Dimension        Dim             ....  322

ORBITAL ENERGIES
----------------

  NO   OCC          E(Eh)            E(eV)
   0   2.0000     -88.968991     -2420.9693
   1   2.0000     -88.968011     -2420.9427
   2   2.0000     -10.324921      -280.9554
   3   2.0000     -10.322289      -280.8838
   4   2.0000     -10.317043      -280.7410
   5   2.0000     -10.311923      -280.6017
   6   2.0000     -10.305265      -280.4205
   7   2.0000     -10.297716      -280.2151
   8   2.0000     -10.297290      -280.2035
   9   2.0000     -10.296726      -280.1882
  10   2.0000     -10.296653      -280.1862
  11   2.0000     -10.294890      -280.1382
  12   2.0000     -10.293381      -280.0971
  13   2.0000     -10.290538      -280.0198
  14   2.0000     -10.285688      -279.8878
  15   2.0000     -10.283019      -279.8152
  16   2.0000      -8.084543      -219.9916
  17   2.0000      -8.083877      -219.9735
  18   2.0000      -6.042954      -164.4371
  19   2.0000      -6.042318      -164.4198
  20   2.0000      -6.039105      -164.3324
  21   2.0000      -6.038118      -164.3056
  22   2.0000      -6.035195      -164.2260
  23   2.0000      -6.034768      -164.2144
  24   2.0000      -1.013427       -27.5768
  25   2.0000      -0.989073       -26.9140
  26   2.0000      -0.911062       -24.7912
  27   2.0000      -0.900573       -24.5058
  28   2.0000      -0.867048       -23.5936
  29   2.0000      -0.850538       -23.1443
  30   2.0000      -0.844226       -22.9726
  31   2.0000      -0.812244       -22.1023
  32   2.0000      -0.782265       -21.2865
  33   2.0000      -0.770702       -20.9719
  34   2.0000      -0.703627       -19.1467
  35   2.0000      -0.696665       -18.9572
  36   2.0000      -0.691849       -18.8262
  37   2.0000      -0.657220       -17.8839
  38   2.0000      -0.637295       -17.3417
  39   2.0000      -0.620141       -16.8749
  40   2.0000      -0.590598       -16.0710
  41   2.0000      -0.572099       -15.5676
  42   2.0000      -0.563863       -15.3435
  43   2.0000      -0.559137       -15.2149
  44   2.0000      -0.523925       -14.2567
  45   2.0000      -0.517734       -14.0883
  46   2.0000      -0.510588       -13.8938
  47   2.0000      -0.504934       -13.7400
  48   2.0000      -0.503033       -13.6882
  49   2.0000      -0.497752       -13.5445
  50   2.0000      -0.488707       -13.2984
  51   2.0000      -0.479892       -13.0585
  52   2.0000      -0.473566       -12.8864
  53   2.0000      -0.462450       -12.5839
  54   2.0000      -0.458100       -12.4655
  55   2.0000      -0.456304       -12.4167
  56   2.0000      -0.446669       -12.1545
  57   2.0000      -0.435941       -11.8626
  58   2.0000      -0.432654       -11.7731
  59   2.0000      -0.426835       -11.6148
  60   2.0000      -0.423801       -11.5322
  61   2.0000      -0.420289       -11.4367
  62   2.0000      -0.412947       -11.2369
  63   2.0000      -0.345790        -9.4094
  64   2.0000      -0.331907        -9.0316
  65   2.0000      -0.328437        -8.9372
  66   2.0000      -0.295196        -8.0327
  67   0.0000       0.038788         1.0555
  68   0.0000       0.074374         2.0238
  69   0.0000       0.112848         3.0707
  70   0.0000       0.118843         3.2339
  71   0.0000       0.128516         3.4971

MULLIKEN ATOMIC CHARGES
-----------------------
   0 S :    0.124365
   1 C :   -0.128399
   2 C :   -0.092160
   3 C :    0.000687
   4 C :   -0.156310
   5 H :    0.046274
   6 C :    0.060825
   7 H :    0.010915
   8 H :    0.025273
   9 C :   -0.090106
  10 H :    0.040055
  11 H :    0.047862
  12 C :   -0.048316
  13 H :    0.044363
  14 H :    0.043851
  15 H :    0.012518
  16 S :    0.131778
  17 C :   -0.096921
  18 C :   -0.036724
  19 C :   -0.060172
  20 C :   -0.166383
  21 H :    0.018978
  22 C :    0.082461
  23 H :    0.036588
  24 H :    0.020889
  25 C :   -0.108680
  26 H :    0.036958
  27 H :    0.047154
  28 C :   -0.064550
  29 H :    0.036319
  30 H :    0.041615
  31 H :    0.026198
  32 H :    0.049533
  33 H :    0.063262
Sum of atomic charges:   -0.0000000

LOEWDIN ATOMIC CHARGES
----------------------
   0 S :    0.421600
   1 C :   -0.209826
   2 C :   -0.068713
   3 C :   -0.065950
   4 C :   -0.202476
   5 H :    0.045991
   6 C :   -0.035937
   7 H :    0.028213
   8 H :    0.027206
   9 C :   -0.038052
  10 H :    0.031621
  11 H :    0.025706
  12 C :   -0.070485
  13 H :    0.031145
  14 H :    0.031542
  15 H :    0.014338
  16 S :    0.445270
  17 C :   -0.205599
  18 C :   -0.066797
  19 C :   -0.054150
  20 C :   -0.224524
  21 H :    0.028866
  22 C :   -0.037790
  23 H :    0.034229
  24 H :    0.028808
  25 C :   -0.045503
  26 H :    0.029707
  27 H :    0.026483
  28 C :   -0.073074
  29 H :    0.028817
  30 H :    0.025944
  31 H :    0.026313
  32 H :    0.033542
  33 H :    0.033535

  Mayer bond orders larger than 0.100000
B(  0-S ,  1-C ) :   1.1322 B(  0-S ,  4-C ) :   1.1538 B(  1-C ,  2-C ) :   1.6404
B(  1-C , 32-H ) :   0.9581 B(  2-C ,  3-C ) :   1.2329 B(  2-C ,  6-C ) :   1.0315
B(  3-C ,  4-C ) :   1.5921 B(  3-C ,  5-H ) :   0.9826 B(  4-C , 20-C ) :   1.0106
B(  6-C ,  7-H ) :   0.9415 B(  6-C ,  8-H ) :   0.9293 B(  6-C ,  9-C ) :   1.0498
B(  9-C , 10-H ) :   0.9629 B(  9-C , 11-H ) :   0.9597 B(  9-C , 12-C ) :   1.0606
B( 12-C , 13-H ) :   0.9769 B( 12-C , 14-H ) :   0.9770 B( 12-C , 15-H ) :   0.9777
B( 16-S , 17-C ) :   1.1682 B( 16-S , 20-C ) :   1.1645 B( 17-C , 18-C ) :   1.5863
B( 17-C , 33-H ) :   0.9647 B( 18-C , 19-C ) :   1.2613 B( 18-C , 21-H ) :   0.9887
B( 19-C , 20-C ) :   1.5808 B( 19-C , 22-C ) :   1.0453 B( 22-C , 23-H ) :   0.9283
B( 22-C , 24-H ) :   0.9340 B( 22-C , 25-C ) :   1.0546 B( 25-C , 26-H ) :   0.9617
B( 25-C , 27-H ) :   0.9531 B( 25-C , 28-C ) :   1.0759 B( 28-C , 29-H ) :   0.9774
B( 28-C , 30-H ) :   0.9777 B( 28-C , 31-H ) :   0.9730

Dispersion correction           -0.013908461
FINAL SINGLE POINT ENERGY     -1339.883514346229

DIPOLE MOMENT
-------------
                                X             Y             Z
Electronic contribution:     27.11081      18.87828       2.32724
Nuclear contribution   :    -27.59129     -19.25779      -2.32010
                        -----------------------------------------
Total Dipole Moment    :     -0.48048      -0.37951       0.00713
                        -----------------------------------------
Magnitude (a.u.)       :      0.61232
Magnitude (Debye)      :      1.55640

Rotational constants in cm-1:     0.016272     0.009341     0.006383
Rotational constants in MHz :   487.812439   280.030458   191.357186

                             ****ORCA TERMINATED NORMALLY****
TOTAL RUN TIME: 0 days 0 hours 0 minutes 29 seconds 553 msec
