                         Program Version 4.2.1 -  RELEASE  -
|  1> ! wB97X-D3 SP def2-SVP
|  2> %pal
|  3> nprocs 16
|  4> end
|  5>
|  6> * xyz 0 1
|  7> S 	 41.5881 	 10.0864 	 82.1299
|  8> C 	 40.0662 	 10.1495 	 82.9323
|  9> C 	 40.2956 	 10.4888 	 84.24
| 10> C 	 41.5784 	 10.9814 	 84.5327
| 11> C 	 42.4221 	 10.8969 	 83.4441
| 12> H 	 41.9438 	 11.2949 	 85.5148
| 13> C 	 39.1949 	 10.4968 	 85.22
| 14> H 	 38.3618 	 10.1794 	 84.5913
| 15> H 	 38.8911 	 11.4663 	 85.6698
| 16> C 	 39.3028 	 9.49807 	 86.3827
| 17> H 	 39.5985 	 8.53007 	 86.0006
| 18> H 	 40.0823 	 9.8467 	 87.0996
| 19> C 	 38.0319 	 9.26036 	 87.1698
| 20> H 	 37.3214 	 8.89937 	 86.479
| 21> H 	 38.3661 	 8.52662 	 87.8334
| 22> H 	 37.6079 	 10.1392 	 87.6703
| 23> S 	 44.7443 	 9.98433 	 82.5626
| 24> C 	 46.2421 	 10.7979 	 82.7749
| 25> C 	 45.9961 	 11.9827 	 83.3349
| 26> C 	 44.6972 	 12.1822 	 83.7559
| 27> C 	 43.8695 	 11.1667 	 83.3342
| 28> H 	 46.7422 	 12.7124 	 83.4433
| 29> C 	 44.3439 	 13.3463 	 84.5787
| 30> H 	 45.1739 	 13.3547 	 85.3012
| 31> H 	 43.5844 	 13.0269 	 85.3364
| 32> C 	 43.8938 	 14.6239 	 83.7787
| 33> H 	 44.6853 	 14.8674 	 83.0382
| 34> H 	 43.6981 	 15.4886 	 84.4385
| 35> C 	 42.6008 	 14.3759 	 83.0897
| 36> H 	 42.0454 	 15.2005 	 82.715
| 37> H 	 41.8625 	 13.8773 	 83.7877
| 38> H 	 42.749 	 13.6771 	 82.2444
| 39> H 	 39.1301 	 9.87933 	 82.5167
| 40> H 	 47.1624 	 10.4584 	 82.4961
| 41> *
| 42>
| 43>                          ****END OF INPUT****

CARTESIAN COORDINATES (ANGSTROEM)
---------------------------------
  S     41.588100   10.086400   82.129900
  C     40.066200   10.149500   82.932300
  C     40.295600   10.488800   84.240000
  C     41.578400   10.981400   84.532700
  C     42.422100   10.896900   83.444100
  H     41.943800   11.294900   85.514800
  C     39.194900   10.496800   85.220000
  H     38.361800   10.179400   84.591300
  H     38.891100   11.466300   85.669800
  C     39.302800    9.498070   86.382700
  H     39.598500    8.530070   86.000600
  H     40.082300    9.846700   87.099600
  C     38.031900    9.260360   87.169800
  H     37.321400    8.899370   86.479000
  H     38.366100    8.526620   87.833400
  H     37.607900   10.139200   87.670300
  S     44.744300    9.984330   82.562600
  C     46.242100   10.797900   82.774900
  C     45.996100   11.982700   83.334900
  C     44.697200   12.182200   83.755900
  C     43.869500   11.166700   83.334200
  H     46.742200   12.712400   83.443300
  C     44.343900   13.346300   84.578700
  H     45.173900   13.354700   85.301200
  H     43.584400   13.026900   85.336400
  C     43.893800   14.623900   83.778700
  H     44.685300   14.867400   83.038200
  H     43.698100   15.488600   84.438500
  C     42.600800   14.375900   83.089700
  H     42.045400   15.200500   82.715000
  H     41.862500   13.877300   83.787700
  H     42.749000   13.677100   82.244400
  H     39.130100    9.879330   82.516700
  H     47.162400   10.458400   82.496100

 Total Charge           Charge          ....    0
 Multiplicity           Mult            ....    1
 Number of Electrons    NEL             ....  134
 Basis Dimension        Dim             ....  322

ORBITAL ENERGIES
----------------

  NO   OCC          E(Eh)            E(eV)
   0   2.0000     -88.964299     -2420.8416
   1   2.0000     -88.960815     -2420.7468
   2   2.0000     -10.332115      -281.1512
   3   2.0000     -10.318996      -280.7942
   4   2.0000     -10.308973      -280.5214
   5   2.0000     -10.300869      -280.3009
   6   2.0000     -10.293783      -280.1081
   7   2.0000     -10.291877      -280.0562
   8   2.0000     -10.291573      -280.0480
   9   2.0000     -10.291028      -280.0331
  10   2.0000     -10.289035      -279.9789
  11   2.0000     -10.284919      -279.8669
  12   2.0000     -10.283429      -279.8263
  13   2.0000     -10.277730      -279.6713
  14   2.0000     -10.268959      -279.4326
  15   2.0000     -10.268460      -279.4190
  16   2.0000      -8.079561      -219.8560
  17   2.0000      -8.078201      -219.8190
  18   2.0000      -6.038083      -164.3046
  19   2.0000      -6.036506      -164.2617
  20   2.0000      -6.033981      -164.1930
  21   2.0000      -6.032195      -164.1444
  22   2.0000      -6.030272      -164.0920
  23   2.0000      -6.029132      -164.0610
  24   2.0000      -1.025881       -27.9156
  25   2.0000      -0.999194       -27.1894
  26   2.0000      -0.916586       -24.9416
  27   2.0000      -0.912643       -24.8343
  28   2.0000      -0.879940       -23.9444
  29   2.0000      -0.855320       -23.2744
  30   2.0000      -0.852803       -23.2059
  31   2.0000      -0.827071       -22.5058
  32   2.0000      -0.779804       -21.2195
  33   2.0000      -0.770962       -20.9790
  34   2.0000      -0.710205       -19.3257
  35   2.0000      -0.697915       -18.9912
  36   2.0000      -0.690439       -18.7878
  37   2.0000      -0.668867       -18.2008
  38   2.0000      -0.645426       -17.5629
  39   2.0000      -0.625526       -17.0214
  40   2.0000      -0.604214       -16.4415
  41   2.0000      -0.580001       -15.7826
  42   2.0000      -0.564391       -15.3579
  43   2.0000      -0.559110       -15.2142
  44   2.0000      -0.542706       -14.7678
  45   2.0000      -0.530832       -14.4447
  46   2.0000      -0.523720       -14.2511
  47   2.0000      -0.513382       -13.9698
  48   2.0000      -0.508527       -13.8377
  49   2.0000      -0.503733       -13.7073
  50   2.0000      -0.497235       -13.5305
  51   2.0000      -0.483401       -13.1540
  52   2.0000      -0.471211       -12.8223
  53   2.0000      -0.464332       -12.6351
  54   2.0000      -0.463625       -12.6159
  55   2.0000      -0.448062       -12.1924
  56   2.0000      -0.438765       -11.9394
  57   2.0000      -0.433917       -11.8075
  58   2.0000      -0.430813       -11.7230
  59   2.0000      -0.419790       -11.4231
  60   2.0000      -0.416511       -11.3338
  61   2.0000      -0.413944       -11.2640
  62   2.0000      -0.407167       -11.0796
  63   2.0000      -0.358802        -9.7635
  64   2.0000      -0.333643        -9.0789
  65   2.0000      -0.326113        -8.8740
  66   2.0000      -0.288860        -7.8603
  67   0.0000       0.032656         0.8886
  68   0.0000       0.075803         2.0627
  69   0.0000       0.117500         3.1973
  70   0.0000       0.121115         3.2957
  71   0.0000       0.141087         3.8392

MULLIKEN ATOMIC CHARGES
-----------------------
   0 S :    0.101298
   1 C :   -0.099737
   2 C :   -0.085184
   3 C :    0.032472
   4 C :   -0.122357
   5 H :    0.019592
   6 C :    0.071177
   7 H :   -0.009338
   8 H :    0.033415
   9 C :   -0.117255
  10 H :    0.022332
  11 H :    0.029414
  12 C :    0.002635
  13 H :    0.018036
  14 H :    0.029368
  15 H :    0.032188
  16 S :    0.104758
  17 C :   -0.036559
  18 C :   -0.015469
  19 C :   -0.072116
  20 C :   -0.137786
  21 H :   -0.008668
  22 C :    0.043376
  23 H :    0.021450
  24 H :    0.009752
  25 C :   -0.019902
  26 H :    0.035253
  27 H :    0.035633
  28 C :   -0.069260
  29 H :    0.027747
  30 H :    0.031110
  31 H :    0.042521
  32 H :    0.039048
  33 H :    0.011056
Sum of atomic charges:    0.0000000

LOEWDIN ATOMIC CHARGES
----------------------
   0 S :    0.411552
   1 C :   -0.199809
   2 C :   -0.067579
   3 C :   -0.067051
   4 C :   -0.176883
   5 H :    0.033217
   6 C :   -0.039540
   7 H :    0.025044
   8 H :    0.031006
   9 C :   -0.038979
  10 H :    0.022121
  11 H :    0.022207
  12 C :   -0.053761
  13 H :    0.018689
  14 H :    0.024769
  15 H :    0.025444
  16 S :    0.456471
  17 C :   -0.180485
  18 C :   -0.062360
  19 C :   -0.076505
  20 C :   -0.220101
  21 H :    0.023998
  22 C :   -0.041891
  23 H :    0.035110
  24 H :    0.031826
  25 C :   -0.035914
  26 H :    0.027985
  27 H :    0.027675
  28 C :   -0.072894
  29 H :    0.020096
  30 H :    0.031381
  31 H :    0.028794
  32 H :    0.024605
  33 H :    0.011764

  Mayer bond orders larger than 0.100000
B(  0-S ,  1-C ) :   1.1332 B(  0-S ,  4-C ) :   1.1651 B(  1-C ,  2-C ) :   1.5877
B(  1-C ,  4-C ) :   0.1020 B(  1-C , 32-H ) :   0.9738 B(  2-C ,  3-C ) :   1.2461
B(  2-C ,  6-C ) :   1.0450 B(  3-C ,  4-C ) :   1.5546 B(  3-C ,  5-H ) :   0.9961
B(  4-C , 20-C ) :   1.0126 B(  6-C ,  7-H ) :   0.9311 B(  6-C ,  8-H ) :   0.9390
B(  6-C ,  9-C ) :   1.0657 B(  9-C , 10-H ) :   0.9548 B(  9-C , 11-H ) :   0.9536
B(  9-C , 12-C ) :   1.0880 B( 12-C , 13-H ) :   0.9739 B( 12-C , 14-H ) :   0.9741
B( 12-C , 15-H ) :   0.9729 B( 16-S , 17-C ) :   1.1587 B( 16-S , 20-C ) :   1.1885
B( 17-C , 18-C ) :   1.5673 B( 17-C , 33-H ) :   0.9861 B( 18-C , 19-C ) :   1.2968
B( 18-C , 21-H ) :   0.9989 B( 19-C , 20-C ) :   1.5473 B( 19-C , 22-C ) :   1.0336
B( 22-C , 23-H ) :   0.9318 B( 22-C , 24-H ) :   0.9374 B( 22-C , 25-C ) :   1.0475
B( 25-C , 26-H ) :   0.9574 B( 25-C , 27-H ) :   0.9559 B( 25-C , 28-C ) :   1.0792
B( 28-C , 29-H ) :   0.9724 B( 28-C , 30-H ) :   0.9696 B( 28-C , 31-H ) :   0.9697

Dispersion correction           -0.015013643
FINAL SINGLE POINT ENERGY     -1339.864382457458

DIPOLE MOMENT
-------------
                                X             Y             Z
Electronic contribution:     14.73365     -10.62238     -17.03402
Nuclear contribution   :    -14.84139      10.85547      17.48821
                        -----------------------------------------
Total Dipole Moment    :     -0.10774       0.23309       0.45419
                        -----------------------------------------
Magnitude (a.u.)       :      0.52175
Magnitude (Debye)      :      1.32619

Rotational constants in cm-1:     0.021690     0.008152     0.007196
Rotational constants in MHz :   650.263326   244.401071   215.744486

                             ****ORCA TERMINATED NORMALLY****
TOTAL RUN TIME: 0 days 0 hours 0 minutes 31 seconds 615 msec
