                         Program Version 4.2.1 -  RELEASE  -
|  1> ! wB97X-D3 SP def2-SVP
|  2> %pal
|  3> nprocs 16
|  4> end
|  5>
|  6> * xyz 0 1
|  7> S 	 5.21418 	 -16.7631 	 55.1764
|  8> C 	 6.1194 	 -16.2453 	 56.5214
|  9> C 	 7.46009 	 -16.5818 	 56.3663
| 10> C 	 7.72482 	 -17.3796 	 55.2053
| 11> C 	 6.57832 	 -17.572 	 54.3726
| 12> H 	 8.64068 	 -17.923 	 54.8905
| 13> C 	 8.53576 	 -16.1855 	 57.295
| 14> H 	 8.5362 	 -16.8249 	 58.1085
| 15> H 	 8.2988 	 -15.2624 	 57.8413
| 16> C 	 9.96635 	 -16.0899 	 56.8232
| 17> H 	 10.2891 	 -16.9752 	 56.3342
| 18> H 	 10.1571 	 -15.203 	 56.2124
| 19> C 	 10.8923 	 -16.0332 	 58.0022
| 20> H 	 10.9632 	 -16.9687 	 58.4867
| 21> H 	 11.9325 	 -15.9051 	 57.5669
| 22> H 	 10.7129 	 -15.2647 	 58.8169
| 23> S 	 5.05067 	 -19.1638 	 52.6887
| 24> C 	 5.70846 	 -19.5191 	 51.0891
| 25> C 	 7.05097 	 -19.1906 	 51.0034
| 26> C 	 7.55451 	 -18.4817 	 52.13
| 27> C 	 6.55048 	 -18.3229 	 53.0999
| 28> H 	 7.54539 	 -19.4659 	 50.0771
| 29> C 	 8.94718 	 -17.878 	 52.086
| 30> H 	 9.43121 	 -18.2595 	 51.1115
| 31> H 	 9.45983 	 -18.3972 	 52.9694
| 32> C 	 8.99991 	 -16.3394 	 52.2117
| 33> H 	 9.98682 	 -15.9895 	 52.5129
| 34> H 	 8.45003 	 -16.0947 	 53.0451
| 35> C 	 8.33514 	 -15.5878 	 51.0356
| 36> H 	 8.83492 	 -15.6386 	 50.0733
| 37> H 	 8.12766 	 -14.5487 	 51.3768
| 38> H 	 7.34623 	 -15.9251 	 50.9583
| 39> H 	 5.7941 	 -15.7507 	 57.4352
| 40> H 	 5.08359 	 -19.8909 	 50.2702
| 41> *
| 42>
| 43>                          ****END OF INPUT****

CARTESIAN COORDINATES (ANGSTROEM)
---------------------------------
  S      5.214180  -16.763100   55.176400
  C      6.119400  -16.245300   56.521400
  C      7.460090  -16.581800   56.366300
  C      7.724820  -17.379600   55.205300
  C      6.578320  -17.572000   54.372600
  H      8.640680  -17.923000   54.890500
  C      8.535760  -16.185500   57.295000
  H      8.536200  -16.824900   58.108500
  H      8.298800  -15.262400   57.841300
  C      9.966350  -16.089900   56.823200
  H     10.289100  -16.975200   56.334200
  H     10.157100  -15.203000   56.212400
  C     10.892300  -16.033200   58.002200
  H     10.963200  -16.968700   58.486700
  H     11.932500  -15.905100   57.566900
  H     10.712900  -15.264700   58.816900
  S      5.050670  -19.163800   52.688700
  C      5.708460  -19.519100   51.089100
  C      7.050970  -19.190600   51.003400
  C      7.554510  -18.481700   52.130000
  C      6.550480  -18.322900   53.099900
  H      7.545390  -19.465900   50.077100
  C      8.947180  -17.878000   52.086000
  H      9.431210  -18.259500   51.111500
  H      9.459830  -18.397200   52.969400
  C      8.999910  -16.339400   52.211700
  H      9.986820  -15.989500   52.512900
  H      8.450030  -16.094700   53.045100
  C      8.335140  -15.587800   51.035600
  H      8.834920  -15.638600   50.073300
  H      8.127660  -14.548700   51.376800
  H      7.346230  -15.925100   50.958300
  H      5.794100  -15.750700   57.435200
  H      5.083590  -19.890900   50.270200

 Total Charge           Charge          ....    0
 Multiplicity           Mult            ....    1
 Number of Electrons    NEL             ....  134
 Basis Dimension        Dim             ....  322

ORBITAL ENERGIES
----------------

  NO   OCC          E(Eh)            E(eV)
   0   2.0000     -88.970051     -2420.9982
   1   2.0000     -88.967793     -2420.9367
   2   2.0000     -10.336598      -281.2731
   3   2.0000     -10.333794      -281.1968
   4   2.0000     -10.319901      -280.8188
   5   2.0000     -10.312475      -280.6167
   6   2.0000     -10.307754      -280.4883
   7   2.0000     -10.306172      -280.4452
   8   2.0000     -10.300743      -280.2975
   9   2.0000     -10.299958      -280.2761
  10   2.0000     -10.295867      -280.1648
  11   2.0000     -10.282910      -279.8122
  12   2.0000     -10.281419      -279.7716
  13   2.0000     -10.280952      -279.7589
  14   2.0000     -10.278026      -279.6793
  15   2.0000     -10.271156      -279.4924
  16   2.0000      -8.084431      -219.9885
  17   2.0000      -8.082003      -219.9225
  18   2.0000      -6.042962      -164.4373
  19   2.0000      -6.040444      -164.3688
  20   2.0000      -6.038771      -164.3233
  21   2.0000      -6.036695      -164.2668
  22   2.0000      -6.035390      -164.2313
  23   2.0000      -6.032773      -164.1601
  24   2.0000      -1.002716       -27.2853
  25   2.0000      -0.983625       -26.7658
  26   2.0000      -0.922787       -25.1103
  27   2.0000      -0.906349       -24.6630
  28   2.0000      -0.870014       -23.6743
  29   2.0000      -0.851654       -23.1747
  30   2.0000      -0.847751       -23.0685
  31   2.0000      -0.812668       -22.1138
  32   2.0000      -0.781560       -21.2673
  33   2.0000      -0.770412       -20.9640
  34   2.0000      -0.715071       -19.4581
  35   2.0000      -0.702899       -19.1268
  36   2.0000      -0.686466       -18.6797
  37   2.0000      -0.662545       -18.0288
  38   2.0000      -0.639324       -17.3969
  39   2.0000      -0.618615       -16.8334
  40   2.0000      -0.586906       -15.9705
  41   2.0000      -0.575942       -15.6722
  42   2.0000      -0.571031       -15.5386
  43   2.0000      -0.550370       -14.9763
  44   2.0000      -0.545427       -14.8418
  45   2.0000      -0.527173       -14.3451
  46   2.0000      -0.517196       -14.0736
  47   2.0000      -0.507608       -13.8127
  48   2.0000      -0.500502       -13.6194
  49   2.0000      -0.497670       -13.5423
  50   2.0000      -0.488429       -13.2908
  51   2.0000      -0.477657       -12.9977
  52   2.0000      -0.477224       -12.9859
  53   2.0000      -0.467058       -12.7093
  54   2.0000      -0.457763       -12.4564
  55   2.0000      -0.447246       -12.1702
  56   2.0000      -0.439506       -11.9596
  57   2.0000      -0.436847       -11.8872
  58   2.0000      -0.430695       -11.7198
  59   2.0000      -0.426820       -11.6144
  60   2.0000      -0.424752       -11.5581
  61   2.0000      -0.419439       -11.4135
  62   2.0000      -0.413380       -11.2486
  63   2.0000      -0.351698        -9.5702
  64   2.0000      -0.334006        -9.0888
  65   2.0000      -0.326373        -8.8811
  66   2.0000      -0.281702        -7.6655
  67   0.0000       0.015766         0.4290
  68   0.0000       0.081754         2.2246
  69   0.0000       0.102948         2.8014
  70   0.0000       0.122568         3.3353
  71   0.0000       0.126426         3.4402

MULLIKEN ATOMIC CHARGES
-----------------------
   0 S :    0.125267
   1 C :   -0.113020
   2 C :   -0.062463
   3 C :   -0.009822
   4 C :   -0.150648
   5 H :    0.021755
   6 C :    0.081432
   7 H :    0.005305
   8 H :    0.009073
   9 C :   -0.039219
  10 H :    0.020599
  11 H :    0.039982
  12 C :   -0.090204
  13 H :    0.021276
  14 H :    0.033897
  15 H :    0.041269
  16 S :    0.106035
  17 C :   -0.114072
  18 C :   -0.036452
  19 C :   -0.038360
  20 C :   -0.161901
  21 H :    0.021898
  22 C :    0.004122
  23 H :    0.037334
  24 H :    0.050455
  25 C :   -0.007579
  26 H :    0.018231
  27 H :    0.011459
  28 C :   -0.035700
  29 H :    0.039963
  30 H :    0.030548
  31 H :    0.024227
  32 H :    0.048488
  33 H :    0.066825
Sum of atomic charges:    0.0000000

LOEWDIN ATOMIC CHARGES
----------------------
   0 S :    0.423183
   1 C :   -0.220336
   2 C :   -0.064766
   3 C :   -0.070561
   4 C :   -0.193930
   5 H :    0.034373
   6 C :   -0.040148
   7 H :    0.025352
   8 H :    0.033921
   9 C :   -0.036438
  10 H :    0.022052
  11 H :    0.027361
  12 C :   -0.067820
  13 H :    0.016132
  14 H :    0.033634
  15 H :    0.028119
  16 S :    0.391282
  17 C :   -0.181373
  18 C :   -0.071438
  19 C :   -0.059290
  20 C :   -0.193093
  21 H :    0.034136
  22 C :   -0.036498
  23 H :    0.036769
  24 H :    0.037838
  25 C :   -0.036783
  26 H :    0.023746
  27 H :    0.016425
  28 C :   -0.060809
  29 H :    0.023003
  30 H :    0.034733
  31 H :    0.022190
  32 H :    0.036546
  33 H :    0.032489

  Mayer bond orders larger than 0.100000
B(  0-S ,  1-C ) :   1.1484 B(  0-S ,  4-C ) :   1.1635 B(  1-C ,  2-C ) :   1.5732
B(  1-C ,  4-C ) :   0.1023 B(  1-C , 32-H ) :   0.9686 B(  2-C ,  3-C ) :   1.2724
B(  2-C ,  6-C ) :   1.0226 B(  3-C ,  4-C ) :   1.5159 B(  3-C ,  5-H ) :   0.9818
B(  4-C , 20-C ) :   1.0840 B(  6-C ,  7-H ) :   0.9241 B(  6-C ,  8-H ) :   0.9303
B(  6-C ,  9-C ) :   1.0849 B(  9-C , 10-H ) :   0.9393 B(  9-C , 11-H ) :   0.9578
B(  9-C , 12-C ) :   1.0870 B( 12-C , 13-H ) :   0.9743 B( 12-C , 14-H ) :   0.9719
B( 12-C , 15-H ) :   0.9745 B( 16-S , 17-C ) :   1.1461 B( 16-S , 20-C ) :   1.1423
B( 17-C , 18-C ) :   1.6152 B( 17-C , 33-H ) :   0.9656 B( 18-C , 19-C ) :   1.2413
B( 18-C , 21-H ) :   0.9886 B( 19-C , 20-C ) :   1.5618 B( 19-C , 22-C ) :   1.0188
B( 22-C , 23-H ) :   0.9429 B( 22-C , 24-H ) :   0.9291 B( 22-C , 25-C ) :   1.0663
B( 25-C , 26-H ) :   0.9517 B( 25-C , 27-H ) :   0.9461 B( 25-C , 28-C ) :   1.0749
B( 28-C , 29-H ) :   0.9793 B( 28-C , 30-H ) :   0.9709 B( 28-C , 31-H ) :   0.9711

Dispersion correction           -0.015106690
FINAL SINGLE POINT ENERGY     -1339.865878426773

DIPOLE MOMENT
-------------
                                X             Y             Z
Electronic contribution:    -26.78629     -11.81528      -4.52720
Nuclear contribution   :     27.36558      11.92950       4.59077
                        -----------------------------------------
Total Dipole Moment    :      0.57928       0.11422       0.06357
                        -----------------------------------------
Magnitude (a.u.)       :      0.59385
Magnitude (Debye)      :      1.50944

Rotational constants in cm-1:     0.019932     0.009031     0.007148
Rotational constants in MHz :   597.550132   270.755937   214.302129

                             ****ORCA TERMINATED NORMALLY****
TOTAL RUN TIME: 0 days 0 hours 0 minutes 31 seconds 510 msec
