                         Program Version 4.2.1 -  RELEASE  -
|  1> ! wB97X-D3 SP def2-SVP
|  2> %pal
|  3> nprocs 16
|  4> end
|  5>
|  6> * xyz 0 1
|  7> S 	 55.6436 	 19.8573 	 49.3517
|  8> C 	 54.0381 	 20.4989 	 48.9669
|  9> C 	 53.1321 	 19.5977 	 48.3429
| 10> C 	 53.7493 	 18.3295 	 48.396
| 11> C 	 55.0039 	 18.2103 	 49.0318
| 12> H 	 53.3858 	 17.4376 	 47.939
| 13> C 	 51.7514 	 19.9446 	 47.8466
| 14> H 	 51.6857 	 20.839 	 47.2174
| 15> H 	 51.0931 	 20.2489 	 48.639
| 16> C 	 50.9259 	 18.7672 	 47.2956
| 17> H 	 51.0759 	 17.9005 	 47.9552
| 18> H 	 49.9009 	 19.1229 	 47.4731
| 19> C 	 51.1541 	 18.318 	 45.7935
| 20> H 	 50.9354 	 19.1511 	 45.1056
| 21> H 	 52.204 	 18.1351 	 45.5985
| 22> H 	 50.4896 	 17.508 	 45.5002
| 23> S 	 57.2598 	 16.9112 	 48.0838
| 24> C 	 57.6537 	 15.2503 	 48.4957
| 25> C 	 56.5631 	 14.7098 	 49.155
| 26> C 	 55.5804 	 15.6389 	 49.5536
| 27> C 	 55.8294 	 17.0037 	 49.1285
| 28> H 	 56.5314 	 13.6028 	 49.2268
| 29> C 	 54.215 	 15.1925 	 50.1463
| 30> H 	 53.5367 	 15.5967 	 49.3493
| 31> H 	 53.9717 	 15.5976 	 51.1229
| 32> C 	 53.8205 	 13.6714 	 50.0112
| 33> H 	 54.5841 	 13.0364 	 50.3776
| 34> H 	 53.7051 	 13.3794 	 48.9614
| 35> C 	 52.4745 	 13.4751 	 50.6518
| 36> H 	 52.547 	 13.5747 	 51.7036
| 37> H 	 51.9151 	 12.605 	 50.3664
| 38> H 	 51.7354 	 14.2992 	 50.4086
| 39> H 	 53.6854 	 21.5266 	 49.1584
| 40> H 	 58.3716 	 14.6101 	 48.035
| 41> *
| 42>
| 43>                          ****END OF INPUT****

CARTESIAN COORDINATES (ANGSTROEM)
---------------------------------
  S     55.643600   19.857300   49.351700
  C     54.038100   20.498900   48.966900
  C     53.132100   19.597700   48.342900
  C     53.749300   18.329500   48.396000
  C     55.003900   18.210300   49.031800
  H     53.385800   17.437600   47.939000
  C     51.751400   19.944600   47.846600
  H     51.685700   20.839000   47.217400
  H     51.093100   20.248900   48.639000
  C     50.925900   18.767200   47.295600
  H     51.075900   17.900500   47.955200
  H     49.900900   19.122900   47.473100
  C     51.154100   18.318000   45.793500
  H     50.935400   19.151100   45.105600
  H     52.204000   18.135100   45.598500
  H     50.489600   17.508000   45.500200
  S     57.259800   16.911200   48.083800
  C     57.653700   15.250300   48.495700
  C     56.563100   14.709800   49.155000
  C     55.580400   15.638900   49.553600
  C     55.829400   17.003700   49.128500
  H     56.531400   13.602800   49.226800
  C     54.215000   15.192500   50.146300
  H     53.536700   15.596700   49.349300
  H     53.971700   15.597600   51.122900
  C     53.820500   13.671400   50.011200
  H     54.584100   13.036400   50.377600
  H     53.705100   13.379400   48.961400
  C     52.474500   13.475100   50.651800
  H     52.547000   13.574700   51.703600
  H     51.915100   12.605000   50.366400
  H     51.735400   14.299200   50.408600
  H     53.685400   21.526600   49.158400
  H     58.371600   14.610100   48.035000

 Total Charge           Charge          ....    0
 Multiplicity           Mult            ....    1
 Number of Electrons    NEL             ....  134
 Basis Dimension        Dim             ....  322

ORBITAL ENERGIES
----------------

  NO   OCC          E(Eh)            E(eV)
   0   2.0000     -88.973769     -2421.0993
   1   2.0000     -88.964373     -2420.8437
   2   2.0000     -10.336287      -281.2647
   3   2.0000     -10.334406      -281.2135
   4   2.0000     -10.322340      -280.8851
   5   2.0000     -10.315417      -280.6968
   6   2.0000     -10.312029      -280.6046
   7   2.0000     -10.308224      -280.5010
   8   2.0000     -10.298487      -280.2361
   9   2.0000     -10.298176      -280.2276
  10   2.0000     -10.297296      -280.2037
  11   2.0000     -10.296208      -280.1741
  12   2.0000     -10.294697      -280.1330
  13   2.0000     -10.286649      -279.9139
  14   2.0000     -10.283106      -279.8176
  15   2.0000     -10.275950      -279.6228
  16   2.0000      -8.086914      -220.0561
  17   2.0000      -8.078331      -219.8226
  18   2.0000      -6.045408      -164.5039
  19   2.0000      -6.041784      -164.4053
  20   2.0000      -6.037646      -164.2927
  21   2.0000      -6.036817      -164.2701
  22   2.0000      -6.032845      -164.1620
  23   2.0000      -6.029233      -164.0638
  24   2.0000      -0.997567       -27.1452
  25   2.0000      -0.977640       -26.6029
  26   2.0000      -0.911965       -24.8158
  27   2.0000      -0.906351       -24.6631
  28   2.0000      -0.865755       -23.5584
  29   2.0000      -0.847776       -23.0692
  30   2.0000      -0.842598       -22.9283
  31   2.0000      -0.813354       -22.1325
  32   2.0000      -0.787081       -21.4176
  33   2.0000      -0.766659       -20.8619
  34   2.0000      -0.712699       -19.3935
  35   2.0000      -0.704708       -19.1761
  36   2.0000      -0.690912       -18.8007
  37   2.0000      -0.644607       -17.5407
  38   2.0000      -0.643833       -17.5196
  39   2.0000      -0.623714       -16.9721
  40   2.0000      -0.593786       -16.1577
  41   2.0000      -0.572191       -15.5701
  42   2.0000      -0.571057       -15.5392
  43   2.0000      -0.546301       -14.8656
  44   2.0000      -0.531697       -14.4682
  45   2.0000      -0.525107       -14.2889
  46   2.0000      -0.521708       -14.1964
  47   2.0000      -0.508518       -13.8375
  48   2.0000      -0.502976       -13.6867
  49   2.0000      -0.494070       -13.4443
  50   2.0000      -0.490853       -13.3568
  51   2.0000      -0.485566       -13.2129
  52   2.0000      -0.472655       -12.8616
  53   2.0000      -0.462333       -12.5807
  54   2.0000      -0.460986       -12.5441
  55   2.0000      -0.447276       -12.1710
  56   2.0000      -0.440481       -11.9861
  57   2.0000      -0.434784       -11.8311
  58   2.0000      -0.431947       -11.7539
  59   2.0000      -0.427962       -11.6454
  60   2.0000      -0.425457       -11.5773
  61   2.0000      -0.415537       -11.3073
  62   2.0000      -0.407489       -11.0883
  63   2.0000      -0.342763        -9.3271
  64   2.0000      -0.332157        -9.0385
  65   2.0000      -0.323812        -8.8114
  66   2.0000      -0.286369        -7.7925
  67   0.0000       0.019419         0.5284
  68   0.0000       0.050140         1.3644
  69   0.0000       0.103638         2.8201
  70   0.0000       0.118843         3.2339
  71   0.0000       0.123769         3.3679

MULLIKEN ATOMIC CHARGES
-----------------------
   0 S :    0.128570
   1 C :   -0.122424
   2 C :   -0.058246
   3 C :    0.014892
   4 C :   -0.166186
   5 H :    0.013927
   6 C :    0.068903
   7 H :    0.032908
   8 H :    0.031254
   9 C :   -0.112753
  10 H :    0.035042
  11 H :    0.028695
  12 C :   -0.041820
  13 H :    0.024847
  14 H :    0.035706
  15 H :    0.045117
  16 S :    0.092369
  17 C :   -0.070972
  18 C :   -0.079033
  19 C :   -0.029840
  20 C :   -0.140477
  21 H :    0.036363
  22 C :    0.014401
  23 H :    0.036659
  24 H :    0.050564
  25 C :   -0.066224
  26 H :    0.028931
  27 H :    0.026574
  28 C :   -0.035561
  29 H :    0.022817
  30 H :    0.032469
  31 H :    0.020214
  32 H :    0.049707
  33 H :    0.052608
Sum of atomic charges:    0.0000000

LOEWDIN ATOMIC CHARGES
----------------------
   0 S :    0.395618
   1 C :   -0.185753
   2 C :   -0.064290
   3 C :   -0.050100
   4 C :   -0.195974
   5 H :    0.023351
   6 C :   -0.037369
   7 H :    0.035457
   8 H :    0.038957
   9 C :   -0.040450
  10 H :    0.025013
  11 H :    0.026844
  12 C :   -0.070594
  13 H :    0.026600
  14 H :    0.025156
  15 H :    0.028284
  16 S :    0.405884
  17 C :   -0.188670
  18 C :   -0.083361
  19 C :   -0.056598
  20 C :   -0.203908
  21 H :    0.038409
  22 C :   -0.031479
  23 H :    0.040934
  24 H :    0.031261
  25 C :   -0.039900
  26 H :    0.013388
  27 H :    0.025830
  28 C :   -0.065949
  29 H :    0.019989
  30 H :    0.023760
  31 H :    0.031516
  32 H :    0.029311
  33 H :    0.028832

  Mayer bond orders larger than 0.100000
B(  0-S ,  1-C ) :   1.1670 B(  0-S ,  4-C ) :   1.1305 B(  1-C ,  2-C ) :   1.5798
B(  1-C ,  4-C ) :   0.1138 B(  1-C , 32-H ) :   0.9625 B(  2-C ,  3-C ) :   1.2795
B(  2-C ,  6-C ) :   1.0128 B(  3-C ,  4-C ) :   1.5513 B(  3-C ,  5-H ) :   0.9787
B(  4-C , 20-C ) :   1.0580 B(  6-C ,  7-H ) :   0.9346 B(  6-C ,  8-H ) :   0.9358
B(  6-C ,  9-C ) :   1.0813 B(  9-C , 10-H ) :   0.9505 B(  9-C , 11-H ) :   0.9611
B(  9-C , 12-C ) :   1.0679 B( 12-C , 13-H ) :   0.9738 B( 12-C , 14-H ) :   0.9776
B( 12-C , 15-H ) :   0.9771 B( 16-S , 17-C ) :   1.1728 B( 16-S , 20-C ) :   1.1608
B( 17-C , 18-C ) :   1.5645 B( 17-C , 20-C ) :   0.1177 B( 17-C , 33-H ) :   0.9646
B( 18-C , 19-C ) :   1.3135 B( 18-C , 21-H ) :   0.9775 B( 19-C , 20-C ) :   1.5251
B( 19-C , 22-C ) :   1.0009 B( 22-C , 23-H ) :   0.9408 B( 22-C , 24-H ) :   0.9513
B( 22-C , 25-C ) :   1.0672 B( 25-C , 26-H ) :   0.9497 B( 25-C , 27-H ) :   0.9570
B( 25-C , 28-C ) :   1.0845 B( 28-C , 29-H ) :   0.9744 B( 28-C , 30-H ) :   0.9726
B( 28-C , 31-H ) :   0.9686

Dispersion correction           -0.013741876
FINAL SINGLE POINT ENERGY     -1339.842164277132

DIPOLE MOMENT
-------------
                                X             Y             Z
Electronic contribution:     27.72500      13.05867       2.77613
Nuclear contribution   :    -28.59014     -13.34991      -3.04015
                        -----------------------------------------
Total Dipole Moment    :     -0.86515      -0.29125      -0.26402
                        -----------------------------------------
Magnitude (a.u.)       :      0.95027
Magnitude (Debye)      :      2.41539

Rotational constants in cm-1:     0.014813     0.009515     0.006921
Rotational constants in MHz :   444.082495   285.264068   207.477944

                             ****ORCA TERMINATED NORMALLY****
TOTAL RUN TIME: 0 days 0 hours 0 minutes 29 seconds 386 msec
