                         Program Version 4.2.1 -  RELEASE  -
|  1> ! wB97X-D3 SP def2-SVP
|  2> %pal
|  3> nprocs 16
|  4> end
|  5>
|  6> * xyz 0 1
|  7> S 	 -91.6598 	 55.1943 	 131.33
|  8> C 	 -91.1646 	 53.6046 	 131.897
|  9> C 	 -89.8221 	 53.4251 	 131.692
| 10> C 	 -89.2654 	 54.4655 	 130.949
| 11> C 	 -90.1539 	 55.4189 	 130.506
| 12> H 	 -88.2143 	 54.6212 	 130.546
| 13> C 	 -88.9732 	 52.2729 	 132.163
| 14> H 	 -89.6932 	 51.4917 	 132.043
| 15> H 	 -88.8745 	 52.2317 	 133.195
| 16> C 	 -87.649 	 51.8895 	 131.43
| 17> H 	 -87.8314 	 51.8028 	 130.367
| 18> H 	 -86.8575 	 52.6846 	 131.587
| 19> C 	 -87.2228 	 50.4719 	 131.919
| 20> H 	 -86.3258 	 50.0632 	 131.406
| 21> H 	 -86.844 	 50.5584 	 132.944
| 22> H 	 -87.9178 	 49.7542 	 132.15
| 23> S 	 -90.0916 	 58.224 	 130.189
| 24> C 	 -89.5847 	 58.8874 	 128.636
| 25> C 	 -89.415 	 57.8861 	 127.668
| 26> C 	 -89.4671 	 56.5731 	 128.259
| 27> C 	 -89.9218 	 56.5409 	 129.592
| 28> H 	 -89.1802 	 58.1723 	 126.644
| 29> C 	 -89.3946 	 55.3287 	 127.361
| 30> H 	 -89.3494 	 54.5427 	 128.074
| 31> H 	 -88.4249 	 55.2939 	 126.939
| 32> C 	 -90.6234 	 55.0553 	 126.419
| 33> H 	 -90.6809 	 55.898 	 125.68
| 34> H 	 -91.474 	 55.0784 	 127.094
| 35> C 	 -90.6837 	 53.6888 	 125.833
| 36> H 	 -91.5814 	 53.5698 	 125.212
| 37> H 	 -90.6183 	 52.9624 	 126.719
| 38> H 	 -89.7629 	 53.5266 	 125.201
| 39> H 	 -91.8169 	 52.9208 	 132.441
| 40> H 	 -89.5559 	 59.8992 	 128.413
| 41> *
| 42>
| 43>                          ****END OF INPUT****

CARTESIAN COORDINATES (ANGSTROEM)
---------------------------------
  S    -91.659800   55.194300  131.330000
  C    -91.164600   53.604600  131.897000
  C    -89.822100   53.425100  131.692000
  C    -89.265400   54.465500  130.949000
  C    -90.153900   55.418900  130.506000
  H    -88.214300   54.621200  130.546000
  C    -88.973200   52.272900  132.163000
  H    -89.693200   51.491700  132.043000
  H    -88.874500   52.231700  133.195000
  C    -87.649000   51.889500  131.430000
  H    -87.831400   51.802800  130.367000
  H    -86.857500   52.684600  131.587000
  C    -87.222800   50.471900  131.919000
  H    -86.325800   50.063200  131.406000
  H    -86.844000   50.558400  132.944000
  H    -87.917800   49.754200  132.150000
  S    -90.091600   58.224000  130.189000
  C    -89.584700   58.887400  128.636000
  C    -89.415000   57.886100  127.668000
  C    -89.467100   56.573100  128.259000
  C    -89.921800   56.540900  129.592000
  H    -89.180200   58.172300  126.644000
  C    -89.394600   55.328700  127.361000
  H    -89.349400   54.542700  128.074000
  H    -88.424900   55.293900  126.939000
  C    -90.623400   55.055300  126.419000
  H    -90.680900   55.898000  125.680000
  H    -91.474000   55.078400  127.094000
  C    -90.683700   53.688800  125.833000
  H    -91.581400   53.569800  125.212000
  H    -90.618300   52.962400  126.719000
  H    -89.762900   53.526600  125.201000
  H    -91.816900   52.920800  132.441000
  H    -89.555900   59.899200  128.413000

 Total Charge           Charge          ....    0
 Multiplicity           Mult            ....    1
 Number of Electrons    NEL             ....  134
 Basis Dimension        Dim             ....  322

ORBITAL ENERGIES
----------------

  NO   OCC          E(Eh)            E(eV)
   0   2.0000     -88.965984     -2420.8875
   1   2.0000     -88.965262     -2420.8678
   2   2.0000     -10.332938      -281.1736
   3   2.0000     -10.327175      -281.0167
   4   2.0000     -10.317503      -280.7535
   5   2.0000     -10.315089      -280.6878
   6   2.0000     -10.307934      -280.4931
   7   2.0000     -10.300941      -280.3028
   8   2.0000     -10.300195      -280.2826
   9   2.0000     -10.297965      -280.2219
  10   2.0000     -10.293025      -280.0875
  11   2.0000     -10.286785      -279.9176
  12   2.0000     -10.286306      -279.9046
  13   2.0000     -10.284952      -279.8678
  14   2.0000     -10.282456      -279.7999
  15   2.0000     -10.278221      -279.6846
  16   2.0000      -8.080300      -219.8762
  17   2.0000      -8.079795      -219.8624
  18   2.0000      -6.038735      -164.3223
  19   2.0000      -6.038399      -164.3132
  20   2.0000      -6.034797      -164.2152
  21   2.0000      -6.034369      -164.2035
  22   2.0000      -6.031076      -164.1139
  23   2.0000      -6.030585      -164.1006
  24   2.0000      -1.007701       -27.4209
  25   2.0000      -0.979949       -26.6658
  26   2.0000      -0.912525       -24.8311
  27   2.0000      -0.904507       -24.6129
  28   2.0000      -0.869596       -23.6629
  29   2.0000      -0.851193       -23.1621
  30   2.0000      -0.845336       -23.0028
  31   2.0000      -0.815841       -22.2002
  32   2.0000      -0.784801       -21.3555
  33   2.0000      -0.769312       -20.9340
  34   2.0000      -0.719658       -19.5829
  35   2.0000      -0.697501       -18.9800
  36   2.0000      -0.690407       -18.7869
  37   2.0000      -0.657013       -17.8782
  38   2.0000      -0.645961       -17.5775
  39   2.0000      -0.617313       -16.7979
  40   2.0000      -0.590188       -16.0598
  41   2.0000      -0.572697       -15.5839
  42   2.0000      -0.565866       -15.3980
  43   2.0000      -0.559461       -15.2237
  44   2.0000      -0.532497       -14.4900
  45   2.0000      -0.526647       -14.3308
  46   2.0000      -0.518004       -14.0956
  47   2.0000      -0.505466       -13.7544
  48   2.0000      -0.501909       -13.6576
  49   2.0000      -0.495172       -13.4743
  50   2.0000      -0.494285       -13.4502
  51   2.0000      -0.486045       -13.2260
  52   2.0000      -0.474813       -12.9203
  53   2.0000      -0.462268       -12.5790
  54   2.0000      -0.455764       -12.4020
  55   2.0000      -0.444821       -12.1042
  56   2.0000      -0.442323       -12.0362
  57   2.0000      -0.437383       -11.9018
  58   2.0000      -0.425591       -11.5809
  59   2.0000      -0.422917       -11.5082
  60   2.0000      -0.420329       -11.4377
  61   2.0000      -0.418420       -11.3858
  62   2.0000      -0.412558       -11.2263
  63   2.0000      -0.341007        -9.2793
  64   2.0000      -0.332243        -9.0408
  65   2.0000      -0.329879        -8.9765
  66   2.0000      -0.293604        -7.9894
  67   0.0000       0.030643         0.8339
  68   0.0000       0.058464         1.5909
  69   0.0000       0.113869         3.0985
  70   0.0000       0.123471         3.3598
  71   0.0000       0.130164         3.5419

MULLIKEN ATOMIC CHARGES
-----------------------
   0 S :    0.111973
   1 C :   -0.136934
   2 C :   -0.055682
   3 C :    0.012870
   4 C :   -0.183167
   5 H :    0.036726
   6 C :    0.078330
   7 H :    0.006988
   8 H :    0.018626
   9 C :   -0.070524
  10 H :    0.036593
  11 H :    0.055510
  12 C :   -0.030933
  13 H :    0.041671
  14 H :    0.009873
  15 H :    0.012786
  16 S :    0.099045
  17 C :   -0.070164
  18 C :   -0.035072
  19 C :   -0.064855
  20 C :   -0.148717
  21 H :    0.028412
  22 C :    0.101771
  23 H :   -0.011850
  24 H :    0.012521
  25 C :   -0.063059
  26 H :    0.034841
  27 H :    0.030868
  28 C :   -0.069330
  29 H :    0.050276
  30 H :    0.045554
  31 H :    0.033123
  32 H :    0.045899
  33 H :    0.036028
Sum of atomic charges:    0.0000000

LOEWDIN ATOMIC CHARGES
----------------------
   0 S :    0.411863
   1 C :   -0.195753
   2 C :   -0.064698
   3 C :   -0.074100
   4 C :   -0.203298
   5 H :    0.044187
   6 C :   -0.032940
   7 H :    0.033756
   8 H :    0.024789
   9 C :   -0.034009
  10 H :    0.023760
  11 H :    0.033579
  12 C :   -0.071714
  13 H :    0.032993
  14 H :    0.029336
  15 H :    0.015171
  16 S :    0.383855
  17 C :   -0.166024
  18 C :   -0.068660
  19 C :   -0.050558
  20 C :   -0.192544
  21 H :    0.034666
  22 C :   -0.031580
  23 H :    0.020407
  24 H :    0.021853
  25 C :   -0.041885
  26 H :    0.023793
  27 H :    0.028322
  28 C :   -0.071718
  29 H :    0.030811
  30 H :    0.036132
  31 H :    0.026052
  32 H :    0.029531
  33 H :    0.014624

  Mayer bond orders larger than 0.100000
B(  0-S ,  1-C ) :   1.1401 B(  0-S ,  4-C ) :   1.1624 B(  1-C ,  2-C ) :   1.5961
B(  1-C ,  4-C ) :   0.1072 B(  1-C , 32-H ) :   0.9748 B(  2-C ,  3-C ) :   1.2535
B(  2-C ,  6-C ) :   0.9886 B(  3-C ,  4-C ) :   1.5658 B(  3-C ,  5-H ) :   0.9822
B(  4-C , 20-C ) :   1.0236 B(  6-C ,  7-H ) :   0.9329 B(  6-C ,  8-H ) :   0.9325
B(  6-C ,  9-C ) :   1.0671 B(  9-C , 10-H ) :   0.9604 B(  9-C , 11-H ) :   0.9501
B(  9-C , 12-C ) :   1.0705 B( 12-C , 13-H ) :   0.9741 B( 12-C , 14-H ) :   0.9664
B( 12-C , 15-H ) :   0.9765 B( 16-S , 17-C ) :   1.1595 B( 16-S , 20-C ) :   1.1277
B( 17-C , 18-C ) :   1.6085 B( 17-C , 20-C ) :   0.1048 B( 17-C , 33-H ) :   0.9743
B( 18-C , 19-C ) :   1.2277 B( 18-C , 21-H ) :   0.9893 B( 19-C , 20-C ) :   1.5982
B( 19-C , 22-C ) :   1.0527 B( 22-C , 23-H ) :   0.9249 B( 22-C , 24-H ) :   0.9254
B( 22-C , 25-C ) :   1.0498 B( 25-C , 26-H ) :   0.9538 B( 25-C , 27-H ) :   0.9540
B( 25-C , 28-C ) :   1.0873 B( 28-C , 29-H ) :   0.9715 B( 28-C , 30-H ) :   0.9714
B( 28-C , 31-H ) :   0.9744

Dispersion correction           -0.013941175
FINAL SINGLE POINT ENERGY     -1339.854113830574

DIPOLE MOMENT
-------------
                                X             Y             Z
Electronic contribution:    -11.18692      25.02696      10.15350
Nuclear contribution   :     11.50300     -25.53688     -10.35108
                        -----------------------------------------
Total Dipole Moment    :      0.31608      -0.50992      -0.19759
                        -----------------------------------------
Magnitude (a.u.)       :      0.63164
Magnitude (Debye)      :      1.60550

Rotational constants in cm-1:     0.017025     0.008369     0.006955
Rotational constants in MHz :   510.385460   250.883960   208.493341

                             ****ORCA TERMINATED NORMALLY****
TOTAL RUN TIME: 0 days 0 hours 0 minutes 34 seconds 603 msec
