                         Program Version 4.2.1 -  RELEASE  -
|  1> ! wB97X-D3 SP def2-SVP
|  2> %pal
|  3> nprocs 16
|  4> end
|  5>
|  6> * xyz 0 1
|  7> S 	 51.9622 	 0.985756 	 84.2083
|  8> C 	 50.4001 	 0.473749 	 84.7682
|  9> C 	 50.0861 	 -0.810868 	 84.1975
| 10> C 	 50.9552 	 -1.19422 	 83.1097
| 11> C 	 51.8107 	 -0.120814 	 82.8411
| 12> H 	 51.0337 	 -2.09087 	 82.5427
| 13> C 	 48.8818 	 -1.62586 	 84.6045
| 14> H 	 48.5708 	 -1.15207 	 85.5493
| 15> H 	 49.2424 	 -2.66073 	 84.9564
| 16> C 	 47.7328 	 -1.64038 	 83.6856
| 17> H 	 47.2921 	 -0.613387 	 83.7627
| 18> H 	 48.2485 	 -1.81124 	 82.6993
| 19> C 	 46.5019 	 -2.56301 	 84.0336
| 20> H 	 46.0428 	 -2.29079 	 84.9862
| 21> H 	 45.6124 	 -2.38715 	 83.3758
| 22> H 	 46.6402 	 -3.61773 	 83.8863
| 23> S 	 54.4396 	 0.0489011 	 82.1846
| 24> C 	 54.9455 	 -0.366452 	 80.5356
| 25> C 	 53.8773 	 -0.647061 	 79.7753
| 26> C 	 52.6154 	 -0.479716 	 80.4109
| 27> C 	 52.7447 	 -0.0791488 	 81.7421
| 28> H 	 54.1057 	 -0.982732 	 78.7431
| 29> C 	 51.3716 	 -0.609479 	 79.6154
| 30> H 	 50.6251 	 -0.916762 	 80.3612
| 31> H 	 51.4896 	 -1.34006 	 78.8295
| 32> C 	 50.8176 	 0.722703 	 79.1798
| 33> H 	 51.5496 	 1.15224 	 78.4882
| 34> H 	 50.8613 	 1.39552 	 80.0319
| 35> C 	 49.4563 	 0.79056 	 78.4217
| 36> H 	 48.7127 	 0.581553 	 79.2206
| 37> H 	 49.4068 	 0.064184 	 77.5992
| 38> H 	 49.1902 	 1.79816 	 78.0346
| 39> H 	 49.7792 	 0.909872 	 85.4995
| 40> H 	 55.9711 	 -0.736683 	 80.2363
| 41> *
| 42>
| 43>                          ****END OF INPUT****

CARTESIAN COORDINATES (ANGSTROEM)
---------------------------------
  S     51.962200    0.985756   84.208300
  C     50.400100    0.473749   84.768200
  C     50.086100   -0.810868   84.197500
  C     50.955200   -1.194220   83.109700
  C     51.810700   -0.120814   82.841100
  H     51.033700   -2.090870   82.542700
  C     48.881800   -1.625860   84.604500
  H     48.570800   -1.152070   85.549300
  H     49.242400   -2.660730   84.956400
  C     47.732800   -1.640380   83.685600
  H     47.292100   -0.613387   83.762700
  H     48.248500   -1.811240   82.699300
  C     46.501900   -2.563010   84.033600
  H     46.042800   -2.290790   84.986200
  H     45.612400   -2.387150   83.375800
  H     46.640200   -3.617730   83.886300
  S     54.439600    0.048901   82.184600
  C     54.945500   -0.366452   80.535600
  C     53.877300   -0.647061   79.775300
  C     52.615400   -0.479716   80.410900
  C     52.744700   -0.079149   81.742100
  H     54.105700   -0.982732   78.743100
  C     51.371600   -0.609479   79.615400
  H     50.625100   -0.916762   80.361200
  H     51.489600   -1.340060   78.829500
  C     50.817600    0.722703   79.179800
  H     51.549600    1.152240   78.488200
  H     50.861300    1.395520   80.031900
  C     49.456300    0.790560   78.421700
  H     48.712700    0.581553   79.220600
  H     49.406800    0.064184   77.599200
  H     49.190200    1.798160   78.034600
  H     49.779200    0.909872   85.499500
  H     55.971100   -0.736683   80.236300

 Total Charge           Charge          ....    0
 Multiplicity           Mult            ....    1
 Number of Electrons    NEL             ....  134
 Basis Dimension        Dim             ....  322

ORBITAL ENERGIES
----------------

  NO   OCC          E(Eh)            E(eV)
   0   2.0000     -88.970350     -2421.0063
   1   2.0000     -88.964200     -2420.8390
   2   2.0000     -10.333471      -281.1880
   3   2.0000     -10.327804      -281.0338
   4   2.0000     -10.317597      -280.7561
   5   2.0000     -10.316320      -280.7213
   6   2.0000     -10.309559      -280.5374
   7   2.0000     -10.303587      -280.3749
   8   2.0000     -10.299415      -280.2613
   9   2.0000     -10.294314      -280.1225
  10   2.0000     -10.292065      -280.0613
  11   2.0000     -10.291800      -280.0541
  12   2.0000     -10.286662      -279.9143
  13   2.0000     -10.285628      -279.8862
  14   2.0000     -10.283759      -279.8353
  15   2.0000     -10.280814      -279.7552
  16   2.0000      -8.084946      -220.0026
  17   2.0000      -8.078822      -219.8359
  18   2.0000      -6.043453      -164.4507
  19   2.0000      -6.039815      -164.3517
  20   2.0000      -6.037460      -164.2876
  21   2.0000      -6.035384      -164.2312
  22   2.0000      -6.033378      -164.1766
  23   2.0000      -6.029409      -164.0686
  24   2.0000      -1.009385       -27.4668
  25   2.0000      -0.983877       -26.7727
  26   2.0000      -0.914846       -24.8942
  27   2.0000      -0.912079       -24.8189
  28   2.0000      -0.872600       -23.7446
  29   2.0000      -0.851252       -23.1637
  30   2.0000      -0.843077       -22.9413
  31   2.0000      -0.817049       -22.2330
  32   2.0000      -0.782708       -21.2986
  33   2.0000      -0.770127       -20.9562
  34   2.0000      -0.710058       -19.3217
  35   2.0000      -0.695432       -18.9237
  36   2.0000      -0.689941       -18.7743
  37   2.0000      -0.659653       -17.9501
  38   2.0000      -0.642374       -17.4799
  39   2.0000      -0.620112       -16.8741
  40   2.0000      -0.591629       -16.0990
  41   2.0000      -0.569845       -15.5063
  42   2.0000      -0.568091       -15.4585
  43   2.0000      -0.558750       -15.2044
  44   2.0000      -0.524410       -14.2699
  45   2.0000      -0.521257       -14.1841
  46   2.0000      -0.515190       -14.0190
  47   2.0000      -0.512496       -13.9457
  48   2.0000      -0.504715       -13.7340
  49   2.0000      -0.502934       -13.6855
  50   2.0000      -0.490916       -13.3585
  51   2.0000      -0.490100       -13.3363
  52   2.0000      -0.476234       -12.9590
  53   2.0000      -0.469307       -12.7705
  54   2.0000      -0.452341       -12.3088
  55   2.0000      -0.450088       -12.2475
  56   2.0000      -0.445611       -12.1257
  57   2.0000      -0.437930       -11.9167
  58   2.0000      -0.432285       -11.7631
  59   2.0000      -0.424123       -11.5410
  60   2.0000      -0.416369       -11.3300
  61   2.0000      -0.407502       -11.0887
  62   2.0000      -0.398942       -10.8558
  63   2.0000      -0.353499        -9.6192
  64   2.0000      -0.333805        -9.0833
  65   2.0000      -0.325398        -8.8545
  66   2.0000      -0.282266        -7.6808
  67   0.0000       0.016493         0.4488
  68   0.0000       0.059059         1.6071
  69   0.0000       0.089744         2.4421
  70   0.0000       0.122254         3.3267
  71   0.0000       0.128297         3.4911

MULLIKEN ATOMIC CHARGES
-----------------------
   0 S :    0.115993
   1 C :   -0.076176
   2 C :   -0.123811
   3 C :    0.044862
   4 C :   -0.164487
   5 H :    0.026497
   6 C :    0.046757
   7 H :    0.000415
   8 H :    0.042284
   9 C :   -0.069410
  10 H :    0.033664
  11 H :    0.036229
  12 C :   -0.049920
  13 H :    0.032573
  14 H :    0.030078
  15 H :    0.035734
  16 S :    0.081617
  17 C :   -0.101561
  18 C :   -0.055688
  19 C :   -0.076306
  20 C :   -0.120117
  21 H :    0.031516
  22 C :    0.119388
  23 H :    0.003966
  24 H :    0.020645
  25 C :   -0.085728
  26 H :    0.011589
  27 H :    0.030193
  28 C :   -0.045404
  29 H :    0.035439
  30 H :    0.036946
  31 H :    0.042975
  32 H :    0.031122
  33 H :    0.078126
Sum of atomic charges:    0.0000000

LOEWDIN ATOMIC CHARGES
----------------------
   0 S :    0.403714
   1 C :   -0.201533
   2 C :   -0.050404
   3 C :   -0.054028
   4 C :   -0.180496
   5 H :    0.033201
   6 C :   -0.051022
   7 H :    0.023765
   8 H :    0.038396
   9 C :   -0.049013
  10 H :    0.033938
  11 H :    0.028407
  12 C :   -0.073234
  13 H :    0.028092
  14 H :    0.033809
  15 H :    0.021742
  16 S :    0.385978
  17 C :   -0.190397
  18 C :   -0.077306
  19 C :   -0.056769
  20 C :   -0.194688
  21 H :    0.040017
  22 C :   -0.033762
  23 H :    0.030390
  24 H :    0.027706
  25 C :   -0.043541
  26 H :    0.017722
  27 H :    0.026772
  28 C :   -0.068299
  29 H :    0.027856
  30 H :    0.025095
  31 H :    0.032051
  32 H :    0.019481
  33 H :    0.046357

  Mayer bond orders larger than 0.100000
B(  0-S ,  1-C ) :   1.1296 B(  0-S ,  4-C ) :   1.1521 B(  1-C ,  2-C ) :   1.5957
B(  1-C ,  4-C ) :   0.1036 B(  1-C , 32-H ) :   0.9753 B(  2-C ,  3-C ) :   1.2083
B(  2-C ,  6-C ) :   1.0438 B(  3-C ,  4-C ) :   1.5512 B(  3-C ,  5-H ) :   0.9986
B(  4-C , 20-C ) :   1.0517 B(  6-C ,  7-H ) :   0.9307 B(  6-C ,  8-H ) :   0.9349
B(  6-C ,  9-C ) :   1.0584 B(  9-C , 10-H ) :   0.9517 B(  9-C , 11-H ) :   0.9604
B(  9-C , 12-C ) :   1.0719 B( 12-C , 13-H ) :   0.9730 B( 12-C , 14-H ) :   0.9741
B( 12-C , 15-H ) :   0.9774 B( 16-S , 17-C ) :   1.1327 B( 16-S , 20-C ) :   1.1350
B( 17-C , 18-C ) :   1.6559 B( 17-C , 33-H ) :   0.9524 B( 18-C , 19-C ) :   1.2294
B( 18-C , 21-H ) :   0.9833 B( 19-C , 20-C ) :   1.5941 B( 19-C , 22-C ) :   1.0602
B( 22-C , 23-H ) :   0.9142 B( 22-C , 24-H ) :   0.9276 B( 22-C , 25-C ) :   1.0703
B( 25-C , 26-H ) :   0.9518 B( 25-C , 27-H ) :   0.9548 B( 25-C , 28-C ) :   1.0732
B( 28-C , 29-H ) :   0.9772 B( 28-C , 30-H ) :   0.9749 B( 28-C , 31-H ) :   0.9740

Dispersion correction           -0.013992840
FINAL SINGLE POINT ENERGY     -1339.843543179062

DIPOLE MOMENT
-------------
                                X             Y             Z
Electronic contribution:     28.27824       7.99882      10.33561
Nuclear contribution   :    -28.72080      -8.47479     -10.61870
                        -----------------------------------------
Total Dipole Moment    :     -0.44256      -0.47596      -0.28309
                        -----------------------------------------
Magnitude (a.u.)       :      0.70891
Magnitude (Debye)      :      1.80190

Rotational constants in cm-1:     0.017233     0.008983     0.006786
Rotational constants in MHz :   516.641768   269.316419   203.434140

                             ****ORCA TERMINATED NORMALLY****
TOTAL RUN TIME: 0 days 0 hours 0 minutes 28 seconds 586 msec
