                         Program Version 4.2.1 -  RELEASE  -
|  1> ! wB97X-D3 SP def2-SVP
|  2> %pal
|  3> nprocs 16
|  4> end
|  5>
|  6> * xyz 0 1
|  7> S 	 -39.0014 	 67.0657 	 143.414
|  8> C 	 -38.867 	 65.7027 	 142.41
|  9> C 	 -38.2212 	 64.6435 	 143.051
| 10> C 	 -37.9689 	 64.9641 	 144.458
| 11> C 	 -38.3102 	 66.2242 	 144.787
| 12> H 	 -37.4812 	 64.4003 	 145.261
| 13> C 	 -38.1123 	 63.297 	 142.461
| 14> H 	 -37.5619 	 62.7346 	 143.175
| 15> H 	 -37.4469 	 63.2645 	 141.623
| 16> C 	 -39.3331 	 62.6703 	 141.895
| 17> H 	 -39.6856 	 63.4467 	 141.189
| 18> H 	 -39.0313 	 61.7718 	 141.306
| 19> C 	 -40.4189 	 62.4116 	 143.024
| 20> H 	 -40.063 	 62.5936 	 144.053
| 21> H 	 -41.2298 	 63.1174 	 142.968
| 22> H 	 -40.8072 	 61.3579 	 142.955
| 23> S 	 -39.3691 	 67.7115 	 146.837
| 24> C 	 -38.3959 	 68.443 	 147.998
| 25> C 	 -37.1122 	 67.9428 	 147.972
| 26> C 	 -36.9037 	 67.1396 	 146.811
| 27> C 	 -38.0426 	 66.9253 	 146.033
| 28> H 	 -36.3873 	 68.3746 	 148.625
| 29> C 	 -35.4798 	 66.7642 	 146.316
| 30> H 	 -35.2225 	 67.4021 	 145.528
| 31> H 	 -35.5451 	 65.7899 	 145.926
| 32> C 	 -34.3544 	 66.6624 	 147.368
| 33> H 	 -34.508 	 66.039 	 148.214
| 34> H 	 -34.2974 	 67.6413 	 147.87
| 35> C 	 -32.9739 	 66.2297 	 146.73
| 36> H 	 -32.3992 	 65.8291 	 147.614
| 37> H 	 -32.5171 	 67.1929 	 146.327
| 38> H 	 -33.1418 	 65.5048 	 145.984
| 39> H 	 -39.2128 	 65.7289 	 141.367
| 40> H 	 -38.738 	 69.1244 	 148.708
| 41> *
| 42>
| 43>                          ****END OF INPUT****

CARTESIAN COORDINATES (ANGSTROEM)
---------------------------------
  S    -39.001400   67.065700  143.414000
  C    -38.867000   65.702700  142.410000
  C    -38.221200   64.643500  143.051000
  C    -37.968900   64.964100  144.458000
  C    -38.310200   66.224200  144.787000
  H    -37.481200   64.400300  145.261000
  C    -38.112300   63.297000  142.461000
  H    -37.561900   62.734600  143.175000
  H    -37.446900   63.264500  141.623000
  C    -39.333100   62.670300  141.895000
  H    -39.685600   63.446700  141.189000
  H    -39.031300   61.771800  141.306000
  C    -40.418900   62.411600  143.024000
  H    -40.063000   62.593600  144.053000
  H    -41.229800   63.117400  142.968000
  H    -40.807200   61.357900  142.955000
  S    -39.369100   67.711500  146.837000
  C    -38.395900   68.443000  147.998000
  C    -37.112200   67.942800  147.972000
  C    -36.903700   67.139600  146.811000
  C    -38.042600   66.925300  146.033000
  H    -36.387300   68.374600  148.625000
  C    -35.479800   66.764200  146.316000
  H    -35.222500   67.402100  145.528000
  H    -35.545100   65.789900  145.926000
  C    -34.354400   66.662400  147.368000
  H    -34.508000   66.039000  148.214000
  H    -34.297400   67.641300  147.870000
  C    -32.973900   66.229700  146.730000
  H    -32.399200   65.829100  147.614000
  H    -32.517100   67.192900  146.327000
  H    -33.141800   65.504800  145.984000
  H    -39.212800   65.728900  141.367000
  H    -38.738000   69.124400  148.708000

 Total Charge           Charge          ....    0
 Multiplicity           Mult            ....    1
 Number of Electrons    NEL             ....  134
 Basis Dimension        Dim             ....  322

ORBITAL ENERGIES
----------------

  NO   OCC          E(Eh)            E(eV)
   0   2.0000     -88.963776     -2420.8274
   1   2.0000     -88.961620     -2420.7687
   2   2.0000     -10.324529      -280.9447
   3   2.0000     -10.322649      -280.8936
   4   2.0000     -10.314715      -280.6777
   5   2.0000     -10.308719      -280.5145
   6   2.0000     -10.305952      -280.4392
   7   2.0000     -10.303269      -280.3662
   8   2.0000     -10.296233      -280.1747
   9   2.0000     -10.291827      -280.0548
  10   2.0000     -10.289897      -280.0023
  11   2.0000     -10.286922      -279.9214
  12   2.0000     -10.284401      -279.8528
  13   2.0000     -10.283278      -279.8222
  14   2.0000     -10.278714      -279.6980
  15   2.0000     -10.277166      -279.6559
  16   2.0000      -8.079653      -219.8585
  17   2.0000      -8.078052      -219.8150
  18   2.0000      -6.037998      -164.3023
  19   2.0000      -6.036274      -164.2554
  20   2.0000      -6.033936      -164.1917
  21   2.0000      -6.032126      -164.1425
  22   2.0000      -6.030565      -164.1000
  23   2.0000      -6.029202      -164.0629
  24   2.0000      -1.013294       -27.5731
  25   2.0000      -0.992415       -27.0050
  26   2.0000      -0.919352       -25.0169
  27   2.0000      -0.904683       -24.6177
  28   2.0000      -0.873059       -23.7571
  29   2.0000      -0.848203       -23.0808
  30   2.0000      -0.842557       -22.9272
  31   2.0000      -0.816483       -22.2176
  32   2.0000      -0.782566       -21.2947
  33   2.0000      -0.772012       -21.0075
  34   2.0000      -0.709022       -19.2935
  35   2.0000      -0.704662       -19.1748
  36   2.0000      -0.697769       -18.9873
  37   2.0000      -0.658257       -17.9121
  38   2.0000      -0.645535       -17.5659
  39   2.0000      -0.610800       -16.6207
  40   2.0000      -0.597631       -16.2624
  41   2.0000      -0.580466       -15.7953
  42   2.0000      -0.566063       -15.4034
  43   2.0000      -0.545499       -14.8438
  44   2.0000      -0.544088       -14.8054
  45   2.0000      -0.530045       -14.4233
  46   2.0000      -0.516102       -14.0438
  47   2.0000      -0.510783       -13.8991
  48   2.0000      -0.507222       -13.8022
  49   2.0000      -0.500580       -13.6215
  50   2.0000      -0.493494       -13.4287
  51   2.0000      -0.477079       -12.9820
  52   2.0000      -0.472414       -12.8550
  53   2.0000      -0.469020       -12.7627
  54   2.0000      -0.465062       -12.6550
  55   2.0000      -0.447873       -12.1872
  56   2.0000      -0.444032       -12.0827
  57   2.0000      -0.437058       -11.8929
  58   2.0000      -0.432412       -11.7665
  59   2.0000      -0.419714       -11.4210
  60   2.0000      -0.416580       -11.3357
  61   2.0000      -0.412685       -11.2297
  62   2.0000      -0.405064       -11.0223
  63   2.0000      -0.348182        -9.4745
  64   2.0000      -0.331061        -9.0086
  65   2.0000      -0.327613        -8.9148
  66   2.0000      -0.296125        -8.0580
  67   0.0000       0.033383         0.9084
  68   0.0000       0.071812         1.9541
  69   0.0000       0.120455         3.2778
  70   0.0000       0.123969         3.3734
  71   0.0000       0.133969         3.6455

MULLIKEN ATOMIC CHARGES
-----------------------
   0 S :    0.123716
   1 C :   -0.143978
   2 C :   -0.095078
   3 C :    0.027466
   4 C :   -0.158446
   5 H :    0.025450
   6 C :    0.095734
   7 H :    0.000927
   8 H :    0.012525
   9 C :   -0.076199
  10 H :    0.026058
  11 H :    0.041428
  12 C :   -0.061286
  13 H :    0.034959
  14 H :    0.031185
  15 H :    0.046130
  16 S :    0.115176
  17 C :   -0.065395
  18 C :   -0.043602
  19 C :   -0.041697
  20 C :   -0.170342
  21 H :    0.014918
  22 C :    0.127133
  23 H :    0.033415
  24 H :   -0.003086
  25 C :   -0.119234
  26 H :    0.018882
  27 H :    0.020586
  28 C :   -0.055838
  29 H :    0.047955
  30 H :    0.052000
  31 H :    0.033583
  32 H :    0.068799
  33 H :    0.036155
Sum of atomic charges:    0.0000000

LOEWDIN ATOMIC CHARGES
----------------------
   0 S :    0.426212
   1 C :   -0.210383
   2 C :   -0.063633
   3 C :   -0.061661
   4 C :   -0.200291
   5 H :    0.038473
   6 C :   -0.044833
   7 H :    0.022026
   8 H :    0.031292
   9 C :   -0.037424
  10 H :    0.025006
  11 H :    0.030492
  12 C :   -0.074156
  13 H :    0.028128
  14 H :    0.025530
  15 H :    0.032692
  16 S :    0.441043
  17 C :   -0.188529
  18 C :   -0.078939
  19 C :   -0.048690
  20 C :   -0.216093
  21 H :    0.028371
  22 C :   -0.021881
  23 H :    0.029441
  24 H :    0.019989
  25 C :   -0.044813
  26 H :    0.016285
  27 H :    0.018792
  28 C :   -0.061957
  29 H :    0.035699
  30 H :    0.035880
  31 H :    0.016465
  32 H :    0.033207
  33 H :    0.018260

  Mayer bond orders larger than 0.100000
B(  0-S ,  1-C ) :   1.1632 B(  0-S ,  4-C ) :   1.1482 B(  1-C ,  2-C ) :   1.5826
B(  1-C , 32-H ) :   0.9667 B(  2-C ,  3-C ) :   1.2111 B(  2-C ,  6-C ) :   1.0452
B(  3-C ,  4-C ) :   1.6193 B(  3-C ,  5-H ) :   0.9883 B(  4-C , 20-C ) :   1.0203
B(  6-C ,  7-H ) :   0.9352 B(  6-C ,  8-H ) :   0.9182 B(  6-C ,  9-C ) :   1.0860
B(  9-C , 10-H ) :   0.9557 B(  9-C , 11-H ) :   0.9583 B(  9-C , 12-C ) :   1.0419
B( 12-C , 13-H ) :   0.9839 B( 12-C , 14-H ) :   0.9759 B( 12-C , 15-H ) :   0.9794
B( 16-S , 17-C ) :   1.1994 B( 16-S , 20-C ) :   1.1542 B( 17-C , 18-C ) :   1.5688
B( 17-C , 20-C ) :   0.1011 B( 17-C , 33-H ) :   0.9715 B( 18-C , 19-C ) :   1.2672
B( 18-C , 21-H ) :   0.9965 B( 19-C , 20-C ) :   1.5812 B( 19-C , 22-C ) :   1.0206
B( 22-C , 23-H ) :   0.9390 B( 22-C , 24-H ) :   0.9272 B( 22-C , 25-C ) :   1.0651
B( 25-C , 26-H ) :   0.9667 B( 25-C , 27-H ) :   0.9507 B( 25-C , 28-C ) :   1.0673
B( 28-C , 29-H ) :   0.9779 B( 28-C , 30-H ) :   0.9787 B( 28-C , 31-H ) :   0.9786

Dispersion correction           -0.013969740
FINAL SINGLE POINT ENERGY     -1339.864444845748

DIPOLE MOMENT
-------------
                                X             Y             Z
Electronic contribution:    -14.98225      17.14991       2.71641
Nuclear contribution   :     15.41525     -17.37603      -2.74638
                        -----------------------------------------
Total Dipole Moment    :      0.43301      -0.22612      -0.02997
                        -----------------------------------------
Magnitude (a.u.)       :      0.48941
Magnitude (Debye)      :      1.24398

Rotational constants in cm-1:     0.018979     0.008097     0.006466
Rotational constants in MHz :   568.976456   242.735476   193.836504

                             ****ORCA TERMINATED NORMALLY****
TOTAL RUN TIME: 0 days 0 hours 0 minutes 34 seconds 562 msec
