                         Program Version 4.2.1 -  RELEASE  -
|  1> ! wB97X-D3 SP def2-SVP
|  2> %pal
|  3> nprocs 16
|  4> end
|  5>
|  6> * xyz 0 1
|  7> S 	 -6.39341 	 -13.37 	 82.7342
|  8> C 	 -6.06421 	 -12.3809 	 81.3625
|  9> C 	 -5.52396 	 -11.1747 	 81.7593
| 10> C 	 -5.73913 	 -10.9418 	 83.1405
| 11> C 	 -6.25919 	 -11.9929 	 83.8062
| 12> H 	 -5.50219 	 -9.98432 	 83.7011
| 13> C 	 -4.78555 	 -10.2669 	 80.8772
| 14> H 	 -4.10026 	 -10.8035 	 80.1797
| 15> H 	 -4.17146 	 -9.60073 	 81.4574
| 16> C 	 -5.65698 	 -9.37511 	 80.004
| 17> H 	 -6.43012 	 -9.90169 	 79.4868
| 18> H 	 -6.19427 	 -8.77834 	 80.7056
| 19> C 	 -4.92034 	 -8.57692 	 78.9413
| 20> H 	 -4.04823 	 -8.11407 	 79.3364
| 21> H 	 -4.58 	 -9.17865 	 78.0796
| 22> H 	 -5.51479 	 -7.74807 	 78.5428
| 23> S 	 -5.83737 	 -13.211 	 86.2929
| 24> C 	 -6.61323 	 -12.4884 	 87.6322
| 25> C 	 -7.4284 	 -11.4216 	 87.3466
| 26> C 	 -7.40167 	 -11.1494 	 85.9531
| 27> C 	 -6.65846 	 -12.0545 	 85.207
| 28> H 	 -7.93902 	 -10.9139 	 88.1581
| 29> C 	 -8.10704 	 -9.98846 	 85.2811
| 30> H 	 -9.0482 	 -9.91575 	 85.7799
| 31> H 	 -8.22733 	 -10.2686 	 84.2349
| 32> C 	 -7.38659 	 -8.67364 	 85.4784
| 33> H 	 -6.48756 	 -8.63601 	 84.8203
| 34> H 	 -7.06512 	 -8.48866 	 86.4924
| 35> C 	 -8.35742 	 -7.59208 	 84.9437
| 36> H 	 -8.55833 	 -7.83486 	 83.9861
| 37> H 	 -7.93915 	 -6.54743 	 84.9638
| 38> H 	 -9.25007 	 -7.65897 	 85.512
| 39> H 	 -5.99586 	 -12.7506 	 80.3576
| 40> H 	 -6.46488 	 -12.7917 	 88.6584
| 41> *
| 42>
| 43>                          ****END OF INPUT****

CARTESIAN COORDINATES (ANGSTROEM)
---------------------------------
  S     -6.393410  -13.370000   82.734200
  C     -6.064210  -12.380900   81.362500
  C     -5.523960  -11.174700   81.759300
  C     -5.739130  -10.941800   83.140500
  C     -6.259190  -11.992900   83.806200
  H     -5.502190   -9.984320   83.701100
  C     -4.785550  -10.266900   80.877200
  H     -4.100260  -10.803500   80.179700
  H     -4.171460   -9.600730   81.457400
  C     -5.656980   -9.375110   80.004000
  H     -6.430120   -9.901690   79.486800
  H     -6.194270   -8.778340   80.705600
  C     -4.920340   -8.576920   78.941300
  H     -4.048230   -8.114070   79.336400
  H     -4.580000   -9.178650   78.079600
  H     -5.514790   -7.748070   78.542800
  S     -5.837370  -13.211000   86.292900
  C     -6.613230  -12.488400   87.632200
  C     -7.428400  -11.421600   87.346600
  C     -7.401670  -11.149400   85.953100
  C     -6.658460  -12.054500   85.207000
  H     -7.939020  -10.913900   88.158100
  C     -8.107040   -9.988460   85.281100
  H     -9.048200   -9.915750   85.779900
  H     -8.227330  -10.268600   84.234900
  C     -7.386590   -8.673640   85.478400
  H     -6.487560   -8.636010   84.820300
  H     -7.065120   -8.488660   86.492400
  C     -8.357420   -7.592080   84.943700
  H     -8.558330   -7.834860   83.986100
  H     -7.939150   -6.547430   84.963800
  H     -9.250070   -7.658970   85.512000
  H     -5.995860  -12.750600   80.357600
  H     -6.464880  -12.791700   88.658400

 Total Charge           Charge          ....    0
 Multiplicity           Mult            ....    1
 Number of Electrons    NEL             ....  134
 Basis Dimension        Dim             ....  322

ORBITAL ENERGIES
----------------

  NO   OCC          E(Eh)            E(eV)
   0   2.0000     -88.964721     -2420.8531
   1   2.0000     -88.963658     -2420.8242
   2   2.0000     -10.324362      -280.9402
   3   2.0000     -10.322832      -280.8985
   4   2.0000     -10.313307      -280.6394
   5   2.0000     -10.310005      -280.5495
   6   2.0000     -10.300692      -280.2961
   7   2.0000     -10.296422      -280.1799
   8   2.0000     -10.294323      -280.1228
   9   2.0000     -10.291838      -280.0552
  10   2.0000     -10.288270      -279.9580
  11   2.0000     -10.286856      -279.9196
  12   2.0000     -10.284648      -279.8595
  13   2.0000     -10.278915      -279.7035
  14   2.0000     -10.276874      -279.6480
  15   2.0000     -10.269452      -279.4460
  16   2.0000      -8.079846      -219.8638
  17   2.0000      -8.079123      -219.8441
  18   2.0000      -6.038250      -164.3091
  19   2.0000      -6.037609      -164.2917
  20   2.0000      -6.034382      -164.2039
  21   2.0000      -6.033652      -164.1840
  22   2.0000      -6.030628      -164.1017
  23   2.0000      -6.029738      -164.0775
  24   2.0000      -1.011852       -27.5339
  25   2.0000      -0.990131       -26.9428
  26   2.0000      -0.919274       -25.0147
  27   2.0000      -0.917255       -24.9598
  28   2.0000      -0.871645       -23.7187
  29   2.0000      -0.855045       -23.2670
  30   2.0000      -0.850080       -23.1319
  31   2.0000      -0.817682       -22.2503
  32   2.0000      -0.784098       -21.3364
  33   2.0000      -0.769715       -20.9450
  34   2.0000      -0.706417       -19.2226
  35   2.0000      -0.705239       -19.1905
  36   2.0000      -0.697807       -18.9883
  37   2.0000      -0.661374       -17.9969
  38   2.0000      -0.644192       -17.5294
  39   2.0000      -0.621277       -16.9058
  40   2.0000      -0.595465       -16.2034
  41   2.0000      -0.576891       -15.6980
  42   2.0000      -0.576477       -15.6867
  43   2.0000      -0.560581       -15.2542
  44   2.0000      -0.527630       -14.3576
  45   2.0000      -0.523604       -14.2480
  46   2.0000      -0.521034       -14.1780
  47   2.0000      -0.512809       -13.9542
  48   2.0000      -0.503415       -13.6986
  49   2.0000      -0.500735       -13.6257
  50   2.0000      -0.499204       -13.5840
  51   2.0000      -0.478880       -13.0310
  52   2.0000      -0.473872       -12.8947
  53   2.0000      -0.466876       -12.7044
  54   2.0000      -0.460452       -12.5295
  55   2.0000      -0.451722       -12.2920
  56   2.0000      -0.446581       -12.1521
  57   2.0000      -0.442213       -12.0332
  58   2.0000      -0.436891       -11.8884
  59   2.0000      -0.431665       -11.7462
  60   2.0000      -0.425063       -11.5665
  61   2.0000      -0.417652       -11.3649
  62   2.0000      -0.411642       -11.2013
  63   2.0000      -0.347209        -9.4480
  64   2.0000      -0.331849        -9.0301
  65   2.0000      -0.328689        -8.9441
  66   2.0000      -0.290752        -7.9118
  67   0.0000       0.034894         0.9495
  68   0.0000       0.064572         1.7571
  69   0.0000       0.111747         3.0408
  70   0.0000       0.123791         3.3685
  71   0.0000       0.129237         3.5167

MULLIKEN ATOMIC CHARGES
-----------------------
   0 S :    0.114902
   1 C :   -0.103614
   2 C :   -0.089670
   3 C :    0.004831
   4 C :   -0.162117
   5 H :    0.029693
   6 C :    0.072047
   7 H :    0.026798
   8 H :    0.013038
   9 C :   -0.056268
  10 H :    0.016643
  11 H :    0.007428
  12 C :   -0.030806
  13 H :    0.013216
  14 H :    0.035134
  15 H :    0.034741
  16 S :    0.107626
  17 C :   -0.080771
  18 C :   -0.038065
  19 C :   -0.040179
  20 C :   -0.142480
  21 H :    0.018304
  22 C :    0.057194
  23 H :    0.011754
  24 H :    0.046485
  25 C :   -0.080225
  26 H :    0.021346
  27 H :    0.030838
  28 C :    0.011750
  29 H :    0.001071
  30 H :    0.039421
  31 H :    0.018098
  32 H :    0.042418
  33 H :    0.049420
Sum of atomic charges:    0.0000000

LOEWDIN ATOMIC CHARGES
----------------------
   0 S :    0.414035
   1 C :   -0.193806
   2 C :   -0.067126
   3 C :   -0.068743
   4 C :   -0.197922
   5 H :    0.041687
   6 C :   -0.032059
   7 H :    0.032529
   8 H :    0.028086
   9 C :   -0.038188
  10 H :    0.019332
  11 H :    0.018554
  12 C :   -0.065618
  13 H :    0.017356
  14 H :    0.028802
  15 H :    0.030441
  16 S :    0.404160
  17 C :   -0.185955
  18 C :   -0.079438
  19 C :   -0.046519
  20 C :   -0.198230
  21 H :    0.035235
  22 C :   -0.027385
  23 H :    0.026577
  24 H :    0.035568
  25 C :   -0.032289
  26 H :    0.021054
  27 H :    0.020739
  28 C :   -0.051395
  29 H :    0.009369
  30 H :    0.030610
  31 H :    0.018915
  32 H :    0.024541
  33 H :    0.027082

  Mayer bond orders larger than 0.100000
B(  0-S ,  1-C ) :   1.1496 B(  0-S ,  4-C ) :   1.1494 B(  1-C ,  2-C ) :   1.5968
B(  1-C , 32-H ) :   0.9706 B(  2-C ,  3-C ) :   1.2384 B(  2-C ,  6-C ) :   1.0384
B(  3-C ,  4-C ) :   1.5863 B(  3-C ,  5-H ) :   0.9805 B(  4-C , 20-C ) :   1.0174
B(  6-C ,  7-H ) :   0.9395 B(  6-C ,  8-H ) :   0.9330 B(  6-C ,  9-C ) :   1.0622
B(  9-C , 10-H ) :   0.9587 B(  9-C , 11-H ) :   0.9509 B(  9-C , 12-C ) :   1.0838
B( 12-C , 13-H ) :   0.9724 B( 12-C , 14-H ) :   0.9734 B( 12-C , 15-H ) :   0.9725
B( 16-S , 17-C ) :   1.1746 B( 16-S , 20-C ) :   1.1224 B( 17-C , 18-C ) :   1.6136
B( 17-C , 33-H ) :   0.9615 B( 18-C , 19-C ) :   1.2237 B( 18-C , 21-H ) :   0.9970
B( 19-C , 20-C ) :   1.6201 B( 19-C , 22-C ) :   1.0394 B( 22-C , 23-H ) :   0.9323
B( 22-C , 24-H ) :   0.9301 B( 22-C , 25-C ) :   1.0697 B( 25-C , 26-H ) :   0.9442
B( 25-C , 27-H ) :   0.9588 B( 25-C , 28-C ) :   1.0770 B( 28-C , 29-H ) :   0.9683
B( 28-C , 30-H ) :   0.9734 B( 28-C , 31-H ) :   0.9757

Dispersion correction           -0.014345047
FINAL SINGLE POINT ENERGY     -1339.881862250290

DIPOLE MOMENT
-------------
                                X             Y             Z
Electronic contribution:      2.23131     -28.98041      13.99745
Nuclear contribution   :     -2.20846      29.66739     -14.07207
                        -----------------------------------------
Total Dipole Moment    :      0.02285       0.68698      -0.07462
                        -----------------------------------------
Magnitude (a.u.)       :      0.69140
Magnitude (Debye)      :      1.75739

Rotational constants in cm-1:     0.018913     0.008890     0.006523
Rotational constants in MHz :   566.987486   266.500944   195.549970

                             ****ORCA TERMINATED NORMALLY****
TOTAL RUN TIME: 0 days 0 hours 0 minutes 33 seconds 645 msec
