                         Program Version 4.2.1 -  RELEASE  -
|  1> ! wB97X-D3 SP def2-SVP
|  2> %pal
|  3> nprocs 16
|  4> end
|  5>
|  6> * xyz 0 1
|  7> S 	 65.5899 	 20.1163 	 73.9716
|  8> C 	 64.0994 	 21.0726 	 74.0392
|  9> C 	 63.9568 	 21.7255 	 75.2206
| 10> C 	 65.0649 	 21.4842 	 76.1419
| 11> C 	 66.049 	 20.6606 	 75.6048
| 12> H 	 65.278 	 21.983 	 77.0913
| 13> C 	 62.6983 	 22.4285 	 75.6701
| 14> H 	 61.8642 	 21.7768 	 75.6956
| 15> H 	 62.494 	 23.0984 	 74.7944
| 16> C 	 62.8093 	 23.3039 	 76.9274
| 17> H 	 63.6559 	 24.0014 	 76.892
| 18> H 	 62.0234 	 24.0545 	 76.8345
| 19> C 	 62.595 	 22.5806 	 78.3121
| 20> H 	 61.6095 	 22.237 	 78.2625
| 21> H 	 63.2231 	 21.7884 	 78.5165
| 22> H 	 62.647 	 23.3095 	 79.1218
| 23> S 	 68.7077 	 20.4621 	 75.3214
| 24> C 	 69.6291 	 19.6905 	 76.631
| 25> C 	 68.7652 	 19.2407 	 77.6301
| 26> C 	 67.3518 	 19.4359 	 77.4135
| 27> C 	 67.2481 	 20.2414 	 76.2675
| 28> H 	 69.331 	 18.8088 	 78.4515
| 29> C 	 66.2456 	 18.996 	 78.3706
| 30> H 	 65.266 	 19.0238 	 77.8726
| 31> H 	 66.3118 	 19.8518 	 79.0607
| 32> C 	 66.5497 	 17.8224 	 79.3596
| 33> H 	 65.6756 	 17.576 	 79.9045
| 34> H 	 67.355 	 18.0834 	 80.0053
| 35> C 	 66.9476 	 16.5064 	 78.6151
| 36> H 	 66.0922 	 16.0682 	 78.1376
| 37> H 	 67.3946 	 15.7649 	 79.2329
| 38> H 	 67.693 	 16.6261 	 77.8385
| 39> H 	 63.4119 	 21.2316 	 73.2539
| 40> H 	 70.7008 	 19.5137 	 76.6705
| 41> *
| 42>
| 43>                          ****END OF INPUT****

CARTESIAN COORDINATES (ANGSTROEM)
---------------------------------
  S     65.589900   20.116300   73.971600
  C     64.099400   21.072600   74.039200
  C     63.956800   21.725500   75.220600
  C     65.064900   21.484200   76.141900
  C     66.049000   20.660600   75.604800
  H     65.278000   21.983000   77.091300
  C     62.698300   22.428500   75.670100
  H     61.864200   21.776800   75.695600
  H     62.494000   23.098400   74.794400
  C     62.809300   23.303900   76.927400
  H     63.655900   24.001400   76.892000
  H     62.023400   24.054500   76.834500
  C     62.595000   22.580600   78.312100
  H     61.609500   22.237000   78.262500
  H     63.223100   21.788400   78.516500
  H     62.647000   23.309500   79.121800
  S     68.707700   20.462100   75.321400
  C     69.629100   19.690500   76.631000
  C     68.765200   19.240700   77.630100
  C     67.351800   19.435900   77.413500
  C     67.248100   20.241400   76.267500
  H     69.331000   18.808800   78.451500
  C     66.245600   18.996000   78.370600
  H     65.266000   19.023800   77.872600
  H     66.311800   19.851800   79.060700
  C     66.549700   17.822400   79.359600
  H     65.675600   17.576000   79.904500
  H     67.355000   18.083400   80.005300
  C     66.947600   16.506400   78.615100
  H     66.092200   16.068200   78.137600
  H     67.394600   15.764900   79.232900
  H     67.693000   16.626100   77.838500
  H     63.411900   21.231600   73.253900
  H     70.700800   19.513700   76.670500

 Total Charge           Charge          ....    0
 Multiplicity           Mult            ....    1
 Number of Electrons    NEL             ....  134
 Basis Dimension        Dim             ....  322

ORBITAL ENERGIES
----------------

  NO   OCC          E(Eh)            E(eV)
   0   2.0000     -88.965891     -2420.8850
   1   2.0000     -88.962696     -2420.7980
   2   2.0000     -10.324793      -280.9519
   3   2.0000     -10.322795      -280.8975
   4   2.0000     -10.318435      -280.7789
   5   2.0000     -10.314177      -280.6630
   6   2.0000     -10.305553      -280.4283
   7   2.0000     -10.301210      -280.3102
   8   2.0000     -10.297017      -280.1961
   9   2.0000     -10.296541      -280.1831
  10   2.0000     -10.292665      -280.0777
  11   2.0000     -10.291817      -280.0546
  12   2.0000     -10.291005      -280.0325
  13   2.0000     -10.290735      -280.0251
  14   2.0000     -10.272810      -279.5374
  15   2.0000     -10.268078      -279.4086
  16   2.0000      -8.080046      -219.8692
  17   2.0000      -8.076488      -219.7724
  18   2.0000      -6.038593      -164.3185
  19   2.0000      -6.035159      -164.2250
  20   2.0000      -6.034739      -164.2136
  21   2.0000      -6.031178      -164.1167
  22   2.0000      -6.030691      -164.1034
  23   2.0000      -6.027077      -164.0051
  24   2.0000      -1.000431       -27.2231
  25   2.0000      -0.974735       -26.5239
  26   2.0000      -0.908397       -24.7187
  27   2.0000      -0.905660       -24.6443
  28   2.0000      -0.869236       -23.6531
  29   2.0000      -0.847999       -23.0752
  30   2.0000      -0.838032       -22.8040
  31   2.0000      -0.814004       -22.1502
  32   2.0000      -0.787530       -21.4298
  33   2.0000      -0.775888       -21.1130
  34   2.0000      -0.715459       -19.4686
  35   2.0000      -0.704006       -19.1570
  36   2.0000      -0.695277       -18.9195
  37   2.0000      -0.651848       -17.7377
  38   2.0000      -0.636827       -17.3289
  39   2.0000      -0.616342       -16.7715
  40   2.0000      -0.593551       -16.1513
  41   2.0000      -0.566043       -15.4028
  42   2.0000      -0.555477       -15.1153
  43   2.0000      -0.542637       -14.7659
  44   2.0000      -0.534927       -14.5561
  45   2.0000      -0.530451       -14.4343
  46   2.0000      -0.525829       -14.3085
  47   2.0000      -0.515662       -14.0319
  48   2.0000      -0.499291       -13.5864
  49   2.0000      -0.498386       -13.5618
  50   2.0000      -0.488449       -13.2914
  51   2.0000      -0.481497       -13.1022
  52   2.0000      -0.477657       -12.9977
  53   2.0000      -0.461800       -12.5662
  54   2.0000      -0.455801       -12.4030
  55   2.0000      -0.444648       -12.0995
  56   2.0000      -0.438242       -11.9252
  57   2.0000      -0.437031       -11.8922
  58   2.0000      -0.436216       -11.8700
  59   2.0000      -0.429635       -11.6910
  60   2.0000      -0.423901       -11.5349
  61   2.0000      -0.423604       -11.5268
  62   2.0000      -0.410109       -11.1596
  63   2.0000      -0.337946        -9.1960
  64   2.0000      -0.328143        -8.9292
  65   2.0000      -0.323067        -8.7911
  66   2.0000      -0.291452        -7.9308
  67   0.0000       0.031848         0.8666
  68   0.0000       0.067660         1.8411
  69   0.0000       0.108939         2.9644
  70   0.0000       0.122259         3.3268
  71   0.0000       0.127694         3.4747

MULLIKEN ATOMIC CHARGES
-----------------------
   0 S :    0.107085
   1 C :   -0.115543
   2 C :   -0.070697
   3 C :   -0.000247
   4 C :   -0.141191
   5 H :    0.029575
   6 C :    0.062978
   7 H :    0.032945
   8 H :    0.030473
   9 C :   -0.100758
  10 H :    0.025633
  11 H :    0.018599
  12 C :    0.006618
  13 H :    0.016089
  14 H :    0.020224
  15 H :    0.032599
  16 S :    0.110390
  17 C :   -0.101532
  18 C :   -0.056956
  19 C :   -0.010994
  20 C :   -0.200692
  21 H :    0.019494
  22 C :    0.054558
  23 H :    0.051447
  24 H :    0.048846
  25 C :   -0.034245
  26 H :    0.032881
  27 H :    0.028361
  28 C :   -0.057028
  29 H :    0.026175
  30 H :    0.021111
  31 H :    0.031283
  32 H :    0.025661
  33 H :    0.056857
Sum of atomic charges:   -0.0000000

LOEWDIN ATOMIC CHARGES
----------------------
   0 S :    0.376553
   1 C :   -0.189901
   2 C :   -0.062218
   3 C :   -0.069528
   4 C :   -0.186822
   5 H :    0.035324
   6 C :   -0.033138
   7 H :    0.027423
   8 H :    0.041150
   9 C :   -0.045937
  10 H :    0.024271
  11 H :    0.027151
  12 C :   -0.050316
  13 H :    0.020350
  14 H :    0.011149
  15 H :    0.030035
  16 S :    0.395500
  17 C :   -0.183818
  18 C :   -0.076198
  19 C :   -0.039689
  20 C :   -0.205465
  21 H :    0.030576
  22 C :   -0.033023
  23 H :    0.037006
  24 H :    0.046364
  25 C :   -0.026392
  26 H :    0.026810
  27 H :    0.021405
  28 C :   -0.068129
  29 H :    0.023137
  30 H :    0.020055
  31 H :    0.024099
  32 H :    0.020942
  33 H :    0.031275

  Mayer bond orders larger than 0.100000
B(  0-S ,  1-C ) :   1.1095 B(  0-S ,  4-C ) :   1.1300 B(  1-C ,  2-C ) :   1.6638
B(  1-C , 32-H ) :   0.9736 B(  2-C ,  3-C ) :   1.2065 B(  2-C ,  6-C ) :   1.0064
B(  3-C ,  4-C ) :   1.5972 B(  3-C ,  5-H ) :   0.9854 B(  4-C , 20-C ) :   1.0616
B(  6-C ,  7-H ) :   0.9456 B(  6-C ,  8-H ) :   0.9316 B(  6-C ,  9-C ) :   1.0848
B(  9-C , 10-H ) :   0.9563 B(  9-C , 11-H ) :   0.9528 B(  9-C , 12-C ) :   1.0601
B( 12-C , 13-H ) :   0.9730 B( 12-C , 14-H ) :   0.9820 B( 12-C , 15-H ) :   0.9739
B( 16-S , 17-C ) :   1.1311 B( 16-S , 20-C ) :   1.1422 B( 17-C , 18-C ) :   1.6538
B( 17-C , 33-H ) :   0.9646 B( 18-C , 19-C ) :   1.1929 B( 18-C , 21-H ) :   0.9811
B( 19-C , 20-C ) :   1.5848 B( 19-C , 22-C ) :   1.0225 B( 22-C , 23-H ) :   0.9355
B( 22-C , 24-H ) :   0.9315 B( 22-C , 25-C ) :   1.0749 B( 25-C , 26-H ) :   0.9562
B( 25-C , 27-H ) :   0.9508 B( 25-C , 28-C ) :   1.0786 B( 28-C , 29-H ) :   0.9767
B( 28-C , 30-H ) :   0.9760 B( 28-C , 31-H ) :   0.9754

Dispersion correction           -0.014609347
FINAL SINGLE POINT ENERGY     -1339.862301659653

DIPOLE MOMENT
-------------
                                X             Y             Z
Electronic contribution:     15.32781       1.30463     -21.16777
Nuclear contribution   :    -15.69945      -1.27592      21.85691
                        -----------------------------------------
Total Dipole Moment    :     -0.37164       0.02870       0.68914
                        -----------------------------------------
Magnitude (a.u.)       :      0.78349
Magnitude (Debye)      :      1.99148

Rotational constants in cm-1:     0.017549     0.009113     0.007218
Rotational constants in MHz :   526.099322   273.206359   216.375616

                             ****ORCA TERMINATED NORMALLY****
TOTAL RUN TIME: 0 days 0 hours 0 minutes 28 seconds 604 msec
