                         Program Version 4.2.1 -  RELEASE  -
|  1> ! wB97X-D3 SP def2-SVP
|  2> %pal
|  3> nprocs 16
|  4> end
|  5>
|  6> * xyz 0 1
|  7> S 	 -101.211 	 56.9842 	 115.035
|  8> C 	 -100.454 	 55.9296 	 116.145
|  9> C 	 -101.244 	 54.8783 	 116.604
| 10> C 	 -102.584 	 55.0252 	 116.086
| 11> C 	 -102.695 	 56.1589 	 115.22
| 12> H 	 -103.417 	 54.3777 	 116.108
| 13> C 	 -100.793 	 53.622 	 117.254
| 14> H 	 -101.4 	 53.4702 	 118.181
| 15> H 	 -99.7778 	 53.7598 	 117.56
| 16> C 	 -101.066 	 52.3287 	 116.413
| 17> H 	 -100.996 	 51.4441 	 117.077
| 18> H 	 -102.156 	 52.3633 	 116.059
| 19> C 	 -100.021 	 52.0396 	 115.225
| 20> H 	 -100.185 	 52.6837 	 114.407
| 21> H 	 -98.9881 	 52.0536 	 115.536
| 22> H 	 -100.144 	 50.996 	 114.94
| 23> S 	 -103.637 	 56.7371 	 112.692
| 24> C 	 -105.36 	 57.2081 	 112.565
| 25> C 	 -106.027 	 57.2322 	 113.761
| 26> C 	 -105.228 	 56.6561 	 114.85
| 27> C 	 -103.873 	 56.5239 	 114.462
| 28> H 	 -107.035 	 57.4677 	 113.86
| 29> C 	 -105.859 	 56.4498 	 116.241
| 30> H 	 -106.132 	 57.4788 	 116.618
| 31> H 	 -105.032 	 56.0928 	 116.945
| 32> C 	 -107.165 	 55.6807 	 116.242
| 33> H 	 -107.844 	 56.3916 	 115.77
| 34> H 	 -107.657 	 55.5551 	 117.26
| 35> C 	 -107.068 	 54.3565 	 115.397
| 36> H 	 -106.408 	 53.5931 	 115.776
| 37> H 	 -106.789 	 54.6631 	 114.434
| 38> H 	 -108.133 	 53.9897 	 115.221
| 39> H 	 -99.4211 	 56.0855 	 116.518
| 40> H 	 -105.788 	 57.8233 	 111.745
| 41> *
| 42>
| 43>                          ****END OF INPUT****

CARTESIAN COORDINATES (ANGSTROEM)
---------------------------------
  S    -101.211000   56.984200  115.035000
  C    -100.454000   55.929600  116.145000
  C    -101.244000   54.878300  116.604000
  C    -102.584000   55.025200  116.086000
  C    -102.695000   56.158900  115.220000
  H    -103.417000   54.377700  116.108000
  C    -100.793000   53.622000  117.254000
  H    -101.400000   53.470200  118.181000
  H    -99.777800   53.759800  117.560000
  C    -101.066000   52.328700  116.413000
  H    -100.996000   51.444100  117.077000
  H    -102.156000   52.363300  116.059000
  C    -100.021000   52.039600  115.225000
  H    -100.185000   52.683700  114.407000
  H    -98.988100   52.053600  115.536000
  H    -100.144000   50.996000  114.940000
  S    -103.637000   56.737100  112.692000
  C    -105.360000   57.208100  112.565000
  C    -106.027000   57.232200  113.761000
  C    -105.228000   56.656100  114.850000
  C    -103.873000   56.523900  114.462000
  H    -107.035000   57.467700  113.860000
  C    -105.859000   56.449800  116.241000
  H    -106.132000   57.478800  116.618000
  H    -105.032000   56.092800  116.945000
  C    -107.165000   55.680700  116.242000
  H    -107.844000   56.391600  115.770000
  H    -107.657000   55.555100  117.260000
  C    -107.068000   54.356500  115.397000
  H    -106.408000   53.593100  115.776000
  H    -106.789000   54.663100  114.434000
  H    -108.133000   53.989700  115.221000
  H    -99.421100   56.085500  116.518000
  H    -105.788000   57.823300  111.745000

 Total Charge           Charge          ....    0
 Multiplicity           Mult            ....    1
 Number of Electrons    NEL             ....  134
 Basis Dimension        Dim             ....  322

ORBITAL ENERGIES
----------------

  NO   OCC          E(Eh)            E(eV)
   0   2.0000     -88.971622     -2421.0409
   1   2.0000     -88.967296     -2420.9232
   2   2.0000     -10.332967      -281.1743
   3   2.0000     -10.327356      -281.0216
   4   2.0000     -10.320223      -280.8276
   5   2.0000     -10.313476      -280.6440
   6   2.0000     -10.311395      -280.5873
   7   2.0000     -10.302715      -280.3511
   8   2.0000     -10.302470      -280.3445
   9   2.0000     -10.300601      -280.2936
  10   2.0000     -10.295503      -280.1549
  11   2.0000     -10.295432      -280.1529
  12   2.0000     -10.294330      -280.1230
  13   2.0000     -10.294149      -280.1180
  14   2.0000     -10.277703      -279.6705
  15   2.0000     -10.275507      -279.6108
  16   2.0000      -8.087463      -220.0711
  17   2.0000      -8.080714      -219.8874
  18   2.0000      -6.045711      -164.5122
  19   2.0000      -6.041809      -164.4060
  20   2.0000      -6.039460      -164.3421
  21   2.0000      -6.038453      -164.3147
  22   2.0000      -6.035651      -164.2384
  23   2.0000      -6.031056      -164.1134
  24   2.0000      -1.006441       -27.3866
  25   2.0000      -0.976786       -26.5797
  26   2.0000      -0.909430       -24.7468
  27   2.0000      -0.904816       -24.6213
  28   2.0000      -0.866067       -23.5669
  29   2.0000      -0.846253       -23.0277
  30   2.0000      -0.837394       -22.7867
  31   2.0000      -0.809660       -22.0320
  32   2.0000      -0.785129       -21.3645
  33   2.0000      -0.772796       -21.0289
  34   2.0000      -0.712443       -19.3865
  35   2.0000      -0.695150       -18.9160
  36   2.0000      -0.686260       -18.6741
  37   2.0000      -0.659462       -17.9449
  38   2.0000      -0.642355       -17.4794
  39   2.0000      -0.617228       -16.7956
  40   2.0000      -0.584455       -15.9038
  41   2.0000      -0.563396       -15.3308
  42   2.0000      -0.546861       -14.8808
  43   2.0000      -0.544940       -14.8286
  44   2.0000      -0.542550       -14.7635
  45   2.0000      -0.536143       -14.5892
  46   2.0000      -0.516033       -14.0420
  47   2.0000      -0.507447       -13.8083
  48   2.0000      -0.498510       -13.5652
  49   2.0000      -0.496774       -13.5179
  50   2.0000      -0.488090       -13.2816
  51   2.0000      -0.480255       -13.0684
  52   2.0000      -0.467959       -12.7338
  53   2.0000      -0.463211       -12.6046
  54   2.0000      -0.453434       -12.3386
  55   2.0000      -0.452392       -12.3102
  56   2.0000      -0.448260       -12.1978
  57   2.0000      -0.434360       -11.8195
  58   2.0000      -0.432854       -11.7786
  59   2.0000      -0.427772       -11.6403
  60   2.0000      -0.421529       -11.4704
  61   2.0000      -0.418179       -11.3792
  62   2.0000      -0.410612       -11.1733
  63   2.0000      -0.346684        -9.4337
  64   2.0000      -0.329580        -8.9683
  65   2.0000      -0.329196        -8.9579
  66   2.0000      -0.285727        -7.7750
  67   0.0000       0.025879         0.7042
  68   0.0000       0.067036         1.8241
  69   0.0000       0.106412         2.8956
  70   0.0000       0.114987         3.1289
  71   0.0000       0.116865         3.1800

MULLIKEN ATOMIC CHARGES
-----------------------
   0 S :    0.141649
   1 C :   -0.136493
   2 C :   -0.075450
   3 C :    0.031539
   4 C :   -0.182372
   5 H :    0.001848
   6 C :    0.089295
   7 H :    0.036249
   8 H :    0.009105
   9 C :   -0.121212
  10 H :    0.034374
  11 H :    0.045863
  12 C :   -0.031791
  13 H :    0.044018
  14 H :    0.025583
  15 H :    0.028386
  16 S :    0.090615
  17 C :   -0.085841
  18 C :   -0.019593
  19 C :   -0.071104
  20 C :   -0.153244
  21 H :    0.004153
  22 C :    0.039059
  23 H :    0.045268
  24 H :    0.041932
  25 C :   -0.103597
  26 H :    0.018297
  27 H :    0.045921
  28 C :   -0.032950
  29 H :    0.046163
  30 H :    0.029618
  31 H :    0.034940
  32 H :    0.057289
  33 H :    0.072482
Sum of atomic charges:    0.0000000

LOEWDIN ATOMIC CHARGES
----------------------
   0 S :    0.451058
   1 C :   -0.222009
   2 C :   -0.063864
   3 C :   -0.054863
   4 C :   -0.214116
   5 H :    0.020879
   6 C :   -0.035049
   7 H :    0.039227
   8 H :    0.023860
   9 C :   -0.037880
  10 H :    0.024481
  11 H :    0.032471
  12 C :   -0.061701
  13 H :    0.021327
  14 H :    0.023855
  15 H :    0.027620
  16 S :    0.361263
  17 C :   -0.183324
  18 C :   -0.058045
  19 C :   -0.052759
  20 C :   -0.183175
  21 H :    0.020579
  22 C :   -0.045023
  23 H :    0.039851
  24 H :    0.034314
  25 C :   -0.049011
  26 H :    0.020909
  27 H :    0.033253
  28 C :   -0.063428
  29 H :    0.024021
  30 H :    0.019637
  31 H :    0.034679
  32 H :    0.032735
  33 H :    0.038225

  Mayer bond orders larger than 0.100000
B(  0-S ,  1-C ) :   1.1555 B(  0-S ,  4-C ) :   1.1813 B(  1-C ,  2-C ) :   1.5902
B(  1-C , 32-H ) :   0.9579 B(  2-C ,  3-C ) :   1.2426 B(  2-C ,  6-C ) :   1.0469
B(  3-C ,  4-C ) :   1.5328 B(  3-C ,  5-H ) :   0.9935 B(  4-C , 20-C ) :   1.0587
B(  6-C ,  7-H ) :   0.9270 B(  6-C ,  8-H ) :   0.9412 B(  6-C ,  9-C ) :   1.0655
B(  9-C , 10-H ) :   0.9602 B(  9-C , 11-H ) :   0.9546 B(  9-C , 12-C ) :   1.0592
B( 12-C , 13-H ) :   0.9823 B( 12-C , 14-H ) :   0.9765 B( 12-C , 15-H ) :   0.9766
B( 16-S , 17-C ) :   1.1143 B( 16-S , 20-C ) :   1.1227 B( 17-C , 18-C ) :   1.6798
B( 17-C , 33-H ) :   0.9514 B( 18-C , 19-C ) :   1.1872 B( 18-C , 21-H ) :   0.9873
B( 19-C , 20-C ) :   1.6233 B( 19-C , 22-C ) :   1.0295 B( 22-C , 23-H ) :   0.9429
B( 22-C , 24-H ) :   0.9387 B( 22-C , 25-C ) :   1.0522 B( 25-C , 26-H ) :   0.9511
B( 25-C , 27-H ) :   0.9571 B( 25-C , 28-C ) :   1.0741 B( 28-C , 29-H ) :   0.9781
B( 28-C , 30-H ) :   0.9655 B( 28-C , 31-H ) :   0.9729

Dispersion correction           -0.014859790
FINAL SINGLE POINT ENERGY     -1339.862460972528

DIPOLE MOMENT
-------------
                                X             Y             Z
Electronic contribution:      7.86312      19.60260     -11.58602
Nuclear contribution   :     -8.09170     -19.87939      11.94378
                        -----------------------------------------
Total Dipole Moment    :     -0.22858      -0.27679       0.35777
                        -----------------------------------------
Magnitude (a.u.)       :      0.50681
Magnitude (Debye)      :      1.28821

Rotational constants in cm-1:     0.018959     0.008880     0.007365
Rotational constants in MHz :   568.390381   266.214715   220.793964

                             ****ORCA TERMINATED NORMALLY****
TOTAL RUN TIME: 0 days 0 hours 0 minutes 35 seconds 279 msec
