                         Program Version 4.2.1 -  RELEASE  -
|  1> ! wB97X-D3 SP def2-SVP
|  2> %pal
|  3> nprocs 16
|  4> end
|  5>
|  6> * xyz 0 1
|  7> S 	 16.9026 	 -11.5571 	 78.9013
|  8> C 	 17.2307 	 -13.1265 	 79.6142
|  9> C 	 18.5036 	 -13.0273 	 80.292
| 10> C 	 19.1938 	 -11.8175 	 80.1308
| 11> C 	 18.4805 	 -10.8875 	 79.4222
| 12> H 	 20.272 	 -11.5567 	 80.4164
| 13> C 	 19.1082 	 -14.2098 	 81.0559
| 14> H 	 19.9852 	 -13.8214 	 81.5818
| 15> H 	 19.3871 	 -14.9692 	 80.2461
| 16> C 	 18.1246 	 -14.9464 	 81.9023
| 17> H 	 17.5653 	 -14.2382 	 82.5204
| 18> H 	 17.3436 	 -15.3716 	 81.3169
| 19> C 	 18.7178 	 -16.1307 	 82.6909
| 20> H 	 19.0822 	 -16.8824 	 81.997
| 21> H 	 19.54 	 -15.795 	 83.2802
| 22> H 	 17.9572 	 -16.6068 	 83.3283
| 23> S 	 17.6579 	 -8.21906 	 79.7525
| 24> C 	 18.6739 	 -6.96758 	 79.1193
| 25> C 	 19.9203 	 -7.41405 	 78.8818
| 26> C 	 20.0361 	 -8.83914 	 78.9901
| 27> C 	 18.8252 	 -9.44086 	 79.2425
| 28> H 	 20.6111 	 -6.71847 	 78.4734
| 29> C 	 21.2847 	 -9.48605 	 78.4387
| 30> H 	 21.5117 	 -9.12909 	 77.4696
| 31> H 	 21.0609 	 -10.5487 	 78.3528
| 32> C 	 22.5817 	 -9.25962 	 79.2395
| 33> H 	 22.3386 	 -9.5725 	 80.2772
| 34> H 	 22.9576 	 -8.2679 	 79.1755
| 35> C 	 23.62 	 -10.2078 	 78.5868
| 36> H 	 23.2514 	 -11.2576 	 78.7699
| 37> H 	 24.5595 	 -10.0053 	 79.1031
| 38> H 	 23.758 	 -10.1236 	 77.4596
| 39> H 	 16.7094 	 -14.0679 	 79.3192
| 40> H 	 18.437 	 -5.9673 	 78.9994
| 41> *
| 42>
| 43>                          ****END OF INPUT****

CARTESIAN COORDINATES (ANGSTROEM)
---------------------------------
  S     16.902600  -11.557100   78.901300
  C     17.230700  -13.126500   79.614200
  C     18.503600  -13.027300   80.292000
  C     19.193800  -11.817500   80.130800
  C     18.480500  -10.887500   79.422200
  H     20.272000  -11.556700   80.416400
  C     19.108200  -14.209800   81.055900
  H     19.985200  -13.821400   81.581800
  H     19.387100  -14.969200   80.246100
  C     18.124600  -14.946400   81.902300
  H     17.565300  -14.238200   82.520400
  H     17.343600  -15.371600   81.316900
  C     18.717800  -16.130700   82.690900
  H     19.082200  -16.882400   81.997000
  H     19.540000  -15.795000   83.280200
  H     17.957200  -16.606800   83.328300
  S     17.657900   -8.219060   79.752500
  C     18.673900   -6.967580   79.119300
  C     19.920300   -7.414050   78.881800
  C     20.036100   -8.839140   78.990100
  C     18.825200   -9.440860   79.242500
  H     20.611100   -6.718470   78.473400
  C     21.284700   -9.486050   78.438700
  H     21.511700   -9.129090   77.469600
  H     21.060900  -10.548700   78.352800
  C     22.581700   -9.259620   79.239500
  H     22.338600   -9.572500   80.277200
  H     22.957600   -8.267900   79.175500
  C     23.620000  -10.207800   78.586800
  H     23.251400  -11.257600   78.769900
  H     24.559500  -10.005300   79.103100
  H     23.758000  -10.123600   77.459600
  H     16.709400  -14.067900   79.319200
  H     18.437000   -5.967300   78.999400

 Total Charge           Charge          ....    0
 Multiplicity           Mult            ....    1
 Number of Electrons    NEL             ....  134
 Basis Dimension        Dim             ....  322

ORBITAL ENERGIES
----------------

  NO   OCC          E(Eh)            E(eV)
   0   2.0000     -88.969616     -2420.9863
   1   2.0000     -88.961342     -2420.7612
   2   2.0000     -10.335909      -281.2544
   3   2.0000     -10.329671      -281.0846
   4   2.0000     -10.324973      -280.9568
   5   2.0000     -10.308755      -280.5155
   6   2.0000     -10.304879      -280.4100
   7   2.0000     -10.301824      -280.3269
   8   2.0000     -10.298966      -280.2491
   9   2.0000     -10.295231      -280.1475
  10   2.0000     -10.288920      -279.9758
  11   2.0000     -10.288429      -279.9624
  12   2.0000     -10.284569      -279.8573
  13   2.0000     -10.284539      -279.8565
  14   2.0000     -10.279858      -279.7291
  15   2.0000     -10.276761      -279.6449
  16   2.0000      -8.083165      -219.9541
  17   2.0000      -8.076514      -219.7731
  18   2.0000      -6.041707      -164.4032
  19   2.0000      -6.037599      -164.2914
  20   2.0000      -6.035159      -164.2250
  21   2.0000      -6.034193      -164.1988
  22   2.0000      -6.031112      -164.1149
  23   2.0000      -6.026941      -164.0014
  24   2.0000      -1.005702       -27.3665
  25   2.0000      -0.984475       -26.7889
  26   2.0000      -0.913673       -24.8623
  27   2.0000      -0.912613       -24.8335
  28   2.0000      -0.866895       -23.5894
  29   2.0000      -0.852981       -23.2108
  30   2.0000      -0.846583       -23.0367
  31   2.0000      -0.817284       -22.2394
  32   2.0000      -0.776882       -21.1400
  33   2.0000      -0.765125       -20.8201
  34   2.0000      -0.707297       -19.2465
  35   2.0000      -0.699099       -19.0234
  36   2.0000      -0.693293       -18.8655
  37   2.0000      -0.659552       -17.9473
  38   2.0000      -0.639053       -17.3895
  39   2.0000      -0.615325       -16.7438
  40   2.0000      -0.597999       -16.2724
  41   2.0000      -0.576730       -15.6936
  42   2.0000      -0.572181       -15.5698
  43   2.0000      -0.563640       -15.3374
  44   2.0000      -0.527506       -14.3542
  45   2.0000      -0.525823       -14.3084
  46   2.0000      -0.519448       -14.1349
  47   2.0000      -0.511711       -13.9244
  48   2.0000      -0.502337       -13.6693
  49   2.0000      -0.497573       -13.5397
  50   2.0000      -0.495272       -13.4770
  51   2.0000      -0.477764       -13.0006
  52   2.0000      -0.473619       -12.8878
  53   2.0000      -0.461141       -12.5483
  54   2.0000      -0.455434       -12.3930
  55   2.0000      -0.447276       -12.1710
  56   2.0000      -0.443718       -12.0742
  57   2.0000      -0.442159       -12.0318
  58   2.0000      -0.437439       -11.9033
  59   2.0000      -0.430950       -11.7268
  60   2.0000      -0.416938       -11.3455
  61   2.0000      -0.414138       -11.2693
  62   2.0000      -0.407463       -11.0876
  63   2.0000      -0.352418        -9.5898
  64   2.0000      -0.330714        -8.9992
  65   2.0000      -0.327564        -8.9135
  66   2.0000      -0.289161        -7.8685
  67   0.0000       0.023122         0.6292
  68   0.0000       0.069118         1.8808
  69   0.0000       0.107112         2.9147
  70   0.0000       0.119110         3.2411
  71   0.0000       0.123406         3.3580

MULLIKEN ATOMIC CHARGES
-----------------------
   0 S :    0.113723
   1 C :   -0.144185
   2 C :   -0.115148
   3 C :    0.022088
   4 C :   -0.176281
   5 H :    0.046465
   6 C :    0.060438
   7 H :    0.024509
   8 H :    0.045338
   9 C :   -0.089269
  10 H :    0.027051
  11 H :    0.012569
  12 C :   -0.023903
  13 H :    0.024708
  14 H :    0.024940
  15 H :    0.039391
  16 S :    0.099798
  17 C :   -0.055079
  18 C :   -0.022341
  19 C :   -0.001070
  20 C :   -0.131171
  21 H :    0.008106
  22 C :    0.023574
  23 H :    0.018278
  24 H :    0.015793
  25 C :   -0.071027
  26 H :    0.036743
  27 H :    0.032315
  28 C :   -0.077384
  29 H :    0.035261
  30 H :    0.039682
  31 H :    0.045922
  32 H :    0.086624
  33 H :    0.023545
Sum of atomic charges:    0.0000000

LOEWDIN ATOMIC CHARGES
----------------------
   0 S :    0.400674
   1 C :   -0.217141
   2 C :   -0.058507
   3 C :   -0.076555
   4 C :   -0.181306
   5 H :    0.049846
   6 C :   -0.036356
   7 H :    0.027811
   8 H :    0.043319
   9 C :   -0.047320
  10 H :    0.023625
  11 H :    0.017793
  12 C :   -0.058565
  13 H :    0.024069
  14 H :    0.019063
  15 H :    0.030627
  16 S :    0.394473
  17 C :   -0.171550
  18 C :   -0.065822
  19 C :   -0.062876
  20 C :   -0.187162
  21 H :    0.027536
  22 C :   -0.030397
  23 H :    0.024782
  24 H :    0.025628
  25 C :   -0.033624
  26 H :    0.027132
  27 H :    0.018200
  28 C :   -0.070920
  29 H :    0.028405
  30 H :    0.023999
  31 H :    0.032175
  32 H :    0.042634
  33 H :    0.016311

  Mayer bond orders larger than 0.100000
B(  0-S ,  1-C ) :   1.1483 B(  0-S ,  4-C ) :   1.1690 B(  1-C ,  2-C ) :   1.5421
B(  1-C ,  4-C ) :   0.1165 B(  1-C , 32-H ) :   0.9645 B(  2-C ,  3-C ) :   1.2937
B(  2-C ,  6-C ) :   1.0229 B(  3-C ,  4-C ) :   1.5483 B(  3-C ,  5-H ) :   0.9728
B(  4-C , 20-C ) :   1.0167 B(  6-C ,  7-H ) :   0.9488 B(  6-C ,  8-H ) :   0.9294
B(  6-C ,  9-C ) :   1.0714 B(  9-C , 10-H ) :   0.9577 B(  9-C , 11-H ) :   0.9450
B(  9-C , 12-C ) :   1.0850 B( 12-C , 13-H ) :   0.9729 B( 12-C , 14-H ) :   0.9771
B( 12-C , 15-H ) :   0.9741 B( 16-S , 17-C ) :   1.1330 B( 16-S , 20-C ) :   1.1314
B( 17-C , 18-C ) :   1.6627 B( 17-C , 33-H ) :   0.9735 B( 18-C , 19-C ) :   1.1887
B( 18-C , 21-H ) :   0.9955 B( 19-C , 20-C ) :   1.6238 B( 19-C , 22-C ) :   1.0478
B( 22-C , 23-H ) :   0.9411 B( 22-C , 24-H ) :   0.9468 B( 22-C , 25-C ) :   1.0549
B( 25-C , 26-H ) :   0.9549 B( 25-C , 27-H ) :   0.9561 B( 25-C , 28-C ) :   1.0782
B( 28-C , 29-H ) :   0.9760 B( 28-C , 30-H ) :   0.9747 B( 28-C , 31-H ) :   0.9724

Dispersion correction           -0.013512765
FINAL SINGLE POINT ENERGY     -1339.864465577927

DIPOLE MOMENT
-------------
                                X             Y             Z
Electronic contribution:    -21.36151      17.90676      -6.74540
Nuclear contribution   :     21.98539     -18.14456       6.68751
                        -----------------------------------------
Total Dipole Moment    :      0.62388      -0.23780      -0.05789
                        -----------------------------------------
Magnitude (a.u.)       :      0.67017
Magnitude (Debye)      :      1.70344

Rotational constants in cm-1:     0.018277     0.007903     0.006036
Rotational constants in MHz :   547.939543   236.922556   180.961371

                             ****ORCA TERMINATED NORMALLY****
TOTAL RUN TIME: 0 days 0 hours 0 minutes 29 seconds 246 msec
