                         Program Version 4.2.1 -  RELEASE  -
|  1> ! wB97X-D3 SP def2-SVP
|  2> %pal
|  3> nprocs 16
|  4> end
|  5>
|  6> * xyz 0 1
|  7> S 	 14.1833 	 -14.8563 	 79.8104
|  8> C 	 15.3833 	 -14.1913 	 78.6993
|  9> C 	 14.8424 	 -13.2896 	 77.8205
| 10> C 	 13.4563 	 -13.0566 	 78.0373
| 11> C 	 13.002 	 -13.6777 	 79.1734
| 12> H 	 12.8568 	 -12.4597 	 77.3917
| 13> C 	 15.5435 	 -12.6209 	 76.6892
| 14> H 	 16.5334 	 -13.0747 	 76.6525
| 15> H 	 15.6601 	 -11.6308 	 76.9271
| 16> C 	 14.9056 	 -12.7025 	 75.275
| 17> H 	 14.8088 	 -13.7911 	 75.0031
| 18> H 	 13.8306 	 -12.3222 	 75.4203
| 19> C 	 15.581 	 -11.8455 	 74.1785
| 20> H 	 15.4708 	 -10.8264 	 74.2582
| 21> H 	 16.7229 	 -12.0482 	 74.207
| 22> H 	 15.2423 	 -12.1805 	 73.2366
| 23> S 	 11.0752 	 -15.1712 	 80.4749
| 24> C 	 9.49915 	 -14.5804 	 80.6611
| 25> C 	 9.38674 	 -13.2297 	 80.2927
| 26> C 	 10.5629 	 -12.7293 	 79.6559
| 27> C 	 11.6127 	 -13.6807 	 79.6068
| 28> H 	 8.48904 	 -12.7224 	 80.466
| 29> C 	 10.5883 	 -11.2719 	 79.0069
| 30> H 	 10.8332 	 -11.5052 	 77.9492
| 31> H 	 11.3858 	 -10.7465 	 79.5213
| 32> C 	 9.25905 	 -10.6012 	 79.2215
| 33> H 	 9.0438 	 -10.6708 	 80.2165
| 34> H 	 8.46905 	 -11.0324 	 78.5591
| 35> C 	 9.31283 	 -9.06057 	 78.9878
| 36> H 	 9.35782 	 -8.76895 	 77.8738
| 37> H 	 10.1367 	 -8.67619 	 79.5816
| 38> H 	 8.38199 	 -8.68781 	 79.3738
| 39> H 	 16.4046 	 -14.5297 	 78.7542
| 40> H 	 8.79264 	 -15.1034 	 81.3571
| 41> *
| 42>
| 43>                          ****END OF INPUT****

CARTESIAN COORDINATES (ANGSTROEM)
---------------------------------
  S     14.183300  -14.856300   79.810400
  C     15.383300  -14.191300   78.699300
  C     14.842400  -13.289600   77.820500
  C     13.456300  -13.056600   78.037300
  C     13.002000  -13.677700   79.173400
  H     12.856800  -12.459700   77.391700
  C     15.543500  -12.620900   76.689200
  H     16.533400  -13.074700   76.652500
  H     15.660100  -11.630800   76.927100
  C     14.905600  -12.702500   75.275000
  H     14.808800  -13.791100   75.003100
  H     13.830600  -12.322200   75.420300
  C     15.581000  -11.845500   74.178500
  H     15.470800  -10.826400   74.258200
  H     16.722900  -12.048200   74.207000
  H     15.242300  -12.180500   73.236600
  S     11.075200  -15.171200   80.474900
  C      9.499150  -14.580400   80.661100
  C      9.386740  -13.229700   80.292700
  C     10.562900  -12.729300   79.655900
  C     11.612700  -13.680700   79.606800
  H      8.489040  -12.722400   80.466000
  C     10.588300  -11.271900   79.006900
  H     10.833200  -11.505200   77.949200
  H     11.385800  -10.746500   79.521300
  C      9.259050  -10.601200   79.221500
  H      9.043800  -10.670800   80.216500
  H      8.469050  -11.032400   78.559100
  C      9.312830   -9.060570   78.987800
  H      9.357820   -8.768950   77.873800
  H     10.136700   -8.676190   79.581600
  H      8.381990   -8.687810   79.373800
  H     16.404600  -14.529700   78.754200
  H      8.792640  -15.103400   81.357100

 Total Charge           Charge          ....    0
 Multiplicity           Mult            ....    1
 Number of Electrons    NEL             ....  134
 Basis Dimension        Dim             ....  322

ORBITAL ENERGIES
----------------

  NO   OCC          E(Eh)            E(eV)
   0   2.0000     -88.966222     -2420.8940
   1   2.0000     -88.962832     -2420.8017
   2   2.0000     -10.331939      -281.1464
   3   2.0000     -10.330158      -281.0979
   4   2.0000     -10.316102      -280.7154
   5   2.0000     -10.312557      -280.6189
   6   2.0000     -10.310029      -280.5502
   7   2.0000     -10.300210      -280.2830
   8   2.0000     -10.298848      -280.2459
   9   2.0000     -10.296844      -280.1914
  10   2.0000     -10.290183      -280.0101
  11   2.0000     -10.289066      -279.9797
  12   2.0000     -10.284227      -279.8480
  13   2.0000     -10.283845      -279.8376
  14   2.0000     -10.282761      -279.8082
  15   2.0000     -10.281161      -279.7646
  16   2.0000      -8.080332      -219.8770
  17   2.0000      -8.077909      -219.8111
  18   2.0000      -6.039033      -164.3304
  19   2.0000      -6.036239      -164.2544
  20   2.0000      -6.035192      -164.2259
  21   2.0000      -6.032359      -164.1488
  22   2.0000      -6.030689      -164.1034
  23   2.0000      -6.028864      -164.0537
  24   2.0000      -1.002419       -27.2772
  25   2.0000      -0.980645       -26.6847
  26   2.0000      -0.914016       -24.8717
  27   2.0000      -0.909795       -24.7568
  28   2.0000      -0.867334       -23.6014
  29   2.0000      -0.853148       -23.2153
  30   2.0000      -0.843298       -22.9473
  31   2.0000      -0.812502       -22.1093
  32   2.0000      -0.784025       -21.3344
  33   2.0000      -0.771758       -21.0006
  34   2.0000      -0.709583       -19.3087
  35   2.0000      -0.699190       -19.0259
  36   2.0000      -0.692610       -18.8469
  37   2.0000      -0.651475       -17.7275
  38   2.0000      -0.636367       -17.3164
  39   2.0000      -0.626437       -17.0462
  40   2.0000      -0.592088       -16.1115
  41   2.0000      -0.584037       -15.8925
  42   2.0000      -0.571051       -15.5391
  43   2.0000      -0.555861       -15.1258
  44   2.0000      -0.528729       -14.3875
  45   2.0000      -0.526098       -14.3158
  46   2.0000      -0.515543       -14.0286
  47   2.0000      -0.512194       -13.9375
  48   2.0000      -0.508714       -13.8428
  49   2.0000      -0.495172       -13.4743
  50   2.0000      -0.492904       -13.4126
  51   2.0000      -0.478000       -13.0070
  52   2.0000      -0.471005       -12.8167
  53   2.0000      -0.460704       -12.5364
  54   2.0000      -0.459626       -12.5071
  55   2.0000      -0.457356       -12.4453
  56   2.0000      -0.447284       -12.1712
  57   2.0000      -0.439718       -11.9653
  58   2.0000      -0.435685       -11.8556
  59   2.0000      -0.430505       -11.7146
  60   2.0000      -0.425550       -11.5798
  61   2.0000      -0.411568       -11.1993
  62   2.0000      -0.403017       -10.9666
  63   2.0000      -0.357527        -9.7288
  64   2.0000      -0.334155        -9.0928
  65   2.0000      -0.328008        -8.9255
  66   2.0000      -0.277804        -7.5594
  67   0.0000       0.018868         0.5134
  68   0.0000       0.073758         2.0071
  69   0.0000       0.097749         2.6599
  70   0.0000       0.126292         3.4366
  71   0.0000       0.134753         3.6668

MULLIKEN ATOMIC CHARGES
-----------------------
   0 S :    0.087290
   1 C :   -0.135972
   2 C :   -0.051851
   3 C :   -0.020034
   4 C :   -0.080827
   5 H :   -0.001722
   6 C :    0.125626
   7 H :    0.008067
   8 H :    0.012374
   9 C :   -0.151341
  10 H :    0.047729
  11 H :    0.034672
  12 C :   -0.006519
  13 H :    0.024200
  14 H :    0.032778
  15 H :    0.029568
  16 S :    0.087713
  17 C :   -0.089585
  18 C :   -0.047592
  19 C :   -0.080093
  20 C :   -0.157377
  21 H :    0.002795
  22 C :    0.085977
  23 H :    0.054184
  24 H :    0.036081
  25 C :   -0.104335
  26 H :    0.023198
  27 H :    0.046472
  28 C :   -0.038259
  29 H :    0.045773
  30 H :    0.032620
  31 H :    0.026694
  32 H :    0.044848
  33 H :    0.076845
Sum of atomic charges:   -0.0000000

LOEWDIN ATOMIC CHARGES
----------------------
   0 S :    0.374206
   1 C :   -0.187571
   2 C :   -0.059584
   3 C :   -0.059363
   4 C :   -0.170404
   5 H :    0.023528
   6 C :   -0.029746
   7 H :    0.028375
   8 H :    0.020134
   9 C :   -0.043362
  10 H :    0.031455
  11 H :    0.025548
  12 C :   -0.057474
  13 H :    0.014138
  14 H :    0.035334
  15 H :    0.024198
  16 S :    0.405581
  17 C :   -0.210544
  18 C :   -0.078325
  19 C :   -0.052640
  20 C :   -0.184103
  21 H :    0.021738
  22 C :   -0.024613
  23 H :    0.035138
  24 H :    0.032861
  25 C :   -0.041693
  26 H :    0.014032
  27 H :    0.033460
  28 C :   -0.061326
  29 H :    0.032783
  30 H :    0.023194
  31 H :    0.021698
  32 H :    0.025058
  33 H :    0.038289

  Mayer bond orders larger than 0.100000
B(  0-S ,  1-C ) :   1.1139 B(  0-S ,  4-C ) :   1.1315 B(  1-C ,  2-C ) :   1.6275
B(  1-C , 32-H ) :   0.9688 B(  2-C ,  3-C ) :   1.2222 B(  2-C ,  6-C ) :   1.0311
B(  3-C ,  4-C ) :   1.5739 B(  3-C ,  5-H ) :   0.9983 B(  4-C , 20-C ) :   1.0981
B(  6-C ,  7-H ) :   0.9314 B(  6-C ,  8-H ) :   0.9286 B(  6-C ,  9-C ) :   1.0594
B(  9-C , 10-H ) :   0.9602 B(  9-C , 11-H ) :   0.9504 B(  9-C , 12-C ) :   1.0769
B( 12-C , 13-H ) :   0.9756 B( 12-C , 14-H ) :   0.9737 B( 12-C , 15-H ) :   0.9737
B( 16-S , 17-C ) :   1.1907 B( 16-S , 20-C ) :   1.1368 B( 17-C , 18-C ) :   1.5545
B( 17-C , 20-C ) :   0.1046 B( 17-C , 33-H ) :   0.9536 B( 18-C , 19-C ) :   1.2889
B( 18-C , 21-H ) :   0.9937 B( 19-C , 20-C ) :   1.5669 B( 19-C , 22-C ) :   0.9907
B( 22-C , 23-H ) :   0.9356 B( 22-C , 24-H ) :   0.9297 B( 22-C , 25-C ) :   1.1181
B( 25-C , 26-H ) :   0.9409 B( 25-C , 27-H ) :   0.9462 B( 25-C , 28-C ) :   1.0832
B( 28-C , 29-H ) :   0.9752 B( 28-C , 30-H ) :   0.9753 B( 28-C , 31-H ) :   0.9753

Dispersion correction           -0.013067748
FINAL SINGLE POINT ENERGY     -1339.861443089508

DIPOLE MOMENT
-------------
                                X             Y             Z
Electronic contribution:      1.03555     -23.97853      19.57579
Nuclear contribution   :     -1.14363      24.59930     -19.95143
                        -----------------------------------------
Total Dipole Moment    :     -0.10808       0.62077      -0.37564
                        -----------------------------------------
Magnitude (a.u.)       :      0.73358
Magnitude (Debye)      :      1.86461

Rotational constants in cm-1:     0.015817     0.008674     0.006006
Rotational constants in MHz :   474.186134   260.028375   180.051082

                             ****ORCA TERMINATED NORMALLY****
TOTAL RUN TIME: 0 days 0 hours 0 minutes 27 seconds 693 msec
