                         Program Version 4.2.1 -  RELEASE  -
|  1> ! wB97X-D3 SP def2-SVP
|  2> %pal
|  3> nprocs 16
|  4> end
|  5>
|  6> * xyz 0 1
|  7> S 	 -3.9678 	 -21.6557 	 55.6957
|  8> C 	 -4.01725 	 -21.9322 	 53.9336
|  9> C 	 -4.24123 	 -20.7417 	 53.2874
| 10> C 	 -4.42101 	 -19.6311 	 54.1781
| 11> C 	 -4.24748 	 -19.9763 	 55.508
| 12> H 	 -4.50295 	 -18.5413 	 53.9744
| 13> C 	 -4.24282 	 -20.7265 	 51.8043
| 14> H 	 -3.42239 	 -21.2881 	 51.331
| 15> H 	 -4.15924 	 -19.6976 	 51.5281
| 16> C 	 -5.426 	 -21.324 	 51.0423
| 17> H 	 -5.28783 	 -21.2088 	 49.959
| 18> H 	 -5.35149 	 -22.3951 	 51.206
| 19> C 	 -6.73601 	 -20.7398 	 51.5218
| 20> H 	 -6.66914 	 -19.7524 	 51.9231
| 21> H 	 -7.47681 	 -20.6669 	 50.7494
| 22> H 	 -7.18394 	 -21.2251 	 52.374
| 23> S 	 -5.48828 	 -19.2135 	 57.8814
| 24> C 	 -4.89598 	 -17.8494 	 58.7587
| 25> C 	 -3.83638 	 -17.2697 	 58.151
| 26> C 	 -3.35017 	 -18.0336 	 57.0207
| 27> C 	 -4.20214 	 -19.0791 	 56.696
| 28> H 	 -3.36479 	 -16.3664 	 58.611
| 29> C 	 -2.25043 	 -17.537 	 56.0741
| 30> H 	 -2.66223 	 -17.4699 	 55.0359
| 31> H 	 -1.6208 	 -18.3482 	 55.9416
| 32> C 	 -1.33468 	 -16.394 	 56.5038
| 33> H 	 -0.323627 	 -16.4946 	 56.0248
| 34> H 	 -1.3331 	 -16.4951 	 57.5929
| 35> C 	 -1.84066 	 -15.0529 	 56.152
| 36> H 	 -2.6917 	 -14.8683 	 56.7481
| 37> H 	 -2.16061 	 -14.9331 	 55.1451
| 38> H 	 -1.19989 	 -14.1937 	 56.3396
| 39> H 	 -4.01465 	 -22.9111 	 53.5851
| 40> H 	 -5.41298 	 -17.5425 	 59.7018
| 41> *
| 42>
| 43>                          ****END OF INPUT****

CARTESIAN COORDINATES (ANGSTROEM)
---------------------------------
  S     -3.967800  -21.655700   55.695700
  C     -4.017250  -21.932200   53.933600
  C     -4.241230  -20.741700   53.287400
  C     -4.421010  -19.631100   54.178100
  C     -4.247480  -19.976300   55.508000
  H     -4.502950  -18.541300   53.974400
  C     -4.242820  -20.726500   51.804300
  H     -3.422390  -21.288100   51.331000
  H     -4.159240  -19.697600   51.528100
  C     -5.426000  -21.324000   51.042300
  H     -5.287830  -21.208800   49.959000
  H     -5.351490  -22.395100   51.206000
  C     -6.736010  -20.739800   51.521800
  H     -6.669140  -19.752400   51.923100
  H     -7.476810  -20.666900   50.749400
  H     -7.183940  -21.225100   52.374000
  S     -5.488280  -19.213500   57.881400
  C     -4.895980  -17.849400   58.758700
  C     -3.836380  -17.269700   58.151000
  C     -3.350170  -18.033600   57.020700
  C     -4.202140  -19.079100   56.696000
  H     -3.364790  -16.366400   58.611000
  C     -2.250430  -17.537000   56.074100
  H     -2.662230  -17.469900   55.035900
  H     -1.620800  -18.348200   55.941600
  C     -1.334680  -16.394000   56.503800
  H     -0.323627  -16.494600   56.024800
  H     -1.333100  -16.495100   57.592900
  C     -1.840660  -15.052900   56.152000
  H     -2.691700  -14.868300   56.748100
  H     -2.160610  -14.933100   55.145100
  H     -1.199890  -14.193700   56.339600
  H     -4.014650  -22.911100   53.585100
  H     -5.412980  -17.542500   59.701800

 Total Charge           Charge          ....    0
 Multiplicity           Mult            ....    1
 Number of Electrons    NEL             ....  134
 Basis Dimension        Dim             ....  322

ORBITAL ENERGIES
----------------

  NO   OCC          E(Eh)            E(eV)
   0   2.0000     -88.963329     -2420.8153
   1   2.0000     -88.963121     -2420.8096
   2   2.0000     -10.330382      -281.1040
   3   2.0000     -10.327053      -281.0134
   4   2.0000     -10.318642      -280.7845
   5   2.0000     -10.311791      -280.5981
   6   2.0000     -10.308989      -280.5219
   7   2.0000     -10.304084      -280.3884
   8   2.0000     -10.301049      -280.3058
   9   2.0000     -10.298274      -280.2303
  10   2.0000     -10.287876      -279.9473
  11   2.0000     -10.286448      -279.9085
  12   2.0000     -10.285129      -279.8726
  13   2.0000     -10.284973      -279.8683
  14   2.0000     -10.265314      -279.3334
  15   2.0000     -10.264519      -279.3118
  16   2.0000      -8.078604      -219.8300
  17   2.0000      -8.078532      -219.8280
  18   2.0000      -6.037041      -164.2762
  19   2.0000      -6.036899      -164.2724
  20   2.0000      -6.032914      -164.1639
  21   2.0000      -6.032834      -164.1618
  22   2.0000      -6.029552      -164.0725
  23   2.0000      -6.029483      -164.0706
  24   2.0000      -1.008522       -27.4433
  25   2.0000      -0.988157       -26.8891
  26   2.0000      -0.918186       -24.9851
  27   2.0000      -0.915938       -24.9239
  28   2.0000      -0.869343       -23.6560
  29   2.0000      -0.852766       -23.2050
  30   2.0000      -0.843773       -22.9602
  31   2.0000      -0.819558       -22.3013
  32   2.0000      -0.789474       -21.4827
  33   2.0000      -0.777886       -21.1674
  34   2.0000      -0.709986       -19.3197
  35   2.0000      -0.702239       -19.1089
  36   2.0000      -0.694950       -18.9105
  37   2.0000      -0.651286       -17.7224
  38   2.0000      -0.647692       -17.6246
  39   2.0000      -0.615822       -16.7574
  40   2.0000      -0.601821       -16.3764
  41   2.0000      -0.574468       -15.6321
  42   2.0000      -0.552708       -15.0399
  43   2.0000      -0.550735       -14.9863
  44   2.0000      -0.546123       -14.8608
  45   2.0000      -0.545791       -14.8517
  46   2.0000      -0.523043       -14.2327
  47   2.0000      -0.513460       -13.9720
  48   2.0000      -0.503072       -13.6893
  49   2.0000      -0.501800       -13.6547
  50   2.0000      -0.495002       -13.4697
  51   2.0000      -0.478576       -13.0227
  52   2.0000      -0.474905       -12.9228
  53   2.0000      -0.465149       -12.6574
  54   2.0000      -0.459709       -12.5093
  55   2.0000      -0.448288       -12.1985
  56   2.0000      -0.446251       -12.1431
  57   2.0000      -0.435131       -11.8405
  58   2.0000      -0.432773       -11.7764
  59   2.0000      -0.423025       -11.5111
  60   2.0000      -0.419832       -11.4242
  61   2.0000      -0.414525       -11.2798
  62   2.0000      -0.408546       -11.1171
  63   2.0000      -0.338286        -9.2052
  64   2.0000      -0.331477        -9.0199
  65   2.0000      -0.326848        -8.8940
  66   2.0000      -0.306191        -8.3319
  67   0.0000       0.036422         0.9911
  68   0.0000       0.062631         1.7043
  69   0.0000       0.114392         3.1128
  70   0.0000       0.121651         3.3103
  71   0.0000       0.130890         3.5617

MULLIKEN ATOMIC CHARGES
-----------------------
   0 S :    0.107067
   1 C :   -0.118611
   2 C :   -0.064353
   3 C :    0.041430
   4 C :   -0.175543
   5 H :    0.030850
   6 C :    0.059518
   7 H :    0.032764
   8 H :    0.009342
   9 C :   -0.068044
  10 H :    0.033809
  11 H :    0.021269
  12 C :   -0.019920
  13 H :    0.008956
  14 H :    0.024436
  15 H :    0.030177
  16 S :    0.110688
  17 C :   -0.107601
  18 C :   -0.061946
  19 C :   -0.017982
  20 C :   -0.183952
  21 H :    0.042770
  22 C :    0.081596
  23 H :    0.024469
  24 H :    0.011772
  25 C :   -0.069193
  26 H :    0.040780
  27 H :    0.029914
  28 C :   -0.008220
  29 H :    0.001200
  30 H :    0.014970
  31 H :    0.027503
  32 H :    0.034483
  33 H :    0.075602
Sum of atomic charges:    0.0000000

LOEWDIN ATOMIC CHARGES
----------------------
   0 S :    0.410761
   1 C :   -0.169698
   2 C :   -0.061916
   3 C :   -0.071116
   4 C :   -0.204534
   5 H :    0.039684
   6 C :   -0.034005
   7 H :    0.036557
   8 H :    0.022544
   9 C :   -0.038034
  10 H :    0.027937
  11 H :    0.019896
  12 C :   -0.069876
  13 H :    0.021978
  14 H :    0.023273
  15 H :    0.030029
  16 S :    0.412476
  17 C :   -0.191605
  18 C :   -0.089051
  19 C :   -0.047533
  20 C :   -0.208311
  21 H :    0.040244
  22 C :   -0.034900
  23 H :    0.034617
  24 H :    0.029405
  25 C :   -0.040780
  26 H :    0.033840
  27 H :    0.027606
  28 C :   -0.066370
  29 H :    0.017161
  30 H :    0.019844
  31 H :    0.026313
  32 H :    0.014511
  33 H :    0.039052

  Mayer bond orders larger than 0.100000
B(  0-S ,  1-C ) :   1.1382 B(  0-S ,  4-C ) :   1.1868 B(  1-C ,  2-C ) :   1.5813
B(  1-C ,  4-C ) :   0.1001 B(  1-C , 32-H ) :   0.9897 B(  2-C ,  3-C ) :   1.2294
B(  2-C ,  6-C ) :   1.0282 B(  3-C ,  4-C ) :   1.5791 B(  3-C ,  5-H ) :   0.9849
B(  4-C , 20-C ) :   0.9882 B(  6-C ,  7-H ) :   0.9446 B(  6-C ,  8-H ) :   0.9357
B(  6-C ,  9-C ) :   1.0827 B(  9-C , 10-H ) :   0.9583 B(  9-C , 11-H ) :   0.9571
B(  9-C , 12-C ) :   1.0666 B( 12-C , 13-H ) :   0.9771 B( 12-C , 14-H ) :   0.9751
B( 12-C , 15-H ) :   0.9675 B( 16-S , 17-C ) :   1.1667 B( 16-S , 20-C ) :   1.1524
B( 17-C , 18-C ) :   1.6202 B( 17-C , 33-H ) :   0.9593 B( 18-C , 19-C ) :   1.2261
B( 18-C , 21-H ) :   0.9750 B( 19-C , 20-C ) :   1.6123 B( 19-C , 22-C ) :   1.0349
B( 22-C , 23-H ) :   0.9326 B( 22-C , 24-H ) :   0.9100 B( 22-C , 25-C ) :   1.0714
B( 25-C , 26-H ) :   0.9545 B( 25-C , 27-H ) :   0.9519 B( 25-C , 28-C ) :   1.0905
B( 28-C , 29-H ) :   0.9690 B( 28-C , 30-H ) :   0.9702 B( 28-C , 31-H ) :   0.9700

Dispersion correction           -0.014358024
FINAL SINGLE POINT ENERGY     -1339.871967359870

DIPOLE MOMENT
-------------
                                X             Y             Z
Electronic contribution:     -4.98003     -12.76451      18.57960
Nuclear contribution   :      5.15847      13.11377     -18.96533
                        -----------------------------------------
Total Dipole Moment    :      0.17843       0.34926      -0.38573
                        -----------------------------------------
Magnitude (a.u.)       :      0.55010
Magnitude (Debye)      :      1.39823

Rotational constants in cm-1:     0.020225     0.007821     0.006640
Rotational constants in MHz :   606.322851   234.462556   199.069508

                             ****ORCA TERMINATED NORMALLY****
TOTAL RUN TIME: 0 days 0 hours 0 minutes 35 seconds 266 msec
