                         Program Version 4.2.1 -  RELEASE  -
|  1> ! wB97X-D3 SP def2-SVP
|  2> %pal
|  3> nprocs 16
|  4> end
|  5>
|  6> * xyz 0 1
|  7> S 	 -55.8932 	 34.9753 	 92.6913
|  8> C 	 -57.5063 	 34.765 	 91.9744
|  9> C 	 -58.3687 	 34.1674 	 92.8742
| 10> C 	 -57.8178 	 34.0855 	 94.1833
| 11> C 	 -56.4623 	 34.3238 	 94.2434
| 12> H 	 -58.29 	 33.7548 	 95.163
| 13> C 	 -59.7966 	 33.8125 	 92.5682
| 14> H 	 -59.826 	 32.7691 	 92.4805
| 15> H 	 -60.049 	 34.2331 	 91.5965
| 16> C 	 -60.8945 	 34.3393 	 93.5438
| 17> H 	 -60.7052 	 33.9439 	 94.5434
| 18> H 	 -60.8743 	 35.5104 	 93.474
| 19> C 	 -62.2878 	 33.7858 	 93.0405
| 20> H 	 -63.0128 	 34.3818 	 93.4545
| 21> H 	 -62.359 	 33.7967 	 91.9917
| 22> H 	 -62.452 	 32.7398 	 93.3216
| 23> S 	 -55.4865 	 32.966 	 96.4047
| 24> C 	 -54.7532 	 33.908 	 97.7862
| 25> C 	 -54.7581 	 35.2632 	 97.5368
| 26> C 	 -55.3269 	 35.5838 	 96.2742
| 27> C 	 -55.7722 	 34.4964 	 95.4995
| 28> H 	 -54.392 	 36.019 	 98.2196
| 29> C 	 -55.3389 	 36.9986 	 95.7813
| 30> H 	 -55.3146 	 37.4658 	 96.746
| 31> H 	 -56.2899 	 37.1627 	 95.3548
| 32> C 	 -54.0632 	 37.4751 	 95.1066
| 33> H 	 -53.8612 	 36.7792 	 94.3786
| 34> H 	 -53.2568 	 37.3661 	 95.7935
| 35> C 	 -54.2397 	 38.8804 	 94.5512
| 36> H 	 -53.2673 	 39.245 	 94.1156
| 37> H 	 -54.6529 	 39.6351 	 95.3012
| 38> H 	 -55.0392 	 38.8252 	 93.8131
| 39> H 	 -57.6861 	 34.9067 	 90.9224
| 40> H 	 -54.5539 	 33.5446 	 98.7862
| 41> *
| 42>
| 43>                          ****END OF INPUT****

CARTESIAN COORDINATES (ANGSTROEM)
---------------------------------
  S    -55.893200   34.975300   92.691300
  C    -57.506300   34.765000   91.974400
  C    -58.368700   34.167400   92.874200
  C    -57.817800   34.085500   94.183300
  C    -56.462300   34.323800   94.243400
  H    -58.290000   33.754800   95.163000
  C    -59.796600   33.812500   92.568200
  H    -59.826000   32.769100   92.480500
  H    -60.049000   34.233100   91.596500
  C    -60.894500   34.339300   93.543800
  H    -60.705200   33.943900   94.543400
  H    -60.874300   35.510400   93.474000
  C    -62.287800   33.785800   93.040500
  H    -63.012800   34.381800   93.454500
  H    -62.359000   33.796700   91.991700
  H    -62.452000   32.739800   93.321600
  S    -55.486500   32.966000   96.404700
  C    -54.753200   33.908000   97.786200
  C    -54.758100   35.263200   97.536800
  C    -55.326900   35.583800   96.274200
  C    -55.772200   34.496400   95.499500
  H    -54.392000   36.019000   98.219600
  C    -55.338900   36.998600   95.781300
  H    -55.314600   37.465800   96.746000
  H    -56.289900   37.162700   95.354800
  C    -54.063200   37.475100   95.106600
  H    -53.861200   36.779200   94.378600
  H    -53.256800   37.366100   95.793500
  C    -54.239700   38.880400   94.551200
  H    -53.267300   39.245000   94.115600
  H    -54.652900   39.635100   95.301200
  H    -55.039200   38.825200   93.813100
  H    -57.686100   34.906700   90.922400
  H    -54.553900   33.544600   98.786200

 Total Charge           Charge          ....    0
 Multiplicity           Mult            ....    1
 Number of Electrons    NEL             ....  134
 Basis Dimension        Dim             ....  322

ORBITAL ENERGIES
----------------

  NO   OCC          E(Eh)            E(eV)
   0   2.0000     -88.967913     -2420.9400
   1   2.0000     -88.963933     -2420.8317
   2   2.0000     -10.329668      -281.0846
   3   2.0000     -10.328388      -281.0497
   4   2.0000     -10.321746      -280.8690
   5   2.0000     -10.319716      -280.8138
   6   2.0000     -10.303497      -280.3724
   7   2.0000     -10.302271      -280.3390
   8   2.0000     -10.300725      -280.2970
   9   2.0000     -10.299765      -280.2709
  10   2.0000     -10.294490      -280.1273
  11   2.0000     -10.288501      -279.9643
  12   2.0000     -10.283084      -279.8169
  13   2.0000     -10.275781      -279.6182
  14   2.0000     -10.273248      -279.5493
  15   2.0000     -10.272848      -279.5384
  16   2.0000      -8.081489      -219.9085
  17   2.0000      -8.076691      -219.7779
  18   2.0000      -6.040087      -164.3591
  19   2.0000      -6.036139      -164.2517
  20   2.0000      -6.035415      -164.2320
  21   2.0000      -6.032242      -164.1457
  22   2.0000      -6.031466      -164.1245
  23   2.0000      -6.027355      -164.0127
  24   2.0000      -1.000991       -27.2383
  25   2.0000      -0.975884       -26.5552
  26   2.0000      -0.912092       -24.8193
  27   2.0000      -0.909276       -24.7427
  28   2.0000      -0.871735       -23.7211
  29   2.0000      -0.848330       -23.0842
  30   2.0000      -0.843614       -22.9559
  31   2.0000      -0.814622       -22.1670
  32   2.0000      -0.781775       -21.2732
  33   2.0000      -0.763787       -20.7837
  34   2.0000      -0.712050       -19.3759
  35   2.0000      -0.701791       -19.0967
  36   2.0000      -0.693882       -18.8815
  37   2.0000      -0.669764       -18.2252
  38   2.0000      -0.639267       -17.3953
  39   2.0000      -0.614678       -16.7262
  40   2.0000      -0.587038       -15.9741
  41   2.0000      -0.570945       -15.5362
  42   2.0000      -0.567458       -15.4413
  43   2.0000      -0.561931       -15.2909
  44   2.0000      -0.530944       -14.4477
  45   2.0000      -0.526411       -14.3244
  46   2.0000      -0.516368       -14.0511
  47   2.0000      -0.513924       -13.9846
  48   2.0000      -0.503397       -13.6981
  49   2.0000      -0.496064       -13.4986
  50   2.0000      -0.492302       -13.3962
  51   2.0000      -0.478308       -13.0154
  52   2.0000      -0.464593       -12.6422
  53   2.0000      -0.462710       -12.5910
  54   2.0000      -0.454939       -12.3795
  55   2.0000      -0.447206       -12.1691
  56   2.0000      -0.446636       -12.1536
  57   2.0000      -0.438008       -11.9188
  58   2.0000      -0.435254       -11.8439
  59   2.0000      -0.431614       -11.7448
  60   2.0000      -0.418831       -11.3970
  61   2.0000      -0.413571       -11.2538
  62   2.0000      -0.406561       -11.0631
  63   2.0000      -0.340595        -9.2681
  64   2.0000      -0.334639        -9.1060
  65   2.0000      -0.323797        -8.8110
  66   2.0000      -0.298420        -8.1204
  67   0.0000       0.028786         0.7833
  68   0.0000       0.059519         1.6196
  69   0.0000       0.105040         2.8583
  70   0.0000       0.111199         3.0259
  71   0.0000       0.126106         3.4315

MULLIKEN ATOMIC CHARGES
-----------------------
   0 S :    0.096692
   1 C :   -0.127430
   2 C :   -0.053350
   3 C :   -0.005382
   4 C :   -0.141277
   5 H :    0.048154
   6 C :    0.084337
   7 H :    0.027507
   8 H :    0.009097
   9 C :   -0.138986
  10 H :    0.044436
  11 H :    0.057358
  12 C :    0.004912
  13 H :    0.019929
  14 H :    0.014886
  15 H :    0.032061
  16 S :    0.078062
  17 C :   -0.079691
  18 C :   -0.031208
  19 C :   -0.075120
  20 C :   -0.178572
  21 H :    0.023790
  22 C :    0.077253
  23 H :   -0.004265
  24 H :    0.022841
  25 C :    0.024342
  26 H :   -0.003350
  27 H :    0.006156
  28 C :   -0.054516
  29 H :    0.048407
  30 H :    0.034344
  31 H :    0.029487
  32 H :    0.052092
  33 H :    0.057003
Sum of atomic charges:   -0.0000000

LOEWDIN ATOMIC CHARGES
----------------------
   0 S :    0.384584
   1 C :   -0.180925
   2 C :   -0.064866
   3 C :   -0.057984
   4 C :   -0.201070
   5 H :    0.045256
   6 C :   -0.031238
   7 H :    0.025744
   8 H :    0.027323
   9 C :   -0.035484
  10 H :    0.021933
  11 H :    0.038366
  12 C :   -0.052984
  13 H :    0.015589
  14 H :    0.017392
  15 H :    0.029408
  16 S :    0.356923
  17 C :   -0.163348
  18 C :   -0.071330
  19 C :   -0.053701
  20 C :   -0.183527
  21 H :    0.034741
  22 C :   -0.030185
  23 H :    0.027002
  24 H :    0.025530
  25 C :   -0.028609
  26 H :    0.007995
  27 H :    0.020116
  28 C :   -0.067507
  29 H :    0.031958
  30 H :    0.030661
  31 H :    0.025584
  32 H :    0.026810
  33 H :    0.029841

  Mayer bond orders larger than 0.100000
B(  0-S ,  1-C ) :   1.1347 B(  0-S ,  4-C ) :   1.1275 B(  1-C ,  2-C ) :   1.6172
B(  1-C , 32-H ) :   0.9673 B(  2-C ,  3-C ) :   1.2184 B(  2-C ,  6-C ) :   1.0208
B(  3-C ,  4-C ) :   1.6065 B(  3-C ,  5-H ) :   0.9746 B(  4-C , 20-C ) :   1.0243
B(  6-C ,  7-H ) :   0.9313 B(  6-C ,  8-H ) :   0.9411 B(  6-C ,  9-C ) :   1.0643
B(  9-C , 10-H ) :   0.9528 B(  9-C , 11-H ) :   0.9604 B(  9-C , 12-C ) :   1.0727
B( 12-C , 13-H ) :   0.9748 B( 12-C , 14-H ) :   0.9759 B( 12-C , 15-H ) :   0.9750
B( 16-S , 17-C ) :   1.1361 B( 16-S , 20-C ) :   1.1143 B( 17-C , 18-C ) :   1.6211
B( 17-C , 20-C ) :   0.1013 B( 17-C , 33-H ) :   0.9610 B( 18-C , 19-C ) :   1.2526
B( 18-C , 21-H ) :   0.9806 B( 19-C , 20-C ) :   1.5969 B( 19-C , 22-C ) :   1.0393
B( 22-C , 23-H ) :   0.9180 B( 22-C , 24-H ) :   0.9349 B( 22-C , 25-C ) :   1.0591
B( 25-C , 26-H ) :   0.9493 B( 25-C , 27-H ) :   0.9466 B( 25-C , 28-C ) :   1.0788
B( 28-C , 29-H ) :   0.9728 B( 28-C , 30-H ) :   0.9738 B( 28-C , 31-H ) :   0.9737

Dispersion correction           -0.014285732
FINAL SINGLE POINT ENERGY     -1339.858205299042

DIPOLE MOMENT
-------------
                                X             Y             Z
Electronic contribution:     14.25342     -13.18595       3.18157
Nuclear contribution   :    -14.81877      13.48781      -3.13841
                        -----------------------------------------
Total Dipole Moment    :     -0.56535       0.30186       0.04316
                        -----------------------------------------
Magnitude (a.u.)       :      0.64235
Magnitude (Debye)      :      1.63271

Rotational constants in cm-1:     0.018383     0.008081     0.006715
Rotational constants in MHz :   551.115757   242.269208   201.299037

                             ****ORCA TERMINATED NORMALLY****
TOTAL RUN TIME: 0 days 0 hours 0 minutes 29 seconds 628 msec
