                         Program Version 4.2.1 -  RELEASE  -
|  1> ! wB97X-D3 SP def2-SVP
|  2> %pal
|  3> nprocs 16
|  4> end
|  5>
|  6> * xyz 0 1
|  7> S 	 -81.7809 	 47.4215 	 137.299
|  8> C 	 -81.7194 	 46.6026 	 138.873
|  9> C 	 -82.1584 	 47.449 	 139.897
| 10> C 	 -82.0853 	 48.8002 	 139.43
| 11> C 	 -82.0076 	 48.973 	 138.068
| 12> H 	 -82.2303 	 49.7356 	 139.98
| 13> C 	 -82.2321 	 47.1355 	 141.39
| 14> H 	 -82.6538 	 46.1809 	 141.49
| 15> H 	 -82.9947 	 47.7744 	 141.873
| 16> C 	 -80.9421 	 47.2052 	 142.184
| 17> H 	 -80.6447 	 48.2742 	 142.31
| 18> H 	 -81.1778 	 46.852 	 143.238
| 19> C 	 -79.643 	 46.5811 	 141.552
| 20> H 	 -79.2147 	 47.3641 	 140.883
| 21> H 	 -78.9816 	 46.354 	 142.362
| 22> H 	 -79.7755 	 45.6791 	 141.017
| 23> S 	 -83.831 	 50.8572 	 137.017
| 24> C 	 -83.1408 	 52.1801 	 136.097
| 25> C 	 -81.7804 	 52.13 	 136.092
| 26> C 	 -81.161 	 51.0598 	 136.84
| 27> C 	 -82.1346 	 50.1951 	 137.28
| 28> H 	 -81.2285 	 52.9189 	 135.684
| 29> C 	 -79.6634 	 50.8961 	 137.018
| 30> H 	 -79.2354 	 50.8453 	 136.002
| 31> H 	 -79.2768 	 49.9219 	 137.386
| 32> C 	 -78.8896 	 51.9928 	 137.832
| 33> H 	 -78.8963 	 52.98 	 137.275
| 34> H 	 -77.8494 	 51.7367 	 137.926
| 35> C 	 -79.4783 	 52.2878 	 139.266
| 36> H 	 -79.6778 	 51.402 	 139.886
| 37> H 	 -80.419 	 52.7424 	 139.174
| 38> H 	 -78.8452 	 52.8645 	 140.046
| 39> H 	 -81.4874 	 45.5072 	 139.042
| 40> H 	 -83.727 	 52.9635 	 135.612
| 41> *
| 42>
| 43>                          ****END OF INPUT****

CARTESIAN COORDINATES (ANGSTROEM)
---------------------------------
  S    -81.780900   47.421500  137.299000
  C    -81.719400   46.602600  138.873000
  C    -82.158400   47.449000  139.897000
  C    -82.085300   48.800200  139.430000
  C    -82.007600   48.973000  138.068000
  H    -82.230300   49.735600  139.980000
  C    -82.232100   47.135500  141.390000
  H    -82.653800   46.180900  141.490000
  H    -82.994700   47.774400  141.873000
  C    -80.942100   47.205200  142.184000
  H    -80.644700   48.274200  142.310000
  H    -81.177800   46.852000  143.238000
  C    -79.643000   46.581100  141.552000
  H    -79.214700   47.364100  140.883000
  H    -78.981600   46.354000  142.362000
  H    -79.775500   45.679100  141.017000
  S    -83.831000   50.857200  137.017000
  C    -83.140800   52.180100  136.097000
  C    -81.780400   52.130000  136.092000
  C    -81.161000   51.059800  136.840000
  C    -82.134600   50.195100  137.280000
  H    -81.228500   52.918900  135.684000
  C    -79.663400   50.896100  137.018000
  H    -79.235400   50.845300  136.002000
  H    -79.276800   49.921900  137.386000
  C    -78.889600   51.992800  137.832000
  H    -78.896300   52.980000  137.275000
  H    -77.849400   51.736700  137.926000
  C    -79.478300   52.287800  139.266000
  H    -79.677800   51.402000  139.886000
  H    -80.419000   52.742400  139.174000
  H    -78.845200   52.864500  140.046000
  H    -81.487400   45.507200  139.042000
  H    -83.727000   52.963500  135.612000

 Total Charge           Charge          ....    0
 Multiplicity           Mult            ....    1
 Number of Electrons    NEL             ....  134
 Basis Dimension        Dim             ....  322

ORBITAL ENERGIES
----------------

  NO   OCC          E(Eh)            E(eV)
   0   2.0000     -88.964513     -2420.8475
   1   2.0000     -88.964269     -2420.8408
   2   2.0000     -10.330562      -281.1089
   3   2.0000     -10.323500      -280.9167
   4   2.0000     -10.322908      -280.9006
   5   2.0000     -10.320371      -280.8316
   6   2.0000     -10.310501      -280.5630
   7   2.0000     -10.304241      -280.3927
   8   2.0000     -10.301916      -280.3294
   9   2.0000     -10.299135      -280.2537
  10   2.0000     -10.294891      -280.1382
  11   2.0000     -10.291933      -280.0577
  12   2.0000     -10.290391      -280.0158
  13   2.0000     -10.289701      -279.9970
  14   2.0000     -10.280642      -279.7505
  15   2.0000     -10.276961      -279.6503
  16   2.0000      -8.078835      -219.8363
  17   2.0000      -8.077974      -219.8129
  18   2.0000      -6.037365      -164.2851
  19   2.0000      -6.036575      -164.2636
  20   2.0000      -6.033393      -164.1770
  21   2.0000      -6.032811      -164.1611
  22   2.0000      -6.029589      -164.0735
  23   2.0000      -6.028501      -164.0439
  24   2.0000      -1.000565       -27.2268
  25   2.0000      -0.979297       -26.6480
  26   2.0000      -0.908514       -24.7219
  27   2.0000      -0.899976       -24.4896
  28   2.0000      -0.863811       -23.5055
  29   2.0000      -0.842998       -22.9391
  30   2.0000      -0.840913       -22.8824
  31   2.0000      -0.809494       -22.0275
  32   2.0000      -0.789017       -21.4703
  33   2.0000      -0.778054       -21.1719
  34   2.0000      -0.707648       -19.2561
  35   2.0000      -0.697004       -18.9664
  36   2.0000      -0.689071       -18.7506
  37   2.0000      -0.658536       -17.9197
  38   2.0000      -0.638791       -17.3824
  39   2.0000      -0.613050       -16.6820
  40   2.0000      -0.600289       -16.3347
  41   2.0000      -0.565070       -15.3763
  42   2.0000      -0.547032       -14.8855
  43   2.0000      -0.543543       -14.7906
  44   2.0000      -0.540808       -14.7161
  45   2.0000      -0.533925       -14.5288
  46   2.0000      -0.519036       -14.1237
  47   2.0000      -0.510408       -13.8889
  48   2.0000      -0.497778       -13.5452
  49   2.0000      -0.489403       -13.3173
  50   2.0000      -0.485113       -13.2006
  51   2.0000      -0.473006       -12.8711
  52   2.0000      -0.469934       -12.7876
  53   2.0000      -0.465993       -12.6803
  54   2.0000      -0.458761       -12.4835
  55   2.0000      -0.444680       -12.1004
  56   2.0000      -0.441769       -12.0212
  57   2.0000      -0.438127       -11.9220
  58   2.0000      -0.434078       -11.8119
  59   2.0000      -0.424349       -11.5471
  60   2.0000      -0.417997       -11.3743
  61   2.0000      -0.411512       -11.1978
  62   2.0000      -0.410567       -11.1721
  63   2.0000      -0.334972        -9.1151
  64   2.0000      -0.327620        -8.9150
  65   2.0000      -0.321313        -8.7434
  66   2.0000      -0.312799        -8.5117
  67   0.0000       0.040976         1.1150
  68   0.0000       0.052854         1.4382
  69   0.0000       0.099851         2.7171
  70   0.0000       0.120944         3.2911
  71   0.0000       0.122718         3.3393

MULLIKEN ATOMIC CHARGES
-----------------------
   0 S :    0.114151
   1 C :   -0.150329
   2 C :   -0.085901
   3 C :    0.033895
   4 C :   -0.185827
   5 H :    0.015675
   6 C :    0.088701
   7 H :    0.010022
   8 H :    0.029589
   9 C :   -0.113134
  10 H :    0.030333
  11 H :    0.040035
  12 C :   -0.033685
  13 H :    0.051584
  14 H :    0.031107
  15 H :    0.018470
  16 S :    0.097734
  17 C :   -0.087205
  18 C :   -0.003926
  19 C :    0.021240
  20 C :   -0.195082
  21 H :   -0.004745
  22 C :    0.049057
  23 H :    0.037635
  24 H :    0.036556
  25 C :   -0.078283
  26 H :    0.038704
  27 H :    0.034316
  28 C :   -0.085064
  29 H :    0.023932
  30 H :    0.034770
  31 H :    0.044259
  32 H :    0.076103
  33 H :    0.065316
Sum of atomic charges:    0.0000000

LOEWDIN ATOMIC CHARGES
----------------------
   0 S :    0.398986
   1 C :   -0.193413
   2 C :   -0.065035
   3 C :   -0.062710
   4 C :   -0.205827
   5 H :    0.033035
   6 C :   -0.036440
   7 H :    0.021775
   8 H :    0.038068
   9 C :   -0.045116
  10 H :    0.026139
  11 H :    0.029319
  12 C :   -0.062928
  13 H :    0.036376
  14 H :    0.026184
  15 H :    0.013680
  16 S :    0.363039
  17 C :   -0.174693
  18 C :   -0.068506
  19 C :   -0.044251
  20 C :   -0.175542
  21 H :    0.020567
  22 C :   -0.036712
  23 H :    0.039868
  24 H :    0.037685
  25 C :   -0.037792
  26 H :    0.027479
  27 H :    0.023775
  28 C :   -0.081457
  29 H :    0.023950
  30 H :    0.017897
  31 H :    0.037396
  32 H :    0.039953
  33 H :    0.035250

  Mayer bond orders larger than 0.100000
B(  0-S ,  1-C ) :   1.1523 B(  0-S ,  4-C ) :   1.1317 B(  1-C ,  2-C ) :   1.5949
B(  1-C ,  4-C ) :   0.1017 B(  1-C , 32-H ) :   0.9592 B(  2-C ,  3-C ) :   1.2082
B(  2-C ,  6-C ) :   1.0442 B(  3-C ,  4-C ) :   1.6265 B(  3-C ,  5-H ) :   0.9867
B(  4-C , 20-C ) :   1.0193 B(  6-C ,  7-H ) :   0.9340 B(  6-C ,  8-H ) :   0.9369
B(  6-C ,  9-C ) :   1.0731 B(  9-C , 10-H ) :   0.9593 B(  9-C , 11-H ) :   0.9570
B(  9-C , 12-C ) :   1.0620 B( 12-C , 13-H ) :   0.9751 B( 12-C , 14-H ) :   0.9731
B( 12-C , 15-H ) :   0.9804 B( 16-S , 17-C ) :   1.1340 B( 16-S , 20-C ) :   1.1132
B( 17-C , 18-C ) :   1.6518 B( 17-C , 33-H ) :   0.9640 B( 18-C , 19-C ) :   1.1960
B( 18-C , 21-H ) :   0.9922 B( 19-C , 20-C ) :   1.6418 B( 19-C , 22-C ) :   1.0382
B( 22-C , 23-H ) :   0.9354 B( 22-C , 24-H ) :   0.9382 B( 22-C , 25-C ) :   1.0677
B( 25-C , 26-H ) :   0.9597 B( 25-C , 27-H ) :   0.9598 B( 25-C , 28-C ) :   1.0546
B( 28-C , 29-H ) :   0.9756 B( 28-C , 30-H ) :   0.9760 B( 28-C , 31-H ) :   0.9767

Dispersion correction           -0.015590969
FINAL SINGLE POINT ENERGY     -1339.868203143933

DIPOLE MOMENT
-------------
                                X             Y             Z
Electronic contribution:    -18.34058      -1.94632     -19.02121
Nuclear contribution   :     18.76672       2.13543      19.41483
                        -----------------------------------------
Total Dipole Moment    :      0.42614       0.18911       0.39362
                        -----------------------------------------
Magnitude (a.u.)       :      0.61016
Magnitude (Debye)      :      1.55091

Rotational constants in cm-1:     0.019481     0.008910     0.007436
Rotational constants in MHz :   584.034535   267.109278   222.928364

                             ****ORCA TERMINATED NORMALLY****
TOTAL RUN TIME: 0 days 0 hours 0 minutes 35 seconds 598 msec
