                         Program Version 4.2.1 -  RELEASE  -
|  1> ! wB97X-D3 SP def2-SVP
|  2> %pal
|  3> nprocs 16
|  4> end
|  5>
|  6> * xyz 0 1
|  7> S 	 -118.116 	 47.4139 	 130.683
|  8> C 	 -117.456 	 47.6119 	 132.258
|  9> C 	 -116.878 	 46.4738 	 132.7
| 10> C 	 -117.095 	 45.3733 	 131.86
| 11> C 	 -117.804 	 45.7045 	 130.711
| 12> H 	 -116.81 	 44.3275 	 131.884
| 13> C 	 -116.26 	 46.4272 	 134.063
| 14> H 	 -115.597 	 47.2539 	 134.295
| 15> H 	 -115.558 	 45.6245 	 134.194
| 16> C 	 -117.227 	 46.3208 	 135.235
| 17> H 	 -116.681 	 46.3082 	 136.166
| 18> H 	 -117.863 	 47.2402 	 135.326
| 19> C 	 -118.07 	 45.0305 	 135.244
| 20> H 	 -118.164 	 44.4968 	 136.249
| 21> H 	 -119.025 	 45.0885 	 134.759
| 22> H 	 -117.522 	 44.2174 	 134.744
| 23> S 	 -119.754 	 44.6867 	 129.022
| 24> C 	 -119.346 	 43.2713 	 128.01
| 25> C 	 -118.017 	 43.0096 	 128.242
| 26> C 	 -117.269 	 43.7506 	 129.152
| 27> C 	 -118.057 	 44.789 	 129.634
| 28> H 	 -117.57 	 42.1508 	 127.816
| 29> C 	 -115.827 	 43.3858 	 129.47
| 30> H 	 -115.899 	 42.7953 	 130.375
| 31> H 	 -115.328 	 44.307 	 129.782
| 32> C 	 -115.006 	 42.6086 	 128.346
| 33> H 	 -115.331 	 41.6052 	 128.14
| 34> H 	 -114.048 	 42.4806 	 128.782
| 35> C 	 -114.868 	 43.4473 	 127.036
| 36> H 	 -115.874 	 43.5102 	 126.442
| 37> H 	 -114.024 	 43.1564 	 126.453
| 38> H 	 -114.671 	 44.4278 	 127.404
| 39> H 	 -117.464 	 48.531 	 132.793
| 40> H 	 -119.99 	 42.7491 	 127.368
| 41> *
| 42>
| 43>                          ****END OF INPUT****

CARTESIAN COORDINATES (ANGSTROEM)
---------------------------------
  S    -118.116000   47.413900  130.683000
  C    -117.456000   47.611900  132.258000
  C    -116.878000   46.473800  132.700000
  C    -117.095000   45.373300  131.860000
  C    -117.804000   45.704500  130.711000
  H    -116.810000   44.327500  131.884000
  C    -116.260000   46.427200  134.063000
  H    -115.597000   47.253900  134.295000
  H    -115.558000   45.624500  134.194000
  C    -117.227000   46.320800  135.235000
  H    -116.681000   46.308200  136.166000
  H    -117.863000   47.240200  135.326000
  C    -118.070000   45.030500  135.244000
  H    -118.164000   44.496800  136.249000
  H    -119.025000   45.088500  134.759000
  H    -117.522000   44.217400  134.744000
  S    -119.754000   44.686700  129.022000
  C    -119.346000   43.271300  128.010000
  C    -118.017000   43.009600  128.242000
  C    -117.269000   43.750600  129.152000
  C    -118.057000   44.789000  129.634000
  H    -117.570000   42.150800  127.816000
  C    -115.827000   43.385800  129.470000
  H    -115.899000   42.795300  130.375000
  H    -115.328000   44.307000  129.782000
  C    -115.006000   42.608600  128.346000
  H    -115.331000   41.605200  128.140000
  H    -114.048000   42.480600  128.782000
  C    -114.868000   43.447300  127.036000
  H    -115.874000   43.510200  126.442000
  H    -114.024000   43.156400  126.453000
  H    -114.671000   44.427800  127.404000
  H    -117.464000   48.531000  132.793000
  H    -119.990000   42.749100  127.368000

 Total Charge           Charge          ....    0
 Multiplicity           Mult            ....    1
 Number of Electrons    NEL             ....  134
 Basis Dimension        Dim             ....  322

ORBITAL ENERGIES
----------------

  NO   OCC          E(Eh)            E(eV)
   0   2.0000     -88.965097     -2420.8634
   1   2.0000     -88.963065     -2420.8081
   2   2.0000     -10.328207      -281.0448
   3   2.0000     -10.322977      -280.9025
   4   2.0000     -10.317534      -280.7544
   5   2.0000     -10.306067      -280.4423
   6   2.0000     -10.302068      -280.3335
   7   2.0000     -10.301389      -280.3151
   8   2.0000     -10.295602      -280.1576
   9   2.0000     -10.293628      -280.1039
  10   2.0000     -10.291789      -280.0538
  11   2.0000     -10.286963      -279.9225
  12   2.0000     -10.286051      -279.8977
  13   2.0000     -10.284412      -279.8531
  14   2.0000     -10.282077      -279.7895
  15   2.0000     -10.276543      -279.6389
  16   2.0000      -8.080642      -219.8854
  17   2.0000      -8.076505      -219.7729
  18   2.0000      -6.038955      -164.3283
  19   2.0000      -6.035104      -164.2235
  20   2.0000      -6.035038      -164.2217
  21   2.0000      -6.031553      -164.1269
  22   2.0000      -6.031228      -164.1180
  23   2.0000      -6.027208      -164.0087
  24   2.0000      -1.011279       -27.5183
  25   2.0000      -0.985544       -26.8180
  26   2.0000      -0.913550       -24.8590
  27   2.0000      -0.905099       -24.6290
  28   2.0000      -0.872870       -23.7520
  29   2.0000      -0.850692       -23.1485
  30   2.0000      -0.843272       -22.9466
  31   2.0000      -0.813404       -22.1338
  32   2.0000      -0.785598       -21.3772
  33   2.0000      -0.775453       -21.1011
  34   2.0000      -0.712374       -19.3847
  35   2.0000      -0.706210       -19.2169
  36   2.0000      -0.699751       -19.0412
  37   2.0000      -0.662156       -18.0182
  38   2.0000      -0.648177       -17.6378
  39   2.0000      -0.611741       -16.6463
  40   2.0000      -0.600589       -16.3429
  41   2.0000      -0.576831       -15.6964
  42   2.0000      -0.558782       -15.2052
  43   2.0000      -0.543711       -14.7951
  44   2.0000      -0.540218       -14.7001
  45   2.0000      -0.534523       -14.5451
  46   2.0000      -0.524722       -14.2784
  47   2.0000      -0.514214       -13.9925
  48   2.0000      -0.504754       -13.7350
  49   2.0000      -0.493829       -13.4378
  50   2.0000      -0.489792       -13.3279
  51   2.0000      -0.479607       -13.0508
  52   2.0000      -0.472062       -12.8455
  53   2.0000      -0.464065       -12.6279
  54   2.0000      -0.461138       -12.5482
  55   2.0000      -0.442434       -12.0392
  56   2.0000      -0.438276       -11.9261
  57   2.0000      -0.436175       -11.8689
  58   2.0000      -0.430824       -11.7233
  59   2.0000      -0.428212       -11.6522
  60   2.0000      -0.422478       -11.4962
  61   2.0000      -0.417016       -11.3476
  62   2.0000      -0.413761       -11.2590
  63   2.0000      -0.347361        -9.4522
  64   2.0000      -0.335026        -9.1165
  65   2.0000      -0.330569        -8.9952
  66   2.0000      -0.289551        -7.8791
  67   0.0000       0.025071         0.6822
  68   0.0000       0.074110         2.0166
  69   0.0000       0.114342         3.1114
  70   0.0000       0.122393         3.3305
  71   0.0000       0.140320         3.8183

MULLIKEN ATOMIC CHARGES
-----------------------
   0 S :    0.124023
   1 C :   -0.112095
   2 C :   -0.022299
   3 C :    0.009638
   4 C :   -0.160059
   5 H :    0.002994
   6 C :    0.068219
   7 H :    0.018462
   8 H :    0.006333
   9 C :   -0.062800
  10 H :    0.021294
  11 H :    0.030785
  12 C :   -0.076582
  13 H :    0.035974
  14 H :    0.048791
  15 H :    0.012940
  16 S :    0.084390
  17 C :   -0.059136
  18 C :   -0.021888
  19 C :   -0.039674
  20 C :   -0.173398
  21 H :   -0.005941
  22 C :    0.038792
  23 H :    0.047650
  24 H :    0.042470
  25 C :   -0.052836
  26 H :    0.030524
  27 H :    0.020582
  28 C :   -0.054470
  29 H :    0.060409
  30 H :    0.037956
  31 H :    0.022123
  32 H :    0.037011
  33 H :    0.039819
Sum of atomic charges:    0.0000000

LOEWDIN ATOMIC CHARGES
----------------------
   0 S :    0.425806
   1 C :   -0.191334
   2 C :   -0.068828
   3 C :   -0.061508
   4 C :   -0.203654
   5 H :    0.032744
   6 C :   -0.035236
   7 H :    0.031640
   8 H :    0.025488
   9 C :   -0.041302
  10 H :    0.023655
  11 H :    0.024982
  12 C :   -0.078830
  13 H :    0.034585
  14 H :    0.025356
  15 H :    0.023521
  16 S :    0.367421
  17 C :   -0.163933
  18 C :   -0.069377
  19 C :   -0.058850
  20 C :   -0.179631
  21 H :    0.020619
  22 C :   -0.028318
  23 H :    0.033856
  24 H :    0.035260
  25 C :   -0.034065
  26 H :    0.018579
  27 H :    0.023956
  28 C :   -0.066536
  29 H :    0.041384
  30 H :    0.022700
  31 H :    0.022403
  32 H :    0.024627
  33 H :    0.022819

  Mayer bond orders larger than 0.100000
B(  0-S ,  1-C ) :   1.1483 B(  0-S ,  4-C ) :   1.1646 B(  1-C ,  2-C ) :   1.5851
B(  1-C , 32-H ) :   0.9775 B(  2-C ,  3-C ) :   1.2353 B(  2-C ,  6-C ) :   1.0340
B(  3-C ,  4-C ) :   1.5500 B(  3-C ,  5-H ) :   1.0041 B(  4-C , 20-C ) :   1.0511
B(  6-C ,  7-H ) :   0.9349 B(  6-C ,  8-H ) :   0.9353 B(  6-C ,  9-C ) :   1.0939
B(  9-C , 10-H ) :   0.9544 B(  9-C , 11-H ) :   0.9573 B(  9-C , 12-C ) :   1.0598
B( 12-C , 13-H ) :   0.9763 B( 12-C , 14-H ) :   0.9768 B( 12-C , 15-H ) :   0.9728
B( 16-S , 17-C ) :   1.1309 B( 16-S , 20-C ) :   1.1400 B( 17-C , 18-C ) :   1.5902
B( 17-C , 20-C ) :   0.1096 B( 17-C , 33-H ) :   0.9789 B( 18-C , 19-C ) :   1.2779
B( 18-C , 21-H ) :   0.9796 B( 19-C , 20-C ) :   1.5768 B( 19-C , 22-C ) :   1.0158
B( 22-C , 23-H ) :   0.9236 B( 22-C , 24-H ) :   0.9351 B( 22-C , 25-C ) :   1.0784
B( 25-C , 26-H ) :   0.9515 B( 25-C , 27-H ) :   0.9489 B( 25-C , 28-C ) :   1.0705
B( 28-C , 29-H ) :   0.9716 B( 28-C , 30-H ) :   0.9759 B( 28-C , 31-H ) :   0.9747

Dispersion correction           -0.014625582
FINAL SINGLE POINT ENERGY     -1339.871495589269

DIPOLE MOMENT
-------------
                                X             Y             Z
Electronic contribution:    -16.21141      10.34064     -10.70373
Nuclear contribution   :     16.87196     -10.79895      10.98488
                        -----------------------------------------
Total Dipole Moment    :      0.66055      -0.45830       0.28115
                        -----------------------------------------
Magnitude (a.u.)       :      0.85171
Magnitude (Debye)      :      2.16488

Rotational constants in cm-1:     0.020215     0.008069     0.007113
Rotational constants in MHz :   606.036749   241.894563   213.254596

                             ****ORCA TERMINATED NORMALLY****
TOTAL RUN TIME: 0 days 0 hours 0 minutes 34 seconds 124 msec
