                         Program Version 4.2.1 -  RELEASE  -
|  1> ! wB97X-D3 SP def2-SVP
|  2> %pal
|  3> nprocs 16
|  4> end
|  5>
|  6> * xyz 0 1
|  7> S 	 41.6148 	 9.38739 	 87.106
|  8> C 	 43.1722 	 10.1628 	 87.0615
|  9> C 	 43.9571 	 9.76112 	 88.153
| 10> C 	 43.2749 	 8.86473 	 88.9825
| 11> C 	 41.9861 	 8.54769 	 88.5643
| 12> H 	 43.6891 	 8.58162 	 89.9491
| 13> C 	 45.2505 	 10.3746 	 88.544
| 14> H 	 45.2327 	 10.2244 	 89.5715
| 15> H 	 45.1877 	 11.4437 	 88.3598
| 16> C 	 46.4279 	 9.81795 	 87.8501
| 17> H 	 46.2782 	 9.86614 	 86.7756
| 18> H 	 47.3668 	 10.406 	 87.9814
| 19> C 	 46.7904 	 8.34967 	 88.1274
| 20> H 	 45.9523 	 7.69488 	 87.8576
| 21> H 	 47.8208 	 8.02962 	 87.7372
| 22> H 	 47.0522 	 8.28666 	 89.1754
| 23> S 	 39.7603 	 8.78098 	 90.1362
| 24> C 	 39.0174 	 7.2806 	 90.6164
| 25> C 	 39.7429 	 6.15402 	 90.4038
| 26> C 	 40.8821 	 6.48459 	 89.6258
| 27> C 	 40.9645 	 7.83532 	 89.3028
| 28> H 	 39.4111 	 5.16856 	 90.7453
| 29> C 	 41.678 	 5.3552 	 89.0279
| 30> H 	 41.2923 	 4.45913 	 89.4975
| 31> H 	 42.706 	 5.32544 	 89.4982
| 32> C 	 41.6419 	 5.25222 	 87.4669
| 33> H 	 42.203 	 6.0761 	 87.0475
| 34> H 	 40.5867 	 5.40939 	 87.0824
| 35> C 	 42.2297 	 4.02067 	 86.7102
| 36> H 	 42.0184 	 4.15198 	 85.6622
| 37> H 	 41.7932 	 3.15604 	 87.226
| 38> H 	 43.3681 	 4.08342 	 86.9201
| 39> H 	 43.3842 	 11.0464 	 86.4875
| 40> H 	 38.0933 	 7.26009 	 91.1569
| 41> *
| 42>
| 43>                          ****END OF INPUT****

CARTESIAN COORDINATES (ANGSTROEM)
---------------------------------
  S     41.614800    9.387390   87.106000
  C     43.172200   10.162800   87.061500
  C     43.957100    9.761120   88.153000
  C     43.274900    8.864730   88.982500
  C     41.986100    8.547690   88.564300
  H     43.689100    8.581620   89.949100
  C     45.250500   10.374600   88.544000
  H     45.232700   10.224400   89.571500
  H     45.187700   11.443700   88.359800
  C     46.427900    9.817950   87.850100
  H     46.278200    9.866140   86.775600
  H     47.366800   10.406000   87.981400
  C     46.790400    8.349670   88.127400
  H     45.952300    7.694880   87.857600
  H     47.820800    8.029620   87.737200
  H     47.052200    8.286660   89.175400
  S     39.760300    8.780980   90.136200
  C     39.017400    7.280600   90.616400
  C     39.742900    6.154020   90.403800
  C     40.882100    6.484590   89.625800
  C     40.964500    7.835320   89.302800
  H     39.411100    5.168560   90.745300
  C     41.678000    5.355200   89.027900
  H     41.292300    4.459130   89.497500
  H     42.706000    5.325440   89.498200
  C     41.641900    5.252220   87.466900
  H     42.203000    6.076100   87.047500
  H     40.586700    5.409390   87.082400
  C     42.229700    4.020670   86.710200
  H     42.018400    4.151980   85.662200
  H     41.793200    3.156040   87.226000
  H     43.368100    4.083420   86.920100
  H     43.384200   11.046400   86.487500
  H     38.093300    7.260090   91.156900

 Total Charge           Charge          ....    0
 Multiplicity           Mult            ....    1
 Number of Electrons    NEL             ....  134
 Basis Dimension        Dim             ....  322

ORBITAL ENERGIES
----------------

  NO   OCC          E(Eh)            E(eV)
   0   2.0000     -88.967103     -2420.9179
   1   2.0000     -88.966791     -2420.9095
   2   2.0000     -10.324456      -280.9427
   3   2.0000     -10.320705      -280.8407
   4   2.0000     -10.311738      -280.5967
   5   2.0000     -10.311071      -280.5785
   6   2.0000     -10.300730      -280.2971
   7   2.0000     -10.294720      -280.1336
   8   2.0000     -10.293637      -280.1041
   9   2.0000     -10.291606      -280.0488
  10   2.0000     -10.290961      -280.0313
  11   2.0000     -10.285810      -279.8911
  12   2.0000     -10.283972      -279.8411
  13   2.0000     -10.282885      -279.8115
  14   2.0000     -10.281735      -279.7802
  15   2.0000     -10.279892      -279.7301
  16   2.0000      -8.082127      -219.9258
  17   2.0000      -8.082004      -219.9225
  18   2.0000      -6.040420      -164.3682
  19   2.0000      -6.040328      -164.3657
  20   2.0000      -6.036640      -164.2653
  21   2.0000      -6.036411      -164.2591
  22   2.0000      -6.033277      -164.1738
  23   2.0000      -6.032750      -164.1595
  24   2.0000      -1.011061       -27.5124
  25   2.0000      -0.989430       -26.9238
  26   2.0000      -0.922728       -25.1087
  27   2.0000      -0.899398       -24.4739
  28   2.0000      -0.869443       -23.6587
  29   2.0000      -0.849731       -23.1223
  30   2.0000      -0.849629       -23.1196
  31   2.0000      -0.813748       -22.1432
  32   2.0000      -0.785950       -21.3868
  33   2.0000      -0.768214       -20.9042
  34   2.0000      -0.705162       -19.1884
  35   2.0000      -0.701234       -19.0816
  36   2.0000      -0.684580       -18.6284
  37   2.0000      -0.660823       -17.9819
  38   2.0000      -0.640683       -17.4339
  39   2.0000      -0.617372       -16.7995
  40   2.0000      -0.593844       -16.1593
  41   2.0000      -0.574854       -15.6426
  42   2.0000      -0.557426       -15.1683
  43   2.0000      -0.551956       -15.0195
  44   2.0000      -0.543752       -14.7962
  45   2.0000      -0.527321       -14.3491
  46   2.0000      -0.514365       -13.9966
  47   2.0000      -0.508224       -13.8295
  48   2.0000      -0.505659       -13.7597
  49   2.0000      -0.494791       -13.4640
  50   2.0000      -0.491509       -13.3746
  51   2.0000      -0.482881       -13.1399
  52   2.0000      -0.474808       -12.9202
  53   2.0000      -0.462659       -12.5896
  54   2.0000      -0.456794       -12.4300
  55   2.0000      -0.448224       -12.1968
  56   2.0000      -0.444190       -12.0870
  57   2.0000      -0.436383       -11.8746
  58   2.0000      -0.430876       -11.7247
  59   2.0000      -0.419841       -11.4245
  60   2.0000      -0.413640       -11.2557
  61   2.0000      -0.409952       -11.1554
  62   2.0000      -0.405806       -11.0425
  63   2.0000      -0.342156        -9.3105
  64   2.0000      -0.331254        -9.0139
  65   2.0000      -0.321376        -8.7451
  66   2.0000      -0.301733        -8.2106
  67   0.0000       0.032345         0.8801
  68   0.0000       0.062206         1.6927
  69   0.0000       0.110582         3.0091
  70   0.0000       0.120477         3.2784
  71   0.0000       0.134077         3.6484

MULLIKEN ATOMIC CHARGES
-----------------------
   0 S :    0.125236
   1 C :   -0.116104
   2 C :   -0.151080
   3 C :    0.055539
   4 C :   -0.193502
   5 H :    0.011591
   6 C :    0.147251
   7 H :   -0.002242
   8 H :    0.025889
   9 C :   -0.070056
  10 H :    0.021574
  11 H :    0.028004
  12 C :   -0.078086
  13 H :    0.056205
  14 H :    0.039029
  15 H :    0.014877
  16 S :    0.127931
  17 C :   -0.079404
  18 C :   -0.034016
  19 C :   -0.030386
  20 C :   -0.176413
  21 H :    0.027412
  22 C :    0.108161
  23 H :   -0.007789
  24 H :    0.030280
  25 C :   -0.115301
  26 H :    0.034012
  27 H :    0.037160
  28 C :   -0.057939
  29 H :    0.050778
  30 H :    0.037512
  31 H :    0.043376
  32 H :    0.048635
  33 H :    0.041868
Sum of atomic charges:   -0.0000000

LOEWDIN ATOMIC CHARGES
----------------------
   0 S :    0.434635
   1 C :   -0.206387
   2 C :   -0.063304
   3 C :   -0.062468
   4 C :   -0.212162
   5 H :    0.032150
   6 C :   -0.026698
   7 H :    0.021753
   8 H :    0.037558
   9 C :   -0.047355
  10 H :    0.022748
  11 H :    0.026815
  12 C :   -0.074979
  13 H :    0.028383
  14 H :    0.036986
  15 H :    0.019052
  16 S :    0.415406
  17 C :   -0.174255
  18 C :   -0.071343
  19 C :   -0.050192
  20 C :   -0.212535
  21 H :    0.038326
  22 C :   -0.038515
  23 H :    0.022188
  24 H :    0.037738
  25 C :   -0.048990
  26 H :    0.020409
  27 H :    0.028326
  28 C :   -0.066179
  29 H :    0.028820
  30 H :    0.023421
  31 H :    0.034485
  32 H :    0.025470
  33 H :    0.020691

  Mayer bond orders larger than 0.100000
B(  0-S ,  1-C ) :   1.1631 B(  0-S ,  4-C ) :   1.1813 B(  1-C ,  2-C ) :   1.5638
B(  1-C ,  4-C ) :   0.1078 B(  1-C , 32-H ) :   0.9666 B(  2-C ,  3-C ) :   1.2982
B(  2-C ,  6-C ) :   1.0079 B(  3-C ,  4-C ) :   1.5352 B(  3-C ,  5-H ) :   0.9928
B(  4-C , 20-C ) :   1.0268 B(  6-C ,  7-H ) :   0.9387 B(  6-C ,  8-H ) :   0.9314
B(  6-C ,  9-C ) :   1.0717 B(  9-C , 10-H ) :   0.9539 B(  9-C , 11-H ) :   0.9534
B(  9-C , 12-C ) :   1.0786 B( 12-C , 13-H ) :   0.9739 B( 12-C , 14-H ) :   0.9715
B( 12-C , 15-H ) :   0.9732 B( 16-S , 17-C ) :   1.1604 B( 16-S , 20-C ) :   1.1462
B( 17-C , 18-C ) :   1.6290 B( 17-C , 33-H ) :   0.9639 B( 18-C , 19-C ) :   1.2404
B( 18-C , 21-H ) :   0.9878 B( 19-C , 20-C ) :   1.5984 B( 19-C , 22-C ) :   1.0563
B( 22-C , 23-H ) :   0.9299 B( 22-C , 24-H ) :   0.9171 B( 22-C , 25-C ) :   1.0442
B( 25-C , 26-H ) :   0.9550 B( 25-C , 27-H ) :   0.9594 B( 25-C , 28-C ) :   1.0790
B( 28-C , 29-H ) :   0.9736 B( 28-C , 30-H ) :   0.9783 B( 28-C , 31-H ) :   0.9775

Dispersion correction           -0.014760534
FINAL SINGLE POINT ENERGY     -1339.868415313244

DIPOLE MOMENT
-------------
                                X             Y             Z
Electronic contribution:    -22.06068      13.23126       5.65111
Nuclear contribution   :     22.33551     -13.32001      -5.40418
                        -----------------------------------------
Total Dipole Moment    :      0.27483      -0.08875       0.24693
                        -----------------------------------------
Magnitude (a.u.)       :      0.37998
Magnitude (Debye)      :      0.96583

Rotational constants in cm-1:     0.018076     0.009197     0.007445
Rotational constants in MHz :   541.918234   275.725590   223.191831

                             ****ORCA TERMINATED NORMALLY****
TOTAL RUN TIME: 0 days 0 hours 0 minutes 30 seconds 721 msec
