                         Program Version 4.2.1 -  RELEASE  -
|  1> ! wB97X-D3 SP def2-SVP
|  2> %pal
|  3> nprocs 16
|  4> end
|  5>
|  6> * xyz 0 1
|  7> S 	 -7.34054 	 -7.50835 	 75.638
|  8> C 	 -6.00452 	 -8.64722 	 75.686
|  9> C 	 -5.74256 	 -9.06124 	 76.9976
| 10> C 	 -6.75875 	 -8.70312 	 77.8991
| 11> C 	 -7.7244 	 -7.86744 	 77.3109
| 12> H 	 -6.75947 	 -8.85899 	 78.9706
| 13> C 	 -4.54154 	 -9.84675 	 77.4782
| 14> H 	 -4.09552 	 -9.43408 	 78.3601
| 15> H 	 -3.82821 	 -9.52229 	 76.7572
| 16> C 	 -4.53474 	 -11.4068 	 77.4348
| 17> H 	 -5.10669 	 -11.8201 	 78.2435
| 18> H 	 -5.0967 	 -11.5884 	 76.565
| 19> C 	 -3.14392 	 -12.1062 	 77.232
| 20> H 	 -2.64286 	 -11.5656 	 76.3935
| 21> H 	 -2.4776 	 -12.1432 	 78.0976
| 22> H 	 -3.32154 	 -13.1214 	 76.911
| 23> S 	 -8.45474 	 -6.809 	 79.7844
| 24> C 	 -9.99997 	 -6.0373 	 79.9297
| 25> C 	 -10.7149 	 -6.03257 	 78.7808
| 26> C 	 -10.0047 	 -6.69529 	 77.7086
| 27> C 	 -8.80296 	 -7.25415 	 78.0969
| 28> H 	 -11.6371 	 -5.45603 	 78.7387
| 29> C 	 -10.6233 	 -6.761 	 76.3209
| 30> H 	 -10.2345 	 -7.57615 	 75.8008
| 31> H 	 -10.3409 	 -5.8886 	 75.7999
| 32> C 	 -12.179 	 -6.82129 	 76.2165
| 33> H 	 -12.8001 	 -6.33831 	 76.939
| 34> H 	 -12.4379 	 -7.91376 	 76.1501
| 35> C 	 -12.6765 	 -6.25682 	 74.8516
| 36> H 	 -12.5377 	 -5.21694 	 74.7999
| 37> H 	 -13.7478 	 -6.46359 	 74.7543
| 38> H 	 -12.284 	 -6.86908 	 73.9727
| 39> H 	 -5.32205 	 -8.92142 	 74.8551
| 40> H 	 -10.4287 	 -5.6577 	 80.7967
| 41> *
| 42>
| 43>                          ****END OF INPUT****

CARTESIAN COORDINATES (ANGSTROEM)
---------------------------------
  S     -7.340540   -7.508350   75.638000
  C     -6.004520   -8.647220   75.686000
  C     -5.742560   -9.061240   76.997600
  C     -6.758750   -8.703120   77.899100
  C     -7.724400   -7.867440   77.310900
  H     -6.759470   -8.858990   78.970600
  C     -4.541540   -9.846750   77.478200
  H     -4.095520   -9.434080   78.360100
  H     -3.828210   -9.522290   76.757200
  C     -4.534740  -11.406800   77.434800
  H     -5.106690  -11.820100   78.243500
  H     -5.096700  -11.588400   76.565000
  C     -3.143920  -12.106200   77.232000
  H     -2.642860  -11.565600   76.393500
  H     -2.477600  -12.143200   78.097600
  H     -3.321540  -13.121400   76.911000
  S     -8.454740   -6.809000   79.784400
  C     -9.999970   -6.037300   79.929700
  C    -10.714900   -6.032570   78.780800
  C    -10.004700   -6.695290   77.708600
  C     -8.802960   -7.254150   78.096900
  H    -11.637100   -5.456030   78.738700
  C    -10.623300   -6.761000   76.320900
  H    -10.234500   -7.576150   75.800800
  H    -10.340900   -5.888600   75.799900
  C    -12.179000   -6.821290   76.216500
  H    -12.800100   -6.338310   76.939000
  H    -12.437900   -7.913760   76.150100
  C    -12.676500   -6.256820   74.851600
  H    -12.537700   -5.216940   74.799900
  H    -13.747800   -6.463590   74.754300
  H    -12.284000   -6.869080   73.972700
  H     -5.322050   -8.921420   74.855100
  H    -10.428700   -5.657700   80.796700

 Total Charge           Charge          ....    0
 Multiplicity           Mult            ....    1
 Number of Electrons    NEL             ....  134
 Basis Dimension        Dim             ....  322

ORBITAL ENERGIES
----------------

  NO   OCC          E(Eh)            E(eV)
   0   2.0000     -88.975095     -2421.1354
   1   2.0000     -88.964181     -2420.8384
   2   2.0000     -10.332552      -281.1630
   3   2.0000     -10.327063      -281.0137
   4   2.0000     -10.318672      -280.7853
   5   2.0000     -10.309247      -280.5289
   6   2.0000     -10.303826      -280.3814
   7   2.0000     -10.300885      -280.3013
   8   2.0000     -10.290662      -280.0231
   9   2.0000     -10.289814      -280.0001
  10   2.0000     -10.289341      -279.9872
  11   2.0000     -10.284715      -279.8613
  12   2.0000     -10.284290      -279.8498
  13   2.0000     -10.284180      -279.8468
  14   2.0000     -10.284167      -279.8464
  15   2.0000     -10.279276      -279.7133
  16   2.0000      -8.088653      -220.1034
  17   2.0000      -8.078797      -219.8353
  18   2.0000      -6.047198      -164.5526
  19   2.0000      -6.043324      -164.4472
  20   2.0000      -6.039460      -164.3421
  21   2.0000      -6.037455      -164.2875
  22   2.0000      -6.033438      -164.1782
  23   2.0000      -6.029296      -164.0655
  24   2.0000      -1.005038       -27.3485
  25   2.0000      -0.983888       -26.7730
  26   2.0000      -0.907673       -24.6990
  27   2.0000      -0.905365       -24.6362
  28   2.0000      -0.868702       -23.6386
  29   2.0000      -0.853703       -23.2304
  30   2.0000      -0.845508       -23.0074
  31   2.0000      -0.813246       -22.1295
  32   2.0000      -0.783797       -21.3282
  33   2.0000      -0.771663       -20.9980
  34   2.0000      -0.708199       -19.2711
  35   2.0000      -0.703516       -19.1436
  36   2.0000      -0.697377       -18.9766
  37   2.0000      -0.661931       -18.0120
  38   2.0000      -0.632935       -17.2230
  39   2.0000      -0.614436       -16.7196
  40   2.0000      -0.601647       -16.3716
  41   2.0000      -0.572024       -15.5656
  42   2.0000      -0.569157       -15.4875
  43   2.0000      -0.556660       -15.1475
  44   2.0000      -0.526119       -14.3164
  45   2.0000      -0.519820       -14.1450
  46   2.0000      -0.518046       -14.0968
  47   2.0000      -0.509567       -13.8660
  48   2.0000      -0.506185       -13.7740
  49   2.0000      -0.501782       -13.6542
  50   2.0000      -0.489386       -13.3169
  51   2.0000      -0.477817       -13.0021
  52   2.0000      -0.470208       -12.7950
  53   2.0000      -0.461519       -12.5586
  54   2.0000      -0.461025       -12.5451
  55   2.0000      -0.451488       -12.2856
  56   2.0000      -0.446552       -12.1513
  57   2.0000      -0.438275       -11.9261
  58   2.0000      -0.429549       -11.6886
  59   2.0000      -0.426148       -11.5961
  60   2.0000      -0.421942       -11.4816
  61   2.0000      -0.416993       -11.3469
  62   2.0000      -0.415231       -11.2990
  63   2.0000      -0.354391        -9.6435
  64   2.0000      -0.334588        -9.1046
  65   2.0000      -0.329089        -8.9550
  66   2.0000      -0.284335        -7.7372
  67   0.0000       0.022157         0.6029
  68   0.0000       0.080813         2.1990
  69   0.0000       0.101615         2.7651
  70   0.0000       0.118643         3.2284
  71   0.0000       0.126664         3.4467

MULLIKEN ATOMIC CHARGES
-----------------------
   0 S :    0.126361
   1 C :   -0.135999
   2 C :   -0.098443
   3 C :   -0.004135
   4 C :   -0.125293
   5 H :    0.019434
   6 C :    0.079786
   7 H :    0.022118
   8 H :   -0.009730
   9 C :   -0.024069
  10 H :    0.027614
  11 H :    0.010440
  12 C :   -0.066006
  13 H :    0.032016
  14 H :    0.043539
  15 H :    0.036523
  16 S :    0.086914
  17 C :   -0.043959
  18 C :   -0.045984
  19 C :   -0.065634
  20 C :   -0.124531
  21 H :    0.023824
  22 C :    0.120984
  23 H :    0.013232
  24 H :    0.023538
  25 C :   -0.102481
  26 H :    0.033397
  27 H :    0.040283
  28 C :   -0.082682
  29 H :    0.035078
  30 H :    0.028158
  31 H :    0.040813
  32 H :    0.058646
  33 H :    0.026246
Sum of atomic charges:   -0.0000000

LOEWDIN ATOMIC CHARGES
----------------------
   0 S :    0.420582
   1 C :   -0.211536
   2 C :   -0.059058
   3 C :   -0.068780
   4 C :   -0.186784
   5 H :    0.027662
   6 C :   -0.035792
   7 H :    0.027449
   8 H :    0.025614
   9 C :   -0.031666
  10 H :    0.020244
  11 H :    0.020176
  12 C :   -0.063700
  13 H :    0.028738
  14 H :    0.024681
  15 H :    0.026836
  16 S :    0.395914
  17 C :   -0.172031
  18 C :   -0.073067
  19 C :   -0.051083
  20 C :   -0.189518
  21 H :    0.034716
  22 C :   -0.028505
  23 H :    0.018631
  24 H :    0.027469
  25 C :   -0.037185
  26 H :    0.017657
  27 H :    0.032545
  28 C :   -0.068067
  29 H :    0.014665
  30 H :    0.026310
  31 H :    0.032792
  32 H :    0.036136
  33 H :    0.017955

  Mayer bond orders larger than 0.100000
B(  0-S ,  1-C ) :   1.1383 B(  0-S ,  4-C ) :   1.1544 B(  1-C ,  2-C ) :   1.5805
B(  1-C , 32-H ) :   0.9607 B(  2-C ,  3-C ) :   1.2717 B(  2-C ,  6-C ) :   1.0293
B(  3-C ,  4-C ) :   1.5135 B(  3-C ,  5-H ) :   0.9938 B(  4-C , 20-C ) :   1.0853
B(  6-C ,  7-H ) :   0.9402 B(  6-C ,  8-H ) :   0.9252 B(  6-C ,  9-C ) :   1.0532
B(  9-C , 10-H ) :   0.9584 B(  9-C , 11-H ) :   0.9515 B(  9-C , 12-C ) :   1.0771
B( 12-C , 13-H ) :   0.9743 B( 12-C , 14-H ) :   0.9800 B( 12-C , 15-H ) :   0.9761
B( 16-S , 17-C ) :   1.1460 B( 16-S , 20-C ) :   1.1067 B( 17-C , 18-C ) :   1.6528
B( 17-C , 33-H ) :   0.9646 B( 18-C , 19-C ) :   1.2114 B( 18-C , 21-H ) :   0.9874
B( 19-C , 20-C ) :   1.6177 B( 19-C , 22-C ) :   1.0315 B( 22-C , 23-H ) :   0.9307
B( 22-C , 24-H ) :   0.9330 B( 22-C , 25-C ) :   1.0515 B( 25-C , 26-H ) :   0.9608
B( 25-C , 27-H ) :   0.9612 B( 25-C , 28-C ) :   1.0864 B( 28-C , 29-H ) :   0.9778
B( 28-C , 30-H ) :   0.9741 B( 28-C , 31-H ) :   0.9745

Dispersion correction           -0.013138398
FINAL SINGLE POINT ENERGY     -1339.865978492762

DIPOLE MOMENT
-------------
                                X             Y             Z
Electronic contribution:      0.15017      11.44610       8.87734
Nuclear contribution   :     -0.23206     -11.47950      -8.98250
                        -----------------------------------------
Total Dipole Moment    :     -0.08189      -0.03340      -0.10516
                        -----------------------------------------
Magnitude (a.u.)       :      0.13741
Magnitude (Debye)      :      0.34926

Rotational constants in cm-1:     0.023299     0.006729     0.005593
Rotational constants in MHz :   698.479803   201.734048   167.675695

                             ****ORCA TERMINATED NORMALLY****
TOTAL RUN TIME: 0 days 0 hours 0 minutes 31 seconds 333 msec
