                         Program Version 4.2.1 -  RELEASE  -
|  1> ! wB97X-D3 SP def2-SVP
|  2> %pal
|  3> nprocs 16
|  4> end
|  5>
|  6> * xyz 0 1
|  7> S 	 0.0766876 	 17.5824 	 53.2814
|  8> C 	 1.19387 	 17.8129 	 51.9542
|  9> C 	 2.48828 	 17.8441 	 52.5122
| 10> C 	 2.51113 	 17.7639 	 53.9248
| 11> C 	 1.27685 	 17.6035 	 54.5038
| 12> H 	 3.35599 	 17.7147 	 54.5966
| 13> C 	 3.78567 	 17.9606 	 51.7978
| 14> H 	 4.37751 	 17.139 	 52.1344
| 15> H 	 4.06152 	 18.9673 	 52.0128
| 16> C 	 3.79557 	 17.7053 	 50.3096
| 17> H 	 3.30382 	 16.7099 	 50.1109
| 18> H 	 3.2062 	 18.5804 	 49.9942
| 19> C 	 5.11496 	 17.7529 	 49.487
| 20> H 	 5.6192 	 18.7649 	 49.5995
| 21> H 	 5.65997 	 16.947 	 49.9206
| 22> H 	 5.01267 	 17.444 	 48.3953
| 23> S 	 0.472304 	 15.9093 	 56.5673
| 24> C 	 0.279842 	 16.4523 	 58.1727
| 25> C 	 0.728981 	 17.772 	 58.2371
| 26> C 	 1.09841 	 18.3731 	 56.9967
| 27> C 	 0.931447 	 17.4414 	 55.9633
| 28> H 	 0.801443 	 18.3679 	 59.1322
| 29> C 	 1.50814 	 19.805 	 56.8483
| 30> H 	 0.70361 	 20.4948 	 57.2345
| 31> H 	 1.45914 	 19.9202 	 55.7381
| 32> C 	 2.8085 	 20.2412 	 57.4799
| 33> H 	 2.78145 	 20.1957 	 58.5568
| 34> H 	 2.88399 	 21.293 	 57.3088
| 35> C 	 4.06459 	 19.6438 	 56.9017
| 36> H 	 4.0617 	 18.5917 	 56.656
| 37> H 	 4.92769 	 19.7862 	 57.5623
| 38> H 	 4.43573 	 20.1378 	 55.9019
| 39> H 	 1.01521 	 17.9275 	 50.8822
| 40> H 	 -0.00957689 	 15.8761 	 59.002
| 41> *
| 42>
| 43>                          ****END OF INPUT****

CARTESIAN COORDINATES (ANGSTROEM)
---------------------------------
  S      0.076688   17.582400   53.281400
  C      1.193870   17.812900   51.954200
  C      2.488280   17.844100   52.512200
  C      2.511130   17.763900   53.924800
  C      1.276850   17.603500   54.503800
  H      3.355990   17.714700   54.596600
  C      3.785670   17.960600   51.797800
  H      4.377510   17.139000   52.134400
  H      4.061520   18.967300   52.012800
  C      3.795570   17.705300   50.309600
  H      3.303820   16.709900   50.110900
  H      3.206200   18.580400   49.994200
  C      5.114960   17.752900   49.487000
  H      5.619200   18.764900   49.599500
  H      5.659970   16.947000   49.920600
  H      5.012670   17.444000   48.395300
  S      0.472304   15.909300   56.567300
  C      0.279842   16.452300   58.172700
  C      0.728981   17.772000   58.237100
  C      1.098410   18.373100   56.996700
  C      0.931447   17.441400   55.963300
  H      0.801443   18.367900   59.132200
  C      1.508140   19.805000   56.848300
  H      0.703610   20.494800   57.234500
  H      1.459140   19.920200   55.738100
  C      2.808500   20.241200   57.479900
  H      2.781450   20.195700   58.556800
  H      2.883990   21.293000   57.308800
  C      4.064590   19.643800   56.901700
  H      4.061700   18.591700   56.656000
  H      4.927690   19.786200   57.562300
  H      4.435730   20.137800   55.901900
  H      1.015210   17.927500   50.882200
  H     -0.009577   15.876100   59.002000

 Total Charge           Charge          ....    0
 Multiplicity           Mult            ....    1
 Number of Electrons    NEL             ....  134
 Basis Dimension        Dim             ....  322

ORBITAL ENERGIES
----------------

  NO   OCC          E(Eh)            E(eV)
   0   2.0000     -88.966917     -2420.9129
   1   2.0000     -88.964111     -2420.8365
   2   2.0000     -10.328180      -281.0441
   3   2.0000     -10.327478      -281.0250
   4   2.0000     -10.316901      -280.7371
   5   2.0000     -10.314113      -280.6613
   6   2.0000     -10.300447      -280.2894
   7   2.0000     -10.299955      -280.2760
   8   2.0000     -10.293962      -280.1129
   9   2.0000     -10.291123      -280.0357
  10   2.0000     -10.289836      -280.0007
  11   2.0000     -10.289538      -279.9926
  12   2.0000     -10.289106      -279.9808
  13   2.0000     -10.284501      -279.8555
  14   2.0000     -10.283837      -279.8374
  15   2.0000     -10.282976      -279.8140
  16   2.0000      -8.082860      -219.9458
  17   2.0000      -8.079168      -219.8453
  18   2.0000      -6.041195      -164.3893
  19   2.0000      -6.037694      -164.2940
  20   2.0000      -6.037005      -164.2753
  21   2.0000      -6.033927      -164.1915
  22   2.0000      -6.033307      -164.1746
  23   2.0000      -6.030208      -164.0903
  24   2.0000      -1.011348       -27.5202
  25   2.0000      -0.991509       -26.9803
  26   2.0000      -0.918899       -25.0045
  27   2.0000      -0.915221       -24.9044
  28   2.0000      -0.863754       -23.5039
  29   2.0000      -0.852954       -23.2101
  30   2.0000      -0.849240       -23.1090
  31   2.0000      -0.814910       -22.1748
  32   2.0000      -0.783948       -21.3323
  33   2.0000      -0.774863       -21.0851
  34   2.0000      -0.707804       -19.2603
  35   2.0000      -0.705379       -19.1943
  36   2.0000      -0.687549       -18.7092
  37   2.0000      -0.656033       -17.8516
  38   2.0000      -0.639652       -17.4058
  39   2.0000      -0.607695       -16.5362
  40   2.0000      -0.596320       -16.2267
  41   2.0000      -0.594409       -16.1747
  42   2.0000      -0.570388       -15.5211
  43   2.0000      -0.552917       -15.0456
  44   2.0000      -0.544638       -14.8203
  45   2.0000      -0.525476       -14.2989
  46   2.0000      -0.521161       -14.1815
  47   2.0000      -0.516000       -14.0411
  48   2.0000      -0.509808       -13.8726
  49   2.0000      -0.499460       -13.5910
  50   2.0000      -0.494481       -13.4555
  51   2.0000      -0.484256       -13.1773
  52   2.0000      -0.466204       -12.6860
  53   2.0000      -0.464021       -12.6266
  54   2.0000      -0.459827       -12.5125
  55   2.0000      -0.449623       -12.2349
  56   2.0000      -0.443430       -12.0663
  57   2.0000      -0.436067       -11.8660
  58   2.0000      -0.435250       -11.8438
  59   2.0000      -0.426713       -11.6115
  60   2.0000      -0.421601       -11.4723
  61   2.0000      -0.409788       -11.1509
  62   2.0000      -0.390091       -10.6149
  63   2.0000      -0.336629        -9.1601
  64   2.0000      -0.329115        -8.9557
  65   2.0000      -0.326729        -8.8908
  66   2.0000      -0.306228        -8.3329
  67   0.0000       0.042698         1.1619
  68   0.0000       0.065395         1.7795
  69   0.0000       0.119232         3.2445
  70   0.0000       0.129802         3.5321
  71   0.0000       0.130696         3.5564

MULLIKEN ATOMIC CHARGES
-----------------------
   0 S :    0.117888
   1 C :   -0.117933
   2 C :   -0.130746
   3 C :    0.045321
   4 C :   -0.178134
   5 H :   -0.001860
   6 C :    0.123462
   7 H :    0.024275
   8 H :    0.036777
   9 C :   -0.166445
  10 H :    0.044553
  11 H :    0.024465
  12 C :   -0.041104
  13 H :    0.049016
  14 H :    0.021676
  15 H :    0.051890
  16 S :    0.134512
  17 C :   -0.073486
  18 C :   -0.029129
  19 C :   -0.028049
  20 C :   -0.178291
  21 H :    0.006869
  22 C :    0.033012
  23 H :    0.041736
  24 H :    0.036337
  25 C :   -0.011827
  26 H :    0.024296
  27 H :    0.021931
  28 C :   -0.087643
  29 H :    0.037901
  30 H :    0.030265
  31 H :    0.035560
  32 H :    0.057398
  33 H :    0.045506
Sum of atomic charges:    0.0000000

LOEWDIN ATOMIC CHARGES
----------------------
   0 S :    0.428274
   1 C :   -0.213198
   2 C :   -0.062872
   3 C :   -0.066877
   4 C :   -0.208205
   5 H :    0.030797
   6 C :   -0.033279
   7 H :    0.030524
   8 H :    0.035273
   9 C :   -0.055156
  10 H :    0.030245
  11 H :    0.018660
  12 C :   -0.070974
  13 H :    0.033626
  14 H :    0.018096
  15 H :    0.038685
  16 S :    0.452779
  17 C :   -0.197565
  18 C :   -0.068730
  19 C :   -0.060803
  20 C :   -0.221271
  21 H :    0.025035
  22 C :   -0.038902
  23 H :    0.041176
  24 H :    0.038435
  25 C :   -0.043682
  26 H :    0.023974
  27 H :    0.029394
  28 C :   -0.074144
  29 H :    0.018008
  30 H :    0.027730
  31 H :    0.034678
  32 H :    0.036456
  33 H :    0.023813

  Mayer bond orders larger than 0.100000
B(  0-S ,  1-C ) :   1.1406 B(  0-S ,  4-C ) :   1.1816 B(  1-C ,  2-C ) :   1.5738
B(  1-C , 32-H ) :   0.9670 B(  2-C ,  3-C ) :   1.2653 B(  2-C ,  6-C ) :   1.0092
B(  3-C ,  4-C ) :   1.5643 B(  3-C ,  5-H ) :   1.0011 B(  4-C , 20-C ) :   0.9690
B(  6-C ,  7-H ) :   0.9376 B(  6-C ,  8-H ) :   0.9309 B(  6-C ,  9-C ) :   1.0767
B(  9-C , 10-H ) :   0.9587 B(  9-C , 11-H ) :   0.9489 B(  9-C , 12-C ) :   1.0783
B( 12-C , 13-H ) :   0.9730 B( 12-C , 14-H ) :   0.9743 B( 12-C , 15-H ) :   0.9719
B( 16-S , 17-C ) :   1.1753 B( 16-S , 20-C ) :   1.1928 B( 17-C , 18-C ) :   1.5464
B( 17-C , 20-C ) :   0.1019 B( 17-C , 33-H ) :   0.9804 B( 18-C , 19-C ) :   1.2911
B( 18-C , 21-H ) :   0.9890 B( 19-C , 20-C ) :   1.5440 B( 19-C , 22-C ) :   1.0463
B( 22-C , 23-H ) :   0.9328 B( 22-C , 24-H ) :   0.9304 B( 22-C , 25-C ) :   1.0807
B( 25-C , 26-H ) :   0.9543 B( 25-C , 27-H ) :   0.9451 B( 25-C , 28-C ) :   1.0712
B( 28-C , 29-H ) :   0.9754 B( 28-C , 30-H ) :   0.9689 B( 28-C , 31-H ) :   0.9743

Dispersion correction           -0.014609112
FINAL SINGLE POINT ENERGY     -1339.867653563365

DIPOLE MOMENT
-------------
                                X             Y             Z
Electronic contribution:    -22.93566     -12.84444       9.09346
Nuclear contribution   :     23.49181      13.17499      -8.98918
                        -----------------------------------------
Total Dipole Moment    :      0.55615       0.33055       0.10429
                        -----------------------------------------
Magnitude (a.u.)       :      0.65532
Magnitude (Debye)      :      1.66568

Rotational constants in cm-1:     0.021570     0.007738     0.006428
Rotational constants in MHz :   646.657834   231.965982   192.714176

                             ****ORCA TERMINATED NORMALLY****
TOTAL RUN TIME: 0 days 0 hours 0 minutes 35 seconds 112 msec
