                         Program Version 4.2.1 -  RELEASE  -
|  1> ! wB97X-D3 SP def2-SVP
|  2> %pal
|  3> nprocs 16
|  4> end
|  5>
|  6> * xyz 0 1
|  7> S 	 16.4117 	 9.33708 	 89.7956
|  8> C 	 17.4161 	 7.95046 	 89.4335
|  9> C 	 16.6835 	 7.02552 	 88.7005
| 10> C 	 15.3461 	 7.5044 	 88.3942
| 11> C 	 15.0071 	 8.77513 	 88.8763
| 12> H 	 14.7313 	 6.85893 	 87.7695
| 13> C 	 17.152 	 5.64203 	 88.2897
| 14> H 	 16.2744 	 4.97701 	 87.956
| 15> H 	 17.5143 	 5.17896 	 89.1897
| 16> C 	 18.1754 	 5.64361 	 87.1401
| 17> H 	 17.7037 	 5.97501 	 86.2483
| 18> H 	 18.9669 	 6.31033 	 87.4074
| 19> C 	 18.671 	 4.19401 	 86.8508
| 20> H 	 17.8563 	 3.57762 	 86.3926
| 21> H 	 19.5333 	 4.27654 	 86.1049
| 22> H 	 18.9296 	 3.72318 	 87.7169
| 23> S 	 14.3034 	 11.3446 	 88.409
| 24> C 	 12.6539 	 11.7532 	 88.0137
| 25> C 	 11.8533 	 10.598 	 87.85
| 26> C 	 12.6204 	 9.38025 	 88.102
| 27> C 	 13.9175 	 9.65189 	 88.5722
| 28> H 	 10.8446 	 10.7154 	 87.6149
| 29> C 	 12.0683 	 8.04693 	 87.9511
| 30> H 	 12.6724 	 7.56105 	 87.2171
| 31> H 	 11.0577 	 8.20211 	 87.561
| 32> C 	 11.953 	 7.11346 	 89.1516
| 33> H 	 11.5697 	 7.70335 	 89.9985
| 34> H 	 13.0268 	 6.67506 	 89.3649
| 35> C 	 11.0594 	 5.87596 	 88.8239
| 36> H 	 11.2192 	 5.63582 	 87.7366
| 37> H 	 10.0647 	 6.17668 	 88.9253
| 38> H 	 11.3198 	 5.01404 	 89.4598
| 39> H 	 18.4834 	 7.87974 	 89.6962
| 40> H 	 12.307 	 12.7549 	 87.932
| 41> *
| 42>
| 43>                          ****END OF INPUT****

CARTESIAN COORDINATES (ANGSTROEM)
---------------------------------
  S     16.411700    9.337080   89.795600
  C     17.416100    7.950460   89.433500
  C     16.683500    7.025520   88.700500
  C     15.346100    7.504400   88.394200
  C     15.007100    8.775130   88.876300
  H     14.731300    6.858930   87.769500
  C     17.152000    5.642030   88.289700
  H     16.274400    4.977010   87.956000
  H     17.514300    5.178960   89.189700
  C     18.175400    5.643610   87.140100
  H     17.703700    5.975010   86.248300
  H     18.966900    6.310330   87.407400
  C     18.671000    4.194010   86.850800
  H     17.856300    3.577620   86.392600
  H     19.533300    4.276540   86.104900
  H     18.929600    3.723180   87.716900
  S     14.303400   11.344600   88.409000
  C     12.653900   11.753200   88.013700
  C     11.853300   10.598000   87.850000
  C     12.620400    9.380250   88.102000
  C     13.917500    9.651890   88.572200
  H     10.844600   10.715400   87.614900
  C     12.068300    8.046930   87.951100
  H     12.672400    7.561050   87.217100
  H     11.057700    8.202110   87.561000
  C     11.953000    7.113460   89.151600
  H     11.569700    7.703350   89.998500
  H     13.026800    6.675060   89.364900
  C     11.059400    5.875960   88.823900
  H     11.219200    5.635820   87.736600
  H     10.064700    6.176680   88.925300
  H     11.319800    5.014040   89.459800
  H     18.483400    7.879740   89.696200
  H     12.307000   12.754900   87.932000

 Total Charge           Charge          ....    0
 Multiplicity           Mult            ....    1
 Number of Electrons    NEL             ....  134
 Basis Dimension        Dim             ....  322

ORBITAL ENERGIES
----------------

  NO   OCC          E(Eh)            E(eV)
   0   2.0000     -88.966995     -2420.9150
   1   2.0000     -88.965245     -2420.8674
   2   2.0000     -10.335120      -281.2329
   3   2.0000     -10.326541      -280.9995
   4   2.0000     -10.319089      -280.7967
   5   2.0000     -10.318030      -280.7679
   6   2.0000     -10.305581      -280.4291
   7   2.0000     -10.303833      -280.3816
   8   2.0000     -10.298585      -280.2388
   9   2.0000     -10.298509      -280.2367
  10   2.0000     -10.296699      -280.1874
  11   2.0000     -10.291793      -280.0539
  12   2.0000     -10.284318      -279.8505
  13   2.0000     -10.284006      -279.8420
  14   2.0000     -10.281528      -279.7746
  15   2.0000     -10.279404      -279.7168
  16   2.0000      -8.081764      -219.9160
  17   2.0000      -8.079559      -219.8560
  18   2.0000      -6.040256      -164.3637
  19   2.0000      -6.038227      -164.3085
  20   2.0000      -6.036204      -164.2535
  21   2.0000      -6.033963      -164.1925
  22   2.0000      -6.032589      -164.1551
  23   2.0000      -6.030327      -164.0935
  24   2.0000      -1.005840       -27.3703
  25   2.0000      -0.979720       -26.6595
  26   2.0000      -0.914852       -24.8944
  27   2.0000      -0.911072       -24.7915
  28   2.0000      -0.870993       -23.7009
  29   2.0000      -0.851780       -23.1781
  30   2.0000      -0.842364       -22.9219
  31   2.0000      -0.813543       -22.1376
  32   2.0000      -0.780498       -21.2384
  33   2.0000      -0.768010       -20.8986
  34   2.0000      -0.707824       -19.2609
  35   2.0000      -0.705521       -19.1982
  36   2.0000      -0.687497       -18.7078
  37   2.0000      -0.671535       -18.2734
  38   2.0000      -0.636397       -17.3172
  39   2.0000      -0.623849       -16.9758
  40   2.0000      -0.596009       -16.2182
  41   2.0000      -0.573137       -15.5959
  42   2.0000      -0.570815       -15.5327
  43   2.0000      -0.559343       -15.2205
  44   2.0000      -0.531255       -14.4562
  45   2.0000      -0.521398       -14.1880
  46   2.0000      -0.520460       -14.1624
  47   2.0000      -0.513139       -13.9632
  48   2.0000      -0.507437       -13.8081
  49   2.0000      -0.499637       -13.5958
  50   2.0000      -0.491219       -13.3667
  51   2.0000      -0.486331       -13.2337
  52   2.0000      -0.468656       -12.7528
  53   2.0000      -0.463390       -12.6095
  54   2.0000      -0.458754       -12.4833
  55   2.0000      -0.447391       -12.1741
  56   2.0000      -0.444271       -12.0892
  57   2.0000      -0.440809       -11.9950
  58   2.0000      -0.435600       -11.8533
  59   2.0000      -0.428253       -11.6534
  60   2.0000      -0.418798       -11.3961
  61   2.0000      -0.413747       -11.2586
  62   2.0000      -0.407602       -11.0914
  63   2.0000      -0.356384        -9.6977
  64   2.0000      -0.328930        -8.9507
  65   2.0000      -0.326204        -8.8765
  66   2.0000      -0.281565        -7.6618
  67   0.0000       0.015754         0.4287
  68   0.0000       0.079312         2.1582
  69   0.0000       0.102621         2.7925
  70   0.0000       0.110466         3.0059
  71   0.0000       0.136650         3.7184

MULLIKEN ATOMIC CHARGES
-----------------------
   0 S :    0.093718
   1 C :   -0.136556
   2 C :   -0.090703
   3 C :    0.015188
   4 C :   -0.124647
   5 H :    0.002708
   6 C :    0.013145
   7 H :    0.028544
   8 H :    0.032469
   9 C :   -0.048167
  10 H :    0.025118
  11 H :    0.025123
  12 C :   -0.040762
  13 H :    0.034811
  14 H :    0.048706
  15 H :    0.011982
  16 S :    0.108697
  17 C :   -0.085045
  18 C :   -0.009987
  19 C :   -0.057290
  20 C :   -0.102341
  21 H :    0.000013
  22 C :    0.060513
  23 H :    0.027571
  24 H :    0.008137
  25 C :   -0.116090
  26 H :    0.040533
  27 H :    0.051632
  28 C :   -0.035250
  29 H :    0.029939
  30 H :    0.025721
  31 H :    0.047294
  32 H :    0.064692
  33 H :    0.050586
Sum of atomic charges:   -0.0000000

LOEWDIN ATOMIC CHARGES
----------------------
   0 S :    0.398427
   1 C :   -0.204066
   2 C :   -0.064091
   3 C :   -0.069895
   4 C :   -0.185875
   5 H :    0.024558
   6 C :   -0.037179
   7 H :    0.035185
   8 H :    0.027872
   9 C :   -0.030814
  10 H :    0.022295
  11 H :    0.018742
  12 C :   -0.060596
  13 H :    0.030031
  14 H :    0.036412
  15 H :    0.006720
  16 S :    0.417749
  17 C :   -0.180509
  18 C :   -0.059819
  19 C :   -0.049072
  20 C :   -0.202794
  21 H :    0.022364
  22 C :   -0.044542
  23 H :    0.029089
  24 H :    0.031087
  25 C :   -0.043935
  26 H :    0.025468
  27 H :    0.034989
  28 C :   -0.062769
  29 H :    0.029479
  30 H :    0.015356
  31 H :    0.030999
  32 H :    0.036286
  33 H :    0.022852

  Mayer bond orders larger than 0.100000
B(  0-S ,  1-C ) :   1.1381 B(  0-S ,  4-C ) :   1.1490 B(  1-C ,  2-C ) :   1.5843
B(  1-C , 32-H ) :   0.9681 B(  2-C ,  3-C ) :   1.2935 B(  2-C ,  6-C ) :   1.0122
B(  3-C ,  4-C ) :   1.5083 B(  3-C ,  5-H ) :   0.9824 B(  4-C , 20-C ) :   1.1051
B(  6-C ,  7-H ) :   0.9470 B(  6-C ,  8-H ) :   0.9435 B(  6-C ,  9-C ) :   1.0626
B(  9-C , 10-H ) :   0.9557 B(  9-C , 11-H ) :   0.9606 B(  9-C , 12-C ) :   1.0772
B( 12-C , 13-H ) :   0.9746 B( 12-C , 14-H ) :   0.9750 B( 12-C , 15-H ) :   0.9774
B( 16-S , 17-C ) :   1.1676 B( 16-S , 20-C ) :   1.1403 B( 17-C , 18-C ) :   1.5788
B( 17-C , 33-H ) :   0.9720 B( 18-C , 19-C ) :   1.2427 B( 18-C , 21-H ) :   1.0015
B( 19-C , 20-C ) :   1.5418 B( 19-C , 22-C ) :   1.0776 B( 22-C , 23-H ) :   0.9023
B( 22-C , 24-H ) :   0.9273 B( 22-C , 25-C ) :   1.0729 B( 25-C , 26-H ) :   0.9596
B( 25-C , 27-H ) :   0.9457 B( 25-C , 28-C ) :   1.0666 B( 28-C , 29-H ) :   0.9733
B( 28-C , 30-H ) :   0.9772 B( 28-C , 31-H ) :   0.9765

Dispersion correction           -0.013880234
FINAL SINGLE POINT ENERGY     -1339.872334567757

DIPOLE MOMENT
-------------
                                X             Y             Z
Electronic contribution:      2.15040      29.00512       7.58396
Nuclear contribution   :     -2.34125     -29.51649      -7.90954
                        -----------------------------------------
Total Dipole Moment    :     -0.19085      -0.51137      -0.32558
                        -----------------------------------------
Magnitude (a.u.)       :      0.63555
Magnitude (Debye)      :      1.61545

Rotational constants in cm-1:     0.018318     0.008433     0.006457
Rotational constants in MHz :   549.145013   252.804137   193.588228

                             ****ORCA TERMINATED NORMALLY****
TOTAL RUN TIME: 0 days 0 hours 0 minutes 32 seconds 985 msec
