                         Program Version 4.2.1 -  RELEASE  -
|  1> ! wB97X-D3 SP def2-SVP
|  2> %pal
|  3> nprocs 16
|  4> end
|  5>
|  6> * xyz 0 1
|  7> S 	 -2.43477 	 78.0438 	 48.3302
|  8> C 	 -0.819269 	 78.3777 	 47.7012
|  9> C 	 0.203821 	 77.7383 	 48.3951
| 10> C 	 -0.357938 	 77.0497 	 49.5414
| 11> C 	 -1.73754 	 77.2785 	 49.8007
| 12> H 	 0.220658 	 76.4859 	 50.2476
| 13> C 	 1.6453 	 77.6947 	 48.0632
| 14> H 	 1.91443 	 78.3851 	 47.2709
| 15> H 	 1.82621 	 76.8026 	 47.5822
| 16> C 	 2.60055 	 78.0438 	 49.2525
| 17> H 	 2.31754 	 78.9198 	 49.7396
| 18> H 	 2.51365 	 77.3615 	 50.0514
| 19> C 	 4.11193 	 78.2507 	 48.8893
| 20> H 	 4.26149 	 79.0689 	 48.2647
| 21> H 	 4.61231 	 78.2772 	 49.8133
| 22> H 	 4.42538 	 77.3722 	 48.4066
| 23> S 	 -2.41715 	 77.6138 	 52.3898
| 24> C 	 -3.4109 	 76.382 	 53.2331
| 25> C 	 -3.93828 	 75.464 	 52.3856
| 26> C 	 -3.37196 	 75.5964 	 51.0711
| 27> C 	 -2.51136 	 76.742 	 50.9331
| 28> H 	 -4.52709 	 74.6363 	 52.7683
| 29> C 	 -3.81995 	 74.6188 	 49.9803
| 30> H 	 -3.11916 	 74.3999 	 49.1721
| 31> H 	 -4.64536 	 75.2023 	 49.413
| 32> C 	 -4.3999 	 73.3148 	 50.4518
| 33> H 	 -4.79721 	 72.7994 	 49.6051
| 34> H 	 -5.24378 	 73.3119 	 51.174
| 35> C 	 -3.12186 	 72.4491 	 50.9061
| 36> H 	 -2.12556 	 72.769 	 50.5822
| 37> H 	 -3.30741 	 71.4008 	 50.7247
| 38> H 	 -2.98022 	 72.5464 	 52.0138
| 39> H 	 -0.670843 	 78.9339 	 46.8237
| 40> H 	 -3.43422 	 76.41 	 54.3368
| 41> *
| 42>
| 43>                          ****END OF INPUT****

CARTESIAN COORDINATES (ANGSTROEM)
---------------------------------
  S     -2.434770   78.043800   48.330200
  C     -0.819269   78.377700   47.701200
  C      0.203821   77.738300   48.395100
  C     -0.357938   77.049700   49.541400
  C     -1.737540   77.278500   49.800700
  H      0.220658   76.485900   50.247600
  C      1.645300   77.694700   48.063200
  H      1.914430   78.385100   47.270900
  H      1.826210   76.802600   47.582200
  C      2.600550   78.043800   49.252500
  H      2.317540   78.919800   49.739600
  H      2.513650   77.361500   50.051400
  C      4.111930   78.250700   48.889300
  H      4.261490   79.068900   48.264700
  H      4.612310   78.277200   49.813300
  H      4.425380   77.372200   48.406600
  S     -2.417150   77.613800   52.389800
  C     -3.410900   76.382000   53.233100
  C     -3.938280   75.464000   52.385600
  C     -3.371960   75.596400   51.071100
  C     -2.511360   76.742000   50.933100
  H     -4.527090   74.636300   52.768300
  C     -3.819950   74.618800   49.980300
  H     -3.119160   74.399900   49.172100
  H     -4.645360   75.202300   49.413000
  C     -4.399900   73.314800   50.451800
  H     -4.797210   72.799400   49.605100
  H     -5.243780   73.311900   51.174000
  C     -3.121860   72.449100   50.906100
  H     -2.125560   72.769000   50.582200
  H     -3.307410   71.400800   50.724700
  H     -2.980220   72.546400   52.013800
  H     -0.670843   78.933900   46.823700
  H     -3.434220   76.410000   54.336800

 Total Charge           Charge          ....    0
 Multiplicity           Mult            ....    1
 Number of Electrons    NEL             ....  134
 Basis Dimension        Dim             ....  322

ORBITAL ENERGIES
----------------

  NO   OCC          E(Eh)            E(eV)
   0   2.0000     -88.964582     -2420.8494
   1   2.0000     -88.962897     -2420.8035
   2   2.0000     -10.334827      -281.2249
   3   2.0000     -10.326578      -281.0005
   4   2.0000     -10.319272      -280.8017
   5   2.0000     -10.312936      -280.6293
   6   2.0000     -10.310574      -280.5650
   7   2.0000     -10.302763      -280.3524
   8   2.0000     -10.298393      -280.2335
   9   2.0000     -10.295465      -280.1539
  10   2.0000     -10.294731      -280.1339
  11   2.0000     -10.291500      -280.0459
  12   2.0000     -10.287712      -279.9429
  13   2.0000     -10.280364      -279.7429
  14   2.0000     -10.279863      -279.7293
  15   2.0000     -10.268026      -279.4072
  16   2.0000      -8.078137      -219.8173
  17   2.0000      -8.078078      -219.8157
  18   2.0000      -6.036702      -164.2670
  19   2.0000      -6.036459      -164.2604
  20   2.0000      -6.032907      -164.1637
  21   2.0000      -6.032484      -164.1522
  22   2.0000      -6.028979      -164.0569
  23   2.0000      -6.028818      -164.0525
  24   2.0000      -0.998058       -27.1585
  25   2.0000      -0.976159       -26.5626
  26   2.0000      -0.910497       -24.7759
  27   2.0000      -0.906986       -24.6803
  28   2.0000      -0.869010       -23.6470
  29   2.0000      -0.848655       -23.0931
  30   2.0000      -0.834888       -22.7185
  31   2.0000      -0.812091       -22.0981
  32   2.0000      -0.782970       -21.3057
  33   2.0000      -0.766672       -20.8622
  34   2.0000      -0.717823       -19.5330
  35   2.0000      -0.705648       -19.2017
  36   2.0000      -0.690297       -18.7839
  37   2.0000      -0.655224       -17.8296
  38   2.0000      -0.641300       -17.4507
  39   2.0000      -0.618338       -16.8258
  40   2.0000      -0.602692       -16.4001
  41   2.0000      -0.568084       -15.4583
  42   2.0000      -0.564646       -15.3648
  43   2.0000      -0.548289       -14.9197
  44   2.0000      -0.533077       -14.5058
  45   2.0000      -0.526491       -14.3265
  46   2.0000      -0.511396       -13.9158
  47   2.0000      -0.510939       -13.9034
  48   2.0000      -0.504578       -13.7303
  49   2.0000      -0.496590       -13.5129
  50   2.0000      -0.489923       -13.3315
  51   2.0000      -0.480335       -13.0706
  52   2.0000      -0.469273       -12.7696
  53   2.0000      -0.462947       -12.5974
  54   2.0000      -0.461297       -12.5525
  55   2.0000      -0.449457       -12.2304
  56   2.0000      -0.440769       -11.9939
  57   2.0000      -0.437897       -11.9158
  58   2.0000      -0.436565       -11.8795
  59   2.0000      -0.429546       -11.6885
  60   2.0000      -0.418572       -11.3899
  61   2.0000      -0.415637       -11.3101
  62   2.0000      -0.405196       -11.0259
  63   2.0000      -0.339920        -9.2497
  64   2.0000      -0.327663        -8.9162
  65   2.0000      -0.315096        -8.5742
  66   2.0000      -0.297461        -8.0943
  67   0.0000       0.036856         1.0029
  68   0.0000       0.055236         1.5030
  69   0.0000       0.108680         2.9573
  70   0.0000       0.120037         3.2664
  71   0.0000       0.129745         3.5305

MULLIKEN ATOMIC CHARGES
-----------------------
   0 S :    0.102481
   1 C :   -0.103943
   2 C :   -0.082656
   3 C :    0.042417
   4 C :   -0.162845
   5 H :    0.009829
   6 C :    0.130950
   7 H :    0.002395
   8 H :    0.018931
   9 C :   -0.092321
  10 H :    0.015332
  11 H :    0.014077
  12 C :    0.011005
  13 H :    0.028702
  14 H :    0.025136
  15 H :    0.012206
  16 S :    0.109213
  17 C :   -0.119886
  18 C :   -0.011801
  19 C :   -0.024974
  20 C :   -0.182009
  21 H :    0.032666
  22 C :    0.020211
  23 H :    0.039808
  24 H :    0.046107
  25 C :   -0.070666
  26 H :    0.024512
  27 H :    0.041365
  28 C :   -0.080322
  29 H :    0.042898
  30 H :    0.036725
  31 H :    0.028436
  32 H :    0.027053
  33 H :    0.068964
Sum of atomic charges:    0.0000000

LOEWDIN ATOMIC CHARGES
----------------------
   0 S :    0.377861
   1 C :   -0.178627
   2 C :   -0.060011
   3 C :   -0.046020
   4 C :   -0.194130
   5 H :    0.025179
   6 C :   -0.028007
   7 H :    0.031543
   8 H :    0.025911
   9 C :   -0.028285
  10 H :    0.018677
  11 H :    0.014617
  12 C :   -0.044617
  13 H :    0.017210
  14 H :    0.025826
  15 H :    0.018369
  16 S :    0.417217
  17 C :   -0.170794
  18 C :   -0.073426
  19 C :   -0.050262
  20 C :   -0.229156
  21 H :    0.037517
  22 C :   -0.042409
  23 H :    0.033908
  24 H :    0.040495
  25 C :   -0.042134
  26 H :    0.023728
  27 H :    0.026595
  28 C :   -0.072355
  29 H :    0.029359
  30 H :    0.021632
  31 H :    0.027871
  32 H :    0.015536
  33 H :    0.031182

  Mayer bond orders larger than 0.100000
B(  0-S ,  1-C ) :   1.1453 B(  0-S ,  4-C ) :   1.1216 B(  1-C ,  2-C ) :   1.6070
B(  1-C , 32-H ) :   0.9715 B(  2-C ,  3-C ) :   1.2288 B(  2-C ,  6-C ) :   1.0395
B(  3-C ,  4-C ) :   1.5927 B(  3-C ,  5-H ) :   0.9898 B(  4-C , 20-C ) :   1.0311
B(  6-C ,  7-H ) :   0.9345 B(  6-C ,  8-H ) :   0.9249 B(  6-C ,  9-C ) :   1.0445
B(  9-C , 10-H ) :   0.9587 B(  9-C , 11-H ) :   0.9569 B(  9-C , 12-C ) :   1.0897
B( 12-C , 13-H ) :   0.9784 B( 12-C , 14-H ) :   0.9725 B( 12-C , 15-H ) :   0.9753
B( 16-S , 17-C ) :   1.1612 B( 16-S , 20-C ) :   1.1680 B( 17-C , 18-C ) :   1.5974
B( 17-C , 33-H ) :   0.9637 B( 18-C , 19-C ) :   1.2553 B( 18-C , 21-H ) :   0.9793
B( 19-C , 20-C ) :   1.5659 B( 19-C , 22-C ) :   1.0279 B( 22-C , 23-H ) :   0.9438
B( 22-C , 24-H ) :   0.9292 B( 22-C , 25-C ) :   1.0924 B( 25-C , 26-H ) :   0.9550
B( 25-C , 27-H ) :   0.9497 B( 25-C , 28-C ) :   1.0464 B( 28-C , 29-H ) :   0.9787
B( 28-C , 30-H ) :   0.9804 B( 28-C , 31-H ) :   0.9755

Dispersion correction           -0.013997289
FINAL SINGLE POINT ENERGY     -1339.847339684853

DIPOLE MOMENT
-------------
                                X             Y             Z
Electronic contribution:    -14.40712      14.06358       3.75006
Nuclear contribution   :     14.76639     -14.56184      -3.80967
                        -----------------------------------------
Total Dipole Moment    :      0.35927      -0.49827      -0.05961
                        -----------------------------------------
Magnitude (a.u.)       :      0.61717
Magnitude (Debye)      :      1.56872

Rotational constants in cm-1:     0.020138     0.006937     0.006728
Rotational constants in MHz :   603.716792   207.972918   201.691548

                             ****ORCA TERMINATED NORMALLY****
TOTAL RUN TIME: 0 days 0 hours 0 minutes 32 seconds 822 msec
