                         Program Version 4.2.1 -  RELEASE  -
|  1> ! wB97X-D3 SP def2-SVP
|  2> %pal
|  3> nprocs 16
|  4> end
|  5>
|  6> * xyz 0 1
|  7> S 	 -70.5242 	 39.3644 	 114.205
|  8> C 	 -71.1125 	 38.4685 	 115.567
|  9> C 	 -71.6192 	 37.1939 	 115.238
| 10> C 	 -71.4805 	 36.9516 	 113.842
| 11> C 	 -71.0443 	 38.073 	 113.093
| 12> H 	 -71.7435 	 36.0593 	 113.393
| 13> C 	 -72.1651 	 36.1501 	 116.2
| 14> H 	 -72.9856 	 35.6148 	 115.862
| 15> H 	 -72.5517 	 36.7446 	 117.027
| 16> C 	 -71.1159 	 35.1408 	 116.742
| 17> H 	 -70.9223 	 34.3877 	 116.003
| 18> H 	 -70.1407 	 35.5167 	 116.856
| 19> C 	 -71.6104 	 34.5066 	 118.015
| 20> H 	 -72.4928 	 33.8849 	 118.018
| 21> H 	 -70.8224 	 33.7711 	 118.278
| 22> H 	 -71.6774 	 35.3196 	 118.697
| 23> S 	 -70.8365 	 39.5061 	 110.79
| 24> C 	 -70.4207 	 38.6705 	 109.349
| 25> C 	 -69.7445 	 37.4896 	 109.635
| 26> C 	 -69.8193 	 37.1281 	 111.059
| 27> C 	 -70.5934 	 38.0851 	 111.704
| 28> H 	 -69.1916 	 36.9276 	 108.83
| 29> C 	 -69.2209 	 35.8368 	 111.612
| 30> H 	 -69.2465 	 35.2197 	 110.744
| 31> H 	 -69.9391 	 35.423 	 112.32
| 32> C 	 -67.808 	 35.9153 	 112.149
| 33> H 	 -67.8668 	 36.6046 	 112.974
| 34> H 	 -67.1474 	 36.2911 	 111.392
| 35> C 	 -67.178 	 34.6427 	 112.733
| 36> H 	 -67.2433 	 33.7432 	 112.092
| 37> H 	 -67.6536 	 34.2901 	 113.677
| 38> H 	 -66.103 	 34.7629 	 112.946
| 39> H 	 -71.0895 	 38.7603 	 116.586
| 40> H 	 -70.3871 	 39.0944 	 108.414
| 41> *
| 42>
| 43>                          ****END OF INPUT****

CARTESIAN COORDINATES (ANGSTROEM)
---------------------------------
  S    -70.524200   39.364400  114.205000
  C    -71.112500   38.468500  115.567000
  C    -71.619200   37.193900  115.238000
  C    -71.480500   36.951600  113.842000
  C    -71.044300   38.073000  113.093000
  H    -71.743500   36.059300  113.393000
  C    -72.165100   36.150100  116.200000
  H    -72.985600   35.614800  115.862000
  H    -72.551700   36.744600  117.027000
  C    -71.115900   35.140800  116.742000
  H    -70.922300   34.387700  116.003000
  H    -70.140700   35.516700  116.856000
  C    -71.610400   34.506600  118.015000
  H    -72.492800   33.884900  118.018000
  H    -70.822400   33.771100  118.278000
  H    -71.677400   35.319600  118.697000
  S    -70.836500   39.506100  110.790000
  C    -70.420700   38.670500  109.349000
  C    -69.744500   37.489600  109.635000
  C    -69.819300   37.128100  111.059000
  C    -70.593400   38.085100  111.704000
  H    -69.191600   36.927600  108.830000
  C    -69.220900   35.836800  111.612000
  H    -69.246500   35.219700  110.744000
  H    -69.939100   35.423000  112.320000
  C    -67.808000   35.915300  112.149000
  H    -67.866800   36.604600  112.974000
  H    -67.147400   36.291100  111.392000
  C    -67.178000   34.642700  112.733000
  H    -67.243300   33.743200  112.092000
  H    -67.653600   34.290100  113.677000
  H    -66.103000   34.762900  112.946000
  H    -71.089500   38.760300  116.586000
  H    -70.387100   39.094400  108.414000

 Total Charge           Charge          ....    0
 Multiplicity           Mult            ....    1
 Number of Electrons    NEL             ....  134
 Basis Dimension        Dim             ....  322

ORBITAL ENERGIES
----------------

  NO   OCC          E(Eh)            E(eV)
   0   2.0000     -88.970138     -2421.0005
   1   2.0000     -88.964630     -2420.8506
   2   2.0000     -10.331087      -281.1232
   3   2.0000     -10.322049      -280.8772
   4   2.0000     -10.312709      -280.6231
   5   2.0000     -10.308759      -280.5156
   6   2.0000     -10.306156      -280.4448
   7   2.0000     -10.301877      -280.3283
   8   2.0000     -10.301075      -280.3065
   9   2.0000     -10.291309      -280.0408
  10   2.0000     -10.288868      -279.9743
  11   2.0000     -10.288647      -279.9683
  12   2.0000     -10.282661      -279.8054
  13   2.0000     -10.282616      -279.8042
  14   2.0000     -10.280620      -279.7499
  15   2.0000     -10.276425      -279.6358
  16   2.0000      -8.084237      -219.9833
  17   2.0000      -8.080945      -219.8937
  18   2.0000      -6.042744      -164.4314
  19   2.0000      -6.039319      -164.3382
  20   2.0000      -6.038854      -164.3256
  21   2.0000      -6.035530      -164.2351
  22   2.0000      -6.035033      -164.2216
  23   2.0000      -6.031468      -164.1246
  24   2.0000      -1.008254       -27.4360
  25   2.0000      -0.981528       -26.7087
  26   2.0000      -0.914944       -24.8969
  27   2.0000      -0.910909       -24.7871
  28   2.0000      -0.868458       -23.6319
  29   2.0000      -0.854780       -23.2597
  30   2.0000      -0.847376       -23.0583
  31   2.0000      -0.812753       -22.1161
  32   2.0000      -0.784743       -21.3539
  33   2.0000      -0.772066       -21.0090
  34   2.0000      -0.710581       -19.3359
  35   2.0000      -0.704642       -19.1743
  36   2.0000      -0.695137       -18.9156
  37   2.0000      -0.663152       -18.0453
  38   2.0000      -0.641451       -17.4548
  39   2.0000      -0.622643       -16.9430
  40   2.0000      -0.593694       -16.1552
  41   2.0000      -0.577546       -15.7158
  42   2.0000      -0.567847       -15.4519
  43   2.0000      -0.559970       -15.2376
  44   2.0000      -0.526628       -14.3303
  45   2.0000      -0.523245       -14.2382
  46   2.0000      -0.517215       -14.0741
  47   2.0000      -0.512062       -13.9339
  48   2.0000      -0.506588       -13.7850
  49   2.0000      -0.500022       -13.6063
  50   2.0000      -0.495584       -13.4855
  51   2.0000      -0.481901       -13.1132
  52   2.0000      -0.470763       -12.8101
  53   2.0000      -0.464258       -12.6331
  54   2.0000      -0.457264       -12.4428
  55   2.0000      -0.452909       -12.3243
  56   2.0000      -0.449864       -12.2414
  57   2.0000      -0.441855       -12.0235
  58   2.0000      -0.432361       -11.7651
  59   2.0000      -0.426962       -11.6182
  60   2.0000      -0.426511       -11.6060
  61   2.0000      -0.416605       -11.3364
  62   2.0000      -0.413321       -11.2470
  63   2.0000      -0.346041        -9.4162
  64   2.0000      -0.332627        -9.0512
  65   2.0000      -0.326302        -8.8791
  66   2.0000      -0.284898        -7.7525
  67   0.0000       0.026134         0.7111
  68   0.0000       0.065371         1.7788
  69   0.0000       0.105661         2.8752
  70   0.0000       0.120932         3.2907
  71   0.0000       0.126804         3.4505

MULLIKEN ATOMIC CHARGES
-----------------------
   0 S :    0.109828
   1 C :   -0.095074
   2 C :   -0.102294
   3 C :    0.022719
   4 C :   -0.102911
   5 H :   -0.008995
   6 C :    0.087922
   7 H :    0.012586
   8 H :    0.012665
   9 C :   -0.042375
  10 H :    0.010049
  11 H :    0.016530
  12 C :   -0.043655
  13 H :    0.033346
  14 H :    0.031348
  15 H :    0.029686
  16 S :    0.118584
  17 C :   -0.048107
  18 C :   -0.071673
  19 C :   -0.061887
  20 C :   -0.182989
  21 H :    0.040364
  22 C :    0.119523
  23 H :    0.004448
  24 H :    0.009219
  25 C :   -0.036888
  26 H :    0.032610
  27 H :    0.024648
  28 C :   -0.066639
  29 H :    0.024316
  30 H :    0.029221
  31 H :    0.040226
  32 H :    0.028768
  33 H :    0.024880
Sum of atomic charges:   -0.0000000

LOEWDIN ATOMIC CHARGES
----------------------
   0 S :    0.406015
   1 C :   -0.201698
   2 C :   -0.057839
   3 C :   -0.052251
   4 C :   -0.184711
   5 H :    0.015669
   6 C :   -0.023980
   7 H :    0.022647
   8 H :    0.029834
   9 C :   -0.034481
  10 H :    0.018479
  11 H :    0.020014
  12 C :   -0.061058
  13 H :    0.024067
  14 H :    0.032589
  15 H :    0.021024
  16 S :    0.432587
  17 C :   -0.187639
  18 C :   -0.071405
  19 C :   -0.049691
  20 C :   -0.217771
  21 H :    0.038952
  22 C :   -0.027948
  23 H :    0.024833
  24 H :    0.029522
  25 C :   -0.036493
  26 H :    0.028621
  27 H :    0.024320
  28 C :   -0.072874
  29 H :    0.022489
  30 H :    0.026076
  31 H :    0.030711
  32 H :    0.019913
  33 H :    0.011477

  Mayer bond orders larger than 0.100000
B(  0-S ,  1-C ) :   1.1541 B(  0-S ,  4-C ) :   1.1478 B(  1-C ,  2-C ) :   1.5857
B(  1-C ,  4-C ) :   0.1074 B(  1-C , 32-H ) :   0.9671 B(  2-C ,  3-C ) :   1.2716
B(  2-C ,  6-C ) :   1.0265 B(  3-C ,  4-C ) :   1.5500 B(  3-C ,  5-H ) :   1.0040
B(  4-C , 20-C ) :   1.0380 B(  6-C ,  7-H ) :   0.9400 B(  6-C ,  8-H ) :   0.9437
B(  6-C ,  9-C ) :   1.0530 B(  9-C , 10-H ) :   0.9493 B(  9-C , 11-H ) :   0.9570
B(  9-C , 12-C ) :   1.0835 B( 12-C , 13-H ) :   0.9760 B( 12-C , 14-H ) :   0.9713
B( 12-C , 15-H ) :   0.9791 B( 16-S , 17-C ) :   1.1533 B( 16-S , 20-C ) :   1.1530
B( 17-C , 18-C ) :   1.6154 B( 17-C , 33-H ) :   0.9785 B( 18-C , 19-C ) :   1.2341
B( 18-C , 21-H ) :   0.9779 B( 19-C , 20-C ) :   1.5750 B( 19-C , 22-C ) :   1.0316
B( 22-C , 23-H ) :   0.9217 B( 22-C , 24-H ) :   0.9301 B( 22-C , 25-C ) :   1.0744
B( 25-C , 26-H ) :   0.9535 B( 25-C , 27-H ) :   0.9525 B( 25-C , 28-C ) :   1.0851
B( 28-C , 29-H ) :   0.9748 B( 28-C , 30-H ) :   0.9739 B( 28-C , 31-H ) :   0.9746

Dispersion correction           -0.014115474
FINAL SINGLE POINT ENERGY     -1339.862978288993

DIPOLE MOMENT
-------------
                                X             Y             Z
Electronic contribution:     -7.37578      27.44330     -15.53487
Nuclear contribution   :      7.64539     -28.13868      15.71207
                        -----------------------------------------
Total Dipole Moment    :      0.26962      -0.69537       0.17720
                        -----------------------------------------
Magnitude (a.u.)       :      0.76657
Magnitude (Debye)      :      1.94847

Rotational constants in cm-1:     0.018795     0.008705     0.006671
Rotational constants in MHz :   563.458227   260.957235   200.006368

                             ****ORCA TERMINATED NORMALLY****
TOTAL RUN TIME: 0 days 0 hours 0 minutes 30 seconds 369 msec
