                         Program Version 4.2.1 -  RELEASE  -
|  1> ! wB97X-D3 SP def2-SVP
|  2> %pal
|  3> nprocs 16
|  4> end
|  5>
|  6> * xyz 0 1
|  7> S 	 0.626738 	 -18.2387 	 81.5357
|  8> C 	 0.203047 	 -19.2192 	 82.9099
|  9> C 	 -0.354284 	 -18.4424 	 83.9491
| 10> C 	 -0.592279 	 -17.1029 	 83.5738
| 11> C 	 -0.126451 	 -16.8255 	 82.256
| 12> H 	 -0.935428 	 -16.284 	 84.2385
| 13> C 	 -0.957131 	 -19.0394 	 85.216
| 14> H 	 -0.823911 	 -18.243 	 86.0079
| 15> H 	 -0.238087 	 -19.8847 	 85.4282
| 16> C 	 -2.39351 	 -19.4551 	 85.2542
| 17> H 	 -2.49192 	 -20.2988 	 84.5249
| 18> H 	 -2.48571 	 -19.8186 	 86.2564
| 19> C 	 -3.45887 	 -18.389 	 85.0239
| 20> H 	 -2.94412 	 -17.4219 	 85.275
| 21> H 	 -3.64753 	 -18.2971 	 83.9433
| 22> H 	 -4.39649 	 -18.5037 	 85.5492
| 23> S 	 -1.42086 	 -15.4238 	 80.2111
| 24> C 	 -0.911019 	 -13.7461 	 80.0436
| 25> C 	 0.107081 	 -13.3873 	 80.9012
| 26> C 	 0.429777 	 -14.4231 	 81.7638
| 27> C 	 -0.283029 	 -15.5816 	 81.5296
| 28> H 	 0.62358 	 -12.4421 	 80.8034
| 29> C 	 1.361 	 -14.099 	 82.9556
| 30> H 	 2.26197 	 -13.6508 	 82.4462
| 31> H 	 1.58856 	 -15.055 	 83.4198
| 32> C 	 0.660098 	 -13.0909 	 83.9649
| 33> H 	 -0.32929 	 -13.5052 	 84.1769
| 34> H 	 0.516692 	 -12.1354 	 83.4571
| 35> C 	 1.34555 	 -12.9432 	 85.2665
| 36> H 	 1.51115 	 -13.9394 	 85.6758
| 37> H 	 0.793863 	 -12.4645 	 86.0694
| 38> H 	 2.36263 	 -12.5898 	 85.2051
| 39> H 	 0.423562 	 -20.2935 	 83.0654
| 40> H 	 -1.37429 	 -13.0347 	 79.4325
| 41> *
| 42>
| 43>                          ****END OF INPUT****

CARTESIAN COORDINATES (ANGSTROEM)
---------------------------------
  S      0.626738  -18.238700   81.535700
  C      0.203047  -19.219200   82.909900
  C     -0.354284  -18.442400   83.949100
  C     -0.592279  -17.102900   83.573800
  C     -0.126451  -16.825500   82.256000
  H     -0.935428  -16.284000   84.238500
  C     -0.957131  -19.039400   85.216000
  H     -0.823911  -18.243000   86.007900
  H     -0.238087  -19.884700   85.428200
  C     -2.393510  -19.455100   85.254200
  H     -2.491920  -20.298800   84.524900
  H     -2.485710  -19.818600   86.256400
  C     -3.458870  -18.389000   85.023900
  H     -2.944120  -17.421900   85.275000
  H     -3.647530  -18.297100   83.943300
  H     -4.396490  -18.503700   85.549200
  S     -1.420860  -15.423800   80.211100
  C     -0.911019  -13.746100   80.043600
  C      0.107081  -13.387300   80.901200
  C      0.429777  -14.423100   81.763800
  C     -0.283029  -15.581600   81.529600
  H      0.623580  -12.442100   80.803400
  C      1.361000  -14.099000   82.955600
  H      2.261970  -13.650800   82.446200
  H      1.588560  -15.055000   83.419800
  C      0.660098  -13.090900   83.964900
  H     -0.329290  -13.505200   84.176900
  H      0.516692  -12.135400   83.457100
  C      1.345550  -12.943200   85.266500
  H      1.511150  -13.939400   85.675800
  H      0.793863  -12.464500   86.069400
  H      2.362630  -12.589800   85.205100
  H      0.423562  -20.293500   83.065400
  H     -1.374290  -13.034700   79.432500

 Total Charge           Charge          ....    0
 Multiplicity           Mult            ....    1
 Number of Electrons    NEL             ....  134
 Basis Dimension        Dim             ....  322

ORBITAL ENERGIES
----------------

  NO   OCC          E(Eh)            E(eV)
   0   2.0000     -88.970628     -2421.0139
   1   2.0000     -88.969123     -2420.9729
   2   2.0000     -10.329490      -281.0797
   3   2.0000     -10.320149      -280.8255
   4   2.0000     -10.316513      -280.7266
   5   2.0000     -10.313616      -280.6478
   6   2.0000     -10.298606      -280.2393
   7   2.0000     -10.298258      -280.2298
   8   2.0000     -10.297497      -280.2091
   9   2.0000     -10.296490      -280.1817
  10   2.0000     -10.295884      -280.1652
  11   2.0000     -10.288893      -279.9750
  12   2.0000     -10.287537      -279.9381
  13   2.0000     -10.284094      -279.8444
  14   2.0000     -10.279207      -279.7114
  15   2.0000     -10.272501      -279.5290
  16   2.0000      -8.084881      -220.0008
  17   2.0000      -8.083560      -219.9649
  18   2.0000      -6.043234      -164.4448
  19   2.0000      -6.041934      -164.4094
  20   2.0000      -6.039365      -164.3395
  21   2.0000      -6.038244      -164.3090
  22   2.0000      -6.035932      -164.2460
  23   2.0000      -6.034358      -164.2032
  24   2.0000      -1.005587       -27.3634
  25   2.0000      -0.982599       -26.7379
  26   2.0000      -0.913827       -24.8665
  27   2.0000      -0.906481       -24.6666
  28   2.0000      -0.866996       -23.5922
  29   2.0000      -0.857072       -23.3221
  30   2.0000      -0.846990       -23.0478
  31   2.0000      -0.810099       -22.0439
  32   2.0000      -0.782791       -21.3008
  33   2.0000      -0.767599       -20.8874
  34   2.0000      -0.703445       -19.1417
  35   2.0000      -0.697994       -18.9934
  36   2.0000      -0.695680       -18.9304
  37   2.0000      -0.662741       -18.0341
  38   2.0000      -0.634083       -17.2543
  39   2.0000      -0.607955       -16.5433
  40   2.0000      -0.589928       -16.0528
  41   2.0000      -0.573468       -15.6049
  42   2.0000      -0.565415       -15.3857
  43   2.0000      -0.550423       -14.9778
  44   2.0000      -0.543746       -14.7961
  45   2.0000      -0.525821       -14.3083
  46   2.0000      -0.523493       -14.2450
  47   2.0000      -0.507422       -13.8076
  48   2.0000      -0.500981       -13.6324
  49   2.0000      -0.492198       -13.3934
  50   2.0000      -0.485723       -13.2172
  51   2.0000      -0.483141       -13.1469
  52   2.0000      -0.473025       -12.8717
  53   2.0000      -0.464893       -12.6504
  54   2.0000      -0.454546       -12.3688
  55   2.0000      -0.450437       -12.2570
  56   2.0000      -0.447229       -12.1697
  57   2.0000      -0.437883       -11.9154
  58   2.0000      -0.431866       -11.7517
  59   2.0000      -0.426975       -11.6186
  60   2.0000      -0.417299       -11.3553
  61   2.0000      -0.413241       -11.2449
  62   2.0000      -0.408343       -11.1116
  63   2.0000      -0.340619        -9.2687
  64   2.0000      -0.331943        -9.0326
  65   2.0000      -0.323760        -8.8100
  66   2.0000      -0.296537        -8.0692
  67   0.0000       0.036794         1.0012
  68   0.0000       0.055508         1.5104
  69   0.0000       0.110129         2.9968
  70   0.0000       0.117961         3.2099
  71   0.0000       0.128838         3.5059

MULLIKEN ATOMIC CHARGES
-----------------------
   0 S :    0.137206
   1 C :   -0.138566
   2 C :   -0.086302
   3 C :    0.022200
   4 C :   -0.200901
   5 H :    0.033957
   6 C :   -0.013144
   7 H :    0.026581
   8 H :    0.035183
   9 C :   -0.023743
  10 H :    0.028678
  11 H :    0.027474
  12 C :   -0.051374
  13 H :    0.017536
  14 H :    0.043542
  15 H :    0.045230
  16 S :    0.129280
  17 C :   -0.074672
  18 C :   -0.034656
  19 C :   -0.027841
  20 C :   -0.187419
  21 H :    0.022772
  22 C :    0.063064
  23 H :    0.039916
  24 H :    0.028516
  25 C :   -0.071625
  26 H :    0.029051
  27 H :    0.031006
  28 C :   -0.011708
  29 H :    0.008425
  30 H :    0.036994
  31 H :    0.022571
  32 H :    0.058937
  33 H :    0.033833
Sum of atomic charges:   -0.0000000

LOEWDIN ATOMIC CHARGES
----------------------
   0 S :    0.422872
   1 C :   -0.216359
   2 C :   -0.074234
   3 C :   -0.064999
   4 C :   -0.197391
   5 H :    0.037103
   6 C :   -0.041246
   7 H :    0.030692
   8 H :    0.037173
   9 C :   -0.044035
  10 H :    0.026898
  11 H :    0.025181
  12 C :   -0.068208
  13 H :    0.026760
  14 H :    0.032392
  15 H :    0.027469
  16 S :    0.408462
  17 C :   -0.166524
  18 C :   -0.069760
  19 C :   -0.053672
  20 C :   -0.220271
  21 H :    0.034362
  22 C :   -0.023683
  23 H :    0.036635
  24 H :    0.025471
  25 C :   -0.038406
  26 H :    0.026524
  27 H :    0.022456
  28 C :   -0.070873
  29 H :    0.025792
  30 H :    0.028751
  31 H :    0.023590
  32 H :    0.034824
  33 H :    0.016253

  Mayer bond orders larger than 0.100000
B(  0-S ,  1-C ) :   1.1547 B(  0-S ,  4-C ) :   1.1765 B(  1-C ,  2-C ) :   1.5699
B(  1-C ,  4-C ) :   0.1093 B(  1-C , 32-H ) :   0.9617 B(  2-C ,  3-C ) :   1.2790
B(  2-C ,  6-C ) :   1.0282 B(  3-C ,  4-C ) :   1.5379 B(  3-C ,  5-H ) :   0.9824
B(  4-C , 20-C ) :   1.0352 B(  6-C ,  7-H ) :   0.9344 B(  6-C ,  8-H ) :   0.9398
B(  6-C ,  9-C ) :   1.0850 B(  9-C , 10-H ) :   0.9511 B(  9-C , 11-H ) :   0.9479
B(  9-C , 12-C ) :   1.0715 B( 12-C , 13-H ) :   0.9729 B( 12-C , 14-H ) :   0.9713
B( 12-C , 15-H ) :   0.9744 B( 16-S , 17-C ) :   1.1590 B( 16-S , 20-C ) :   1.1377
B( 17-C , 18-C ) :   1.6067 B( 17-C , 20-C ) :   0.1004 B( 17-C , 33-H ) :   0.9698
B( 18-C , 19-C ) :   1.2521 B( 18-C , 21-H ) :   0.9888 B( 19-C , 20-C ) :   1.6029
B( 19-C , 22-C ) :   1.0413 B( 22-C , 23-H ) :   0.9327 B( 22-C , 24-H ) :   0.9321
B( 22-C , 25-C ) :   1.0556 B( 25-C , 26-H ) :   0.9533 B( 25-C , 27-H ) :   0.9515
B( 25-C , 28-C ) :   1.1006 B( 28-C , 29-H ) :   0.9652 B( 28-C , 30-H ) :   0.9718
B( 28-C , 31-H ) :   0.9688

Dispersion correction           -0.014844909
FINAL SINGLE POINT ENERGY     -1339.876241887309

DIPOLE MOMENT
-------------
                                X             Y             Z
Electronic contribution:      2.57505      -4.89152     -24.94246
Nuclear contribution   :     -2.59714       5.15839      25.43911
                        -----------------------------------------
Total Dipole Moment    :     -0.02209       0.26687       0.49665
                        -----------------------------------------
Magnitude (a.u.)       :      0.56424
Magnitude (Debye)      :      1.43418

Rotational constants in cm-1:     0.016913     0.009101     0.007585
Rotational constants in MHz :   507.048142   272.847178   227.398401

                             ****ORCA TERMINATED NORMALLY****
TOTAL RUN TIME: 0 days 0 hours 0 minutes 34 seconds 734 msec
