                         Program Version 4.2.1 -  RELEASE  -
|  1> ! wB97X-D3 SP def2-SVP
|  2> %pal
|  3> nprocs 16
|  4> end
|  5>
|  6> * xyz 0 1
|  7> S 	 -25.1895 	 58.4513 	 109.968
|  8> C 	 -25.1216 	 57.1989 	 111.235
|  9> C 	 -26.3861 	 56.9856 	 111.741
| 10> C 	 -27.4233 	 57.7862 	 111.109
| 11> C 	 -26.9554 	 58.5282 	 110.011
| 12> H 	 -28.4445 	 57.8898 	 111.485
| 13> C 	 -26.6487 	 55.9656 	 112.825
| 14> H 	 -25.6773 	 55.494 	 113.012
| 15> H 	 -27.0708 	 55.0157 	 112.456
| 16> C 	 -27.3725 	 56.4797 	 114.074
| 17> H 	 -28.4619 	 56.6719 	 114.006
| 18> H 	 -27.2842 	 55.6991 	 114.723
| 19> C 	 -26.5774 	 57.5893 	 114.857
| 20> H 	 -27.1824 	 57.9406 	 115.665
| 21> H 	 -25.6707 	 57.1155 	 115.305
| 22> H 	 -26.2906 	 58.4325 	 114.234
| 23> S 	 -26.8785 	 60.7692 	 108.719
| 24> C 	 -28.2625 	 61.3767 	 107.765
| 25> C 	 -29.3489 	 60.5612 	 107.869
| 26> C 	 -29.0722 	 59.4723 	 108.701
| 27> C 	 -27.7475 	 59.4072 	 109.148
| 28> H 	 -30.3315 	 60.7786 	 107.417
| 29> C 	 -30.2088 	 58.4923 	 108.982
| 30> H 	 -29.7814 	 57.5445 	 109.435
| 31> H 	 -30.6129 	 58.1658 	 108.071
| 32> C 	 -31.3288 	 58.9905 	 109.914
| 33> H 	 -32.1438 	 58.2126 	 109.924
| 34> H 	 -31.7271 	 59.7921 	 109.298
| 35> C 	 -31.055 	 59.3772 	 111.361
| 36> H 	 -32.0284 	 59.6884 	 111.87
| 37> H 	 -30.4107 	 60.196 	 111.29
| 38> H 	 -30.6493 	 58.5385 	 111.922
| 39> H 	 -24.2843 	 56.7526 	 111.769
| 40> H 	 -28.2369 	 62.3572 	 107.368
| 41> *
| 42>
| 43>                          ****END OF INPUT****

CARTESIAN COORDINATES (ANGSTROEM)
---------------------------------
  S    -25.189500   58.451300  109.968000
  C    -25.121600   57.198900  111.235000
  C    -26.386100   56.985600  111.741000
  C    -27.423300   57.786200  111.109000
  C    -26.955400   58.528200  110.011000
  H    -28.444500   57.889800  111.485000
  C    -26.648700   55.965600  112.825000
  H    -25.677300   55.494000  113.012000
  H    -27.070800   55.015700  112.456000
  C    -27.372500   56.479700  114.074000
  H    -28.461900   56.671900  114.006000
  H    -27.284200   55.699100  114.723000
  C    -26.577400   57.589300  114.857000
  H    -27.182400   57.940600  115.665000
  H    -25.670700   57.115500  115.305000
  H    -26.290600   58.432500  114.234000
  S    -26.878500   60.769200  108.719000
  C    -28.262500   61.376700  107.765000
  C    -29.348900   60.561200  107.869000
  C    -29.072200   59.472300  108.701000
  C    -27.747500   59.407200  109.148000
  H    -30.331500   60.778600  107.417000
  C    -30.208800   58.492300  108.982000
  H    -29.781400   57.544500  109.435000
  H    -30.612900   58.165800  108.071000
  C    -31.328800   58.990500  109.914000
  H    -32.143800   58.212600  109.924000
  H    -31.727100   59.792100  109.298000
  C    -31.055000   59.377200  111.361000
  H    -32.028400   59.688400  111.870000
  H    -30.410700   60.196000  111.290000
  H    -30.649300   58.538500  111.922000
  H    -24.284300   56.752600  111.769000
  H    -28.236900   62.357200  107.368000

 Total Charge           Charge          ....    0
 Multiplicity           Mult            ....    1
 Number of Electrons    NEL             ....  134
 Basis Dimension        Dim             ....  322

ORBITAL ENERGIES
----------------

  NO   OCC          E(Eh)            E(eV)
   0   2.0000     -88.967906     -2420.9398
   1   2.0000     -88.965578     -2420.8765
   2   2.0000     -10.336591      -281.2730
   3   2.0000     -10.326230      -280.9910
   4   2.0000     -10.315807      -280.7074
   5   2.0000     -10.315059      -280.6870
   6   2.0000     -10.302409      -280.3428
   7   2.0000     -10.300699      -280.2963
   8   2.0000     -10.296838      -280.1912
   9   2.0000     -10.296362      -280.1783
  10   2.0000     -10.294155      -280.1182
  11   2.0000     -10.289658      -279.9958
  12   2.0000     -10.288892      -279.9750
  13   2.0000     -10.285152      -279.8732
  14   2.0000     -10.280922      -279.7581
  15   2.0000     -10.277716      -279.6709
  16   2.0000      -8.081718      -219.9147
  17   2.0000      -8.081486      -219.9084
  18   2.0000      -6.040318      -164.3654
  19   2.0000      -6.040034      -164.3577
  20   2.0000      -6.036199      -164.2533
  21   2.0000      -6.036040      -164.2490
  22   2.0000      -6.032550      -164.1540
  23   2.0000      -6.031920      -164.1369
  24   2.0000      -1.014290       -27.6002
  25   2.0000      -0.981287       -26.7022
  26   2.0000      -0.913652       -24.8617
  27   2.0000      -0.907299       -24.6889
  28   2.0000      -0.875721       -23.8296
  29   2.0000      -0.849723       -23.1221
  30   2.0000      -0.839535       -22.8449
  31   2.0000      -0.817441       -22.2437
  32   2.0000      -0.783422       -21.3180
  33   2.0000      -0.776133       -21.1196
  34   2.0000      -0.712949       -19.4003
  35   2.0000      -0.697237       -18.9728
  36   2.0000      -0.691244       -18.8097
  37   2.0000      -0.667383       -18.1604
  38   2.0000      -0.633313       -17.2333
  39   2.0000      -0.619373       -16.8540
  40   2.0000      -0.599503       -16.3133
  41   2.0000      -0.567843       -15.4518
  42   2.0000      -0.554213       -15.0809
  43   2.0000      -0.549380       -14.9494
  44   2.0000      -0.547620       -14.9015
  45   2.0000      -0.540417       -14.7055
  46   2.0000      -0.518701       -14.1146
  47   2.0000      -0.510251       -13.8846
  48   2.0000      -0.504091       -13.7170
  49   2.0000      -0.497245       -13.5307
  50   2.0000      -0.493171       -13.4199
  51   2.0000      -0.477057       -12.9814
  52   2.0000      -0.472518       -12.8579
  53   2.0000      -0.467076       -12.7098
  54   2.0000      -0.456446       -12.4205
  55   2.0000      -0.453245       -12.3334
  56   2.0000      -0.445432       -12.1208
  57   2.0000      -0.442026       -12.0281
  58   2.0000      -0.435401       -11.8479
  59   2.0000      -0.420037       -11.4298
  60   2.0000      -0.415442       -11.3047
  61   2.0000      -0.410015       -11.1571
  62   2.0000      -0.407991       -11.1020
  63   2.0000      -0.360473        -9.8090
  64   2.0000      -0.333891        -9.0856
  65   2.0000      -0.324871        -8.8402
  66   2.0000      -0.285775        -7.7763
  67   0.0000       0.021089         0.5739
  68   0.0000       0.080385         2.1874
  69   0.0000       0.095085         2.5874
  70   0.0000       0.119942         3.2638
  71   0.0000       0.128585         3.4990

MULLIKEN ATOMIC CHARGES
-----------------------
   0 S :    0.096478
   1 C :   -0.104115
   2 C :   -0.106519
   3 C :    0.023736
   4 C :   -0.109412
   5 H :   -0.002775
   6 C :    0.061168
   7 H :   -0.009496
   8 H :    0.036790
   9 C :   -0.045502
  10 H :    0.042871
  11 H :    0.004900
  12 C :   -0.063148
  13 H :    0.029218
  14 H :    0.030972
  15 H :    0.049122
  16 S :    0.090063
  17 C :   -0.081006
  18 C :   -0.029990
  19 C :   -0.065059
  20 C :   -0.122341
  21 H :    0.035991
  22 C :    0.068397
  23 H :    0.019241
  24 H :    0.016137
  25 C :   -0.105672
  26 H :    0.029762
  27 H :    0.012932
  28 C :   -0.028893
  29 H :    0.046382
  30 H :    0.035730
  31 H :    0.047368
  32 H :    0.050952
  33 H :    0.045720
Sum of atomic charges:    0.0000000

LOEWDIN ATOMIC CHARGES
----------------------
   0 S :    0.378025
   1 C :   -0.198628
   2 C :   -0.061094
   3 C :   -0.067979
   4 C :   -0.182792
   5 H :    0.028919
   6 C :   -0.039562
   7 H :    0.029317
   8 H :    0.037460
   9 C :   -0.040452
  10 H :    0.028221
  11 H :    0.016272
  12 C :   -0.059829
  13 H :    0.022200
  14 H :    0.028994
  15 H :    0.024530
  16 S :    0.429444
  17 C :   -0.165901
  18 C :   -0.067002
  19 C :   -0.066591
  20 C :   -0.213150
  21 H :    0.041794
  22 C :   -0.032702
  23 H :    0.029816
  24 H :    0.024930
  25 C :   -0.045209
  26 H :    0.026139
  27 H :    0.017436
  28 C :   -0.061256
  29 H :    0.040040
  30 H :    0.020665
  31 H :    0.023802
  32 H :    0.035425
  33 H :    0.018718

  Mayer bond orders larger than 0.100000
B(  0-S ,  1-C ) :   1.1036 B(  0-S ,  4-C ) :   1.1409 B(  1-C ,  2-C ) :   1.6400
B(  1-C , 32-H ) :   0.9583 B(  2-C ,  3-C ) :   1.2207 B(  2-C ,  6-C ) :   1.0339
B(  3-C ,  4-C ) :   1.5695 B(  3-C ,  5-H ) :   0.9887 B(  4-C , 20-C ) :   1.0541
B(  6-C ,  7-H ) :   0.9288 B(  6-C ,  8-H ) :   0.9345 B(  6-C ,  9-C ) :   1.0689
B(  9-C , 10-H ) :   0.9580 B(  9-C , 11-H ) :   0.9491 B(  9-C , 12-C ) :   1.0656
B( 12-C , 13-H ) :   0.9756 B( 12-C , 14-H ) :   0.9781 B( 12-C , 15-H ) :   0.9799
B( 16-S , 17-C ) :   1.1570 B( 16-S , 20-C ) :   1.1697 B( 17-C , 18-C ) :   1.5806
B( 17-C , 20-C ) :   0.1004 B( 17-C , 33-H ) :   0.9749 B( 18-C , 19-C ) :   1.2674
B( 18-C , 21-H ) :   0.9868 B( 19-C , 20-C ) :   1.5608 B( 19-C , 22-C ) :   1.0359
B( 22-C , 23-H ) :   0.9350 B( 22-C , 24-H ) :   0.9344 B( 22-C , 25-C ) :   1.0708
B( 25-C , 26-H ) :   0.9545 B( 25-C , 27-H ) :   0.9551 B( 25-C , 28-C ) :   1.0782
B( 28-C , 29-H ) :   0.9683 B( 28-C , 30-H ) :   0.9756 B( 28-C , 31-H ) :   0.9640

Dispersion correction           -0.014968739
FINAL SINGLE POINT ENERGY     -1339.860836972858

DIPOLE MOMENT
-------------
                                X             Y             Z
Electronic contribution:     17.45271       9.87899     -20.13873
Nuclear contribution   :    -18.06434     -10.05619      20.58455
                        -----------------------------------------
Total Dipole Moment    :     -0.61163      -0.17721       0.44582
                        -----------------------------------------
Magnitude (a.u.)       :      0.77733
Magnitude (Debye)      :      1.97583

Rotational constants in cm-1:     0.018834     0.009665     0.007150
Rotational constants in MHz :   564.641508   289.763506   214.350345

                             ****ORCA TERMINATED NORMALLY****
TOTAL RUN TIME: 0 days 0 hours 0 minutes 31 seconds 473 msec
