                         Program Version 4.2.1 -  RELEASE  -
|  1> ! wB97X-D3 SP def2-SVP
|  2> %pal
|  3> nprocs 16
|  4> end
|  5>
|  6> * xyz 0 1
|  7> S 	 0.761338 	 5.01115 	 81.1351
|  8> C 	 2.2163 	 5.1405 	 80.1817
|  9> C 	 1.96769 	 5.74162 	 78.993
| 10> C 	 0.592018 	 6.04545 	 78.805
| 11> C 	 -0.233314 	 5.68694 	 79.9105
| 12> H 	 0.198129 	 6.45236 	 77.9142
| 13> C 	 2.95472 	 6.07316 	 77.9163
| 14> H 	 2.53469 	 5.79478 	 76.9563
| 15> H 	 3.87622 	 5.47532 	 78.0891
| 16> C 	 3.35413 	 7.66606 	 77.9007
| 17> H 	 2.48762 	 8.2227 	 77.7146
| 18> H 	 3.55436 	 7.9094 	 78.939
| 19> C 	 4.35291 	 7.98311 	 76.8705
| 20> H 	 4.7532 	 8.98138 	 76.8365
| 21> H 	 5.05898 	 7.19312 	 77.054
| 22> H 	 4.04071 	 7.76642 	 75.9262
| 23> S 	 -2.50017 	 4.22576 	 80.4624
| 24> C 	 -4.08026 	 5.04028 	 80.4509
| 25> C 	 -3.93835 	 6.37589 	 80.1466
| 26> C 	 -2.60746 	 6.74032 	 79.8286
| 27> C 	 -1.68144 	 5.72141 	 79.9826
| 28> H 	 -4.84985 	 6.95479 	 80.1783
| 29> C 	 -2.21483 	 8.16968 	 79.491
| 30> H 	 -1.18952 	 8.33946 	 79.8099
| 31> H 	 -2.81113 	 8.79202 	 80.0902
| 32> C 	 -2.39162 	 8.54155 	 78.0562
| 33> H 	 -3.30585 	 8.0593 	 77.6382
| 34> H 	 -1.61137 	 7.9887 	 77.4684
| 35> C 	 -2.45824 	 10.0345 	 77.8571
| 36> H 	 -2.48822 	 10.314 	 76.8182
| 37> H 	 -1.52509 	 10.5119 	 78.1758
| 38> H 	 -3.21898 	 10.4932 	 78.4909
| 39> H 	 3.2225 	 4.79747 	 80.3971
| 40> H 	 -4.93646 	 4.49602 	 80.7417
| 41> *
| 42>
| 43>                          ****END OF INPUT****

CARTESIAN COORDINATES (ANGSTROEM)
---------------------------------
  S      0.761338    5.011150   81.135100
  C      2.216300    5.140500   80.181700
  C      1.967690    5.741620   78.993000
  C      0.592018    6.045450   78.805000
  C     -0.233314    5.686940   79.910500
  H      0.198129    6.452360   77.914200
  C      2.954720    6.073160   77.916300
  H      2.534690    5.794780   76.956300
  H      3.876220    5.475320   78.089100
  C      3.354130    7.666060   77.900700
  H      2.487620    8.222700   77.714600
  H      3.554360    7.909400   78.939000
  C      4.352910    7.983110   76.870500
  H      4.753200    8.981380   76.836500
  H      5.058980    7.193120   77.054000
  H      4.040710    7.766420   75.926200
  S     -2.500170    4.225760   80.462400
  C     -4.080260    5.040280   80.450900
  C     -3.938350    6.375890   80.146600
  C     -2.607460    6.740320   79.828600
  C     -1.681440    5.721410   79.982600
  H     -4.849850    6.954790   80.178300
  C     -2.214830    8.169680   79.491000
  H     -1.189520    8.339460   79.809900
  H     -2.811130    8.792020   80.090200
  C     -2.391620    8.541550   78.056200
  H     -3.305850    8.059300   77.638200
  H     -1.611370    7.988700   77.468400
  C     -2.458240   10.034500   77.857100
  H     -2.488220   10.314000   76.818200
  H     -1.525090   10.511900   78.175800
  H     -3.218980   10.493200   78.490900
  H      3.222500    4.797470   80.397100
  H     -4.936460    4.496020   80.741700

 Total Charge           Charge          ....    0
 Multiplicity           Mult            ....    1
 Number of Electrons    NEL             ....  134
 Basis Dimension        Dim             ....  322

ORBITAL ENERGIES
----------------

  NO   OCC          E(Eh)            E(eV)
   0   2.0000     -88.969088     -2420.9720
   1   2.0000     -88.961846     -2420.7749
   2   2.0000     -10.331579      -281.1366
   3   2.0000     -10.327924      -281.0371
   4   2.0000     -10.317948      -280.7656
   5   2.0000     -10.310794      -280.5710
   6   2.0000     -10.303484      -280.3721
   7   2.0000     -10.298423      -280.2343
   8   2.0000     -10.295942      -280.1668
   9   2.0000     -10.294855      -280.1372
  10   2.0000     -10.291944      -280.0580
  11   2.0000     -10.286028      -279.8971
  12   2.0000     -10.283053      -279.8161
  13   2.0000     -10.280822      -279.7554
  14   2.0000     -10.277184      -279.6564
  15   2.0000     -10.265579      -279.3406
  16   2.0000      -8.084083      -219.9791
  17   2.0000      -8.076240      -219.7657
  18   2.0000      -6.042635      -164.4285
  19   2.0000      -6.038397      -164.3131
  20   2.0000      -6.034921      -164.2185
  21   2.0000      -6.034771      -164.2145
  22   2.0000      -6.030760      -164.1053
  23   2.0000      -6.027030      -164.0038
  24   2.0000      -1.008265       -27.4363
  25   2.0000      -0.985447       -26.8154
  26   2.0000      -0.915813       -24.9205
  27   2.0000      -0.912532       -24.8313
  28   2.0000      -0.876873       -23.8609
  29   2.0000      -0.854067       -23.2404
  30   2.0000      -0.848886       -23.0994
  31   2.0000      -0.814529       -22.1645
  32   2.0000      -0.782841       -21.3022
  33   2.0000      -0.773998       -21.0616
  34   2.0000      -0.712495       -19.3880
  35   2.0000      -0.706114       -19.2143
  36   2.0000      -0.697644       -18.9838
  37   2.0000      -0.666445       -18.1349
  38   2.0000      -0.639033       -17.3890
  39   2.0000      -0.621511       -16.9122
  40   2.0000      -0.599445       -16.3117
  41   2.0000      -0.574066       -15.6211
  42   2.0000      -0.567892       -15.4531
  43   2.0000      -0.561739       -15.2857
  44   2.0000      -0.536122       -14.5886
  45   2.0000      -0.524224       -14.2649
  46   2.0000      -0.522424       -14.2159
  47   2.0000      -0.517048       -14.0696
  48   2.0000      -0.508047       -13.8247
  49   2.0000      -0.504714       -13.7340
  50   2.0000      -0.500013       -13.6060
  51   2.0000      -0.482027       -13.1166
  52   2.0000      -0.472538       -12.8584
  53   2.0000      -0.464999       -12.6533
  54   2.0000      -0.460649       -12.5349
  55   2.0000      -0.452691       -12.3183
  56   2.0000      -0.446339       -12.1455
  57   2.0000      -0.440326       -11.9819
  58   2.0000      -0.433386       -11.7930
  59   2.0000      -0.424074       -11.5396
  60   2.0000      -0.417371       -11.3572
  61   2.0000      -0.415628       -11.3098
  62   2.0000      -0.408637       -11.1196
  63   2.0000      -0.345909        -9.4127
  64   2.0000      -0.333380        -9.0717
  65   2.0000      -0.328185        -8.9304
  66   2.0000      -0.293591        -7.9890
  67   0.0000       0.028348         0.7714
  68   0.0000       0.071659         1.9499
  69   0.0000       0.118342         3.2202
  70   0.0000       0.126261         3.4357
  71   0.0000       0.129512         3.5242

MULLIKEN ATOMIC CHARGES
-----------------------
   0 S :    0.128525
   1 C :   -0.115946
   2 C :   -0.085248
   3 C :    0.046433
   4 C :   -0.156037
   5 H :   -0.014068
   6 C :    0.027943
   7 H :    0.029042
   8 H :    0.023323
   9 C :   -0.064195
  10 H :    0.004925
  11 H :    0.026851
  12 C :    0.048223
  13 H :    0.041067
  14 H :    0.007335
  15 H :   -0.004405
  16 S :    0.086853
  17 C :   -0.093647
  18 C :   -0.022156
  19 C :   -0.034210
  20 C :   -0.153658
  21 H :    0.021929
  22 C :    0.110531
  23 H :    0.027128
  24 H :   -0.004397
  25 C :   -0.088160
  26 H :    0.026820
  27 H :    0.021191
  28 C :   -0.012273
  29 H :    0.031724
  30 H :    0.017030
  31 H :    0.034341
  32 H :    0.038343
  33 H :    0.048840
Sum of atomic charges:    0.0000000

LOEWDIN ATOMIC CHARGES
----------------------
   0 S :    0.432095
   1 C :   -0.204603
   2 C :   -0.070970
   3 C :   -0.055335
   4 C :   -0.207124
   5 H :    0.018668
   6 C :   -0.025046
   7 H :    0.027595
   8 H :    0.028432
   9 C :   -0.029000
  10 H :    0.011246
  11 H :    0.024329
  12 C :   -0.058470
  13 H :    0.030081
  14 H :    0.027254
  15 H :    0.014355
  16 S :    0.380889
  17 C :   -0.161579
  18 C :   -0.069959
  19 C :   -0.050761
  20 C :   -0.193176
  21 H :    0.035515
  22 C :   -0.025460
  23 H :    0.031305
  24 H :    0.020323
  25 C :   -0.048175
  26 H :    0.025325
  27 H :    0.024691
  28 C :   -0.064342
  29 H :    0.026228
  30 H :    0.025800
  31 H :    0.027794
  32 H :    0.032018
  33 H :    0.020052

  Mayer bond orders larger than 0.100000
B(  0-S ,  1-C ) :   1.1319 B(  0-S ,  4-C ) :   1.1751 B(  1-C ,  2-C ) :   1.6070
B(  1-C , 32-H ) :   0.9632 B(  2-C ,  3-C ) :   1.2657 B(  2-C ,  6-C ) :   1.0394
B(  3-C ,  4-C ) :   1.5160 B(  3-C ,  5-H ) :   1.0011 B(  4-C , 20-C ) :   1.0540
B(  6-C ,  7-H ) :   0.9400 B(  6-C ,  8-H ) :   0.9407 B(  6-C ,  9-C ) :   1.0438
B(  9-C , 10-H ) :   0.9547 B(  9-C , 11-H ) :   0.9582 B(  9-C , 12-C ) :   1.0795
B( 12-C , 13-H ) :   0.9703 B( 12-C , 14-H ) :   0.9688 B( 12-C , 15-H ) :   0.9642
B( 16-S , 17-C ) :   1.1541 B( 16-S , 20-C ) :   1.1325 B( 17-C , 18-C ) :   1.6014
B( 17-C , 20-C ) :   0.1022 B( 17-C , 33-H ) :   0.9755 B( 18-C , 19-C ) :   1.2267
B( 18-C , 21-H ) :   0.9977 B( 19-C , 20-C ) :   1.5981 B( 19-C , 22-C ) :   1.0451
B( 22-C , 23-H ) :   0.9238 B( 22-C , 24-H ) :   0.9331 B( 22-C , 25-C ) :   1.0601
B( 25-C , 26-H ) :   0.9567 B( 25-C , 27-H ) :   0.9444 B( 25-C , 28-C ) :   1.0830
B( 28-C , 29-H ) :   0.9715 B( 28-C , 30-H ) :   0.9686 B( 28-C , 31-H ) :   0.9730

Dispersion correction           -0.013994184
FINAL SINGLE POINT ENERGY     -1339.876138760690

DIPOLE MOMENT
-------------
                                X             Y             Z
Electronic contribution:    -10.43133     -23.26064      18.87750
Nuclear contribution   :     10.45988      23.77114     -19.27859
                        -----------------------------------------
Total Dipole Moment    :      0.02854       0.51051      -0.40109
                        -----------------------------------------
Magnitude (a.u.)       :      0.64985
Magnitude (Debye)      :      1.65179

Rotational constants in cm-1:     0.017524     0.009061     0.006353
Rotational constants in MHz :   525.343368   271.633477   190.452556

                             ****ORCA TERMINATED NORMALLY****
TOTAL RUN TIME: 0 days 0 hours 0 minutes 35 seconds 210 msec
