                         Program Version 4.2.1 -  RELEASE  -
|  1> ! wB97X-D3 SP def2-SVP
|  2> %pal
|  3> nprocs 16
|  4> end
|  5>
|  6> * xyz 0 1
|  7> S 	 -30.2126 	 65.8263 	 100.27
|  8> C 	 -31.5639 	 66.7556 	 101.024
|  9> C 	 -31.5698 	 68.1007 	 100.598
| 10> C 	 -30.6372 	 68.3328 	 99.5477
| 11> C 	 -29.8861 	 67.1684 	 99.2034
| 12> H 	 -30.5693 	 69.2765 	 99.0718
| 13> C 	 -32.4077 	 69.231 	 101.168
| 14> H 	 -33.1767 	 68.8704 	 101.824
| 15> H 	 -32.8682 	 69.5856 	 100.247
| 16> C 	 -31.6318 	 70.3337 	 101.769
| 17> H 	 -30.8239 	 70.6879 	 101.076
| 18> H 	 -32.3486 	 71.1476 	 101.886
| 19> C 	 -31.1633 	 69.9511 	 103.252
| 20> H 	 -31.791 	 69.1923 	 103.755
| 21> H 	 -30.1254 	 69.6266 	 103.334
| 22> H 	 -31.2677 	 70.8752 	 103.814
| 23> S 	 -28.9413 	 65.5998 	 97.1556
| 24> C 	 -27.7243 	 66.3154 	 96.1365
| 25> C 	 -27.3705 	 67.6271 	 96.4252
| 26> C 	 -28.1409 	 68.0796 	 97.5724
| 27> C 	 -28.9813 	 67.0827 	 98.1516
| 28> H 	 -26.5752 	 68.1172 	 95.9117
| 29> C 	 -27.8299 	 69.3689 	 98.1939
| 30> H 	 -28.6686 	 69.858 	 98.665
| 31> H 	 -27.5272 	 70.1241 	 97.5255
| 32> C 	 -26.7003 	 69.2528 	 99.1783
| 33> H 	 -26.5662 	 70.2149 	 99.5653
| 34> H 	 -25.8465 	 69.056 	 98.5052
| 35> C 	 -26.8485 	 68.2897 	 100.321
| 36> H 	 -27.7404 	 68.509 	 100.834
| 37> H 	 -25.9497 	 68.4207 	 100.946
| 38> H 	 -26.8531 	 67.265 	 100.011
| 39> H 	 -32.2569 	 66.4349 	 101.897
| 40> H 	 -27.1597 	 65.7007 	 95.4706
| 41> *
| 42>
| 43>                          ****END OF INPUT****

CARTESIAN COORDINATES (ANGSTROEM)
---------------------------------
  S    -30.212600   65.826300  100.270000
  C    -31.563900   66.755600  101.024000
  C    -31.569800   68.100700  100.598000
  C    -30.637200   68.332800   99.547700
  C    -29.886100   67.168400   99.203400
  H    -30.569300   69.276500   99.071800
  C    -32.407700   69.231000  101.168000
  H    -33.176700   68.870400  101.824000
  H    -32.868200   69.585600  100.247000
  C    -31.631800   70.333700  101.769000
  H    -30.823900   70.687900  101.076000
  H    -32.348600   71.147600  101.886000
  C    -31.163300   69.951100  103.252000
  H    -31.791000   69.192300  103.755000
  H    -30.125400   69.626600  103.334000
  H    -31.267700   70.875200  103.814000
  S    -28.941300   65.599800   97.155600
  C    -27.724300   66.315400   96.136500
  C    -27.370500   67.627100   96.425200
  C    -28.140900   68.079600   97.572400
  C    -28.981300   67.082700   98.151600
  H    -26.575200   68.117200   95.911700
  C    -27.829900   69.368900   98.193900
  H    -28.668600   69.858000   98.665000
  H    -27.527200   70.124100   97.525500
  C    -26.700300   69.252800   99.178300
  H    -26.566200   70.214900   99.565300
  H    -25.846500   69.056000   98.505200
  C    -26.848500   68.289700  100.321000
  H    -27.740400   68.509000  100.834000
  H    -25.949700   68.420700  100.946000
  H    -26.853100   67.265000  100.011000
  H    -32.256900   66.434900  101.897000
  H    -27.159700   65.700700   95.470600

 Total Charge           Charge          ....    0
 Multiplicity           Mult            ....    1
 Number of Electrons    NEL             ....  134
 Basis Dimension        Dim             ....  322

ORBITAL ENERGIES
----------------

  NO   OCC          E(Eh)            E(eV)
   0   2.0000     -88.971856     -2421.0473
   1   2.0000     -88.966389     -2420.8985
   2   2.0000     -10.330140      -281.0974
   3   2.0000     -10.325350      -280.9671
   4   2.0000     -10.322937      -280.9014
   5   2.0000     -10.316400      -280.7235
   6   2.0000     -10.306293      -280.4485
   7   2.0000     -10.301583      -280.3203
   8   2.0000     -10.297744      -280.2159
   9   2.0000     -10.294750      -280.1344
  10   2.0000     -10.293197      -280.0921
  11   2.0000     -10.288164      -279.9552
  12   2.0000     -10.282634      -279.8047
  13   2.0000     -10.276094      -279.6267
  14   2.0000     -10.273437      -279.5544
  15   2.0000     -10.262277      -279.2508
  16   2.0000      -8.085255      -220.0110
  17   2.0000      -8.080790      -219.8895
  18   2.0000      -6.043834      -164.4611
  19   2.0000      -6.040069      -164.3586
  20   2.0000      -6.039293      -164.3375
  21   2.0000      -6.035899      -164.2452
  22   2.0000      -6.035357      -164.2304
  23   2.0000      -6.031563      -164.1272
  24   2.0000      -1.002493       -27.2792
  25   2.0000      -0.974814       -26.5260
  26   2.0000      -0.921264       -25.0689
  27   2.0000      -0.918248       -24.9868
  28   2.0000      -0.868668       -23.6376
  29   2.0000      -0.849785       -23.1238
  30   2.0000      -0.841727       -22.9045
  31   2.0000      -0.806528       -21.9467
  32   2.0000      -0.789148       -21.4738
  33   2.0000      -0.774147       -21.0656
  34   2.0000      -0.714447       -19.4411
  35   2.0000      -0.695762       -18.9326
  36   2.0000      -0.690349       -18.7854
  37   2.0000      -0.660268       -17.9668
  38   2.0000      -0.628410       -17.0999
  39   2.0000      -0.627331       -17.0705
  40   2.0000      -0.603724       -16.4282
  41   2.0000      -0.565529       -15.3888
  42   2.0000      -0.558126       -15.1874
  43   2.0000      -0.551537       -15.0081
  44   2.0000      -0.547751       -14.9051
  45   2.0000      -0.540162       -14.6986
  46   2.0000      -0.517219       -14.0742
  47   2.0000      -0.509764       -13.8714
  48   2.0000      -0.500666       -13.6238
  49   2.0000      -0.498421       -13.5627
  50   2.0000      -0.486275       -13.2322
  51   2.0000      -0.475554       -12.9405
  52   2.0000      -0.466034       -12.6814
  53   2.0000      -0.461603       -12.5609
  54   2.0000      -0.459282       -12.4977
  55   2.0000      -0.454201       -12.3594
  56   2.0000      -0.448267       -12.1980
  57   2.0000      -0.442255       -12.0344
  58   2.0000      -0.431758       -11.7487
  59   2.0000      -0.424974       -11.5641
  60   2.0000      -0.419030       -11.4024
  61   2.0000      -0.413040       -11.2394
  62   2.0000      -0.411367       -11.1939
  63   2.0000      -0.349485        -9.5100
  64   2.0000      -0.330760        -9.0004
  65   2.0000      -0.330195        -8.9851
  66   2.0000      -0.274548        -7.4708
  67   0.0000       0.013228         0.3599
  68   0.0000       0.076805         2.0900
  69   0.0000       0.098274         2.6742
  70   0.0000       0.109794         2.9876
  71   0.0000       0.127707         3.4751

MULLIKEN ATOMIC CHARGES
-----------------------
   0 S :    0.114211
   1 C :   -0.155796
   2 C :   -0.093009
   3 C :    0.010372
   4 C :   -0.140495
   5 H :    0.004112
   6 C :    0.076887
   7 H :    0.015550
   8 H :    0.027852
   9 C :   -0.076982
  10 H :    0.039856
  11 H :    0.031796
  12 C :   -0.062714
  13 H :    0.033208
  14 H :    0.047671
  15 H :    0.031580
  16 S :    0.106918
  17 C :   -0.079846
  18 C :   -0.021032
  19 C :   -0.040752
  20 C :   -0.139498
  21 H :    0.018224
  22 C :    0.084255
  23 H :   -0.006559
  24 H :    0.000680
  25 C :   -0.060213
  26 H :    0.006675
  27 H :    0.011541
  28 C :   -0.001542
  29 H :    0.027038
  30 H :    0.032124
  31 H :    0.035719
  32 H :    0.072464
  33 H :    0.049703
Sum of atomic charges:    0.0000000

LOEWDIN ATOMIC CHARGES
----------------------
   0 S :    0.393197
   1 C :   -0.214786
   2 C :   -0.056810
   3 C :   -0.059974
   4 C :   -0.191403
   5 H :    0.021012
   6 C :   -0.033505
   7 H :    0.025557
   8 H :    0.034471
   9 C :   -0.038766
  10 H :    0.029718
  11 H :    0.026099
  12 C :   -0.067033
  13 H :    0.027236
  14 H :    0.028131
  15 H :    0.026004
  16 S :    0.395185
  17 C :   -0.176947
  18 C :   -0.062949
  19 C :   -0.039298
  20 C :   -0.198635
  21 H :    0.031655
  22 C :   -0.040406
  23 H :    0.020950
  24 H :    0.027214
  25 C :   -0.029720
  26 H :    0.015111
  27 H :    0.021748
  28 C :   -0.056097
  29 H :    0.021006
  30 H :    0.031768
  31 H :    0.023732
  32 H :    0.046059
  33 H :    0.020474

  Mayer bond orders larger than 0.100000
B(  0-S ,  1-C ) :   1.1100 B(  0-S ,  4-C ) :   1.1505 B(  1-C ,  2-C ) :   1.6089
B(  1-C ,  4-C ) :   0.1009 B(  1-C , 32-H ) :   0.9533 B(  2-C ,  3-C ) :   1.2634
B(  2-C ,  6-C ) :   1.0137 B(  3-C ,  4-C ) :   1.5095 B(  3-C ,  5-H ) :   0.9914
B(  4-C , 20-C ) :   1.1453 B(  6-C ,  7-H ) :   0.9423 B(  6-C ,  8-H ) :   0.9298
B(  6-C ,  9-C ) :   1.0963 B(  9-C , 10-H ) :   0.9523 B(  9-C , 11-H ) :   0.9582
B(  9-C , 12-C ) :   1.0446 B( 12-C , 13-H ) :   0.9797 B( 12-C , 14-H ) :   0.9791
B( 12-C , 15-H ) :   0.9801 B( 16-S , 17-C ) :   1.1626 B( 16-S , 20-C ) :   1.1117
B( 17-C , 18-C ) :   1.6046 B( 17-C , 20-C ) :   0.1007 B( 17-C , 33-H ) :   0.9647
B( 18-C , 19-C ) :   1.2270 B( 18-C , 21-H ) :   0.9964 B( 19-C , 20-C ) :   1.5518
B( 19-C , 22-C ) :   1.0753 B( 22-C , 23-H ) :   0.9234 B( 22-C , 24-H ) :   0.9166
B( 22-C , 25-C ) :   1.0851 B( 25-C , 26-H ) :   0.9489 B( 25-C , 27-H ) :   0.9504
B( 25-C , 28-C ) :   1.0929 B( 28-C , 29-H ) :   0.9694 B( 28-C , 30-H ) :   0.9688
B( 28-C , 31-H ) :   0.9677

Dispersion correction           -0.016223816
FINAL SINGLE POINT ENERGY     -1339.862955197455

DIPOLE MOMENT
-------------
                                X             Y             Z
Electronic contribution:     -2.29042     -22.59762     -15.24388
Nuclear contribution   :      2.40834      23.35337      15.41906
                        -----------------------------------------
Total Dipole Moment    :      0.11792       0.75574       0.17519
                        -----------------------------------------
Magnitude (a.u.)       :      0.78469
Magnitude (Debye)      :      1.99453

Rotational constants in cm-1:     0.022029     0.009538     0.007791
Rotational constants in MHz :   660.405760   285.935461   233.582778

                             ****ORCA TERMINATED NORMALLY****
TOTAL RUN TIME: 0 days 0 hours 0 minutes 33 seconds 409 msec
