                         Program Version 4.2.1 -  RELEASE  -
|  1> ! wB97X-D3 SP def2-SVP
|  2> %pal
|  3> nprocs 16
|  4> end
|  5>
|  6> * xyz 0 1
|  7> S 	 40.9383 	 17.9955 	 48.091
|  8> C 	 41.6044 	 17.729 	 46.5119
|  9> C 	 42.6455 	 18.6192 	 46.2546
| 10> C 	 42.9074 	 19.4738 	 47.3487
| 11> C 	 42.0293 	 19.37 	 48.3574
| 12> H 	 43.6792 	 20.1535 	 47.3594
| 13> C 	 43.5398 	 18.7294 	 45.0269
| 14> H 	 44.0002 	 17.8025 	 44.7318
| 15> H 	 44.4258 	 19.2118 	 45.2088
| 16> C 	 42.8137 	 19.3742 	 43.7894
| 17> H 	 42.6863 	 20.4146 	 43.974
| 18> H 	 43.5892 	 19.2991 	 43.0811
| 19> C 	 41.5559 	 18.6726 	 43.224
| 20> H 	 41.2608 	 19.1604 	 42.2633
| 21> H 	 41.7815 	 17.6057 	 43.0145
| 22> H 	 40.8045 	 18.7633 	 43.9832
| 23> S 	 43.4219 	 20.4499 	 50.4253
| 24> C 	 42.7078 	 21.795 	 51.2316
| 25> C 	 41.3935 	 21.9796 	 51.0356
| 26> C 	 40.894 	 21.0346 	 50.0707
| 27> C 	 41.9502 	 20.2557 	 49.5201
| 28> H 	 40.83 	 22.7777 	 51.5499
| 29> C 	 39.4953 	 21.2094 	 49.5547
| 30> H 	 38.7907 	 21.4286 	 50.4017
| 31> H 	 39.1618 	 20.248 	 49.1194
| 32> C 	 39.3277 	 22.2848 	 48.4844
| 33> H 	 39.87 	 23.1811 	 48.6256
| 34> H 	 38.2918 	 22.529 	 48.3965
| 35> C 	 39.636 	 21.8775 	 47.1025
| 36> H 	 40.7173 	 21.756 	 47.0674
| 37> H 	 39.2744 	 22.6163 	 46.3743
| 38> H 	 39.183 	 20.8735 	 46.9227
| 39> H 	 41.2666 	 17.0096 	 45.7748
| 40> H 	 43.3206 	 22.3623 	 51.9607
| 41> *
| 42>
| 43>                          ****END OF INPUT****

CARTESIAN COORDINATES (ANGSTROEM)
---------------------------------
  S     40.938300   17.995500   48.091000
  C     41.604400   17.729000   46.511900
  C     42.645500   18.619200   46.254600
  C     42.907400   19.473800   47.348700
  C     42.029300   19.370000   48.357400
  H     43.679200   20.153500   47.359400
  C     43.539800   18.729400   45.026900
  H     44.000200   17.802500   44.731800
  H     44.425800   19.211800   45.208800
  C     42.813700   19.374200   43.789400
  H     42.686300   20.414600   43.974000
  H     43.589200   19.299100   43.081100
  C     41.555900   18.672600   43.224000
  H     41.260800   19.160400   42.263300
  H     41.781500   17.605700   43.014500
  H     40.804500   18.763300   43.983200
  S     43.421900   20.449900   50.425300
  C     42.707800   21.795000   51.231600
  C     41.393500   21.979600   51.035600
  C     40.894000   21.034600   50.070700
  C     41.950200   20.255700   49.520100
  H     40.830000   22.777700   51.549900
  C     39.495300   21.209400   49.554700
  H     38.790700   21.428600   50.401700
  H     39.161800   20.248000   49.119400
  C     39.327700   22.284800   48.484400
  H     39.870000   23.181100   48.625600
  H     38.291800   22.529000   48.396500
  C     39.636000   21.877500   47.102500
  H     40.717300   21.756000   47.067400
  H     39.274400   22.616300   46.374300
  H     39.183000   20.873500   46.922700
  H     41.266600   17.009600   45.774800
  H     43.320600   22.362300   51.960700

 Total Charge           Charge          ....    0
 Multiplicity           Mult            ....    1
 Number of Electrons    NEL             ....  134
 Basis Dimension        Dim             ....  322

ORBITAL ENERGIES
----------------

  NO   OCC          E(Eh)            E(eV)
   0   2.0000     -88.967084     -2420.9174
   1   2.0000     -88.965568     -2420.8762
   2   2.0000     -10.328182      -281.0441
   3   2.0000     -10.325750      -280.9780
   4   2.0000     -10.313693      -280.6499
   5   2.0000     -10.312340      -280.6130
   6   2.0000     -10.306504      -280.4542
   7   2.0000     -10.297596      -280.2118
   8   2.0000     -10.292812      -280.0817
   9   2.0000     -10.292258      -280.0666
  10   2.0000     -10.284743      -279.8621
  11   2.0000     -10.281891      -279.7845
  12   2.0000     -10.281048      -279.7615
  13   2.0000     -10.280144      -279.7369
  14   2.0000     -10.268761      -279.4272
  15   2.0000     -10.266104      -279.3549
  16   2.0000      -8.081278      -219.9028
  17   2.0000      -8.081210      -219.9009
  18   2.0000      -6.039815      -164.3517
  19   2.0000      -6.039544      -164.3443
  20   2.0000      -6.035847      -164.2438
  21   2.0000      -6.035733      -164.2407
  22   2.0000      -6.032064      -164.1408
  23   2.0000      -6.031958      -164.1379
  24   2.0000      -1.009442       -27.4683
  25   2.0000      -0.988098       -26.8875
  26   2.0000      -0.915196       -24.9037
  27   2.0000      -0.907068       -24.6826
  28   2.0000      -0.871360       -23.7109
  29   2.0000      -0.853337       -23.2205
  30   2.0000      -0.849216       -23.1083
  31   2.0000      -0.814207       -22.1557
  32   2.0000      -0.787263       -21.4225
  33   2.0000      -0.770099       -20.9555
  34   2.0000      -0.701693       -19.0940
  35   2.0000      -0.699105       -19.0236
  36   2.0000      -0.684686       -18.6313
  37   2.0000      -0.660642       -17.9770
  38   2.0000      -0.642310       -17.4781
  39   2.0000      -0.623524       -16.9670
  40   2.0000      -0.603040       -16.4096
  41   2.0000      -0.573208       -15.5978
  42   2.0000      -0.557675       -15.1751
  43   2.0000      -0.547361       -14.8944
  44   2.0000      -0.541480       -14.7344
  45   2.0000      -0.534820       -14.5532
  46   2.0000      -0.518302       -14.1037
  47   2.0000      -0.511290       -13.9129
  48   2.0000      -0.500424       -13.6172
  49   2.0000      -0.494007       -13.4426
  50   2.0000      -0.492164       -13.3925
  51   2.0000      -0.479603       -13.0507
  52   2.0000      -0.475289       -12.9333
  53   2.0000      -0.464316       -12.6347
  54   2.0000      -0.459445       -12.5021
  55   2.0000      -0.445605       -12.1255
  56   2.0000      -0.441561       -12.0155
  57   2.0000      -0.436860       -11.8876
  58   2.0000      -0.433874       -11.8063
  59   2.0000      -0.425218       -11.5708
  60   2.0000      -0.420198       -11.4342
  61   2.0000      -0.412320       -11.2198
  62   2.0000      -0.405730       -11.0405
  63   2.0000      -0.346594        -9.4313
  64   2.0000      -0.335969        -9.1422
  65   2.0000      -0.326338        -8.8801
  66   2.0000      -0.290903        -7.9159
  67   0.0000       0.030969         0.8427
  68   0.0000       0.074999         2.0408
  69   0.0000       0.104020         2.8305
  70   0.0000       0.121786         3.3140
  71   0.0000       0.127170         3.4605

MULLIKEN ATOMIC CHARGES
-----------------------
   0 S :    0.117281
   1 C :   -0.125408
   2 C :   -0.083371
   3 C :    0.054101
   4 C :   -0.130049
   5 H :   -0.024643
   6 C :    0.098368
   7 H :    0.012944
   8 H :   -0.012488
   9 C :   -0.059321
  10 H :    0.025751
  11 H :    0.010301
  12 C :   -0.057480
  13 H :    0.046812
  14 H :    0.032313
  15 H :    0.043906
  16 S :    0.119903
  17 C :   -0.098382
  18 C :   -0.038632
  19 C :   -0.020015
  20 C :   -0.185014
  21 H :    0.033369
  22 C :    0.049167
  23 H :    0.034921
  24 H :    0.016074
  25 C :   -0.026448
  26 H :    0.013412
  27 H :    0.012494
  28 C :   -0.059354
  29 H :    0.029327
  30 H :    0.038753
  31 H :    0.023639
  32 H :    0.048376
  33 H :    0.059391
Sum of atomic charges:    0.0000000

LOEWDIN ATOMIC CHARGES
----------------------
   0 S :    0.405473
   1 C :   -0.202992
   2 C :   -0.059050
   3 C :   -0.054853
   4 C :   -0.188243
   5 H :    0.016727
   6 C :   -0.026545
   7 H :    0.028636
   8 H :    0.019812
   9 C :   -0.029894
  10 H :    0.019460
  11 H :    0.015715
  12 C :   -0.064739
  13 H :    0.034633
  14 H :    0.026648
  15 H :    0.021288
  16 S :    0.422042
  17 C :   -0.191538
  18 C :   -0.074229
  19 C :   -0.052575
  20 C :   -0.202624
  21 H :    0.041504
  22 C :   -0.036264
  23 H :    0.038806
  24 H :    0.025841
  25 C :   -0.041849
  26 H :    0.018700
  27 H :    0.020846
  28 C :   -0.062850
  29 H :    0.022000
  30 H :    0.027388
  31 H :    0.023921
  32 H :    0.029384
  33 H :    0.029420

  Mayer bond orders larger than 0.100000
B(  0-S ,  1-C ) :   1.1369 B(  0-S ,  4-C ) :   1.1380 B(  1-C ,  2-C ) :   1.6059
B(  1-C , 32-H ) :   0.9662 B(  2-C ,  3-C ) :   1.2531 B(  2-C ,  6-C ) :   1.0205
B(  3-C ,  4-C ) :   1.5698 B(  3-C ,  5-H ) :   1.0098 B(  4-C , 20-C ) :   1.0346
B(  6-C ,  7-H ) :   0.9363 B(  6-C ,  8-H ) :   0.9335 B(  6-C ,  9-C ) :   1.0708
B(  9-C , 10-H ) :   0.9578 B(  9-C , 11-H ) :   0.9543 B(  9-C , 12-C ) :   1.0789
B( 12-C , 13-H ) :   0.9717 B( 12-C , 14-H ) :   0.9743 B( 12-C , 15-H ) :   0.9728
B( 16-S , 17-C ) :   1.1527 B( 16-S , 20-C ) :   1.1561 B( 17-C , 18-C ) :   1.6340
B( 17-C , 33-H ) :   0.9600 B( 18-C , 19-C ) :   1.2180 B( 18-C , 21-H ) :   0.9903
B( 19-C , 20-C ) :   1.5700 B( 19-C , 22-C ) :   1.0680 B( 22-C , 23-H ) :   0.9313
B( 22-C , 24-H ) :   0.9286 B( 22-C , 25-C ) :   1.0691 B( 25-C , 26-H ) :   0.9530
B( 25-C , 27-H ) :   0.9499 B( 25-C , 28-C ) :   1.0921 B( 28-C , 29-H ) :   0.9752
B( 28-C , 30-H ) :   0.9715 B( 28-C , 31-H ) :   0.9702

Dispersion correction           -0.016031504
FINAL SINGLE POINT ENERGY     -1339.872062737067

DIPOLE MOMENT
-------------
                                X             Y             Z
Electronic contribution:      7.78231      -7.33392      22.58109
Nuclear contribution   :     -7.72069       7.71441     -22.92871
                        -----------------------------------------
Total Dipole Moment    :      0.06162       0.38049      -0.34763
                        -----------------------------------------
Magnitude (a.u.)       :      0.51905
Magnitude (Debye)      :      1.31932

Rotational constants in cm-1:     0.021569     0.008910     0.007803
Rotational constants in MHz :   646.618249   267.122093   233.929941

                             ****ORCA TERMINATED NORMALLY****
TOTAL RUN TIME: 0 days 0 hours 0 minutes 38 seconds 974 msec
