                         Program Version 4.2.1 -  RELEASE  -
|  1> ! wB97X-D3 SP def2-SVP
|  2> %pal
|  3> nprocs 16
|  4> end
|  5>
|  6> * xyz 0 1
|  7> S 	 -1.7875 	 25.0548 	 34.8785
|  8> C 	 -1.79797 	 25.8459 	 33.2984
|  9> C 	 -0.854477 	 25.299 	 32.4353
| 10> C 	 0.0109238 	 24.3692 	 33.0914
| 11> C 	 -0.391949 	 24.0217 	 34.3849
| 12> H 	 0.95441 	 23.8673 	 32.7252
| 13> C 	 -0.631681 	 25.7192 	 30.9635
| 14> H 	 0.434147 	 25.7141 	 30.6025
| 15> H 	 -0.734664 	 26.7912 	 31.0411
| 16> C 	 -1.58412 	 25.0973 	 30.0033
| 17> H 	 -1.46682 	 24.0396 	 30.1753
| 18> H 	 -2.62642 	 25.2945 	 30.312
| 19> C 	 -1.41886 	 25.4067 	 28.4954
| 20> H 	 -1.48127 	 26.4769 	 28.3078
| 21> H 	 -0.398547 	 25.1539 	 28.2206
| 22> H 	 -2.06271 	 24.8058 	 27.8357
| 23> S 	 1.04518 	 23.3915 	 36.621
| 24> C 	 1.59875 	 21.8197 	 36.8196
| 25> C 	 1.0644 	 20.9814 	 35.8317
| 26> C 	 0.275476 	 21.5943 	 34.7863
| 27> C 	 0.160509 	 22.9231 	 35.1786
| 28> H 	 1.2388 	 19.9127 	 35.8842
| 29> C 	 -0.227168 	 20.8653 	 33.5358
| 30> H 	 0.582648 	 20.9068 	 32.7822
| 31> H 	 -1.19632 	 21.3956 	 33.2122
| 32> C 	 -0.721801 	 19.4171 	 33.6013
| 33> H 	 0.116497 	 18.7274 	 33.8315
| 34> H 	 -1.13131 	 19.0742 	 32.6504
| 35> C 	 -1.82685 	 19.0869 	 34.6968
| 36> H 	 -1.85735 	 19.9051 	 35.3667
| 37> H 	 -1.60543 	 18.1979 	 35.3209
| 38> H 	 -2.85878 	 18.9162 	 34.286
| 39> H 	 -2.56073 	 26.6247 	 32.9497
| 40> H 	 2.2448 	 21.548 	 37.5735
| 41> *
| 42>
| 43>                          ****END OF INPUT****

CARTESIAN COORDINATES (ANGSTROEM)
---------------------------------
  S     -1.787500   25.054800   34.878500
  C     -1.797970   25.845900   33.298400
  C     -0.854477   25.299000   32.435300
  C      0.010924   24.369200   33.091400
  C     -0.391949   24.021700   34.384900
  H      0.954410   23.867300   32.725200
  C     -0.631681   25.719200   30.963500
  H      0.434147   25.714100   30.602500
  H     -0.734664   26.791200   31.041100
  C     -1.584120   25.097300   30.003300
  H     -1.466820   24.039600   30.175300
  H     -2.626420   25.294500   30.312000
  C     -1.418860   25.406700   28.495400
  H     -1.481270   26.476900   28.307800
  H     -0.398547   25.153900   28.220600
  H     -2.062710   24.805800   27.835700
  S      1.045180   23.391500   36.621000
  C      1.598750   21.819700   36.819600
  C      1.064400   20.981400   35.831700
  C      0.275476   21.594300   34.786300
  C      0.160509   22.923100   35.178600
  H      1.238800   19.912700   35.884200
  C     -0.227168   20.865300   33.535800
  H      0.582648   20.906800   32.782200
  H     -1.196320   21.395600   33.212200
  C     -0.721801   19.417100   33.601300
  H      0.116497   18.727400   33.831500
  H     -1.131310   19.074200   32.650400
  C     -1.826850   19.086900   34.696800
  H     -1.857350   19.905100   35.366700
  H     -1.605430   18.197900   35.320900
  H     -2.858780   18.916200   34.286000
  H     -2.560730   26.624700   32.949700
  H      2.244800   21.548000   37.573500

 Total Charge           Charge          ....    0
 Multiplicity           Mult            ....    1
 Number of Electrons    NEL             ....  134
 Basis Dimension        Dim             ....  322

ORBITAL ENERGIES
----------------

  NO   OCC          E(Eh)            E(eV)
   0   2.0000     -88.968020     -2420.9429
   1   2.0000     -88.966297     -2420.8960
   2   2.0000     -10.328807      -281.0611
   3   2.0000     -10.327021      -281.0125
   4   2.0000     -10.321863      -280.8722
   5   2.0000     -10.312837      -280.6266
   6   2.0000     -10.310812      -280.5715
   7   2.0000     -10.308744      -280.5152
   8   2.0000     -10.304550      -280.4011
   9   2.0000     -10.297691      -280.2144
  10   2.0000     -10.295211      -280.1469
  11   2.0000     -10.294545      -280.1288
  12   2.0000     -10.292300      -280.0677
  13   2.0000     -10.283724      -279.8344
  14   2.0000     -10.280798      -279.7547
  15   2.0000     -10.279064      -279.7076
  16   2.0000      -8.084110      -219.9798
  17   2.0000      -8.079698      -219.8598
  18   2.0000      -6.042327      -164.4201
  19   2.0000      -6.038405      -164.3133
  20   2.0000      -6.038259      -164.3094
  21   2.0000      -6.035113      -164.2238
  22   2.0000      -6.034444      -164.2056
  23   2.0000      -6.030433      -164.0964
  24   2.0000      -1.006486       -27.3879
  25   2.0000      -0.978308       -26.6211
  26   2.0000      -0.909941       -24.7607
  27   2.0000      -0.907523       -24.6950
  28   2.0000      -0.866003       -23.5651
  29   2.0000      -0.849003       -23.1025
  30   2.0000      -0.840966       -22.8838
  31   2.0000      -0.806252       -21.9392
  32   2.0000      -0.786749       -21.4085
  33   2.0000      -0.772002       -21.0072
  34   2.0000      -0.704878       -19.1807
  35   2.0000      -0.699684       -19.0394
  36   2.0000      -0.694032       -18.8856
  37   2.0000      -0.656739       -17.8708
  38   2.0000      -0.634905       -17.2767
  39   2.0000      -0.609821       -16.5941
  40   2.0000      -0.597840       -16.2681
  41   2.0000      -0.566187       -15.4067
  42   2.0000      -0.559805       -15.2331
  43   2.0000      -0.551280       -15.0011
  44   2.0000      -0.540042       -14.6953
  45   2.0000      -0.525939       -14.3115
  46   2.0000      -0.518106       -14.0984
  47   2.0000      -0.508288       -13.8312
  48   2.0000      -0.500651       -13.6234
  49   2.0000      -0.493986       -13.4421
  50   2.0000      -0.491990       -13.3877
  51   2.0000      -0.475008       -12.9256
  52   2.0000      -0.468341       -12.7442
  53   2.0000      -0.460625       -12.5343
  54   2.0000      -0.459817       -12.5123
  55   2.0000      -0.446337       -12.1454
  56   2.0000      -0.442515       -12.0414
  57   2.0000      -0.439472       -11.9586
  58   2.0000      -0.436306       -11.8725
  59   2.0000      -0.426085       -11.5944
  60   2.0000      -0.421668       -11.4742
  61   2.0000      -0.407019       -11.0755
  62   2.0000      -0.406491       -11.0612
  63   2.0000      -0.336985        -9.1698
  64   2.0000      -0.334751        -9.1090
  65   2.0000      -0.328511        -8.9392
  66   2.0000      -0.295666        -8.0455
  67   0.0000       0.034689         0.9439
  68   0.0000       0.062323         1.6959
  69   0.0000       0.117397         3.1945
  70   0.0000       0.120575         3.2810
  71   0.0000       0.126637         3.4460

MULLIKEN ATOMIC CHARGES
-----------------------
   0 S :    0.101744
   1 C :   -0.138510
   2 C :   -0.099751
   3 C :    0.026512
   4 C :   -0.172560
   5 H :    0.037680
   6 C :    0.046083
   7 H :    0.026871
   8 H :    0.014675
   9 C :   -0.062800
  10 H :    0.020574
  11 H :    0.024779
  12 C :   -0.023474
  13 H :    0.030597
  14 H :    0.015450
  15 H :    0.043766
  16 S :    0.135548
  17 C :   -0.059408
  18 C :   -0.051457
  19 C :   -0.009452
  20 C :   -0.204865
  21 H :    0.011527
  22 C :    0.053354
  23 H :    0.056421
  24 H :    0.059980
  25 C :   -0.091443
  26 H :    0.030259
  27 H :    0.038346
  28 C :   -0.078329
  29 H :    0.031857
  30 H :    0.036243
  31 H :    0.042732
  32 H :    0.077098
  33 H :    0.029952
Sum of atomic charges:    0.0000000

LOEWDIN ATOMIC CHARGES
----------------------
   0 S :    0.374070
   1 C :   -0.205466
   2 C :   -0.064969
   3 C :   -0.066056
   4 C :   -0.188660
   5 H :    0.043360
   6 C :   -0.039986
   7 H :    0.034633
   8 H :    0.025974
   9 C :   -0.046997
  10 H :    0.023364
  11 H :    0.024764
  12 C :   -0.063476
  13 H :    0.024784
  14 H :    0.022033
  15 H :    0.031236
  16 S :    0.444757
  17 C :   -0.197339
  18 C :   -0.072009
  19 C :   -0.049460
  20 C :   -0.205067
  21 H :    0.024502
  22 C :   -0.036075
  23 H :    0.042175
  24 H :    0.049327
  25 C :   -0.047028
  26 H :    0.021903
  27 H :    0.029118
  28 C :   -0.073618
  29 H :    0.019352
  30 H :    0.029990
  31 H :    0.030884
  32 H :    0.046165
  33 H :    0.013815

  Mayer bond orders larger than 0.100000
B(  0-S ,  1-C ) :   1.1346 B(  0-S ,  4-C ) :   1.1328 B(  1-C ,  2-C ) :   1.6306
B(  1-C , 32-H ) :   0.9538 B(  2-C ,  3-C ) :   1.2320 B(  2-C ,  6-C ) :   1.0034
B(  3-C ,  4-C ) :   1.5931 B(  3-C ,  5-H ) :   0.9846 B(  4-C , 20-C ) :   1.0155
B(  6-C ,  7-H ) :   0.9490 B(  6-C ,  8-H ) :   0.9371 B(  6-C ,  9-C ) :   1.0572
B(  9-C , 10-H ) :   0.9534 B(  9-C , 11-H ) :   0.9541 B(  9-C , 12-C ) :   1.0800
B( 12-C , 13-H ) :   0.9759 B( 12-C , 14-H ) :   0.9718 B( 12-C , 15-H ) :   0.9750
B( 16-S , 17-C ) :   1.1743 B( 16-S , 20-C ) :   1.1752 B( 17-C , 18-C ) :   1.5803
B( 17-C , 33-H ) :   0.9822 B( 18-C , 19-C ) :   1.2359 B( 18-C , 21-H ) :   0.9885
B( 19-C , 20-C ) :   1.5869 B( 19-C , 22-C ) :   1.0241 B( 22-C , 23-H ) :   0.9325
B( 22-C , 24-H ) :   0.9383 B( 22-C , 25-C ) :   1.0815 B( 25-C , 26-H ) :   0.9563
B( 25-C , 27-H ) :   0.9606 B( 25-C , 28-C ) :   1.0502 B( 28-C , 29-H ) :   0.9819
B( 28-C , 30-H ) :   0.9796 B( 28-C , 31-H ) :   0.9805

Dispersion correction           -0.014149489
FINAL SINGLE POINT ENERGY     -1339.866908805320

DIPOLE MOMENT
-------------
                                X             Y             Z
Electronic contribution:      5.97307      11.10391      25.10937
Nuclear contribution   :     -5.79973     -11.48897     -25.65036
                        -----------------------------------------
Total Dipole Moment    :      0.17333      -0.38505      -0.54099
                        -----------------------------------------
Magnitude (a.u.)       :      0.68628
Magnitude (Debye)      :      1.74438

Rotational constants in cm-1:     0.018199     0.008044     0.006479
Rotational constants in MHz :   545.580528   241.163182   194.228435

                             ****ORCA TERMINATED NORMALLY****
TOTAL RUN TIME: 0 days 0 hours 0 minutes 32 seconds 224 msec
