                         Program Version 4.2.1 -  RELEASE  -
|  1> ! wB97X-D3 SP def2-SVP
|  2> %pal
|  3> nprocs 16
|  4> end
|  5>
|  6> * xyz 0 1
|  7> S 	 -41.1688 	 36.5885 	 75.6902
|  8> C 	 -41.9771 	 36.5718 	 77.2055
|  9> C 	 -41.0826 	 36.4213 	 78.2508
| 10> C 	 -39.7567 	 36.2211 	 77.739
| 11> C 	 -39.6133 	 36.0578 	 76.2956
| 12> H 	 -38.83 	 36.1788 	 78.2774
| 13> C 	 -41.3825 	 36.3285 	 79.7511
| 14> H 	 -40.5675 	 36.6832 	 80.3824
| 15> H 	 -41.6248 	 35.2778 	 79.9385
| 16> C 	 -42.7313 	 37.0593 	 80.1819
| 17> H 	 -43.5654 	 36.492 	 79.8383
| 18> H 	 -42.9002 	 37.1134 	 81.2785
| 19> C 	 -42.7616 	 38.5434 	 79.77
| 20> H 	 -41.8502 	 39.1036 	 79.9037
| 21> H 	 -42.9872 	 38.696 	 78.6559
| 22> H 	 -43.608 	 38.9674 	 80.3331
| 23> S 	 -38.1296 	 37.3366 	 74.3426
| 24> C 	 -36.5402 	 36.7529 	 73.9002
| 25> C 	 -36.1983 	 35.5961 	 74.6301
| 26> C 	 -37.1957 	 35.1973 	 75.5693
| 27> C 	 -38.3562 	 36.005 	 75.4921
| 28> H 	 -35.1317 	 35.2802 	 74.5613
| 29> C 	 -37.0535 	 33.9162 	 76.3542
| 30> H 	 -37.3216 	 34.0826 	 77.4324
| 31> H 	 -36.0343 	 33.4268 	 76.2833
| 32> C 	 -37.9235 	 32.7761 	 75.7813
| 33> H 	 -38.9228 	 33.0422 	 75.4842
| 34> H 	 -38.0192 	 31.9122 	 76.503
| 35> C 	 -37.2566 	 32.0803 	 74.6141
| 36> H 	 -36.6446 	 32.7963 	 74.0607
| 37> H 	 -37.9313 	 31.6325 	 73.9403
| 38> H 	 -36.5409 	 31.3404 	 75.0735
| 39> H 	 -42.9932 	 36.5528 	 77.352
| 40> H 	 -35.8449 	 37.2323 	 73.1259
| 41> *
| 42>
| 43>                          ****END OF INPUT****

CARTESIAN COORDINATES (ANGSTROEM)
---------------------------------
  S    -41.168800   36.588500   75.690200
  C    -41.977100   36.571800   77.205500
  C    -41.082600   36.421300   78.250800
  C    -39.756700   36.221100   77.739000
  C    -39.613300   36.057800   76.295600
  H    -38.830000   36.178800   78.277400
  C    -41.382500   36.328500   79.751100
  H    -40.567500   36.683200   80.382400
  H    -41.624800   35.277800   79.938500
  C    -42.731300   37.059300   80.181900
  H    -43.565400   36.492000   79.838300
  H    -42.900200   37.113400   81.278500
  C    -42.761600   38.543400   79.770000
  H    -41.850200   39.103600   79.903700
  H    -42.987200   38.696000   78.655900
  H    -43.608000   38.967400   80.333100
  S    -38.129600   37.336600   74.342600
  C    -36.540200   36.752900   73.900200
  C    -36.198300   35.596100   74.630100
  C    -37.195700   35.197300   75.569300
  C    -38.356200   36.005000   75.492100
  H    -35.131700   35.280200   74.561300
  C    -37.053500   33.916200   76.354200
  H    -37.321600   34.082600   77.432400
  H    -36.034300   33.426800   76.283300
  C    -37.923500   32.776100   75.781300
  H    -38.922800   33.042200   75.484200
  H    -38.019200   31.912200   76.503000
  C    -37.256600   32.080300   74.614100
  H    -36.644600   32.796300   74.060700
  H    -37.931300   31.632500   73.940300
  H    -36.540900   31.340400   75.073500
  H    -42.993200   36.552800   77.352000
  H    -35.844900   37.232300   73.125900

 Total Charge           Charge          ....    0
 Multiplicity           Mult            ....    1
 Number of Electrons    NEL             ....  134
 Basis Dimension        Dim             ....  322

ORBITAL ENERGIES
----------------

  NO   OCC          E(Eh)            E(eV)
   0   2.0000     -88.971400     -2421.0349
   1   2.0000     -88.967864     -2420.9387
   2   2.0000     -10.340320      -281.3744
   3   2.0000     -10.339060      -281.3401
   4   2.0000     -10.327560      -281.0272
   5   2.0000     -10.312294      -280.6118
   6   2.0000     -10.310649      -280.5670
   7   2.0000     -10.306979      -280.4672
   8   2.0000     -10.301475      -280.3174
   9   2.0000     -10.300972      -280.3037
  10   2.0000     -10.300774      -280.2983
  11   2.0000     -10.300418      -280.2886
  12   2.0000     -10.292380      -280.0699
  13   2.0000     -10.280517      -279.7471
  14   2.0000     -10.280256      -279.7400
  15   2.0000     -10.269434      -279.4455
  16   2.0000      -8.085410      -220.0152
  17   2.0000      -8.082671      -219.9406
  18   2.0000      -6.043867      -164.4620
  19   2.0000      -6.041182      -164.3889
  20   2.0000      -6.039913      -164.3544
  21   2.0000      -6.036974      -164.2744
  22   2.0000      -6.036360      -164.2577
  23   2.0000      -6.033602      -164.1827
  24   2.0000      -1.002551       -27.2808
  25   2.0000      -0.983097       -26.7514
  26   2.0000      -0.910125       -24.7658
  27   2.0000      -0.905653       -24.6441
  28   2.0000      -0.863353       -23.4930
  29   2.0000      -0.849958       -23.1285
  30   2.0000      -0.843408       -22.9503
  31   2.0000      -0.807655       -21.9774
  32   2.0000      -0.780945       -21.2506
  33   2.0000      -0.771495       -20.9934
  34   2.0000      -0.705617       -19.2008
  35   2.0000      -0.700044       -19.0492
  36   2.0000      -0.681328       -18.5399
  37   2.0000      -0.658935       -17.9305
  38   2.0000      -0.642436       -17.4816
  39   2.0000      -0.608889       -16.5687
  40   2.0000      -0.591084       -16.0842
  41   2.0000      -0.576018       -15.6743
  42   2.0000      -0.556950       -15.1554
  43   2.0000      -0.550819       -14.9885
  44   2.0000      -0.544509       -14.8169
  45   2.0000      -0.539203       -14.6724
  46   2.0000      -0.512240       -13.9388
  47   2.0000      -0.508180       -13.8283
  48   2.0000      -0.504308       -13.7229
  49   2.0000      -0.495752       -13.4901
  50   2.0000      -0.488282       -13.2868
  51   2.0000      -0.479016       -13.0347
  52   2.0000      -0.471825       -12.8390
  53   2.0000      -0.467364       -12.7176
  54   2.0000      -0.458741       -12.4830
  55   2.0000      -0.441655       -12.0180
  56   2.0000      -0.439984       -11.9726
  57   2.0000      -0.437796       -11.9130
  58   2.0000      -0.424554       -11.5527
  59   2.0000      -0.422154       -11.4874
  60   2.0000      -0.416771       -11.3409
  61   2.0000      -0.411304       -11.1921
  62   2.0000      -0.407663       -11.0931
  63   2.0000      -0.346909        -9.4399
  64   2.0000      -0.334682        -9.1072
  65   2.0000      -0.326054        -8.8724
  66   2.0000      -0.287580        -7.8254
  67   0.0000       0.020143         0.5481
  68   0.0000       0.059951         1.6314
  69   0.0000       0.105444         2.8693
  70   0.0000       0.121511         3.3065
  71   0.0000       0.128812         3.5052

MULLIKEN ATOMIC CHARGES
-----------------------
   0 S :    0.105674
   1 C :   -0.076890
   2 C :   -0.087970
   3 C :    0.010277
   4 C :   -0.149082
   5 H :    0.011313
   6 C :    0.075153
   7 H :    0.043094
   8 H :    0.051107
   9 C :   -0.110265
  10 H :    0.024093
  11 H :    0.036510
  12 C :   -0.072685
  13 H :    0.038736
  14 H :    0.036439
  15 H :    0.036579
  16 S :    0.114271
  17 C :   -0.135830
  18 C :   -0.055093
  19 C :   -0.019138
  20 C :   -0.154705
  21 H :    0.044812
  22 C :    0.037025
  23 H :    0.042134
  24 H :    0.029865
  25 C :   -0.081914
  26 H :    0.034015
  27 H :    0.032145
  28 C :   -0.056490
  29 H :    0.023398
  30 H :    0.030260
  31 H :    0.031860
  32 H :    0.022864
  33 H :    0.088436
Sum of atomic charges:   -0.0000000

LOEWDIN ATOMIC CHARGES
----------------------
   0 S :    0.425395
   1 C :   -0.193265
   2 C :   -0.064541
   3 C :   -0.057850
   4 C :   -0.207611
   5 H :    0.023256
   6 C :   -0.027256
   7 H :    0.033251
   8 H :    0.039761
   9 C :   -0.047325
  10 H :    0.017222
  11 H :    0.030625
  12 C :   -0.074793
  13 H :    0.024737
  14 H :    0.029463
  15 H :    0.027290
  16 S :    0.409147
  17 C :   -0.202758
  18 C :   -0.083874
  19 C :   -0.057204
  20 C :   -0.193237
  21 H :    0.041762
  22 C :   -0.036586
  23 H :    0.036346
  24 H :    0.038273
  25 C :   -0.043640
  26 H :    0.019463
  27 H :    0.028610
  28 C :   -0.065169
  29 H :    0.020373
  30 H :    0.020268
  31 H :    0.027749
  32 H :    0.014012
  33 H :    0.048107

  Mayer bond orders larger than 0.100000
B(  0-S ,  1-C ) :   1.1683 B(  0-S ,  4-C ) :   1.1653 B(  1-C ,  2-C ) :   1.5579
B(  1-C ,  4-C ) :   0.1101 B(  1-C , 32-H ) :   0.9724 B(  2-C ,  3-C ) :   1.2932
B(  2-C ,  6-C ) :   1.0088 B(  3-C ,  4-C ) :   1.5109 B(  3-C ,  5-H ) :   0.9912
B(  4-C , 20-C ) :   1.0486 B(  6-C ,  7-H ) :   0.9501 B(  6-C ,  8-H ) :   0.9413
B(  6-C ,  9-C ) :   1.0701 B(  9-C , 10-H ) :   0.9528 B(  9-C , 11-H ) :   0.9634
B(  9-C , 12-C ) :   1.0695 B( 12-C , 13-H ) :   0.9776 B( 12-C , 14-H ) :   0.9708
B( 12-C , 15-H ) :   0.9777 B( 16-S , 17-C ) :   1.1693 B( 16-S , 20-C ) :   1.1516
B( 17-C , 18-C ) :   1.5920 B( 17-C , 20-C ) :   0.1050 B( 17-C , 33-H ) :   0.9557
B( 18-C , 19-C ) :   1.2662 B( 18-C , 21-H ) :   0.9774 B( 19-C , 20-C ) :   1.5609
B( 19-C , 22-C ) :   1.0541 B( 22-C , 23-H ) :   0.9292 B( 22-C , 24-H ) :   0.9449
B( 22-C , 25-C ) :   1.0567 B( 25-C , 26-H ) :   0.9638 B( 25-C , 27-H ) :   0.9624
B( 25-C , 28-C ) :   1.0653 B( 28-C , 29-H ) :   0.9772 B( 28-C , 30-H ) :   0.9740
B( 28-C , 31-H ) :   0.9780

Dispersion correction           -0.014272787
FINAL SINGLE POINT ENERGY     -1339.854156515951

DIPOLE MOMENT
-------------
                                X             Y             Z
Electronic contribution:      2.31579      11.01209     -15.71432
Nuclear contribution   :     -2.18460     -11.20317      16.24411
                        -----------------------------------------
Total Dipole Moment    :      0.13119      -0.19108       0.52979
                        -----------------------------------------
Magnitude (a.u.)       :      0.57827
Magnitude (Debye)      :      1.46985

Rotational constants in cm-1:     0.023732     0.007383     0.006406
Rotational constants in MHz :   711.462189   221.332882   192.040446

                             ****ORCA TERMINATED NORMALLY****
TOTAL RUN TIME: 0 days 0 hours 0 minutes 31 seconds 761 msec
