                         Program Version 4.2.1 -  RELEASE  -
|  1> ! wB97X-D3 SP def2-SVP
|  2> %pal
|  3> nprocs 16
|  4> end
|  5>
|  6> * xyz 0 1
|  7> S 	 14.0199 	 25.8751 	 65.2324
|  8> C 	 13.6943 	 27.403 	 64.4665
|  9> C 	 13.1535 	 28.3349 	 65.3583
| 10> C 	 12.9377 	 27.7215 	 66.6555
| 11> C 	 13.3139 	 26.3895 	 66.7343
| 12> H 	 12.3909 	 28.0817 	 67.4882
| 13> C 	 12.6448 	 29.7769 	 65.1873
| 14> H 	 11.6718 	 29.9262 	 65.6263
| 15> H 	 12.3806 	 29.7918 	 64.0879
| 16> C 	 13.5857 	 30.9474 	 65.5738
| 17> H 	 13.1365 	 31.9249 	 65.3177
| 18> H 	 13.7091 	 30.9357 	 66.6438
| 19> C 	 14.9865 	 30.8258 	 65.0143
| 20> H 	 15.6248 	 31.5726 	 65.5081
| 21> H 	 15.4428 	 29.8663 	 65.0594
| 22> H 	 15.0516 	 30.9859 	 63.9268
| 23> S 	 12.126 	 23.9652 	 67.2615
| 24> C 	 12.3962 	 23.2031 	 68.8371
| 25> C 	 13.221 	 23.961 	 69.6599
| 26> C 	 13.6511 	 25.2229 	 69.0709
| 27> C 	 13.0712 	 25.3969 	 67.7829
| 28> H 	 13.4732 	 23.5531 	 70.6167
| 29> C 	 14.6034 	 26.2454 	 69.7129
| 30> H 	 14.9627 	 27.0806 	 69.0078
| 31> H 	 15.4721 	 25.7223 	 70.0242
| 32> C 	 14.12 	 26.8643 	 71.0889
| 33> H 	 14.8858 	 27.4373 	 71.6338
| 34> H 	 13.8079 	 26.0978 	 71.8187
| 35> C 	 13.0653 	 27.9437 	 70.9119
| 36> H 	 13.5898 	 28.7578 	 70.3556
| 37> H 	 12.673 	 28.3016 	 71.8262
| 38> H 	 12.2792 	 27.5205 	 70.2498
| 39> H 	 13.7787 	 27.6621 	 63.4242
| 40> H 	 11.8702 	 22.4093 	 69.2225
| 41> *
| 42>
| 43>                          ****END OF INPUT****

CARTESIAN COORDINATES (ANGSTROEM)
---------------------------------
  S     14.019900   25.875100   65.232400
  C     13.694300   27.403000   64.466500
  C     13.153500   28.334900   65.358300
  C     12.937700   27.721500   66.655500
  C     13.313900   26.389500   66.734300
  H     12.390900   28.081700   67.488200
  C     12.644800   29.776900   65.187300
  H     11.671800   29.926200   65.626300
  H     12.380600   29.791800   64.087900
  C     13.585700   30.947400   65.573800
  H     13.136500   31.924900   65.317700
  H     13.709100   30.935700   66.643800
  C     14.986500   30.825800   65.014300
  H     15.624800   31.572600   65.508100
  H     15.442800   29.866300   65.059400
  H     15.051600   30.985900   63.926800
  S     12.126000   23.965200   67.261500
  C     12.396200   23.203100   68.837100
  C     13.221000   23.961000   69.659900
  C     13.651100   25.222900   69.070900
  C     13.071200   25.396900   67.782900
  H     13.473200   23.553100   70.616700
  C     14.603400   26.245400   69.712900
  H     14.962700   27.080600   69.007800
  H     15.472100   25.722300   70.024200
  C     14.120000   26.864300   71.088900
  H     14.885800   27.437300   71.633800
  H     13.807900   26.097800   71.818700
  C     13.065300   27.943700   70.911900
  H     13.589800   28.757800   70.355600
  H     12.673000   28.301600   71.826200
  H     12.279200   27.520500   70.249800
  H     13.778700   27.662100   63.424200
  H     11.870200   22.409300   69.222500

 Total Charge           Charge          ....    0
 Multiplicity           Mult            ....    1
 Number of Electrons    NEL             ....  134
 Basis Dimension        Dim             ....  322

ORBITAL ENERGIES
----------------

  NO   OCC          E(Eh)            E(eV)
   0   2.0000     -88.968857     -2420.9657
   1   2.0000     -88.967355     -2420.9248
   2   2.0000     -10.335062      -281.2313
   3   2.0000     -10.327060      -281.0136
   4   2.0000     -10.319318      -280.8029
   5   2.0000     -10.317569      -280.7553
   6   2.0000     -10.316890      -280.7369
   7   2.0000     -10.307216      -280.4736
   8   2.0000     -10.302468      -280.3444
   9   2.0000     -10.301331      -280.3135
  10   2.0000     -10.297465      -280.2083
  11   2.0000     -10.290405      -280.0162
  12   2.0000     -10.289714      -279.9974
  13   2.0000     -10.288998      -279.9779
  14   2.0000     -10.274194      -279.5750
  15   2.0000     -10.270892      -279.4852
  16   2.0000      -8.082482      -219.9355
  17   2.0000      -8.082265      -219.9296
  18   2.0000      -6.041063      -164.3857
  19   2.0000      -6.040865      -164.3803
  20   2.0000      -6.037149      -164.2792
  21   2.0000      -6.036606      -164.2644
  22   2.0000      -6.033212      -164.1720
  23   2.0000      -6.033051      -164.1677
  24   2.0000      -1.002210       -27.2715
  25   2.0000      -0.976532       -26.5728
  26   2.0000      -0.907705       -24.6999
  27   2.0000      -0.903340       -24.5811
  28   2.0000      -0.867859       -23.6157
  29   2.0000      -0.849205       -23.1081
  30   2.0000      -0.844611       -22.9830
  31   2.0000      -0.813946       -22.1486
  32   2.0000      -0.783247       -21.3132
  33   2.0000      -0.773341       -21.0437
  34   2.0000      -0.706857       -19.2345
  35   2.0000      -0.698072       -18.9955
  36   2.0000      -0.691330       -18.8120
  37   2.0000      -0.656808       -17.8726
  38   2.0000      -0.643942       -17.5226
  39   2.0000      -0.614159       -16.7121
  40   2.0000      -0.594595       -16.1798
  41   2.0000      -0.567054       -15.4303
  42   2.0000      -0.554138       -15.0789
  43   2.0000      -0.548775       -14.9329
  44   2.0000      -0.542783       -14.7699
  45   2.0000      -0.542329       -14.7575
  46   2.0000      -0.522214       -14.2102
  47   2.0000      -0.514724       -14.0063
  48   2.0000      -0.500658       -13.6236
  49   2.0000      -0.491352       -13.3704
  50   2.0000      -0.489118       -13.3096
  51   2.0000      -0.476457       -12.9651
  52   2.0000      -0.465694       -12.6722
  53   2.0000      -0.464015       -12.6265
  54   2.0000      -0.451259       -12.2794
  55   2.0000      -0.445892       -12.1333
  56   2.0000      -0.440772       -11.9940
  57   2.0000      -0.435156       -11.8412
  58   2.0000      -0.433930       -11.8078
  59   2.0000      -0.429519       -11.6878
  60   2.0000      -0.425691       -11.5836
  61   2.0000      -0.411059       -11.1855
  62   2.0000      -0.408242       -11.1088
  63   2.0000      -0.341865        -9.3026
  64   2.0000      -0.332967        -9.0605
  65   2.0000      -0.327145        -8.9021
  66   2.0000      -0.297844        -8.1047
  67   0.0000       0.030721         0.8360
  68   0.0000       0.059171         1.6101
  69   0.0000       0.114597         3.1184
  70   0.0000       0.119769         3.2591
  71   0.0000       0.120786         3.2868

MULLIKEN ATOMIC CHARGES
-----------------------
   0 S :    0.123696
   1 C :   -0.109247
   2 C :   -0.108099
   3 C :    0.051616
   4 C :   -0.173417
   5 H :   -0.001129
   6 C :    0.046644
   7 H :    0.030602
   8 H :    0.021261
   9 C :   -0.033610
  10 H :    0.037612
  11 H :    0.023533
  12 C :   -0.062618
  13 H :    0.034980
  14 H :    0.034137
  15 H :    0.018887
  16 S :    0.104230
  17 C :   -0.055472
  18 C :   -0.035099
  19 C :   -0.000783
  20 C :   -0.179004
  21 H :    0.015958
  22 C :    0.061862
  23 H :    0.053674
  24 H :    0.026236
  25 C :   -0.113010
  26 H :    0.027518
  27 H :    0.030726
  28 C :   -0.045453
  29 H :    0.027460
  30 H :    0.030641
  31 H :    0.039949
  32 H :    0.042661
  33 H :    0.033055
Sum of atomic charges:    0.0000000

LOEWDIN ATOMIC CHARGES
----------------------
   0 S :    0.419014
   1 C :   -0.204184
   2 C :   -0.060946
   3 C :   -0.060108
   4 C :   -0.204871
   5 H :    0.025459
   6 C :   -0.035944
   7 H :    0.030289
   8 H :    0.032519
   9 C :   -0.038099
  10 H :    0.030612
  11 H :    0.022358
  12 C :   -0.070662
  13 H :    0.028966
  14 H :    0.022388
  15 H :    0.023824
  16 S :    0.385185
  17 C :   -0.164095
  18 C :   -0.063272
  19 C :   -0.044303
  20 C :   -0.191467
  21 H :    0.028634
  22 C :   -0.031724
  23 H :    0.044563
  24 H :    0.030120
  25 C :   -0.046934
  26 H :    0.025050
  27 H :    0.020970
  28 C :   -0.066198
  29 H :    0.027036
  30 H :    0.018157
  31 H :    0.024697
  32 H :    0.028455
  33 H :    0.014510

  Mayer bond orders larger than 0.100000
B(  0-S ,  1-C ) :   1.1417 B(  0-S ,  4-C ) :   1.1503 B(  1-C ,  2-C ) :   1.6157
B(  1-C , 32-H ) :   0.9658 B(  2-C ,  3-C ) :   1.2196 B(  2-C ,  6-C ) :   1.0147
B(  3-C ,  4-C ) :   1.5966 B(  3-C ,  5-H ) :   0.9975 B(  4-C , 20-C ) :   1.0304
B(  6-C ,  7-H ) :   0.9474 B(  6-C ,  8-H ) :   0.9415 B(  6-C ,  9-C ) :   1.0659
B(  9-C , 10-H ) :   0.9545 B(  9-C , 11-H ) :   0.9548 B(  9-C , 12-C ) :   1.0815
B( 12-C , 13-H ) :   0.9743 B( 12-C , 14-H ) :   0.9712 B( 12-C , 15-H ) :   0.9736
B( 16-S , 17-C ) :   1.1402 B( 16-S , 20-C ) :   1.1384 B( 17-C , 18-C ) :   1.6388
B( 17-C , 33-H ) :   0.9721 B( 18-C , 19-C ) :   1.2144 B( 18-C , 21-H ) :   0.9895
B( 19-C , 20-C ) :   1.5798 B( 19-C , 22-C ) :   1.0422 B( 22-C , 23-H ) :   0.9423
B( 22-C , 24-H ) :   0.9279 B( 22-C , 25-C ) :   1.0588 B( 25-C , 26-H ) :   0.9595
B( 25-C , 27-H ) :   0.9578 B( 25-C , 28-C ) :   1.0718 B( 28-C , 29-H ) :   0.9752
B( 28-C , 30-H ) :   0.9728 B( 28-C , 31-H ) :   0.9767

Dispersion correction           -0.014739437
FINAL SINGLE POINT ENERGY     -1339.872465166532

DIPOLE MOMENT
-------------
                                X             Y             Z
Electronic contribution:     -5.09489     -25.74911     -10.12773
Nuclear contribution   :      5.09927      26.10302      10.57273
                        -----------------------------------------
Total Dipole Moment    :      0.00438       0.35391       0.44500
                        -----------------------------------------
Magnitude (a.u.)       :      0.56859
Magnitude (Debye)      :      1.44525

Rotational constants in cm-1:     0.019189     0.008978     0.006794
Rotational constants in MHz :   575.257142   269.142659   203.693853

                             ****ORCA TERMINATED NORMALLY****
TOTAL RUN TIME: 0 days 0 hours 0 minutes 35 seconds 111 msec
