                         Program Version 4.2.1 -  RELEASE  -
|  1> ! wB97X-D3 SP def2-SVP
|  2> %pal
|  3> nprocs 16
|  4> end
|  5>
|  6> * xyz 0 1
|  7> S 	 39.3414 	 24.6823 	 93.9635
|  8> C 	 40.2634 	 26.2093 	 93.8127
|  9> C 	 41.6331 	 25.8745 	 93.6036
| 10> C 	 41.8493 	 24.423 	 93.5578
| 11> C 	 40.7116 	 23.6383 	 93.7223
| 12> H 	 42.7489 	 23.9303 	 93.3703
| 13> C 	 42.7826 	 26.8654 	 93.4067
| 14> H 	 42.3419 	 27.7988 	 93.4885
| 15> H 	 43.1783 	 26.7347 	 92.3521
| 16> C 	 43.9814 	 26.7846 	 94.3845
| 17> H 	 44.4347 	 25.7693 	 94.4151
| 18> H 	 44.6957 	 27.5557 	 94.0153
| 19> C 	 43.5869 	 27.1513 	 95.7696
| 20> H 	 44.5099 	 27.2662 	 96.3562
| 21> H 	 42.9749 	 28.1666 	 95.7565
| 22> H 	 43.0483 	 26.3178 	 96.2546
| 23> S 	 40.1487 	 21.525 	 95.4267
| 24> C 	 40.3152 	 19.8807 	 94.8096
| 25> C 	 40.6843 	 19.859 	 93.5049
| 26> C 	 41.0465 	 21.1759 	 92.9621
| 27> C 	 40.6969 	 22.1842 	 93.8534
| 28> H 	 40.6629 	 18.9489 	 92.988
| 29> C 	 41.4871 	 21.366 	 91.5328
| 30> H 	 42.1176 	 22.2534 	 91.3523
| 31> H 	 40.5777 	 21.4119 	 90.9928
| 32> C 	 42.2878 	 20.1809 	 90.9655
| 33> H 	 41.663 	 19.3212 	 90.922
| 34> H 	 43.1613 	 19.7693 	 91.451
| 35> C 	 42.6031 	 20.4845 	 89.4951
| 36> H 	 42.9445 	 19.5251 	 89.1196
| 37> H 	 43.2684 	 21.3485 	 89.3375
| 38> H 	 41.6604 	 20.7139 	 88.9859
| 39> H 	 39.7669 	 27.1285 	 94.0029
| 40> H 	 40.2247 	 19.047 	 95.3885
| 41> *
| 42>
| 43>                          ****END OF INPUT****

CARTESIAN COORDINATES (ANGSTROEM)
---------------------------------
  S     39.341400   24.682300   93.963500
  C     40.263400   26.209300   93.812700
  C     41.633100   25.874500   93.603600
  C     41.849300   24.423000   93.557800
  C     40.711600   23.638300   93.722300
  H     42.748900   23.930300   93.370300
  C     42.782600   26.865400   93.406700
  H     42.341900   27.798800   93.488500
  H     43.178300   26.734700   92.352100
  C     43.981400   26.784600   94.384500
  H     44.434700   25.769300   94.415100
  H     44.695700   27.555700   94.015300
  C     43.586900   27.151300   95.769600
  H     44.509900   27.266200   96.356200
  H     42.974900   28.166600   95.756500
  H     43.048300   26.317800   96.254600
  S     40.148700   21.525000   95.426700
  C     40.315200   19.880700   94.809600
  C     40.684300   19.859000   93.504900
  C     41.046500   21.175900   92.962100
  C     40.696900   22.184200   93.853400
  H     40.662900   18.948900   92.988000
  C     41.487100   21.366000   91.532800
  H     42.117600   22.253400   91.352300
  H     40.577700   21.411900   90.992800
  C     42.287800   20.180900   90.965500
  H     41.663000   19.321200   90.922000
  H     43.161300   19.769300   91.451000
  C     42.603100   20.484500   89.495100
  H     42.944500   19.525100   89.119600
  H     43.268400   21.348500   89.337500
  H     41.660400   20.713900   88.985900
  H     39.766900   27.128500   94.002900
  H     40.224700   19.047000   95.388500

 Total Charge           Charge          ....    0
 Multiplicity           Mult            ....    1
 Number of Electrons    NEL             ....  134
 Basis Dimension        Dim             ....  322

ORBITAL ENERGIES
----------------

  NO   OCC          E(Eh)            E(eV)
   0   2.0000     -88.962885     -2420.8032
   1   2.0000     -88.962393     -2420.7898
   2   2.0000     -10.329829      -281.0889
   3   2.0000     -10.329650      -281.0841
   4   2.0000     -10.322077      -280.8780
   5   2.0000     -10.312606      -280.6203
   6   2.0000     -10.311227      -280.5828
   7   2.0000     -10.309469      -280.5349
   8   2.0000     -10.293000      -280.0868
   9   2.0000     -10.292256      -280.0665
  10   2.0000     -10.291662      -280.0503
  11   2.0000     -10.291645      -280.0499
  12   2.0000     -10.289227      -279.9841
  13   2.0000     -10.282738      -279.8075
  14   2.0000     -10.282390      -279.7980
  15   2.0000     -10.279127      -279.7093
  16   2.0000      -8.077173      -219.7910
  17   2.0000      -8.076557      -219.7743
  18   2.0000      -6.035765      -164.2415
  19   2.0000      -6.035238      -164.2272
  20   2.0000      -6.031572      -164.1274
  21   2.0000      -6.031211      -164.1176
  22   2.0000      -6.028025      -164.0309
  23   2.0000      -6.027104      -164.0058
  24   2.0000      -0.998265       -27.1642
  25   2.0000      -0.974862       -26.5274
  26   2.0000      -0.915343       -24.9077
  27   2.0000      -0.911911       -24.8144
  28   2.0000      -0.869845       -23.6697
  29   2.0000      -0.850166       -23.1342
  30   2.0000      -0.840037       -22.8586
  31   2.0000      -0.816237       -22.2109
  32   2.0000      -0.779735       -21.2177
  33   2.0000      -0.769609       -20.9421
  34   2.0000      -0.706982       -19.2380
  35   2.0000      -0.702650       -19.1201
  36   2.0000      -0.687872       -18.7179
  37   2.0000      -0.657432       -17.8896
  38   2.0000      -0.644901       -17.5486
  39   2.0000      -0.618952       -16.8425
  40   2.0000      -0.603254       -16.4154
  41   2.0000      -0.574596       -15.6355
  42   2.0000      -0.566876       -15.4255
  43   2.0000      -0.549006       -14.9392
  44   2.0000      -0.541523       -14.7356
  45   2.0000      -0.535230       -14.5644
  46   2.0000      -0.523177       -14.2364
  47   2.0000      -0.514462       -13.9992
  48   2.0000      -0.504054       -13.7160
  49   2.0000      -0.502908       -13.6848
  50   2.0000      -0.485385       -13.2080
  51   2.0000      -0.478359       -13.0168
  52   2.0000      -0.467267       -12.7150
  53   2.0000      -0.465782       -12.6746
  54   2.0000      -0.450921       -12.2702
  55   2.0000      -0.450532       -12.2596
  56   2.0000      -0.442396       -12.0382
  57   2.0000      -0.434834       -11.8324
  58   2.0000      -0.430398       -11.7117
  59   2.0000      -0.427043       -11.6204
  60   2.0000      -0.422828       -11.5057
  61   2.0000      -0.412364       -11.2210
  62   2.0000      -0.407124       -11.0784
  63   2.0000      -0.342175        -9.3110
  64   2.0000      -0.328118        -8.9286
  65   2.0000      -0.322829        -8.7846
  66   2.0000      -0.297013        -8.0821
  67   0.0000       0.034657         0.9431
  68   0.0000       0.063603         1.7307
  69   0.0000       0.115114         3.1324
  70   0.0000       0.121360         3.3024
  71   0.0000       0.122838         3.3426

MULLIKEN ATOMIC CHARGES
-----------------------
   0 S :    0.095253
   1 C :   -0.127954
   2 C :   -0.093152
   3 C :    0.053539
   4 C :   -0.163899
   5 H :   -0.011079
   6 C :    0.087705
   7 H :   -0.006803
   8 H :    0.048882
   9 C :   -0.088436
  10 H :    0.041148
  11 H :    0.038232
  12 C :   -0.083838
  13 H :    0.035914
  14 H :    0.041963
  15 H :    0.051456
  16 S :    0.095240
  17 C :   -0.047365
  18 C :   -0.020797
  19 C :   -0.019882
  20 C :   -0.159231
  21 H :    0.003717
  22 C :    0.090719
  23 H :    0.034600
  24 H :    0.036822
  25 C :   -0.110645
  26 H :    0.012241
  27 H :    0.031896
  28 C :   -0.032903
  29 H :    0.029930
  30 H :    0.041193
  31 H :    0.020788
  32 H :    0.051702
  33 H :    0.023047
Sum of atomic charges:    0.0000000

LOEWDIN ATOMIC CHARGES
----------------------
   0 S :    0.394590
   1 C :   -0.186910
   2 C :   -0.054201
   3 C :   -0.060848
   4 C :   -0.200641
   5 H :    0.018073
   6 C :   -0.031455
   7 H :    0.016023
   8 H :    0.040675
   9 C :   -0.048575
  10 H :    0.028165
  11 H :    0.029887
  12 C :   -0.075920
  13 H :    0.026571
  14 H :    0.034961
  15 H :    0.030303
  16 S :    0.376501
  17 C :   -0.156759
  18 C :   -0.063350
  19 C :   -0.045557
  20 C :   -0.187256
  21 H :    0.022767
  22 C :   -0.025957
  23 H :    0.034623
  24 H :    0.037182
  25 C :   -0.042263
  26 H :    0.016576
  27 H :    0.023643
  28 C :   -0.060654
  29 H :    0.026383
  30 H :    0.024998
  31 H :    0.023929
  32 H :    0.023200
  33 H :    0.011296

  Mayer bond orders larger than 0.100000
B(  0-S ,  1-C ) :   1.1364 B(  0-S ,  4-C ) :   1.1570 B(  1-C ,  2-C ) :   1.5737
B(  1-C , 32-H ) :   0.9797 B(  2-C ,  3-C ) :   1.2295 B(  2-C ,  6-C ) :   1.0258
B(  3-C ,  4-C ) :   1.5761 B(  3-C ,  5-H ) :   0.9987 B(  4-C , 20-C ) :   1.0383
B(  6-C ,  7-H ) :   0.9365 B(  6-C ,  8-H ) :   0.9404 B(  6-C ,  9-C ) :   1.0724
B(  9-C , 10-H ) :   0.9525 B(  9-C , 11-H ) :   0.9543 B(  9-C , 12-C ) :   1.0818
B( 12-C , 13-H ) :   0.9710 B( 12-C , 14-H ) :   0.9712 B( 12-C , 15-H ) :   0.9719
B( 16-S , 17-C ) :   1.1346 B( 16-S , 20-C ) :   1.1222 B( 17-C , 18-C ) :   1.6571
B( 17-C , 33-H ) :   0.9763 B( 18-C , 19-C ) :   1.1876 B( 18-C , 21-H ) :   0.9944
B( 19-C , 20-C ) :   1.6359 B( 19-C , 22-C ) :   1.0439 B( 22-C , 23-H ) :   0.9433
B( 22-C , 24-H ) :   0.9218 B( 22-C , 25-C ) :   1.0657 B( 25-C , 26-H ) :   0.9434
B( 25-C , 27-H ) :   0.9629 B( 25-C , 28-C ) :   1.0884 B( 28-C , 29-H ) :   0.9732
B( 28-C , 30-H ) :   0.9760 B( 28-C , 31-H ) :   0.9716

Dispersion correction           -0.013631612
FINAL SINGLE POINT ENERGY     -1339.865660489529

DIPOLE MOMENT
-------------
                                X             Y             Z
Electronic contribution:    -19.57579      -4.25025      12.73834
Nuclear contribution   :     20.07951       4.09602     -13.13520
                        -----------------------------------------
Total Dipole Moment    :      0.50372      -0.15424      -0.39686
                        -----------------------------------------
Magnitude (a.u.)       :      0.65956
Magnitude (Debye)      :      1.67647

Rotational constants in cm-1:     0.017631     0.008061     0.006687
Rotational constants in MHz :   528.550794   241.649424   200.475122

                             ****ORCA TERMINATED NORMALLY****
TOTAL RUN TIME: 0 days 0 hours 0 minutes 29 seconds 892 msec
