                         Program Version 4.2.1 -  RELEASE  -
|  1> ! wB97X-D3 SP def2-SVP
|  2> %pal
|  3> nprocs 16
|  4> end
|  5>
|  6> * xyz 0 1
|  7> S 	 25.6403 	 0.115701 	 82.2469
|  8> C 	 26.5276 	 1.56408 	 82.1139
|  9> C 	 25.7286 	 2.70963 	 82.1085
| 10> C 	 24.3616 	 2.34479 	 82.2871
| 11> C 	 24.1594 	 0.981458 	 82.1624
| 12> H 	 23.5779 	 3.05063 	 82.5771
| 13> C 	 26.2042 	 4.13592 	 82.0857
| 14> H 	 25.4101 	 4.85721 	 81.9626
| 15> H 	 26.7465 	 4.18682 	 81.1617
| 16> C 	 27.1 	 4.58156 	 83.2343
| 17> H 	 26.4274 	 4.43196 	 84.0675
| 18> H 	 27.9858 	 3.97344 	 83.405
| 19> C 	 27.6146 	 6.02794 	 83.0925
| 20> H 	 26.8494 	 6.71102 	 82.9019
| 21> H 	 28.2712 	 6.31407 	 83.9439
| 22> H 	 28.1853 	 5.99941 	 82.17
| 23> S 	 22.6641 	 -0.666451 	 83.8493
| 24> C 	 20.9434 	 -0.833146 	 83.6037
| 25> C 	 20.4965 	 -0.0227027 	 82.6093
| 26> C 	 21.5888 	 0.618743 	 81.9176
| 27> C 	 22.8458 	 0.38742 	 82.48
| 28> H 	 19.4589 	 0.0896444 	 82.3316
| 29> C 	 21.3126 	 1.32778 	 80.5691
| 30> H 	 20.6682 	 0.624848 	 80.0256
| 31> H 	 22.1343 	 1.32921 	 79.9084
| 32> C 	 20.6707 	 2.72951 	 80.7292
| 33> H 	 21.3554 	 3.45403 	 81.231
| 34> H 	 19.842 	 2.72209 	 81.4526
| 35> C 	 20.375 	 3.32087 	 79.3282
| 36> H 	 21.2273 	 3.43217 	 78.7376
| 37> H 	 19.9557 	 4.32744 	 79.5277
| 38> H 	 19.6082 	 2.73732 	 78.7982
| 39> H 	 27.5705 	 1.65352 	 81.9015
| 40> H 	 20.3534 	 -1.37133 	 84.2489
| 41> *
| 42>
| 43>                          ****END OF INPUT****

CARTESIAN COORDINATES (ANGSTROEM)
---------------------------------
  S     25.640300    0.115701   82.246900
  C     26.527600    1.564080   82.113900
  C     25.728600    2.709630   82.108500
  C     24.361600    2.344790   82.287100
  C     24.159400    0.981458   82.162400
  H     23.577900    3.050630   82.577100
  C     26.204200    4.135920   82.085700
  H     25.410100    4.857210   81.962600
  H     26.746500    4.186820   81.161700
  C     27.100000    4.581560   83.234300
  H     26.427400    4.431960   84.067500
  H     27.985800    3.973440   83.405000
  C     27.614600    6.027940   83.092500
  H     26.849400    6.711020   82.901900
  H     28.271200    6.314070   83.943900
  H     28.185300    5.999410   82.170000
  S     22.664100   -0.666451   83.849300
  C     20.943400   -0.833146   83.603700
  C     20.496500   -0.022703   82.609300
  C     21.588800    0.618743   81.917600
  C     22.845800    0.387420   82.480000
  H     19.458900    0.089644   82.331600
  C     21.312600    1.327780   80.569100
  H     20.668200    0.624848   80.025600
  H     22.134300    1.329210   79.908400
  C     20.670700    2.729510   80.729200
  H     21.355400    3.454030   81.231000
  H     19.842000    2.722090   81.452600
  C     20.375000    3.320870   79.328200
  H     21.227300    3.432170   78.737600
  H     19.955700    4.327440   79.527700
  H     19.608200    2.737320   78.798200
  H     27.570500    1.653520   81.901500
  H     20.353400   -1.371330   84.248900

 Total Charge           Charge          ....    0
 Multiplicity           Mult            ....    1
 Number of Electrons    NEL             ....  134
 Basis Dimension        Dim             ....  322

ORBITAL ENERGIES
----------------

  NO   OCC          E(Eh)            E(eV)
   0   2.0000     -88.971802     -2421.0458
   1   2.0000     -88.959629     -2420.7146
   2   2.0000     -10.325812      -280.9796
   3   2.0000     -10.323986      -280.9299
   4   2.0000     -10.310362      -280.5592
   5   2.0000     -10.308294      -280.5029
   6   2.0000     -10.299965      -280.2763
   7   2.0000     -10.299830      -280.2726
   8   2.0000     -10.293916      -280.1117
   9   2.0000     -10.290987      -280.0320
  10   2.0000     -10.290847      -280.0282
  11   2.0000     -10.288856      -279.9740
  12   2.0000     -10.286659      -279.9142
  13   2.0000     -10.284408      -279.8530
  14   2.0000     -10.277565      -279.6668
  15   2.0000     -10.276541      -279.6389
  16   2.0000      -8.087506      -220.0722
  17   2.0000      -8.074975      -219.7312
  18   2.0000      -6.045903      -164.5174
  19   2.0000      -6.041925      -164.4091
  20   2.0000      -6.038287      -164.3101
  21   2.0000      -6.033471      -164.1791
  22   2.0000      -6.029365      -164.0674
  23   2.0000      -6.025751      -163.9690
  24   2.0000      -1.011481       -27.5238
  25   2.0000      -0.987190       -26.8628
  26   2.0000      -0.917117       -24.9560
  27   2.0000      -0.901377       -24.5277
  28   2.0000      -0.869490       -23.6600
  29   2.0000      -0.856012       -23.2933
  30   2.0000      -0.843925       -22.9644
  31   2.0000      -0.815282       -22.1849
  32   2.0000      -0.782824       -21.3017
  33   2.0000      -0.769535       -20.9401
  34   2.0000      -0.706285       -19.2190
  35   2.0000      -0.702625       -19.1194
  36   2.0000      -0.696979       -18.9658
  37   2.0000      -0.662374       -18.0241
  38   2.0000      -0.641156       -17.4467
  39   2.0000      -0.619189       -16.8490
  40   2.0000      -0.599409       -16.3108
  41   2.0000      -0.579651       -15.7731
  42   2.0000      -0.564300       -15.3554
  43   2.0000      -0.552250       -15.0275
  44   2.0000      -0.529712       -14.4142
  45   2.0000      -0.527630       -14.3576
  46   2.0000      -0.517543       -14.0831
  47   2.0000      -0.510747       -13.8981
  48   2.0000      -0.503938       -13.7129
  49   2.0000      -0.494198       -13.4478
  50   2.0000      -0.491519       -13.3749
  51   2.0000      -0.483681       -13.1616
  52   2.0000      -0.476522       -12.9668
  53   2.0000      -0.464469       -12.6389
  54   2.0000      -0.458999       -12.4900
  55   2.0000      -0.452516       -12.3136
  56   2.0000      -0.448090       -12.1931
  57   2.0000      -0.440759       -11.9937
  58   2.0000      -0.437321       -11.9001
  59   2.0000      -0.431068       -11.7300
  60   2.0000      -0.419412       -11.4128
  61   2.0000      -0.418188       -11.3795
  62   2.0000      -0.402263       -10.9461
  63   2.0000      -0.348560        -9.4848
  64   2.0000      -0.329796        -8.9742
  65   2.0000      -0.325392        -8.8544
  66   2.0000      -0.292123        -7.9491
  67   0.0000       0.033594         0.9141
  68   0.0000       0.073485         1.9996
  69   0.0000       0.114211         3.1078
  70   0.0000       0.125638         3.4188
  71   0.0000       0.131655         3.5825

MULLIKEN ATOMIC CHARGES
-----------------------
   0 S :    0.134508
   1 C :   -0.105947
   2 C :   -0.095727
   3 C :    0.003476
   4 C :   -0.140266
   5 H :    0.032594
   6 C :    0.075050
   7 H :    0.013098
   8 H :    0.017486
   9 C :   -0.078190
  10 H :    0.025549
  11 H :    0.028639
  12 C :   -0.022187
  13 H :    0.016164
  14 H :    0.051490
  15 H :    0.019116
  16 S :    0.091721
  17 C :   -0.058706
  18 C :   -0.011830
  19 C :   -0.065335
  20 C :   -0.140172
  21 H :    0.020296
  22 C :    0.071206
  23 H :    0.022220
  24 H :    0.008906
  25 C :   -0.095319
  26 H :    0.023916
  27 H :    0.026585
  28 C :   -0.026317
  29 H :    0.028521
  30 H :    0.032090
  31 H :    0.033873
  32 H :    0.037764
  33 H :    0.025729
Sum of atomic charges:    0.0000000

LOEWDIN ATOMIC CHARGES
----------------------
   0 S :    0.448578
   1 C :   -0.208975
   2 C :   -0.060097
   3 C :   -0.053079
   4 C :   -0.213299
   5 H :    0.035216
   6 C :   -0.034046
   7 H :    0.028519
   8 H :    0.028416
   9 C :   -0.038084
  10 H :    0.021340
  11 H :    0.023123
  12 C :   -0.059936
  13 H :    0.014211
  14 H :    0.034941
  15 H :    0.025642
  16 S :    0.400451
  17 C :   -0.169799
  18 C :   -0.067476
  19 C :   -0.060353
  20 C :   -0.203726
  21 H :    0.032210
  22 C :   -0.030170
  23 H :    0.031972
  24 H :    0.022492
  25 C :   -0.041915
  26 H :    0.024384
  27 H :    0.022521
  28 C :   -0.060247
  29 H :    0.017695
  30 H :    0.029833
  31 H :    0.025472
  32 H :    0.023128
  33 H :    0.011057

  Mayer bond orders larger than 0.100000
B(  0-S ,  1-C ) :   1.1618 B(  0-S ,  4-C ) :   1.1695 B(  1-C ,  2-C ) :   1.5778
B(  1-C , 32-H ) :   0.9668 B(  2-C ,  3-C ) :   1.2815 B(  2-C ,  6-C ) :   1.0254
B(  3-C ,  4-C ) :   1.5371 B(  3-C ,  5-H ) :   0.9870 B(  4-C , 20-C ) :   1.0207
B(  6-C ,  7-H ) :   0.9436 B(  6-C ,  8-H ) :   0.9250 B(  6-C ,  9-C ) :   1.0605
B(  9-C , 10-H ) :   0.9578 B(  9-C , 11-H ) :   0.9566 B(  9-C , 12-C ) :   1.0763
B( 12-C , 13-H ) :   0.9750 B( 12-C , 14-H ) :   0.9743 B( 12-C , 15-H ) :   0.9736
B( 16-S , 17-C ) :   1.1532 B( 16-S , 20-C ) :   1.1356 B( 17-C , 18-C ) :   1.6066
B( 17-C , 33-H ) :   0.9789 B( 18-C , 19-C ) :   1.2448 B( 18-C , 21-H ) :   0.9909
B( 19-C , 20-C ) :   1.6213 B( 19-C , 22-C ) :   1.0265 B( 22-C , 23-H ) :   0.9466
B( 22-C , 24-H ) :   0.9415 B( 22-C , 25-C ) :   1.0466 B( 25-C , 26-H ) :   0.9528
B( 25-C , 27-H ) :   0.9605 B( 25-C , 28-C ) :   1.0765 B( 28-C , 29-H ) :   0.9752
B( 28-C , 30-H ) :   0.9741 B( 28-C , 31-H ) :   0.9772

Dispersion correction           -0.013754157
FINAL SINGLE POINT ENERGY     -1339.878898326597

DIPOLE MOMENT
-------------
                                X             Y             Z
Electronic contribution:      1.22697     -27.39687       9.57666
Nuclear contribution   :     -1.31086      28.02937      -9.75215
                        -----------------------------------------
Total Dipole Moment    :     -0.08389       0.63250      -0.17549
                        -----------------------------------------
Magnitude (a.u.)       :      0.66173
Magnitude (Debye)      :      1.68199

Rotational constants in cm-1:     0.017549     0.008189     0.006315
Rotational constants in MHz :   526.092270   245.512822   189.326996

                             ****ORCA TERMINATED NORMALLY****
TOTAL RUN TIME: 0 days 0 hours 0 minutes 34 seconds 556 msec
