                         Program Version 4.2.1 -  RELEASE  -
|  1> ! wB97X-D3 SP def2-SVP
|  2> %pal
|  3> nprocs 16
|  4> end
|  5>
|  6> * xyz 0 1
|  7> S 	 51.7558 	 19.2717 	 91.2806
|  8> C 	 50.283 	 20.2084 	 91.5458
|  9> C 	 50.076 	 21.1212 	 90.533
| 10> C 	 51.1078 	 21.0513 	 89.5455
| 11> C 	 52.0638 	 20.0819 	 89.7843
| 12> H 	 51.2487 	 21.6902 	 88.6776
| 13> C 	 48.8799 	 22.0577 	 90.3396
| 14> H 	 49.3241 	 23.0031 	 90.4224
| 15> H 	 48.1584 	 21.8645 	 91.1236
| 16> C 	 48.0202 	 21.951 	 89.0303
| 17> H 	 48.6843 	 22.1934 	 88.2207
| 18> H 	 47.7712 	 20.9204 	 88.8303
| 19> C 	 46.8722 	 22.825 	 88.9378
| 20> H 	 46.3929 	 22.4387 	 87.9993
| 21> H 	 46.0948 	 22.5658 	 89.7308
| 22> H 	 47.1011 	 23.8919 	 88.9637
| 23> S 	 53.7714 	 21.301 	 88.0615
| 24> C 	 55.1361 	 20.5355 	 87.4011
| 25> C 	 55.2435 	 19.2406 	 87.9287
| 26> C 	 54.1534 	 18.8534 	 88.7659
| 27> C 	 53.2587 	 19.8712 	 88.9429
| 28> H 	 56.1161 	 18.6842 	 87.5828
| 29> C 	 54.0692 	 17.4525 	 89.356
| 30> H 	 53.2138 	 17.2445 	 89.9419
| 31> H 	 54.8961 	 17.2928 	 90.0944
| 32> C 	 53.9951 	 16.4027 	 88.2813
| 33> H 	 54.7871 	 16.3637 	 87.5738
| 34> H 	 53.1807 	 16.5648 	 87.6239
| 35> C 	 53.78 	 14.9956 	 88.9106
| 36> H 	 52.8523 	 14.9167 	 89.4597
| 37> H 	 54.6711 	 14.6124 	 89.4551
| 38> H 	 53.7188 	 14.2602 	 88.0585
| 39> H 	 49.6428 	 19.85 	 92.2717
| 40> H 	 55.8508 	 21.148 	 86.8298
| 41> *
| 42>
| 43>                          ****END OF INPUT****

CARTESIAN COORDINATES (ANGSTROEM)
---------------------------------
  S     51.755800   19.271700   91.280600
  C     50.283000   20.208400   91.545800
  C     50.076000   21.121200   90.533000
  C     51.107800   21.051300   89.545500
  C     52.063800   20.081900   89.784300
  H     51.248700   21.690200   88.677600
  C     48.879900   22.057700   90.339600
  H     49.324100   23.003100   90.422400
  H     48.158400   21.864500   91.123600
  C     48.020200   21.951000   89.030300
  H     48.684300   22.193400   88.220700
  H     47.771200   20.920400   88.830300
  C     46.872200   22.825000   88.937800
  H     46.392900   22.438700   87.999300
  H     46.094800   22.565800   89.730800
  H     47.101100   23.891900   88.963700
  S     53.771400   21.301000   88.061500
  C     55.136100   20.535500   87.401100
  C     55.243500   19.240600   87.928700
  C     54.153400   18.853400   88.765900
  C     53.258700   19.871200   88.942900
  H     56.116100   18.684200   87.582800
  C     54.069200   17.452500   89.356000
  H     53.213800   17.244500   89.941900
  H     54.896100   17.292800   90.094400
  C     53.995100   16.402700   88.281300
  H     54.787100   16.363700   87.573800
  H     53.180700   16.564800   87.623900
  C     53.780000   14.995600   88.910600
  H     52.852300   14.916700   89.459700
  H     54.671100   14.612400   89.455100
  H     53.718800   14.260200   88.058500
  H     49.642800   19.850000   92.271700
  H     55.850800   21.148000   86.829800

 Total Charge           Charge          ....    0
 Multiplicity           Mult            ....    1
 Number of Electrons    NEL             ....  134
 Basis Dimension        Dim             ....  322

ORBITAL ENERGIES
----------------

  NO   OCC          E(Eh)            E(eV)
   0   2.0000     -88.964466     -2420.8462
   1   2.0000     -88.961471     -2420.7647
   2   2.0000     -10.329486      -281.0796
   3   2.0000     -10.326764      -281.0055
   4   2.0000     -10.318524      -280.7813
   5   2.0000     -10.308491      -280.5083
   6   2.0000     -10.305078      -280.4154
   7   2.0000     -10.304293      -280.3941
   8   2.0000     -10.297461      -280.2082
   9   2.0000     -10.289923      -280.0030
  10   2.0000     -10.289541      -279.9927
  11   2.0000     -10.287493      -279.9369
  12   2.0000     -10.283179      -279.8195
  13   2.0000     -10.281249      -279.7670
  14   2.0000     -10.279364      -279.7157
  15   2.0000     -10.277662      -279.6694
  16   2.0000      -8.079135      -219.8444
  17   2.0000      -8.077398      -219.7972
  18   2.0000      -6.037649      -164.2928
  19   2.0000      -6.035724      -164.2404
  20   2.0000      -6.033631      -164.1834
  21   2.0000      -6.031655      -164.1297
  22   2.0000      -6.029944      -164.0831
  23   2.0000      -6.028370      -164.0403
  24   2.0000      -1.010116       -27.4866
  25   2.0000      -0.986792       -26.8520
  26   2.0000      -0.915457       -24.9108
  27   2.0000      -0.914051       -24.8726
  28   2.0000      -0.872781       -23.7496
  29   2.0000      -0.855258       -23.2728
  30   2.0000      -0.848756       -23.0958
  31   2.0000      -0.809519       -22.0281
  32   2.0000      -0.782682       -21.2979
  33   2.0000      -0.774510       -21.0755
  34   2.0000      -0.706381       -19.2216
  35   2.0000      -0.699291       -19.0287
  36   2.0000      -0.691144       -18.8070
  37   2.0000      -0.670194       -18.2369
  38   2.0000      -0.638035       -17.3618
  39   2.0000      -0.620756       -16.8916
  40   2.0000      -0.604255       -16.4426
  41   2.0000      -0.575331       -15.6556
  42   2.0000      -0.563543       -15.3348
  43   2.0000      -0.561136       -15.2693
  44   2.0000      -0.533456       -14.5161
  45   2.0000      -0.523014       -14.2319
  46   2.0000      -0.518756       -14.1161
  47   2.0000      -0.515896       -14.0382
  48   2.0000      -0.510340       -13.8871
  49   2.0000      -0.504747       -13.7349
  50   2.0000      -0.485555       -13.2126
  51   2.0000      -0.479408       -13.0454
  52   2.0000      -0.476099       -12.9553
  53   2.0000      -0.469801       -12.7839
  54   2.0000      -0.461254       -12.5514
  55   2.0000      -0.449080       -12.2201
  56   2.0000      -0.442707       -12.0467
  57   2.0000      -0.435121       -11.8402
  58   2.0000      -0.431200       -11.7335
  59   2.0000      -0.425334       -11.5739
  60   2.0000      -0.421433       -11.4678
  61   2.0000      -0.408492       -11.1156
  62   2.0000      -0.405609       -11.0372
  63   2.0000      -0.357000        -9.7145
  64   2.0000      -0.332731        -9.0541
  65   2.0000      -0.328587        -8.9413
  66   2.0000      -0.286565        -7.7978
  67   0.0000       0.026168         0.7121
  68   0.0000       0.084375         2.2960
  69   0.0000       0.116329         3.1655
  70   0.0000       0.119628         3.2553
  71   0.0000       0.132605         3.6084

MULLIKEN ATOMIC CHARGES
-----------------------
   0 S :    0.092212
   1 C :   -0.121790
   2 C :   -0.046122
   3 C :   -0.041092
   4 C :   -0.095853
   5 H :    0.022086
   6 C :    0.096360
   7 H :    0.025469
   8 H :    0.010067
   9 C :   -0.072571
  10 H :    0.014998
  11 H :    0.025346
  12 C :   -0.054631
  13 H :    0.042319
  14 H :    0.032494
  15 H :    0.045421
  16 S :    0.078907
  17 C :   -0.105377
  18 C :   -0.051140
  19 C :   -0.041013
  20 C :   -0.123304
  21 H :    0.027327
  22 C :    0.097260
  23 H :   -0.003381
  24 H :    0.041853
  25 C :   -0.066634
  26 H :    0.014952
  27 H :    0.020621
  28 C :   -0.076553
  29 H :    0.043283
  30 H :    0.038511
  31 H :    0.028953
  32 H :    0.026640
  33 H :    0.074378
Sum of atomic charges:    0.0000000

LOEWDIN ATOMIC CHARGES
----------------------
   0 S :    0.407763
   1 C :   -0.185057
   2 C :   -0.052370
   3 C :   -0.081529
   4 C :   -0.190587
   5 H :    0.022229
   6 C :   -0.024069
   7 H :    0.027046
   8 H :    0.025612
   9 C :   -0.046058
  10 H :    0.019966
  11 H :    0.025363
  12 C :   -0.069221
  13 H :    0.040477
  14 H :    0.029040
  15 H :    0.027696
  16 S :    0.427824
  17 C :   -0.202138
  18 C :   -0.073387
  19 C :   -0.059933
  20 C :   -0.187838
  21 H :    0.033455
  22 C :   -0.032123
  23 H :    0.016453
  24 H :    0.039281
  25 C :   -0.036442
  26 H :    0.016363
  27 H :    0.024557
  28 C :   -0.068973
  29 H :    0.023515
  30 H :    0.027522
  31 H :    0.030189
  32 H :    0.010326
  33 H :    0.035050

  Mayer bond orders larger than 0.100000
B(  0-S ,  1-C ) :   1.1282 B(  0-S ,  4-C ) :   1.1546 B(  1-C ,  2-C ) :   1.6019
B(  1-C , 32-H ) :   0.9810 B(  2-C ,  3-C ) :   1.2346 B(  2-C ,  6-C ) :   1.0205
B(  3-C ,  4-C ) :   1.5613 B(  3-C ,  5-H ) :   0.9846 B(  4-C , 20-C ) :   1.0535
B(  6-C ,  7-H ) :   0.9314 B(  6-C ,  8-H ) :   0.9459 B(  6-C ,  9-C ) :   1.0614
B(  9-C , 10-H ) :   0.9429 B(  9-C , 11-H ) :   0.9550 B(  9-C , 12-C ) :   1.1061
B( 12-C , 13-H ) :   0.9677 B( 12-C , 14-H ) :   0.9692 B( 12-C , 15-H ) :   0.9710
B( 16-S , 17-C ) :   1.1800 B( 16-S , 20-C ) :   1.1472 B( 17-C , 18-C ) :   1.5770
B( 17-C , 33-H ) :   0.9677 B( 18-C , 19-C ) :   1.2325 B( 18-C , 21-H ) :   0.9953
B( 19-C , 20-C ) :   1.5933 B( 19-C , 22-C ) :   1.0383 B( 22-C , 23-H ) :   0.9333
B( 22-C , 24-H ) :   0.9340 B( 22-C , 25-C ) :   1.0558 B( 25-C , 26-H ) :   0.9566
B( 25-C , 27-H ) :   0.9496 B( 25-C , 28-C ) :   1.0921 B( 28-C , 29-H ) :   0.9744
B( 28-C , 30-H ) :   0.9752 B( 28-C , 31-H ) :   0.9737

Dispersion correction           -0.013274594
FINAL SINGLE POINT ENERGY     -1339.877367154434

DIPOLE MOMENT
-------------
                                X             Y             Z
Electronic contribution:     13.04898       7.58513       4.58908
Nuclear contribution   :    -13.18008      -7.67973      -4.84795
                        -----------------------------------------
Total Dipole Moment    :     -0.13110      -0.09460      -0.25887
                        -----------------------------------------
Magnitude (a.u.)       :      0.30520
Magnitude (Debye)      :      0.77577

Rotational constants in cm-1:     0.020464     0.007401     0.006237
Rotational constants in MHz :   613.490044   221.881055   186.967466

                             ****ORCA TERMINATED NORMALLY****
TOTAL RUN TIME: 0 days 0 hours 0 minutes 27 seconds 26 msec
