                         Program Version 4.2.1 -  RELEASE  -
|  1> ! wB97X-D3 SP def2-SVP
|  2> %pal
|  3> nprocs 16
|  4> end
|  5>
|  6> * xyz 0 1
|  7> S 	 6.27192 	 16.2578 	 85.5116
|  8> C 	 4.54776 	 16.0655 	 85.2489
|  9> C 	 3.9951 	 15.3859 	 86.3107
| 10> C 	 4.93005 	 14.9296 	 87.2209
| 11> C 	 6.26064 	 15.2952 	 86.9087
| 12> H 	 4.6999 	 14.2979 	 88.0417
| 13> C 	 2.45523 	 15.1435 	 86.5556
| 14> H 	 2.10433 	 15.945 	 87.1726
| 15> H 	 2.22678 	 14.2475 	 87.1782
| 16> C 	 1.60901 	 15.1245 	 85.2551
| 17> H 	 1.80227 	 16.1789 	 84.8943
| 18> H 	 2.06935 	 14.5117 	 84.5573
| 19> C 	 0.0856597 	 15.0181 	 85.5449
| 20> H 	 -0.0703462 	 14.2175 	 86.3381
| 21> H 	 -0.383846 	 15.9515 	 85.8497
| 22> H 	 -0.546747 	 14.7351 	 84.6529
| 23> S 	 8.15927 	 15.7333 	 88.8436
| 24> C 	 9.34155 	 14.4742 	 89.0771
| 25> C 	 9.1037 	 13.3277 	 88.3286
| 26> C 	 7.89191 	 13.4987 	 87.5736
| 27> C 	 7.43764 	 14.8076 	 87.6214
| 28> H 	 9.7448 	 12.4622 	 88.2149
| 29> C 	 7.33896 	 12.4434 	 86.6691
| 30> H 	 8.27441 	 12.0683 	 86.316
| 31> H 	 6.79679 	 12.8819 	 85.8586
| 32> C 	 6.51163 	 11.4203 	 87.3533
| 33> H 	 5.57461 	 11.7986 	 87.7073
| 34> H 	 7.01331 	 11.1493 	 88.3231
| 35> C 	 6.40774 	 10.235 	 86.5391
| 36> H 	 7.37916 	 9.84841 	 86.2375
| 37> H 	 5.82108 	 10.3573 	 85.6022
| 38> H 	 5.87537 	 9.4929 	 87.2274
| 39> H 	 4.02016 	 16.4052 	 84.3491
| 40> H 	 10.2578 	 14.4934 	 89.6342
| 41> *
| 42>
| 43>                          ****END OF INPUT****

CARTESIAN COORDINATES (ANGSTROEM)
---------------------------------
  S      6.271920   16.257800   85.511600
  C      4.547760   16.065500   85.248900
  C      3.995100   15.385900   86.310700
  C      4.930050   14.929600   87.220900
  C      6.260640   15.295200   86.908700
  H      4.699900   14.297900   88.041700
  C      2.455230   15.143500   86.555600
  H      2.104330   15.945000   87.172600
  H      2.226780   14.247500   87.178200
  C      1.609010   15.124500   85.255100
  H      1.802270   16.178900   84.894300
  H      2.069350   14.511700   84.557300
  C      0.085660   15.018100   85.544900
  H     -0.070346   14.217500   86.338100
  H     -0.383846   15.951500   85.849700
  H     -0.546747   14.735100   84.652900
  S      8.159270   15.733300   88.843600
  C      9.341550   14.474200   89.077100
  C      9.103700   13.327700   88.328600
  C      7.891910   13.498700   87.573600
  C      7.437640   14.807600   87.621400
  H      9.744800   12.462200   88.214900
  C      7.338960   12.443400   86.669100
  H      8.274410   12.068300   86.316000
  H      6.796790   12.881900   85.858600
  C      6.511630   11.420300   87.353300
  H      5.574610   11.798600   87.707300
  H      7.013310   11.149300   88.323100
  C      6.407740   10.235000   86.539100
  H      7.379160    9.848410   86.237500
  H      5.821080   10.357300   85.602200
  H      5.875370    9.492900   87.227400
  H      4.020160   16.405200   84.349100
  H     10.257800   14.493400   89.634200

 Total Charge           Charge          ....    0
 Multiplicity           Mult            ....    1
 Number of Electrons    NEL             ....  134
 Basis Dimension        Dim             ....  322

ORBITAL ENERGIES
----------------

  NO   OCC          E(Eh)            E(eV)
   0   2.0000     -88.968576     -2420.9580
   1   2.0000     -88.967747     -2420.9355
   2   2.0000     -10.324168      -280.9349
   3   2.0000     -10.314812      -280.6803
   4   2.0000     -10.314655      -280.6760
   5   2.0000     -10.314213      -280.6640
   6   2.0000     -10.299807      -280.2720
   7   2.0000     -10.296693      -280.1873
   8   2.0000     -10.294623      -280.1309
   9   2.0000     -10.293772      -280.1078
  10   2.0000     -10.292476      -280.0725
  11   2.0000     -10.289786      -279.9993
  12   2.0000     -10.286417      -279.9076
  13   2.0000     -10.277261      -279.6585
  14   2.0000     -10.275912      -279.6218
  15   2.0000     -10.275515      -279.6110
  16   2.0000      -8.083774      -219.9707
  17   2.0000      -8.083329      -219.9586
  18   2.0000      -6.042056      -164.4127
  19   2.0000      -6.041711      -164.4033
  20   2.0000      -6.038003      -164.3024
  21   2.0000      -6.037815      -164.2973
  22   2.0000      -6.034957      -164.2195
  23   2.0000      -6.034083      -164.1958
  24   2.0000      -1.012689       -27.5567
  25   2.0000      -0.990188       -26.9444
  26   2.0000      -0.926503       -25.2114
  27   2.0000      -0.907032       -24.6816
  28   2.0000      -0.866482       -23.5782
  29   2.0000      -0.859117       -23.3778
  30   2.0000      -0.849736       -23.1225
  31   2.0000      -0.809828       -22.0366
  32   2.0000      -0.781207       -21.2577
  33   2.0000      -0.767925       -20.8963
  34   2.0000      -0.710600       -19.3364
  35   2.0000      -0.697700       -18.9854
  36   2.0000      -0.690605       -18.7923
  37   2.0000      -0.663991       -18.0681
  38   2.0000      -0.642805       -17.4916
  39   2.0000      -0.615178       -16.7398
  40   2.0000      -0.597636       -16.2625
  41   2.0000      -0.573310       -15.6006
  42   2.0000      -0.569018       -15.4838
  43   2.0000      -0.562924       -15.3179
  44   2.0000      -0.533502       -14.5173
  45   2.0000      -0.521213       -14.1829
  46   2.0000      -0.516388       -14.0516
  47   2.0000      -0.512584       -13.9481
  48   2.0000      -0.507051       -13.7976
  49   2.0000      -0.497359       -13.5338
  50   2.0000      -0.494685       -13.4611
  51   2.0000      -0.482544       -13.1307
  52   2.0000      -0.472615       -12.8605
  53   2.0000      -0.465475       -12.6662
  54   2.0000      -0.460474       -12.5301
  55   2.0000      -0.451189       -12.2775
  56   2.0000      -0.447818       -12.1857
  57   2.0000      -0.443656       -12.0725
  58   2.0000      -0.431234       -11.7345
  59   2.0000      -0.424705       -11.5568
  60   2.0000      -0.415764       -11.3135
  61   2.0000      -0.412637       -11.2284
  62   2.0000      -0.406511       -11.0617
  63   2.0000      -0.337431        -9.1820
  64   2.0000      -0.334433        -9.1004
  65   2.0000      -0.317122        -8.6293
  66   2.0000      -0.304856        -8.2955
  67   0.0000       0.044126         1.2007
  68   0.0000       0.059494         1.6189
  69   0.0000       0.119922         3.2632
  70   0.0000       0.124271         3.3816
  71   0.0000       0.129292         3.5182

MULLIKEN ATOMIC CHARGES
-----------------------
   0 S :    0.133842
   1 C :   -0.173393
   2 C :   -0.041771
   3 C :    0.043760
   4 C :   -0.194201
   5 H :   -0.002853
   6 C :    0.045569
   7 H :    0.035955
   8 H :    0.025069
   9 C :   -0.089852
  10 H :    0.034143
  11 H :    0.026685
  12 C :   -0.063857
  13 H :    0.040185
  14 H :    0.039919
  15 H :    0.043346
  16 S :    0.139298
  17 C :   -0.074364
  18 C :   -0.037921
  19 C :   -0.059903
  20 C :   -0.174609
  21 H :    0.022302
  22 C :    0.107196
  23 H :    0.005716
  24 H :    0.025799
  25 C :   -0.052136
  26 H :    0.012198
  27 H :    0.019026
  28 C :   -0.035707
  29 H :    0.024218
  30 H :    0.033663
  31 H :    0.037953
  32 H :    0.059786
  33 H :    0.044941
Sum of atomic charges:    0.0000000

LOEWDIN ATOMIC CHARGES
----------------------
   0 S :    0.441836
   1 C :   -0.211557
   2 C :   -0.064297
   3 C :   -0.061048
   4 C :   -0.217465
   5 H :    0.024499
   6 C :   -0.026380
   7 H :    0.029879
   8 H :    0.025788
   9 C :   -0.043463
  10 H :    0.030184
  11 H :    0.013007
  12 C :   -0.073500
  13 H :    0.030131
  14 H :    0.027209
  15 H :    0.033771
  16 S :    0.437150
  17 C :   -0.189372
  18 C :   -0.067938
  19 C :   -0.046845
  20 C :   -0.233248
  21 H :    0.032607
  22 C :   -0.027495
  23 H :    0.028238
  24 H :    0.029163
  25 C :   -0.047553
  26 H :    0.020618
  27 H :    0.028320
  28 C :   -0.065042
  29 H :    0.022362
  30 H :    0.027261
  31 H :    0.035099
  32 H :    0.031911
  33 H :    0.026169

  Mayer bond orders larger than 0.100000
B(  0-S ,  1-C ) :   1.1554 B(  0-S ,  4-C ) :   1.1949 B(  1-C ,  2-C ) :   1.5603
B(  1-C ,  4-C ) :   0.1084 B(  1-C , 32-H ) :   0.9686 B(  2-C ,  3-C ) :   1.3080
B(  2-C ,  6-C ) :   0.9939 B(  3-C ,  4-C ) :   1.5107 B(  3-C ,  5-H ) :   1.0069
B(  4-C , 20-C ) :   0.9985 B(  6-C ,  7-H ) :   0.9428 B(  6-C ,  8-H ) :   0.9490
B(  6-C ,  9-C ) :   1.0535 B(  9-C , 10-H ) :   0.9495 B(  9-C , 11-H ) :   0.9736
B(  9-C , 12-C ) :   1.0624 B( 12-C , 13-H ) :   0.9769 B( 12-C , 14-H ) :   0.9757
B( 12-C , 15-H ) :   0.9748 B( 16-S , 17-C ) :   1.1575 B( 16-S , 20-C ) :   1.1545
B( 17-C , 18-C ) :   1.6103 B( 17-C , 33-H ) :   0.9649 B( 18-C , 19-C ) :   1.2466
B( 18-C , 21-H ) :   0.9845 B( 19-C , 20-C ) :   1.6030 B( 19-C , 22-C ) :   1.0339
B( 22-C , 23-H ) :   0.9350 B( 22-C , 24-H ) :   0.9201 B( 22-C , 25-C ) :   1.0744
B( 25-C , 26-H ) :   0.9378 B( 25-C , 27-H ) :   0.9510 B( 25-C , 28-C ) :   1.0977
B( 28-C , 29-H ) :   0.9720 B( 28-C , 30-H ) :   0.9668 B( 28-C , 31-H ) :   0.9702

Dispersion correction           -0.014358106
FINAL SINGLE POINT ENERGY     -1339.864790550990

DIPOLE MOMENT
-------------
                                X             Y             Z
Electronic contribution:     22.11767      18.75349       6.08284
Nuclear contribution   :    -22.45558     -19.19616      -6.15676
                        -----------------------------------------
Total Dipole Moment    :     -0.33791      -0.44267      -0.07392
                        -----------------------------------------
Magnitude (a.u.)       :      0.56179
Magnitude (Debye)      :      1.42795

Rotational constants in cm-1:     0.019723     0.008094     0.006526
Rotational constants in MHz :   591.281428   242.664591   195.652751

                             ****ORCA TERMINATED NORMALLY****
TOTAL RUN TIME: 0 days 0 hours 0 minutes 34 seconds 638 msec
