                         Program Version 4.2.1 -  RELEASE  -
|  1> ! wB97X-D3 SP def2-SVP
|  2> %pal
|  3> nprocs 16
|  4> end
|  5>
|  6> * xyz 0 1
|  7> S 	 34.6606 	 13.8361 	 71.015
|  8> C 	 33.1245 	 14.2236 	 70.3082
|  9> C 	 33.0484 	 13.7137 	 69.0173
| 10> C 	 34.0745 	 12.7209 	 68.7862
| 11> C 	 34.9309 	 12.6132 	 69.8186
| 12> H 	 34.0966 	 12.1091 	 67.9345
| 13> C 	 31.9659 	 14.0124 	 67.9932
| 14> H 	 30.9957 	 13.7482 	 68.4862
| 15> H 	 32.071 	 13.3875 	 67.0239
| 16> C 	 31.7182 	 15.4643 	 67.5479
| 17> H 	 31.4642 	 16.072 	 68.4101
| 18> H 	 32.6102 	 15.7693 	 67.043
| 19> C 	 30.6118 	 15.6754 	 66.5607
| 20> H 	 29.6534 	 15.3221 	 66.9089
| 21> H 	 30.4663 	 16.7592 	 66.3941
| 22> H 	 30.6497 	 15.2028 	 65.606
| 23> S 	 37.7077 	 12.8281 	 69.9925
| 24> C 	 38.6512 	 11.3929 	 69.6951
| 25> C 	 37.8553 	 10.2811 	 69.3585
| 26> C 	 36.4698 	 10.5064 	 69.501
| 27> C 	 36.1936 	 11.8741 	 69.7873
| 28> H 	 38.3988 	 9.41204 	 69.0092
| 29> C 	 35.3696 	 9.47756 	 69.0689
| 30> H 	 35.6357 	 9.10794 	 68.0836
| 31> H 	 34.3651 	 9.93999 	 68.8778
| 32> C 	 35.2406 	 8.2923 	 70.0734
| 33> H 	 35.3207 	 8.6416 	 71.1003
| 34> H 	 36.2016 	 7.71068 	 70.0202
| 35> C 	 34.0191 	 7.44728 	 69.7523
| 36> H 	 34.0409 	 6.39284 	 70.1799
| 37> H 	 33.9521 	 7.31627 	 68.6812
| 38> H 	 33.0993 	 7.95042 	 70.0692
| 39> H 	 32.3753 	 14.9324 	 70.7147
| 40> H 	 39.7358 	 11.4674 	 69.4867
| 41> *
| 42>
| 43>                          ****END OF INPUT****

CARTESIAN COORDINATES (ANGSTROEM)
---------------------------------
  S     34.660600   13.836100   71.015000
  C     33.124500   14.223600   70.308200
  C     33.048400   13.713700   69.017300
  C     34.074500   12.720900   68.786200
  C     34.930900   12.613200   69.818600
  H     34.096600   12.109100   67.934500
  C     31.965900   14.012400   67.993200
  H     30.995700   13.748200   68.486200
  H     32.071000   13.387500   67.023900
  C     31.718200   15.464300   67.547900
  H     31.464200   16.072000   68.410100
  H     32.610200   15.769300   67.043000
  C     30.611800   15.675400   66.560700
  H     29.653400   15.322100   66.908900
  H     30.466300   16.759200   66.394100
  H     30.649700   15.202800   65.606000
  S     37.707700   12.828100   69.992500
  C     38.651200   11.392900   69.695100
  C     37.855300   10.281100   69.358500
  C     36.469800   10.506400   69.501000
  C     36.193600   11.874100   69.787300
  H     38.398800    9.412040   69.009200
  C     35.369600    9.477560   69.068900
  H     35.635700    9.107940   68.083600
  H     34.365100    9.939990   68.877800
  C     35.240600    8.292300   70.073400
  H     35.320700    8.641600   71.100300
  H     36.201600    7.710680   70.020200
  C     34.019100    7.447280   69.752300
  H     34.040900    6.392840   70.179900
  H     33.952100    7.316270   68.681200
  H     33.099300    7.950420   70.069200
  H     32.375300   14.932400   70.714700
  H     39.735800   11.467400   69.486700

 Total Charge           Charge          ....    0
 Multiplicity           Mult            ....    1
 Number of Electrons    NEL             ....  134
 Basis Dimension        Dim             ....  322

ORBITAL ENERGIES
----------------

  NO   OCC          E(Eh)            E(eV)
   0   2.0000     -88.968175     -2420.9471
   1   2.0000     -88.966070     -2420.8898
   2   2.0000     -10.333167      -281.1798
   3   2.0000     -10.324508      -280.9441
   4   2.0000     -10.318778      -280.7882
   5   2.0000     -10.315795      -280.7071
   6   2.0000     -10.310342      -280.5587
   7   2.0000     -10.304466      -280.3988
   8   2.0000     -10.301781      -280.3257
   9   2.0000     -10.299401      -280.2610
  10   2.0000     -10.297166      -280.2001
  11   2.0000     -10.289127      -279.9814
  12   2.0000     -10.287345      -279.9329
  13   2.0000     -10.283939      -279.8402
  14   2.0000     -10.281502      -279.7739
  15   2.0000     -10.274373      -279.5799
  16   2.0000      -8.082079      -219.9245
  17   2.0000      -8.081475      -219.9081
  18   2.0000      -6.040490      -164.3701
  19   2.0000      -6.039986      -164.3564
  20   2.0000      -6.036753      -164.2684
  21   2.0000      -6.036072      -164.2499
  22   2.0000      -6.032955      -164.1651
  23   2.0000      -6.032009      -164.1393
  24   2.0000      -1.008639       -27.4465
  25   2.0000      -0.979416       -26.6513
  26   2.0000      -0.913216       -24.8499
  27   2.0000      -0.902148       -24.5487
  28   2.0000      -0.868718       -23.6390
  29   2.0000      -0.855307       -23.2741
  30   2.0000      -0.846814       -23.0430
  31   2.0000      -0.811190       -22.0736
  32   2.0000      -0.781008       -21.2523
  33   2.0000      -0.767103       -20.8739
  34   2.0000      -0.702210       -19.1081
  35   2.0000      -0.700721       -19.0676
  36   2.0000      -0.692744       -18.8505
  37   2.0000      -0.656728       -17.8705
  38   2.0000      -0.639922       -17.4132
  39   2.0000      -0.621668       -16.9164
  40   2.0000      -0.593016       -16.1368
  41   2.0000      -0.577954       -15.7269
  42   2.0000      -0.562079       -15.2949
  43   2.0000      -0.553076       -15.0500
  44   2.0000      -0.522650       -14.2220
  45   2.0000      -0.520694       -14.1688
  46   2.0000      -0.516259       -14.0481
  47   2.0000      -0.512409       -13.9434
  48   2.0000      -0.503001       -13.6874
  49   2.0000      -0.497441       -13.5361
  50   2.0000      -0.490587       -13.3495
  51   2.0000      -0.479950       -13.0601
  52   2.0000      -0.471714       -12.8360
  53   2.0000      -0.462706       -12.5909
  54   2.0000      -0.459943       -12.5157
  55   2.0000      -0.451121       -12.2756
  56   2.0000      -0.447259       -12.1705
  57   2.0000      -0.439032       -11.9467
  58   2.0000      -0.428593       -11.6626
  59   2.0000      -0.426057       -11.5936
  60   2.0000      -0.422172       -11.4879
  61   2.0000      -0.418007       -11.3745
  62   2.0000      -0.408065       -11.1040
  63   2.0000      -0.348551        -9.4846
  64   2.0000      -0.334798        -9.1103
  65   2.0000      -0.325544        -8.8585
  66   2.0000      -0.286416        -7.7938
  67   0.0000       0.029814         0.8113
  68   0.0000       0.059576         1.6212
  69   0.0000       0.104339         2.8392
  70   0.0000       0.120384         3.2758
  71   0.0000       0.123862         3.3705

MULLIKEN ATOMIC CHARGES
-----------------------
   0 S :    0.110485
   1 C :   -0.126599
   2 C :   -0.057701
   3 C :    0.042350
   4 C :   -0.122677
   5 H :   -0.003545
   6 C :   -0.007324
   7 H :    0.036944
   8 H :    0.037279
   9 C :   -0.044856
  10 H :    0.026814
  11 H :    0.028747
  12 C :   -0.041121
  13 H :    0.007069
  14 H :    0.037520
  15 H :    0.020699
  16 S :    0.103934
  17 C :   -0.118210
  18 C :   -0.048925
  19 C :   -0.000585
  20 C :   -0.168052
  21 H :    0.026010
  22 C :    0.026352
  23 H :    0.028492
  24 H :    0.031666
  25 C :   -0.083913
  26 H :    0.036774
  27 H :    0.025858
  28 C :   -0.046528
  29 H :    0.045443
  30 H :    0.022279
  31 H :    0.042464
  32 H :    0.058963
  33 H :    0.073895
Sum of atomic charges:   -0.0000000

LOEWDIN ATOMIC CHARGES
----------------------
   0 S :    0.416120
   1 C :   -0.206069
   2 C :   -0.059978
   3 C :   -0.052810
   4 C :   -0.198236
   5 H :    0.023140
   6 C :   -0.045249
   7 H :    0.036393
   8 H :    0.037069
   9 C :   -0.039769
  10 H :    0.024632
  11 H :    0.023372
  12 C :   -0.067167
  13 H :    0.019064
  14 H :    0.033956
  15 H :    0.019862
  16 S :    0.391055
  17 C :   -0.200220
  18 C :   -0.071718
  19 C :   -0.055977
  20 C :   -0.177837
  21 H :    0.033647
  22 C :   -0.029362
  23 H :    0.027759
  24 H :    0.030947
  25 C :   -0.047981
  26 H :    0.025300
  27 H :    0.026062
  28 C :   -0.070702
  29 H :    0.034866
  30 H :    0.022091
  31 H :    0.028565
  32 H :    0.034747
  33 H :    0.034428

  Mayer bond orders larger than 0.100000
B(  0-S ,  1-C ) :   1.1356 B(  0-S ,  4-C ) :   1.1487 B(  1-C ,  2-C ) :   1.6061
B(  1-C , 32-H ) :   0.9680 B(  2-C ,  3-C ) :   1.2377 B(  2-C ,  6-C ) :   1.0194
B(  3-C ,  4-C ) :   1.5674 B(  3-C ,  5-H ) :   1.0051 B(  4-C , 20-C ) :   1.0369
B(  6-C ,  7-H ) :   0.9370 B(  6-C ,  8-H ) :   0.9503 B(  6-C ,  9-C ) :   1.0675
B(  9-C , 10-H ) :   0.9504 B(  9-C , 11-H ) :   0.9548 B(  9-C , 12-C ) :   1.0959
B( 12-C , 13-H ) :   0.9687 B( 12-C , 14-H ) :   0.9720 B( 12-C , 15-H ) :   0.9723
B( 16-S , 17-C ) :   1.1587 B( 16-S , 20-C ) :   1.1527 B( 17-C , 18-C ) :   1.6025
B( 17-C , 20-C ) :   0.1109 B( 17-C , 33-H ) :   0.9604 B( 18-C , 19-C ) :   1.2468
B( 18-C , 21-H ) :   0.9891 B( 19-C , 20-C ) :   1.5741 B( 19-C , 22-C ) :   1.0279
B( 22-C , 23-H ) :   0.9394 B( 22-C , 24-H ) :   0.9473 B( 22-C , 25-C ) :   1.0404
B( 25-C , 26-H ) :   0.9625 B( 25-C , 27-H ) :   0.9555 B( 25-C , 28-C ) :   1.0763
B( 28-C , 29-H ) :   0.9734 B( 28-C , 30-H ) :   0.9710 B( 28-C , 31-H ) :   0.9748

Dispersion correction           -0.013234613
FINAL SINGLE POINT ENERGY     -1339.872603328182

DIPOLE MOMENT
-------------
                                X             Y             Z
Electronic contribution:     21.01574       9.52676      13.90865
Nuclear contribution   :    -21.38718      -9.71300     -14.52878
                        -----------------------------------------
Total Dipole Moment    :     -0.37144      -0.18624      -0.62013
                        -----------------------------------------
Magnitude (a.u.)       :      0.74647
Magnitude (Debye)      :      1.89737

Rotational constants in cm-1:     0.018224     0.007537     0.006134
Rotational constants in MHz :   546.334107   225.945317   183.891905

                             ****ORCA TERMINATED NORMALLY****
TOTAL RUN TIME: 0 days 0 hours 0 minutes 27 seconds 228 msec
