                         Program Version 4.2.1 -  RELEASE  -
|  1> ! wB97X-D3 SP def2-SVP
|  2> %pal
|  3> nprocs 16
|  4> end
|  5>
|  6> * xyz 0 1
|  7> S 	 0.0298647 	 -8.3246 	 90.5385
|  8> C 	 0.314953 	 -7.60876 	 92.0887
|  9> C 	 -0.855285 	 -7.49655 	 92.7833
| 10> C 	 -1.96611 	 -8.04854 	 92.0793
| 11> C 	 -1.66413 	 -8.48526 	 90.8017
| 12> H 	 -2.95926 	 -8.13659 	 92.4345
| 13> C 	 -1.05767 	 -6.93052 	 94.1558
| 14> H 	 -1.8607 	 -7.45024 	 94.6921
| 15> H 	 -1.19319 	 -5.88399 	 94.2659
| 16> C 	 0.122688 	 -7.11442 	 95.1676
| 17> H 	 0.933541 	 -6.40752 	 95.0844
| 18> H 	 -0.356387 	 -6.88764 	 96.139
| 19> C 	 0.625044 	 -8.57268 	 95.3882
| 20> H 	 1.36451 	 -8.83945 	 94.7119
| 21> H 	 1.03738 	 -8.55172 	 96.3947
| 22> H 	 -0.185744 	 -9.30819 	 95.4659
| 23> S 	 -2.62291 	 -7.7967 	 88.3198
| 24> C 	 -3.70475 	 -8.9093 	 87.4695
| 25> C 	 -4.11415 	 -9.98424 	 88.2797
| 26> C 	 -3.53062 	 -9.90153 	 89.6106
| 27> C 	 -2.58638 	 -8.85435 	 89.7126
| 28> H 	 -4.93012 	 -10.552 	 87.8949
| 29> C 	 -4.03791 	 -10.823 	 90.7016
| 30> H 	 -5.08298 	 -10.7928 	 90.5747
| 31> H 	 -3.79201 	 -10.3559 	 91.6117
| 32> C 	 -3.74605 	 -12.2751 	 90.5078
| 33> H 	 -2.67166 	 -12.3645 	 90.3821
| 34> H 	 -4.1735 	 -12.619 	 89.6199
| 35> C 	 -4.13959 	 -13.1633 	 91.723
| 36> H 	 -3.72458 	 -12.711 	 92.6042
| 37> H 	 -3.77259 	 -14.2165 	 91.6453
| 38> H 	 -5.2366 	 -13.3169 	 91.9124
| 39> H 	 1.31647 	 -7.61023 	 92.5356
| 40> H 	 -4.0038 	 -8.80845 	 86.4109
| 41> *
| 42>
| 43>                          ****END OF INPUT****

CARTESIAN COORDINATES (ANGSTROEM)
---------------------------------
  S      0.029865   -8.324600   90.538500
  C      0.314953   -7.608760   92.088700
  C     -0.855285   -7.496550   92.783300
  C     -1.966110   -8.048540   92.079300
  C     -1.664130   -8.485260   90.801700
  H     -2.959260   -8.136590   92.434500
  C     -1.057670   -6.930520   94.155800
  H     -1.860700   -7.450240   94.692100
  H     -1.193190   -5.883990   94.265900
  C      0.122688   -7.114420   95.167600
  H      0.933541   -6.407520   95.084400
  H     -0.356387   -6.887640   96.139000
  C      0.625044   -8.572680   95.388200
  H      1.364510   -8.839450   94.711900
  H      1.037380   -8.551720   96.394700
  H     -0.185744   -9.308190   95.465900
  S     -2.622910   -7.796700   88.319800
  C     -3.704750   -8.909300   87.469500
  C     -4.114150   -9.984240   88.279700
  C     -3.530620   -9.901530   89.610600
  C     -2.586380   -8.854350   89.712600
  H     -4.930120  -10.552000   87.894900
  C     -4.037910  -10.823000   90.701600
  H     -5.082980  -10.792800   90.574700
  H     -3.792010  -10.355900   91.611700
  C     -3.746050  -12.275100   90.507800
  H     -2.671660  -12.364500   90.382100
  H     -4.173500  -12.619000   89.619900
  C     -4.139590  -13.163300   91.723000
  H     -3.724580  -12.711000   92.604200
  H     -3.772590  -14.216500   91.645300
  H     -5.236600  -13.316900   91.912400
  H      1.316470   -7.610230   92.535600
  H     -4.003800   -8.808450   86.410900

 Total Charge           Charge          ....    0
 Multiplicity           Mult            ....    1
 Number of Electrons    NEL             ....  134
 Basis Dimension        Dim             ....  322

ORBITAL ENERGIES
----------------

  NO   OCC          E(Eh)            E(eV)
   0   2.0000     -88.967182     -2420.9201
   1   2.0000     -88.963456     -2420.8187
   2   2.0000     -10.329863      -281.0899
   3   2.0000     -10.327744      -281.0322
   4   2.0000     -10.322141      -280.8797
   5   2.0000     -10.312236      -280.6102
   6   2.0000     -10.308789      -280.5164
   7   2.0000     -10.299704      -280.2692
   8   2.0000     -10.296454      -280.1808
   9   2.0000     -10.290090      -280.0076
  10   2.0000     -10.289662      -279.9959
  11   2.0000     -10.288059      -279.9523
  12   2.0000     -10.282597      -279.8037
  13   2.0000     -10.281271      -279.7676
  14   2.0000     -10.279781      -279.7271
  15   2.0000     -10.273095      -279.5451
  16   2.0000      -8.081416      -219.9065
  17   2.0000      -8.079165      -219.8453
  18   2.0000      -6.039930      -164.3549
  19   2.0000      -6.037549      -164.2900
  20   2.0000      -6.036005      -164.2481
  21   2.0000      -6.033380      -164.1766
  22   2.0000      -6.032193      -164.1443
  23   2.0000      -6.030134      -164.0883
  24   2.0000      -1.008284       -27.4368
  25   2.0000      -0.981627       -26.7114
  26   2.0000      -0.915891       -24.9227
  27   2.0000      -0.909890       -24.7594
  28   2.0000      -0.865418       -23.5492
  29   2.0000      -0.849966       -23.1288
  30   2.0000      -0.845003       -22.9937
  31   2.0000      -0.812801       -22.1175
  32   2.0000      -0.788311       -21.4510
  33   2.0000      -0.774105       -21.0645
  34   2.0000      -0.708022       -19.2663
  35   2.0000      -0.700742       -19.0681
  36   2.0000      -0.692164       -18.8347
  37   2.0000      -0.660362       -17.9694
  38   2.0000      -0.644164       -17.5286
  39   2.0000      -0.613892       -16.7049
  40   2.0000      -0.592380       -16.1195
  41   2.0000      -0.578298       -15.7363
  42   2.0000      -0.572845       -15.5879
  43   2.0000      -0.560619       -15.2552
  44   2.0000      -0.537049       -14.6138
  45   2.0000      -0.526177       -14.3180
  46   2.0000      -0.516219       -14.0470
  47   2.0000      -0.512354       -13.9419
  48   2.0000      -0.504898       -13.7390
  49   2.0000      -0.495468       -13.4824
  50   2.0000      -0.492724       -13.4077
  51   2.0000      -0.479610       -13.0509
  52   2.0000      -0.475019       -12.9259
  53   2.0000      -0.465022       -12.6539
  54   2.0000      -0.458618       -12.4796
  55   2.0000      -0.448750       -12.2111
  56   2.0000      -0.443525       -12.0689
  57   2.0000      -0.438407       -11.9297
  58   2.0000      -0.435320       -11.8457
  59   2.0000      -0.424225       -11.5437
  60   2.0000      -0.416002       -11.3200
  61   2.0000      -0.414633       -11.2827
  62   2.0000      -0.413325       -11.2471
  63   2.0000      -0.341838        -9.3019
  64   2.0000      -0.331284        -9.0147
  65   2.0000      -0.325619        -8.8605
  66   2.0000      -0.294791        -8.0217
  67   0.0000       0.035300         0.9606
  68   0.0000       0.061681         1.6784
  69   0.0000       0.105272         2.8646
  70   0.0000       0.119978         3.2648
  71   0.0000       0.130801         3.5593

MULLIKEN ATOMIC CHARGES
-----------------------
   0 S :    0.114470
   1 C :   -0.133581
   2 C :   -0.060695
   3 C :    0.047191
   4 C :   -0.171061
   5 H :   -0.001654
   6 C :    0.097359
   7 H :    0.022870
   8 H :    0.039767
   9 C :   -0.156251
  10 H :    0.032329
  11 H :    0.025296
  12 C :   -0.020903
  13 H :    0.023869
  14 H :    0.025925
  15 H :    0.030057
  16 S :    0.119383
  17 C :   -0.122745
  18 C :   -0.030672
  19 C :   -0.050958
  20 C :   -0.172531
  21 H :    0.022378
  22 C :    0.149343
  23 H :    0.011189
  24 H :   -0.006714
  25 C :   -0.051198
  26 H :    0.029609
  27 H :    0.013854
  28 C :   -0.066007
  29 H :    0.027600
  30 H :    0.040589
  31 H :    0.033268
  32 H :    0.067784
  33 H :    0.070839
Sum of atomic charges:    0.0000000

LOEWDIN ATOMIC CHARGES
----------------------
   0 S :    0.430000
   1 C :   -0.207017
   2 C :   -0.066845
   3 C :   -0.057468
   4 C :   -0.206649
   5 H :    0.023433
   6 C :   -0.029953
   7 H :    0.032489
   8 H :    0.033173
   9 C :   -0.044756
  10 H :    0.017676
  11 H :    0.027771
  12 C :   -0.061484
  13 H :    0.011028
  14 H :    0.028807
  15 H :    0.028178
  16 S :    0.404914
  17 C :   -0.184576
  18 C :   -0.072359
  19 C :   -0.044416
  20 C :   -0.208670
  21 H :    0.030014
  22 C :   -0.024595
  23 H :    0.030910
  24 H :    0.020576
  25 C :   -0.031466
  26 H :    0.026922
  27 H :    0.015374
  28 C :   -0.069902
  29 H :    0.021761
  30 H :    0.031384
  31 H :    0.026714
  32 H :    0.034592
  33 H :    0.034440

  Mayer bond orders larger than 0.100000
B(  0-S ,  1-C ) :   1.1476 B(  0-S ,  4-C ) :   1.1781 B(  1-C ,  2-C ) :   1.5910
B(  1-C , 32-H ) :   0.9612 B(  2-C ,  3-C ) :   1.2647 B(  2-C ,  6-C ) :   1.0206
B(  3-C ,  4-C ) :   1.5552 B(  3-C ,  5-H ) :   1.0013 B(  4-C , 20-C ) :   1.0137
B(  6-C ,  7-H ) :   0.9473 B(  6-C ,  8-H ) :   0.9358 B(  6-C ,  9-C ) :   1.0711
B(  9-C , 10-H ) :   0.9553 B(  9-C , 11-H ) :   0.9643 B(  9-C , 12-C ) :   1.0736
B( 12-C , 13-H ) :   0.9778 B( 12-C , 14-H ) :   0.9762 B( 12-C , 15-H ) :   0.9739
B( 16-S , 17-C ) :   1.1532 B( 16-S , 20-C ) :   1.1504 B( 17-C , 18-C ) :   1.6258
B( 17-C , 33-H ) :   0.9619 B( 18-C , 19-C ) :   1.2230 B( 18-C , 21-H ) :   0.9869
B( 19-C , 20-C ) :   1.5901 B( 19-C , 22-C ) :   1.0472 B( 22-C , 23-H ) :   0.9234
B( 22-C , 24-H ) :   0.9305 B( 22-C , 25-C ) :   1.0613 B( 25-C , 26-H ) :   0.9560
B( 25-C , 27-H ) :   0.9535 B( 25-C , 28-C ) :   1.0812 B( 28-C , 29-H ) :   0.9756
B( 28-C , 30-H ) :   0.9756 B( 28-C , 31-H ) :   0.9759

Dispersion correction           -0.013760876
FINAL SINGLE POINT ENERGY     -1339.863657117472

DIPOLE MOMENT
-------------
                                X             Y             Z
Electronic contribution:      3.68483      13.28446     -24.07317
Nuclear contribution   :     -4.04812     -13.50511      24.60007
                        -----------------------------------------
Total Dipole Moment    :     -0.36329      -0.22065       0.52690
                        -----------------------------------------
Magnitude (a.u.)       :      0.67697
Magnitude (Debye)      :      1.72072

Rotational constants in cm-1:     0.018637     0.008272     0.006358
Rotational constants in MHz :   558.730048   247.982758   190.594372

                             ****ORCA TERMINATED NORMALLY****
TOTAL RUN TIME: 0 days 0 hours 0 minutes 32 seconds 633 msec
