                         Program Version 4.2.1 -  RELEASE  -
|  1> ! wB97X-D3 SP def2-SVP
|  2> %pal
|  3> nprocs 16
|  4> end
|  5>
|  6> * xyz 0 1
|  7> S 	 24.5136 	 -13.1748 	 81.1926
|  8> C 	 24.7518 	 -12.607 	 79.4966
|  9> C 	 23.698 	 -11.857 	 79.0666
| 10> C 	 22.7582 	 -11.5654 	 80.1012
| 11> C 	 23.0349 	 -12.2688 	 81.2875
| 12> H 	 21.9125 	 -10.9591 	 79.9791
| 13> C 	 23.5255 	 -11.2216 	 77.696
| 14> H 	 22.4267 	 -11.2385 	 77.5385
| 15> H 	 24.0195 	 -11.9147 	 76.968
| 16> C 	 24.0893 	 -9.84405 	 77.5181
| 17> H 	 23.5845 	 -9.47025 	 76.661
| 18> H 	 23.7185 	 -9.32939 	 78.3113
| 19> C 	 25.6772 	 -9.89157 	 77.5249
| 20> H 	 26.173 	 -8.90813 	 77.6553
| 21> H 	 26.0245 	 -10.4938 	 78.3406
| 22> H 	 26.097 	 -10.3617 	 76.6214
| 23> S 	 21.8434 	 -13.7598 	 83.2213
| 24> C 	 20.5626 	 -13.1007 	 84.2082
| 25> C 	 20.5326 	 -11.7312 	 84.1034
| 26> C 	 21.4524 	 -11.2365 	 83.1031
| 27> C 	 22.2724 	 -12.2443 	 82.5171
| 28> H 	 19.902 	 -11.111 	 84.6836
| 29> C 	 21.6346 	 -9.78859 	 82.8458
| 30> H 	 20.8101 	 -9.22342 	 83.316
| 31> H 	 21.5729 	 -9.72776 	 81.7456
| 32> C 	 23.0326 	 -9.11559 	 83.1256
| 33> H 	 23.6574 	 -9.44649 	 82.2978
| 34> H 	 23.383 	 -9.50768 	 84.0856
| 35> C 	 22.9133 	 -7.52921 	 83.1842
| 36> H 	 23.8101 	 -6.88192 	 83.0332
| 37> H 	 22.5131 	 -7.20423 	 84.0588
| 38> H 	 22.1178 	 -7.21324 	 82.4262
| 39> H 	 25.5935 	 -12.8354 	 78.8633
| 40> H 	 20.074 	 -13.6768 	 84.9558
| 41> *
| 42>
| 43>                          ****END OF INPUT****

CARTESIAN COORDINATES (ANGSTROEM)
---------------------------------
  S     24.513600  -13.174800   81.192600
  C     24.751800  -12.607000   79.496600
  C     23.698000  -11.857000   79.066600
  C     22.758200  -11.565400   80.101200
  C     23.034900  -12.268800   81.287500
  H     21.912500  -10.959100   79.979100
  C     23.525500  -11.221600   77.696000
  H     22.426700  -11.238500   77.538500
  H     24.019500  -11.914700   76.968000
  C     24.089300   -9.844050   77.518100
  H     23.584500   -9.470250   76.661000
  H     23.718500   -9.329390   78.311300
  C     25.677200   -9.891570   77.524900
  H     26.173000   -8.908130   77.655300
  H     26.024500  -10.493800   78.340600
  H     26.097000  -10.361700   76.621400
  S     21.843400  -13.759800   83.221300
  C     20.562600  -13.100700   84.208200
  C     20.532600  -11.731200   84.103400
  C     21.452400  -11.236500   83.103100
  C     22.272400  -12.244300   82.517100
  H     19.902000  -11.111000   84.683600
  C     21.634600   -9.788590   82.845800
  H     20.810100   -9.223420   83.316000
  H     21.572900   -9.727760   81.745600
  C     23.032600   -9.115590   83.125600
  H     23.657400   -9.446490   82.297800
  H     23.383000   -9.507680   84.085600
  C     22.913300   -7.529210   83.184200
  H     23.810100   -6.881920   83.033200
  H     22.513100   -7.204230   84.058800
  H     22.117800   -7.213240   82.426200
  H     25.593500  -12.835400   78.863300
  H     20.074000  -13.676800   84.955800

 Total Charge           Charge          ....    0
 Multiplicity           Mult            ....    1
 Number of Electrons    NEL             ....  134
 Basis Dimension        Dim             ....  322

ORBITAL ENERGIES
----------------

  NO   OCC          E(Eh)            E(eV)
   0   2.0000     -88.969611     -2420.9862
   1   2.0000     -88.964369     -2420.8435
   2   2.0000     -10.335261      -281.2367
   3   2.0000     -10.326484      -280.9979
   4   2.0000     -10.317553      -280.7549
   5   2.0000     -10.314981      -280.6849
   6   2.0000     -10.306552      -280.4555
   7   2.0000     -10.298876      -280.2467
   8   2.0000     -10.296067      -280.1702
   9   2.0000     -10.294349      -280.1235
  10   2.0000     -10.293693      -280.1056
  11   2.0000     -10.291874      -280.0561
  12   2.0000     -10.291594      -280.0485
  13   2.0000     -10.283883      -279.8387
  14   2.0000     -10.281325      -279.7691
  15   2.0000     -10.281140      -279.7640
  16   2.0000      -8.083732      -219.9695
  17   2.0000      -8.079767      -219.8616
  18   2.0000      -6.042334      -164.4203
  19   2.0000      -6.038394      -164.3131
  20   2.0000      -6.038252      -164.3092
  21   2.0000      -6.034363      -164.2034
  22   2.0000      -6.033945      -164.1920
  23   2.0000      -6.030750      -164.1051
  24   2.0000      -1.008103       -27.4319
  25   2.0000      -0.983591       -26.7649
  26   2.0000      -0.918653       -24.9978
  27   2.0000      -0.903066       -24.5737
  28   2.0000      -0.871512       -23.7151
  29   2.0000      -0.847240       -23.0546
  30   2.0000      -0.843030       -22.9400
  31   2.0000      -0.812906       -22.1203
  32   2.0000      -0.785060       -21.3626
  33   2.0000      -0.771333       -20.9890
  34   2.0000      -0.717110       -19.5136
  35   2.0000      -0.707712       -19.2578
  36   2.0000      -0.693500       -18.8711
  37   2.0000      -0.667749       -18.1704
  38   2.0000      -0.639883       -17.4121
  39   2.0000      -0.623710       -16.9720
  40   2.0000      -0.593426       -16.1479
  41   2.0000      -0.574169       -15.6239
  42   2.0000      -0.563768       -15.3409
  43   2.0000      -0.549702       -14.9581
  44   2.0000      -0.541038       -14.7224
  45   2.0000      -0.521899       -14.2016
  46   2.0000      -0.517277       -14.0758
  47   2.0000      -0.512313       -13.9408
  48   2.0000      -0.505703       -13.7609
  49   2.0000      -0.493003       -13.4153
  50   2.0000      -0.488466       -13.2918
  51   2.0000      -0.482137       -13.1196
  52   2.0000      -0.469917       -12.7871
  53   2.0000      -0.465117       -12.6565
  54   2.0000      -0.459075       -12.4921
  55   2.0000      -0.453683       -12.3453
  56   2.0000      -0.451083       -12.2746
  57   2.0000      -0.439543       -11.9606
  58   2.0000      -0.430491       -11.7143
  59   2.0000      -0.427127       -11.6227
  60   2.0000      -0.422816       -11.5054
  61   2.0000      -0.418792       -11.3959
  62   2.0000      -0.415486       -11.3060
  63   2.0000      -0.354201        -9.6383
  64   2.0000      -0.334997        -9.1157
  65   2.0000      -0.325666        -8.8618
  66   2.0000      -0.286548        -7.7974
  67   0.0000       0.020986         0.5711
  68   0.0000       0.071123         1.9354
  69   0.0000       0.102966         2.8019
  70   0.0000       0.116901         3.1810
  71   0.0000       0.132974         3.6184

MULLIKEN ATOMIC CHARGES
-----------------------
   0 S :    0.106802
   1 C :   -0.121173
   2 C :   -0.090952
   3 C :    0.018538
   4 C :   -0.129376
   5 H :    0.000695
   6 C :    0.002503
   7 H :    0.033887
   8 H :    0.026627
   9 C :    0.047022
  10 H :    0.025975
  11 H :   -0.006560
  12 C :   -0.072365
  13 H :    0.042020
  14 H :    0.026965
  15 H :    0.032799
  16 S :    0.098009
  17 C :   -0.079182
  18 C :   -0.002954
  19 C :   -0.084390
  20 C :   -0.110861
  21 H :    0.005491
  22 C :    0.028357
  23 H :    0.020229
  24 H :    0.018433
  25 C :   -0.046367
  26 H :    0.047379
  27 H :    0.037820
  28 C :   -0.055434
  29 H :    0.046209
  30 H :    0.008608
  31 H :    0.027448
  32 H :    0.043529
  33 H :    0.054266
Sum of atomic charges:    0.0000000

LOEWDIN ATOMIC CHARGES
----------------------
   0 S :    0.391992
   1 C :   -0.185746
   2 C :   -0.061226
   3 C :   -0.062239
   4 C :   -0.187690
   5 H :    0.020362
   6 C :   -0.031047
   7 H :    0.034345
   8 H :    0.030681
   9 C :   -0.025204
  10 H :    0.024626
  11 H :    0.010814
  12 C :   -0.065436
  13 H :    0.030415
  14 H :    0.022768
  15 H :    0.026698
  16 S :    0.423588
  17 C :   -0.179217
  18 C :   -0.063991
  19 C :   -0.055033
  20 C :   -0.217770
  21 H :    0.026321
  22 C :   -0.043401
  23 H :    0.027940
  24 H :    0.033239
  25 C :   -0.028043
  26 H :    0.026773
  27 H :    0.022572
  28 C :   -0.069457
  29 H :    0.032927
  30 H :    0.008081
  31 H :    0.031069
  32 H :    0.025453
  33 H :    0.024836

  Mayer bond orders larger than 0.100000
B(  0-S ,  1-C ) :   1.1081 B(  0-S ,  4-C ) :   1.1580 B(  1-C ,  2-C ) :   1.6446
B(  1-C , 32-H ) :   0.9628 B(  2-C ,  3-C ) :   1.2311 B(  2-C ,  6-C ) :   1.0211
B(  3-C ,  4-C ) :   1.5614 B(  3-C ,  5-H ) :   0.9953 B(  4-C , 20-C ) :   1.0354
B(  6-C ,  7-H ) :   0.9383 B(  6-C ,  8-H ) :   0.9407 B(  6-C ,  9-C ) :   1.0694
B(  9-C , 10-H ) :   0.9555 B(  9-C , 11-H ) :   0.9487 B(  9-C , 12-C ) :   1.0573
B( 12-C , 13-H ) :   0.9766 B( 12-C , 14-H ) :   0.9749 B( 12-C , 15-H ) :   0.9780
B( 16-S , 17-C ) :   1.1786 B( 16-S , 20-C ) :   1.1470 B( 17-C , 18-C ) :   1.5597
B( 17-C , 20-C ) :   0.1013 B( 17-C , 33-H ) :   0.9699 B( 18-C , 19-C ) :   1.2779
B( 18-C , 21-H ) :   0.9980 B( 19-C , 20-C ) :   1.5276 B( 19-C , 22-C ) :   1.0700
B( 22-C , 23-H ) :   0.9397 B( 22-C , 24-H ) :   0.9201 B( 22-C , 25-C ) :   1.0480
B( 25-C , 26-H ) :   0.9556 B( 25-C , 27-H ) :   0.9660 B( 25-C , 28-C ) :   1.0622
B( 28-C , 29-H ) :   0.9776 B( 28-C , 30-H ) :   0.9772 B( 28-C , 31-H ) :   0.9749

Dispersion correction           -0.014679032
FINAL SINGLE POINT ENERGY     -1339.866126691414

DIPOLE MOMENT
-------------
                                X             Y             Z
Electronic contribution:     -4.05782     -26.28037      12.15538
Nuclear contribution   :      3.83787      26.87606     -12.32831
                        -----------------------------------------
Total Dipole Moment    :     -0.21994       0.59569      -0.17293
                        -----------------------------------------
Magnitude (a.u.)       :      0.65812
Magnitude (Debye)      :      1.67281

Rotational constants in cm-1:     0.018642     0.009217     0.007015
Rotational constants in MHz :   558.871969   276.313535   210.294084

                             ****ORCA TERMINATED NORMALLY****
TOTAL RUN TIME: 0 days 0 hours 0 minutes 31 seconds 156 msec
