                         Program Version 4.2.1 -  RELEASE  -
|  1> ! wB97X-D3 SP def2-SVP
|  2> %pal
|  3> nprocs 16
|  4> end
|  5>
|  6> * xyz 0 1
|  7> S 	 -17.7219 	 -12.9072 	 88.7296
|  8> C 	 -16.1475 	 -12.7436 	 87.9438
|  9> C 	 -15.3175 	 -11.8908 	 88.6774
| 10> C 	 -16.0133 	 -11.2336 	 89.7779
| 11> C 	 -17.3022 	 -11.6919 	 89.9041
| 12> H 	 -15.5216 	 -10.5833 	 90.4773
| 13> C 	 -13.9341 	 -11.4831 	 88.4102
| 14> H 	 -13.6489 	 -10.5715 	 88.9975
| 15> H 	 -13.9098 	 -11.2447 	 87.341
| 16> C 	 -12.9539 	 -12.7078 	 88.3879
| 17> H 	 -13.0846 	 -13.3584 	 89.3015
| 18> H 	 -13.0857 	 -13.2364 	 87.4847
| 19> C 	 -11.4734 	 -12.2407 	 88.4013
| 20> H 	 -10.8796 	 -13.1239 	 88.5065
| 21> H 	 -11.0907 	 -11.7211 	 87.5184
| 22> H 	 -11.3207 	 -11.4624 	 89.2115
| 23> S 	 -19.1325 	 -12.6716 	 91.7039
| 24> C 	 -20.0215 	 -11.6096 	 92.6767
| 25> C 	 -19.6147 	 -10.2999 	 92.4979
| 26> C 	 -18.5227 	 -10.1552 	 91.5968
| 27> C 	 -18.2403 	 -11.3778 	 90.9663
| 28> H 	 -19.9959 	 -9.51677 	 93.1298
| 29> C 	 -18.0308 	 -8.79927 	 91.128
| 30> H 	 -17.0373 	 -8.99862 	 90.7961
| 31> H 	 -17.8252 	 -7.94993 	 91.8713
| 32> C 	 -18.9032 	 -8.19569 	 89.9674
| 33> H 	 -19.8086 	 -7.80733 	 90.3877
| 34> H 	 -19.2767 	 -8.94196 	 89.2503
| 35> C 	 -18.2966 	 -7.00571 	 89.2055
| 36> H 	 -18.9178 	 -6.5925 	 88.4055
| 37> H 	 -17.417 	 -7.40157 	 88.7246
| 38> H 	 -17.9635 	 -6.21408 	 89.9199
| 39> H 	 -15.8576 	 -13.0926 	 86.9931
| 40> H 	 -20.6759 	 -11.8643 	 93.5256
| 41> *
| 42>
| 43>                          ****END OF INPUT****

CARTESIAN COORDINATES (ANGSTROEM)
---------------------------------
  S    -17.721900  -12.907200   88.729600
  C    -16.147500  -12.743600   87.943800
  C    -15.317500  -11.890800   88.677400
  C    -16.013300  -11.233600   89.777900
  C    -17.302200  -11.691900   89.904100
  H    -15.521600  -10.583300   90.477300
  C    -13.934100  -11.483100   88.410200
  H    -13.648900  -10.571500   88.997500
  H    -13.909800  -11.244700   87.341000
  C    -12.953900  -12.707800   88.387900
  H    -13.084600  -13.358400   89.301500
  H    -13.085700  -13.236400   87.484700
  C    -11.473400  -12.240700   88.401300
  H    -10.879600  -13.123900   88.506500
  H    -11.090700  -11.721100   87.518400
  H    -11.320700  -11.462400   89.211500
  S    -19.132500  -12.671600   91.703900
  C    -20.021500  -11.609600   92.676700
  C    -19.614700  -10.299900   92.497900
  C    -18.522700  -10.155200   91.596800
  C    -18.240300  -11.377800   90.966300
  H    -19.995900   -9.516770   93.129800
  C    -18.030800   -8.799270   91.128000
  H    -17.037300   -8.998620   90.796100
  H    -17.825200   -7.949930   91.871300
  C    -18.903200   -8.195690   89.967400
  H    -19.808600   -7.807330   90.387700
  H    -19.276700   -8.941960   89.250300
  C    -18.296600   -7.005710   89.205500
  H    -18.917800   -6.592500   88.405500
  H    -17.417000   -7.401570   88.724600
  H    -17.963500   -6.214080   89.919900
  H    -15.857600  -13.092600   86.993100
  H    -20.675900  -11.864300   93.525600

 Total Charge           Charge          ....    0
 Multiplicity           Mult            ....    1
 Number of Electrons    NEL             ....  134
 Basis Dimension        Dim             ....  322

ORBITAL ENERGIES
----------------

  NO   OCC          E(Eh)            E(eV)
   0   2.0000     -88.968785     -2420.9637
   1   2.0000     -88.968075     -2420.9444
   2   2.0000     -10.330025      -281.0943
   3   2.0000     -10.326662      -281.0027
   4   2.0000     -10.312235      -280.6102
   5   2.0000     -10.311352      -280.5861
   6   2.0000     -10.303897      -280.3833
   7   2.0000     -10.301223      -280.3105
   8   2.0000     -10.296745      -280.1887
   9   2.0000     -10.293898      -280.1112
  10   2.0000     -10.292772      -280.0806
  11   2.0000     -10.292627      -280.0766
  12   2.0000     -10.288611      -279.9673
  13   2.0000     -10.282089      -279.7899
  14   2.0000     -10.280999      -279.7602
  15   2.0000     -10.276392      -279.6348
  16   2.0000      -8.083847      -219.9727
  17   2.0000      -8.083158      -219.9539
  18   2.0000      -6.042164      -164.4156
  19   2.0000      -6.041776      -164.4051
  20   2.0000      -6.038107      -164.3052
  21   2.0000      -6.037772      -164.2961
  22   2.0000      -6.034852      -164.2167
  23   2.0000      -6.033766      -164.1871
  24   2.0000      -1.011566       -27.5261
  25   2.0000      -0.985456       -26.8156
  26   2.0000      -0.913968       -24.8703
  27   2.0000      -0.903406       -24.5829
  28   2.0000      -0.867725       -23.6120
  29   2.0000      -0.854077       -23.2406
  30   2.0000      -0.846880       -23.0448
  31   2.0000      -0.813619       -22.1397
  32   2.0000      -0.780879       -21.2488
  33   2.0000      -0.768114       -20.9014
  34   2.0000      -0.707319       -19.2471
  35   2.0000      -0.700367       -19.0580
  36   2.0000      -0.692532       -18.8448
  37   2.0000      -0.660382       -17.9699
  38   2.0000      -0.638163       -17.3653
  39   2.0000      -0.622084       -16.9278
  40   2.0000      -0.596651       -16.2357
  41   2.0000      -0.569607       -15.4998
  42   2.0000      -0.563490       -15.3333
  43   2.0000      -0.552828       -15.0432
  44   2.0000      -0.529520       -14.4090
  45   2.0000      -0.524860       -14.2822
  46   2.0000      -0.520102       -14.1527
  47   2.0000      -0.510761       -13.8985
  48   2.0000      -0.501965       -13.6592
  49   2.0000      -0.499470       -13.5913
  50   2.0000      -0.496479       -13.5099
  51   2.0000      -0.483043       -13.1443
  52   2.0000      -0.470940       -12.8149
  53   2.0000      -0.456327       -12.4173
  54   2.0000      -0.455428       -12.3928
  55   2.0000      -0.448184       -12.1957
  56   2.0000      -0.441341       -12.0095
  57   2.0000      -0.439372       -11.9559
  58   2.0000      -0.433158       -11.7868
  59   2.0000      -0.427428       -11.6309
  60   2.0000      -0.422718       -11.5027
  61   2.0000      -0.418383       -11.3848
  62   2.0000      -0.406603       -11.0642
  63   2.0000      -0.353700        -9.6247
  64   2.0000      -0.332731        -9.0541
  65   2.0000      -0.326247        -8.8776
  66   2.0000      -0.283915        -7.7257
  67   0.0000       0.026943         0.7332
  68   0.0000       0.071104         1.9348
  69   0.0000       0.108889         2.9630
  70   0.0000       0.115695         3.1482
  71   0.0000       0.140018         3.8101

MULLIKEN ATOMIC CHARGES
-----------------------
   0 S :    0.111435
   1 C :   -0.097010
   2 C :   -0.084207
   3 C :    0.003884
   4 C :   -0.125029
   5 H :    0.023088
   6 C :    0.041761
   7 H :    0.036492
   8 H :    0.030610
   9 C :   -0.089146
  10 H :    0.051495
  11 H :    0.028704
  12 C :   -0.060616
  13 H :    0.036069
  14 H :    0.026409
  15 H :    0.033734
  16 S :    0.128315
  17 C :   -0.093941
  18 C :   -0.037965
  19 C :   -0.034175
  20 C :   -0.156227
  21 H :    0.013695
  22 C :    0.063116
  23 H :   -0.013573
  24 H :    0.036745
  25 C :   -0.062194
  26 H :    0.015623
  27 H :    0.036841
  28 C :   -0.057836
  29 H :    0.042840
  30 H :    0.025602
  31 H :    0.032492
  32 H :    0.025808
  33 H :    0.067163
Sum of atomic charges:   -0.0000000

LOEWDIN ATOMIC CHARGES
----------------------
   0 S :    0.404844
   1 C :   -0.200193
   2 C :   -0.051487
   3 C :   -0.067331
   4 C :   -0.186781
   5 H :    0.029030
   6 C :   -0.043246
   7 H :    0.034932
   8 H :    0.039835
   9 C :   -0.031001
  10 H :    0.031735
  11 H :    0.018390
  12 C :   -0.071795
  13 H :    0.023627
  14 H :    0.022066
  15 H :    0.029092
  16 S :    0.441178
  17 C :   -0.215785
  18 C :   -0.069776
  19 C :   -0.058158
  20 C :   -0.202399
  21 H :    0.029018
  22 C :   -0.036985
  23 H :    0.018275
  24 H :    0.040110
  25 C :   -0.039080
  26 H :    0.017171
  27 H :    0.028706
  28 C :   -0.068637
  29 H :    0.029544
  30 H :    0.020938
  31 H :    0.026801
  32 H :    0.018712
  33 H :    0.038649

  Mayer bond orders larger than 0.100000
B(  0-S ,  1-C ) :   1.1118 B(  0-S ,  4-C ) :   1.1534 B(  1-C ,  2-C ) :   1.6110
B(  1-C , 32-H ) :   0.9733 B(  2-C ,  3-C ) :   1.2319 B(  2-C ,  6-C ) :   1.0432
B(  3-C ,  4-C ) :   1.5693 B(  3-C ,  5-H ) :   0.9870 B(  4-C , 20-C ) :   1.0476
B(  6-C ,  7-H ) :   0.9532 B(  6-C ,  8-H ) :   0.9266 B(  6-C ,  9-C ) :   1.0435
B(  9-C , 10-H ) :   0.9641 B(  9-C , 11-H ) :   0.9545 B(  9-C , 12-C ) :   1.0810
B( 12-C , 13-H ) :   0.9755 B( 12-C , 14-H ) :   0.9744 B( 12-C , 15-H ) :   0.9773
B( 16-S , 17-C ) :   1.1644 B( 16-S , 20-C ) :   1.1697 B( 17-C , 18-C ) :   1.5833
B( 17-C , 20-C ) :   0.1000 B( 17-C , 33-H ) :   0.9627 B( 18-C , 19-C ) :   1.2755
B( 18-C , 21-H ) :   0.9899 B( 19-C , 20-C ) :   1.5428 B( 19-C , 22-C ) :   1.0620
B( 22-C , 23-H ) :   0.9274 B( 22-C , 24-H ) :   0.9364 B( 22-C , 25-C ) :   1.0430
B( 25-C , 26-H ) :   0.9557 B( 25-C , 27-H ) :   0.9590 B( 25-C , 28-C ) :   1.0793
B( 28-C , 29-H ) :   0.9736 B( 28-C , 30-H ) :   0.9783 B( 28-C , 31-H ) :   0.9737

Dispersion correction           -0.013846549
FINAL SINGLE POINT ENERGY     -1339.872849542068

DIPOLE MOMENT
-------------
                                X             Y             Z
Electronic contribution:    -19.44230     -17.78433       7.63627
Nuclear contribution   :     19.88904      18.20714      -7.67696
                        -----------------------------------------
Total Dipole Moment    :      0.44674       0.42281      -0.04069
                        -----------------------------------------
Magnitude (a.u.)       :      0.61644
Magnitude (Debye)      :      1.56686

Rotational constants in cm-1:     0.018998     0.008022     0.006583
Rotational constants in MHz :   569.551924   240.500582   197.344295

                             ****ORCA TERMINATED NORMALLY****
TOTAL RUN TIME: 0 days 0 hours 0 minutes 32 seconds 511 msec
