                         Program Version 4.2.1 -  RELEASE  -
|  1> ! wB97X-D3 SP def2-SVP
|  2> %pal
|  3> nprocs 16
|  4> end
|  5>
|  6> * xyz 0 1
|  7> S 	 -44.2241 	 28.2513 	 76.1917
|  8> C 	 -44.8674 	 29.4709 	 75.1245
|  9> C 	 -45.0946 	 30.66 	 75.7544
| 10> C 	 -44.9135 	 30.5045 	 77.2081
| 11> C 	 -44.5379 	 29.2723 	 77.6815
| 12> H 	 -44.9956 	 31.2594 	 77.9978
| 13> C 	 -45.5987 	 31.9485 	 75.12
| 14> H 	 -44.7011 	 32.2556 	 74.4641
| 15> H 	 -45.6685 	 32.6014 	 76.0443
| 16> C 	 -46.9035 	 32.0585 	 74.3403
| 17> H 	 -46.9022 	 31.2046 	 73.6147
| 18> H 	 -47.7322 	 31.7312 	 74.9399
| 19> C 	 -47.1042 	 33.3591 	 73.6072
| 20> H 	 -47.8823 	 33.48 	 72.863
| 21> H 	 -47.4634 	 33.9985 	 74.3757
| 22> H 	 -46.177 	 33.8054 	 73.1427
| 23> S 	 -42.8355 	 29.6322 	 79.7388
| 24> C 	 -43.0202 	 28.5729 	 81.1392
| 25> C 	 -44.072 	 27.6728 	 81.0829
| 26> C 	 -44.7221 	 27.7236 	 79.7861
| 27> C 	 -44.1959 	 28.7644 	 78.9979
| 28> H 	 -44.3736 	 27.016 	 81.8428
| 29> C 	 -45.8952 	 26.8205 	 79.3857
| 30> H 	 -45.59 	 25.8857 	 79.728
| 31> H 	 -45.9145 	 26.7772 	 78.2589
| 32> C 	 -47.2233 	 27.1732 	 79.9287
| 33> H 	 -47.4765 	 28.2365 	 79.763
| 34> H 	 -47.0547 	 27.0219 	 80.9958
| 35> C 	 -48.3384 	 26.2306 	 79.4377
| 36> H 	 -48.0471 	 25.1728 	 79.7387
| 37> H 	 -48.4999 	 26.1306 	 78.3375
| 38> H 	 -49.3443 	 26.4153 	 79.829
| 39> H 	 -44.9858 	 29.2461 	 74.1107
| 40> H 	 -42.4595 	 28.6109 	 82.0715
| 41> *
| 42>
| 43>                          ****END OF INPUT****

CARTESIAN COORDINATES (ANGSTROEM)
---------------------------------
  S    -44.224100   28.251300   76.191700
  C    -44.867400   29.470900   75.124500
  C    -45.094600   30.660000   75.754400
  C    -44.913500   30.504500   77.208100
  C    -44.537900   29.272300   77.681500
  H    -44.995600   31.259400   77.997800
  C    -45.598700   31.948500   75.120000
  H    -44.701100   32.255600   74.464100
  H    -45.668500   32.601400   76.044300
  C    -46.903500   32.058500   74.340300
  H    -46.902200   31.204600   73.614700
  H    -47.732200   31.731200   74.939900
  C    -47.104200   33.359100   73.607200
  H    -47.882300   33.480000   72.863000
  H    -47.463400   33.998500   74.375700
  H    -46.177000   33.805400   73.142700
  S    -42.835500   29.632200   79.738800
  C    -43.020200   28.572900   81.139200
  C    -44.072000   27.672800   81.082900
  C    -44.722100   27.723600   79.786100
  C    -44.195900   28.764400   78.997900
  H    -44.373600   27.016000   81.842800
  C    -45.895200   26.820500   79.385700
  H    -45.590000   25.885700   79.728000
  H    -45.914500   26.777200   78.258900
  C    -47.223300   27.173200   79.928700
  H    -47.476500   28.236500   79.763000
  H    -47.054700   27.021900   80.995800
  C    -48.338400   26.230600   79.437700
  H    -48.047100   25.172800   79.738700
  H    -48.499900   26.130600   78.337500
  H    -49.344300   26.415300   79.829000
  H    -44.985800   29.246100   74.110700
  H    -42.459500   28.610900   82.071500

 Total Charge           Charge          ....    0
 Multiplicity           Mult            ....    1
 Number of Electrons    NEL             ....  134
 Basis Dimension        Dim             ....  322

ORBITAL ENERGIES
----------------

  NO   OCC          E(Eh)            E(eV)
   0   2.0000     -88.972849     -2421.0743
   1   2.0000     -88.956210     -2420.6215
   2   2.0000     -10.331904      -281.1454
   3   2.0000     -10.330434      -281.1054
   4   2.0000     -10.322371      -280.8860
   5   2.0000     -10.311130      -280.5801
   6   2.0000     -10.309250      -280.5290
   7   2.0000     -10.305513      -280.4273
   8   2.0000     -10.303481      -280.3720
   9   2.0000     -10.299646      -280.2676
  10   2.0000     -10.296930      -280.1937
  11   2.0000     -10.290193      -280.0104
  12   2.0000     -10.286970      -279.9227
  13   2.0000     -10.286586      -279.9122
  14   2.0000     -10.285986      -279.8959
  15   2.0000     -10.280159      -279.7374
  16   2.0000      -8.086632      -220.0485
  17   2.0000      -8.070277      -219.6034
  18   2.0000      -6.045150      -164.4969
  19   2.0000      -6.041396      -164.3948
  20   2.0000      -6.037293      -164.2831
  21   2.0000      -6.028943      -164.0559
  22   2.0000      -6.024882      -163.9454
  23   2.0000      -6.020898      -163.8370
  24   2.0000      -0.998602       -27.1733
  25   2.0000      -0.976503       -26.5720
  26   2.0000      -0.915617       -24.9152
  27   2.0000      -0.909608       -24.7517
  28   2.0000      -0.872565       -23.7437
  29   2.0000      -0.849806       -23.1244
  30   2.0000      -0.842758       -22.9326
  31   2.0000      -0.815769       -22.1982
  32   2.0000      -0.782141       -21.2831
  33   2.0000      -0.767881       -20.8951
  34   2.0000      -0.706695       -19.2302
  35   2.0000      -0.705333       -19.1931
  36   2.0000      -0.691515       -18.8171
  37   2.0000      -0.668719       -18.1968
  38   2.0000      -0.645413       -17.5626
  39   2.0000      -0.608634       -16.5618
  40   2.0000      -0.594226       -16.1697
  41   2.0000      -0.571402       -15.5486
  42   2.0000      -0.564650       -15.3649
  43   2.0000      -0.559047       -15.2124
  44   2.0000      -0.526257       -14.3202
  45   2.0000      -0.521642       -14.1946
  46   2.0000      -0.515078       -14.0160
  47   2.0000      -0.511757       -13.9256
  48   2.0000      -0.507837       -13.8190
  49   2.0000      -0.499096       -13.5811
  50   2.0000      -0.490953       -13.3595
  51   2.0000      -0.476970       -12.9790
  52   2.0000      -0.470795       -12.8110
  53   2.0000      -0.461776       -12.5656
  54   2.0000      -0.458720       -12.4824
  55   2.0000      -0.450424       -12.2567
  56   2.0000      -0.447246       -12.1702
  57   2.0000      -0.441088       -12.0026
  58   2.0000      -0.433745       -11.8028
  59   2.0000      -0.422293       -11.4912
  60   2.0000      -0.416997       -11.3471
  61   2.0000      -0.413370       -11.2484
  62   2.0000      -0.398443       -10.8422
  63   2.0000      -0.339216        -9.2305
  64   2.0000      -0.336302        -9.1512
  65   2.0000      -0.322258        -8.7691
  66   2.0000      -0.299206        -8.1418
  67   0.0000       0.031468         0.8563
  68   0.0000       0.062734         1.7071
  69   0.0000       0.099298         2.7020
  70   0.0000       0.111795         3.0421
  71   0.0000       0.124551         3.3892

MULLIKEN ATOMIC CHARGES
-----------------------
   0 S :    0.074984
   1 C :   -0.112866
   2 C :   -0.068638
   3 C :    0.017039
   4 C :   -0.149830
   5 H :    0.014179
   6 C :    0.016942
   7 H :    0.055416
   8 H :    0.031404
   9 C :   -0.040290
  10 H :    0.014594
  11 H :    0.025919
  12 C :   -0.043669
  13 H :    0.033198
  14 H :    0.021935
  15 H :    0.042378
  16 S :    0.129691
  17 C :   -0.073471
  18 C :   -0.024046
  19 C :   -0.038178
  20 C :   -0.188641
  21 H :    0.002948
  22 C :    0.087935
  23 H :    0.001990
  24 H :    0.027535
  25 C :   -0.043519
  26 H :    0.041320
  27 H :    0.019969
  28 C :   -0.069095
  29 H :    0.025057
  30 H :    0.039935
  31 H :    0.039623
  32 H :    0.033138
  33 H :    0.055112
Sum of atomic charges:    0.0000000

LOEWDIN ATOMIC CHARGES
----------------------
   0 S :    0.361046
   1 C :   -0.177200
   2 C :   -0.071688
   3 C :   -0.066959
   4 C :   -0.174560
   5 H :    0.031322
   6 C :   -0.040488
   7 H :    0.045503
   8 H :    0.034813
   9 C :   -0.048387
  10 H :    0.021714
  11 H :    0.025832
  12 C :   -0.070373
  13 H :    0.028332
  14 H :    0.024808
  15 H :    0.034701
  16 S :    0.403598
  17 C :   -0.177061
  18 C :   -0.063044
  19 C :   -0.036324
  20 C :   -0.200999
  21 H :    0.024332
  22 C :   -0.030132
  23 H :    0.020555
  24 H :    0.030284
  25 C :   -0.041715
  26 H :    0.029673
  27 H :    0.025468
  28 C :   -0.074572
  29 H :    0.029474
  30 H :    0.029511
  31 H :    0.026402
  32 H :    0.016161
  33 H :    0.029973

  Mayer bond orders larger than 0.100000
B(  0-S ,  1-C ) :   1.1426 B(  0-S ,  4-C ) :   1.0992 B(  1-C ,  2-C ) :   1.6247
B(  1-C , 32-H ) :   0.9809 B(  2-C ,  3-C ) :   1.1951 B(  2-C ,  6-C ) :   1.0086
B(  3-C ,  4-C ) :   1.6507 B(  3-C ,  5-H ) :   0.9854 B(  4-C , 20-C ) :   1.0440
B(  6-C ,  7-H ) :   0.9332 B(  6-C ,  8-H ) :   0.9441 B(  6-C ,  9-C ) :   1.0662
B(  9-C , 10-H ) :   0.9519 B(  9-C , 11-H ) :   0.9538 B(  9-C , 12-C ) :   1.0665
B( 12-C , 13-H ) :   0.9734 B( 12-C , 14-H ) :   0.9749 B( 12-C , 15-H ) :   0.9751
B( 16-S , 17-C ) :   1.1443 B( 16-S , 20-C ) :   1.1316 B( 17-C , 18-C ) :   1.6319
B( 17-C , 33-H ) :   0.9612 B( 18-C , 19-C ) :   1.2258 B( 18-C , 21-H ) :   0.9920
B( 19-C , 20-C ) :   1.6011 B( 19-C , 22-C ) :   1.0402 B( 22-C , 23-H ) :   0.9215
B( 22-C , 24-H ) :   0.9271 B( 22-C , 25-C ) :   1.0700 B( 25-C , 26-H ) :   0.9562
B( 25-C , 27-H ) :   0.9512 B( 25-C , 28-C ) :   1.0757 B( 28-C , 29-H ) :   0.9712
B( 28-C , 30-H ) :   0.9764 B( 28-C , 31-H ) :   0.9759

Dispersion correction           -0.013545643
FINAL SINGLE POINT ENERGY     -1339.864158817541

DIPOLE MOMENT
-------------
                                X             Y             Z
Electronic contribution:     22.71686      -4.42139       7.57664
Nuclear contribution   :    -23.17856       4.54105      -7.44151
                        -----------------------------------------
Total Dipole Moment    :     -0.46170       0.11965       0.13514
                        -----------------------------------------
Magnitude (a.u.)       :      0.49573
Magnitude (Debye)      :      1.26004

Rotational constants in cm-1:     0.018841     0.007346     0.006194
Rotational constants in MHz :   564.826174   220.217409   185.689962

                             ****ORCA TERMINATED NORMALLY****
TOTAL RUN TIME: 0 days 0 hours 0 minutes 28 seconds 110 msec
