                         Program Version 4.2.1 -  RELEASE  -
|  1> ! wB97X-D3 SP def2-SVP
|  2> %pal
|  3> nprocs 16
|  4> end
|  5>
|  6> * xyz 0 1
|  7> S 	 21.3062 	 0.54061 	 85.6424
|  8> C 	 22.6356 	 1.08648 	 84.6081
|  9> C 	 22.1226 	 1.80836 	 83.5283
| 10> C 	 20.6884 	 1.83165 	 83.492
| 11> C 	 20.0929 	 1.07486 	 84.5295
| 12> H 	 20.1054 	 2.54729 	 82.8889
| 13> C 	 22.9841 	 2.64299 	 82.6653
| 14> H 	 23.1227 	 2.10588 	 81.6907
| 15> H 	 23.9698 	 2.59163 	 83.0997
| 16> C 	 22.6813 	 4.18859 	 82.3534
| 17> H 	 21.7713 	 4.34372 	 81.8231
| 18> H 	 22.5772 	 4.69386 	 83.3242
| 19> C 	 23.8205 	 4.73549 	 81.4547
| 20> H 	 24.0924 	 4.02231 	 80.6859
| 21> H 	 23.6229 	 5.6962 	 81.003
| 22> H 	 24.7724 	 4.9418 	 81.966
| 23> S 	 18.0943 	 1.00557 	 86.2921
| 24> C 	 16.5829 	 0.211319 	 85.956
| 25> C 	 16.498 	 0.0691766 	 84.5923
| 26> C 	 17.7135 	 0.286629 	 83.8799
| 27> C 	 18.6922 	 0.8043 	 84.6641
| 28> H 	 15.5328 	 -0.371498 	 84.383
| 29> C 	 17.8933 	 -0.0769459 	 82.421
| 30> H 	 18.8616 	 0.0774744 	 82.1056
| 31> H 	 17.2181 	 0.534622 	 81.7936
| 32> C 	 17.6579 	 -1.62632 	 82.2235
| 33> H 	 16.665 	 -1.93435 	 82.5981
| 34> H 	 18.3271 	 -2.16235 	 82.9007
| 35> C 	 17.7183 	 -1.95833 	 80.7455
| 36> H 	 17.1109 	 -1.25721 	 80.2009
| 37> H 	 17.3815 	 -2.91964 	 80.4328
| 38> H 	 18.7382 	 -1.88134 	 80.4157
| 39> H 	 23.6848 	 0.995645 	 84.9664
| 40> H 	 15.8375 	 -0.169526 	 86.6235
| 41> *
| 42>
| 43>                          ****END OF INPUT****

CARTESIAN COORDINATES (ANGSTROEM)
---------------------------------
  S     21.306200    0.540610   85.642400
  C     22.635600    1.086480   84.608100
  C     22.122600    1.808360   83.528300
  C     20.688400    1.831650   83.492000
  C     20.092900    1.074860   84.529500
  H     20.105400    2.547290   82.888900
  C     22.984100    2.642990   82.665300
  H     23.122700    2.105880   81.690700
  H     23.969800    2.591630   83.099700
  C     22.681300    4.188590   82.353400
  H     21.771300    4.343720   81.823100
  H     22.577200    4.693860   83.324200
  C     23.820500    4.735490   81.454700
  H     24.092400    4.022310   80.685900
  H     23.622900    5.696200   81.003000
  H     24.772400    4.941800   81.966000
  S     18.094300    1.005570   86.292100
  C     16.582900    0.211319   85.956000
  C     16.498000    0.069177   84.592300
  C     17.713500    0.286629   83.879900
  C     18.692200    0.804300   84.664100
  H     15.532800   -0.371498   84.383000
  C     17.893300   -0.076946   82.421000
  H     18.861600    0.077474   82.105600
  H     17.218100    0.534622   81.793600
  C     17.657900   -1.626320   82.223500
  H     16.665000   -1.934350   82.598100
  H     18.327100   -2.162350   82.900700
  C     17.718300   -1.958330   80.745500
  H     17.110900   -1.257210   80.200900
  H     17.381500   -2.919640   80.432800
  H     18.738200   -1.881340   80.415700
  H     23.684800    0.995645   84.966400
  H     15.837500   -0.169526   86.623500

 Total Charge           Charge          ....    0
 Multiplicity           Mult            ....    1
 Number of Electrons    NEL             ....  134
 Basis Dimension        Dim             ....  322

ORBITAL ENERGIES
----------------

  NO   OCC          E(Eh)            E(eV)
   0   2.0000     -88.967971     -2420.9416
   1   2.0000     -88.956673     -2420.6341
   2   2.0000     -10.331407      -281.1319
   3   2.0000     -10.321185      -280.8537
   4   2.0000     -10.320266      -280.8287
   5   2.0000     -10.313104      -280.6338
   6   2.0000     -10.303673      -280.3772
   7   2.0000     -10.303422      -280.3704
   8   2.0000     -10.298476      -280.2358
   9   2.0000     -10.296043      -280.1696
  10   2.0000     -10.293960      -280.1129
  11   2.0000     -10.290496      -280.0186
  12   2.0000     -10.286416      -279.9076
  13   2.0000     -10.284581      -279.8577
  14   2.0000     -10.280403      -279.7440
  15   2.0000     -10.268897      -279.4309
  16   2.0000      -8.082455      -219.9348
  17   2.0000      -8.072267      -219.6575
  18   2.0000      -6.041000      -164.3840
  19   2.0000      -6.036891      -164.2722
  20   2.0000      -6.033275      -164.1738
  21   2.0000      -6.030829      -164.1072
  22   2.0000      -6.026572      -163.9914
  23   2.0000      -6.022990      -163.8939
  24   2.0000      -1.011090       -27.5131
  25   2.0000      -0.984631       -26.7932
  26   2.0000      -0.908111       -24.7110
  27   2.0000      -0.906443       -24.6656
  28   2.0000      -0.873218       -23.7615
  29   2.0000      -0.851896       -23.1813
  30   2.0000      -0.843795       -22.9608
  31   2.0000      -0.816319       -22.2132
  32   2.0000      -0.778321       -21.1792
  33   2.0000      -0.769899       -20.9500
  34   2.0000      -0.717935       -19.5360
  35   2.0000      -0.701159       -19.0795
  36   2.0000      -0.699366       -19.0307
  37   2.0000      -0.657194       -17.8832
  38   2.0000      -0.638629       -17.3780
  39   2.0000      -0.621292       -16.9062
  40   2.0000      -0.596691       -16.2368
  41   2.0000      -0.569103       -15.4861
  42   2.0000      -0.562410       -15.3040
  43   2.0000      -0.559536       -15.2257
  44   2.0000      -0.530637       -14.4394
  45   2.0000      -0.522804       -14.2262
  46   2.0000      -0.516994       -14.0681
  47   2.0000      -0.508635       -13.8407
  48   2.0000      -0.507299       -13.8043
  49   2.0000      -0.502272       -13.6675
  50   2.0000      -0.494587       -13.4584
  51   2.0000      -0.474663       -12.9162
  52   2.0000      -0.471920       -12.8416
  53   2.0000      -0.466892       -12.7048
  54   2.0000      -0.459202       -12.4955
  55   2.0000      -0.452073       -12.3015
  56   2.0000      -0.445559       -12.1243
  57   2.0000      -0.432981       -11.7820
  58   2.0000      -0.429812       -11.6958
  59   2.0000      -0.428790       -11.6680
  60   2.0000      -0.421573       -11.4716
  61   2.0000      -0.416558       -11.3351
  62   2.0000      -0.408779       -11.1234
  63   2.0000      -0.345366        -9.3979
  64   2.0000      -0.328291        -8.9332
  65   2.0000      -0.325872        -8.8674
  66   2.0000      -0.291671        -7.9368
  67   0.0000       0.022684         0.6173
  68   0.0000       0.074589         2.0297
  69   0.0000       0.106798         2.9061
  70   0.0000       0.127763         3.4766
  71   0.0000       0.131804         3.5866

MULLIKEN ATOMIC CHARGES
-----------------------
   0 S :    0.122516
   1 C :   -0.153073
   2 C :   -0.067888
   3 C :    0.015919
   4 C :   -0.146394
   5 H :    0.034440
   6 C :    0.024843
   7 H :    0.039889
   8 H :    0.009118
   9 C :   -0.046298
  10 H :    0.031013
  11 H :    0.044043
  12 C :   -0.058974
  13 H :    0.028391
  14 H :    0.030913
  15 H :    0.028262
  16 S :    0.078501
  17 C :   -0.106273
  18 C :   -0.044459
  19 C :   -0.025399
  20 C :   -0.144536
  21 H :    0.017001
  22 C :    0.115069
  23 H :   -0.002707
  24 H :    0.034207
  25 C :   -0.114886
  26 H :    0.022553
  27 H :    0.036245
  28 C :    0.007067
  29 H :    0.017448
  30 H :    0.022091
  31 H :    0.023383
  32 H :    0.071777
  33 H :    0.056197
Sum of atomic charges:   -0.0000000

LOEWDIN ATOMIC CHARGES
----------------------
   0 S :    0.416716
   1 C :   -0.201625
   2 C :   -0.068115
   3 C :   -0.066370
   4 C :   -0.204815
   5 H :    0.037155
   6 C :   -0.040343
   7 H :    0.036465
   8 H :    0.027178
   9 C :   -0.029872
  10 H :    0.018810
  11 H :    0.029380
  12 C :   -0.068670
  13 H :    0.025091
  14 H :    0.025255
  15 H :    0.026962
  16 S :    0.394279
  17 C :   -0.181502
  18 C :   -0.075855
  19 C :   -0.055223
  20 C :   -0.195773
  21 H :    0.032573
  22 C :   -0.016378
  23 H :    0.016216
  24 H :    0.033840
  25 C :   -0.036864
  26 H :    0.019317
  27 H :    0.026213
  28 C :   -0.061087
  29 H :    0.023883
  30 H :    0.020962
  31 H :    0.023695
  32 H :    0.037211
  33 H :    0.031290

  Mayer bond orders larger than 0.100000
B(  0-S ,  1-C ) :   1.1393 B(  0-S ,  4-C ) :   1.1722 B(  1-C ,  2-C ) :   1.5678
B(  1-C ,  4-C ) :   0.1029 B(  1-C , 32-H ) :   0.9651 B(  2-C ,  3-C ) :   1.2665
B(  2-C ,  6-C ) :   1.0419 B(  3-C ,  4-C ) :   1.5182 B(  3-C ,  5-H ) :   0.9900
B(  4-C , 20-C ) :   1.0589 B(  6-C ,  7-H ) :   0.9255 B(  6-C ,  8-H ) :   0.9455
B(  6-C ,  9-C ) :   1.0519 B(  9-C , 10-H ) :   0.9554 B(  9-C , 11-H ) :   0.9602
B(  9-C , 12-C ) :   1.0733 B( 12-C , 13-H ) :   0.9755 B( 12-C , 14-H ) :   0.9753
B( 12-C , 15-H ) :   0.9759 B( 16-S , 17-C ) :   1.1459 B( 16-S , 20-C ) :   1.1243
B( 17-C , 18-C ) :   1.6386 B( 17-C , 33-H ) :   0.9702 B( 18-C , 19-C ) :   1.1853
B( 18-C , 21-H ) :   0.9932 B( 19-C , 20-C ) :   1.6209 B( 19-C , 22-C ) :   1.0519
B( 22-C , 23-H ) :   0.9311 B( 22-C , 24-H ) :   0.9337 B( 22-C , 25-C ) :   1.0480
B( 25-C , 26-H ) :   0.9606 B( 25-C , 27-H ) :   0.9583 B( 25-C , 28-C ) :   1.0784
B( 28-C , 29-H ) :   0.9705 B( 28-C , 30-H ) :   0.9732 B( 28-C , 31-H ) :   0.9739

Dispersion correction           -0.013436395
FINAL SINGLE POINT ENERGY     -1339.867209513820

DIPOLE MOMENT
-------------
                                X             Y             Z
Electronic contribution:     -6.00513      -3.38937      26.20972
Nuclear contribution   :      6.05196       3.47568     -26.74611
                        -----------------------------------------
Total Dipole Moment    :      0.04683       0.08631      -0.53638
                        -----------------------------------------
Magnitude (a.u.)       :      0.54530
Magnitude (Debye)      :      1.38604

Rotational constants in cm-1:     0.018153     0.007830     0.006399
Rotational constants in MHz :   544.205119   234.727414   191.830994

                             ****ORCA TERMINATED NORMALLY****
TOTAL RUN TIME: 0 days 0 hours 0 minutes 31 seconds 655 msec
