                         Program Version 4.2.1 -  RELEASE  -
|  1> ! wB97X-D3 SP def2-SVP
|  2> %pal
|  3> nprocs 16
|  4> end
|  5>
|  6> * xyz 0 1
|  7> S 	 45.4597 	 7.98313 	 76.0745
|  8> C 	 43.9558 	 7.66353 	 76.85
|  9> C 	 43.2633 	 8.84626 	 77.1528
| 10> C 	 44.1603 	 10.0078 	 77.0549
| 11> C 	 45.43 	 9.70255 	 76.6224
| 12> H 	 44.0668 	 11.0387 	 77.1734
| 13> C 	 41.8844 	 8.93149 	 77.8034
| 14> H 	 42.1156 	 8.86214 	 78.8707
| 15> H 	 41.3679 	 7.99625 	 77.6221
| 16> C 	 41.0011 	 10.0676 	 77.3482
| 17> H 	 41.4633 	 11.0874 	 77.4373
| 18> H 	 40.8336 	 9.95957 	 76.2449
| 19> C 	 39.7174 	 10.1392 	 78.2351
| 20> H 	 39.2733 	 11.1378 	 78.2167
| 21> H 	 39.0125 	 9.39874 	 78.0064
| 22> H 	 39.9518 	 9.78855 	 79.2557
| 23> S 	 47.3026 	 10.2538 	 74.8257
| 24> C 	 48.2956 	 11.6398 	 74.9095
| 25> C 	 47.9615 	 12.4058 	 76.0087
| 26> C 	 47.0249 	 11.8039 	 76.8629
| 27> C 	 46.537 	 10.5955 	 76.3405
| 28> H 	 48.4142 	 13.4159 	 76.1291
| 29> C 	 46.6188 	 12.4049 	 78.1869
| 30> H 	 47.5014 	 12.7188 	 78.7551
| 31> H 	 46.2895 	 11.584 	 78.8782
| 32> C 	 45.8362 	 13.7199 	 78.23
| 33> H 	 44.8223 	 13.6177 	 77.8029
| 34> H 	 46.2824 	 14.4776 	 77.5842
| 35> C 	 45.7851 	 14.4269 	 79.6565
| 36> H 	 45.3488 	 13.7915 	 80.5093
| 37> H 	 45.2325 	 15.358 	 79.5323
| 38> H 	 46.8541 	 14.6424 	 79.9514
| 39> H 	 43.4622 	 6.65625 	 77.0313
| 40> H 	 49.1305 	 11.8522 	 74.2734
| 41> *
| 42>
| 43>                          ****END OF INPUT****

CARTESIAN COORDINATES (ANGSTROEM)
---------------------------------
  S     45.459700    7.983130   76.074500
  C     43.955800    7.663530   76.850000
  C     43.263300    8.846260   77.152800
  C     44.160300   10.007800   77.054900
  C     45.430000    9.702550   76.622400
  H     44.066800   11.038700   77.173400
  C     41.884400    8.931490   77.803400
  H     42.115600    8.862140   78.870700
  H     41.367900    7.996250   77.622100
  C     41.001100   10.067600   77.348200
  H     41.463300   11.087400   77.437300
  H     40.833600    9.959570   76.244900
  C     39.717400   10.139200   78.235100
  H     39.273300   11.137800   78.216700
  H     39.012500    9.398740   78.006400
  H     39.951800    9.788550   79.255700
  S     47.302600   10.253800   74.825700
  C     48.295600   11.639800   74.909500
  C     47.961500   12.405800   76.008700
  C     47.024900   11.803900   76.862900
  C     46.537000   10.595500   76.340500
  H     48.414200   13.415900   76.129100
  C     46.618800   12.404900   78.186900
  H     47.501400   12.718800   78.755100
  H     46.289500   11.584000   78.878200
  C     45.836200   13.719900   78.230000
  H     44.822300   13.617700   77.802900
  H     46.282400   14.477600   77.584200
  C     45.785100   14.426900   79.656500
  H     45.348800   13.791500   80.509300
  H     45.232500   15.358000   79.532300
  H     46.854100   14.642400   79.951400
  H     43.462200    6.656250   77.031300
  H     49.130500   11.852200   74.273400

 Total Charge           Charge          ....    0
 Multiplicity           Mult            ....    1
 Number of Electrons    NEL             ....  134
 Basis Dimension        Dim             ....  322

ORBITAL ENERGIES
----------------

  NO   OCC          E(Eh)            E(eV)
   0   2.0000     -88.964368     -2420.8435
   1   2.0000     -88.962978     -2420.8057
   2   2.0000     -10.330901      -281.1181
   3   2.0000     -10.327427      -281.0236
   4   2.0000     -10.319584      -280.8102
   5   2.0000     -10.312382      -280.6142
   6   2.0000     -10.308552      -280.5100
   7   2.0000     -10.305529      -280.4277
   8   2.0000     -10.295508      -280.1550
   9   2.0000     -10.295231      -280.1475
  10   2.0000     -10.295059      -280.1428
  11   2.0000     -10.295028      -280.1419
  12   2.0000     -10.294223      -280.1200
  13   2.0000     -10.293484      -280.0999
  14   2.0000     -10.292578      -280.0753
  15   2.0000     -10.278505      -279.6923
  16   2.0000      -8.080434      -219.8798
  17   2.0000      -8.077488      -219.7996
  18   2.0000      -6.038772      -164.3233
  19   2.0000      -6.036152      -164.2520
  20   2.0000      -6.034631      -164.2107
  21   2.0000      -6.032231      -164.1453
  22   2.0000      -6.031405      -164.1229
  23   2.0000      -6.027885      -164.0271
  24   2.0000      -1.011548       -27.5256
  25   2.0000      -0.982784       -26.7429
  26   2.0000      -0.911066       -24.7914
  27   2.0000      -0.906549       -24.6685
  28   2.0000      -0.872927       -23.7536
  29   2.0000      -0.852160       -23.1885
  30   2.0000      -0.842145       -22.9159
  31   2.0000      -0.816751       -22.2249
  32   2.0000      -0.779602       -21.2140
  33   2.0000      -0.768872       -20.9221
  34   2.0000      -0.711200       -19.3527
  35   2.0000      -0.699441       -19.0328
  36   2.0000      -0.690892       -18.8001
  37   2.0000      -0.664400       -18.0792
  38   2.0000      -0.642771       -17.4907
  39   2.0000      -0.615123       -16.7384
  40   2.0000      -0.601227       -16.3602
  41   2.0000      -0.563100       -15.3227
  42   2.0000      -0.562307       -15.3012
  43   2.0000      -0.554581       -15.0909
  44   2.0000      -0.528662       -14.3856
  45   2.0000      -0.527320       -14.3491
  46   2.0000      -0.515464       -14.0265
  47   2.0000      -0.510554       -13.8929
  48   2.0000      -0.499918       -13.6035
  49   2.0000      -0.497131       -13.5276
  50   2.0000      -0.496609       -13.5134
  51   2.0000      -0.483134       -13.1467
  52   2.0000      -0.471797       -12.8383
  53   2.0000      -0.462620       -12.5885
  54   2.0000      -0.457333       -12.4447
  55   2.0000      -0.446780       -12.1575
  56   2.0000      -0.444652       -12.0996
  57   2.0000      -0.442468       -12.0402
  58   2.0000      -0.439008       -11.9460
  59   2.0000      -0.424519       -11.5517
  60   2.0000      -0.418376       -11.3846
  61   2.0000      -0.412711       -11.2304
  62   2.0000      -0.409930       -11.1548
  63   2.0000      -0.356600        -9.7036
  64   2.0000      -0.333406        -9.0724
  65   2.0000      -0.322398        -8.7729
  66   2.0000      -0.283040        -7.7019
  67   0.0000       0.023182         0.6308
  68   0.0000       0.071319         1.9407
  69   0.0000       0.102912         2.8004
  70   0.0000       0.121735         3.3126
  71   0.0000       0.131438         3.5766

MULLIKEN ATOMIC CHARGES
-----------------------
   0 S :    0.096468
   1 C :   -0.120803
   2 C :   -0.088622
   3 C :    0.050736
   4 C :   -0.146868
   5 H :   -0.018192
   6 C :    0.055368
   7 H :    0.046153
   8 H :    0.011899
   9 C :   -0.111141
  10 H :    0.041612
  11 H :    0.046162
  12 C :   -0.021284
  13 H :    0.046053
  14 H :    0.015856
  15 H :    0.020291
  16 S :    0.102300
  17 C :   -0.082794
  18 C :   -0.060418
  19 C :   -0.017109
  20 C :   -0.136133
  21 H :    0.033257
  22 C :    0.041249
  23 H :    0.009950
  24 H :    0.038892
  25 C :   -0.077002
  26 H :    0.029477
  27 H :    0.026893
  28 C :   -0.098192
  29 H :    0.053167
  30 H :    0.047180
  31 H :    0.040027
  32 H :    0.071317
  33 H :    0.054248
Sum of atomic charges:   -0.0000000

LOEWDIN ATOMIC CHARGES
----------------------
   0 S :    0.378407
   1 C :   -0.214264
   2 C :   -0.060324
   3 C :   -0.054622
   4 C :   -0.174406
   5 H :    0.022774
   6 C :   -0.039552
   7 H :    0.036384
   8 H :    0.027727
   9 C :   -0.046205
  10 H :    0.027607
  11 H :    0.033111
  12 C :   -0.064260
  13 H :    0.029760
  14 H :    0.017406
  15 H :    0.029410
  16 S :    0.436185
  17 C :   -0.199430
  18 C :   -0.074881
  19 C :   -0.065091
  20 C :   -0.197939
  21 H :    0.038650
  22 C :   -0.048863
  23 H :    0.032806
  24 H :    0.039293
  25 C :   -0.043126
  26 H :    0.018445
  27 H :    0.025254
  28 C :   -0.073078
  29 H :    0.033066
  30 H :    0.028038
  31 H :    0.028044
  32 H :    0.045283
  33 H :    0.028392

  Mayer bond orders larger than 0.100000
B(  0-S ,  1-C ) :   1.1350 B(  0-S ,  4-C ) :   1.1132 B(  1-C ,  2-C ) :   1.6299
B(  1-C , 32-H ) :   0.9591 B(  2-C ,  3-C ) :   1.1695 B(  2-C ,  6-C ) :   1.0263
B(  3-C ,  4-C ) :   1.6225 B(  3-C ,  5-H ) :   1.0031 B(  4-C , 20-C ) :   1.0583
B(  6-C ,  7-H ) :   0.9400 B(  6-C ,  8-H ) :   0.9382 B(  6-C ,  9-C ) :   1.0582
B(  9-C , 10-H ) :   0.9604 B(  9-C , 11-H ) :   0.9566 B(  9-C , 12-C ) :   1.0674
B( 12-C , 13-H ) :   0.9776 B( 12-C , 14-H ) :   0.9732 B( 12-C , 15-H ) :   0.9718
B( 16-S , 17-C ) :   1.1735 B( 16-S , 20-C ) :   1.1606 B( 17-C , 18-C ) :   1.5754
B( 17-C , 20-C ) :   0.1039 B( 17-C , 33-H ) :   0.9711 B( 18-C , 19-C ) :   1.2765
B( 18-C , 21-H ) :   0.9857 B( 19-C , 20-C ) :   1.5509 B( 19-C , 22-C ) :   1.0494
B( 22-C , 23-H ) :   0.9285 B( 22-C , 24-H ) :   0.9387 B( 22-C , 25-C ) :   1.0474
B( 25-C , 26-H ) :   0.9547 B( 25-C , 27-H ) :   0.9523 B( 25-C , 28-C ) :   1.0714
B( 28-C , 29-H ) :   0.9776 B( 28-C , 30-H ) :   0.9750 B( 28-C , 31-H ) :   0.9730

Dispersion correction           -0.013440641
FINAL SINGLE POINT ENERGY     -1339.862745275368

DIPOLE MOMENT
-------------
                                X             Y             Z
Electronic contribution:     19.80472     -17.22635     -18.80145
Nuclear contribution   :    -20.16081      17.71224      19.17183
                        -----------------------------------------
Total Dipole Moment    :     -0.35609       0.48588       0.37038
                        -----------------------------------------
Magnitude (a.u.)       :      0.70716
Magnitude (Debye)      :      1.79745

Rotational constants in cm-1:     0.015554     0.009210     0.006244
Rotational constants in MHz :   466.303098   276.122564   187.178209

                             ****ORCA TERMINATED NORMALLY****
TOTAL RUN TIME: 0 days 0 hours 0 minutes 29 seconds 347 msec
