                         Program Version 4.2.1 -  RELEASE  -
|  1> ! wB97X-D3 SP def2-SVP
|  2> %pal
|  3> nprocs 16
|  4> end
|  5>
|  6> * xyz 0 1
|  7> S 	 -9.52672 	 49.6554 	 42.4524
|  8> C 	 -11.2004 	 49.2697 	 42.684
|  9> C 	 -11.3655 	 47.8887 	 42.6505
| 10> C 	 -10.1714 	 47.1596 	 42.5309
| 11> C 	 -9.06049 	 47.9398 	 42.4553
| 12> H 	 -10.1201 	 46.1519 	 42.4538
| 13> C 	 -12.7341 	 47.1502 	 42.8208
| 14> H 	 -12.8281 	 46.3749 	 42.0687
| 15> H 	 -13.6684 	 47.8204 	 42.6395
| 16> C 	 -13.0333 	 46.5788 	 44.268
| 17> H 	 -14.1005 	 46.1373 	 44.2844
| 18> H 	 -12.3747 	 45.7092 	 44.4862
| 19> C 	 -12.937 	 47.6895 	 45.4032
| 20> H 	 -13.6437 	 48.5385 	 45.4471
| 21> H 	 -13.0872 	 47.1861 	 46.3593
| 22> H 	 -11.9609 	 48.2075 	 45.3554
| 23> S 	 -7.27942 	 48.0343 	 40.4457
| 24> C 	 -5.9768 	 46.9786 	 40.3822
| 25> C 	 -5.90174 	 46.2291 	 41.525
| 26> C 	 -6.92642 	 46.4759 	 42.4704
| 27> C 	 -7.74293 	 47.5062 	 42.003
| 28> H 	 -5.1254 	 45.4675 	 41.6486
| 29> C 	 -7.03685 	 45.8647 	 43.8507
| 30> H 	 -6.50106 	 44.8939 	 43.7712
| 31> H 	 -8.0859 	 45.4919 	 43.8962
| 32> C 	 -6.71127 	 46.7648 	 45.0153
| 33> H 	 -7.22682 	 47.7526 	 44.9909
| 34> H 	 -5.71505 	 47.0187 	 44.7992
| 35> C 	 -6.91528 	 46.0463 	 46.2889
| 36> H 	 -7.85105 	 45.4614 	 46.1906
| 37> H 	 -7.11906 	 46.7739 	 47.0876
| 38> H 	 -6.26951 	 45.2329 	 46.5842
| 39> H 	 -11.9576 	 49.9882 	 43.0194
| 40> H 	 -5.29056 	 46.8435 	 39.5426
| 41> *
| 42>
| 43>                          ****END OF INPUT****

CARTESIAN COORDINATES (ANGSTROEM)
---------------------------------
  S     -9.526720   49.655400   42.452400
  C    -11.200400   49.269700   42.684000
  C    -11.365500   47.888700   42.650500
  C    -10.171400   47.159600   42.530900
  C     -9.060490   47.939800   42.455300
  H    -10.120100   46.151900   42.453800
  C    -12.734100   47.150200   42.820800
  H    -12.828100   46.374900   42.068700
  H    -13.668400   47.820400   42.639500
  C    -13.033300   46.578800   44.268000
  H    -14.100500   46.137300   44.284400
  H    -12.374700   45.709200   44.486200
  C    -12.937000   47.689500   45.403200
  H    -13.643700   48.538500   45.447100
  H    -13.087200   47.186100   46.359300
  H    -11.960900   48.207500   45.355400
  S     -7.279420   48.034300   40.445700
  C     -5.976800   46.978600   40.382200
  C     -5.901740   46.229100   41.525000
  C     -6.926420   46.475900   42.470400
  C     -7.742930   47.506200   42.003000
  H     -5.125400   45.467500   41.648600
  C     -7.036850   45.864700   43.850700
  H     -6.501060   44.893900   43.771200
  H     -8.085900   45.491900   43.896200
  C     -6.711270   46.764800   45.015300
  H     -7.226820   47.752600   44.990900
  H     -5.715050   47.018700   44.799200
  C     -6.915280   46.046300   46.288900
  H     -7.851050   45.461400   46.190600
  H     -7.119060   46.773900   47.087600
  H     -6.269510   45.232900   46.584200
  H    -11.957600   49.988200   43.019400
  H     -5.290560   46.843500   39.542600

 Total Charge           Charge          ....    0
 Multiplicity           Mult            ....    1
 Number of Electrons    NEL             ....  134
 Basis Dimension        Dim             ....  322

ORBITAL ENERGIES
----------------

  NO   OCC          E(Eh)            E(eV)
   0   2.0000     -88.966270     -2420.8953
   1   2.0000     -88.964814     -2420.8557
   2   2.0000     -10.329093      -281.0689
   3   2.0000     -10.319609      -280.8108
   4   2.0000     -10.316699      -280.7317
   5   2.0000     -10.309042      -280.5233
   6   2.0000     -10.304134      -280.3898
   7   2.0000     -10.303736      -280.3789
   8   2.0000     -10.303597      -280.3751
   9   2.0000     -10.298504      -280.2365
  10   2.0000     -10.292047      -280.0608
  11   2.0000     -10.289033      -279.9788
  12   2.0000     -10.284969      -279.8682
  13   2.0000     -10.282489      -279.8007
  14   2.0000     -10.278613      -279.6953
  15   2.0000     -10.273814      -279.5647
  16   2.0000      -8.081554      -219.9103
  17   2.0000      -8.080903      -219.8926
  18   2.0000      -6.039759      -164.3502
  19   2.0000      -6.039391      -164.3402
  20   2.0000      -6.035577      -164.2364
  21   2.0000      -6.035351      -164.2302
  22   2.0000      -6.032710      -164.1584
  23   2.0000      -6.031769      -164.1328
  24   2.0000      -1.016980       -27.6734
  25   2.0000      -0.991295       -26.9745
  26   2.0000      -0.918914       -25.0049
  27   2.0000      -0.895024       -24.3548
  28   2.0000      -0.869847       -23.6697
  29   2.0000      -0.858200       -23.3528
  30   2.0000      -0.845047       -22.9949
  31   2.0000      -0.811393       -22.0791
  32   2.0000      -0.780542       -21.2396
  33   2.0000      -0.770349       -20.9623
  34   2.0000      -0.710076       -19.3221
  35   2.0000      -0.696904       -18.9637
  36   2.0000      -0.691161       -18.8075
  37   2.0000      -0.662242       -18.0205
  38   2.0000      -0.645589       -17.5674
  39   2.0000      -0.624156       -16.9842
  40   2.0000      -0.597525       -16.2595
  41   2.0000      -0.565392       -15.3851
  42   2.0000      -0.562511       -15.3067
  43   2.0000      -0.540121       -14.6974
  44   2.0000      -0.534605       -14.5473
  45   2.0000      -0.530488       -14.4353
  46   2.0000      -0.521232       -14.1834
  47   2.0000      -0.514949       -14.0125
  48   2.0000      -0.499972       -13.6049
  49   2.0000      -0.496771       -13.5178
  50   2.0000      -0.492058       -13.3896
  51   2.0000      -0.482906       -13.1406
  52   2.0000      -0.469061       -12.7638
  53   2.0000      -0.464799       -12.6478
  54   2.0000      -0.455020       -12.3817
  55   2.0000      -0.453060       -12.3284
  56   2.0000      -0.442497       -12.0410
  57   2.0000      -0.433499       -11.7961
  58   2.0000      -0.430682       -11.7195
  59   2.0000      -0.426175       -11.5968
  60   2.0000      -0.418502       -11.3880
  61   2.0000      -0.409908       -11.1542
  62   2.0000      -0.407481       -11.0881
  63   2.0000      -0.351865        -9.5747
  64   2.0000      -0.332335        -9.0433
  65   2.0000      -0.329909        -8.9773
  66   2.0000      -0.292827        -7.9682
  67   0.0000       0.035063         0.9541
  68   0.0000       0.065480         1.7818
  69   0.0000       0.120780         3.2866
  70   0.0000       0.127463         3.4684
  71   0.0000       0.130900         3.5620

MULLIKEN ATOMIC CHARGES
-----------------------
   0 S :    0.097293
   1 C :   -0.123312
   2 C :   -0.081161
   3 C :    0.092028
   4 C :   -0.158139
   5 H :   -0.026899
   6 C :    0.020431
   7 H :    0.033634
   8 H :    0.037833
   9 C :   -0.102902
  10 H :    0.044962
  11 H :    0.039359
  12 C :   -0.082704
  13 H :    0.030311
  14 H :    0.036850
  15 H :    0.050486
  16 S :    0.135344
  17 C :   -0.094306
  18 C :   -0.046090
  19 C :   -0.066861
  20 C :   -0.157690
  21 H :    0.012880
  22 C :    0.051248
  23 H :    0.019166
  24 H :    0.012523
  25 C :   -0.012382
  26 H :    0.043267
  27 H :    0.013890
  28 C :   -0.023478
  29 H :    0.011606
  30 H :    0.037282
  31 H :    0.031048
  32 H :    0.065578
  33 H :    0.058906
Sum of atomic charges:   -0.0000000

LOEWDIN ATOMIC CHARGES
----------------------
   0 S :    0.398722
   1 C :   -0.204564
   2 C :   -0.063819
   3 C :   -0.046355
   4 C :   -0.182839
   5 H :    0.015864
   6 C :   -0.040417
   7 H :    0.026811
   8 H :    0.037935
   9 C :   -0.045940
  10 H :    0.032186
  11 H :    0.023063
  12 C :   -0.079526
  13 H :    0.025087
  14 H :    0.027165
  15 H :    0.029402
  16 S :    0.463447
  17 C :   -0.217225
  18 C :   -0.078546
  19 C :   -0.061882
  20 C :   -0.217888
  21 H :    0.030258
  22 C :   -0.036570
  23 H :    0.033231
  24 H :    0.028274
  25 C :   -0.041279
  26 H :    0.038016
  27 H :    0.020700
  28 C :   -0.069919
  29 H :    0.027976
  30 H :    0.031623
  31 H :    0.026175
  32 H :    0.035886
  33 H :    0.034945

  Mayer bond orders larger than 0.100000
B(  0-S ,  1-C ) :   1.1439 B(  0-S ,  4-C ) :   1.1510 B(  1-C ,  2-C ) :   1.5905
B(  1-C ,  4-C ) :   0.1002 B(  1-C , 32-H ) :   0.9664 B(  2-C ,  3-C ) :   1.2588
B(  2-C ,  6-C ) :   1.0150 B(  3-C ,  4-C ) :   1.5586 B(  3-C ,  5-H ) :   1.0123
B(  4-C , 20-C ) :   1.0080 B(  6-C ,  7-H ) :   0.9471 B(  6-C ,  8-H ) :   0.9538
B(  6-C ,  9-C ) :   1.0567 B(  9-C , 10-H ) :   0.9589 B(  9-C , 11-H ) :   0.9601
B(  9-C , 12-C ) :   1.0553 B( 12-C , 13-H ) :   0.9784 B( 12-C , 14-H ) :   0.9764
B( 12-C , 15-H ) :   0.9750 B( 16-S , 17-C ) :   1.1837 B( 16-S , 20-C ) :   1.1850
B( 17-C , 18-C ) :   1.5654 B( 17-C , 33-H ) :   0.9666 B( 18-C , 19-C ) :   1.2932
B( 18-C , 21-H ) :   0.9903 B( 19-C , 20-C ) :   1.5494 B( 19-C , 22-C ) :   1.0451
B( 22-C , 23-H ) :   0.9316 B( 22-C , 24-H ) :   0.9162 B( 22-C , 25-C ) :   1.0588
B( 25-C , 26-H ) :   0.9505 B( 25-C , 27-H ) :   0.9476 B( 25-C , 28-C ) :   1.0843
B( 28-C , 29-H ) :   0.9678 B( 28-C , 30-H ) :   0.9713 B( 28-C , 31-H ) :   0.9719

Dispersion correction           -0.014773437
FINAL SINGLE POINT ENERGY     -1339.872483081054

DIPOLE MOMENT
-------------
                                X             Y             Z
Electronic contribution:     10.56814      13.07611     -22.58571
Nuclear contribution   :    -10.73374     -13.60959      22.83026
                        -----------------------------------------
Total Dipole Moment    :     -0.16560      -0.53347       0.24454
                        -----------------------------------------
Magnitude (a.u.)       :      0.60977
Magnitude (Debye)      :      1.54991

Rotational constants in cm-1:     0.018188     0.009436     0.007314
Rotational constants in MHz :   545.264711   282.884556   219.274138

                             ****ORCA TERMINATED NORMALLY****
TOTAL RUN TIME: 0 days 0 hours 0 minutes 33 seconds 242 msec
