                         Program Version 4.2.1 -  RELEASE  -
|  1> ! wB97X-D3 SP def2-SVP
|  2> %pal
|  3> nprocs 16
|  4> end
|  5>
|  6> * xyz 0 1
|  7> S 	 -17.6437 	 33.9903 	 40.665
|  8> C 	 -16.8186 	 34.7792 	 42.0032
|  9> C 	 -15.919 	 35.7289 	 41.6012
| 10> C 	 -15.6948 	 35.6383 	 40.1471
| 11> C 	 -16.603 	 34.7828 	 39.4814
| 12> H 	 -14.9689 	 36.1433 	 39.4818
| 13> C 	 -15.2197 	 36.767 	 42.4478
| 14> H 	 -15.9962 	 37.4526 	 42.823
| 15> H 	 -14.4355 	 37.2533 	 41.8863
| 16> C 	 -14.5544 	 36.2609 	 43.829
| 17> H 	 -14.2926 	 37.06 	 44.4689
| 18> H 	 -15.1435 	 35.5681 	 44.3573
| 19> C 	 -13.2728 	 35.5269 	 43.5585
| 20> H 	 -12.7358 	 35.2946 	 44.4485
| 21> H 	 -13.3256 	 34.5547 	 43.0358
| 22> H 	 -12.4716 	 36.1305 	 43.052
| 23> S 	 -18.1558 	 34.3763 	 37.2365
| 24> C 	 -17.345 	 33.9599 	 35.7541
| 25> C 	 -15.9679 	 33.7192 	 35.9643
| 26> C 	 -15.5535 	 33.9935 	 37.2596
| 27> C 	 -16.591 	 34.4532 	 38.0432
| 28> H 	 -15.3685 	 33.42 	 35.104
| 29> C 	 -14.0912 	 33.6723 	 37.6852
| 30> H 	 -13.8966 	 32.7461 	 37.1193
| 31> H 	 -14.0281 	 33.352 	 38.6852
| 32> C 	 -13.0347 	 34.7384 	 37.368
| 33> H 	 -13.4776 	 35.669 	 37.7655
| 34> H 	 -13.0338 	 34.781 	 36.3162
| 35> C 	 -11.6727 	 34.6199 	 38.0176
| 36> H 	 -11.13 	 33.7308 	 37.5991
| 37> H 	 -11.6983 	 34.5166 	 39.1188
| 38> H 	 -11.1013 	 35.4714 	 37.8857
| 39> H 	 -17.1354 	 34.5635 	 43.0098
| 40> H 	 -17.6496 	 33.9229 	 34.7154
| 41> *
| 42>
| 43>                          ****END OF INPUT****

CARTESIAN COORDINATES (ANGSTROEM)
---------------------------------
  S    -17.643700   33.990300   40.665000
  C    -16.818600   34.779200   42.003200
  C    -15.919000   35.728900   41.601200
  C    -15.694800   35.638300   40.147100
  C    -16.603000   34.782800   39.481400
  H    -14.968900   36.143300   39.481800
  C    -15.219700   36.767000   42.447800
  H    -15.996200   37.452600   42.823000
  H    -14.435500   37.253300   41.886300
  C    -14.554400   36.260900   43.829000
  H    -14.292600   37.060000   44.468900
  H    -15.143500   35.568100   44.357300
  C    -13.272800   35.526900   43.558500
  H    -12.735800   35.294600   44.448500
  H    -13.325600   34.554700   43.035800
  H    -12.471600   36.130500   43.052000
  S    -18.155800   34.376300   37.236500
  C    -17.345000   33.959900   35.754100
  C    -15.967900   33.719200   35.964300
  C    -15.553500   33.993500   37.259600
  C    -16.591000   34.453200   38.043200
  H    -15.368500   33.420000   35.104000
  C    -14.091200   33.672300   37.685200
  H    -13.896600   32.746100   37.119300
  H    -14.028100   33.352000   38.685200
  C    -13.034700   34.738400   37.368000
  H    -13.477600   35.669000   37.765500
  H    -13.033800   34.781000   36.316200
  C    -11.672700   34.619900   38.017600
  H    -11.130000   33.730800   37.599100
  H    -11.698300   34.516600   39.118800
  H    -11.101300   35.471400   37.885700
  H    -17.135400   34.563500   43.009800
  H    -17.649600   33.922900   34.715400

 Total Charge           Charge          ....    0
 Multiplicity           Mult            ....    1
 Number of Electrons    NEL             ....  134
 Basis Dimension        Dim             ....  322

ORBITAL ENERGIES
----------------

  NO   OCC          E(Eh)            E(eV)
   0   2.0000     -88.972624     -2421.0682
   1   2.0000     -88.964574     -2420.8491
   2   2.0000     -10.331844      -281.1438
   3   2.0000     -10.328203      -281.0447
   4   2.0000     -10.317686      -280.7585
   5   2.0000     -10.313616      -280.6478
   6   2.0000     -10.308658      -280.5128
   7   2.0000     -10.302244      -280.3383
   8   2.0000     -10.301398      -280.3153
   9   2.0000     -10.299254      -280.2570
  10   2.0000     -10.291823      -280.0547
  11   2.0000     -10.288929      -279.9760
  12   2.0000     -10.285576      -279.8848
  13   2.0000     -10.283888      -279.8388
  14   2.0000     -10.278522      -279.6928
  15   2.0000     -10.273453      -279.5549
  16   2.0000      -8.086849      -220.0543
  17   2.0000      -8.079026      -219.8415
  18   2.0000      -6.045316      -164.5014
  19   2.0000      -6.041506      -164.3977
  20   2.0000      -6.037707      -164.2944
  21   2.0000      -6.037610      -164.2917
  22   2.0000      -6.033563      -164.1816
  23   2.0000      -6.029657      -164.0753
  24   2.0000      -1.003909       -27.3178
  25   2.0000      -0.980237       -26.6736
  26   2.0000      -0.909699       -24.7542
  27   2.0000      -0.907457       -24.6932
  28   2.0000      -0.866286       -23.5728
  29   2.0000      -0.856919       -23.3180
  30   2.0000      -0.845029       -22.9944
  31   2.0000      -0.809248       -22.0208
  32   2.0000      -0.785562       -21.3762
  33   2.0000      -0.773574       -21.0500
  34   2.0000      -0.709066       -19.2947
  35   2.0000      -0.703804       -19.1515
  36   2.0000      -0.692985       -18.8571
  37   2.0000      -0.662835       -18.0367
  38   2.0000      -0.641472       -17.4553
  39   2.0000      -0.606697       -16.5091
  40   2.0000      -0.590876       -16.0786
  41   2.0000      -0.576057       -15.6753
  42   2.0000      -0.567268       -15.4362
  43   2.0000      -0.551463       -15.0061
  44   2.0000      -0.540423       -14.7057
  45   2.0000      -0.522992       -14.2313
  46   2.0000      -0.519003       -14.1228
  47   2.0000      -0.513958       -13.9855
  48   2.0000      -0.502538       -13.6748
  49   2.0000      -0.493331       -13.4242
  50   2.0000      -0.491958       -13.3869
  51   2.0000      -0.477158       -12.9841
  52   2.0000      -0.471239       -12.8231
  53   2.0000      -0.470881       -12.8133
  54   2.0000      -0.458779       -12.4840
  55   2.0000      -0.445564       -12.1244
  56   2.0000      -0.441736       -12.0203
  57   2.0000      -0.437438       -11.9033
  58   2.0000      -0.433482       -11.7956
  59   2.0000      -0.431053       -11.7295
  60   2.0000      -0.425349       -11.5743
  61   2.0000      -0.415417       -11.3041
  62   2.0000      -0.410090       -11.1591
  63   2.0000      -0.344955        -9.3867
  64   2.0000      -0.338574        -9.2131
  65   2.0000      -0.325684        -8.8623
  66   2.0000      -0.287979        -7.8363
  67   0.0000       0.030728         0.8362
  68   0.0000       0.062258         1.6941
  69   0.0000       0.106447         2.8966
  70   0.0000       0.121584         3.3085
  71   0.0000       0.124988         3.4011

MULLIKEN ATOMIC CHARGES
-----------------------
   0 S :    0.101387
   1 C :   -0.139948
   2 C :   -0.052809
   3 C :   -0.002158
   4 C :   -0.139294
   5 H :    0.018617
   6 C :    0.071341
   7 H :    0.053153
   8 H :    0.025340
   9 C :   -0.030533
  10 H :    0.024158
  11 H :    0.021109
  12 C :   -0.087833
  13 H :    0.015141
  14 H :    0.042569
  15 H :    0.020528
  16 S :    0.127179
  17 C :   -0.080904
  18 C :   -0.073377
  19 C :   -0.015184
  20 C :   -0.190940
  21 H :    0.022846
  22 C :    0.086765
  23 H :    0.019951
  24 H :    0.010546
  25 C :   -0.047528
  26 H :    0.018638
  27 H :    0.014776
  28 C :   -0.021669
  29 H :    0.035463
  30 H :    0.031560
  31 H :    0.022218
  32 H :    0.047594
  33 H :    0.051299
Sum of atomic charges:   -0.0000000

LOEWDIN ATOMIC CHARGES
----------------------
   0 S :    0.389249
   1 C :   -0.191733
   2 C :   -0.061255
   3 C :   -0.068471
   4 C :   -0.191631
   5 H :    0.033395
   6 C :   -0.023563
   7 H :    0.041492
   8 H :    0.028987
   9 C :   -0.030042
  10 H :    0.022912
  11 H :    0.018613
  12 C :   -0.077191
  13 H :    0.019509
  14 H :    0.027975
  15 H :    0.024403
  16 S :    0.416306
  17 C :   -0.195386
  18 C :   -0.072460
  19 C :   -0.055651
  20 C :   -0.195710
  21 H :    0.032812
  22 C :   -0.021416
  23 H :    0.031369
  24 H :    0.020864
  25 C :   -0.037520
  26 H :    0.022985
  27 H :    0.017911
  28 C :   -0.062077
  29 H :    0.030279
  30 H :    0.030537
  31 H :    0.018285
  32 H :    0.023347
  33 H :    0.032877

  Mayer bond orders larger than 0.100000
B(  0-S ,  1-C ) :   1.1298 B(  0-S ,  4-C ) :   1.1432 B(  1-C ,  2-C ) :   1.6233
B(  1-C , 32-H ) :   0.9714 B(  2-C ,  3-C ) :   1.1970 B(  2-C ,  6-C ) :   1.0228
B(  3-C ,  4-C ) :   1.6010 B(  3-C ,  5-H ) :   0.9878 B(  4-C , 20-C ) :   1.0360
B(  6-C ,  7-H ) :   0.9352 B(  6-C ,  8-H ) :   0.9484 B(  6-C ,  9-C ) :   1.0683
B(  9-C , 10-H ) :   0.9555 B(  9-C , 11-H ) :   0.9570 B(  9-C , 12-C ) :   1.0828
B( 12-C , 13-H ) :   0.9708 B( 12-C , 14-H ) :   0.9762 B( 12-C , 15-H ) :   0.9722
B( 16-S , 17-C ) :   1.1575 B( 16-S , 20-C ) :   1.1423 B( 17-C , 18-C ) :   1.6051
B( 17-C , 20-C ) :   0.1084 B( 17-C , 33-H ) :   0.9647 B( 18-C , 19-C ) :   1.2680
B( 18-C , 21-H ) :   0.9843 B( 19-C , 20-C ) :   1.5833 B( 19-C , 22-C ) :   1.0234
B( 22-C , 23-H ) :   0.9372 B( 22-C , 24-H ) :   0.9327 B( 22-C , 25-C ) :   1.0556
B( 25-C , 26-H ) :   0.9541 B( 25-C , 27-H ) :   0.9529 B( 25-C , 28-C ) :   1.0920
B( 28-C , 29-H ) :   0.9733 B( 28-C , 30-H ) :   0.9703 B( 28-C , 31-H ) :   0.9716

Dispersion correction           -0.014262885
FINAL SINGLE POINT ENERGY     -1339.866504945686

DIPOLE MOMENT
-------------
                                X             Y             Z
Electronic contribution:    -29.64740      -5.91766     -10.74481
Nuclear contribution   :     30.31539       6.08320      10.86275
                        -----------------------------------------
Total Dipole Moment    :      0.66799       0.16554       0.11794
                        -----------------------------------------
Magnitude (a.u.)       :      0.69823
Magnitude (Debye)      :      1.77475

Rotational constants in cm-1:     0.018065     0.009146     0.006490
Rotational constants in MHz :   541.582655   274.203862   194.578177

                             ****ORCA TERMINATED NORMALLY****
TOTAL RUN TIME: 0 days 0 hours 0 minutes 34 seconds 297 msec
