                         Program Version 4.2.1 -  RELEASE  -
|  1> ! wB97X-D3 SP def2-SVP
|  2> %pal
|  3> nprocs 16
|  4> end
|  5>
|  6> * xyz 0 1
|  7> S 	 -61.0361 	 57.4826 	 126.383
|  8> C 	 -62.7955 	 57.6867 	 126.46
|  9> C 	 -63.4242 	 56.9398 	 125.524
| 10> C 	 -62.5237 	 56.1272 	 124.815
| 11> C 	 -61.2258 	 56.351 	 125.102
| 12> H 	 -62.718 	 55.429 	 124.022
| 13> C 	 -64.9024 	 56.9264 	 125.317
| 14> H 	 -65.1987 	 57.3107 	 124.316
| 15> H 	 -65.2547 	 57.6342 	 126.058
| 16> C 	 -65.5987 	 55.5236 	 125.618
| 17> H 	 -65.7747 	 55.0509 	 124.686
| 18> H 	 -65.0237 	 54.8893 	 126.249
| 19> C 	 -67.0161 	 55.6713 	 126.365
| 20> H 	 -67.3108 	 54.6488 	 126.57
| 21> H 	 -66.9287 	 56.1161 	 127.38
| 22> H 	 -67.756 	 56.2189 	 125.754
| 23> S 	 -58.9269 	 56.8094 	 123.506
| 24> C 	 -57.9621 	 55.3744 	 122.998
| 25> C 	 -58.5603 	 54.1714 	 123.434
| 26> C 	 -59.6944 	 54.4386 	 124.236
| 27> C 	 -60.0439 	 55.8048 	 124.402
| 28> H 	 -58.1452 	 53.2729 	 123.138
| 29> C 	 -60.4399 	 53.2406 	 124.767
| 30> H 	 -60.3017 	 52.4791 	 124.038
| 31> H 	 -61.4933 	 53.4885 	 124.634
| 32> C 	 -60.0165 	 52.8664 	 126.173
| 33> H 	 -60.2082 	 53.8199 	 126.696
| 34> H 	 -58.9556 	 52.7766 	 126.252
| 35> C 	 -60.9213 	 51.6671 	 126.76
| 36> H 	 -61.861 	 52.0424 	 127.162
| 37> H 	 -60.3913 	 51.1418 	 127.592
| 38> H 	 -61.1163 	 50.9193 	 126.042
| 39> H 	 -63.3241 	 58.4601 	 126.997
| 40> H 	 -57.023 	 55.4953 	 122.403
| 41> *
| 42>
| 43>                          ****END OF INPUT****

CARTESIAN COORDINATES (ANGSTROEM)
---------------------------------
  S    -61.036100   57.482600  126.383000
  C    -62.795500   57.686700  126.460000
  C    -63.424200   56.939800  125.524000
  C    -62.523700   56.127200  124.815000
  C    -61.225800   56.351000  125.102000
  H    -62.718000   55.429000  124.022000
  C    -64.902400   56.926400  125.317000
  H    -65.198700   57.310700  124.316000
  H    -65.254700   57.634200  126.058000
  C    -65.598700   55.523600  125.618000
  H    -65.774700   55.050900  124.686000
  H    -65.023700   54.889300  126.249000
  C    -67.016100   55.671300  126.365000
  H    -67.310800   54.648800  126.570000
  H    -66.928700   56.116100  127.380000
  H    -67.756000   56.218900  125.754000
  S    -58.926900   56.809400  123.506000
  C    -57.962100   55.374400  122.998000
  C    -58.560300   54.171400  123.434000
  C    -59.694400   54.438600  124.236000
  C    -60.043900   55.804800  124.402000
  H    -58.145200   53.272900  123.138000
  C    -60.439900   53.240600  124.767000
  H    -60.301700   52.479100  124.038000
  H    -61.493300   53.488500  124.634000
  C    -60.016500   52.866400  126.173000
  H    -60.208200   53.819900  126.696000
  H    -58.955600   52.776600  126.252000
  C    -60.921300   51.667100  126.760000
  H    -61.861000   52.042400  127.162000
  H    -60.391300   51.141800  127.592000
  H    -61.116300   50.919300  126.042000
  H    -63.324100   58.460100  126.997000
  H    -57.023000   55.495300  122.403000

 Total Charge           Charge          ....    0
 Multiplicity           Mult            ....    1
 Number of Electrons    NEL             ....  134
 Basis Dimension        Dim             ....  322

ORBITAL ENERGIES
----------------

  NO   OCC          E(Eh)            E(eV)
   0   2.0000     -88.968624     -2420.9593
   1   2.0000     -88.964214     -2420.8393
   2   2.0000     -10.328890      -281.0634
   3   2.0000     -10.327826      -281.0344
   4   2.0000     -10.324815      -280.9525
   5   2.0000     -10.309612      -280.5388
   6   2.0000     -10.301252      -280.3113
   7   2.0000     -10.295184      -280.1462
   8   2.0000     -10.294401      -280.1249
   9   2.0000     -10.293385      -280.0972
  10   2.0000     -10.290811      -280.0272
  11   2.0000     -10.286714      -279.9157
  12   2.0000     -10.286089      -279.8987
  13   2.0000     -10.285478      -279.8821
  14   2.0000     -10.280977      -279.7596
  15   2.0000     -10.280671      -279.7513
  16   2.0000      -8.082229      -219.9286
  17   2.0000      -8.079341      -219.8501
  18   2.0000      -6.040713      -164.3762
  19   2.0000      -6.037779      -164.2963
  20   2.0000      -6.036771      -164.2689
  21   2.0000      -6.033864      -164.1898
  22   2.0000      -6.033215      -164.1721
  23   2.0000      -6.030072      -164.0866
  24   2.0000      -1.009534       -27.4708
  25   2.0000      -0.981532       -26.7089
  26   2.0000      -0.906986       -24.6803
  27   2.0000      -0.904064       -24.6008
  28   2.0000      -0.865381       -23.5482
  29   2.0000      -0.846478       -23.0338
  30   2.0000      -0.842348       -22.9215
  31   2.0000      -0.815161       -22.1817
  32   2.0000      -0.780853       -21.2481
  33   2.0000      -0.767218       -20.8771
  34   2.0000      -0.713398       -19.4125
  35   2.0000      -0.703444       -19.1417
  36   2.0000      -0.691314       -18.8116
  37   2.0000      -0.664289       -18.0762
  38   2.0000      -0.644798       -17.5459
  39   2.0000      -0.620840       -16.8939
  40   2.0000      -0.589689       -16.0463
  41   2.0000      -0.575918       -15.6715
  42   2.0000      -0.562564       -15.3081
  43   2.0000      -0.549996       -14.9662
  44   2.0000      -0.525894       -14.3103
  45   2.0000      -0.518579       -14.1112
  46   2.0000      -0.515815       -14.0361
  47   2.0000      -0.507931       -13.8215
  48   2.0000      -0.501131       -13.6365
  49   2.0000      -0.496416       -13.5082
  50   2.0000      -0.486751       -13.2452
  51   2.0000      -0.483738       -13.1632
  52   2.0000      -0.470808       -12.8113
  53   2.0000      -0.467429       -12.7194
  54   2.0000      -0.460260       -12.5243
  55   2.0000      -0.448107       -12.1936
  56   2.0000      -0.442584       -12.0433
  57   2.0000      -0.441448       -12.0124
  58   2.0000      -0.438710       -11.9379
  59   2.0000      -0.426320       -11.6008
  60   2.0000      -0.419851       -11.4247
  61   2.0000      -0.413698       -11.2573
  62   2.0000      -0.410987       -11.1835
  63   2.0000      -0.341566        -9.2945
  64   2.0000      -0.331422        -9.0184
  65   2.0000      -0.330350        -8.9893
  66   2.0000      -0.296624        -8.0715
  67   0.0000       0.032864         0.8943
  68   0.0000       0.067285         1.8309
  69   0.0000       0.113172         3.0796
  70   0.0000       0.123684         3.3656
  71   0.0000       0.129587         3.5262

MULLIKEN ATOMIC CHARGES
-----------------------
   0 S :    0.109622
   1 C :   -0.118710
   2 C :   -0.099565
   3 C :    0.052724
   4 C :   -0.179153
   5 H :    0.006586
   6 C :    0.087410
   7 H :    0.046939
   8 H :    0.005206
   9 C :   -0.065324
  10 H :    0.030436
  11 H :    0.032950
  12 C :   -0.091408
  13 H :    0.032621
  14 H :    0.041866
  15 H :    0.047237
  16 S :    0.109595
  17 C :   -0.134158
  18 C :    0.010326
  19 C :   -0.085103
  20 C :   -0.140875
  21 H :   -0.002881
  22 C :    0.107251
  23 H :    0.001142
  24 H :    0.003477
  25 C :   -0.051879
  26 H :    0.031867
  27 H :    0.021758
  28 C :   -0.033937
  29 H :    0.039977
  30 H :    0.036929
  31 H :    0.024791
  32 H :    0.043112
  33 H :    0.079171
Sum of atomic charges:   -0.0000000

LOEWDIN ATOMIC CHARGES
----------------------
   0 S :    0.404602
   1 C :   -0.190590
   2 C :   -0.067343
   3 C :   -0.062925
   4 C :   -0.196907
   5 H :    0.030150
   6 C :   -0.028835
   7 H :    0.036831
   8 H :    0.026216
   9 C :   -0.026705
  10 H :    0.019141
  11 H :    0.020911
  12 C :   -0.068021
  13 H :    0.024780
  14 H :    0.027606
  15 H :    0.026228
  16 S :    0.395434
  17 C :   -0.174934
  18 C :   -0.059997
  19 C :   -0.051802
  20 C :   -0.214070
  21 H :    0.022272
  22 C :   -0.033707
  23 H :    0.019469
  24 H :    0.026876
  25 C :   -0.034229
  26 H :    0.031571
  27 H :    0.020475
  28 C :   -0.062845
  29 H :    0.028416
  30 H :    0.031057
  31 H :    0.016748
  32 H :    0.027169
  33 H :    0.036960

  Mayer bond orders larger than 0.100000
B(  0-S ,  1-C ) :   1.1198 B(  0-S ,  4-C ) :   1.1508 B(  1-C ,  2-C ) :   1.6545
B(  1-C , 32-H ) :   0.9591 B(  2-C ,  3-C ) :   1.2045 B(  2-C ,  6-C ) :   1.0370
B(  3-C ,  4-C ) :   1.6200 B(  3-C ,  5-H ) :   0.9951 B(  4-C , 20-C ) :   1.0108
B(  6-C ,  7-H ) :   0.9362 B(  6-C ,  8-H ) :   0.9416 B(  6-C ,  9-C ) :   1.0375
B(  9-C , 10-H ) :   0.9571 B(  9-C , 11-H ) :   0.9670 B(  9-C , 12-C ) :   1.0846
B( 12-C , 13-H ) :   0.9775 B( 12-C , 14-H ) :   0.9761 B( 12-C , 15-H ) :   0.9789
B( 16-S , 17-C ) :   1.1693 B( 16-S , 20-C ) :   1.1468 B( 17-C , 18-C ) :   1.5634
B( 17-C , 20-C ) :   0.1092 B( 17-C , 33-H ) :   0.9619 B( 18-C , 19-C ) :   1.2718
B( 18-C , 21-H ) :   1.0051 B( 19-C , 20-C ) :   1.5560 B( 19-C , 22-C ) :   1.0379
B( 22-C , 23-H ) :   0.9258 B( 22-C , 24-H ) :   0.9267 B( 22-C , 25-C ) :   1.0521
B( 25-C , 26-H ) :   0.9586 B( 25-C , 27-H ) :   0.9614 B( 25-C , 28-C ) :   1.0538
B( 28-C , 29-H ) :   0.9785 B( 28-C , 30-H ) :   0.9788 B( 28-C , 31-H ) :   0.9796

Dispersion correction           -0.014182589
FINAL SINGLE POINT ENERGY     -1339.870533433488

DIPOLE MOMENT
-------------
                                X             Y             Z
Electronic contribution:     21.83605      18.81481      -7.50987
Nuclear contribution   :    -22.26427     -19.28845       7.34615
                        -----------------------------------------
Total Dipole Moment    :     -0.42822      -0.47364      -0.16372
                        -----------------------------------------
Magnitude (a.u.)       :      0.65918
Magnitude (Debye)      :      1.67549

Rotational constants in cm-1:     0.018081     0.008523     0.006760
Rotational constants in MHz :   542.043837   255.517649   202.662773

                             ****ORCA TERMINATED NORMALLY****
TOTAL RUN TIME: 0 days 0 hours 0 minutes 33 seconds 377 msec
