                         Program Version 4.2.1 -  RELEASE  -
|  1> ! wB97X-D3 SP def2-SVP
|  2> %pal
|  3> nprocs 16
|  4> end
|  5>
|  6> * xyz 0 1
|  7> S 	 -12.591 	 74.0238 	 53.7021
|  8> C 	 -13.8054 	 75.2424 	 53.7468
|  9> C 	 -15.0662 	 74.7133 	 53.5966
| 10> C 	 -15.0532 	 73.2667 	 53.6511
| 11> C 	 -13.8048 	 72.7384 	 53.6346
| 12> H 	 -15.8639 	 72.5758 	 53.6023
| 13> C 	 -16.3765 	 75.4432 	 53.4269
| 14> H 	 -16.1737 	 76.0652 	 52.5521
| 15> H 	 -16.5715 	 76.1412 	 54.2729
| 16> C 	 -17.6636 	 74.7074 	 53.1839
| 17> H 	 -17.6446 	 74.1631 	 52.2545
| 18> H 	 -17.801 	 73.9313 	 54.008
| 19> C 	 -18.8395 	 75.6289 	 53.0555
| 20> H 	 -19.0833 	 76.3735 	 53.8608
| 21> H 	 -18.6423 	 76.168 	 52.0496
| 22> H 	 -19.7369 	 74.938 	 53.0506
| 23> S 	 -11.8162 	 70.9729 	 54.0176
| 24> C 	 -11.8954 	 69.2952 	 53.5843
| 25> C 	 -13.0948 	 69.0503 	 52.888
| 26> C 	 -13.927 	 70.2158 	 52.6528
| 27> C 	 -13.3983 	 71.3142 	 53.352
| 28> H 	 -13.2435 	 68.1005 	 52.3596
| 29> C 	 -15.1334 	 70.1561 	 51.8138
| 30> H 	 -14.9111 	 69.3555 	 51.0053
| 31> H 	 -15.3588 	 71.138 	 51.3473
| 32> C 	 -16.4114 	 69.6915 	 52.5726
| 33> H 	 -16.6499 	 70.3617 	 53.4247
| 34> H 	 -16.3232 	 68.6597 	 52.9744
| 35> C 	 -17.6576 	 69.726 	 51.7204
| 36> H 	 -17.5861 	 69.0023 	 50.9345
| 37> H 	 -17.8584 	 70.7416 	 51.299
| 38> H 	 -18.5731 	 69.4728 	 52.3399
| 39> H 	 -13.6908 	 76.3258 	 53.8306
| 40> H 	 -11.1623 	 68.5872 	 53.9232
| 41> *
| 42>
| 43>                          ****END OF INPUT****

CARTESIAN COORDINATES (ANGSTROEM)
---------------------------------
  S    -12.591000   74.023800   53.702100
  C    -13.805400   75.242400   53.746800
  C    -15.066200   74.713300   53.596600
  C    -15.053200   73.266700   53.651100
  C    -13.804800   72.738400   53.634600
  H    -15.863900   72.575800   53.602300
  C    -16.376500   75.443200   53.426900
  H    -16.173700   76.065200   52.552100
  H    -16.571500   76.141200   54.272900
  C    -17.663600   74.707400   53.183900
  H    -17.644600   74.163100   52.254500
  H    -17.801000   73.931300   54.008000
  C    -18.839500   75.628900   53.055500
  H    -19.083300   76.373500   53.860800
  H    -18.642300   76.168000   52.049600
  H    -19.736900   74.938000   53.050600
  S    -11.816200   70.972900   54.017600
  C    -11.895400   69.295200   53.584300
  C    -13.094800   69.050300   52.888000
  C    -13.927000   70.215800   52.652800
  C    -13.398300   71.314200   53.352000
  H    -13.243500   68.100500   52.359600
  C    -15.133400   70.156100   51.813800
  H    -14.911100   69.355500   51.005300
  H    -15.358800   71.138000   51.347300
  C    -16.411400   69.691500   52.572600
  H    -16.649900   70.361700   53.424700
  H    -16.323200   68.659700   52.974400
  C    -17.657600   69.726000   51.720400
  H    -17.586100   69.002300   50.934500
  H    -17.858400   70.741600   51.299000
  H    -18.573100   69.472800   52.339900
  H    -13.690800   76.325800   53.830600
  H    -11.162300   68.587200   53.923200

 Total Charge           Charge          ....    0
 Multiplicity           Mult            ....    1
 Number of Electrons    NEL             ....  134
 Basis Dimension        Dim             ....  322

ORBITAL ENERGIES
----------------

  NO   OCC          E(Eh)            E(eV)
   0   2.0000     -88.965101     -2420.8635
   1   2.0000     -88.963557     -2420.8215
   2   2.0000     -10.333282      -281.1829
   3   2.0000     -10.330228      -281.0998
   4   2.0000     -10.320284      -280.8292
   5   2.0000     -10.311481      -280.5897
   6   2.0000     -10.308849      -280.5181
   7   2.0000     -10.304244      -280.3927
   8   2.0000     -10.301583      -280.3203
   9   2.0000     -10.300594      -280.2934
  10   2.0000     -10.294558      -280.1292
  11   2.0000     -10.292979      -280.0862
  12   2.0000     -10.291772      -280.0534
  13   2.0000     -10.291064      -280.0341
  14   2.0000     -10.289003      -279.9780
  15   2.0000     -10.283218      -279.8206
  16   2.0000      -8.079937      -219.8663
  17   2.0000      -8.078843      -219.8365
  18   2.0000      -6.038657      -164.3202
  19   2.0000      -6.037272      -164.2825
  20   2.0000      -6.034418      -164.2049
  21   2.0000      -6.033193      -164.1715
  22   2.0000      -6.030495      -164.0981
  23   2.0000      -6.029747      -164.0778
  24   2.0000      -1.006258       -27.3817
  25   2.0000      -0.984358       -26.7858
  26   2.0000      -0.919364       -25.0172
  27   2.0000      -0.913190       -24.8492
  28   2.0000      -0.867996       -23.6194
  29   2.0000      -0.857672       -23.3385
  30   2.0000      -0.847760       -23.0687
  31   2.0000      -0.816240       -22.2110
  32   2.0000      -0.778220       -21.1764
  33   2.0000      -0.769670       -20.9438
  34   2.0000      -0.703666       -19.1477
  35   2.0000      -0.693582       -18.8733
  36   2.0000      -0.684967       -18.6389
  37   2.0000      -0.664459       -18.0808
  38   2.0000      -0.640947       -17.4411
  39   2.0000      -0.620867       -16.8946
  40   2.0000      -0.599500       -16.3132
  41   2.0000      -0.579210       -15.7611
  42   2.0000      -0.569389       -15.4939
  43   2.0000      -0.562596       -15.3090
  44   2.0000      -0.525598       -14.3023
  45   2.0000      -0.524712       -14.2781
  46   2.0000      -0.514783       -14.0080
  47   2.0000      -0.512226       -13.9384
  48   2.0000      -0.507248       -13.8029
  49   2.0000      -0.501165       -13.6374
  50   2.0000      -0.492046       -13.3893
  51   2.0000      -0.483923       -13.1682
  52   2.0000      -0.469546       -12.7770
  53   2.0000      -0.465538       -12.6679
  54   2.0000      -0.458510       -12.4767
  55   2.0000      -0.448774       -12.2118
  56   2.0000      -0.441824       -12.0226
  57   2.0000      -0.433353       -11.7921
  58   2.0000      -0.432326       -11.7642
  59   2.0000      -0.429189       -11.6788
  60   2.0000      -0.423973       -11.5369
  61   2.0000      -0.416362       -11.3298
  62   2.0000      -0.413220       -11.2443
  63   2.0000      -0.354877        -9.6567
  64   2.0000      -0.331736        -9.0270
  65   2.0000      -0.325027        -8.8444
  66   2.0000      -0.285741        -7.7754
  67   0.0000       0.025836         0.7030
  68   0.0000       0.078100         2.1252
  69   0.0000       0.099426         2.7055
  70   0.0000       0.115855         3.1526
  71   0.0000       0.123766         3.3678

MULLIKEN ATOMIC CHARGES
-----------------------
   0 S :    0.105478
   1 C :   -0.107641
   2 C :   -0.081074
   3 C :   -0.004391
   4 C :   -0.069306
   5 H :   -0.021481
   6 C :    0.042542
   7 H :    0.027894
   8 H :    0.039988
   9 C :   -0.099146
  10 H :    0.029133
  11 H :    0.041659
  12 C :   -0.079741
  13 H :    0.046478
  14 H :    0.047353
  15 H :    0.044450
  16 S :    0.086518
  17 C :   -0.087341
  18 C :   -0.043653
  19 C :   -0.027430
  20 C :   -0.152168
  21 H :    0.028194
  22 C :    0.018664
  23 H :    0.041678
  24 H :    0.038196
  25 C :   -0.096581
  26 H :    0.039015
  27 H :    0.034654
  28 C :   -0.050707
  29 H :    0.025589
  30 H :    0.032132
  31 H :    0.041654
  32 H :    0.045434
  33 H :    0.063957
Sum of atomic charges:   -0.0000000

LOEWDIN ATOMIC CHARGES
----------------------
   0 S :    0.401053
   1 C :   -0.210439
   2 C :   -0.060830
   3 C :   -0.070963
   4 C :   -0.183159
   5 H :    0.023473
   6 C :   -0.044137
   7 H :    0.034696
   8 H :    0.036850
   9 C :   -0.054271
  10 H :    0.024087
  11 H :    0.026573
  12 C :   -0.074027
  13 H :    0.027562
  14 H :    0.037557
  15 H :    0.035348
  16 S :    0.411722
  17 C :   -0.189285
  18 C :   -0.072738
  19 C :   -0.061894
  20 C :   -0.187249
  21 H :    0.031991
  22 C :   -0.039038
  23 H :    0.044241
  24 H :    0.035682
  25 C :   -0.046095
  26 H :    0.024060
  27 H :    0.028541
  28 C :   -0.069708
  29 H :    0.017568
  30 H :    0.025260
  31 H :    0.033978
  32 H :    0.034893
  33 H :    0.028701

  Mayer bond orders larger than 0.100000
B(  0-S ,  1-C ) :   1.1263 B(  0-S ,  4-C ) :   1.1392 B(  1-C ,  2-C ) :   1.6421
B(  1-C , 32-H ) :   0.9696 B(  2-C ,  3-C ) :   1.2173 B(  2-C ,  6-C ) :   0.9997
B(  3-C ,  4-C ) :   1.6110 B(  3-C ,  5-H ) :   1.0010 B(  4-C , 20-C ) :   1.0122
B(  6-C ,  7-H ) :   0.9314 B(  6-C ,  8-H ) :   0.9387 B(  6-C ,  9-C ) :   1.1001
B(  9-C , 10-H ) :   0.9460 B(  9-C , 11-H ) :   0.9412 B(  9-C , 12-C ) :   1.0777
B( 12-C , 13-H ) :   0.9750 B( 12-C , 14-H ) :   0.9716 B( 12-C , 15-H ) :   0.9714
B( 16-S , 17-C ) :   1.1664 B( 16-S , 20-C ) :   1.1545 B( 17-C , 18-C ) :   1.5881
B( 17-C , 20-C ) :   0.1002 B( 17-C , 33-H ) :   0.9737 B( 18-C , 19-C ) :   1.2484
B( 18-C , 21-H ) :   0.9796 B( 19-C , 20-C ) :   1.5675 B( 19-C , 22-C ) :   1.0633
B( 22-C , 23-H ) :   0.9273 B( 22-C , 24-H ) :   0.9338 B( 22-C , 25-C ) :   1.0637
B( 25-C , 26-H ) :   0.9542 B( 25-C , 27-H ) :   0.9495 B( 25-C , 28-C ) :   1.0895
B( 28-C , 29-H ) :   0.9738 B( 28-C , 30-H ) :   0.9720 B( 28-C , 31-H ) :   0.9723

Dispersion correction           -0.013983487
FINAL SINGLE POINT ENERGY     -1339.878797506628

DIPOLE MOMENT
-------------
                                X             Y             Z
Electronic contribution:     33.19792      -0.68329       8.44779
Nuclear contribution   :    -33.88747       0.55989      -8.73923
                        -----------------------------------------
Total Dipole Moment    :     -0.68955      -0.12340      -0.29144
                        -----------------------------------------
Magnitude (a.u.)       :      0.75871
Magnitude (Debye)      :      1.92850

Rotational constants in cm-1:     0.016791     0.009861     0.006385
Rotational constants in MHz :   503.389961   295.613728   191.417207

                             ****ORCA TERMINATED NORMALLY****
TOTAL RUN TIME: 0 days 0 hours 0 minutes 34 seconds 580 msec
