                         Program Version 4.2.1 -  RELEASE  -
|  1> ! wB97X-D3 SP def2-SVP
|  2> %pal
|  3> nprocs 16
|  4> end
|  5>
|  6> * xyz 0 1
|  7> S 	 44.6608 	 21.9337 	 91.5773
|  8> C 	 45.0871 	 22.0834 	 93.2831
|  9> C 	 45.5546 	 23.339 	 93.527
| 10> C 	 45.4666 	 24.2675 	 92.3917
| 11> C 	 44.8973 	 23.6518 	 91.306
| 12> H 	 45.6728 	 25.3047 	 92.3706
| 13> C 	 46.1259 	 23.8554 	 94.8234
| 14> H 	 45.6171 	 23.4104 	 95.7034
| 15> H 	 45.8034 	 24.9287 	 94.8634
| 16> C 	 47.639 	 23.654 	 94.9278
| 17> H 	 47.89 	 22.5991 	 94.5719
| 18> H 	 48.2068 	 24.3964 	 94.3935
| 19> C 	 48.2107 	 23.7952 	 96.3707
| 20> H 	 49.2925 	 23.6002 	 96.2822
| 21> H 	 48.14 	 24.7905 	 96.6675
| 22> H 	 47.698 	 23.2146 	 97.0955
| 23> S 	 45.5927 	 24.009 	 88.7652
| 24> C 	 44.9617 	 25.4113 	 87.9296
| 25> C 	 43.8279 	 25.9307 	 88.5418
| 26> C 	 43.6238 	 25.2498 	 89.761
| 27> C 	 44.5721 	 24.2526 	 90.0764
| 28> H 	 43.2676 	 26.6889 	 88.016
| 29> C 	 42.4063 	 25.5207 	 90.5429
| 30> H 	 42.1758 	 26.5815 	 90.5084
| 31> H 	 42.6493 	 25.2865 	 91.5968
| 32> C 	 41.1294 	 24.735 	 90.1323
| 33> H 	 41.3029 	 23.6444 	 90.0807
| 34> H 	 40.7205 	 25.0472 	 89.1781
| 35> C 	 40.0523 	 24.9196 	 91.175
| 36> H 	 40.5286 	 24.6995 	 92.0941
| 37> H 	 39.1249 	 24.382 	 90.8839
| 38> H 	 39.8173 	 25.9942 	 91.3199
| 39> H 	 45.034 	 21.3376 	 93.9906
| 40> H 	 45.2234 	 25.6573 	 86.8903
| 41> *
| 42>
| 43>                          ****END OF INPUT****

CARTESIAN COORDINATES (ANGSTROEM)
---------------------------------
  S     44.660800   21.933700   91.577300
  C     45.087100   22.083400   93.283100
  C     45.554600   23.339000   93.527000
  C     45.466600   24.267500   92.391700
  C     44.897300   23.651800   91.306000
  H     45.672800   25.304700   92.370600
  C     46.125900   23.855400   94.823400
  H     45.617100   23.410400   95.703400
  H     45.803400   24.928700   94.863400
  C     47.639000   23.654000   94.927800
  H     47.890000   22.599100   94.571900
  H     48.206800   24.396400   94.393500
  C     48.210700   23.795200   96.370700
  H     49.292500   23.600200   96.282200
  H     48.140000   24.790500   96.667500
  H     47.698000   23.214600   97.095500
  S     45.592700   24.009000   88.765200
  C     44.961700   25.411300   87.929600
  C     43.827900   25.930700   88.541800
  C     43.623800   25.249800   89.761000
  C     44.572100   24.252600   90.076400
  H     43.267600   26.688900   88.016000
  C     42.406300   25.520700   90.542900
  H     42.175800   26.581500   90.508400
  H     42.649300   25.286500   91.596800
  C     41.129400   24.735000   90.132300
  H     41.302900   23.644400   90.080700
  H     40.720500   25.047200   89.178100
  C     40.052300   24.919600   91.175000
  H     40.528600   24.699500   92.094100
  H     39.124900   24.382000   90.883900
  H     39.817300   25.994200   91.319900
  H     45.034000   21.337600   93.990600
  H     45.223400   25.657300   86.890300

 Total Charge           Charge          ....    0
 Multiplicity           Mult            ....    1
 Number of Electrons    NEL             ....  134
 Basis Dimension        Dim             ....  322

ORBITAL ENERGIES
----------------

  NO   OCC          E(Eh)            E(eV)
   0   2.0000     -88.964642     -2420.8510
   1   2.0000     -88.962011     -2420.7794
   2   2.0000     -10.325185      -280.9626
   3   2.0000     -10.317008      -280.7401
   4   2.0000     -10.315457      -280.6979
   5   2.0000     -10.308669      -280.5131
   6   2.0000     -10.301247      -280.3112
   7   2.0000     -10.299418      -280.2614
   8   2.0000     -10.294379      -280.1243
   9   2.0000     -10.293518      -280.1009
  10   2.0000     -10.293283      -280.0945
  11   2.0000     -10.290068      -280.0070
  12   2.0000     -10.284787      -279.8633
  13   2.0000     -10.281173      -279.7649
  14   2.0000     -10.271673      -279.5064
  15   2.0000     -10.271291      -279.4960
  16   2.0000      -8.080859      -219.8913
  17   2.0000      -8.076826      -219.7816
  18   2.0000      -6.039176      -164.3343
  19   2.0000      -6.035464      -164.2333
  20   2.0000      -6.035058      -164.2223
  21   2.0000      -6.031813      -164.1340
  22   2.0000      -6.031383      -164.1223
  23   2.0000      -6.027382      -164.0134
  24   2.0000      -1.014570       -27.6078
  25   2.0000      -0.985357       -26.8129
  26   2.0000      -0.911551       -24.8046
  27   2.0000      -0.909080       -24.7373
  28   2.0000      -0.877248       -23.8711
  29   2.0000      -0.854913       -23.2634
  30   2.0000      -0.846523       -23.0351
  31   2.0000      -0.818816       -22.2811
  32   2.0000      -0.779756       -21.2182
  33   2.0000      -0.763989       -20.7892
  34   2.0000      -0.707236       -19.2449
  35   2.0000      -0.697353       -18.9759
  36   2.0000      -0.691952       -18.8290
  37   2.0000      -0.664532       -18.0828
  38   2.0000      -0.649621       -17.6771
  39   2.0000      -0.618205       -16.8222
  40   2.0000      -0.594580       -16.1793
  41   2.0000      -0.572220       -15.5709
  42   2.0000      -0.566080       -15.4038
  43   2.0000      -0.559980       -15.2378
  44   2.0000      -0.529965       -14.4211
  45   2.0000      -0.527267       -14.3477
  46   2.0000      -0.521865       -14.2007
  47   2.0000      -0.514462       -13.9992
  48   2.0000      -0.513384       -13.9699
  49   2.0000      -0.506087       -13.7713
  50   2.0000      -0.492893       -13.4123
  51   2.0000      -0.471491       -12.8299
  52   2.0000      -0.468139       -12.7387
  53   2.0000      -0.461592       -12.5606
  54   2.0000      -0.457449       -12.4478
  55   2.0000      -0.449431       -12.2296
  56   2.0000      -0.443756       -12.0752
  57   2.0000      -0.433638       -11.7999
  58   2.0000      -0.432219       -11.7613
  59   2.0000      -0.421693       -11.4748
  60   2.0000      -0.419479       -11.4146
  61   2.0000      -0.413971       -11.2647
  62   2.0000      -0.412333       -11.2201
  63   2.0000      -0.343142        -9.3374
  64   2.0000      -0.327438        -8.9100
  65   2.0000      -0.322722        -8.7817
  66   2.0000      -0.299098        -8.1389
  67   0.0000       0.040931         1.1138
  68   0.0000       0.055427         1.5082
  69   0.0000       0.112325         3.0565
  70   0.0000       0.123169         3.3516
  71   0.0000       0.126937         3.4541

MULLIKEN ATOMIC CHARGES
-----------------------
   0 S :    0.096036
   1 C :   -0.074996
   2 C :   -0.094299
   3 C :    0.068007
   4 C :   -0.168440
   5 H :    0.004580
   6 C :    0.048596
   7 H :    0.022284
   8 H :    0.028306
   9 C :   -0.087823
  10 H :    0.043226
  11 H :    0.030400
  12 C :   -0.020808
  13 H :    0.038471
  14 H :    0.010868
  15 H :    0.025396
  16 S :    0.128118
  17 C :   -0.111772
  18 C :   -0.031491
  19 C :   -0.027198
  20 C :   -0.148505
  21 H :    0.023663
  22 C :    0.039782
  23 H :    0.016002
  24 H :    0.022311
  25 C :   -0.055930
  26 H :    0.034893
  27 H :    0.017929
  28 C :   -0.025204
  29 H :    0.014102
  30 H :    0.047927
  31 H :    0.013825
  32 H :    0.010911
  33 H :    0.060834
Sum of atomic charges:   -0.0000000

LOEWDIN ATOMIC CHARGES
----------------------
   0 S :    0.386373
   1 C :   -0.179294
   2 C :   -0.056907
   3 C :   -0.049211
   4 C :   -0.191270
   5 H :    0.028927
   6 C :   -0.042026
   7 H :    0.029862
   8 H :    0.033737
   9 C :   -0.038507
  10 H :    0.031513
  11 H :    0.023800
  12 C :   -0.058330
  13 H :    0.032738
  14 H :    0.014497
  15 H :    0.016559
  16 S :    0.447836
  17 C :   -0.188679
  18 C :   -0.067848
  19 C :   -0.053652
  20 C :   -0.239515
  21 H :    0.036681
  22 C :   -0.036877
  23 H :    0.027439
  24 H :    0.031321
  25 C :   -0.035633
  26 H :    0.027778
  27 H :    0.017687
  28 C :   -0.065342
  29 H :    0.018692
  30 H :    0.032043
  31 H :    0.022659
  32 H :    0.013561
  33 H :    0.029389

  Mayer bond orders larger than 0.100000
B(  0-S ,  1-C ) :   1.1080 B(  0-S ,  4-C ) :   1.1380 B(  1-C ,  2-C ) :   1.6532
B(  1-C , 32-H ) :   0.9839 B(  2-C ,  3-C ) :   1.1819 B(  2-C ,  6-C ) :   1.0314
B(  3-C ,  4-C ) :   1.6185 B(  3-C ,  5-H ) :   1.0023 B(  4-C , 20-C ) :   1.0181
B(  6-C ,  7-H ) :   0.9459 B(  6-C ,  8-H ) :   0.9364 B(  6-C ,  9-C ) :   1.0547
B(  9-C , 10-H ) :   0.9618 B(  9-C , 11-H ) :   0.9548 B(  9-C , 12-C ) :   1.0823
B( 12-C , 13-H ) :   0.9751 B( 12-C , 14-H ) :   0.9741 B( 12-C , 15-H ) :   0.9772
B( 16-S , 17-C ) :   1.1870 B( 16-S , 20-C ) :   1.1659 B( 17-C , 18-C ) :   1.5649
B( 17-C , 20-C ) :   0.1086 B( 17-C , 33-H ) :   0.9612 B( 18-C , 19-C ) :   1.2653
B( 18-C , 21-H ) :   1.0002 B( 19-C , 20-C ) :   1.5387 B( 19-C , 22-C ) :   1.0753
B( 22-C , 23-H ) :   0.9282 B( 22-C , 24-H ) :   0.9274 B( 22-C , 25-C ) :   1.0636
B( 25-C , 26-H ) :   0.9546 B( 25-C , 27-H ) :   0.9525 B( 25-C , 28-C ) :   1.0869
B( 28-C , 29-H ) :   0.9728 B( 28-C , 30-H ) :   0.9717 B( 28-C , 31-H ) :   0.9701

Dispersion correction           -0.013905080
FINAL SINGLE POINT ENERGY     -1339.869766398183

DIPOLE MOMENT
-------------
                                X             Y             Z
Electronic contribution:      5.54475      -8.58893     -19.44655
Nuclear contribution   :     -5.65258       9.05038      19.72390
                        -----------------------------------------
Total Dipole Moment    :     -0.10783       0.46144       0.27735
                        -----------------------------------------
Magnitude (a.u.)       :      0.54907
Magnitude (Debye)      :      1.39562

Rotational constants in cm-1:     0.019905     0.007633     0.006681
Rotational constants in MHz :   596.722025   228.840042   200.279539

                             ****ORCA TERMINATED NORMALLY****
TOTAL RUN TIME: 0 days 0 hours 0 minutes 29 seconds 927 msec
