                         Program Version 4.2.1 -  RELEASE  -
|  1> ! wB97X-D3 SP def2-SVP
|  2> %pal
|  3> nprocs 16
|  4> end
|  5>
|  6> * xyz 0 1
|  7> S 	 45.9383 	 9.67389 	 102.793
|  8> C 	 47.6896 	 9.44156 	 102.921
|  9> C 	 48.2134 	 8.75336 	 101.864
| 10> C 	 47.1952 	 8.5663 	 100.82
| 11> C 	 45.9407 	 8.95605 	 101.151
| 12> H 	 47.3054 	 8.17866 	 99.8205
| 13> C 	 49.6803 	 8.45469 	 101.543
| 14> H 	 50.3282 	 9.36343 	 101.517
| 15> H 	 49.7871 	 8.14797 	 100.556
| 16> C 	 50.4506 	 7.49007 	 102.46
| 17> H 	 49.892 	 6.61316 	 102.561
| 18> H 	 51.4165 	 7.23939 	 102.089
| 19> C 	 50.5508 	 8.0423 	 103.953
| 20> H 	 49.6732 	 7.82482 	 104.57
| 21> H 	 51.3028 	 7.43866 	 104.522
| 22> H 	 50.9062 	 9.0696 	 103.943
| 23> S 	 43.2517 	 8.60393 	 101.201
| 24> C 	 42.3228 	 8.80331 	 99.7727
| 25> C 	 43.1241 	 9.14053 	 98.6634
| 26> C 	 44.4814 	 9.28447 	 98.9861
| 27> C 	 44.7304 	 9.01399 	 100.333
| 28> H 	 42.6453 	 9.36312 	 97.689
| 29> C 	 45.4726 	 9.5646 	 97.8725
| 30> H 	 45.0177 	 9.2245 	 96.9889
| 31> H 	 46.4078 	 8.95057 	 97.9479
| 32> C 	 45.7807 	 11.0567 	 97.6704
| 33> H 	 44.8587 	 11.4804 	 97.2588
| 34> H 	 46.4414 	 11.2857 	 96.834
| 35> C 	 46.2396 	 11.9348 	 98.8632
| 36> H 	 46.5078 	 12.9566 	 98.6323
| 37> H 	 47.0636 	 11.5569 	 99.2983
| 38> H 	 45.3579 	 11.9712 	 99.5669
| 39> H 	 48.2415 	 9.80184 	 103.774
| 40> H 	 41.238 	 8.53593 	 99.7617
| 41> *
| 42>
| 43>                          ****END OF INPUT****

CARTESIAN COORDINATES (ANGSTROEM)
---------------------------------
  S     45.938300    9.673890  102.793000
  C     47.689600    9.441560  102.921000
  C     48.213400    8.753360  101.864000
  C     47.195200    8.566300  100.820000
  C     45.940700    8.956050  101.151000
  H     47.305400    8.178660   99.820500
  C     49.680300    8.454690  101.543000
  H     50.328200    9.363430  101.517000
  H     49.787100    8.147970  100.556000
  C     50.450600    7.490070  102.460000
  H     49.892000    6.613160  102.561000
  H     51.416500    7.239390  102.089000
  C     50.550800    8.042300  103.953000
  H     49.673200    7.824820  104.570000
  H     51.302800    7.438660  104.522000
  H     50.906200    9.069600  103.943000
  S     43.251700    8.603930  101.201000
  C     42.322800    8.803310   99.772700
  C     43.124100    9.140530   98.663400
  C     44.481400    9.284470   98.986100
  C     44.730400    9.013990  100.333000
  H     42.645300    9.363120   97.689000
  C     45.472600    9.564600   97.872500
  H     45.017700    9.224500   96.988900
  H     46.407800    8.950570   97.947900
  C     45.780700   11.056700   97.670400
  H     44.858700   11.480400   97.258800
  H     46.441400   11.285700   96.834000
  C     46.239600   11.934800   98.863200
  H     46.507800   12.956600   98.632300
  H     47.063600   11.556900   99.298300
  H     45.357900   11.971200   99.566900
  H     48.241500    9.801840  103.774000
  H     41.238000    8.535930   99.761700

 Total Charge           Charge          ....    0
 Multiplicity           Mult            ....    1
 Number of Electrons    NEL             ....  134
 Basis Dimension        Dim             ....  322

ORBITAL ENERGIES
----------------

  NO   OCC          E(Eh)            E(eV)
   0   2.0000     -88.968706     -2420.9616
   1   2.0000     -88.962095     -2420.7817
   2   2.0000     -10.329681      -281.0849
   3   2.0000     -10.328657      -281.0571
   4   2.0000     -10.321268      -280.8560
   5   2.0000     -10.315643      -280.7029
   6   2.0000     -10.307232      -280.4740
   7   2.0000     -10.305745      -280.4336
   8   2.0000     -10.298373      -280.2330
   9   2.0000     -10.295236      -280.1476
  10   2.0000     -10.293054      -280.0883
  11   2.0000     -10.291123      -280.0357
  12   2.0000     -10.284304      -279.8501
  13   2.0000     -10.283259      -279.8217
  14   2.0000     -10.282670      -279.8057
  15   2.0000     -10.265127      -279.3283
  16   2.0000      -8.083870      -219.9733
  17   2.0000      -8.076266      -219.7664
  18   2.0000      -6.042151      -164.4153
  19   2.0000      -6.038251      -164.3092
  20   2.0000      -6.034981      -164.2202
  21   2.0000      -6.034916      -164.2184
  22   2.0000      -6.030986      -164.1115
  23   2.0000      -6.026699      -163.9948
  24   2.0000      -1.006211       -27.3804
  25   2.0000      -0.981254       -26.7013
  26   2.0000      -0.909377       -24.7454
  27   2.0000      -0.906387       -24.6640
  28   2.0000      -0.865817       -23.5601
  29   2.0000      -0.851700       -23.1759
  30   2.0000      -0.840060       -22.8592
  31   2.0000      -0.808644       -22.0043
  32   2.0000      -0.788300       -21.4507
  33   2.0000      -0.779244       -21.2043
  34   2.0000      -0.706351       -19.2208
  35   2.0000      -0.702035       -19.1033
  36   2.0000      -0.688894       -18.7458
  37   2.0000      -0.665795       -18.1172
  38   2.0000      -0.643726       -17.5167
  39   2.0000      -0.615617       -16.7518
  40   2.0000      -0.595875       -16.2146
  41   2.0000      -0.571707       -15.5569
  42   2.0000      -0.551499       -15.0070
  43   2.0000      -0.549116       -14.9422
  44   2.0000      -0.544276       -14.8105
  45   2.0000      -0.532430       -14.4882
  46   2.0000      -0.512487       -13.9455
  47   2.0000      -0.507434       -13.8080
  48   2.0000      -0.502412       -13.6713
  49   2.0000      -0.494098       -13.4451
  50   2.0000      -0.490295       -13.3416
  51   2.0000      -0.480540       -13.0762
  52   2.0000      -0.474364       -12.9081
  53   2.0000      -0.463458       -12.6113
  54   2.0000      -0.459361       -12.4999
  55   2.0000      -0.446776       -12.1574
  56   2.0000      -0.444125       -12.0853
  57   2.0000      -0.439102       -11.9486
  58   2.0000      -0.434644       -11.8273
  59   2.0000      -0.420992       -11.4558
  60   2.0000      -0.416656       -11.3378
  61   2.0000      -0.412975       -11.2376
  62   2.0000      -0.408592       -11.1184
  63   2.0000      -0.353707        -9.6249
  64   2.0000      -0.337804        -9.1921
  65   2.0000      -0.328704        -8.9445
  66   2.0000      -0.287020        -7.8102
  67   0.0000       0.027912         0.7595
  68   0.0000       0.067553         1.8382
  69   0.0000       0.103267         2.8100
  70   0.0000       0.112768         3.0686
  71   0.0000       0.140968         3.8359

MULLIKEN ATOMIC CHARGES
-----------------------
   0 S :    0.086152
   1 C :   -0.126949
   2 C :   -0.040156
   3 C :   -0.009210
   4 C :   -0.095811
   5 H :    0.000949
   6 C :    0.068610
   7 H :    0.034119
   8 H :   -0.003249
   9 C :   -0.029393
  10 H :    0.017876
  11 H :    0.026485
  12 C :   -0.103846
  13 H :    0.048291
  14 H :    0.030138
  15 H :    0.036476
  16 S :    0.113682
  17 C :   -0.114324
  18 C :   -0.058560
  19 C :   -0.035327
  20 C :   -0.169167
  21 H :    0.034972
  22 C :    0.106535
  23 H :    0.004359
  24 H :    0.032201
  25 C :   -0.088764
  26 H :    0.010521
  27 H :    0.021132
  28 C :   -0.013353
  29 H :    0.025368
  30 H :    0.010430
  31 H :    0.048196
  32 H :    0.053271
  33 H :    0.078346
Sum of atomic charges:   -0.0000000

LOEWDIN ATOMIC CHARGES
----------------------
   0 S :    0.364894
   1 C :   -0.174786
   2 C :   -0.058918
   3 C :   -0.063813
   4 C :   -0.176916
   5 H :    0.027900
   6 C :   -0.031826
   7 H :    0.036068
   8 H :    0.019385
   9 C :   -0.026572
  10 H :    0.017253
  11 H :    0.020980
  12 C :   -0.076163
  13 H :    0.028438
  14 H :    0.030135
  15 H :    0.020473
  16 S :    0.425614
  17 C :   -0.204890
  18 C :   -0.076259
  19 C :   -0.057952
  20 C :   -0.192495
  21 H :    0.038254
  22 C :   -0.024148
  23 H :    0.027325
  24 H :    0.030904
  25 C :   -0.043300
  26 H :    0.021296
  27 H :    0.021676
  28 C :   -0.057497
  29 H :    0.026873
  30 H :    0.007419
  31 H :    0.035754
  32 H :    0.027182
  33 H :    0.037711

  Mayer bond orders larger than 0.100000
B(  0-S ,  1-C ) :   1.1223 B(  0-S ,  4-C ) :   1.1092 B(  1-C ,  2-C ) :   1.6614
B(  1-C , 32-H ) :   0.9639 B(  2-C ,  3-C ) :   1.1746 B(  2-C ,  6-C ) :   1.0113
B(  3-C ,  4-C ) :   1.6587 B(  3-C ,  5-H ) :   0.9959 B(  4-C , 20-C ) :   1.0367
B(  6-C ,  7-H ) :   0.9440 B(  6-C ,  8-H ) :   0.9382 B(  6-C ,  9-C ) :   1.0781
B(  9-C , 10-H ) :   0.9555 B(  9-C , 11-H ) :   0.9590 B(  9-C , 12-C ) :   1.0730
B( 12-C , 13-H ) :   0.9727 B( 12-C , 14-H ) :   0.9727 B( 12-C , 15-H ) :   0.9776
B( 16-S , 17-C ) :   1.1812 B( 16-S , 20-C ) :   1.1616 B( 17-C , 18-C ) :   1.5671
B( 17-C , 20-C ) :   0.1130 B( 17-C , 33-H ) :   0.9625 B( 18-C , 19-C ) :   1.2793
B( 18-C , 21-H ) :   0.9824 B( 19-C , 20-C ) :   1.5627 B( 19-C , 22-C ) :   1.0256
B( 22-C , 23-H ) :   0.9257 B( 22-C , 24-H ) :   0.9430 B( 22-C , 25-C ) :   1.0692
B( 25-C , 26-H ) :   0.9537 B( 25-C , 27-H ) :   0.9567 B( 25-C , 28-C ) :   1.0785
B( 28-C , 29-H ) :   0.9723 B( 28-C , 30-H ) :   0.9768 B( 28-C , 31-H ) :   0.9726

Dispersion correction           -0.015170144
FINAL SINGLE POINT ENERGY     -1339.871237190875

DIPOLE MOMENT
-------------
                                X             Y             Z
Electronic contribution:    -22.33747      -3.51867       7.37126
Nuclear contribution   :     22.75303       3.46835      -7.88859
                        -----------------------------------------
Total Dipole Moment    :      0.41556      -0.05032      -0.51733
                        -----------------------------------------
Magnitude (a.u.)       :      0.66547
Magnitude (Debye)      :      1.69149

Rotational constants in cm-1:     0.022906     0.008100     0.006864
Rotational constants in MHz :   686.716069   242.826456   205.764566

                             ****ORCA TERMINATED NORMALLY****
TOTAL RUN TIME: 0 days 0 hours 0 minutes 31 seconds 83 msec
