                         Program Version 4.2.1 -  RELEASE  -
|  1> ! wB97X-D3 SP def2-SVP
|  2> %pal
|  3> nprocs 16
|  4> end
|  5>
|  6> * xyz 0 1
|  7> S 	 -94.4934 	 58.9388 	 124.364
|  8> C 	 -93.445 	 57.5898 	 123.922
|  9> C 	 -93.2386 	 56.7505 	 125.048
| 10> C 	 -93.8653 	 57.2547 	 126.249
| 11> C 	 -94.5245 	 58.4935 	 126.1
| 12> H 	 -93.9292 	 56.8175 	 127.217
| 13> C 	 -92.4954 	 55.4525 	 125.099
| 14> H 	 -91.5382 	 55.7914 	 125.541
| 15> H 	 -92.3327 	 55.2319 	 124.061
| 16> C 	 -93.1655 	 54.2819 	 125.856
| 17> H 	 -93.3883 	 54.4403 	 126.979
| 18> H 	 -94.1911 	 54.2164 	 125.395
| 19> C 	 -92.3778 	 53.0112 	 125.728
| 20> H 	 -91.6578 	 52.9774 	 126.53
| 21> H 	 -93.0791 	 52.221 	 125.864
| 22> H 	 -91.8428 	 52.9267 	 124.807
| 23> S 	 -96.835 	 59.9516 	 126.592
| 24> C 	 -96.9542 	 60.8039 	 128.142
| 25> C 	 -95.8096 	 60.7121 	 128.864
| 26> C 	 -94.8145 	 59.7842 	 128.352
| 27> C 	 -95.2358 	 59.241 	 127.122
| 28> H 	 -95.7213 	 61.2556 	 129.768
| 29> C 	 -93.5233 	 59.4885 	 129.054
| 30> H 	 -93.4078 	 58.4801 	 129.015
| 31> H 	 -93.4548 	 59.8174 	 130.091
| 32> C 	 -92.3335 	 60.2083 	 128.323
| 33> H 	 -92.4339 	 61.2707 	 128.509
| 34> H 	 -92.5466 	 60.1624 	 127.236
| 35> C 	 -90.952 	 59.5596 	 128.557
| 36> H 	 -90.5071 	 60.1855 	 129.329
| 37> H 	 -90.3281 	 59.6498 	 127.665
| 38> H 	 -90.9688 	 58.4653 	 128.887
| 39> H 	 -93.0825 	 57.3897 	 122.941
| 40> H 	 -97.7493 	 61.4433 	 128.372
| 41> *
| 42>
| 43>                          ****END OF INPUT****

CARTESIAN COORDINATES (ANGSTROEM)
---------------------------------
  S    -94.493400   58.938800  124.364000
  C    -93.445000   57.589800  123.922000
  C    -93.238600   56.750500  125.048000
  C    -93.865300   57.254700  126.249000
  C    -94.524500   58.493500  126.100000
  H    -93.929200   56.817500  127.217000
  C    -92.495400   55.452500  125.099000
  H    -91.538200   55.791400  125.541000
  H    -92.332700   55.231900  124.061000
  C    -93.165500   54.281900  125.856000
  H    -93.388300   54.440300  126.979000
  H    -94.191100   54.216400  125.395000
  C    -92.377800   53.011200  125.728000
  H    -91.657800   52.977400  126.530000
  H    -93.079100   52.221000  125.864000
  H    -91.842800   52.926700  124.807000
  S    -96.835000   59.951600  126.592000
  C    -96.954200   60.803900  128.142000
  C    -95.809600   60.712100  128.864000
  C    -94.814500   59.784200  128.352000
  C    -95.235800   59.241000  127.122000
  H    -95.721300   61.255600  129.768000
  C    -93.523300   59.488500  129.054000
  H    -93.407800   58.480100  129.015000
  H    -93.454800   59.817400  130.091000
  C    -92.333500   60.208300  128.323000
  H    -92.433900   61.270700  128.509000
  H    -92.546600   60.162400  127.236000
  C    -90.952000   59.559600  128.557000
  H    -90.507100   60.185500  129.329000
  H    -90.328100   59.649800  127.665000
  H    -90.968800   58.465300  128.887000
  H    -93.082500   57.389700  122.941000
  H    -97.749300   61.443300  128.372000

 Total Charge           Charge          ....    0
 Multiplicity           Mult            ....    1
 Number of Electrons    NEL             ....  134
 Basis Dimension        Dim             ....  322

ORBITAL ENERGIES
----------------

  NO   OCC          E(Eh)            E(eV)
   0   2.0000     -88.966419     -2420.8993
   1   2.0000     -88.963685     -2420.8249
   2   2.0000     -10.334390      -281.2131
   3   2.0000     -10.334059      -281.2040
   4   2.0000     -10.316743      -280.7328
   5   2.0000     -10.314393      -280.6689
   6   2.0000     -10.311558      -280.5918
   7   2.0000     -10.305414      -280.4246
   8   2.0000     -10.297324      -280.2044
   9   2.0000     -10.293100      -280.0895
  10   2.0000     -10.291967      -280.0587
  11   2.0000     -10.291924      -280.0575
  12   2.0000     -10.286612      -279.9129
  13   2.0000     -10.283833      -279.8373
  14   2.0000     -10.282418      -279.7988
  15   2.0000     -10.272260      -279.5224
  16   2.0000      -8.079746      -219.8611
  17   2.0000      -8.077162      -219.7908
  18   2.0000      -6.038437      -164.3142
  19   2.0000      -6.035828      -164.2432
  20   2.0000      -6.034375      -164.2037
  21   2.0000      -6.031990      -164.1388
  22   2.0000      -6.030465      -164.0973
  23   2.0000      -6.027681      -164.0215
  24   2.0000      -0.994339       -27.0573
  25   2.0000      -0.972569       -26.4650
  26   2.0000      -0.912926       -24.8420
  27   2.0000      -0.906440       -24.6655
  28   2.0000      -0.869410       -23.6578
  29   2.0000      -0.849446       -23.1146
  30   2.0000      -0.843133       -22.9428
  31   2.0000      -0.814666       -22.1682
  32   2.0000      -0.781736       -21.2721
  33   2.0000      -0.768224       -20.9044
  34   2.0000      -0.710238       -19.3266
  35   2.0000      -0.696627       -18.9562
  36   2.0000      -0.692584       -18.8462
  37   2.0000      -0.661390       -17.9973
  38   2.0000      -0.641402       -17.4534
  39   2.0000      -0.615487       -16.7483
  40   2.0000      -0.598181       -16.2773
  41   2.0000      -0.567377       -15.4391
  42   2.0000      -0.567063       -15.4306
  43   2.0000      -0.559947       -15.2369
  44   2.0000      -0.533714       -14.5231
  45   2.0000      -0.518968       -14.1218
  46   2.0000      -0.514552       -14.0017
  47   2.0000      -0.509821       -13.8729
  48   2.0000      -0.507475       -13.8091
  49   2.0000      -0.499247       -13.5852
  50   2.0000      -0.496845       -13.5198
  51   2.0000      -0.485761       -13.2182
  52   2.0000      -0.472782       -12.8651
  53   2.0000      -0.467231       -12.7140
  54   2.0000      -0.453847       -12.3498
  55   2.0000      -0.449997       -12.2450
  56   2.0000      -0.440738       -11.9931
  57   2.0000      -0.439239       -11.9523
  58   2.0000      -0.432144       -11.7592
  59   2.0000      -0.418689       -11.3931
  60   2.0000      -0.416567       -11.3354
  61   2.0000      -0.414431       -11.2772
  62   2.0000      -0.407256       -11.0820
  63   2.0000      -0.347602        -9.4587
  64   2.0000      -0.329088        -8.9549
  65   2.0000      -0.323771        -8.8103
  66   2.0000      -0.284899        -7.7525
  67   0.0000       0.021626         0.5885
  68   0.0000       0.063458         1.7268
  69   0.0000       0.106075         2.8864
  70   0.0000       0.121942         3.3182
  71   0.0000       0.133176         3.6239

MULLIKEN ATOMIC CHARGES
-----------------------
   0 S :    0.103244
   1 C :   -0.115885
   2 C :   -0.102541
   3 C :    0.016591
   4 C :   -0.144845
   5 H :    0.006113
   6 C :    0.092457
   7 H :    0.044612
   8 H :    0.009181
   9 C :   -0.153447
  10 H :    0.048324
  11 H :    0.043452
  12 C :    0.017016
  13 H :    0.026753
  14 H :    0.029384
  15 H :    0.024629
  16 S :    0.077572
  17 C :   -0.061203
  18 C :   -0.012987
  19 C :   -0.056138
  20 C :   -0.163941
  21 H :    0.004734
  22 C :    0.148311
  23 H :   -0.009012
  24 H :    0.024361
  25 C :   -0.123742
  26 H :    0.026832
  27 H :    0.044807
  28 C :   -0.047545
  29 H :    0.033037
  30 H :    0.042735
  31 H :    0.047289
  32 H :    0.039810
  33 H :    0.040041
Sum of atomic charges:    0.0000000

LOEWDIN ATOMIC CHARGES
----------------------
   0 S :    0.384417
   1 C :   -0.202675
   2 C :   -0.057107
   3 C :   -0.065980
   4 C :   -0.182706
   5 H :    0.024474
   6 C :   -0.037169
   7 H :    0.038867
   8 H :    0.026925
   9 C :   -0.049463
  10 H :    0.033370
  11 H :    0.030216
  12 C :   -0.056975
  13 H :    0.025921
  14 H :    0.027036
  15 H :    0.022127
  16 S :    0.358461
  17 C :   -0.161380
  18 C :   -0.066367
  19 C :   -0.037880
  20 C :   -0.175595
  21 H :    0.026035
  22 C :   -0.021212
  23 H :    0.013939
  24 H :    0.032601
  25 C :   -0.041560
  26 H :    0.022690
  27 H :    0.027376
  28 C :   -0.072286
  29 H :    0.026251
  30 H :    0.029951
  31 H :    0.034585
  32 H :    0.023591
  33 H :    0.019522

  Mayer bond orders larger than 0.100000
B(  0-S ,  1-C ) :   1.1284 B(  0-S ,  4-C ) :   1.1331 B(  1-C ,  2-C ) :   1.5886
B(  1-C , 32-H ) :   0.9732 B(  2-C ,  3-C ) :   1.2315 B(  2-C ,  6-C ) :   1.0234
B(  3-C ,  4-C ) :   1.5646 B(  3-C ,  5-H ) :   0.9950 B(  4-C , 20-C ) :   1.0841
B(  6-C ,  7-H ) :   0.9288 B(  6-C ,  8-H ) :   0.9361 B(  6-C ,  9-C ) :   1.0618
B(  9-C , 10-H ) :   0.9495 B(  9-C , 11-H ) :   0.9605 B(  9-C , 12-C ) :   1.0808
B( 12-C , 13-H ) :   0.9739 B( 12-C , 14-H ) :   0.9720 B( 12-C , 15-H ) :   0.9741
B( 16-S , 17-C ) :   1.1314 B( 16-S , 20-C ) :   1.1123 B( 17-C , 18-C ) :   1.6448
B( 17-C , 33-H ) :   0.9721 B( 18-C , 19-C ) :   1.2161 B( 18-C , 21-H ) :   0.9924
B( 19-C , 20-C ) :   1.5931 B( 19-C , 22-C ) :   1.0487 B( 22-C , 23-H ) :   0.9259
B( 22-C , 24-H ) :   0.9349 B( 22-C , 25-C ) :   1.0447 B( 25-C , 26-H ) :   0.9594
B( 25-C , 27-H ) :   0.9684 B( 25-C , 28-C ) :   1.0525 B( 28-C , 29-H ) :   0.9773
B( 28-C , 30-H ) :   0.9779 B( 28-C , 31-H ) :   0.9771

Dispersion correction           -0.014396830
FINAL SINGLE POINT ENERGY     -1339.864018340021

DIPOLE MOMENT
-------------
                                X             Y             Z
Electronic contribution:    -21.40635      16.34141      -9.40903
Nuclear contribution   :     21.90211     -16.62019       9.84632
                        -----------------------------------------
Total Dipole Moment    :      0.49576      -0.27878       0.43730
                        -----------------------------------------
Magnitude (a.u.)       :      0.71744
Magnitude (Debye)      :      1.82359

Rotational constants in cm-1:     0.018199     0.008487     0.007124
Rotational constants in MHz :   545.581869   254.440066   213.578842

                             ****ORCA TERMINATED NORMALLY****
TOTAL RUN TIME: 0 days 0 hours 0 minutes 33 seconds 413 msec
