                         Program Version 4.2.1 -  RELEASE  -
|  1> ! wB97X-D3 SP def2-SVP
|  2> %pal
|  3> nprocs 16
|  4> end
|  5>
|  6> * xyz 0 1
|  7> S 	 46.7564 	 22.2386 	 88.0854
|  8> C 	 46.013 	 23.4139 	 89.2073
|  9> C 	 46.8596 	 23.6486 	 90.2695
| 10> C 	 48.1688 	 22.9906 	 90.166
| 11> C 	 48.2979 	 22.2965 	 88.982
| 12> H 	 49.0075 	 22.937 	 90.8834
| 13> C 	 46.5521 	 24.5509 	 91.448
| 14> H 	 47.0084 	 24.2756 	 92.3847
| 15> H 	 45.5031 	 24.3111 	 91.7484
| 16> C 	 46.7423 	 26.0806 	 91.1431
| 17> H 	 46.6691 	 26.695 	 92.0506
| 18> H 	 47.8053 	 26.2334 	 90.9541
| 19> C 	 45.9275 	 26.6071 	 89.9621
| 20> H 	 46.1698 	 27.6663 	 89.8442
| 21> H 	 46.2154 	 26.0849 	 89.0845
| 22> H 	 44.8898 	 26.4598 	 90.0281
| 23> S 	 49.0402 	 19.7419 	 88.3638
| 24> C 	 50.7327 	 19.3935 	 88.0547
| 25> C 	 51.5593 	 20.4561 	 88.2846
| 26> C 	 50.7704 	 21.6291 	 88.5351
| 27> C 	 49.3782 	 21.4384 	 88.6477
| 28> H 	 52.6251 	 20.3376 	 88.0724
| 29> C 	 51.3986 	 23.0046 	 88.6512
| 30> H 	 52.3482 	 22.8478 	 89.2236
| 31> H 	 50.7945 	 23.7284 	 89.1498
| 32> C 	 51.6836 	 23.6621 	 87.3005
| 33> H 	 50.7955 	 23.7442 	 86.6819
| 34> H 	 52.4614 	 23.1646 	 86.6963
| 35> C 	 52.2267 	 25.0597 	 87.4992
| 36> H 	 52.3562 	 25.7529 	 86.6619
| 37> H 	 53.1954 	 24.9537 	 87.9928
| 38> H 	 51.6269 	 25.5938 	 88.2532
| 39> H 	 45.0865 	 23.9513 	 88.9981
| 40> H 	 51.1307 	 18.4386 	 87.678
| 41> *
| 42>
| 43>                          ****END OF INPUT****

CARTESIAN COORDINATES (ANGSTROEM)
---------------------------------
  S     46.756400   22.238600   88.085400
  C     46.013000   23.413900   89.207300
  C     46.859600   23.648600   90.269500
  C     48.168800   22.990600   90.166000
  C     48.297900   22.296500   88.982000
  H     49.007500   22.937000   90.883400
  C     46.552100   24.550900   91.448000
  H     47.008400   24.275600   92.384700
  H     45.503100   24.311100   91.748400
  C     46.742300   26.080600   91.143100
  H     46.669100   26.695000   92.050600
  H     47.805300   26.233400   90.954100
  C     45.927500   26.607100   89.962100
  H     46.169800   27.666300   89.844200
  H     46.215400   26.084900   89.084500
  H     44.889800   26.459800   90.028100
  S     49.040200   19.741900   88.363800
  C     50.732700   19.393500   88.054700
  C     51.559300   20.456100   88.284600
  C     50.770400   21.629100   88.535100
  C     49.378200   21.438400   88.647700
  H     52.625100   20.337600   88.072400
  C     51.398600   23.004600   88.651200
  H     52.348200   22.847800   89.223600
  H     50.794500   23.728400   89.149800
  C     51.683600   23.662100   87.300500
  H     50.795500   23.744200   86.681900
  H     52.461400   23.164600   86.696300
  C     52.226700   25.059700   87.499200
  H     52.356200   25.752900   86.661900
  H     53.195400   24.953700   87.992800
  H     51.626900   25.593800   88.253200
  H     45.086500   23.951300   88.998100
  H     51.130700   18.438600   87.678000

 Total Charge           Charge          ....    0
 Multiplicity           Mult            ....    1
 Number of Electrons    NEL             ....  134
 Basis Dimension        Dim             ....  322

ORBITAL ENERGIES
----------------

  NO   OCC          E(Eh)            E(eV)
   0   2.0000     -88.966759     -2420.9086
   1   2.0000     -88.964022     -2420.8341
   2   2.0000     -10.331523      -281.1350
   3   2.0000     -10.324791      -280.9519
   4   2.0000     -10.321739      -280.8688
   5   2.0000     -10.318666      -280.7852
   6   2.0000     -10.309483      -280.5353
   7   2.0000     -10.307088      -280.4701
   8   2.0000     -10.302469      -280.3444
   9   2.0000     -10.296351      -280.1780
  10   2.0000     -10.294516      -280.1280
  11   2.0000     -10.290043      -280.0063
  12   2.0000     -10.289811      -280.0000
  13   2.0000     -10.281380      -279.7706
  14   2.0000     -10.273219      -279.5485
  15   2.0000     -10.271152      -279.4923
  16   2.0000      -8.080554      -219.8830
  17   2.0000      -8.078800      -219.8353
  18   2.0000      -6.039272      -164.3369
  19   2.0000      -6.037336      -164.2843
  20   2.0000      -6.035286      -164.2285
  21   2.0000      -6.033295      -164.1743
  22   2.0000      -6.031036      -164.1128
  23   2.0000      -6.029515      -164.0714
  24   2.0000      -1.005396       -27.3582
  25   2.0000      -0.979453       -26.6523
  26   2.0000      -0.910961       -24.7885
  27   2.0000      -0.908487       -24.7212
  28   2.0000      -0.873467       -23.7683
  29   2.0000      -0.850158       -23.1340
  30   2.0000      -0.842982       -22.9387
  31   2.0000      -0.816764       -22.2253
  32   2.0000      -0.784161       -21.3381
  33   2.0000      -0.767279       -20.8787
  34   2.0000      -0.711184       -19.3523
  35   2.0000      -0.700694       -19.0669
  36   2.0000      -0.692212       -18.8361
  37   2.0000      -0.659666       -17.9504
  38   2.0000      -0.643376       -17.5071
  39   2.0000      -0.614484       -16.7209
  40   2.0000      -0.596020       -16.2185
  41   2.0000      -0.573487       -15.6054
  42   2.0000      -0.566214       -15.4075
  43   2.0000      -0.545373       -14.8403
  44   2.0000      -0.539596       -14.6832
  45   2.0000      -0.526258       -14.3202
  46   2.0000      -0.519484       -14.1359
  47   2.0000      -0.509519       -13.8647
  48   2.0000      -0.505933       -13.7671
  49   2.0000      -0.502053       -13.6616
  50   2.0000      -0.490568       -13.3490
  51   2.0000      -0.480354       -13.0711
  52   2.0000      -0.470145       -12.7933
  53   2.0000      -0.461290       -12.5523
  54   2.0000      -0.460178       -12.5221
  55   2.0000      -0.447940       -12.1891
  56   2.0000      -0.444150       -12.0859
  57   2.0000      -0.432104       -11.7582
  58   2.0000      -0.431291       -11.7360
  59   2.0000      -0.426276       -11.5996
  60   2.0000      -0.420578       -11.4445
  61   2.0000      -0.411585       -11.1998
  62   2.0000      -0.410245       -11.1633
  63   2.0000      -0.351174        -9.5559
  64   2.0000      -0.330592        -8.9959
  65   2.0000      -0.328893        -8.9496
  66   2.0000      -0.291582        -7.9344
  67   0.0000       0.025399         0.6911
  68   0.0000       0.065580         1.7845
  69   0.0000       0.105710         2.8765
  70   0.0000       0.121478         3.3056
  71   0.0000       0.126718         3.4482

MULLIKEN ATOMIC CHARGES
-----------------------
   0 S :    0.093644
   1 C :   -0.121085
   2 C :   -0.089383
   3 C :    0.035567
   4 C :   -0.158048
   5 H :    0.039031
   6 C :    0.052379
   7 H :    0.016933
   8 H :    0.026323
   9 C :   -0.067011
  10 H :    0.026920
  11 H :    0.019045
  12 C :   -0.025537
  13 H :    0.037055
  14 H :    0.032882
  15 H :    0.020531
  16 S :    0.103106
  17 C :   -0.102560
  18 C :   -0.024090
  19 C :   -0.043629
  20 C :   -0.140812
  21 H :    0.032087
  22 C :    0.054112
  23 H :    0.030428
  24 H :    0.006913
  25 C :   -0.059247
  26 H :    0.033603
  27 H :    0.026906
  28 C :   -0.050750
  29 H :    0.041410
  30 H :    0.014935
  31 H :    0.015085
  32 H :    0.061625
  33 H :    0.061635
Sum of atomic charges:   -0.0000000

LOEWDIN ATOMIC CHARGES
----------------------
   0 S :    0.371970
   1 C :   -0.184060
   2 C :   -0.058482
   3 C :   -0.055103
   4 C :   -0.184548
   5 H :    0.041467
   6 C :   -0.040271
   7 H :    0.028639
   8 H :    0.032657
   9 C :   -0.039212
  10 H :    0.023985
  11 H :    0.024117
  12 C :   -0.060088
  13 H :    0.032456
  14 H :    0.022588
  15 H :    0.015919
  16 S :    0.399774
  17 C :   -0.179433
  18 C :   -0.076302
  19 C :   -0.051559
  20 C :   -0.205876
  21 H :    0.040195
  22 C :   -0.030792
  23 H :    0.035278
  24 H :    0.022456
  25 C :   -0.040131
  26 H :    0.025219
  27 H :    0.023707
  28 C :   -0.071983
  29 H :    0.026699
  30 H :    0.022319
  31 H :    0.020726
  32 H :    0.033689
  33 H :    0.033978

  Mayer bond orders larger than 0.100000
B(  0-S ,  1-C ) :   1.1096 B(  0-S ,  4-C ) :   1.1256 B(  1-C ,  2-C ) :   1.6422
B(  1-C , 32-H ) :   0.9672 B(  2-C ,  3-C ) :   1.1955 B(  2-C ,  6-C ) :   1.0202
B(  3-C ,  4-C ) :   1.6001 B(  3-C ,  5-H ) :   0.9855 B(  4-C , 20-C ) :   1.0696
B(  6-C ,  7-H ) :   0.9455 B(  6-C ,  8-H ) :   0.9448 B(  6-C ,  9-C ) :   1.0595
B(  9-C , 10-H ) :   0.9579 B(  9-C , 11-H ) :   0.9538 B(  9-C , 12-C ) :   1.0793
B( 12-C , 13-H ) :   0.9694 B( 12-C , 14-H ) :   0.9678 B( 12-C , 15-H ) :   0.9775
B( 16-S , 17-C ) :   1.1575 B( 16-S , 20-C ) :   1.1220 B( 17-C , 18-C ) :   1.6249
B( 17-C , 33-H ) :   0.9603 B( 18-C , 19-C ) :   1.2286 B( 18-C , 21-H ) :   0.9889
B( 19-C , 20-C ) :   1.5937 B( 19-C , 22-C ) :   1.0560 B( 22-C , 23-H ) :   0.9326
B( 22-C , 24-H ) :   0.9351 B( 22-C , 25-C ) :   1.0643 B( 25-C , 26-H ) :   0.9552
B( 25-C , 27-H ) :   0.9553 B( 25-C , 28-C ) :   1.0811 B( 28-C , 29-H ) :   0.9750
B( 28-C , 30-H ) :   0.9713 B( 28-C , 31-H ) :   0.9717

Dispersion correction           -0.014289385
FINAL SINGLE POINT ENERGY     -1339.879773454168

DIPOLE MOMENT
-------------
                                X             Y             Z
Electronic contribution:     -7.42811     -26.70619      -5.19459
Nuclear contribution   :      7.77126      27.14847       5.46767
                        -----------------------------------------
Total Dipole Moment    :      0.34315       0.44228       0.27308
                        -----------------------------------------
Magnitude (a.u.)       :      0.62284
Magnitude (Debye)      :      1.58314

Rotational constants in cm-1:     0.018684     0.008946     0.006860
Rotational constants in MHz :   560.122443   268.197420   205.662932

                             ****ORCA TERMINATED NORMALLY****
TOTAL RUN TIME: 0 days 0 hours 0 minutes 30 seconds 477 msec
