                         Program Version 4.2.1 -  RELEASE  -
|  1> ! wB97X-D3 SP def2-SVP
|  2> %pal
|  3> nprocs 16
|  4> end
|  5>
|  6> * xyz 0 1
|  7> S 	 -41.7846 	 24.8438 	 87.5292
|  8> C 	 -41.8672 	 26.5312 	 87.8084
|  9> C 	 -42.0908 	 27.293 	 86.6391
| 10> C 	 -42.4233 	 26.4352 	 85.5443
| 11> C 	 -42.4087 	 25.1109 	 85.9072
| 12> H 	 -42.7982 	 26.758 	 84.6481
| 13> C 	 -42.1717 	 28.7923 	 86.568
| 14> H 	 -41.4661 	 29.1679 	 85.7699
| 15> H 	 -41.7471 	 29.1905 	 87.4854
| 16> C 	 -43.583 	 29.383 	 86.3774
| 17> H 	 -43.9591 	 29.2064 	 85.361
| 18> H 	 -44.2954 	 28.7975 	 87.0095
| 19> C 	 -43.712 	 30.8686 	 86.663
| 20> H 	 -43.0579 	 31.4763 	 85.9993
| 21> H 	 -44.6952 	 31.1372 	 86.3379
| 22> H 	 -43.6 	 31.0777 	 87.6875
| 23> S 	 -44.287 	 23.9471 	 84.289
| 24> C 	 -43.8434 	 22.4925 	 83.4136
| 25> C 	 -42.5156 	 22.1879 	 83.6195
| 26> C 	 -41.8269 	 23.0583 	 84.4425
| 27> C 	 -42.659 	 23.9723 	 85.0267
| 28> H 	 -42.0768 	 21.369 	 83.0695
| 29> C 	 -40.295 	 23.0908 	 84.5786
| 30> H 	 -39.9169 	 22.0704 	 84.4514
| 31> H 	 -39.9597 	 23.3562 	 85.6052
| 32> C 	 -39.6214 	 24.0688 	 83.6472
| 33> H 	 -38.5874 	 24.1583 	 83.9783
| 34> H 	 -40.0708 	 25.1108 	 83.8838
| 35> C 	 -39.7552 	 23.7023 	 82.1664
| 36> H 	 -39.1389 	 24.3126 	 81.4991
| 37> H 	 -40.7247 	 24.0056 	 81.8586
| 38> H 	 -39.5886 	 22.6929 	 81.9376
| 39> H 	 -41.5772 	 26.8139 	 88.8346
| 40> H 	 -44.522 	 21.9821 	 82.7349
| 41> *
| 42>
| 43>                          ****END OF INPUT****

CARTESIAN COORDINATES (ANGSTROEM)
---------------------------------
  S    -41.784600   24.843800   87.529200
  C    -41.867200   26.531200   87.808400
  C    -42.090800   27.293000   86.639100
  C    -42.423300   26.435200   85.544300
  C    -42.408700   25.110900   85.907200
  H    -42.798200   26.758000   84.648100
  C    -42.171700   28.792300   86.568000
  H    -41.466100   29.167900   85.769900
  H    -41.747100   29.190500   87.485400
  C    -43.583000   29.383000   86.377400
  H    -43.959100   29.206400   85.361000
  H    -44.295400   28.797500   87.009500
  C    -43.712000   30.868600   86.663000
  H    -43.057900   31.476300   85.999300
  H    -44.695200   31.137200   86.337900
  H    -43.600000   31.077700   87.687500
  S    -44.287000   23.947100   84.289000
  C    -43.843400   22.492500   83.413600
  C    -42.515600   22.187900   83.619500
  C    -41.826900   23.058300   84.442500
  C    -42.659000   23.972300   85.026700
  H    -42.076800   21.369000   83.069500
  C    -40.295000   23.090800   84.578600
  H    -39.916900   22.070400   84.451400
  H    -39.959700   23.356200   85.605200
  C    -39.621400   24.068800   83.647200
  H    -38.587400   24.158300   83.978300
  H    -40.070800   25.110800   83.883800
  C    -39.755200   23.702300   82.166400
  H    -39.138900   24.312600   81.499100
  H    -40.724700   24.005600   81.858600
  H    -39.588600   22.692900   81.937600
  H    -41.577200   26.813900   88.834600
  H    -44.522000   21.982100   82.734900

 Total Charge           Charge          ....    0
 Multiplicity           Mult            ....    1
 Number of Electrons    NEL             ....  134
 Basis Dimension        Dim             ....  322

ORBITAL ENERGIES
----------------

  NO   OCC          E(Eh)            E(eV)
   0   2.0000     -88.966327     -2420.8968
   1   2.0000     -88.963112     -2420.8093
   2   2.0000     -10.325724      -280.9772
   3   2.0000     -10.321505      -280.8624
   4   2.0000     -10.316028      -280.7134
   5   2.0000     -10.315224      -280.6915
   6   2.0000     -10.304646      -280.4037
   7   2.0000     -10.295689      -280.1600
   8   2.0000     -10.294080      -280.1162
   9   2.0000     -10.291014      -280.0327
  10   2.0000     -10.288679      -279.9692
  11   2.0000     -10.288213      -279.9565
  12   2.0000     -10.287472      -279.9363
  13   2.0000     -10.287010      -279.9238
  14   2.0000     -10.274847      -279.5928
  15   2.0000     -10.267011      -279.3796
  16   2.0000      -8.081673      -219.9135
  17   2.0000      -8.077354      -219.7960
  18   2.0000      -6.039914      -164.3544
  19   2.0000      -6.036181      -164.2528
  20   2.0000      -6.035739      -164.2408
  21   2.0000      -6.032608      -164.1556
  22   2.0000      -6.032050      -164.1404
  23   2.0000      -6.028175      -164.0350
  24   2.0000      -1.007311       -27.4103
  25   2.0000      -0.985385       -26.8137
  26   2.0000      -0.910064       -24.7641
  27   2.0000      -0.907105       -24.6836
  28   2.0000      -0.867681       -23.6108
  29   2.0000      -0.857149       -23.3242
  30   2.0000      -0.845886       -23.0177
  31   2.0000      -0.812765       -22.1165
  32   2.0000      -0.786740       -21.4083
  33   2.0000      -0.769601       -20.9419
  34   2.0000      -0.705463       -19.1966
  35   2.0000      -0.694476       -18.8977
  36   2.0000      -0.682637       -18.5755
  37   2.0000      -0.665204       -18.1011
  38   2.0000      -0.650822       -17.7098
  39   2.0000      -0.620457       -16.8835
  40   2.0000      -0.593831       -16.1590
  41   2.0000      -0.568269       -15.4634
  42   2.0000      -0.557362       -15.1666
  43   2.0000      -0.548529       -14.9262
  44   2.0000      -0.544764       -14.8238
  45   2.0000      -0.523828       -14.2541
  46   2.0000      -0.516390       -14.0517
  47   2.0000      -0.515286       -14.0216
  48   2.0000      -0.505682       -13.7603
  49   2.0000      -0.491316       -13.3694
  50   2.0000      -0.486859       -13.2481
  51   2.0000      -0.481708       -13.1079
  52   2.0000      -0.473454       -12.8833
  53   2.0000      -0.464142       -12.6299
  54   2.0000      -0.463165       -12.6034
  55   2.0000      -0.446393       -12.1470
  56   2.0000      -0.438037       -11.9196
  57   2.0000      -0.433985       -11.8093
  58   2.0000      -0.431453       -11.7404
  59   2.0000      -0.430523       -11.7151
  60   2.0000      -0.423284       -11.5181
  61   2.0000      -0.415484       -11.3059
  62   2.0000      -0.408815       -11.1244
  63   2.0000      -0.342276        -9.3138
  64   2.0000      -0.333896        -9.0858
  65   2.0000      -0.327399        -8.9090
  66   2.0000      -0.292183        -7.9507
  67   0.0000       0.035732         0.9723
  68   0.0000       0.062204         1.6927
  69   0.0000       0.102562         2.7909
  70   0.0000       0.116465         3.1692
  71   0.0000       0.134591         3.6624

MULLIKEN ATOMIC CHARGES
-----------------------
   0 S :    0.118770
   1 C :   -0.144096
   2 C :   -0.072542
   3 C :    0.076503
   4 C :   -0.165273
   5 H :   -0.021944
   6 C :    0.073216
   7 H :    0.038503
   8 H :    0.008766
   9 C :   -0.107079
  10 H :    0.024540
  11 H :    0.035758
  12 C :   -0.008388
  13 H :    0.029905
  14 H :    0.021797
  15 H :    0.031397
  16 S :    0.093231
  17 C :   -0.095697
  18 C :   -0.034801
  19 C :    0.001603
  20 C :   -0.189043
  21 H :    0.010169
  22 C :    0.074035
  23 H :    0.018046
  24 H :    0.020270
  25 C :   -0.087979
  26 H :    0.029099
  27 H :    0.041814
  28 C :   -0.004924
  29 H :    0.023575
  30 H :    0.025343
  31 H :    0.019337
  32 H :    0.058285
  33 H :    0.057804
Sum of atomic charges:   -0.0000000

LOEWDIN ATOMIC CHARGES
----------------------
   0 S :    0.424181
   1 C :   -0.209702
   2 C :   -0.059682
   3 C :   -0.047633
   4 C :   -0.189926
   5 H :    0.016356
   6 C :   -0.039814
   7 H :    0.037906
   8 H :    0.026829
   9 C :   -0.045132
  10 H :    0.021704
  11 H :    0.029159
  12 C :   -0.057507
  13 H :    0.029381
  14 H :    0.026278
  15 H :    0.018737
  16 S :    0.388226
  17 C :   -0.182575
  18 C :   -0.071866
  19 C :   -0.062950
  20 C :   -0.184628
  21 H :    0.030233
  22 C :   -0.031293
  23 H :    0.025789
  24 H :    0.028823
  25 C :   -0.042353
  26 H :    0.021716
  27 H :    0.036271
  28 C :   -0.062020
  29 H :    0.028491
  30 H :    0.025250
  31 H :    0.016089
  32 H :    0.026386
  33 H :    0.029278

  Mayer bond orders larger than 0.100000
B(  0-S ,  1-C ) :   1.1640 B(  0-S ,  4-C ) :   1.1623 B(  1-C ,  2-C ) :   1.5736
B(  1-C , 32-H ) :   0.9688 B(  2-C ,  3-C ) :   1.2340 B(  2-C ,  6-C ) :   1.0471
B(  3-C ,  4-C ) :   1.5742 B(  3-C ,  5-H ) :   1.0084 B(  4-C , 20-C ) :   1.0090
B(  6-C ,  7-H ) :   0.9302 B(  6-C ,  8-H ) :   0.9397 B(  6-C ,  9-C ) :   1.0513
B(  9-C , 10-H ) :   0.9529 B(  9-C , 11-H ) :   0.9559 B(  9-C , 12-C ) :   1.0959
B( 12-C , 13-H ) :   0.9716 B( 12-C , 14-H ) :   0.9710 B( 12-C , 15-H ) :   0.9764
B( 16-S , 17-C ) :   1.1514 B( 16-S , 20-C ) :   1.1431 B( 17-C , 18-C ) :   1.5972
B( 17-C , 20-C ) :   0.1088 B( 17-C , 33-H ) :   0.9691 B( 18-C , 19-C ) :   1.2563
B( 18-C , 21-H ) :   0.9906 B( 19-C , 20-C ) :   1.5982 B( 19-C , 22-C ) :   1.0340
B( 22-C , 23-H ) :   0.9351 B( 22-C , 24-H ) :   0.9291 B( 22-C , 25-C ) :   1.0808
B( 25-C , 26-H ) :   0.9565 B( 25-C , 27-H ) :   0.9521 B( 25-C , 28-C ) :   1.0697
B( 28-C , 29-H ) :   0.9710 B( 28-C , 30-H ) :   0.9704 B( 28-C , 31-H ) :   0.9771

Dispersion correction           -0.015124748
FINAL SINGLE POINT ENERGY     -1339.886610438596

DIPOLE MOMENT
-------------
                                X             Y             Z
Electronic contribution:     -8.56775     -16.40238       7.26284
Nuclear contribution   :      8.81902      16.74447      -7.51781
                        -----------------------------------------
Total Dipole Moment    :      0.25127       0.34209      -0.25498
                        -----------------------------------------
Magnitude (a.u.)       :      0.49515
Magnitude (Debye)      :      1.25857

Rotational constants in cm-1:     0.021042     0.007676     0.007246
Rotational constants in MHz :   630.835115   230.122918   217.230259

                             ****ORCA TERMINATED NORMALLY****
TOTAL RUN TIME: 0 days 0 hours 0 minutes 28 seconds 324 msec
