                         Program Version 4.2.1 -  RELEASE  -
|  1> ! wB97X-D3 SP def2-SVP
|  2> %pal
|  3> nprocs 16
|  4> end
|  5>
|  6> * xyz 0 1
|  7> S 	 -9.11183 	 29.6252 	 55.1772
|  8> C 	 -8.44489 	 28.3417 	 55.9375
|  9> C 	 -7.09532 	 28.5427 	 56.2144
| 10> C 	 -6.62007 	 29.8308 	 55.7406
| 11> C 	 -7.6435 	 30.6252 	 55.2448
| 12> H 	 -5.657 	 30.2314 	 55.6342
| 13> C 	 -6.18331 	 27.4769 	 56.7529
| 14> H 	 -5.1829 	 27.7871 	 56.4726
| 15> H 	 -6.34801 	 26.5252 	 56.2219
| 16> C 	 -6.0581 	 27.4503 	 58.2756
| 17> H 	 -5.34237 	 26.6725 	 58.49
| 18> H 	 -5.6415 	 28.3598 	 58.6281
| 19> C 	 -7.35737 	 27.1784 	 59.0083
| 20> H 	 -8.01374 	 28.0594 	 59.1081
| 21> H 	 -7.88739 	 26.4932 	 58.3644
| 22> H 	 -7.16382 	 26.6329 	 59.9325
| 23> S 	 -7.90594 	 33.4492 	 55.4851
| 24> C 	 -7.68283 	 34.38 	 53.9923
| 25> C 	 -7.12547 	 33.543 	 53.0137
| 26> C 	 -7.06353 	 32.2231 	 53.401
| 27> C 	 -7.54146 	 31.9345 	 54.6413
| 28> H 	 -6.77029 	 33.9037 	 52.0516
| 29> C 	 -6.3782 	 31.2491 	 52.4543
| 30> H 	 -5.79336 	 30.6855 	 53.1877
| 31> H 	 -5.68894 	 31.8545 	 51.9034
| 32> C 	 -7.17368 	 30.3482 	 51.383
| 33> H 	 -7.64472 	 29.5177 	 51.9877
| 34> H 	 -6.5146 	 29.8157 	 50.744
| 35> C 	 -8.34766 	 31.0459 	 50.63
| 36> H 	 -7.83723 	 31.8301 	 50.0053
| 37> H 	 -9.04995 	 31.5183 	 51.3196
| 38> H 	 -9.03128 	 30.4079 	 50.0176
| 39> H 	 -8.87703 	 27.4223 	 56.1115
| 40> H 	 -7.90077 	 35.4192 	 53.797
| 41> *
| 42>
| 43>                          ****END OF INPUT****

CARTESIAN COORDINATES (ANGSTROEM)
---------------------------------
  S     -9.111830   29.625200   55.177200
  C     -8.444890   28.341700   55.937500
  C     -7.095320   28.542700   56.214400
  C     -6.620070   29.830800   55.740600
  C     -7.643500   30.625200   55.244800
  H     -5.657000   30.231400   55.634200
  C     -6.183310   27.476900   56.752900
  H     -5.182900   27.787100   56.472600
  H     -6.348010   26.525200   56.221900
  C     -6.058100   27.450300   58.275600
  H     -5.342370   26.672500   58.490000
  H     -5.641500   28.359800   58.628100
  C     -7.357370   27.178400   59.008300
  H     -8.013740   28.059400   59.108100
  H     -7.887390   26.493200   58.364400
  H     -7.163820   26.632900   59.932500
  S     -7.905940   33.449200   55.485100
  C     -7.682830   34.380000   53.992300
  C     -7.125470   33.543000   53.013700
  C     -7.063530   32.223100   53.401000
  C     -7.541460   31.934500   54.641300
  H     -6.770290   33.903700   52.051600
  C     -6.378200   31.249100   52.454300
  H     -5.793360   30.685500   53.187700
  H     -5.688940   31.854500   51.903400
  C     -7.173680   30.348200   51.383000
  H     -7.644720   29.517700   51.987700
  H     -6.514600   29.815700   50.744000
  C     -8.347660   31.045900   50.630000
  H     -7.837230   31.830100   50.005300
  H     -9.049950   31.518300   51.319600
  H     -9.031280   30.407900   50.017600
  H     -8.877030   27.422300   56.111500
  H     -7.900770   35.419200   53.797000

 Total Charge           Charge          ....    0
 Multiplicity           Mult            ....    1
 Number of Electrons    NEL             ....  134
 Basis Dimension        Dim             ....  322

ORBITAL ENERGIES
----------------

  NO   OCC          E(Eh)            E(eV)
   0   2.0000     -88.968335     -2420.9515
   1   2.0000     -88.964488     -2420.8468
   2   2.0000     -10.326627      -281.0018
   3   2.0000     -10.322603      -280.8923
   4   2.0000     -10.321686      -280.8674
   5   2.0000     -10.304162      -280.3905
   6   2.0000     -10.299406      -280.2611
   7   2.0000     -10.296042      -280.1696
   8   2.0000     -10.293862      -280.1102
   9   2.0000     -10.292182      -280.0645
  10   2.0000     -10.291920      -280.0574
  11   2.0000     -10.289933      -280.0033
  12   2.0000     -10.287900      -279.9480
  13   2.0000     -10.283785      -279.8360
  14   2.0000     -10.278256      -279.6856
  15   2.0000     -10.271778      -279.5093
  16   2.0000      -8.082062      -219.9241
  17   2.0000      -8.080894      -219.8923
  18   2.0000      -6.040631      -164.3739
  19   2.0000      -6.039091      -164.3320
  20   2.0000      -6.036720      -164.2675
  21   2.0000      -6.034988      -164.2204
  22   2.0000      -6.032804      -164.1609
  23   2.0000      -6.032015      -164.1395
  24   2.0000      -1.011149       -27.5148
  25   2.0000      -0.990752       -26.9597
  26   2.0000      -0.914671       -24.8895
  27   2.0000      -0.895634       -24.3714
  28   2.0000      -0.876281       -23.8448
  29   2.0000      -0.849919       -23.1275
  30   2.0000      -0.846232       -23.0271
  31   2.0000      -0.814836       -22.1728
  32   2.0000      -0.781684       -21.2707
  33   2.0000      -0.771322       -20.9887
  34   2.0000      -0.712289       -19.3824
  35   2.0000      -0.696041       -18.9402
  36   2.0000      -0.692629       -18.8474
  37   2.0000      -0.665908       -18.1203
  38   2.0000      -0.656396       -17.8614
  39   2.0000      -0.611888       -16.6503
  40   2.0000      -0.581740       -15.8300
  41   2.0000      -0.573450       -15.6044
  42   2.0000      -0.552003       -15.0208
  43   2.0000      -0.551431       -15.0052
  44   2.0000      -0.545247       -14.8369
  45   2.0000      -0.537565       -14.6279
  46   2.0000      -0.520464       -14.1626
  47   2.0000      -0.515561       -14.0291
  48   2.0000      -0.508430       -13.8351
  49   2.0000      -0.495913       -13.4945
  50   2.0000      -0.487914       -13.2768
  51   2.0000      -0.479284       -13.0420
  52   2.0000      -0.477366       -12.9898
  53   2.0000      -0.467313       -12.7162
  54   2.0000      -0.461151       -12.5485
  55   2.0000      -0.444921       -12.1069
  56   2.0000      -0.440204       -11.9786
  57   2.0000      -0.434550       -11.8247
  58   2.0000      -0.432189       -11.7605
  59   2.0000      -0.421240       -11.4625
  60   2.0000      -0.417035       -11.3481
  61   2.0000      -0.413608       -11.2548
  62   2.0000      -0.402342       -10.9483
  63   2.0000      -0.338785        -9.2188
  64   2.0000      -0.333929        -9.0867
  65   2.0000      -0.316652        -8.6165
  66   2.0000      -0.307311        -8.3624
  67   0.0000       0.037935         1.0323
  68   0.0000       0.052746         1.4353
  69   0.0000       0.107941         2.9372
  70   0.0000       0.114748         3.1224
  71   0.0000       0.137474         3.7408

MULLIKEN ATOMIC CHARGES
-----------------------
   0 S :    0.134874
   1 C :   -0.063586
   2 C :   -0.120966
   3 C :    0.074107
   4 C :   -0.202011
   5 H :    0.002730
   6 C :    0.048224
   7 H :    0.007601
   8 H :    0.039380
   9 C :   -0.039140
  10 H :    0.022601
  11 H :    0.018284
  12 C :   -0.042115
  13 H :    0.051766
  14 H :    0.002647
  15 H :    0.036430
  16 S :    0.117551
  17 C :   -0.093508
  18 C :   -0.037621
  19 C :   -0.033474
  20 C :   -0.193092
  21 H :    0.017341
  22 C :    0.100031
  23 H :    0.017454
  24 H :    0.009993
  25 C :   -0.049791
  26 H :    0.028742
  27 H :    0.027527
  28 C :   -0.082249
  29 H :    0.034507
  30 H :    0.043213
  31 H :    0.045609
  32 H :    0.018487
  33 H :    0.058457
Sum of atomic charges:    0.0000000

LOEWDIN ATOMIC CHARGES
----------------------
   0 S :    0.453177
   1 C :   -0.217812
   2 C :   -0.069071
   3 C :   -0.046061
   4 C :   -0.196220
   5 H :    0.024734
   6 C :   -0.037897
   7 H :    0.031109
   8 H :    0.032346
   9 C :   -0.034705
  10 H :    0.023609
  11 H :    0.019378
  12 C :   -0.068185
  13 H :    0.031460
  14 H :    0.017276
  15 H :    0.028358
  16 S :    0.397736
  17 C :   -0.173570
  18 C :   -0.072361
  19 C :   -0.059838
  20 C :   -0.210809
  21 H :    0.031368
  22 C :   -0.024606
  23 H :    0.033308
  24 H :    0.022758
  25 C :   -0.038027
  26 H :    0.026226
  27 H :    0.018329
  28 C :   -0.075576
  29 H :    0.026152
  30 H :    0.027594
  31 H :    0.032133
  32 H :    0.016339
  33 H :    0.031351

  Mayer bond orders larger than 0.100000
B(  0-S ,  1-C ) :   1.1870 B(  0-S ,  4-C ) :   1.1549 B(  1-C ,  2-C ) :   1.5590
B(  1-C , 32-H ) :   0.9790 B(  2-C ,  3-C ) :   1.2565 B(  2-C ,  6-C ) :   1.0252
B(  3-C ,  4-C ) :   1.5758 B(  3-C ,  5-H ) :   0.9957 B(  4-C , 20-C ) :   1.0468
B(  6-C ,  7-H ) :   0.9340 B(  6-C ,  8-H ) :   0.9465 B(  6-C ,  9-C ) :   1.0821
B(  9-C , 10-H ) :   0.9538 B(  9-C , 11-H ) :   0.9531 B(  9-C , 12-C ) :   1.0817
B( 12-C , 13-H ) :   0.9715 B( 12-C , 14-H ) :   0.9745 B( 12-C , 15-H ) :   0.9730
B( 16-S , 17-C ) :   1.1692 B( 16-S , 20-C ) :   1.1268 B( 17-C , 18-C ) :   1.5689
B( 17-C , 20-C ) :   0.1080 B( 17-C , 33-H ) :   0.9693 B( 18-C , 19-C ) :   1.2863
B( 18-C , 21-H ) :   0.9864 B( 19-C , 20-C ) :   1.5858 B( 19-C , 22-C ) :   1.0096
B( 22-C , 23-H ) :   0.9321 B( 22-C , 24-H ) :   0.9391 B( 22-C , 25-C ) :   1.0504
B( 25-C , 26-H ) :   0.9567 B( 25-C , 27-H ) :   0.9615 B( 25-C , 28-C ) :   1.0694
B( 28-C , 29-H ) :   0.9789 B( 28-C , 30-H ) :   0.9715 B( 28-C , 31-H ) :   0.9762

Dispersion correction           -0.015455659
FINAL SINGLE POINT ENERGY     -1339.859503859561

DIPOLE MOMENT
-------------
                                X             Y             Z
Electronic contribution:     -8.03173      15.72929       3.72270
Nuclear contribution   :      8.48104     -16.05321      -4.01654
                        -----------------------------------------
Total Dipole Moment    :      0.44932      -0.32392      -0.29385
                        -----------------------------------------
Magnitude (a.u.)       :      0.62702
Magnitude (Debye)      :      1.59376

Rotational constants in cm-1:     0.022439     0.008053     0.006960
Rotational constants in MHz :   672.701358   241.425404   208.640624

                             ****ORCA TERMINATED NORMALLY****
TOTAL RUN TIME: 0 days 0 hours 0 minutes 37 seconds 184 msec
