                         Program Version 4.2.1 -  RELEASE  -
|  1> ! wB97X-D3 SP def2-SVP
|  2> %pal
|  3> nprocs 16
|  4> end
|  5>
|  6> * xyz 0 1
|  7> S 	 -14.7996 	 57.0315 	 59.6444
|  8> C 	 -15.1343 	 55.2925 	 59.8343
|  9> C 	 -14.8212 	 54.8294 	 61.0901
| 10> C 	 -14.4007 	 55.9037 	 61.9323
| 11> C 	 -14.3065 	 57.1598 	 61.3249
| 12> H 	 -14.1743 	 55.7603 	 62.9632
| 13> C 	 -15.0689 	 53.4412 	 61.6746
| 14> H 	 -14.7263 	 53.4267 	 62.6951
| 15> H 	 -14.411 	 52.752 	 61.0236
| 16> C 	 -16.4674 	 52.8108 	 61.5219
| 17> H 	 -17.1913 	 53.5273 	 61.9003
| 18> H 	 -16.5883 	 52.6948 	 60.4099
| 19> C 	 -16.5795 	 51.5187 	 62.2145
| 20> H 	 -17.6118 	 51.2355 	 62.2284
| 21> H 	 -15.8923 	 50.7235 	 61.7923
| 22> H 	 -16.268 	 51.4971 	 63.2548
| 23> S 	 -12.7578 	 59.4705 	 61.1424
| 24> C 	 -12.7735 	 60.5685 	 62.5087
| 25> C 	 -13.738 	 60.1551 	 63.3975
| 26> C 	 -14.5007 	 59.0379 	 62.9797
| 27> C 	 -13.9876 	 58.4226 	 61.8837
| 28> H 	 -13.78 	 60.6381 	 64.343
| 29> C 	 -15.4774 	 58.428 	 63.934
| 30> H 	 -16.0259 	 57.76 	 63.2305
| 31> H 	 -16.1858 	 59.2718 	 64.1119
| 32> C 	 -14.9465 	 57.8419 	 65.2108
| 33> H 	 -14.5832 	 58.7291 	 65.7926
| 34> H 	 -14.1696 	 57.1453 	 64.9573
| 35> C 	 -16.0052 	 57.1832 	 66.1243
| 36> H 	 -16.1942 	 56.2022 	 65.6994
| 37> H 	 -16.9876 	 57.6083 	 66.2203
| 38> H 	 -15.558 	 57.1535 	 67.097
| 39> H 	 -15.4787 	 54.648 	 59.0171
| 40> H 	 -12.0082 	 61.3199 	 62.7343
| 41> *
| 42>
| 43>                          ****END OF INPUT****

CARTESIAN COORDINATES (ANGSTROEM)
---------------------------------
  S    -14.799600   57.031500   59.644400
  C    -15.134300   55.292500   59.834300
  C    -14.821200   54.829400   61.090100
  C    -14.400700   55.903700   61.932300
  C    -14.306500   57.159800   61.324900
  H    -14.174300   55.760300   62.963200
  C    -15.068900   53.441200   61.674600
  H    -14.726300   53.426700   62.695100
  H    -14.411000   52.752000   61.023600
  C    -16.467400   52.810800   61.521900
  H    -17.191300   53.527300   61.900300
  H    -16.588300   52.694800   60.409900
  C    -16.579500   51.518700   62.214500
  H    -17.611800   51.235500   62.228400
  H    -15.892300   50.723500   61.792300
  H    -16.268000   51.497100   63.254800
  S    -12.757800   59.470500   61.142400
  C    -12.773500   60.568500   62.508700
  C    -13.738000   60.155100   63.397500
  C    -14.500700   59.037900   62.979700
  C    -13.987600   58.422600   61.883700
  H    -13.780000   60.638100   64.343000
  C    -15.477400   58.428000   63.934000
  H    -16.025900   57.760000   63.230500
  H    -16.185800   59.271800   64.111900
  C    -14.946500   57.841900   65.210800
  H    -14.583200   58.729100   65.792600
  H    -14.169600   57.145300   64.957300
  C    -16.005200   57.183200   66.124300
  H    -16.194200   56.202200   65.699400
  H    -16.987600   57.608300   66.220300
  H    -15.558000   57.153500   67.097000
  H    -15.478700   54.648000   59.017100
  H    -12.008200   61.319900   62.734300

 Total Charge           Charge          ....    0
 Multiplicity           Mult            ....    1
 Number of Electrons    NEL             ....  134
 Basis Dimension        Dim             ....  322

ORBITAL ENERGIES
----------------

  NO   OCC          E(Eh)            E(eV)
   0   2.0000     -88.966650     -2420.9056
   1   2.0000     -88.961157     -2420.7562
   2   2.0000     -10.329491      -281.0797
   3   2.0000     -10.321977      -280.8753
   4   2.0000     -10.317875      -280.7637
   5   2.0000     -10.317387      -280.7504
   6   2.0000     -10.302109      -280.3346
   7   2.0000     -10.299085      -280.2523
   8   2.0000     -10.295455      -280.1536
   9   2.0000     -10.294047      -280.1152
  10   2.0000     -10.291708      -280.0516
  11   2.0000     -10.290304      -280.0134
  12   2.0000     -10.287358      -279.9333
  13   2.0000     -10.286933      -279.9217
  14   2.0000     -10.279856      -279.7291
  15   2.0000     -10.276860      -279.6476
  16   2.0000      -8.080854      -219.8912
  17   2.0000      -8.075773      -219.7529
  18   2.0000      -6.039425      -164.3411
  19   2.0000      -6.035421      -164.2322
  20   2.0000      -6.034393      -164.2042
  21   2.0000      -6.031587      -164.1278
  22   2.0000      -6.030263      -164.0918
  23   2.0000      -6.026447      -163.9880
  24   2.0000      -1.008213       -27.4349
  25   2.0000      -0.982889       -26.7458
  26   2.0000      -0.917584       -24.9687
  27   2.0000      -0.912947       -24.8426
  28   2.0000      -0.876669       -23.8554
  29   2.0000      -0.855388       -23.2763
  30   2.0000      -0.846880       -23.0448
  31   2.0000      -0.812963       -22.1219
  32   2.0000      -0.784149       -21.3378
  33   2.0000      -0.773685       -21.0530
  34   2.0000      -0.710405       -19.3311
  35   2.0000      -0.703047       -19.1309
  36   2.0000      -0.697057       -18.9679
  37   2.0000      -0.663616       -18.0579
  38   2.0000      -0.639064       -17.3898
  39   2.0000      -0.618660       -16.8346
  40   2.0000      -0.589390       -16.0381
  41   2.0000      -0.574319       -15.6280
  42   2.0000      -0.572108       -15.5679
  43   2.0000      -0.565991       -15.4014
  44   2.0000      -0.538011       -14.6400
  45   2.0000      -0.529861       -14.4182
  46   2.0000      -0.524860       -14.2822
  47   2.0000      -0.513189       -13.9646
  48   2.0000      -0.509757       -13.8712
  49   2.0000      -0.498075       -13.5533
  50   2.0000      -0.495489       -13.4830
  51   2.0000      -0.479008       -13.0345
  52   2.0000      -0.473230       -12.8772
  53   2.0000      -0.461999       -12.5716
  54   2.0000      -0.458518       -12.4769
  55   2.0000      -0.452380       -12.3099
  56   2.0000      -0.443720       -12.0742
  57   2.0000      -0.441957       -12.0263
  58   2.0000      -0.430227       -11.7071
  59   2.0000      -0.426771       -11.6130
  60   2.0000      -0.417010       -11.3474
  61   2.0000      -0.415031       -11.2936
  62   2.0000      -0.407162       -11.0794
  63   2.0000      -0.343711        -9.3528
  64   2.0000      -0.332013        -9.0345
  65   2.0000      -0.328724        -8.9450
  66   2.0000      -0.293089        -7.9754
  67   0.0000       0.029075         0.7912
  68   0.0000       0.063370         1.7244
  69   0.0000       0.109287         2.9739
  70   0.0000       0.124367         3.3842
  71   0.0000       0.126407         3.4397

MULLIKEN ATOMIC CHARGES
-----------------------
   0 S :    0.113074
   1 C :   -0.147623
   2 C :   -0.045847
   3 C :    0.022062
   4 C :   -0.154901
   5 H :   -0.011184
   6 C :    0.025867
   7 H :    0.016262
   8 H :    0.041988
   9 C :   -0.066278
  10 H :    0.034348
  11 H :    0.035867
  12 C :   -0.033054
  13 H :    0.035455
  14 H :    0.032122
  15 H :    0.021091
  16 S :    0.095410
  17 C :   -0.092157
  18 C :   -0.045355
  19 C :   -0.021332
  20 C :   -0.153542
  21 H :    0.011156
  22 C :    0.031381
  23 H :    0.033094
  24 H :    0.026317
  25 C :   -0.061929
  26 H :    0.031931
  27 H :    0.034830
  28 C :   -0.018544
  29 H :    0.024591
  30 H :    0.028318
  31 H :    0.035151
  32 H :    0.053433
  33 H :    0.067995
Sum of atomic charges:    0.0000000

LOEWDIN ATOMIC CHARGES
----------------------
   0 S :    0.397303
   1 C :   -0.189466
   2 C :   -0.066288
   3 C :   -0.057008
   4 C :   -0.190376
   5 H :    0.022520
   6 C :   -0.033877
   7 H :    0.022491
   8 H :    0.042288
   9 C :   -0.043671
  10 H :    0.024508
  11 H :    0.030455
  12 C :   -0.069559
  13 H :    0.027738
  14 H :    0.033123
  15 H :    0.024276
  16 S :    0.383279
  17 C :   -0.181429
  18 C :   -0.068792
  19 C :   -0.060306
  20 C :   -0.194701
  21 H :    0.025585
  22 C :   -0.044446
  23 H :    0.031879
  24 H :    0.034838
  25 C :   -0.035872
  26 H :    0.030105
  27 H :    0.022689
  28 C :   -0.059958
  29 H :    0.024786
  30 H :    0.024709
  31 H :    0.026332
  32 H :    0.029880
  33 H :    0.036965

  Mayer bond orders larger than 0.100000
B(  0-S ,  1-C ) :   1.1353 B(  0-S ,  4-C ) :   1.1483 B(  1-C ,  2-C ) :   1.6095
B(  1-C ,  4-C ) :   0.1023 B(  1-C , 32-H ) :   0.9656 B(  2-C ,  3-C ) :   1.2512
B(  2-C ,  6-C ) :   1.0191 B(  3-C ,  4-C ) :   1.5553 B(  3-C ,  5-H ) :   0.9999
B(  4-C , 20-C ) :   1.0674 B(  6-C ,  7-H ) :   0.9490 B(  6-C ,  8-H ) :   0.9323
B(  6-C ,  9-C ) :   1.0629 B(  9-C , 10-H ) :   0.9557 B(  9-C , 11-H ) :   0.9474
B(  9-C , 12-C ) :   1.0984 B( 12-C , 13-H ) :   0.9701 B( 12-C , 14-H ) :   0.9683
B( 12-C , 15-H ) :   0.9704 B( 16-S , 17-C ) :   1.1431 B( 16-S , 20-C ) :   1.1175
B( 17-C , 18-C ) :   1.6315 B( 17-C , 33-H ) :   0.9642 B( 18-C , 19-C ) :   1.2007
B( 18-C , 21-H ) :   0.9952 B( 19-C , 20-C ) :   1.6044 B( 19-C , 22-C ) :   1.0590
B( 22-C , 23-H ) :   0.9292 B( 22-C , 24-H ) :   0.9209 B( 22-C , 25-C ) :   1.0659
B( 25-C , 26-H ) :   0.9494 B( 25-C , 27-H ) :   0.9547 B( 25-C , 28-C ) :   1.0776
B( 28-C , 29-H ) :   0.9751 B( 28-C , 30-H ) :   0.9762 B( 28-C , 31-H ) :   0.9765

Dispersion correction           -0.014137363
FINAL SINGLE POINT ENERGY     -1339.875206790736

DIPOLE MOMENT
-------------
                                X             Y             Z
Electronic contribution:     13.35719      21.44827     -20.54575
Nuclear contribution   :    -13.59989     -21.90805      21.28613
                        -----------------------------------------
Total Dipole Moment    :     -0.24271      -0.45978       0.74038
                        -----------------------------------------
Magnitude (a.u.)       :      0.90469
Magnitude (Debye)      :      2.29954

Rotational constants in cm-1:     0.018859     0.008674     0.006285
Rotational constants in MHz :   565.375869   260.040597   188.429713

                             ****ORCA TERMINATED NORMALLY****
TOTAL RUN TIME: 0 days 0 hours 0 minutes 33 seconds 362 msec
