                         Program Version 4.2.1 -  RELEASE  -
|  1> ! wB97X-D3 SP def2-SVP
|  2> %pal
|  3> nprocs 16
|  4> end
|  5>
|  6> * xyz 0 1
|  7> S 	 4.08783 	 -17.4308 	 84.8545
|  8> C 	 3.91271 	 -18.4599 	 86.2559
|  9> C 	 5.10586 	 -19.0371 	 86.6736
| 10> C 	 6.201 	 -18.55 	 85.8668
| 11> C 	 5.82673 	 -17.5888 	 84.9508
| 12> H 	 7.24948 	 -18.7658 	 86.111
| 13> C 	 5.27952 	 -19.9727 	 87.8815
| 14> H 	 5.91121 	 -20.795 	 87.4695
| 15> H 	 4.35033 	 -20.3481 	 88.2029
| 16> C 	 5.86465 	 -19.3032 	 89.1275
| 17> H 	 6.69617 	 -18.601 	 88.8645
| 18> H 	 5.06112 	 -18.6964 	 89.6018
| 19> C 	 6.32641 	 -20.3181 	 90.2766
| 20> H 	 5.54353 	 -21.0305 	 90.5547
| 21> H 	 7.24085 	 -20.865 	 90.1741
| 22> H 	 6.49446 	 -19.5999 	 91.1206
| 23> S 	 6.27192 	 -14.9812 	 84.5248
| 24> C 	 7.62728 	 -14.3474 	 83.5873
| 25> C 	 8.39676 	 -15.4459 	 83.1773
| 26> C 	 7.78624 	 -16.7499 	 83.467
| 27> C 	 6.68698 	 -16.6386 	 84.3123
| 28> H 	 9.19023 	 -15.2743 	 82.5266
| 29> C 	 8.41249 	 -18.1065 	 83.0242
| 30> H 	 8.68462 	 -17.8785 	 81.9822
| 31> H 	 7.71238 	 -19.0146 	 82.9954
| 32> C 	 9.68843 	 -18.5811 	 83.7073
| 33> H 	 9.55956 	 -18.6626 	 84.751
| 34> H 	 10.4467 	 -17.7587 	 83.6398
| 35> C 	 10.4359 	 -19.8048 	 83.0331
| 36> H 	 9.88624 	 -20.7363 	 83.016
| 37> H 	 11.3528 	 -19.9486 	 83.4223
| 38> H 	 10.6928 	 -19.6356 	 82.0182
| 39> H 	 2.93529 	 -18.7476 	 86.6696
| 40> H 	 7.88025 	 -13.3381 	 83.3458
| 41> *
| 42>
| 43>                          ****END OF INPUT****

CARTESIAN COORDINATES (ANGSTROEM)
---------------------------------
  S      4.087830  -17.430800   84.854500
  C      3.912710  -18.459900   86.255900
  C      5.105860  -19.037100   86.673600
  C      6.201000  -18.550000   85.866800
  C      5.826730  -17.588800   84.950800
  H      7.249480  -18.765800   86.111000
  C      5.279520  -19.972700   87.881500
  H      5.911210  -20.795000   87.469500
  H      4.350330  -20.348100   88.202900
  C      5.864650  -19.303200   89.127500
  H      6.696170  -18.601000   88.864500
  H      5.061120  -18.696400   89.601800
  C      6.326410  -20.318100   90.276600
  H      5.543530  -21.030500   90.554700
  H      7.240850  -20.865000   90.174100
  H      6.494460  -19.599900   91.120600
  S      6.271920  -14.981200   84.524800
  C      7.627280  -14.347400   83.587300
  C      8.396760  -15.445900   83.177300
  C      7.786240  -16.749900   83.467000
  C      6.686980  -16.638600   84.312300
  H      9.190230  -15.274300   82.526600
  C      8.412490  -18.106500   83.024200
  H      8.684620  -17.878500   81.982200
  H      7.712380  -19.014600   82.995400
  C      9.688430  -18.581100   83.707300
  H      9.559560  -18.662600   84.751000
  H     10.446700  -17.758700   83.639800
  C     10.435900  -19.804800   83.033100
  H      9.886240  -20.736300   83.016000
  H     11.352800  -19.948600   83.422300
  H     10.692800  -19.635600   82.018200
  H      2.935290  -18.747600   86.669600
  H      7.880250  -13.338100   83.345800

 Total Charge           Charge          ....    0
 Multiplicity           Mult            ....    1
 Number of Electrons    NEL             ....  134
 Basis Dimension        Dim             ....  322

ORBITAL ENERGIES
----------------

  NO   OCC          E(Eh)            E(eV)
   0   2.0000     -88.968267     -2420.9496
   1   2.0000     -88.963015     -2420.8067
   2   2.0000     -10.328758      -281.0598
   3   2.0000     -10.324016      -280.9308
   4   2.0000     -10.319692      -280.8131
   5   2.0000     -10.315858      -280.7088
   6   2.0000     -10.309416      -280.5335
   7   2.0000     -10.304762      -280.4068
   8   2.0000     -10.298713      -280.2422
   9   2.0000     -10.298555      -280.2379
  10   2.0000     -10.298159      -280.2271
  11   2.0000     -10.295920      -280.1662
  12   2.0000     -10.294404      -280.1250
  13   2.0000     -10.288444      -279.9628
  14   2.0000     -10.285072      -279.8710
  15   2.0000     -10.269747      -279.4540
  16   2.0000      -8.083069      -219.9515
  17   2.0000      -8.077889      -219.8105
  18   2.0000      -6.041544      -164.3988
  19   2.0000      -6.037632      -164.2923
  20   2.0000      -6.036518      -164.2620
  21   2.0000      -6.033782      -164.1875
  22   2.0000      -6.032132      -164.1427
  23   2.0000      -6.028711      -164.0496
  24   2.0000      -1.008523       -27.4433
  25   2.0000      -0.980609       -26.6837
  26   2.0000      -0.907332       -24.6898
  27   2.0000      -0.900472       -24.5031
  28   2.0000      -0.869732       -23.6666
  29   2.0000      -0.847994       -23.0751
  30   2.0000      -0.841220       -22.8908
  31   2.0000      -0.814915       -22.1750
  32   2.0000      -0.784234       -21.3401
  33   2.0000      -0.775073       -21.0908
  34   2.0000      -0.708912       -19.2905
  35   2.0000      -0.698356       -19.0032
  36   2.0000      -0.694662       -18.9027
  37   2.0000      -0.665321       -18.1043
  38   2.0000      -0.639521       -17.4023
  39   2.0000      -0.623509       -16.9666
  40   2.0000      -0.591420       -16.0934
  41   2.0000      -0.564670       -15.3655
  42   2.0000      -0.559093       -15.2137
  43   2.0000      -0.555240       -15.1088
  44   2.0000      -0.524852       -14.2820
  45   2.0000      -0.522568       -14.2198
  46   2.0000      -0.516009       -14.0413
  47   2.0000      -0.513866       -13.9830
  48   2.0000      -0.508602       -13.8398
  49   2.0000      -0.497513       -13.5380
  50   2.0000      -0.494595       -13.4586
  51   2.0000      -0.477324       -12.9887
  52   2.0000      -0.470807       -12.8113
  53   2.0000      -0.465117       -12.6565
  54   2.0000      -0.461756       -12.5650
  55   2.0000      -0.449372       -12.2280
  56   2.0000      -0.447474       -12.1764
  57   2.0000      -0.438290       -11.9265
  58   2.0000      -0.435378       -11.8472
  59   2.0000      -0.427194       -11.6245
  60   2.0000      -0.415449       -11.3050
  61   2.0000      -0.412770       -11.2321
  62   2.0000      -0.409773       -11.1505
  63   2.0000      -0.349127        -9.5002
  64   2.0000      -0.330376        -8.9900
  65   2.0000      -0.325412        -8.8549
  66   2.0000      -0.293479        -7.9860
  67   0.0000       0.029651         0.8069
  68   0.0000       0.070383         1.9152
  69   0.0000       0.112945         3.0734
  70   0.0000       0.122653         3.3376
  71   0.0000       0.125761         3.4221

MULLIKEN ATOMIC CHARGES
-----------------------
   0 S :    0.124633
   1 C :   -0.132396
   2 C :   -0.111178
   3 C :    0.037524
   4 C :   -0.157106
   5 H :    0.020957
   6 C :    0.106502
   7 H :    0.040206
   8 H :    0.003297
   9 C :   -0.111274
  10 H :    0.043304
  11 H :    0.038234
  12 C :   -0.066715
  13 H :    0.036548
  14 H :    0.037503
  15 H :    0.039504
  16 S :    0.103388
  17 C :   -0.089992
  18 C :   -0.014253
  19 C :   -0.040383
  20 C :   -0.138054
  21 H :    0.001961
  22 C :    0.031812
  23 H :    0.021898
  24 H :    0.048468
  25 C :   -0.071294
  26 H :    0.018113
  27 H :    0.018586
  28 C :    0.007489
  29 H :    0.030309
  30 H :    0.005224
  31 H :    0.010006
  32 H :    0.052277
  33 H :    0.054902
Sum of atomic charges:   -0.0000000

LOEWDIN ATOMIC CHARGES
----------------------
   0 S :    0.408530
   1 C :   -0.200696
   2 C :   -0.062310
   3 C :   -0.054971
   4 C :   -0.196674
   5 H :    0.033707
   6 C :   -0.031404
   7 H :    0.037423
   8 H :    0.021825
   9 C :   -0.040475
  10 H :    0.027397
  11 H :    0.030374
  12 C :   -0.070750
  13 H :    0.025065
  14 H :    0.019838
  15 H :    0.034451
  16 S :    0.414937
  17 C :   -0.182766
  18 C :   -0.062478
  19 C :   -0.058812
  20 C :   -0.207175
  21 H :    0.018279
  22 C :   -0.040949
  23 H :    0.031361
  24 H :    0.038924
  25 C :   -0.039015
  26 H :    0.013123
  27 H :    0.026637
  28 C :   -0.054682
  29 H :    0.024632
  30 H :    0.013337
  31 H :    0.023852
  32 H :    0.029486
  33 H :    0.029977

  Mayer bond orders larger than 0.100000
B(  0-S ,  1-C ) :   1.1342 B(  0-S ,  4-C ) :   1.1485 B(  1-C ,  2-C ) :   1.6246
B(  1-C , 32-H ) :   0.9624 B(  2-C ,  3-C ) :   1.2391 B(  2-C ,  6-C ) :   1.0258
B(  3-C ,  4-C ) :   1.5727 B(  3-C ,  5-H ) :   0.9869 B(  4-C , 20-C ) :   1.0521
B(  6-C ,  7-H ) :   0.9423 B(  6-C ,  8-H ) :   0.9361 B(  6-C ,  9-C ) :   1.0577
B(  9-C , 10-H ) :   0.9625 B(  9-C , 11-H ) :   0.9576 B(  9-C , 12-C ) :   1.0629
B( 12-C , 13-H ) :   0.9763 B( 12-C , 14-H ) :   0.9803 B( 12-C , 15-H ) :   0.9779
B( 16-S , 17-C ) :   1.1473 B( 16-S , 20-C ) :   1.1452 B( 17-C , 18-C ) :   1.6076
B( 17-C , 33-H ) :   0.9739 B( 18-C , 19-C ) :   1.2376 B( 18-C , 21-H ) :   0.9911
B( 19-C , 20-C ) :   1.5825 B( 19-C , 22-C ) :   1.0435 B( 22-C , 23-H ) :   0.9289
B( 22-C , 24-H ) :   0.9439 B( 22-C , 25-C ) :   1.0633 B( 25-C , 26-H ) :   0.9585
B( 25-C , 27-H ) :   0.9517 B( 25-C , 28-C ) :   1.0725 B( 28-C , 29-H ) :   0.9776
B( 28-C , 30-H ) :   0.9717 B( 28-C , 31-H ) :   0.9705

Dispersion correction           -0.013637489
FINAL SINGLE POINT ENERGY     -1339.865917221533

DIPOLE MOMENT
-------------
                                X             Y             Z
Electronic contribution:    -17.35466      20.39588     -11.15860
Nuclear contribution   :     17.78837     -20.76767      11.37649
                        -----------------------------------------
Total Dipole Moment    :      0.43371      -0.37178       0.21789
                        -----------------------------------------
Magnitude (a.u.)       :      0.61140
Magnitude (Debye)      :      1.55405

Rotational constants in cm-1:     0.015767     0.008594     0.006602
Rotational constants in MHz :   472.679421   257.638333   197.927038

                             ****ORCA TERMINATED NORMALLY****
TOTAL RUN TIME: 0 days 0 hours 0 minutes 31 seconds 321 msec
