                         Program Version 4.2.1 -  RELEASE  -
|  1> ! wB97X-D3 SP def2-SVP
|  2> %pal
|  3> nprocs 16
|  4> end
|  5>
|  6> * xyz 0 1
|  7> S 	 51.5913 	 5.8067 	 94.5671
|  8> C 	 52.2744 	 7.13048 	 95.4415
|  9> C 	 51.256 	 7.93148 	 95.9419
| 10> C 	 49.9366 	 7.52017 	 95.5399
| 11> C 	 49.9225 	 6.45101 	 94.6816
| 12> H 	 49.0483 	 8.0519 	 95.7871
| 13> C 	 51.5627 	 9.2138 	 96.7545
| 14> H 	 52.2365 	 8.889 	 97.5682
| 15> H 	 50.6465 	 9.56216 	 97.182
| 16> C 	 52.3456 	 10.4033 	 96.0534
| 17> H 	 53.4249 	 10.1874 	 95.8628
| 18> H 	 51.9616 	 10.4563 	 95.0958
| 19> C 	 52.2833 	 11.6939 	 96.7465
| 20> H 	 52.817 	 11.6632 	 97.7067
| 21> H 	 52.8585 	 12.493 	 96.1504
| 22> H 	 51.1588 	 12.0056 	 96.8828
| 23> S 	 48.8425 	 5.75102 	 92.3081
| 24> C 	 47.2827 	 4.98061 	 92.1538
| 25> C 	 46.6915 	 4.863 	 93.4344
| 26> C 	 47.5673 	 5.25942 	 94.5259
| 27> C 	 48.7198 	 5.80778 	 94.0423
| 28> H 	 45.72 	 4.54665 	 93.6111
| 29> C 	 47.1755 	 5.14811 	 95.9815
| 30> H 	 46.3573 	 5.87436 	 96.1544
| 31> H 	 48.0869 	 5.37426 	 96.6502
| 32> C 	 46.8192 	 3.69104 	 96.3649
| 33> H 	 45.8528 	 3.26912 	 96.0067
| 34> H 	 46.4896 	 3.6552 	 97.4395
| 35> C 	 48.0352 	 2.7684 	 96.2217
| 36> H 	 48.4072 	 2.88585 	 95.1782
| 37> H 	 47.7694 	 1.72808 	 96.4248
| 38> H 	 48.7757 	 3.051 	 96.949
| 39> H 	 53.2887 	 7.28034 	 95.6316
| 40> H 	 46.8863 	 4.64704 	 91.1914
| 41> *
| 42>
| 43>                          ****END OF INPUT****

CARTESIAN COORDINATES (ANGSTROEM)
---------------------------------
  S     51.591300    5.806700   94.567100
  C     52.274400    7.130480   95.441500
  C     51.256000    7.931480   95.941900
  C     49.936600    7.520170   95.539900
  C     49.922500    6.451010   94.681600
  H     49.048300    8.051900   95.787100
  C     51.562700    9.213800   96.754500
  H     52.236500    8.889000   97.568200
  H     50.646500    9.562160   97.182000
  C     52.345600   10.403300   96.053400
  H     53.424900   10.187400   95.862800
  H     51.961600   10.456300   95.095800
  C     52.283300   11.693900   96.746500
  H     52.817000   11.663200   97.706700
  H     52.858500   12.493000   96.150400
  H     51.158800   12.005600   96.882800
  S     48.842500    5.751020   92.308100
  C     47.282700    4.980610   92.153800
  C     46.691500    4.863000   93.434400
  C     47.567300    5.259420   94.525900
  C     48.719800    5.807780   94.042300
  H     45.720000    4.546650   93.611100
  C     47.175500    5.148110   95.981500
  H     46.357300    5.874360   96.154400
  H     48.086900    5.374260   96.650200
  C     46.819200    3.691040   96.364900
  H     45.852800    3.269120   96.006700
  H     46.489600    3.655200   97.439500
  C     48.035200    2.768400   96.221700
  H     48.407200    2.885850   95.178200
  H     47.769400    1.728080   96.424800
  H     48.775700    3.051000   96.949000
  H     53.288700    7.280340   95.631600
  H     46.886300    4.647040   91.191400

 Total Charge           Charge          ....    0
 Multiplicity           Mult            ....    1
 Number of Electrons    NEL             ....  134
 Basis Dimension        Dim             ....  322

ORBITAL ENERGIES
----------------

  NO   OCC          E(Eh)            E(eV)
   0   2.0000     -88.965132     -2420.8643
   1   2.0000     -88.963501     -2420.8199
   2   2.0000     -10.334149      -281.2065
   3   2.0000     -10.327218      -281.0179
   4   2.0000     -10.324617      -280.9471
   5   2.0000     -10.310210      -280.5551
   6   2.0000     -10.304483      -280.3992
   7   2.0000     -10.303073      -280.3609
   8   2.0000     -10.302661      -280.3497
   9   2.0000     -10.296688      -280.1871
  10   2.0000     -10.294701      -280.1331
  11   2.0000     -10.294350      -280.1235
  12   2.0000     -10.290511      -280.0191
  13   2.0000     -10.290495      -280.0186
  14   2.0000     -10.281415      -279.7715
  15   2.0000     -10.274429      -279.5814
  16   2.0000      -8.079433      -219.8526
  17   2.0000      -8.078707      -219.8328
  18   2.0000      -6.038037      -164.3033
  19   2.0000      -6.037182      -164.2801
  20   2.0000      -6.033885      -164.1904
  21   2.0000      -6.033039      -164.1673
  22   2.0000      -6.030223      -164.0907
  23   2.0000      -6.029565      -164.0728
  24   2.0000      -1.003499       -27.3066
  25   2.0000      -0.982952       -26.7475
  26   2.0000      -0.908279       -24.7155
  27   2.0000      -0.906352       -24.6631
  28   2.0000      -0.866290       -23.5729
  29   2.0000      -0.850007       -23.1299
  30   2.0000      -0.844663       -22.9845
  31   2.0000      -0.815560       -22.1925
  32   2.0000      -0.777418       -21.1546
  33   2.0000      -0.765787       -20.8381
  34   2.0000      -0.701124       -19.0785
  35   2.0000      -0.697279       -18.9739
  36   2.0000      -0.690090       -18.7783
  37   2.0000      -0.665466       -18.1083
  38   2.0000      -0.646493       -17.5920
  39   2.0000      -0.615940       -16.7606
  40   2.0000      -0.593772       -16.1573
  41   2.0000      -0.568585       -15.4720
  42   2.0000      -0.562779       -15.3140
  43   2.0000      -0.560578       -15.2541
  44   2.0000      -0.538344       -14.6491
  45   2.0000      -0.519150       -14.1268
  46   2.0000      -0.516866       -14.0646
  47   2.0000      -0.512626       -13.9493
  48   2.0000      -0.503312       -13.6958
  49   2.0000      -0.499219       -13.5844
  50   2.0000      -0.484287       -13.1781
  51   2.0000      -0.478129       -13.0106
  52   2.0000      -0.471742       -12.8368
  53   2.0000      -0.462909       -12.5964
  54   2.0000      -0.457224       -12.4417
  55   2.0000      -0.451140       -12.2761
  56   2.0000      -0.442261       -12.0345
  57   2.0000      -0.438878       -11.9425
  58   2.0000      -0.426217       -11.5980
  59   2.0000      -0.425004       -11.5650
  60   2.0000      -0.417162       -11.3516
  61   2.0000      -0.412275       -11.2186
  62   2.0000      -0.402745       -10.9593
  63   2.0000      -0.343029        -9.3343
  64   2.0000      -0.330269        -8.9871
  65   2.0000      -0.324913        -8.8413
  66   2.0000      -0.301006        -8.1908
  67   0.0000       0.035468         0.9651
  68   0.0000       0.064919         1.7665
  69   0.0000       0.117537         3.1984
  70   0.0000       0.118485         3.2241
  71   0.0000       0.127764         3.4766

MULLIKEN ATOMIC CHARGES
-----------------------
   0 S :    0.111946
   1 C :   -0.095288
   2 C :   -0.109303
   3 C :    0.061801
   4 C :   -0.141460
   5 H :    0.001897
   6 C :    0.066128
   7 H :    0.033965
   8 H :    0.008259
   9 C :   -0.040231
  10 H :    0.022859
  11 H :    0.014539
  12 C :   -0.095856
  13 H :    0.036207
  14 H :    0.047756
  15 H :    0.047419
  16 S :    0.107480
  17 C :   -0.095663
  18 C :   -0.003677
  19 C :   -0.042835
  20 C :   -0.188984
  21 H :   -0.006953
  22 C :    0.043348
  23 H :    0.050546
  24 H :    0.049773
  25 C :   -0.111825
  26 H :    0.025651
  27 H :    0.021319
  28 C :   -0.044501
  29 H :    0.058833
  30 H :    0.034798
  31 H :    0.032834
  32 H :    0.029107
  33 H :    0.070111
Sum of atomic charges:   -0.0000000

LOEWDIN ATOMIC CHARGES
----------------------
   0 S :    0.398791
   1 C :   -0.191169
   2 C :   -0.065795
   3 C :   -0.059293
   4 C :   -0.187202
   5 H :    0.028369
   6 C :   -0.028615
   7 H :    0.034232
   8 H :    0.021563
   9 C :   -0.048004
  10 H :    0.027235
  11 H :    0.013742
  12 C :   -0.075912
  13 H :    0.024519
  14 H :    0.037403
  15 H :    0.034749
  16 S :    0.415645
  17 C :   -0.185042
  18 C :   -0.058131
  19 C :   -0.062364
  20 C :   -0.202258
  21 H :    0.016813
  22 C :   -0.034966
  23 H :    0.037318
  24 H :    0.044867
  25 C :   -0.058206
  26 H :    0.021802
  27 H :    0.026033
  28 C :   -0.063323
  29 H :    0.033704
  30 H :    0.027211
  31 H :    0.024624
  32 H :    0.019033
  33 H :    0.032626

  Mayer bond orders larger than 0.100000
B(  0-S ,  1-C ) :   1.1452 B(  0-S ,  4-C ) :   1.1505 B(  1-C ,  2-C ) :   1.5900
B(  1-C , 32-H ) :   0.9828 B(  2-C ,  3-C ) :   1.2452 B(  2-C ,  6-C ) :   1.0293
B(  3-C ,  4-C ) :   1.5773 B(  3-C ,  5-H ) :   1.0034 B(  4-C , 20-C ) :   0.9916
B(  6-C ,  7-H ) :   0.9385 B(  6-C ,  8-H ) :   0.9468 B(  6-C ,  9-C ) :   1.0476
B(  9-C , 10-H ) :   0.9460 B(  9-C , 11-H ) :   0.9553 B(  9-C , 12-C ) :   1.1023
B( 12-C , 13-H ) :   0.9725 B( 12-C , 14-H ) :   0.9683 B( 12-C , 15-H ) :   0.9703
B( 16-S , 17-C ) :   1.1609 B( 16-S , 20-C ) :   1.1581 B( 17-C , 18-C ) :   1.5808
B( 17-C , 33-H ) :   0.9723 B( 18-C , 19-C ) :   1.2232 B( 18-C , 21-H ) :   0.9995
B( 19-C , 20-C ) :   1.6185 B( 19-C , 22-C ) :   1.0373 B( 22-C , 23-H ) :   0.9353
B( 22-C , 24-H ) :   0.9393 B( 22-C , 25-C ) :   1.0649 B( 25-C , 26-H ) :   0.9558
B( 25-C , 27-H ) :   0.9532 B( 25-C , 28-C ) :   1.0630 B( 28-C , 29-H ) :   0.9756
B( 28-C , 30-H ) :   0.9727 B( 28-C , 31-H ) :   0.9736

Dispersion correction           -0.014232081
FINAL SINGLE POINT ENERGY     -1339.874924430563

DIPOLE MOMENT
-------------
                                X             Y             Z
Electronic contribution:      1.27377      -8.93242     -18.47117
Nuclear contribution   :     -1.53631       9.14941      18.89695
                        -----------------------------------------
Total Dipole Moment    :     -0.26254       0.21698       0.42578
                        -----------------------------------------
Magnitude (a.u.)       :      0.54525
Magnitude (Debye)      :      1.38592

Rotational constants in cm-1:     0.022614     0.006976     0.006472
Rotational constants in MHz :   677.937971   209.129869   194.036011

                             ****ORCA TERMINATED NORMALLY****
TOTAL RUN TIME: 0 days 0 hours 0 minutes 29 seconds 365 msec
