                         Program Version 4.2.1 -  RELEASE  -
|  1> ! wB97X-D3 SP def2-SVP
|  2> %pal
|  3> nprocs 16
|  4> end
|  5>
|  6> * xyz 0 1
|  7> S 	 9.57687 	 -10.7294 	 63.3115
|  8> C 	 8.41349 	 -10.7542 	 61.9224
|  9> C 	 9.00729 	 -10.4962 	 60.6472
| 10> C 	 10.4226 	 -10.2112 	 60.9225
| 11> C 	 10.7673 	 -10.1862 	 62.2416
| 12> H 	 11.2012 	 -9.91123 	 60.236
| 13> C 	 8.28391 	 -10.314 	 59.3381
| 14> H 	 7.80879 	 -11.2789 	 59.088
| 15> H 	 9.11864 	 -10.2324 	 58.5571
| 16> C 	 7.15676 	 -9.21692 	 59.2959
| 17> H 	 6.68662 	 -9.30861 	 58.3741
| 18> H 	 6.28871 	 -9.46664 	 59.9656
| 19> C 	 7.64595 	 -7.75771 	 59.5267
| 20> H 	 8.26524 	 -7.51227 	 58.7026
| 21> H 	 6.76054 	 -7.11506 	 59.6072
| 22> H 	 8.34228 	 -7.63904 	 60.3881
| 23> S 	 12.5352 	 -8.33604 	 62.6814
| 24> C 	 14.13 	 -8.68196 	 63.2095
| 25> C 	 14.1941 	 -9.95053 	 63.7641
| 26> C 	 13.0457 	 -10.7179 	 63.4658
| 27> C 	 12.0999 	 -9.97933 	 62.7263
| 28> H 	 15.1938 	 -10.1878 	 64.2397
| 29> C 	 12.9153 	 -12.1788 	 63.9779
| 30> H 	 11.8347 	 -12.4672 	 63.9762
| 31> H 	 13.2134 	 -12.2916 	 65.0346
| 32> C 	 13.7987 	 -13.1726 	 63.1913
| 33> H 	 14.7672 	 -12.8206 	 63.4667
| 34> H 	 13.7324 	 -13.1774 	 62.0725
| 35> C 	 13.4345 	 -14.6121 	 63.6798
| 36> H 	 12.4013 	 -14.5257 	 63.55
| 37> H 	 13.7474 	 -14.7549 	 64.6964
| 38> H 	 13.8669 	 -15.3788 	 63.0231
| 39> H 	 7.37905 	 -10.9708 	 61.9838
| 40> H 	 14.9531 	 -7.99462 	 63.0163
| 41> *
| 42>
| 43>                          ****END OF INPUT****

CARTESIAN COORDINATES (ANGSTROEM)
---------------------------------
  S      9.576870  -10.729400   63.311500
  C      8.413490  -10.754200   61.922400
  C      9.007290  -10.496200   60.647200
  C     10.422600  -10.211200   60.922500
  C     10.767300  -10.186200   62.241600
  H     11.201200   -9.911230   60.236000
  C      8.283910  -10.314000   59.338100
  H      7.808790  -11.278900   59.088000
  H      9.118640  -10.232400   58.557100
  C      7.156760   -9.216920   59.295900
  H      6.686620   -9.308610   58.374100
  H      6.288710   -9.466640   59.965600
  C      7.645950   -7.757710   59.526700
  H      8.265240   -7.512270   58.702600
  H      6.760540   -7.115060   59.607200
  H      8.342280   -7.639040   60.388100
  S     12.535200   -8.336040   62.681400
  C     14.130000   -8.681960   63.209500
  C     14.194100   -9.950530   63.764100
  C     13.045700  -10.717900   63.465800
  C     12.099900   -9.979330   62.726300
  H     15.193800  -10.187800   64.239700
  C     12.915300  -12.178800   63.977900
  H     11.834700  -12.467200   63.976200
  H     13.213400  -12.291600   65.034600
  C     13.798700  -13.172600   63.191300
  H     14.767200  -12.820600   63.466700
  H     13.732400  -13.177400   62.072500
  C     13.434500  -14.612100   63.679800
  H     12.401300  -14.525700   63.550000
  H     13.747400  -14.754900   64.696400
  H     13.866900  -15.378800   63.023100
  H      7.379050  -10.970800   61.983800
  H     14.953100   -7.994620   63.016300

 Total Charge           Charge          ....    0
 Multiplicity           Mult            ....    1
 Number of Electrons    NEL             ....  134
 Basis Dimension        Dim             ....  322

ORBITAL ENERGIES
----------------

  NO   OCC          E(Eh)            E(eV)
   0   2.0000     -88.969767     -2420.9904
   1   2.0000     -88.959829     -2420.7200
   2   2.0000     -10.318449      -280.7793
   3   2.0000     -10.317578      -280.7556
   4   2.0000     -10.317458      -280.7523
   5   2.0000     -10.311827      -280.5991
   6   2.0000     -10.309165      -280.5267
   7   2.0000     -10.306529      -280.4549
   8   2.0000     -10.306167      -280.4451
   9   2.0000     -10.295438      -280.1531
  10   2.0000     -10.294636      -280.1313
  11   2.0000     -10.294111      -280.1170
  12   2.0000     -10.293175      -280.0915
  13   2.0000     -10.282910      -279.8122
  14   2.0000     -10.277684      -279.6700
  15   2.0000     -10.270658      -279.4788
  16   2.0000      -8.084137      -219.9806
  17   2.0000      -8.076356      -219.7688
  18   2.0000      -6.042617      -164.4280
  19   2.0000      -6.038767      -164.3232
  20   2.0000      -6.034870      -164.2172
  21   2.0000      -6.034613      -164.2102
  22   2.0000      -6.030576      -164.1003
  23   2.0000      -6.027312      -164.0115
  24   2.0000      -1.013837       -27.5879
  25   2.0000      -0.982407       -26.7326
  26   2.0000      -0.908575       -24.7236
  27   2.0000      -0.905325       -24.6351
  28   2.0000      -0.866797       -23.5867
  29   2.0000      -0.850596       -23.1459
  30   2.0000      -0.842398       -22.9228
  31   2.0000      -0.809399       -22.0249
  32   2.0000      -0.782056       -21.2808
  33   2.0000      -0.767209       -20.8768
  34   2.0000      -0.711759       -19.3679
  35   2.0000      -0.698785       -19.0149
  36   2.0000      -0.688702       -18.7405
  37   2.0000      -0.656598       -17.8669
  38   2.0000      -0.637969       -17.3600
  39   2.0000      -0.609603       -16.5882
  40   2.0000      -0.592278       -16.1167
  41   2.0000      -0.567904       -15.4535
  42   2.0000      -0.565392       -15.3851
  43   2.0000      -0.548579       -14.9276
  44   2.0000      -0.539185       -14.6720
  45   2.0000      -0.524180       -14.2637
  46   2.0000      -0.515533       -14.0284
  47   2.0000      -0.511931       -13.9303
  48   2.0000      -0.505227       -13.7479
  49   2.0000      -0.490063       -13.3353
  50   2.0000      -0.487430       -13.2636
  51   2.0000      -0.475471       -12.9382
  52   2.0000      -0.466834       -12.7032
  53   2.0000      -0.465022       -12.6539
  54   2.0000      -0.456185       -12.4134
  55   2.0000      -0.445436       -12.1209
  56   2.0000      -0.438452       -11.9309
  57   2.0000      -0.436443       -11.8762
  58   2.0000      -0.432037       -11.7563
  59   2.0000      -0.429390       -11.6843
  60   2.0000      -0.420523       -11.4430
  61   2.0000      -0.416116       -11.3231
  62   2.0000      -0.414930       -11.2908
  63   2.0000      -0.334113        -9.0917
  64   2.0000      -0.330044        -8.9809
  65   2.0000      -0.321650        -8.7525
  66   2.0000      -0.297267        -8.0891
  67   0.0000       0.033894         0.9223
  68   0.0000       0.064603         1.7579
  69   0.0000       0.102256         2.7825
  70   0.0000       0.113029         3.0757
  71   0.0000       0.125642         3.4189

MULLIKEN ATOMIC CHARGES
-----------------------
   0 S :    0.131613
   1 C :   -0.109284
   2 C :   -0.082464
   3 C :    0.028325
   4 C :   -0.152115
   5 H :    0.008683
   6 C :    0.031745
   7 H :    0.038746
   8 H :    0.039163
   9 C :   -0.051468
  10 H :    0.013712
  11 H :    0.029554
  12 C :   -0.044193
  13 H :    0.021305
  14 H :    0.044558
  15 H :    0.050659
  16 S :    0.117552
  17 C :   -0.120351
  18 C :   -0.067027
  19 C :    0.010640
  20 C :   -0.197381
  21 H :    0.045977
  22 C :    0.023988
  23 H :    0.018180
  24 H :    0.033636
  25 C :   -0.093474
  26 H :    0.014077
  27 H :    0.043712
  28 C :   -0.011040
  29 H :    0.023099
  30 H :    0.029824
  31 H :    0.038651
  32 H :    0.027435
  33 H :    0.063964
Sum of atomic charges:   -0.0000000

LOEWDIN ATOMIC CHARGES
----------------------
   0 S :    0.419614
   1 C :   -0.175121
   2 C :   -0.054702
   3 C :   -0.060275
   4 C :   -0.231071
   5 H :    0.029363
   6 C :   -0.041406
   7 H :    0.038340
   8 H :    0.040077
   9 C :   -0.035420
  10 H :    0.016027
  11 H :    0.028428
  12 C :   -0.064212
  13 H :    0.019932
  14 H :    0.030410
  15 H :    0.033971
  16 S :    0.448509
  17 C :   -0.204559
  18 C :   -0.082129
  19 C :   -0.060494
  20 C :   -0.217098
  21 H :    0.044658
  22 C :   -0.035601
  23 H :    0.017902
  24 H :    0.034965
  25 C :   -0.037753
  26 H :    0.012425
  27 H :    0.029353
  28 C :   -0.056577
  29 H :    0.020285
  30 H :    0.021875
  31 H :    0.027688
  32 H :    0.013994
  33 H :    0.028602

  Mayer bond orders larger than 0.100000
B(  0-S ,  1-C ) :   1.1369 B(  0-S ,  4-C ) :   1.1418 B(  1-C ,  2-C ) :   1.6146
B(  1-C , 32-H ) :   0.9722 B(  2-C ,  3-C ) :   1.2044 B(  2-C ,  6-C ) :   1.0251
B(  3-C ,  4-C ) :   1.6114 B(  3-C ,  5-H ) :   0.9861 B(  4-C , 20-C ) :   1.0124
B(  6-C ,  7-H ) :   0.9285 B(  6-C ,  8-H ) :   0.9472 B(  6-C ,  9-C ) :   1.0697
B(  9-C , 10-H ) :   0.9526 B(  9-C , 11-H ) :   0.9554 B(  9-C , 12-C ) :   1.0640
B( 12-C , 13-H ) :   0.9757 B( 12-C , 14-H ) :   0.9748 B( 12-C , 15-H ) :   0.9783
B( 16-S , 17-C ) :   1.1775 B( 16-S , 20-C ) :   1.1908 B( 17-C , 18-C ) :   1.5762
B( 17-C , 20-C ) :   0.1135 B( 17-C , 33-H ) :   0.9694 B( 18-C , 19-C ) :   1.2521
B( 18-C , 21-H ) :   0.9846 B( 19-C , 20-C ) :   1.5533 B( 19-C , 22-C ) :   1.0323
B( 22-C , 23-H ) :   0.9388 B( 22-C , 24-H ) :   0.9438 B( 22-C , 25-C ) :   1.0459
B( 25-C , 26-H ) :   0.9598 B( 25-C , 27-H ) :   0.9615 B( 25-C , 28-C ) :   1.0641
B( 28-C , 29-H ) :   0.9794 B( 28-C , 30-H ) :   0.9755 B( 28-C , 31-H ) :   0.9766

Dispersion correction           -0.014096540
FINAL SINGLE POINT ENERGY     -1339.849381759219

DIPOLE MOMENT
-------------
                                X             Y             Z
Electronic contribution:      3.38096      10.07446       9.15136
Nuclear contribution   :     -3.42933     -10.22430      -9.51994
                        -----------------------------------------
Total Dipole Moment    :     -0.04837      -0.14984      -0.36858
                        -----------------------------------------
Magnitude (a.u.)       :      0.40080
Magnitude (Debye)      :      1.01876

Rotational constants in cm-1:     0.021280     0.008021     0.006561
Rotational constants in MHz :   637.944709   240.455198   196.679959

                             ****ORCA TERMINATED NORMALLY****
TOTAL RUN TIME: 0 days 0 hours 0 minutes 32 seconds 118 msec
