                         Program Version 4.2.1 -  RELEASE  -
|  1> ! wB97X-D3 SP def2-SVP
|  2> %pal
|  3> nprocs 16
|  4> end
|  5>
|  6> * xyz 0 1
|  7> S 	 46.3082 	 19.258 	 91.5497
|  8> C 	 47.5291 	 20.4008 	 92.0753
|  9> C 	 48.4243 	 20.744 	 91.0713
| 10> C 	 48.0197 	 20.2183 	 89.8323
| 11> C 	 46.9331 	 19.3525 	 89.9059
| 12> H 	 48.5342 	 20.4046 	 88.8983
| 13> C 	 49.7593 	 21.448 	 91.3081
| 14> H 	 49.585 	 22.4849 	 91.3782
| 15> H 	 50.332 	 21.2796 	 90.3967
| 16> C 	 50.5435 	 21.0325 	 92.5202
| 17> H 	 49.9468 	 21.0446 	 93.4559
| 18> H 	 50.6513 	 19.9485 	 92.4601
| 19> C 	 51.829 	 21.7354 	 92.6348
| 20> H 	 51.614 	 22.6558 	 93.1596
| 21> H 	 52.4609 	 21.1053 	 93.3045
| 22> H 	 52.3085 	 22.0696 	 91.6729
| 23> S 	 45.9441 	 16.9185 	 89.1643
| 24> C 	 45.6483 	 16.5515 	 87.4784
| 25> C 	 46.0799 	 17.5805 	 86.6812
| 26> C 	 46.6056 	 18.7362 	 87.3752
| 27> C 	 46.4596 	 18.5673 	 88.7747
| 28> H 	 46.016 	 17.5002 	 85.5423
| 29> C 	 47.1173 	 19.9891 	 86.6814
| 30> H 	 47.1019 	 20.7793 	 87.4496
| 31> H 	 46.2637 	 20.2964 	 86.0514
| 32> C 	 48.4029 	 19.8605 	 85.8395
| 33> H 	 48.8224 	 20.7959 	 85.395
| 34> H 	 48.1145 	 19.2595 	 85.0048
| 35> C 	 49.7289 	 19.1823 	 86.3856
| 36> H 	 49.6465 	 18.1298 	 86.8008
| 37> H 	 50.1015 	 19.8152 	 87.1668
| 38> H 	 50.4768 	 19.1073 	 85.5608
| 39> H 	 47.7567 	 20.6182 	 93.0672
| 40> H 	 45.3002 	 15.6277 	 87.0392
| 41> *
| 42>
| 43>                          ****END OF INPUT****

CARTESIAN COORDINATES (ANGSTROEM)
---------------------------------
  S     46.308200   19.258000   91.549700
  C     47.529100   20.400800   92.075300
  C     48.424300   20.744000   91.071300
  C     48.019700   20.218300   89.832300
  C     46.933100   19.352500   89.905900
  H     48.534200   20.404600   88.898300
  C     49.759300   21.448000   91.308100
  H     49.585000   22.484900   91.378200
  H     50.332000   21.279600   90.396700
  C     50.543500   21.032500   92.520200
  H     49.946800   21.044600   93.455900
  H     50.651300   19.948500   92.460100
  C     51.829000   21.735400   92.634800
  H     51.614000   22.655800   93.159600
  H     52.460900   21.105300   93.304500
  H     52.308500   22.069600   91.672900
  S     45.944100   16.918500   89.164300
  C     45.648300   16.551500   87.478400
  C     46.079900   17.580500   86.681200
  C     46.605600   18.736200   87.375200
  C     46.459600   18.567300   88.774700
  H     46.016000   17.500200   85.542300
  C     47.117300   19.989100   86.681400
  H     47.101900   20.779300   87.449600
  H     46.263700   20.296400   86.051400
  C     48.402900   19.860500   85.839500
  H     48.822400   20.795900   85.395000
  H     48.114500   19.259500   85.004800
  C     49.728900   19.182300   86.385600
  H     49.646500   18.129800   86.800800
  H     50.101500   19.815200   87.166800
  H     50.476800   19.107300   85.560800
  H     47.756700   20.618200   93.067200
  H     45.300200   15.627700   87.039200

 Total Charge           Charge          ....    0
 Multiplicity           Mult            ....    1
 Number of Electrons    NEL             ....  134
 Basis Dimension        Dim             ....  322

ORBITAL ENERGIES
----------------

  NO   OCC          E(Eh)            E(eV)
   0   2.0000     -88.971671     -2421.0423
   1   2.0000     -88.965298     -2420.8688
   2   2.0000     -10.331978      -281.1474
   3   2.0000     -10.331245      -281.1275
   4   2.0000     -10.316104      -280.7155
   5   2.0000     -10.309035      -280.5231
   6   2.0000     -10.307369      -280.4778
   7   2.0000     -10.299869      -280.2737
   8   2.0000     -10.299803      -280.2719
   9   2.0000     -10.298205      -280.2284
  10   2.0000     -10.296001      -280.1684
  11   2.0000     -10.290899      -280.0296
  12   2.0000     -10.288057      -279.9523
  13   2.0000     -10.287105      -279.9264
  14   2.0000     -10.282984      -279.8142
  15   2.0000     -10.282465      -279.8001
  16   2.0000      -8.085652      -220.0218
  17   2.0000      -8.079715      -219.8602
  18   2.0000      -6.044263      -164.4728
  19   2.0000      -6.040295      -164.3648
  20   2.0000      -6.038342      -164.3116
  21   2.0000      -6.036336      -164.2571
  22   2.0000      -6.034322      -164.2022
  23   2.0000      -6.030319      -164.0933
  24   2.0000      -1.004586       -27.3362
  25   2.0000      -0.981260       -26.7014
  26   2.0000      -0.922262       -25.0960
  27   2.0000      -0.903591       -24.5880
  28   2.0000      -0.870819       -23.6962
  29   2.0000      -0.855702       -23.2848
  30   2.0000      -0.843176       -22.9440
  31   2.0000      -0.813399       -22.1337
  32   2.0000      -0.784905       -21.3583
  33   2.0000      -0.773591       -21.0505
  34   2.0000      -0.712677       -19.3929
  35   2.0000      -0.703392       -19.1403
  36   2.0000      -0.692339       -18.8395
  37   2.0000      -0.656077       -17.8528
  38   2.0000      -0.635580       -17.2950
  39   2.0000      -0.621309       -16.9067
  40   2.0000      -0.589928       -16.0527
  41   2.0000      -0.572819       -15.5872
  42   2.0000      -0.562844       -15.3158
  43   2.0000      -0.547670       -14.9029
  44   2.0000      -0.545645       -14.8477
  45   2.0000      -0.529113       -14.3979
  46   2.0000      -0.519114       -14.1258
  47   2.0000      -0.513620       -13.9763
  48   2.0000      -0.502000       -13.6601
  49   2.0000      -0.498115       -13.5544
  50   2.0000      -0.491397       -13.3716
  51   2.0000      -0.477633       -12.9970
  52   2.0000      -0.474060       -12.8998
  53   2.0000      -0.468878       -12.7588
  54   2.0000      -0.458324       -12.4716
  55   2.0000      -0.451672       -12.2906
  56   2.0000      -0.447167       -12.1680
  57   2.0000      -0.440966       -11.9993
  58   2.0000      -0.434786       -11.8311
  59   2.0000      -0.427623       -11.6362
  60   2.0000      -0.418758       -11.3950
  61   2.0000      -0.409382       -11.1398
  62   2.0000      -0.406273       -11.0553
  63   2.0000      -0.356926        -9.7124
  64   2.0000      -0.334651        -9.1063
  65   2.0000      -0.328590        -8.9414
  66   2.0000      -0.281091        -7.6489
  67   0.0000       0.020004         0.5443
  68   0.0000       0.078539         2.1372
  69   0.0000       0.103479         2.8158
  70   0.0000       0.124754         3.3947
  71   0.0000       0.129792         3.5318

MULLIKEN ATOMIC CHARGES
-----------------------
   0 S :    0.122146
   1 C :   -0.095853
   2 C :   -0.092406
   3 C :    0.002843
   4 C :   -0.124577
   5 H :   -0.008730
   6 C :    0.110937
   7 H :    0.022376
   8 H :    0.017419
   9 C :   -0.110779
  10 H :    0.025604
  11 H :    0.023187
  12 C :   -0.032410
  13 H :    0.026599
  14 H :    0.044031
  15 H :    0.043130
  16 S :    0.089401
  17 C :   -0.077524
  18 C :   -0.059323
  19 C :   -0.063788
  20 C :   -0.135206
  21 H :    0.041315
  22 C :    0.054465
  23 H :    0.029422
  24 H :    0.040740
  25 C :   -0.066043
  26 H :    0.040850
  27 H :    0.022502
  28 C :   -0.093316
  29 H :    0.054893
  30 H :    0.035377
  31 H :    0.040833
  32 H :    0.018111
  33 H :    0.053774
Sum of atomic charges:   -0.0000000

LOEWDIN ATOMIC CHARGES
----------------------
   0 S :    0.405687
   1 C :   -0.192384
   2 C :   -0.055341
   3 C :   -0.063338
   4 C :   -0.191543
   5 H :    0.027947
   6 C :   -0.025264
   7 H :    0.025890
   8 H :    0.030494
   9 C :   -0.054109
  10 H :    0.025901
  11 H :    0.022512
  12 C :   -0.066546
  13 H :    0.025941
  14 H :    0.036339
  15 H :    0.033423
  16 S :    0.392577
  17 C :   -0.191293
  18 C :   -0.078626
  19 C :   -0.059548
  20 C :   -0.182786
  21 H :    0.041463
  22 C :   -0.040733
  23 H :    0.030573
  24 H :    0.042133
  25 C :   -0.044440
  26 H :    0.034044
  27 H :    0.020088
  28 C :   -0.073192
  29 H :    0.033644
  30 H :    0.015351
  31 H :    0.031943
  32 H :    0.010812
  33 H :    0.032382

  Mayer bond orders larger than 0.100000
B(  0-S ,  1-C ) :   1.1318 B(  0-S ,  4-C ) :   1.1491 B(  1-C ,  2-C ) :   1.6055
B(  1-C , 32-H ) :   0.9705 B(  2-C ,  3-C ) :   1.2825 B(  2-C ,  6-C ) :   1.0033
B(  3-C ,  4-C ) :   1.5392 B(  3-C ,  5-H ) :   0.9864 B(  4-C , 20-C ) :   1.0731
B(  6-C ,  7-H ) :   0.9248 B(  6-C ,  8-H ) :   0.9432 B(  6-C ,  9-C ) :   1.0740
B(  9-C , 10-H ) :   0.9451 B(  9-C , 11-H ) :   0.9570 B(  9-C , 12-C ) :   1.0810
B( 12-C , 13-H ) :   0.9709 B( 12-C , 14-H ) :   0.9707 B( 12-C , 15-H ) :   0.9729
B( 16-S , 17-C ) :   1.1330 B( 16-S , 20-C ) :   1.1403 B( 17-C , 18-C ) :   1.6324
B( 17-C , 33-H ) :   0.9673 B( 18-C , 19-C ) :   1.2382 B( 18-C , 21-H ) :   0.9740
B( 19-C , 20-C ) :   1.5796 B( 19-C , 22-C ) :   1.0256 B( 22-C , 23-H ) :   0.9386
B( 22-C , 24-H ) :   0.9360 B( 22-C , 25-C ) :   1.0505 B( 25-C , 26-H ) :   0.9590
B( 25-C , 27-H ) :   0.9563 B( 25-C , 28-C ) :   1.0737 B( 28-C , 29-H ) :   0.9739
B( 28-C , 30-H ) :   0.9749 B( 28-C , 31-H ) :   0.9728

Dispersion correction           -0.014365077
FINAL SINGLE POINT ENERGY     -1339.872462500135

DIPOLE MOMENT
-------------
                                X             Y             Z
Electronic contribution:    -24.99725     -14.32355       6.07526
Nuclear contribution   :     25.61880      14.60649      -6.42533
                        -----------------------------------------
Total Dipole Moment    :      0.62155       0.28294      -0.35007
                        -----------------------------------------
Magnitude (a.u.)       :      0.76742
Magnitude (Debye)      :      1.95062

Rotational constants in cm-1:     0.019518     0.008596     0.006549
Rotational constants in MHz :   585.138329   257.693269   196.326229

                             ****ORCA TERMINATED NORMALLY****
TOTAL RUN TIME: 0 days 0 hours 0 minutes 30 seconds 930 msec
