                         Program Version 4.2.1 -  RELEASE  -
|  1> ! wB97X-D3 SP def2-SVP
|  2> %pal
|  3> nprocs 16
|  4> end
|  5>
|  6> * xyz 0 1
|  7> S 	 -18.0542 	 -6.99864 	 81.2816
|  8> C 	 -17.1458 	 -7.52903 	 79.8539
|  9> C 	 -15.7839 	 -7.67138 	 80.2139
| 10> C 	 -15.5351 	 -7.11868 	 81.5279
| 11> C 	 -16.6815 	 -6.72264 	 82.2853
| 12> H 	 -14.5989 	 -7.03555 	 81.9891
| 13> C 	 -14.6964 	 -8.36199 	 79.4007
| 14> H 	 -15.117 	 -9.18143 	 78.8277
| 15> H 	 -13.8955 	 -8.7656 	 80.0173
| 16> C 	 -13.8454 	 -7.37909 	 78.5409
| 17> H 	 -14.3942 	 -6.93333 	 77.7343
| 18> H 	 -13.5467 	 -6.5222 	 79.1825
| 19> C 	 -12.4945 	 -8.01731 	 78.1226
| 20> H 	 -11.8046 	 -7.49554 	 77.5183
| 21> H 	 -11.8542 	 -8.27411 	 78.9759
| 22> H 	 -12.5691 	 -8.84847 	 77.5881
| 23> S 	 -15.8407 	 -7.20785 	 84.8653
| 24> C 	 -16.4718 	 -6.25566 	 86.1181
| 25> C 	 -17.2256 	 -5.16241 	 85.66
| 26> C 	 -17.3304 	 -5.0858 	 84.2235
| 27> C 	 -16.6735 	 -6.20813 	 83.6568
| 28> H 	 -17.6185 	 -4.51878 	 86.3718
| 29> C 	 -18.2526 	 -4.07134 	 83.536
| 30> H 	 -19.3229 	 -4.18224 	 83.8241
| 31> H 	 -18.2411 	 -4.27515 	 82.4305
| 32> C 	 -17.7452 	 -2.58038 	 83.6487
| 33> H 	 -16.6836 	 -2.46716 	 83.2395
| 34> H 	 -17.7931 	 -2.29048 	 84.7214
| 35> C 	 -18.6994 	 -1.59197 	 83.0016
| 36> H 	 -18.5485 	 -0.518944 	 83.2101
| 37> H 	 -19.6792 	 -1.81841 	 83.3369
| 38> H 	 -18.7292 	 -1.71414 	 81.8939
| 39> H 	 -17.5479 	 -7.68005 	 78.8485
| 40> H 	 -16.271 	 -6.30133 	 87.2211
| 41> *
| 42>
| 43>                          ****END OF INPUT****

CARTESIAN COORDINATES (ANGSTROEM)
---------------------------------
  S    -18.054200   -6.998640   81.281600
  C    -17.145800   -7.529030   79.853900
  C    -15.783900   -7.671380   80.213900
  C    -15.535100   -7.118680   81.527900
  C    -16.681500   -6.722640   82.285300
  H    -14.598900   -7.035550   81.989100
  C    -14.696400   -8.361990   79.400700
  H    -15.117000   -9.181430   78.827700
  H    -13.895500   -8.765600   80.017300
  C    -13.845400   -7.379090   78.540900
  H    -14.394200   -6.933330   77.734300
  H    -13.546700   -6.522200   79.182500
  C    -12.494500   -8.017310   78.122600
  H    -11.804600   -7.495540   77.518300
  H    -11.854200   -8.274110   78.975900
  H    -12.569100   -8.848470   77.588100
  S    -15.840700   -7.207850   84.865300
  C    -16.471800   -6.255660   86.118100
  C    -17.225600   -5.162410   85.660000
  C    -17.330400   -5.085800   84.223500
  C    -16.673500   -6.208130   83.656800
  H    -17.618500   -4.518780   86.371800
  C    -18.252600   -4.071340   83.536000
  H    -19.322900   -4.182240   83.824100
  H    -18.241100   -4.275150   82.430500
  C    -17.745200   -2.580380   83.648700
  H    -16.683600   -2.467160   83.239500
  H    -17.793100   -2.290480   84.721400
  C    -18.699400   -1.591970   83.001600
  H    -18.548500   -0.518944   83.210100
  H    -19.679200   -1.818410   83.336900
  H    -18.729200   -1.714140   81.893900
  H    -17.547900   -7.680050   78.848500
  H    -16.271000   -6.301330   87.221100

 Total Charge           Charge          ....    0
 Multiplicity           Mult            ....    1
 Number of Electrons    NEL             ....  134
 Basis Dimension        Dim             ....  322

ORBITAL ENERGIES
----------------

  NO   OCC          E(Eh)            E(eV)
   0   2.0000     -88.972856     -2421.0745
   1   2.0000     -88.967726     -2420.9349
   2   2.0000     -10.334422      -281.2139
   3   2.0000     -10.331759      -281.1415
   4   2.0000     -10.320683      -280.8401
   5   2.0000     -10.319693      -280.8131
   6   2.0000     -10.313729      -280.6508
   7   2.0000     -10.308574      -280.5106
   8   2.0000     -10.302652      -280.3494
   9   2.0000     -10.295570      -280.1567
  10   2.0000     -10.294620      -280.1309
  11   2.0000     -10.292239      -280.0661
  12   2.0000     -10.291379      -280.0427
  13   2.0000     -10.289843      -280.0009
  14   2.0000     -10.276280      -279.6318
  15   2.0000     -10.265491      -279.3382
  16   2.0000      -8.087657      -220.0763
  17   2.0000      -8.081689      -219.9139
  18   2.0000      -6.046135      -164.5237
  19   2.0000      -6.042072      -164.4131
  20   2.0000      -6.040227      -164.3629
  21   2.0000      -6.038525      -164.3166
  22   2.0000      -6.036059      -164.2495
  23   2.0000      -6.032685      -164.1577
  24   2.0000      -1.002020       -27.2663
  25   2.0000      -0.979589       -26.6560
  26   2.0000      -0.908458       -24.7204
  27   2.0000      -0.903691       -24.5907
  28   2.0000      -0.865399       -23.5487
  29   2.0000      -0.854115       -23.2416
  30   2.0000      -0.843101       -22.9420
  31   2.0000      -0.807296       -21.9677
  32   2.0000      -0.785093       -21.3635
  33   2.0000      -0.771626       -20.9970
  34   2.0000      -0.709010       -19.2931
  35   2.0000      -0.700177       -19.0528
  36   2.0000      -0.688214       -18.7273
  37   2.0000      -0.659957       -17.9583
  38   2.0000      -0.638677       -17.3793
  39   2.0000      -0.614770       -16.7287
  40   2.0000      -0.594196       -16.1689
  41   2.0000      -0.574491       -15.6327
  42   2.0000      -0.564743       -15.3674
  43   2.0000      -0.558597       -15.2002
  44   2.0000      -0.524666       -14.2769
  45   2.0000      -0.519781       -14.1440
  46   2.0000      -0.513221       -13.9655
  47   2.0000      -0.508846       -13.8464
  48   2.0000      -0.503131       -13.6909
  49   2.0000      -0.498752       -13.5717
  50   2.0000      -0.493884       -13.4393
  51   2.0000      -0.476595       -12.9688
  52   2.0000      -0.468558       -12.7501
  53   2.0000      -0.462379       -12.5820
  54   2.0000      -0.458460       -12.4753
  55   2.0000      -0.449938       -12.2434
  56   2.0000      -0.448969       -12.2171
  57   2.0000      -0.435166       -11.8415
  58   2.0000      -0.431743       -11.7483
  59   2.0000      -0.429656       -11.6915
  60   2.0000      -0.422945       -11.5089
  61   2.0000      -0.417965       -11.3734
  62   2.0000      -0.408829       -11.1248
  63   2.0000      -0.338506        -9.2112
  64   2.0000      -0.334980        -9.1153
  65   2.0000      -0.324424        -8.8280
  66   2.0000      -0.291223        -7.9246
  67   0.0000       0.025805         0.7022
  68   0.0000       0.068123         1.8537
  69   0.0000       0.103976         2.8293
  70   0.0000       0.116691         3.1753
  71   0.0000       0.126838         3.4514

MULLIKEN ATOMIC CHARGES
-----------------------
   0 S :    0.118063
   1 C :   -0.140018
   2 C :   -0.075851
   3 C :    0.028392
   4 C :   -0.144597
   5 H :   -0.012715
   6 C :    0.069998
   7 H :    0.034495
   8 H :    0.019806
   9 C :   -0.071183
  10 H :    0.026381
  11 H :    0.034983
  12 C :   -0.006768
  13 H :    0.013405
  14 H :    0.022113
  15 H :   -0.006821
  16 S :    0.139008
  17 C :   -0.102928
  18 C :   -0.033545
  19 C :    0.017718
  20 C :   -0.180774
  21 H :   -0.006313
  22 C :    0.014026
  23 H :    0.051957
  24 H :    0.031028
  25 C :   -0.111140
  26 H :    0.055698
  27 H :    0.033931
  28 C :   -0.036829
  29 H :    0.042384
  30 H :    0.010885
  31 H :    0.031253
  32 H :    0.061273
  33 H :    0.072686
Sum of atomic charges:   -0.0000000

LOEWDIN ATOMIC CHARGES
----------------------
   0 S :    0.422435
   1 C :   -0.203300
   2 C :   -0.056975
   3 C :   -0.065625
   4 C :   -0.211594
   5 H :    0.015249
   6 C :   -0.029038
   7 H :    0.030718
   8 H :    0.033833
   9 C :   -0.032539
  10 H :    0.017884
  11 H :    0.030402
  12 C :   -0.065569
  13 H :    0.024711
  14 H :    0.029480
  15 H :    0.005101
  16 S :    0.434653
  17 C :   -0.213011
  18 C :   -0.065427
  19 C :   -0.044879
  20 C :   -0.196047
  21 H :    0.017526
  22 C :   -0.039500
  23 H :    0.037838
  24 H :    0.029180
  25 C :   -0.044854
  26 H :    0.035717
  27 H :    0.023776
  28 C :   -0.071457
  29 H :    0.029922
  30 H :    0.017597
  31 H :    0.026389
  32 H :    0.034363
  33 H :    0.043039

  Mayer bond orders larger than 0.100000
B(  0-S ,  1-C ) :   1.1521 B(  0-S ,  4-C ) :   1.1603 B(  1-C ,  2-C ) :   1.5556
B(  1-C ,  4-C ) :   0.1052 B(  1-C , 32-H ) :   0.9720 B(  2-C ,  3-C ) :   1.2730
B(  2-C ,  6-C ) :   1.0319 B(  3-C ,  4-C ) :   1.5244 B(  3-C ,  5-H ) :   0.9989
B(  4-C , 20-C ) :   1.0532 B(  6-C ,  7-H ) :   0.9451 B(  6-C ,  8-H ) :   0.9456
B(  6-C ,  9-C ) :   1.0439 B(  9-C , 10-H ) :   0.9606 B(  9-C , 11-H ) :   0.9617
B(  9-C , 12-C ) :   1.0709 B( 12-C , 13-H ) :   0.9704 B( 12-C , 14-H ) :   0.9706
B( 12-C , 15-H ) :   0.9727 B( 16-S , 17-C ) :   1.1672 B( 16-S , 20-C ) :   1.1509
B( 17-C , 18-C ) :   1.6094 B( 17-C , 33-H ) :   0.9568 B( 18-C , 19-C ) :   1.2345
B( 18-C , 21-H ) :   0.9972 B( 19-C , 20-C ) :   1.5552 B( 19-C , 22-C ) :   1.0424
B( 22-C , 23-H ) :   0.9443 B( 22-C , 24-H ) :   0.9334 B( 22-C , 25-C ) :   1.0470
B( 25-C , 26-H ) :   0.9565 B( 25-C , 27-H ) :   0.9592 B( 25-C , 28-C ) :   1.0810
B( 28-C , 29-H ) :   0.9749 B( 28-C , 30-H ) :   0.9690 B( 28-C , 31-H ) :   0.9736

Dispersion correction           -0.013327828
FINAL SINGLE POINT ENERGY     -1339.860364254785

DIPOLE MOMENT
-------------
                                X             Y             Z
Electronic contribution:     -7.48057     -12.39403      13.95058
Nuclear contribution   :      7.64811      12.60888     -14.02659
                        -----------------------------------------
Total Dipole Moment    :      0.16754       0.21485      -0.07602
                        -----------------------------------------
Magnitude (a.u.)       :      0.28286
Magnitude (Debye)      :      0.71897

Rotational constants in cm-1:     0.018740     0.007162     0.006173
Rotational constants in MHz :   561.798749   214.706022   185.065171

                             ****ORCA TERMINATED NORMALLY****
TOTAL RUN TIME: 0 days 0 hours 0 minutes 31 seconds 627 msec
