                         Program Version 4.2.1 -  RELEASE  -
|  1> ! wB97X-D3 SP def2-SVP
|  2> %pal
|  3> nprocs 16
|  4> end
|  5>
|  6> * xyz 0 1
|  7> S 	 17.0286 	 25.468 	 62.5703
|  8> C 	 17.3702 	 23.9045 	 61.856
|  9> C 	 16.2468 	 23.3102 	 61.3647
| 10> C 	 15.0292 	 24.1168 	 61.586
| 11> C 	 15.2529 	 25.3166 	 62.2942
| 12> H 	 13.9754 	 23.7898 	 61.4198
| 13> C 	 16.2421 	 21.8905 	 60.7977
| 14> H 	 17.0577 	 21.9705 	 60.0449
| 15> H 	 15.2964 	 21.6155 	 60.2965
| 16> C 	 16.4695 	 20.703 	 61.6925
| 17> H 	 16.4366 	 19.7259 	 61.0972
| 18> H 	 17.4583 	 20.8114 	 62.1991
| 19> C 	 15.5645 	 20.7175 	 62.9179
| 20> H 	 15.6567 	 21.5787 	 63.5858
| 21> H 	 14.5235 	 20.6166 	 62.6842
| 22> H 	 15.7886 	 19.8753 	 63.4539
| 23> S 	 14.8075 	 26.9288 	 64.3635
| 24> C 	 13.3411 	 27.9327 	 64.4791
| 25> C 	 12.4427 	 27.6542 	 63.4607
| 26> C 	 13.0134 	 26.8004 	 62.4815
| 27> C 	 14.3114 	 26.2953 	 62.842
| 28> H 	 11.5052 	 28.1342 	 63.4945
| 29> C 	 12.306 	 26.3863 	 61.2203
| 30> H 	 12.8014 	 25.5592 	 60.68
| 31> H 	 12.4151 	 27.2126 	 60.5442
| 32> C 	 10.7389 	 26.28 	 61.4069
| 33> H 	 10.3533 	 27.2355 	 61.6186
| 34> H 	 10.4476 	 25.6127 	 62.2342
| 35> C 	 9.99436 	 25.638 	 60.1323
| 36> H 	 9.94098 	 26.3097 	 59.2661
| 37> H 	 8.94155 	 25.4255 	 60.5034
| 38> H 	 10.3838 	 24.6543 	 59.9117
| 39> H 	 18.3809 	 23.3979 	 61.9446
| 40> H 	 13.1221 	 28.6052 	 65.2734
| 41> *
| 42>
| 43>                          ****END OF INPUT****

CARTESIAN COORDINATES (ANGSTROEM)
---------------------------------
  S     17.028600   25.468000   62.570300
  C     17.370200   23.904500   61.856000
  C     16.246800   23.310200   61.364700
  C     15.029200   24.116800   61.586000
  C     15.252900   25.316600   62.294200
  H     13.975400   23.789800   61.419800
  C     16.242100   21.890500   60.797700
  H     17.057700   21.970500   60.044900
  H     15.296400   21.615500   60.296500
  C     16.469500   20.703000   61.692500
  H     16.436600   19.725900   61.097200
  H     17.458300   20.811400   62.199100
  C     15.564500   20.717500   62.917900
  H     15.656700   21.578700   63.585800
  H     14.523500   20.616600   62.684200
  H     15.788600   19.875300   63.453900
  S     14.807500   26.928800   64.363500
  C     13.341100   27.932700   64.479100
  C     12.442700   27.654200   63.460700
  C     13.013400   26.800400   62.481500
  C     14.311400   26.295300   62.842000
  H     11.505200   28.134200   63.494500
  C     12.306000   26.386300   61.220300
  H     12.801400   25.559200   60.680000
  H     12.415100   27.212600   60.544200
  C     10.738900   26.280000   61.406900
  H     10.353300   27.235500   61.618600
  H     10.447600   25.612700   62.234200
  C      9.994360   25.638000   60.132300
  H      9.940980   26.309700   59.266100
  H      8.941550   25.425500   60.503400
  H     10.383800   24.654300   59.911700
  H     18.380900   23.397900   61.944600
  H     13.122100   28.605200   65.273400

 Total Charge           Charge          ....    0
 Multiplicity           Mult            ....    1
 Number of Electrons    NEL             ....  134
 Basis Dimension        Dim             ....  322

ORBITAL ENERGIES
----------------

  NO   OCC          E(Eh)            E(eV)
   0   2.0000     -88.967334     -2420.9242
   1   2.0000     -88.964998     -2420.8607
   2   2.0000     -10.340618      -281.3825
   3   2.0000     -10.331330      -281.1298
   4   2.0000     -10.318732      -280.7870
   5   2.0000     -10.318171      -280.7717
   6   2.0000     -10.311212      -280.5823
   7   2.0000     -10.307274      -280.4752
   8   2.0000     -10.305401      -280.4242
   9   2.0000     -10.295728      -280.1610
  10   2.0000     -10.294586      -280.1299
  11   2.0000     -10.293195      -280.0921
  12   2.0000     -10.292707      -280.0788
  13   2.0000     -10.292558      -280.0747
  14   2.0000     -10.289018      -279.9784
  15   2.0000     -10.263741      -279.2906
  16   2.0000      -8.081972      -219.9216
  17   2.0000      -8.078913      -219.8384
  18   2.0000      -6.040421      -164.3682
  19   2.0000      -6.037662      -164.2931
  20   2.0000      -6.036347      -164.2573
  21   2.0000      -6.033509      -164.1801
  22   2.0000      -6.032922      -164.1641
  23   2.0000      -6.029472      -164.0703
  24   2.0000      -1.002212       -27.2716
  25   2.0000      -0.977951       -26.6114
  26   2.0000      -0.913349       -24.8535
  27   2.0000      -0.902129       -24.5482
  28   2.0000      -0.872212       -23.7341
  29   2.0000      -0.845041       -22.9947
  30   2.0000      -0.839335       -22.8395
  31   2.0000      -0.816289       -22.2123
  32   2.0000      -0.783034       -21.3074
  33   2.0000      -0.768679       -20.9168
  34   2.0000      -0.709815       -19.3151
  35   2.0000      -0.699933       -19.0461
  36   2.0000      -0.693486       -18.8707
  37   2.0000      -0.659147       -17.9363
  38   2.0000      -0.631775       -17.1915
  39   2.0000      -0.610954       -16.6249
  40   2.0000      -0.593508       -16.1502
  41   2.0000      -0.579606       -15.7719
  42   2.0000      -0.565603       -15.3908
  43   2.0000      -0.553126       -15.0513
  44   2.0000      -0.543925       -14.8010
  45   2.0000      -0.520769       -14.1708
  46   2.0000      -0.512319       -13.9409
  47   2.0000      -0.507677       -13.8146
  48   2.0000      -0.502176       -13.6649
  49   2.0000      -0.498690       -13.5701
  50   2.0000      -0.485907       -13.2222
  51   2.0000      -0.479555       -13.0494
  52   2.0000      -0.471685       -12.8352
  53   2.0000      -0.468358       -12.7447
  54   2.0000      -0.461303       -12.5527
  55   2.0000      -0.451294       -12.2803
  56   2.0000      -0.440609       -11.9896
  57   2.0000      -0.438124       -11.9220
  58   2.0000      -0.433842       -11.8054
  59   2.0000      -0.429087       -11.6761
  60   2.0000      -0.416598       -11.3362
  61   2.0000      -0.412449       -11.2233
  62   2.0000      -0.406261       -11.0549
  63   2.0000      -0.356859        -9.7106
  64   2.0000      -0.331931        -9.0323
  65   2.0000      -0.325733        -8.8637
  66   2.0000      -0.282806        -7.6955
  67   0.0000       0.018498         0.5033
  68   0.0000       0.077140         2.0991
  69   0.0000       0.101847         2.7714
  70   0.0000       0.113769         3.0958
  71   0.0000       0.132015         3.5923

MULLIKEN ATOMIC CHARGES
-----------------------
   0 S :    0.092130
   1 C :   -0.148939
   2 C :   -0.092778
   3 C :    0.014287
   4 C :   -0.146827
   5 H :    0.036106
   6 C :    0.049405
   7 H :    0.041713
   8 H :    0.024793
   9 C :   -0.094091
  10 H :    0.051105
  11 H :    0.021106
  12 C :   -0.018514
  13 H :    0.049433
  14 H :    0.010144
  15 H :    0.008862
  16 S :    0.101578
  17 C :   -0.078205
  18 C :   -0.035332
  19 C :   -0.020187
  20 C :   -0.144403
  21 H :    0.009453
  22 C :    0.085758
  23 H :    0.020843
  24 H :    0.028917
  25 C :   -0.114014
  26 H :    0.029264
  27 H :    0.040478
  28 C :   -0.067523
  29 H :    0.047292
  30 H :    0.037364
  31 H :    0.035142
  32 H :    0.079716
  33 H :    0.045919
Sum of atomic charges:    0.0000000

LOEWDIN ATOMIC CHARGES
----------------------
   0 S :    0.374605
   1 C :   -0.206119
   2 C :   -0.065852
   3 C :   -0.072302
   4 C :   -0.177401
   5 H :    0.036436
   6 C :   -0.042526
   7 H :    0.037372
   8 H :    0.031040
   9 C :   -0.045980
  10 H :    0.036714
  11 H :    0.023595
  12 C :   -0.061454
  13 H :    0.033395
  14 H :    0.016882
  15 H :    0.015153
  16 S :    0.415666
  17 C :   -0.168763
  18 C :   -0.065766
  19 C :   -0.049515
  20 C :   -0.212273
  21 H :    0.028935
  22 C :   -0.036957
  23 H :    0.030720
  24 H :    0.035103
  25 C :   -0.032146
  26 H :    0.014475
  27 H :    0.025827
  28 C :   -0.067629
  29 H :    0.024990
  30 H :    0.033324
  31 H :    0.022233
  32 H :    0.045494
  33 H :    0.022727

  Mayer bond orders larger than 0.100000
B(  0-S ,  1-C ) :   1.1198 B(  0-S ,  4-C ) :   1.1334 B(  1-C ,  2-C ) :   1.6405
B(  1-C , 32-H ) :   0.9586 B(  2-C ,  3-C ) :   1.2156 B(  2-C ,  6-C ) :   1.0084
B(  3-C ,  4-C ) :   1.5907 B(  3-C ,  5-H ) :   0.9768 B(  4-C , 20-C ) :   1.0689
B(  6-C ,  7-H ) :   0.9402 B(  6-C ,  8-H ) :   0.9462 B(  6-C ,  9-C ) :   1.0814
B(  9-C , 10-H ) :   0.9543 B(  9-C , 11-H ) :   0.9510 B(  9-C , 12-C ) :   1.0765
B( 12-C , 13-H ) :   0.9701 B( 12-C , 14-H ) :   0.9736 B( 12-C , 15-H ) :   0.9700
B( 16-S , 17-C ) :   1.1616 B( 16-S , 20-C ) :   1.1556 B( 17-C , 18-C ) :   1.5898
B( 17-C , 20-C ) :   0.1048 B( 17-C , 33-H ) :   0.9691 B( 18-C , 19-C ) :   1.2566
B( 18-C , 21-H ) :   0.9980 B( 19-C , 20-C ) :   1.5320 B( 19-C , 22-C ) :   1.0420
B( 22-C , 23-H ) :   0.9462 B( 22-C , 24-H ) :   0.9180 B( 22-C , 25-C ) :   1.0499
B( 25-C , 26-H ) :   0.9484 B( 25-C , 27-H ) :   0.9688 B( 25-C , 28-C ) :   1.0783
B( 28-C , 29-H ) :   0.9781 B( 28-C , 30-H ) :   0.9772 B( 28-C , 31-H ) :   0.9774

Dispersion correction           -0.013820153
FINAL SINGLE POINT ENERGY     -1339.864970907771

DIPOLE MOMENT
-------------
                                X             Y             Z
Electronic contribution:     16.23229      17.98253      11.70601
Nuclear contribution   :    -16.79262     -18.32254     -11.83848
                        -----------------------------------------
Total Dipole Moment    :     -0.56033      -0.34000      -0.13248
                        -----------------------------------------
Magnitude (a.u.)       :      0.66867
Magnitude (Debye)      :      1.69963

Rotational constants in cm-1:     0.017376     0.008533     0.006479
Rotational constants in MHz :   520.923362   255.810413   194.237658

                             ****ORCA TERMINATED NORMALLY****
TOTAL RUN TIME: 0 days 0 hours 0 minutes 34 seconds 304 msec
