                         Program Version 4.2.1 -  RELEASE  -
|  1> ! wB97X-D3 SP def2-SVP
|  2> %pal
|  3> nprocs 16
|  4> end
|  5>
|  6> * xyz 0 1
|  7> S 	 -4.89507 	 72.1408 	 45.6524
|  8> C 	 -4.72774 	 73.7935 	 46.1626
|  9> C 	 -5.82696 	 74.1507 	 46.9522
| 10> C 	 -6.89847 	 73.2921 	 46.7282
| 11> C 	 -6.55337 	 72.1478 	 45.9765
| 12> H 	 -7.89895 	 73.4262 	 47.1885
| 13> C 	 -5.88763 	 75.44 	 47.8235
| 14> H 	 -5.78807 	 76.3029 	 47.1856
| 15> H 	 -4.98548 	 75.5051 	 48.494
| 16> C 	 -7.2281 	 75.641 	 48.7307
| 17> H 	 -8.09086 	 75.9836 	 48.1088
| 18> H 	 -7.41914 	 74.7609 	 49.3069
| 19> C 	 -7.02309 	 76.8213 	 49.7249
| 20> H 	 -6.25149 	 76.6359 	 50.4787
| 21> H 	 -6.6754 	 77.7153 	 49.2755
| 22> H 	 -8.00159 	 77.1181 	 50.2636
| 23> S 	 -6.90108 	 69.3369 	 46.2234
| 24> C 	 -8.3448 	 68.5604 	 45.6596
| 25> C 	 -9.23667 	 69.5792 	 45.2176
| 26> C 	 -8.74901 	 70.9178 	 45.3113
| 27> C 	 -7.42987 	 70.9194 	 45.7343
| 28> H 	 -10.2394 	 69.3775 	 44.9489
| 29> C 	 -9.58079 	 72.1231 	 44.8922
| 30> H 	 -10.1829 	 71.8289 	 43.9927
| 31> H 	 -8.9376 	 72.95 	 44.5334
| 32> C 	 -10.5452 	 72.5619 	 45.958
| 33> H 	 -9.95407 	 72.9507 	 46.7726
| 34> H 	 -11.116 	 71.6514 	 46.3448
| 35> C 	 -11.5682 	 73.6047 	 45.5366
| 36> H 	 -10.9998 	 74.4278 	 45.1016
| 37> H 	 -12.1866 	 73.9658 	 46.3518
| 38> H 	 -12.2985 	 73.0747 	 44.7971
| 39> H 	 -3.81721 	 74.3107 	 46.2911
| 40> H 	 -8.47612 	 67.5175 	 45.7007
| 41> *
| 42>
| 43>                          ****END OF INPUT****

CARTESIAN COORDINATES (ANGSTROEM)
---------------------------------
  S     -4.895070   72.140800   45.652400
  C     -4.727740   73.793500   46.162600
  C     -5.826960   74.150700   46.952200
  C     -6.898470   73.292100   46.728200
  C     -6.553370   72.147800   45.976500
  H     -7.898950   73.426200   47.188500
  C     -5.887630   75.440000   47.823500
  H     -5.788070   76.302900   47.185600
  H     -4.985480   75.505100   48.494000
  C     -7.228100   75.641000   48.730700
  H     -8.090860   75.983600   48.108800
  H     -7.419140   74.760900   49.306900
  C     -7.023090   76.821300   49.724900
  H     -6.251490   76.635900   50.478700
  H     -6.675400   77.715300   49.275500
  H     -8.001590   77.118100   50.263600
  S     -6.901080   69.336900   46.223400
  C     -8.344800   68.560400   45.659600
  C     -9.236670   69.579200   45.217600
  C     -8.749010   70.917800   45.311300
  C     -7.429870   70.919400   45.734300
  H    -10.239400   69.377500   44.948900
  C     -9.580790   72.123100   44.892200
  H    -10.182900   71.828900   43.992700
  H     -8.937600   72.950000   44.533400
  C    -10.545200   72.561900   45.958000
  H     -9.954070   72.950700   46.772600
  H    -11.116000   71.651400   46.344800
  C    -11.568200   73.604700   45.536600
  H    -10.999800   74.427800   45.101600
  H    -12.186600   73.965800   46.351800
  H    -12.298500   73.074700   44.797100
  H     -3.817210   74.310700   46.291100
  H     -8.476120   67.517500   45.700700

 Total Charge           Charge          ....    0
 Multiplicity           Mult            ....    1
 Number of Electrons    NEL             ....  134
 Basis Dimension        Dim             ....  322

ORBITAL ENERGIES
----------------

  NO   OCC          E(Eh)            E(eV)
   0   2.0000     -88.970750     -2421.0172
   1   2.0000     -88.966890     -2420.9122
   2   2.0000     -10.332093      -281.1506
   3   2.0000     -10.330384      -281.1040
   4   2.0000     -10.319423      -280.8058
   5   2.0000     -10.307724      -280.4874
   6   2.0000     -10.306469      -280.4533
   7   2.0000     -10.303564      -280.3742
   8   2.0000     -10.301324      -280.3133
   9   2.0000     -10.301319      -280.3131
  10   2.0000     -10.295476      -280.1541
  11   2.0000     -10.295030      -280.1420
  12   2.0000     -10.294659      -280.1319
  13   2.0000     -10.286829      -279.9188
  14   2.0000     -10.285746      -279.8894
  15   2.0000     -10.285037      -279.8701
  16   2.0000      -8.086235      -220.0376
  17   2.0000      -8.081935      -219.9206
  18   2.0000      -6.044451      -164.4779
  19   2.0000      -6.040716      -164.3762
  20   2.0000      -6.040442      -164.3688
  21   2.0000      -6.037182      -164.2801
  22   2.0000      -6.036214      -164.2537
  23   2.0000      -6.032888      -164.1632
  24   2.0000      -1.010178       -27.4883
  25   2.0000      -0.988655       -26.9027
  26   2.0000      -0.913843       -24.8669
  27   2.0000      -0.900123       -24.4936
  28   2.0000      -0.862332       -23.4652
  29   2.0000      -0.853712       -23.2307
  30   2.0000      -0.844915       -22.9913
  31   2.0000      -0.809840       -22.0369
  32   2.0000      -0.781054       -21.2536
  33   2.0000      -0.771819       -21.0023
  34   2.0000      -0.708528       -19.2800
  35   2.0000      -0.691790       -18.8246
  36   2.0000      -0.689998       -18.7758
  37   2.0000      -0.662278       -18.0215
  38   2.0000      -0.636763       -17.3272
  39   2.0000      -0.620107       -16.8740
  40   2.0000      -0.601020       -16.3546
  41   2.0000      -0.569317       -15.4919
  42   2.0000      -0.567412       -15.4401
  43   2.0000      -0.563359       -15.3298
  44   2.0000      -0.529836       -14.4176
  45   2.0000      -0.518327       -14.1044
  46   2.0000      -0.516247       -14.0478
  47   2.0000      -0.510000       -13.8778
  48   2.0000      -0.500837       -13.6285
  49   2.0000      -0.492168       -13.3926
  50   2.0000      -0.489384       -13.3168
  51   2.0000      -0.481345       -13.0981
  52   2.0000      -0.472325       -12.8526
  53   2.0000      -0.465543       -12.6681
  54   2.0000      -0.459861       -12.5135
  55   2.0000      -0.451543       -12.2871
  56   2.0000      -0.450343       -12.2544
  57   2.0000      -0.439628       -11.9629
  58   2.0000      -0.431342       -11.7374
  59   2.0000      -0.428016       -11.6469
  60   2.0000      -0.421454       -11.4684
  61   2.0000      -0.415764       -11.3135
  62   2.0000      -0.415625       -11.3097
  63   2.0000      -0.343086        -9.3358
  64   2.0000      -0.334250        -9.0954
  65   2.0000      -0.330656        -8.9976
  66   2.0000      -0.290590        -7.9074
  67   0.0000       0.027667         0.7529
  68   0.0000       0.067921         1.8482
  69   0.0000       0.110578         3.0090
  70   0.0000       0.125407         3.4125
  71   0.0000       0.129818         3.5325

MULLIKEN ATOMIC CHARGES
-----------------------
   0 S :    0.130067
   1 C :   -0.090705
   2 C :   -0.095483
   3 C :    0.001633
   4 C :   -0.148909
   5 H :    0.018516
   6 C :    0.017515
   7 H :    0.040629
   8 H :    0.039563
   9 C :   -0.091431
  10 H :    0.050599
  11 H :    0.048905
  12 C :   -0.069261
  13 H :    0.030423
  14 H :    0.017738
  15 H :    0.046597
  16 S :    0.109662
  17 C :   -0.088989
  18 C :   -0.010119
  19 C :   -0.041249
  20 C :   -0.141895
  21 H :    0.001253
  22 C :    0.050841
  23 H :    0.023565
  24 H :    0.039603
  25 C :   -0.100038
  26 H :    0.019562
  27 H :    0.034729
  28 C :   -0.043367
  29 H :    0.035064
  30 H :    0.040201
  31 H :    0.041628
  32 H :    0.032890
  33 H :    0.050261
Sum of atomic charges:   -0.0000000

LOEWDIN ATOMIC CHARGES
----------------------
   0 S :    0.454674
   1 C :   -0.209089
   2 C :   -0.060464
   3 C :   -0.075777
   4 C :   -0.211662
   5 H :    0.033236
   6 C :   -0.032153
   7 H :    0.031126
   8 H :    0.035417
   9 C :   -0.038609
  10 H :    0.032332
  11 H :    0.022849
  12 C :   -0.073112
  13 H :    0.023199
  14 H :    0.016155
  15 H :    0.036334
  16 S :    0.419322
  17 C :   -0.188653
  18 C :   -0.060295
  19 C :   -0.060808
  20 C :   -0.201274
  21 H :    0.020702
  22 C :   -0.034829
  23 H :    0.033161
  24 H :    0.034297
  25 C :   -0.049535
  26 H :    0.015753
  27 H :    0.029820
  28 C :   -0.067537
  29 H :    0.025225
  30 H :    0.025903
  31 H :    0.034999
  32 H :    0.017801
  33 H :    0.021491

  Mayer bond orders larger than 0.100000
B(  0-S ,  1-C ) :   1.1623 B(  0-S ,  4-C ) :   1.2085 B(  1-C ,  2-C ) :   1.5592
B(  1-C ,  4-C ) :   0.1142 B(  1-C , 32-H ) :   0.9726 B(  2-C ,  3-C ) :   1.3366
B(  2-C ,  6-C ) :   0.9958 B(  3-C ,  4-C ) :   1.4812 B(  3-C ,  5-H ) :   0.9808
B(  4-C , 20-C ) :   1.0019 B(  6-C ,  7-H ) :   0.9452 B(  6-C ,  8-H ) :   0.9486
B(  6-C ,  9-C ) :   1.0632 B(  9-C , 10-H ) :   0.9540 B(  9-C , 11-H ) :   0.9591
B(  9-C , 12-C ) :   1.0778 B( 12-C , 13-H ) :   0.9760 B( 12-C , 14-H ) :   0.9749
B( 12-C , 15-H ) :   0.9747 B( 16-S , 17-C ) :   1.1671 B( 16-S , 20-C ) :   1.1665
B( 17-C , 18-C ) :   1.5468 B( 17-C , 20-C ) :   0.1043 B( 17-C , 33-H ) :   0.9826
B( 18-C , 19-C ) :   1.2845 B( 18-C , 21-H ) :   0.9911 B( 19-C , 20-C ) :   1.5795
B( 19-C , 22-C ) :   1.0448 B( 22-C , 23-H ) :   0.9366 B( 22-C , 24-H ) :   0.9285
B( 22-C , 25-C ) :   1.0624 B( 25-C , 26-H ) :   0.9467 B( 25-C , 27-H ) :   0.9534
B( 25-C , 28-C ) :   1.0854 B( 28-C , 29-H ) :   0.9710 B( 28-C , 30-H ) :   0.9734
B( 28-C , 31-H ) :   0.9737

Dispersion correction           -0.014033894
FINAL SINGLE POINT ENERGY     -1339.872534238525

DIPOLE MOMENT
-------------
                                X             Y             Z
Electronic contribution:     18.83797     -24.87767      -9.66051
Nuclear contribution   :    -19.22833      25.34422      10.01454
                        -----------------------------------------
Total Dipole Moment    :     -0.39036       0.46655       0.35403
                        -----------------------------------------
Magnitude (a.u.)       :      0.70384
Magnitude (Debye)      :      1.78902

Rotational constants in cm-1:     0.016312     0.009243     0.006628
Rotational constants in MHz :   489.010256   277.095804   198.695053

                             ****ORCA TERMINATED NORMALLY****
TOTAL RUN TIME: 0 days 0 hours 0 minutes 34 seconds 41 msec
