                         Program Version 4.2.1 -  RELEASE  -
|  1> ! wB97X-D3 SP def2-SVP
|  2> %pal
|  3> nprocs 16
|  4> end
|  5>
|  6> * xyz 0 1
|  7> S 	 9.11091 	 -8.07778 	 74.499
|  8> C 	 9.44684 	 -6.42649 	 75.1073
|  9> C 	 8.7144 	 -5.51273 	 74.3181
| 10> C 	 8.17712 	 -6.13259 	 73.1107
| 11> C 	 8.43094 	 -7.48096 	 73.012
| 12> H 	 7.59405 	 -5.59753 	 72.3885
| 13> C 	 8.44996 	 -4.04343 	 74.5745
| 14> H 	 8.93567 	 -3.78608 	 75.5263
| 15> H 	 7.41078 	 -3.86462 	 74.7378
| 16> C 	 8.99079 	 -3.07148 	 73.5074
| 17> H 	 8.93185 	 -3.67003 	 72.6011
| 18> H 	 8.3374 	 -2.14539 	 73.5486
| 19> C 	 10.4793 	 -2.75175 	 73.6941
| 20> H 	 10.8868 	 -2.07894 	 72.9491
| 21> H 	 10.8275 	 -2.61416 	 74.6597
| 22> H 	 10.9549 	 -3.70457 	 73.3851
| 23> S 	 9.01916 	 -8.78967 	 70.5546
| 24> C 	 7.6197 	 -9.49876 	 69.712
| 25> C 	 6.51559 	 -9.46171 	 70.5007
| 26> C 	 6.61305 	 -8.84166 	 71.7581
| 27> C 	 7.92866 	 -8.35373 	 71.9101
| 28> H 	 5.60808 	 -9.92665 	 70.0867
| 29> C 	 5.56082 	 -8.68321 	 72.7474
| 30> H 	 5.91001 	 -8.15953 	 73.6178
| 31> H 	 5.33643 	 -9.65511 	 73.1203
| 32> C 	 4.19774 	 -7.98972 	 72.243
| 33> H 	 3.77451 	 -8.49027 	 71.3578
| 34> H 	 4.68674 	 -7.04327 	 71.9802
| 35> C 	 3.12397 	 -7.79357 	 73.2506
| 36> H 	 2.71304 	 -8.75531 	 73.5651
| 37> H 	 2.28989 	 -7.17366 	 72.8552
| 38> H 	 3.34908 	 -7.13259 	 74.1237
| 39> H 	 9.77565 	 -6.10785 	 76.1133
| 40> H 	 7.86786 	 -9.9942 	 68.8181
| 41> *
| 42>
| 43>                          ****END OF INPUT****

CARTESIAN COORDINATES (ANGSTROEM)
---------------------------------
  S      9.110910   -8.077780   74.499000
  C      9.446840   -6.426490   75.107300
  C      8.714400   -5.512730   74.318100
  C      8.177120   -6.132590   73.110700
  C      8.430940   -7.480960   73.012000
  H      7.594050   -5.597530   72.388500
  C      8.449960   -4.043430   74.574500
  H      8.935670   -3.786080   75.526300
  H      7.410780   -3.864620   74.737800
  C      8.990790   -3.071480   73.507400
  H      8.931850   -3.670030   72.601100
  H      8.337400   -2.145390   73.548600
  C     10.479300   -2.751750   73.694100
  H     10.886800   -2.078940   72.949100
  H     10.827500   -2.614160   74.659700
  H     10.954900   -3.704570   73.385100
  S      9.019160   -8.789670   70.554600
  C      7.619700   -9.498760   69.712000
  C      6.515590   -9.461710   70.500700
  C      6.613050   -8.841660   71.758100
  C      7.928660   -8.353730   71.910100
  H      5.608080   -9.926650   70.086700
  C      5.560820   -8.683210   72.747400
  H      5.910010   -8.159530   73.617800
  H      5.336430   -9.655110   73.120300
  C      4.197740   -7.989720   72.243000
  H      3.774510   -8.490270   71.357800
  H      4.686740   -7.043270   71.980200
  C      3.123970   -7.793570   73.250600
  H      2.713040   -8.755310   73.565100
  H      2.289890   -7.173660   72.855200
  H      3.349080   -7.132590   74.123700
  H      9.775650   -6.107850   76.113300
  H      7.867860   -9.994200   68.818100

 Total Charge           Charge          ....    0
 Multiplicity           Mult            ....    1
 Number of Electrons    NEL             ....  134
 Basis Dimension        Dim             ....  322

ORBITAL ENERGIES
----------------

  NO   OCC          E(Eh)            E(eV)
   0   2.0000     -88.967155     -2420.9194
   1   2.0000     -88.963863     -2420.8298
   2   2.0000     -10.332056      -281.1495
   3   2.0000     -10.330582      -281.1094
   4   2.0000     -10.322593      -280.8920
   5   2.0000     -10.317194      -280.7451
   6   2.0000     -10.306950      -280.4664
   7   2.0000     -10.304885      -280.4102
   8   2.0000     -10.295163      -280.1456
   9   2.0000     -10.293736      -280.1068
  10   2.0000     -10.292675      -280.0779
  11   2.0000     -10.290492      -280.0185
  12   2.0000     -10.290158      -280.0094
  13   2.0000     -10.287431      -279.9352
  14   2.0000     -10.283510      -279.8285
  15   2.0000     -10.269812      -279.4558
  16   2.0000      -8.081050      -219.8966
  17   2.0000      -8.077890      -219.8106
  18   2.0000      -6.039753      -164.3500
  19   2.0000      -6.036336      -164.2570
  20   2.0000      -6.035742      -164.2409
  21   2.0000      -6.032582      -164.1549
  22   2.0000      -6.031560      -164.1271
  23   2.0000      -6.028679      -164.0487
  24   2.0000      -1.000551       -27.2264
  25   2.0000      -0.979975       -26.6665
  26   2.0000      -0.912554       -24.8318
  27   2.0000      -0.910169       -24.7670
  28   2.0000      -0.864658       -23.5285
  29   2.0000      -0.856596       -23.3092
  30   2.0000      -0.841848       -22.9079
  31   2.0000      -0.813940       -22.1484
  32   2.0000      -0.785490       -21.3743
  33   2.0000      -0.774267       -21.0689
  34   2.0000      -0.704913       -19.1817
  35   2.0000      -0.701926       -19.1004
  36   2.0000      -0.690619       -18.7927
  37   2.0000      -0.655409       -17.8346
  38   2.0000      -0.636290       -17.3143
  39   2.0000      -0.622561       -16.9408
  40   2.0000      -0.606530       -16.5045
  41   2.0000      -0.573949       -15.6180
  42   2.0000      -0.568450       -15.4683
  43   2.0000      -0.549939       -14.9646
  44   2.0000      -0.535291       -14.5660
  45   2.0000      -0.528417       -14.3790
  46   2.0000      -0.520336       -14.1591
  47   2.0000      -0.516691       -14.0599
  48   2.0000      -0.512557       -13.9474
  49   2.0000      -0.489563       -13.3217
  50   2.0000      -0.483547       -13.1580
  51   2.0000      -0.477848       -13.0029
  52   2.0000      -0.473170       -12.8756
  53   2.0000      -0.463555       -12.6140
  54   2.0000      -0.457767       -12.4565
  55   2.0000      -0.457516       -12.4496
  56   2.0000      -0.437793       -11.9130
  57   2.0000      -0.435956       -11.8630
  58   2.0000      -0.431947       -11.7539
  59   2.0000      -0.423893       -11.5347
  60   2.0000      -0.420153       -11.4329
  61   2.0000      -0.411153       -11.1880
  62   2.0000      -0.410230       -11.1629
  63   2.0000      -0.335752        -9.1363
  64   2.0000      -0.326503        -8.8846
  65   2.0000      -0.318519        -8.6673
  66   2.0000      -0.312623        -8.5069
  67   0.0000       0.041810         1.1377
  68   0.0000       0.047597         1.2952
  69   0.0000       0.101998         2.7755
  70   0.0000       0.112389         3.0583
  71   0.0000       0.129678         3.5287

MULLIKEN ATOMIC CHARGES
-----------------------
   0 S :    0.107256
   1 C :   -0.107893
   2 C :   -0.142655
   3 C :    0.044407
   4 C :   -0.158935
   5 H :    0.015766
   6 C :    0.078759
   7 H :    0.004744
   8 H :    0.033848
   9 C :   -0.092633
  10 H :    0.032694
  11 H :    0.042663
  12 C :   -0.022883
  13 H :    0.036643
  14 H :    0.017087
  15 H :    0.020934
  16 S :    0.090329
  17 C :   -0.089057
  18 C :   -0.028088
  19 C :    0.008791
  20 C :   -0.199650
  21 H :    0.024965
  22 C :    0.110563
  23 H :    0.018765
  24 H :    0.018592
  25 C :   -0.103095
  26 H :    0.040442
  27 H :    0.031722
  28 C :   -0.046245
  29 H :    0.035322
  30 H :    0.034348
  31 H :    0.033109
  32 H :    0.060478
  33 H :    0.048906
Sum of atomic charges:   -0.0000000

LOEWDIN ATOMIC CHARGES
----------------------
   0 S :    0.395051
   1 C :   -0.201188
   2 C :   -0.058548
   3 C :   -0.062241
   4 C :   -0.198115
   5 H :    0.027683
   6 C :   -0.033728
   7 H :    0.026020
   8 H :    0.030834
   9 C :   -0.040532
  10 H :    0.025959
  11 H :    0.028038
  12 C :   -0.065453
  13 H :    0.028169
  14 H :    0.011610
  15 H :    0.034472
  16 S :    0.373416
  17 C :   -0.159609
  18 C :   -0.071645
  19 C :   -0.051009
  20 C :   -0.186539
  21 H :    0.035474
  22 C :   -0.029826
  23 H :    0.030546
  24 H :    0.028249
  25 C :   -0.040606
  26 H :    0.026498
  27 H :    0.027302
  28 C :   -0.076110
  29 H :    0.025756
  30 H :    0.033672
  31 H :    0.030995
  32 H :    0.036391
  33 H :    0.019012

  Mayer bond orders larger than 0.100000
B(  0-S ,  1-C ) :   1.1209 B(  0-S ,  4-C ) :   1.1501 B(  1-C ,  2-C ) :   1.6216
B(  1-C , 32-H ) :   0.9591 B(  2-C ,  3-C ) :   1.2203 B(  2-C ,  6-C ) :   1.0394
B(  3-C ,  4-C ) :   1.5941 B(  3-C ,  5-H ) :   0.9924 B(  4-C , 20-C ) :   1.0032
B(  6-C ,  7-H ) :   0.9383 B(  6-C ,  8-H ) :   0.9390 B(  6-C ,  9-C ) :   1.0526
B(  9-C , 10-H ) :   0.9643 B(  9-C , 11-H ) :   0.9561 B(  9-C , 12-C ) :   1.0736
B( 12-C , 13-H ) :   0.9733 B( 12-C , 14-H ) :   0.9784 B( 12-C , 15-H ) :   0.9721
B( 16-S , 17-C ) :   1.1439 B( 16-S , 20-C ) :   1.1512 B( 17-C , 18-C ) :   1.6053
B( 17-C , 20-C ) :   0.1028 B( 17-C , 33-H ) :   0.9793 B( 18-C , 19-C ) :   1.2263
B( 18-C , 21-H ) :   0.9861 B( 19-C , 20-C ) :   1.5755 B( 19-C , 22-C ) :   1.0740
B( 22-C , 23-H ) :   0.9224 B( 22-C , 24-H ) :   0.9133 B( 22-C , 25-C ) :   1.0325
B( 25-C , 26-H ) :   0.9549 B( 25-C , 27-H ) :   0.9596 B( 25-C , 28-C ) :   1.1028
B( 28-C , 29-H ) :   0.9710 B( 28-C , 30-H ) :   0.9683 B( 28-C , 31-H ) :   0.9697

Dispersion correction           -0.014396211
FINAL SINGLE POINT ENERGY     -1339.860524327471

DIPOLE MOMENT
-------------
                                X             Y             Z
Electronic contribution:     14.08731     -18.40866      -5.32971
Nuclear contribution   :    -14.76706      18.69471       5.37663
                        -----------------------------------------
Total Dipole Moment    :     -0.67975       0.28605       0.04691
                        -----------------------------------------
Magnitude (a.u.)       :      0.73898
Magnitude (Debye)      :      1.87833

Rotational constants in cm-1:     0.016921     0.008452     0.007117
Rotational constants in MHz :   507.271706   253.393419   213.369759

                             ****ORCA TERMINATED NORMALLY****
TOTAL RUN TIME: 0 days 0 hours 0 minutes 34 seconds 946 msec
