                         Program Version 4.2.1 -  RELEASE  -
|  1> ! wB97X-D3 SP def2-SVP
|  2> %pal
|  3> nprocs 16
|  4> end
|  5>
|  6> * xyz 0 1
|  7> S 	 -62.8372 	 58.8648 	 124.143
|  8> C 	 -62.4105 	 59.0258 	 122.437
|  9> C 	 -63.3631 	 58.5864 	 121.626
| 10> C 	 -64.6005 	 58.3851 	 122.356
| 11> C 	 -64.4702 	 58.7013 	 123.704
| 12> H 	 -65.5844 	 58.245 	 121.924
| 13> C 	 -63.3095 	 58.4034 	 120.133
| 14> H 	 -64.1444 	 57.6933 	 119.827
| 15> H 	 -62.351 	 57.9233 	 119.955
| 16> C 	 -63.4432 	 59.7164 	 119.281
| 17> H 	 -64.3538 	 60.1166 	 119.602
| 18> H 	 -62.7134 	 60.4478 	 119.663
| 19> C 	 -63.2651 	 59.7092 	 117.753
| 20> H 	 -64.2275 	 59.3584 	 117.322
| 21> H 	 -63.1347 	 60.6009 	 117.229
| 22> H 	 -62.5661 	 58.9917 	 117.326
| 23> S 	 -66.8773 	 59.6648 	 124.555
| 24> C 	 -67.7083 	 58.9712 	 125.883
| 25> C 	 -66.8865 	 58.025 	 126.52
| 26> C 	 -65.6684 	 57.7304 	 125.826
| 27> C 	 -65.5736 	 58.5161 	 124.665
| 28> H 	 -67.181 	 57.5802 	 127.417
| 29> C 	 -64.6932 	 56.6448 	 126.385
| 30> H 	 -63.8255 	 57.2045 	 126.756
| 31> H 	 -64.2615 	 56.241 	 125.485
| 32> C 	 -65.2304 	 55.512 	 127.356
| 33> H 	 -66.1592 	 55.0234 	 126.969
| 34> H 	 -65.3957 	 55.921 	 128.286
| 35> C 	 -64.1239 	 54.4749 	 127.532
| 36> H 	 -63.1308 	 54.8474 	 127.839
| 37> H 	 -64.078 	 54.0002 	 126.528
| 38> H 	 -64.4191 	 53.7336 	 128.256
| 39> H 	 -61.3498 	 59.25 	 122.162
| 40> H 	 -68.7282 	 59.2223 	 126.294
| 41> *
| 42>
| 43>                          ****END OF INPUT****

CARTESIAN COORDINATES (ANGSTROEM)
---------------------------------
  S    -62.837200   58.864800  124.143000
  C    -62.410500   59.025800  122.437000
  C    -63.363100   58.586400  121.626000
  C    -64.600500   58.385100  122.356000
  C    -64.470200   58.701300  123.704000
  H    -65.584400   58.245000  121.924000
  C    -63.309500   58.403400  120.133000
  H    -64.144400   57.693300  119.827000
  H    -62.351000   57.923300  119.955000
  C    -63.443200   59.716400  119.281000
  H    -64.353800   60.116600  119.602000
  H    -62.713400   60.447800  119.663000
  C    -63.265100   59.709200  117.753000
  H    -64.227500   59.358400  117.322000
  H    -63.134700   60.600900  117.229000
  H    -62.566100   58.991700  117.326000
  S    -66.877300   59.664800  124.555000
  C    -67.708300   58.971200  125.883000
  C    -66.886500   58.025000  126.520000
  C    -65.668400   57.730400  125.826000
  C    -65.573600   58.516100  124.665000
  H    -67.181000   57.580200  127.417000
  C    -64.693200   56.644800  126.385000
  H    -63.825500   57.204500  126.756000
  H    -64.261500   56.241000  125.485000
  C    -65.230400   55.512000  127.356000
  H    -66.159200   55.023400  126.969000
  H    -65.395700   55.921000  128.286000
  C    -64.123900   54.474900  127.532000
  H    -63.130800   54.847400  127.839000
  H    -64.078000   54.000200  126.528000
  H    -64.419100   53.733600  128.256000
  H    -61.349800   59.250000  122.162000
  H    -68.728200   59.222300  126.294000

 Total Charge           Charge          ....    0
 Multiplicity           Mult            ....    1
 Number of Electrons    NEL             ....  134
 Basis Dimension        Dim             ....  322

ORBITAL ENERGIES
----------------

  NO   OCC          E(Eh)            E(eV)
   0   2.0000     -88.965276     -2420.8682
   1   2.0000     -88.965130     -2420.8643
   2   2.0000     -10.324723      -280.9500
   3   2.0000     -10.323453      -280.9154
   4   2.0000     -10.316230      -280.7189
   5   2.0000     -10.313222      -280.6370
   6   2.0000     -10.304111      -280.3891
   7   2.0000     -10.299588      -280.2660
   8   2.0000     -10.298666      -280.2410
   9   2.0000     -10.295929      -280.1665
  10   2.0000     -10.293013      -280.0871
  11   2.0000     -10.291006      -280.0325
  12   2.0000     -10.287432      -279.9353
  13   2.0000     -10.285830      -279.8917
  14   2.0000     -10.280273      -279.7404
  15   2.0000     -10.277481      -279.6645
  16   2.0000      -8.080747      -219.8883
  17   2.0000      -8.080335      -219.8771
  18   2.0000      -6.039182      -164.3345
  19   2.0000      -6.038804      -164.3242
  20   2.0000      -6.035418      -164.2321
  21   2.0000      -6.034642      -164.2110
  22   2.0000      -6.031286      -164.1196
  23   2.0000      -6.031250      -164.1186
  24   2.0000      -1.010255       -27.4904
  25   2.0000      -0.986201       -26.8359
  26   2.0000      -0.908720       -24.7275
  27   2.0000      -0.903937       -24.5974
  28   2.0000      -0.867015       -23.5927
  29   2.0000      -0.851863       -23.1804
  30   2.0000      -0.846755       -23.0414
  31   2.0000      -0.808447       -21.9990
  32   2.0000      -0.785577       -21.3766
  33   2.0000      -0.770650       -20.9705
  34   2.0000      -0.709332       -19.3019
  35   2.0000      -0.707407       -19.2495
  36   2.0000      -0.691453       -18.8154
  37   2.0000      -0.654528       -17.8106
  38   2.0000      -0.638982       -17.3876
  39   2.0000      -0.612383       -16.6638
  40   2.0000      -0.589958       -16.0536
  41   2.0000      -0.570728       -15.5303
  42   2.0000      -0.566922       -15.4267
  43   2.0000      -0.552565       -15.0361
  44   2.0000      -0.525428       -14.2976
  45   2.0000      -0.523160       -14.2359
  46   2.0000      -0.517881       -14.0923
  47   2.0000      -0.509178       -13.8554
  48   2.0000      -0.506431       -13.7807
  49   2.0000      -0.499139       -13.5823
  50   2.0000      -0.486002       -13.2248
  51   2.0000      -0.483284       -13.1508
  52   2.0000      -0.470529       -12.8037
  53   2.0000      -0.464416       -12.6374
  54   2.0000      -0.458596       -12.4790
  55   2.0000      -0.446019       -12.1368
  56   2.0000      -0.445077       -12.1112
  57   2.0000      -0.438841       -11.9415
  58   2.0000      -0.435020       -11.8375
  59   2.0000      -0.428270       -11.6538
  60   2.0000      -0.424831       -11.5602
  61   2.0000      -0.418090       -11.3768
  62   2.0000      -0.408533       -11.1168
  63   2.0000      -0.339401        -9.2356
  64   2.0000      -0.331084        -9.0093
  65   2.0000      -0.326798        -8.8926
  66   2.0000      -0.294791        -8.0217
  67   0.0000       0.036214         0.9854
  68   0.0000       0.068961         1.8765
  69   0.0000       0.099506         2.7077
  70   0.0000       0.125031         3.4023
  71   0.0000       0.136673         3.7191

MULLIKEN ATOMIC CHARGES
-----------------------
   0 S :    0.106553
   1 C :   -0.154772
   2 C :   -0.053261
   3 C :    0.010912
   4 C :   -0.140249
   5 H :    0.019606
   6 C :    0.057741
   7 H :    0.038619
   8 H :    0.025253
   9 C :   -0.050082
  10 H :    0.012153
  11 H :    0.023158
  12 C :   -0.019093
  13 H :    0.016112
  14 H :    0.025554
  15 H :    0.028356
  16 S :    0.124829
  17 C :   -0.108494
  18 C :   -0.043700
  19 C :   -0.037719
  20 C :   -0.188568
  21 H :   -0.007661
  22 C :    0.056036
  23 H :    0.034488
  24 H :    0.016012
  25 C :   -0.044708
  26 H :    0.049092
  27 H :    0.020435
  28 C :   -0.057789
  29 H :    0.039531
  30 H :    0.036606
  31 H :    0.031925
  32 H :    0.058427
  33 H :    0.074697
Sum of atomic charges:    0.0000000

LOEWDIN ATOMIC CHARGES
----------------------
   0 S :    0.413198
   1 C :   -0.187740
   2 C :   -0.067688
   3 C :   -0.058771
   4 C :   -0.213257
   5 H :    0.029854
   6 C :   -0.028482
   7 H :    0.037541
   8 H :    0.028064
   9 C :   -0.037826
  10 H :    0.017397
  11 H :    0.025193
  12 C :   -0.069575
  13 H :    0.028869
  14 H :    0.021474
  15 H :    0.027503
  16 S :    0.435327
  17 C :   -0.217126
  18 C :   -0.070256
  19 C :   -0.057320
  20 C :   -0.210022
  21 H :    0.016919
  22 C :   -0.035109
  23 H :    0.034265
  24 H :    0.026974
  25 C :   -0.031080
  26 H :    0.035148
  27 H :    0.011009
  28 C :   -0.063428
  29 H :    0.027765
  30 H :    0.030417
  31 H :    0.023195
  32 H :    0.033947
  33 H :    0.043620

  Mayer bond orders larger than 0.100000
B(  0-S ,  1-C ) :   1.1244 B(  0-S ,  4-C ) :   1.1532 B(  1-C ,  2-C ) :   1.6485
B(  1-C , 32-H ) :   0.9652 B(  2-C ,  3-C ) :   1.2128 B(  2-C ,  6-C ) :   1.0238
B(  3-C ,  4-C ) :   1.5825 B(  3-C ,  5-H ) :   0.9933 B(  4-C , 20-C ) :   1.0067
B(  6-C ,  7-H ) :   0.9439 B(  6-C ,  8-H ) :   0.9327 B(  6-C ,  9-C ) :   1.0578
B(  9-C , 10-H ) :   0.9578 B(  9-C , 11-H ) :   0.9599 B(  9-C , 12-C ) :   1.0691
B( 12-C , 13-H ) :   0.9723 B( 12-C , 14-H ) :   0.9760 B( 12-C , 15-H ) :   0.9766
B( 16-S , 17-C ) :   1.1687 B( 16-S , 20-C ) :   1.1702 B( 17-C , 18-C ) :   1.5705
B( 17-C , 20-C ) :   0.1053 B( 17-C , 33-H ) :   0.9603 B( 18-C , 19-C ) :   1.2764
B( 18-C , 21-H ) :   0.9952 B( 19-C , 20-C ) :   1.5692 B( 19-C , 22-C ) :   1.0127
B( 22-C , 23-H ) :   0.9290 B( 22-C , 24-H ) :   0.9371 B( 22-C , 25-C ) :   1.0586
B( 25-C , 26-H ) :   0.9591 B( 25-C , 27-H ) :   0.9473 B( 25-C , 28-C ) :   1.0852
B( 28-C , 29-H ) :   0.9747 B( 28-C , 30-H ) :   0.9783 B( 28-C , 31-H ) :   0.9732

Dispersion correction           -0.013504725
FINAL SINGLE POINT ENERGY     -1339.859642466676

DIPOLE MOMENT
-------------
                                X             Y             Z
Electronic contribution:     -5.83874      12.11786       9.20251
Nuclear contribution   :      5.92573     -12.46274      -9.31193
                        -----------------------------------------
Total Dipole Moment    :      0.08699      -0.34487      -0.10942
                        -----------------------------------------
Magnitude (a.u.)       :      0.37213
Magnitude (Debye)      :      0.94587

Rotational constants in cm-1:     0.021878     0.006855     0.005771
Rotational constants in MHz :   655.883784   205.495703   173.019975

                             ****ORCA TERMINATED NORMALLY****
TOTAL RUN TIME: 0 days 0 hours 0 minutes 31 seconds 806 msec
