                         Program Version 4.2.1 -  RELEASE  -
|  1> ! wB97X-D3 SP def2-SVP
|  2> %pal
|  3> nprocs 16
|  4> end
|  5>
|  6> * xyz 0 1
|  7> S 	 -48.4865 	 62.5406 	 142.555
|  8> C 	 -47.4951 	 61.1581 	 142.219
|  9> C 	 -46.2399 	 61.5711 	 141.866
| 10> C 	 -45.9732 	 62.9519 	 142.088
| 11> C 	 -47.1047 	 63.6816 	 142.399
| 12> H 	 -45.1392 	 63.6163 	 141.977
| 13> C 	 -45.1502 	 60.5637 	 141.425
| 14> H 	 -45.6647 	 59.5513 	 141.383
| 15> H 	 -44.4232 	 60.5361 	 142.219
| 16> C 	 -44.3783 	 61.0524 	 140.173
| 17> H 	 -45.0559 	 61.8182 	 139.695
| 18> H 	 -43.5117 	 61.6131 	 140.559
| 19> C 	 -43.9583 	 59.9185 	 139.246
| 20> H 	 -43.5014 	 59.0072 	 139.712
| 21> H 	 -44.9237 	 59.4543 	 139.009
| 22> H 	 -43.37 	 60.1553 	 138.369
| 23> S 	 -48.9107 	 65.7737 	 141.943
| 24> C 	 -48.3622 	 67.3568 	 142.356
| 25> C 	 -47.0945 	 67.3792 	 142.806
| 26> C 	 -46.5707 	 66.1106 	 143.031
| 27> C 	 -47.3576 	 65.0901 	 142.503
| 28> H 	 -46.6987 	 68.3382 	 143.073
| 29> C 	 -45.2306 	 65.9081 	 143.742
| 30> H 	 -44.9936 	 64.8825 	 144.009
| 31> H 	 -45.2657 	 66.4553 	 144.644
| 32> C 	 -44.1577 	 66.4583 	 142.764
| 33> H 	 -44.2243 	 67.5723 	 142.688
| 34> H 	 -44.3707 	 66.0684 	 141.752
| 35> C 	 -42.6778 	 66.2224 	 143.248
| 36> H 	 -42.4784 	 65.187 	 143.298
| 37> H 	 -42.694 	 66.6698 	 144.288
| 38> H 	 -41.87 	 66.7037 	 142.709
| 39> H 	 -47.7361 	 60.1151 	 142.03
| 40> H 	 -48.9864 	 68.1966 	 142.235
| 41> *
| 42>
| 43>                          ****END OF INPUT****

CARTESIAN COORDINATES (ANGSTROEM)
---------------------------------
  S    -48.486500   62.540600  142.555000
  C    -47.495100   61.158100  142.219000
  C    -46.239900   61.571100  141.866000
  C    -45.973200   62.951900  142.088000
  C    -47.104700   63.681600  142.399000
  H    -45.139200   63.616300  141.977000
  C    -45.150200   60.563700  141.425000
  H    -45.664700   59.551300  141.383000
  H    -44.423200   60.536100  142.219000
  C    -44.378300   61.052400  140.173000
  H    -45.055900   61.818200  139.695000
  H    -43.511700   61.613100  140.559000
  C    -43.958300   59.918500  139.246000
  H    -43.501400   59.007200  139.712000
  H    -44.923700   59.454300  139.009000
  H    -43.370000   60.155300  138.369000
  S    -48.910700   65.773700  141.943000
  C    -48.362200   67.356800  142.356000
  C    -47.094500   67.379200  142.806000
  C    -46.570700   66.110600  143.031000
  C    -47.357600   65.090100  142.503000
  H    -46.698700   68.338200  143.073000
  C    -45.230600   65.908100  143.742000
  H    -44.993600   64.882500  144.009000
  H    -45.265700   66.455300  144.644000
  C    -44.157700   66.458300  142.764000
  H    -44.224300   67.572300  142.688000
  H    -44.370700   66.068400  141.752000
  C    -42.677800   66.222400  143.248000
  H    -42.478400   65.187000  143.298000
  H    -42.694000   66.669800  144.288000
  H    -41.870000   66.703700  142.709000
  H    -47.736100   60.115100  142.030000
  H    -48.986400   68.196600  142.235000

 Total Charge           Charge          ....    0
 Multiplicity           Mult            ....    1
 Number of Electrons    NEL             ....  134
 Basis Dimension        Dim             ....  322

ORBITAL ENERGIES
----------------

  NO   OCC          E(Eh)            E(eV)
   0   2.0000     -88.966407     -2420.8990
   1   2.0000     -88.962171     -2420.7837
   2   2.0000     -10.332145      -281.1520
   3   2.0000     -10.328509      -281.0530
   4   2.0000     -10.312125      -280.6072
   5   2.0000     -10.310054      -280.5508
   6   2.0000     -10.304860      -280.4095
   7   2.0000     -10.300517      -280.2913
   8   2.0000     -10.296391      -280.1790
   9   2.0000     -10.295461      -280.1537
  10   2.0000     -10.294608      -280.1305
  11   2.0000     -10.293716      -280.1062
  12   2.0000     -10.292263      -280.0667
  13   2.0000     -10.288430      -279.9624
  14   2.0000     -10.282231      -279.7937
  15   2.0000     -10.281584      -279.7761
  16   2.0000      -8.081223      -219.9012
  17   2.0000      -8.076465      -219.7718
  18   2.0000      -6.039699      -164.3486
  19   2.0000      -6.035777      -164.2418
  20   2.0000      -6.035138      -164.2245
  21   2.0000      -6.031955      -164.1378
  22   2.0000      -6.031022      -164.1125
  23   2.0000      -6.027074      -164.0050
  24   2.0000      -1.010538       -27.4981
  25   2.0000      -0.988007       -26.8850
  26   2.0000      -0.910448       -24.7745
  27   2.0000      -0.907993       -24.7077
  28   2.0000      -0.875889       -23.8342
  29   2.0000      -0.851526       -23.1712
  30   2.0000      -0.842250       -22.9188
  31   2.0000      -0.820621       -22.3302
  32   2.0000      -0.785161       -21.3653
  33   2.0000      -0.770596       -20.9690
  34   2.0000      -0.714688       -19.4476
  35   2.0000      -0.700467       -19.0607
  36   2.0000      -0.689894       -18.7730
  37   2.0000      -0.663392       -18.0518
  38   2.0000      -0.645384       -17.5618
  39   2.0000      -0.616322       -16.7710
  40   2.0000      -0.603421       -16.4199
  41   2.0000      -0.572196       -15.5702
  42   2.0000      -0.568694       -15.4749
  43   2.0000      -0.558874       -15.2077
  44   2.0000      -0.527640       -14.3578
  45   2.0000      -0.523967       -14.2579
  46   2.0000      -0.515921       -14.0389
  47   2.0000      -0.509121       -13.8539
  48   2.0000      -0.508442       -13.8354
  49   2.0000      -0.502268       -13.6674
  50   2.0000      -0.495645       -13.4872
  51   2.0000      -0.480279       -13.0691
  52   2.0000      -0.476776       -12.9737
  53   2.0000      -0.474038       -12.8992
  54   2.0000      -0.459386       -12.5005
  55   2.0000      -0.449878       -12.2418
  56   2.0000      -0.442023       -12.0281
  57   2.0000      -0.437080       -11.8935
  58   2.0000      -0.432396       -11.7661
  59   2.0000      -0.425115       -11.5680
  60   2.0000      -0.423050       -11.5118
  61   2.0000      -0.411581       -11.1997
  62   2.0000      -0.405526       -11.0349
  63   2.0000      -0.358979        -9.7683
  64   2.0000      -0.336385        -9.1535
  65   2.0000      -0.328633        -8.9426
  66   2.0000      -0.284974        -7.7545
  67   0.0000       0.021587         0.5874
  68   0.0000       0.077921         2.1204
  69   0.0000       0.110489         3.0066
  70   0.0000       0.122853         3.3430
  71   0.0000       0.129207         3.5159

MULLIKEN ATOMIC CHARGES
-----------------------
   0 S :    0.087629
   1 C :   -0.089778
   2 C :   -0.122686
   3 C :    0.048050
   4 C :   -0.166434
   5 H :   -0.006560
   6 C :    0.057462
   7 H :    0.023167
   8 H :    0.035293
   9 C :   -0.092754
  10 H :    0.055459
  11 H :    0.032244
  12 C :   -0.055445
  13 H :    0.030760
  14 H :    0.024551
  15 H :    0.046772
  16 S :    0.107433
  17 C :   -0.070615
  18 C :   -0.018875
  19 C :   -0.060537
  20 C :   -0.130732
  21 H :    0.010431
  22 C :    0.117250
  23 H :    0.025375
  24 H :    0.020190
  25 C :   -0.147962
  26 H :    0.038642
  27 H :    0.045137
  28 C :   -0.030428
  29 H :    0.024890
  30 H :    0.031842
  31 H :    0.041739
  32 H :    0.046792
  33 H :    0.041698
Sum of atomic charges:   -0.0000000

LOEWDIN ATOMIC CHARGES
----------------------
   0 S :    0.382121
   1 C :   -0.208355
   2 C :   -0.065849
   3 C :   -0.070377
   4 C :   -0.163527
   5 H :    0.030540
   6 C :   -0.029839
   7 H :    0.030442
   8 H :    0.030071
   9 C :   -0.047705
  10 H :    0.032514
  11 H :    0.022710
  12 C :   -0.075352
  13 H :    0.030924
  14 H :    0.028605
  15 H :    0.025898
  16 S :    0.398774
  17 C :   -0.169757
  18 C :   -0.072887
  19 C :   -0.046650
  20 C :   -0.195625
  21 H :    0.031984
  22 C :   -0.020860
  23 H :    0.028176
  24 H :    0.026466
  25 C :   -0.043248
  26 H :    0.026847
  27 H :    0.022137
  28 C :   -0.067748
  29 H :    0.014891
  30 H :    0.033280
  31 H :    0.025823
  32 H :    0.034576
  33 H :    0.021002

  Mayer bond orders larger than 0.100000
B(  0-S ,  1-C ) :   1.1221 B(  0-S ,  4-C ) :   1.1270 B(  1-C ,  2-C ) :   1.6497
B(  1-C , 32-H ) :   0.9594 B(  2-C ,  3-C ) :   1.1908 B(  2-C ,  6-C ) :   1.0267
B(  3-C ,  4-C ) :   1.5939 B(  3-C ,  5-H ) :   0.9927 B(  4-C , 20-C ) :   1.0914
B(  6-C ,  7-H ) :   0.9509 B(  6-C ,  8-H ) :   0.9403 B(  6-C ,  9-C ) :   1.0281
B(  9-C , 10-H ) :   0.9698 B(  9-C , 11-H ) :   0.9505 B(  9-C , 12-C ) :   1.0728
B( 12-C , 13-H ) :   0.9731 B( 12-C , 14-H ) :   0.9742 B( 12-C , 15-H ) :   0.9764
B( 16-S , 17-C ) :   1.1594 B( 16-S , 20-C ) :   1.1231 B( 17-C , 18-C ) :   1.6134
B( 17-C , 33-H ) :   0.9709 B( 18-C , 19-C ) :   1.2331 B( 18-C , 21-H ) :   0.9960
B( 19-C , 20-C ) :   1.5791 B( 19-C , 22-C ) :   1.0479 B( 22-C , 23-H ) :   0.9414
B( 22-C , 24-H ) :   0.9229 B( 22-C , 25-C ) :   1.0430 B( 25-C , 26-H ) :   0.9563
B( 25-C , 27-H ) :   0.9597 B( 25-C , 28-C ) :   1.0683 B( 28-C , 29-H ) :   0.9790
B( 28-C , 30-H ) :   0.9716 B( 28-C , 31-H ) :   0.9772

Dispersion correction           -0.014023049
FINAL SINGLE POINT ENERGY     -1339.869322100923

DIPOLE MOMENT
-------------
                                X             Y             Z
Electronic contribution:    -29.40540       5.72128       4.64077
Nuclear contribution   :     30.06974      -5.49459      -4.64002
                        -----------------------------------------
Total Dipole Moment    :      0.66434       0.22669       0.00076
                        -----------------------------------------
Magnitude (a.u.)       :      0.70196
Magnitude (Debye)      :      1.78423

Rotational constants in cm-1:     0.016938     0.009070     0.006566
Rotational constants in MHz :   507.789280   271.907580   196.840484

                             ****ORCA TERMINATED NORMALLY****
TOTAL RUN TIME: 0 days 0 hours 0 minutes 32 seconds 926 msec
