                         Program Version 4.2.1 -  RELEASE  -
|  1> ! wB97X-D3 SP def2-SVP
|  2> %pal
|  3> nprocs 16
|  4> end
|  5>
|  6> * xyz 0 1
|  7> S 	 31.5989 	 4.76905 	 66.0417
|  8> C 	 31.7845 	 6.48687 	 66.2531
|  9> C 	 30.785 	 7.18653 	 65.571
| 10> C 	 29.7072 	 6.30334 	 65.2249
| 11> C 	 29.9861 	 4.95728 	 65.4283
| 12> H 	 28.7449 	 6.49435 	 64.7409
| 13> C 	 30.6899 	 8.73036 	 65.3694
| 14> H 	 30.9575 	 9.16106 	 66.3278
| 15> H 	 29.6731 	 9.05323 	 65.2209
| 16> C 	 31.4051 	 9.34334 	 64.2198
| 17> H 	 30.9894 	 9.0494 	 63.3011
| 18> H 	 31.2381 	 10.4528 	 64.3268
| 19> C 	 32.9491 	 9.1814 	 64.2241
| 20> H 	 33.2834 	 8.13834 	 64.1913
| 21> H 	 33.4921 	 9.70087 	 63.3122
| 22> H 	 33.3541 	 9.66296 	 65.0869
| 23> S 	 29.8843 	 2.4788 	 64.2068
| 24> C 	 28.4536 	 1.53943 	 64.3705
| 25> C 	 27.378 	 2.15533 	 65.0093
| 26> C 	 27.8341 	 3.43533 	 65.5435
| 27> C 	 29.1255 	 3.76409 	 65.1041
| 28> H 	 26.463 	 1.59373 	 65.1713
| 29> C 	 26.9725 	 4.38156 	 66.3523
| 30> H 	 27.4815 	 5.33016 	 66.5746
| 31> H 	 26.8966 	 3.76747 	 67.3516
| 32> C 	 25.5644 	 4.62634 	 65.9291
| 33> H 	 24.9773 	 3.72622 	 66.1296
| 34> H 	 25.4761 	 5.09687 	 64.8967
| 35> C 	 24.8645 	 5.42809 	 67.0646
| 36> H 	 25.0111 	 4.8255 	 67.9525
| 37> H 	 23.8151 	 5.45428 	 66.8158
| 38> H 	 25.1832 	 6.44198 	 67.097
| 39> H 	 32.5961 	 7.00977 	 66.6704
| 40> H 	 28.2247 	 0.546168 	 64.0015
| 41> *
| 42>
| 43>                          ****END OF INPUT****

CARTESIAN COORDINATES (ANGSTROEM)
---------------------------------
  S     31.598900    4.769050   66.041700
  C     31.784500    6.486870   66.253100
  C     30.785000    7.186530   65.571000
  C     29.707200    6.303340   65.224900
  C     29.986100    4.957280   65.428300
  H     28.744900    6.494350   64.740900
  C     30.689900    8.730360   65.369400
  H     30.957500    9.161060   66.327800
  H     29.673100    9.053230   65.220900
  C     31.405100    9.343340   64.219800
  H     30.989400    9.049400   63.301100
  H     31.238100   10.452800   64.326800
  C     32.949100    9.181400   64.224100
  H     33.283400    8.138340   64.191300
  H     33.492100    9.700870   63.312200
  H     33.354100    9.662960   65.086900
  S     29.884300    2.478800   64.206800
  C     28.453600    1.539430   64.370500
  C     27.378000    2.155330   65.009300
  C     27.834100    3.435330   65.543500
  C     29.125500    3.764090   65.104100
  H     26.463000    1.593730   65.171300
  C     26.972500    4.381560   66.352300
  H     27.481500    5.330160   66.574600
  H     26.896600    3.767470   67.351600
  C     25.564400    4.626340   65.929100
  H     24.977300    3.726220   66.129600
  H     25.476100    5.096870   64.896700
  C     24.864500    5.428090   67.064600
  H     25.011100    4.825500   67.952500
  H     23.815100    5.454280   66.815800
  H     25.183200    6.441980   67.097000
  H     32.596100    7.009770   66.670400
  H     28.224700    0.546168   64.001500

 Total Charge           Charge          ....    0
 Multiplicity           Mult            ....    1
 Number of Electrons    NEL             ....  134
 Basis Dimension        Dim             ....  322

ORBITAL ENERGIES
----------------

  NO   OCC          E(Eh)            E(eV)
   0   2.0000     -88.970018     -2420.9973
   1   2.0000     -88.967565     -2420.9305
   2   2.0000     -10.329655      -281.0842
   3   2.0000     -10.327227      -281.0181
   4   2.0000     -10.315232      -280.6917
   5   2.0000     -10.312366      -280.6137
   6   2.0000     -10.307965      -280.4940
   7   2.0000     -10.306540      -280.4552
   8   2.0000     -10.297753      -280.2161
   9   2.0000     -10.294779      -280.1352
  10   2.0000     -10.294254      -280.1209
  11   2.0000     -10.292041      -280.0607
  12   2.0000     -10.289819      -280.0002
  13   2.0000     -10.286095      -279.8989
  14   2.0000     -10.282278      -279.7950
  15   2.0000     -10.274937      -279.5953
  16   2.0000      -8.085072      -220.0060
  17   2.0000      -8.082438      -219.9343
  18   2.0000      -6.043514      -164.4524
  19   2.0000      -6.040926      -164.3819
  20   2.0000      -6.039621      -164.3464
  21   2.0000      -6.036949      -164.2737
  22   2.0000      -6.035815      -164.2429
  23   2.0000      -6.033190      -164.1714
  24   2.0000      -1.005068       -27.3493
  25   2.0000      -0.984214       -26.7818
  26   2.0000      -0.916317       -24.9343
  27   2.0000      -0.912782       -24.8381
  28   2.0000      -0.863079       -23.4856
  29   2.0000      -0.854319       -23.2472
  30   2.0000      -0.842687       -22.9307
  31   2.0000      -0.812611       -22.1123
  32   2.0000      -0.784977       -21.3603
  33   2.0000      -0.771107       -20.9829
  34   2.0000      -0.701239       -19.0817
  35   2.0000      -0.693343       -18.8668
  36   2.0000      -0.688982       -18.7481
  37   2.0000      -0.653149       -17.7731
  38   2.0000      -0.641912       -17.4673
  39   2.0000      -0.615178       -16.7398
  40   2.0000      -0.592812       -16.1312
  41   2.0000      -0.583010       -15.8645
  42   2.0000      -0.571965       -15.5640
  43   2.0000      -0.550838       -14.9891
  44   2.0000      -0.540525       -14.7084
  45   2.0000      -0.523695       -14.2505
  46   2.0000      -0.517202       -14.0738
  47   2.0000      -0.508744       -13.8436
  48   2.0000      -0.499625       -13.5955
  49   2.0000      -0.495929       -13.4949
  50   2.0000      -0.485353       -13.2071
  51   2.0000      -0.479962       -13.0604
  52   2.0000      -0.465576       -12.6690
  53   2.0000      -0.463227       -12.6051
  54   2.0000      -0.462947       -12.5974
  55   2.0000      -0.454317       -12.3626
  56   2.0000      -0.441427       -12.0118
  57   2.0000      -0.438880       -11.9425
  58   2.0000      -0.435783       -11.8583
  59   2.0000      -0.422720       -11.5028
  60   2.0000      -0.418311       -11.3828
  61   2.0000      -0.412921       -11.2361
  62   2.0000      -0.409438       -11.1414
  63   2.0000      -0.344225        -9.3668
  64   2.0000      -0.331200        -9.0124
  65   2.0000      -0.330024        -8.9804
  66   2.0000      -0.289665        -7.8822
  67   0.0000       0.035965         0.9787
  68   0.0000       0.066150         1.8000
  69   0.0000       0.111448         3.0327
  70   0.0000       0.116792         3.1781
  71   0.0000       0.123991         3.3740

MULLIKEN ATOMIC CHARGES
-----------------------
   0 S :    0.121208
   1 C :   -0.093780
   2 C :   -0.095796
   3 C :    0.020260
   4 C :   -0.158290
   5 H :    0.016244
   6 C :    0.075563
   7 H :    0.023791
   8 H :    0.015798
   9 C :   -0.039426
  10 H :    0.022080
  11 H :    0.034332
  12 C :   -0.097345
  13 H :    0.046452
  14 H :    0.044254
  15 H :    0.022136
  16 S :    0.124954
  17 C :   -0.079272
  18 C :   -0.053233
  19 C :   -0.004035
  20 C :   -0.169406
  21 H :    0.028619
  22 C :   -0.006377
  23 H :    0.032273
  24 H :    0.042665
  25 C :   -0.083790
  26 H :    0.025132
  27 H :    0.053624
  28 C :   -0.031842
  29 H :    0.029224
  30 H :    0.027426
  31 H :    0.028626
  32 H :    0.030214
  33 H :    0.047716
Sum of atomic charges:   -0.0000000

LOEWDIN ATOMIC CHARGES
----------------------
   0 S :    0.417778
   1 C :   -0.195935
   2 C :   -0.057576
   3 C :   -0.071989
   4 C :   -0.200048
   5 H :    0.033152
   6 C :   -0.030622
   7 H :    0.030089
   8 H :    0.031591
   9 C :   -0.037736
  10 H :    0.017246
  11 H :    0.034306
  12 C :   -0.076770
  13 H :    0.023756
  14 H :    0.037654
  15 H :    0.016532
  16 S :    0.421789
  17 C :   -0.194298
  18 C :   -0.073138
  19 C :   -0.050904
  20 C :   -0.211865
  21 H :    0.035056
  22 C :   -0.046269
  23 H :    0.029305
  24 H :    0.046438
  25 C :   -0.048474
  26 H :    0.027883
  27 H :    0.032037
  28 C :   -0.053399
  29 H :    0.025705
  30 H :    0.023502
  31 H :    0.016255
  32 H :    0.019301
  33 H :    0.029651

  Mayer bond orders larger than 0.100000
B(  0-S ,  1-C ) :   1.1456 B(  0-S ,  4-C ) :   1.1589 B(  1-C ,  2-C ) :   1.5995
B(  1-C ,  4-C ) :   0.1002 B(  1-C , 32-H ) :   0.9733 B(  2-C ,  3-C ) :   1.2401
B(  2-C ,  6-C ) :   1.0027 B(  3-C ,  4-C ) :   1.5806 B(  3-C ,  5-H ) :   0.9905
B(  4-C , 20-C ) :   1.0116 B(  6-C ,  7-H ) :   0.9438 B(  6-C ,  8-H ) :   0.9413
B(  6-C ,  9-C ) :   1.0843 B(  9-C , 10-H ) :   0.9551 B(  9-C , 11-H ) :   0.9516
B(  9-C , 12-C ) :   1.0726 B( 12-C , 13-H ) :   0.9751 B( 12-C , 14-H ) :   0.9747
B( 12-C , 15-H ) :   0.9761 B( 16-S , 17-C ) :   1.1620 B( 16-S , 20-C ) :   1.1308
B( 17-C , 18-C ) :   1.6393 B( 17-C , 33-H ) :   0.9594 B( 18-C , 19-C ) :   1.2122
B( 18-C , 21-H ) :   0.9864 B( 19-C , 20-C ) :   1.6113 B( 19-C , 22-C ) :   1.0375
B( 22-C , 23-H ) :   0.9437 B( 22-C , 24-H ) :   0.9216 B( 22-C , 25-C ) :   1.0829
B( 25-C , 26-H ) :   0.9470 B( 25-C , 27-H ) :   0.9557 B( 25-C , 28-C ) :   1.0628
B( 28-C , 29-H ) :   0.9769 B( 28-C , 30-H ) :   0.9773 B( 28-C , 31-H ) :   0.9760

Dispersion correction           -0.013746116
FINAL SINGLE POINT ENERGY     -1339.859414875651

DIPOLE MOMENT
-------------
                                X             Y             Z
Electronic contribution:     11.90902     -21.77267      -2.79737
Nuclear contribution   :    -12.42202      22.14043       2.86636
                        -----------------------------------------
Total Dipole Moment    :     -0.51300       0.36776       0.06898
                        -----------------------------------------
Magnitude (a.u.)       :      0.63496
Magnitude (Debye)      :      1.61394

Rotational constants in cm-1:     0.018902     0.008071     0.006262
Rotational constants in MHz :   566.680006   241.957324   187.717179

                             ****ORCA TERMINATED NORMALLY****
TOTAL RUN TIME: 0 days 0 hours 0 minutes 28 seconds 994 msec
