                         Program Version 4.2.1 -  RELEASE  -
|  1> ! wB97X-D3 SP def2-SVP
|  2> %pal
|  3> nprocs 16
|  4> end
|  5>
|  6> * xyz 0 1
|  7> S 	 -40.774 	 27.5597 	 78.4735
|  8> C 	 -40.5596 	 28.7602 	 77.1718
|  9> C 	 -41.7171 	 29.5296 	 76.9389
| 10> C 	 -42.6956 	 29.2636 	 77.9802
| 11> C 	 -42.3657 	 28.3039 	 78.8953
| 12> H 	 -43.6554 	 29.7017 	 78.1378
| 13> C 	 -41.8542 	 30.5483 	 75.8514
| 14> H 	 -41.2871 	 30.3256 	 74.9121
| 15> H 	 -41.3419 	 31.4384 	 76.3286
| 16> C 	 -43.2734 	 30.9782 	 75.4077
| 17> H 	 -43.8975 	 30.1635 	 75.1223
| 18> H 	 -43.7462 	 31.4339 	 76.2262
| 19> C 	 -43.2305 	 32.0611 	 74.2827
| 20> H 	 -44.1742 	 32.1291 	 73.6857
| 21> H 	 -43.0895 	 33.0943 	 74.6894
| 22> H 	 -42.4542 	 31.7862 	 73.5533
| 23> S 	 -42.2771 	 27.5964 	 81.5482
| 24> C 	 -43.7069 	 27.6408 	 82.5036
| 25> C 	 -44.8032 	 27.6926 	 81.7162
| 26> C 	 -44.4864 	 27.9311 	 80.2962
| 27> C 	 -43.1648 	 27.8788 	 80.056
| 28> H 	 -45.8217 	 27.722 	 82.1543
| 29> C 	 -45.6106 	 28.1461 	 79.2963
| 30> H 	 -46.2594 	 27.2238 	 79.3528
| 31> H 	 -45.2114 	 28.1303 	 78.3079
| 32> C 	 -46.5552 	 29.3396 	 79.5864
| 33> H 	 -45.9671 	 30.0037 	 80.2175
| 34> H 	 -47.4652 	 29.0212 	 80.1875
| 35> C 	 -46.8495 	 30.0769 	 78.2685
| 36> H 	 -47.6702 	 30.7583 	 78.4964
| 37> H 	 -47.1969 	 29.3761 	 77.519
| 38> H 	 -45.8629 	 30.5585 	 77.8695
| 39> H 	 -39.6992 	 28.851 	 76.5071
| 40> H 	 -43.7225 	 27.8076 	 83.5945
| 41> *
| 42>
| 43>                          ****END OF INPUT****

CARTESIAN COORDINATES (ANGSTROEM)
---------------------------------
  S    -40.774000   27.559700   78.473500
  C    -40.559600   28.760200   77.171800
  C    -41.717100   29.529600   76.938900
  C    -42.695600   29.263600   77.980200
  C    -42.365700   28.303900   78.895300
  H    -43.655400   29.701700   78.137800
  C    -41.854200   30.548300   75.851400
  H    -41.287100   30.325600   74.912100
  H    -41.341900   31.438400   76.328600
  C    -43.273400   30.978200   75.407700
  H    -43.897500   30.163500   75.122300
  H    -43.746200   31.433900   76.226200
  C    -43.230500   32.061100   74.282700
  H    -44.174200   32.129100   73.685700
  H    -43.089500   33.094300   74.689400
  H    -42.454200   31.786200   73.553300
  S    -42.277100   27.596400   81.548200
  C    -43.706900   27.640800   82.503600
  C    -44.803200   27.692600   81.716200
  C    -44.486400   27.931100   80.296200
  C    -43.164800   27.878800   80.056000
  H    -45.821700   27.722000   82.154300
  C    -45.610600   28.146100   79.296300
  H    -46.259400   27.223800   79.352800
  H    -45.211400   28.130300   78.307900
  C    -46.555200   29.339600   79.586400
  H    -45.967100   30.003700   80.217500
  H    -47.465200   29.021200   80.187500
  C    -46.849500   30.076900   78.268500
  H    -47.670200   30.758300   78.496400
  H    -47.196900   29.376100   77.519000
  H    -45.862900   30.558500   77.869500
  H    -39.699200   28.851000   76.507100
  H    -43.722500   27.807600   83.594500

 Total Charge           Charge          ....    0
 Multiplicity           Mult            ....    1
 Number of Electrons    NEL             ....  134
 Basis Dimension        Dim             ....  322

ORBITAL ENERGIES
----------------

  NO   OCC          E(Eh)            E(eV)
   0   2.0000     -88.966347     -2420.8974
   1   2.0000     -88.959097     -2420.7001
   2   2.0000     -10.333651      -281.1929
   3   2.0000     -10.325038      -280.9586
   4   2.0000     -10.317346      -280.7493
   5   2.0000     -10.317048      -280.7411
   6   2.0000     -10.309192      -280.5274
   7   2.0000     -10.304168      -280.3907
   8   2.0000     -10.302714      -280.3511
   9   2.0000     -10.296388      -280.1789
  10   2.0000     -10.294544      -280.1288
  11   2.0000     -10.293637      -280.1041
  12   2.0000     -10.293011      -280.0871
  13   2.0000     -10.291556      -280.0475
  14   2.0000     -10.289521      -279.9921
  15   2.0000     -10.287073      -279.9255
  16   2.0000      -8.079455      -219.8531
  17   2.0000      -8.074984      -219.7315
  18   2.0000      -6.038149      -164.3064
  19   2.0000      -6.034369      -164.2035
  20   2.0000      -6.033664      -164.1843
  21   2.0000      -6.029946      -164.0832
  22   2.0000      -6.029389      -164.0680
  23   2.0000      -6.025401      -163.9595
  24   2.0000      -1.007067       -27.4037
  25   2.0000      -0.977903       -26.6101
  26   2.0000      -0.911150       -24.7936
  27   2.0000      -0.910019       -24.7629
  28   2.0000      -0.871143       -23.7050
  29   2.0000      -0.850771       -23.1507
  30   2.0000      -0.840782       -22.8788
  31   2.0000      -0.818209       -22.2646
  32   2.0000      -0.778540       -21.1851
  33   2.0000      -0.768936       -20.9238
  34   2.0000      -0.712754       -19.3950
  35   2.0000      -0.699246       -19.0274
  36   2.0000      -0.690909       -18.8006
  37   2.0000      -0.658503       -17.9188
  38   2.0000      -0.640194       -17.4206
  39   2.0000      -0.618050       -16.8180
  40   2.0000      -0.598533       -16.2869
  41   2.0000      -0.571977       -15.5643
  42   2.0000      -0.566268       -15.4089
  43   2.0000      -0.563904       -15.3446
  44   2.0000      -0.530321       -14.4308
  45   2.0000      -0.525637       -14.3033
  46   2.0000      -0.512276       -13.9397
  47   2.0000      -0.504048       -13.7158
  48   2.0000      -0.503763       -13.7081
  49   2.0000      -0.497333       -13.5331
  50   2.0000      -0.492762       -13.4087
  51   2.0000      -0.481171       -13.0933
  52   2.0000      -0.472885       -12.8678
  53   2.0000      -0.463223       -12.6049
  54   2.0000      -0.458924       -12.4880
  55   2.0000      -0.454033       -12.3549
  56   2.0000      -0.442476       -12.0404
  57   2.0000      -0.440091       -11.9755
  58   2.0000      -0.432411       -11.7665
  59   2.0000      -0.428710       -11.6658
  60   2.0000      -0.423862       -11.5339
  61   2.0000      -0.417283       -11.3548
  62   2.0000      -0.412038       -11.2121
  63   2.0000      -0.357154        -9.7187
  64   2.0000      -0.328397        -8.9361
  65   2.0000      -0.324681        -8.8350
  66   2.0000      -0.288458        -7.8494
  67   0.0000       0.030303         0.8246
  68   0.0000       0.072059         1.9608
  69   0.0000       0.101760         2.7690
  70   0.0000       0.112295         3.0557
  71   0.0000       0.130379         3.5478

MULLIKEN ATOMIC CHARGES
-----------------------
   0 S :    0.098877
   1 C :   -0.122749
   2 C :   -0.052865
   3 C :    0.022748
   4 C :   -0.118902
   5 H :   -0.034809
   6 C :   -0.001857
   7 H :    0.037618
   8 H :    0.057933
   9 C :   -0.053219
  10 H :    0.032502
  11 H :    0.024573
  12 C :   -0.080870
  13 H :    0.039089
  14 H :    0.045705
  15 H :    0.033246
  16 S :    0.087162
  17 C :   -0.096579
  18 C :   -0.030354
  19 C :   -0.094478
  20 C :   -0.108227
  21 H :    0.030290
  22 C :    0.046668
  23 H :    0.043749
  24 H :    0.018275
  25 C :   -0.093661
  26 H :    0.038535
  27 H :    0.047546
  28 C :   -0.084070
  29 H :    0.042362
  30 H :    0.038119
  31 H :    0.062641
  32 H :    0.048608
  33 H :    0.076391
Sum of atomic charges:    0.0000000

LOEWDIN ATOMIC CHARGES
----------------------
   0 S :    0.362110
   1 C :   -0.192487
   2 C :   -0.057399
   3 C :   -0.068263
   4 C :   -0.164183
   5 H :    0.021789
   6 C :   -0.041744
   7 H :    0.033869
   8 H :    0.048175
   9 C :   -0.037833
  10 H :    0.021817
  11 H :    0.016631
  12 C :   -0.069657
  13 H :    0.031199
  14 H :    0.030959
  15 H :    0.023953
  16 S :    0.398548
  17 C :   -0.189443
  18 C :   -0.076852
  19 C :   -0.057111
  20 C :   -0.195374
  21 H :    0.035599
  22 C :   -0.037489
  23 H :    0.043422
  24 H :    0.021931
  25 C :   -0.047611
  26 H :    0.022842
  27 H :    0.031041
  28 C :   -0.067104
  29 H :    0.027842
  30 H :    0.022304
  31 H :    0.037439
  32 H :    0.029576
  33 H :    0.041505

  Mayer bond orders larger than 0.100000
B(  0-S ,  1-C ) :   1.1190 B(  0-S ,  4-C ) :   1.1171 B(  1-C ,  2-C ) :   1.6365
B(  1-C , 32-H ) :   0.9673 B(  2-C ,  3-C ) :   1.1928 B(  2-C ,  6-C ) :   1.0217
B(  3-C ,  4-C ) :   1.6387 B(  3-C ,  5-H ) :   0.9876 B(  4-C , 20-C ) :   1.0220
B(  6-C ,  7-H ) :   0.9461 B(  6-C ,  8-H ) :   0.9360 B(  6-C ,  9-C ) :   1.0672
B(  9-C , 10-H ) :   0.9636 B(  9-C , 11-H ) :   0.9443 B(  9-C , 12-C ) :   1.0789
B( 12-C , 13-H ) :   0.9755 B( 12-C , 14-H ) :   0.9781 B( 12-C , 15-H ) :   0.9768
B( 16-S , 17-C ) :   1.1503 B( 16-S , 20-C ) :   1.1068 B( 17-C , 18-C ) :   1.6483
B( 17-C , 33-H ) :   0.9615 B( 18-C , 19-C ) :   1.1886 B( 18-C , 21-H ) :   0.9853
B( 19-C , 20-C ) :   1.6710 B( 19-C , 22-C ) :   1.0491 B( 22-C , 23-H ) :   0.9286
B( 22-C , 24-H ) :   0.9479 B( 22-C , 25-C ) :   1.0258 B( 25-C , 26-H ) :   0.9689
B( 25-C , 27-H ) :   0.9526 B( 25-C , 28-C ) :   1.0774 B( 28-C , 29-H ) :   0.9722
B( 28-C , 30-H ) :   0.9749 B( 28-C , 31-H ) :   0.9701

Dispersion correction           -0.014468401
FINAL SINGLE POINT ENERGY     -1339.872703744496

DIPOLE MOMENT
-------------
                                X             Y             Z
Electronic contribution:     19.88363     -19.15884      19.77896
Nuclear contribution   :    -20.62223      19.72816     -20.04071
                        -----------------------------------------
Total Dipole Moment    :     -0.73860       0.56933      -0.26174
                        -----------------------------------------
Magnitude (a.u.)       :      0.96859
Magnitude (Debye)      :      2.46196

Rotational constants in cm-1:     0.017172     0.009635     0.006459
Rotational constants in MHz :   514.788627   288.848654   193.648077

                             ****ORCA TERMINATED NORMALLY****
TOTAL RUN TIME: 0 days 0 hours 0 minutes 30 seconds 997 msec
