                         Program Version 4.2.1 -  RELEASE  -
|  1> ! wB97X-D3 SP def2-SVP
|  2> %pal
|  3> nprocs 16
|  4> end
|  5>
|  6> * xyz 0 1
|  7> S 	 -39.9011 	 50.2249 	 104.286
|  8> C 	 -40.0582 	 50.1152 	 102.551
|  9> C 	 -41.3876 	 49.9961 	 102.163
| 10> C 	 -42.2797 	 50.0775 	 103.285
| 11> C 	 -41.6104 	 50.2679 	 104.471
| 12> H 	 -43.3713 	 50.0158 	 103.222
| 13> C 	 -41.7562 	 49.7718 	 100.76
| 14> H 	 -41.0451 	 50.3563 	 100.077
| 15> H 	 -42.6731 	 50.2693 	 100.759
| 16> C 	 -41.9406 	 48.2942 	 100.337
| 17> H 	 -42.2756 	 47.5856 	 101.163
| 18> H 	 -42.6571 	 48.317 	 99.4975
| 19> C 	 -40.6784 	 47.7225 	 99.8522
| 20> H 	 -40.7907 	 46.764 	 99.3988
| 21> H 	 -40.2721 	 48.378 	 99.0962
| 22> H 	 -40.0021 	 47.5123 	 100.687
| 23> S 	 -42.9393 	 49.1524 	 106.569
| 24> C 	 -43.3191 	 50.0981 	 108.01
| 25> C 	 -42.8468 	 51.3771 	 107.863
| 26> C 	 -42.3108 	 51.6547 	 106.557
| 27> C 	 -42.2403 	 50.4996 	 105.757
| 28> H 	 -43.0849 	 51.9794 	 108.735
| 29> C 	 -41.6743 	 53.0156 	 106.119
| 30> H 	 -40.9259 	 52.8613 	 105.342
| 31> H 	 -41.1305 	 53.5526 	 106.922
| 32> C 	 -42.5821 	 54.0062 	 105.496
| 33> H 	 -43.1056 	 53.412 	 104.775
| 34> H 	 -41.8212 	 54.7137 	 105.034
| 35> C 	 -43.5728 	 54.8487 	 106.338
| 36> H 	 -44.0211 	 55.6547 	 105.824
| 37> H 	 -43.1347 	 55.3224 	 107.209
| 38> H 	 -44.3988 	 54.1529 	 106.554
| 39> H 	 -39.2957 	 49.9653 	 101.823
| 40> H 	 -43.8562 	 49.8284 	 108.926
| 41> *
| 42>
| 43>                          ****END OF INPUT****

CARTESIAN COORDINATES (ANGSTROEM)
---------------------------------
  S    -39.901100   50.224900  104.286000
  C    -40.058200   50.115200  102.551000
  C    -41.387600   49.996100  102.163000
  C    -42.279700   50.077500  103.285000
  C    -41.610400   50.267900  104.471000
  H    -43.371300   50.015800  103.222000
  C    -41.756200   49.771800  100.760000
  H    -41.045100   50.356300  100.077000
  H    -42.673100   50.269300  100.759000
  C    -41.940600   48.294200  100.337000
  H    -42.275600   47.585600  101.163000
  H    -42.657100   48.317000   99.497500
  C    -40.678400   47.722500   99.852200
  H    -40.790700   46.764000   99.398800
  H    -40.272100   48.378000   99.096200
  H    -40.002100   47.512300  100.687000
  S    -42.939300   49.152400  106.569000
  C    -43.319100   50.098100  108.010000
  C    -42.846800   51.377100  107.863000
  C    -42.310800   51.654700  106.557000
  C    -42.240300   50.499600  105.757000
  H    -43.084900   51.979400  108.735000
  C    -41.674300   53.015600  106.119000
  H    -40.925900   52.861300  105.342000
  H    -41.130500   53.552600  106.922000
  C    -42.582100   54.006200  105.496000
  H    -43.105600   53.412000  104.775000
  H    -41.821200   54.713700  105.034000
  C    -43.572800   54.848700  106.338000
  H    -44.021100   55.654700  105.824000
  H    -43.134700   55.322400  107.209000
  H    -44.398800   54.152900  106.554000
  H    -39.295700   49.965300  101.823000
  H    -43.856200   49.828400  108.926000

 Total Charge           Charge          ....    0
 Multiplicity           Mult            ....    1
 Number of Electrons    NEL             ....  134
 Basis Dimension        Dim             ....  322

ORBITAL ENERGIES
----------------

  NO   OCC          E(Eh)            E(eV)
   0   2.0000     -88.969545     -2420.9844
   1   2.0000     -88.965149     -2420.8648
   2   2.0000     -10.326694      -281.0036
   3   2.0000     -10.325341      -280.9668
   4   2.0000     -10.316106      -280.7155
   5   2.0000     -10.309171      -280.5268
   6   2.0000     -10.308484      -280.5081
   7   2.0000     -10.297341      -280.2049
   8   2.0000     -10.296786      -280.1898
   9   2.0000     -10.293375      -280.0970
  10   2.0000     -10.290505      -280.0189
  11   2.0000     -10.289693      -279.9968
  12   2.0000     -10.286556      -279.9114
  13   2.0000     -10.279529      -279.7202
  14   2.0000     -10.270703      -279.4800
  15   2.0000     -10.269598      -279.4500
  16   2.0000      -8.084289      -219.9847
  17   2.0000      -8.079980      -219.8674
  18   2.0000      -6.042733      -164.4311
  19   2.0000      -6.038766      -164.3232
  20   2.0000      -6.038525      -164.3166
  21   2.0000      -6.035137      -164.2244
  22   2.0000      -6.034304      -164.2018
  23   2.0000      -6.030855      -164.1079
  24   2.0000      -1.010205       -27.4891
  25   2.0000      -0.985629       -26.8203
  26   2.0000      -0.922280       -25.0965
  27   2.0000      -0.907113       -24.6838
  28   2.0000      -0.874300       -23.7909
  29   2.0000      -0.857018       -23.3207
  30   2.0000      -0.839074       -22.8324
  31   2.0000      -0.819222       -22.2922
  32   2.0000      -0.787615       -21.4321
  33   2.0000      -0.776280       -21.1236
  34   2.0000      -0.710359       -19.3299
  35   2.0000      -0.694163       -18.8891
  36   2.0000      -0.677064       -18.4239
  37   2.0000      -0.654197       -17.8016
  38   2.0000      -0.639345       -17.3975
  39   2.0000      -0.621249       -16.9050
  40   2.0000      -0.595568       -16.2062
  41   2.0000      -0.580036       -15.7836
  42   2.0000      -0.556241       -15.1361
  43   2.0000      -0.550616       -14.9830
  44   2.0000      -0.547299       -14.8928
  45   2.0000      -0.537065       -14.6143
  46   2.0000      -0.520131       -14.1535
  47   2.0000      -0.508944       -13.8491
  48   2.0000      -0.502302       -13.6683
  49   2.0000      -0.501364       -13.6428
  50   2.0000      -0.486478       -13.2378
  51   2.0000      -0.481144       -13.0926
  52   2.0000      -0.476247       -12.9594
  53   2.0000      -0.466429       -12.6922
  54   2.0000      -0.457808       -12.4576
  55   2.0000      -0.449535       -12.2325
  56   2.0000      -0.441982       -12.0270
  57   2.0000      -0.435762       -11.8577
  58   2.0000      -0.431336       -11.7373
  59   2.0000      -0.429664       -11.6918
  60   2.0000      -0.415604       -11.3092
  61   2.0000      -0.411203       -11.1894
  62   2.0000      -0.395147       -10.7525
  63   2.0000      -0.336888        -9.1672
  64   2.0000      -0.335413        -9.1270
  65   2.0000      -0.321801        -8.7567
  66   2.0000      -0.306105        -8.3295
  67   0.0000       0.040357         1.0982
  68   0.0000       0.061065         1.6617
  69   0.0000       0.117813         3.2059
  70   0.0000       0.120382         3.2758
  71   0.0000       0.128846         3.5061

MULLIKEN ATOMIC CHARGES
-----------------------
   0 S :    0.136838
   1 C :   -0.101127
   2 C :   -0.128774
   3 C :    0.043818
   4 C :   -0.164999
   5 H :    0.020149
   6 C :    0.067933
   7 H :    0.041063
   8 H :    0.005697
   9 C :   -0.065910
  10 H :    0.047588
  11 H :    0.032049
  12 C :   -0.033427
  13 H :    0.022483
  14 H :    0.018599
  15 H :    0.032934
  16 S :    0.118560
  17 C :   -0.112595
  18 C :   -0.046447
  19 C :   -0.000859
  20 C :   -0.184054
  21 H :    0.024066
  22 C :    0.078614
  23 H :    0.021588
  24 H :    0.020182
  25 C :   -0.097508
  26 H :    0.019425
  27 H :    0.032395
  28 C :   -0.020213
  29 H :    0.022331
  30 H :    0.023789
  31 H :    0.033028
  32 H :    0.032554
  33 H :    0.060228
Sum of atomic charges:    0.0000000

LOEWDIN ATOMIC CHARGES
----------------------
   0 S :    0.431307
   1 C :   -0.200969
   2 C :   -0.063078
   3 C :   -0.058817
   4 C :   -0.210237
   5 H :    0.035962
   6 C :   -0.036332
   7 H :    0.042187
   8 H :    0.024048
   9 C :   -0.040807
  10 H :    0.037607
  11 H :    0.025852
  12 C :   -0.066864
  13 H :    0.022678
  14 H :    0.020139
  15 H :    0.027172
  16 S :    0.416478
  17 C :   -0.192051
  18 C :   -0.075516
  19 C :   -0.056118
  20 C :   -0.213076
  21 H :    0.035990
  22 C :   -0.034706
  23 H :    0.028715
  24 H :    0.028940
  25 C :   -0.043576
  26 H :    0.020466
  27 H :    0.029965
  28 C :   -0.068293
  29 H :    0.021296
  30 H :    0.022529
  31 H :    0.029855
  32 H :    0.022010
  33 H :    0.037246

  Mayer bond orders larger than 0.100000
B(  0-S ,  1-C ) :   1.1339 B(  0-S ,  4-C ) :   1.1652 B(  1-C ,  2-C ) :   1.6094
B(  1-C , 32-H ) :   0.9663 B(  2-C ,  3-C ) :   1.2480 B(  2-C ,  6-C ) :   1.0247
B(  3-C ,  4-C ) :   1.5701 B(  3-C ,  5-H ) :   0.9925 B(  4-C , 20-C ) :   1.0034
B(  6-C ,  7-H ) :   0.9421 B(  6-C ,  8-H ) :   0.9246 B(  6-C ,  9-C ) :   1.0494
B(  9-C , 10-H ) :   0.9546 B(  9-C , 11-H ) :   0.9533 B(  9-C , 12-C ) :   1.0966
B( 12-C , 13-H ) :   0.9669 B( 12-C , 14-H ) :   0.9730 B( 12-C , 15-H ) :   0.9702
B( 16-S , 17-C ) :   1.1430 B( 16-S , 20-C ) :   1.1646 B( 17-C , 18-C ) :   1.6383
B( 17-C , 20-C ) :   0.1010 B( 17-C , 33-H ) :   0.9634 B( 18-C , 19-C ) :   1.2217
B( 18-C , 21-H ) :   0.9899 B( 19-C , 20-C ) :   1.5824 B( 19-C , 22-C ) :   1.0306
B( 22-C , 23-H ) :   0.9304 B( 22-C , 24-H ) :   0.9403 B( 22-C , 25-C ) :   1.0754
B( 25-C , 26-H ) :   0.9542 B( 25-C , 27-H ) :   0.9573 B( 25-C , 28-C ) :   1.0804
B( 28-C , 29-H ) :   0.9734 B( 28-C , 30-H ) :   0.9737 B( 28-C , 31-H ) :   0.9744

Dispersion correction           -0.014544973
FINAL SINGLE POINT ENERGY     -1339.866791969153

DIPOLE MOMENT
-------------
                                X             Y             Z
Electronic contribution:      3.76685      -9.70082      14.84800
Nuclear contribution   :     -3.94482       9.84563     -15.16126
                        -----------------------------------------
Total Dipole Moment    :     -0.17798       0.14481      -0.31326
                        -----------------------------------------
Magnitude (a.u.)       :      0.38831
Magnitude (Debye)      :      0.98699

Rotational constants in cm-1:     0.022572     0.007598     0.006676
Rotational constants in MHz :   676.677379   227.787710   200.129340

                             ****ORCA TERMINATED NORMALLY****
TOTAL RUN TIME: 0 days 0 hours 0 minutes 30 seconds 285 msec
