                         Program Version 4.2.1 -  RELEASE  -
|  1> ! wB97X-D3 SP def2-SVP
|  2> %pal
|  3> nprocs 16
|  4> end
|  5>
|  6> * xyz 0 1
|  7> S 	 11.2023 	 -13.676 	 94.6415
|  8> C 	 12.3575 	 -12.3319 	 94.8777
|  9> C 	 11.8313 	 -11.1492 	 94.4574
| 10> C 	 10.6313 	 -11.3186 	 93.7409
| 11> C 	 10.1653 	 -12.6172 	 93.6429
| 12> H 	 10.024 	 -10.5471 	 93.2579
| 13> C 	 12.4058 	 -9.8123 	 94.8634
| 14> H 	 12.6506 	 -9.78989 	 96.0314
| 15> H 	 11.6067 	 -9.07839 	 94.7547
| 16> C 	 13.5931 	 -9.28931 	 94.0367
| 17> H 	 13.764 	 -8.21656 	 94.2489
| 18> H 	 14.5351 	 -9.62467 	 94.4674
| 19> C 	 13.4196 	 -9.60973 	 92.5089
| 20> H 	 14.0818 	 -9.06586 	 91.874
| 21> H 	 13.5863 	 -10.6782 	 92.3355
| 22> H 	 12.4106 	 -9.37476 	 92.1235
| 23> S 	 7.55585 	 -13.3695 	 93.9917
| 24> C 	 6.63496 	 -13.9668 	 92.6344
| 25> C 	 7.27974 	 -13.7857 	 91.4119
| 26> C 	 8.64082 	 -13.2989 	 91.5859
| 27> C 	 8.96029 	 -13.0723 	 92.9598
| 28> H 	 6.66348 	 -14.0503 	 90.5493
| 29> C 	 9.50282 	 -12.8149 	 90.4996
| 30> H 	 9.24004 	 -13.4893 	 89.7358
| 31> H 	 10.5735 	 -12.8646 	 90.6588
| 32> C 	 9.04923 	 -11.3983 	 90.1494
| 33> H 	 9.34866 	 -10.7925 	 91.0272
| 34> H 	 8.00298 	 -11.3431 	 89.9437
| 35> C 	 9.86594 	 -10.9098 	 88.898
| 36> H 	 10.9051 	 -10.9477 	 89.0374
| 37> H 	 9.57547 	 -9.83307 	 88.8469
| 38> H 	 9.63762 	 -11.419 	 87.9943
| 39> H 	 13.3158 	 -12.3271 	 95.4648
| 40> H 	 5.63427 	 -14.3022 	 92.7098
| 41> *
| 42>
| 43>                          ****END OF INPUT****

CARTESIAN COORDINATES (ANGSTROEM)
---------------------------------
  S     11.202300  -13.676000   94.641500
  C     12.357500  -12.331900   94.877700
  C     11.831300  -11.149200   94.457400
  C     10.631300  -11.318600   93.740900
  C     10.165300  -12.617200   93.642900
  H     10.024000  -10.547100   93.257900
  C     12.405800   -9.812300   94.863400
  H     12.650600   -9.789890   96.031400
  H     11.606700   -9.078390   94.754700
  C     13.593100   -9.289310   94.036700
  H     13.764000   -8.216560   94.248900
  H     14.535100   -9.624670   94.467400
  C     13.419600   -9.609730   92.508900
  H     14.081800   -9.065860   91.874000
  H     13.586300  -10.678200   92.335500
  H     12.410600   -9.374760   92.123500
  S      7.555850  -13.369500   93.991700
  C      6.634960  -13.966800   92.634400
  C      7.279740  -13.785700   91.411900
  C      8.640820  -13.298900   91.585900
  C      8.960290  -13.072300   92.959800
  H      6.663480  -14.050300   90.549300
  C      9.502820  -12.814900   90.499600
  H      9.240040  -13.489300   89.735800
  H     10.573500  -12.864600   90.658800
  C      9.049230  -11.398300   90.149400
  H      9.348660  -10.792500   91.027200
  H      8.002980  -11.343100   89.943700
  C      9.865940  -10.909800   88.898000
  H     10.905100  -10.947700   89.037400
  H      9.575470   -9.833070   88.846900
  H      9.637620  -11.419000   87.994300
  H     13.315800  -12.327100   95.464800
  H      5.634270  -14.302200   92.709800

 Total Charge           Charge          ....    0
 Multiplicity           Mult            ....    1
 Number of Electrons    NEL             ....  134
 Basis Dimension        Dim             ....  322

ORBITAL ENERGIES
----------------

  NO   OCC          E(Eh)            E(eV)
   0   2.0000     -88.966223     -2420.8940
   1   2.0000     -88.963124     -2420.8097
   2   2.0000     -10.330898      -281.1180
   3   2.0000     -10.326038      -280.9858
   4   2.0000     -10.317789      -280.7613
   5   2.0000     -10.315500      -280.6990
   6   2.0000     -10.309937      -280.5476
   7   2.0000     -10.302217      -280.3376
   8   2.0000     -10.299834      -280.2727
   9   2.0000     -10.296694      -280.1873
  10   2.0000     -10.295104      -280.1440
  11   2.0000     -10.292305      -280.0679
  12   2.0000     -10.287971      -279.9499
  13   2.0000     -10.280494      -279.7465
  14   2.0000     -10.280071      -279.7350
  15   2.0000     -10.273847      -279.5656
  16   2.0000      -8.079709      -219.8601
  17   2.0000      -8.077709      -219.8056
  18   2.0000      -6.038324      -164.3111
  19   2.0000      -6.036163      -164.2523
  20   2.0000      -6.034474      -164.2064
  21   2.0000      -6.032201      -164.1445
  22   2.0000      -6.030310      -164.0931
  23   2.0000      -6.028588      -164.0462
  24   2.0000      -1.000234       -27.2178
  25   2.0000      -0.979560       -26.6552
  26   2.0000      -0.915645       -24.9160
  27   2.0000      -0.906925       -24.6787
  28   2.0000      -0.865112       -23.5409
  29   2.0000      -0.846200       -23.0263
  30   2.0000      -0.840442       -22.8696
  31   2.0000      -0.813330       -22.1318
  32   2.0000      -0.782487       -21.2926
  33   2.0000      -0.769065       -20.9273
  34   2.0000      -0.707696       -19.2574
  35   2.0000      -0.706343       -19.2206
  36   2.0000      -0.697381       -18.9767
  37   2.0000      -0.658522       -17.9193
  38   2.0000      -0.634453       -17.2644
  39   2.0000      -0.612800       -16.6751
  40   2.0000      -0.593898       -16.1608
  41   2.0000      -0.570861       -15.5339
  42   2.0000      -0.567708       -15.4481
  43   2.0000      -0.548242       -14.9184
  44   2.0000      -0.537692       -14.6314
  45   2.0000      -0.525691       -14.3048
  46   2.0000      -0.515188       -14.0190
  47   2.0000      -0.505418       -13.7531
  48   2.0000      -0.500997       -13.6328
  49   2.0000      -0.498162       -13.5557
  50   2.0000      -0.490384       -13.3440
  51   2.0000      -0.475962       -12.9516
  52   2.0000      -0.468002       -12.7350
  53   2.0000      -0.463863       -12.6224
  54   2.0000      -0.459949       -12.5158
  55   2.0000      -0.449028       -12.2187
  56   2.0000      -0.442775       -12.0485
  57   2.0000      -0.439198       -11.9512
  58   2.0000      -0.435934       -11.8624
  59   2.0000      -0.430701       -11.7200
  60   2.0000      -0.428675       -11.6648
  61   2.0000      -0.408971       -11.1287
  62   2.0000      -0.406607       -11.0643
  63   2.0000      -0.335571        -9.1314
  64   2.0000      -0.327703        -8.9173
  65   2.0000      -0.320933        -8.7330
  66   2.0000      -0.301583        -8.2065
  67   0.0000       0.036208         0.9853
  68   0.0000       0.051752         1.4082
  69   0.0000       0.106493         2.8978
  70   0.0000       0.113411         3.0861
  71   0.0000       0.123102         3.3498

MULLIKEN ATOMIC CHARGES
-----------------------
   0 S :    0.114666
   1 C :   -0.132022
   2 C :   -0.075214
   3 C :    0.032998
   4 C :   -0.158015
   5 H :    0.021684
   6 C :    0.017926
   7 H :    0.055850
   8 H :    0.024043
   9 C :   -0.061387
  10 H :    0.025458
  11 H :    0.017832
  12 C :   -0.040036
  13 H :    0.028217
  14 H :    0.048491
  15 H :    0.024744
  16 S :    0.109636
  17 C :   -0.086957
  18 C :   -0.060626
  19 C :   -0.006876
  20 C :   -0.210271
  21 H :    0.029611
  22 C :    0.091702
  23 H :    0.005179
  24 H :    0.035848
  25 C :   -0.086818
  26 H :    0.026622
  27 H :    0.031466
  28 C :   -0.014895
  29 H :    0.020111
  30 H :    0.033956
  31 H :    0.028914
  32 H :    0.063304
  33 H :    0.044857
Sum of atomic charges:    0.0000000

LOEWDIN ATOMIC CHARGES
----------------------
   0 S :    0.379837
   1 C :   -0.185053
   2 C :   -0.078281
   3 C :   -0.059320
   4 C :   -0.191711
   5 H :    0.031866
   6 C :   -0.038784
   7 H :    0.045526
   8 H :    0.028349
   9 C :   -0.046295
  10 H :    0.026210
  11 H :    0.020039
  12 C :   -0.064574
  13 H :    0.021130
  14 H :    0.031543
  15 H :    0.025688
  16 S :    0.402435
  17 C :   -0.178410
  18 C :   -0.079236
  19 C :   -0.037539
  20 C :   -0.209685
  21 H :    0.037800
  22 C :   -0.034617
  23 H :    0.023836
  24 H :    0.034052
  25 C :   -0.023730
  26 H :    0.025939
  27 H :    0.022217
  28 C :   -0.059266
  29 H :    0.016614
  30 H :    0.031782
  31 H :    0.019433
  32 H :    0.041552
  33 H :    0.020653

  Mayer bond orders larger than 0.100000
B(  0-S ,  1-C ) :   1.1350 B(  0-S ,  4-C ) :   1.1273 B(  1-C ,  2-C ) :   1.6281
B(  1-C , 32-H ) :   0.9587 B(  2-C ,  3-C ) :   1.2302 B(  2-C ,  6-C ) :   1.0136
B(  3-C ,  4-C ) :   1.5996 B(  3-C ,  5-H ) :   0.9828 B(  4-C , 20-C ) :   1.0436
B(  6-C ,  7-H ) :   0.9490 B(  6-C ,  8-H ) :   0.9407 B(  6-C ,  9-C ) :   1.0613
B(  9-C , 10-H ) :   0.9583 B(  9-C , 11-H ) :   0.9569 B(  9-C , 12-C ) :   1.0651
B( 12-C , 13-H ) :   0.9757 B( 12-C , 14-H ) :   0.9676 B( 12-C , 15-H ) :   0.9783
B( 16-S , 17-C ) :   1.1653 B( 16-S , 20-C ) :   1.1464 B( 17-C , 18-C ) :   1.6200
B( 17-C , 20-C ) :   0.1023 B( 17-C , 33-H ) :   0.9688 B( 18-C , 19-C ) :   1.2125
B( 18-C , 21-H ) :   0.9897 B( 19-C , 20-C ) :   1.5704 B( 19-C , 22-C ) :   1.0665
B( 22-C , 23-H ) :   0.9180 B( 22-C , 24-H ) :   0.9307 B( 22-C , 25-C ) :   1.0709
B( 25-C , 26-H ) :   0.9515 B( 25-C , 27-H ) :   0.9569 B( 25-C , 28-C ) :   1.0780
B( 28-C , 29-H ) :   0.9738 B( 28-C , 30-H ) :   0.9746 B( 28-C , 31-H ) :   0.9778

Dispersion correction           -0.015325866
FINAL SINGLE POINT ENERGY     -1339.865706286196

DIPOLE MOMENT
-------------
                                X             Y             Z
Electronic contribution:    -12.67199     -19.88309      17.19588
Nuclear contribution   :     12.75074      20.42139     -17.60683
                        -----------------------------------------
Total Dipole Moment    :      0.07874       0.53830      -0.41095
                        -----------------------------------------
Magnitude (a.u.)       :      0.68180
Magnitude (Debye)      :      1.73299

Rotational constants in cm-1:     0.018184     0.009749     0.007108
Rotational constants in MHz :   545.151689   292.255924   213.104570

                             ****ORCA TERMINATED NORMALLY****
TOTAL RUN TIME: 0 days 0 hours 0 minutes 35 seconds 317 msec
