                         Program Version 4.2.1 -  RELEASE  -
|  1> ! wB97X-D3 SP def2-SVP
|  2> %pal
|  3> nprocs 16
|  4> end
|  5>
|  6> * xyz 0 1
|  7> S 	 -90.0667 	 46.7887 	 129.728
|  8> C 	 -90.9568 	 48.2958 	 129.636
|  9> C 	 -90.1299 	 49.3756 	 129.504
| 10> C 	 -88.7438 	 49.0331 	 129.466
| 11> C 	 -88.5529 	 47.6918 	 129.631
| 12> H 	 -87.9635 	 49.6766 	 129.226
| 13> C 	 -90.5195 	 50.8812 	 129.366
| 14> H 	 -91.5293 	 50.8991 	 128.825
| 15> H 	 -89.7579 	 51.2395 	 128.7
| 16> C 	 -90.3856 	 51.813 	 130.602
| 17> H 	 -90.9009 	 51.377 	 131.402
| 18> H 	 -89.3862 	 51.684 	 131.055
| 19> C 	 -90.7972 	 53.2867 	 130.437
| 20> H 	 -91.834 	 53.383 	 130.149
| 21> H 	 -90.7291 	 53.8995 	 131.32
| 22> H 	 -90.2195 	 53.8378 	 129.749
| 23> S 	 -87.4757 	 45.2717 	 129.087
| 24> C 	 -85.8034 	 45.1068 	 129.062
| 25> C 	 -85.1058 	 46.1956 	 129.494
| 26> C 	 -86.0208 	 47.2661 	 129.859
| 27> C 	 -87.3144 	 46.9562 	 129.581
| 28> H 	 -84.0317 	 46.1077 	 129.568
| 29> C 	 -85.4185 	 48.548 	 130.395
| 30> H 	 -85.8524 	 49.4336 	 129.993
| 31> H 	 -84.4006 	 48.6198 	 130.1
| 32> C 	 -85.3729 	 48.6162 	 131.908
| 33> H 	 -85.1213 	 49.6283 	 132.204
| 34> H 	 -84.5677 	 47.9225 	 132.195
| 35> C 	 -86.7048 	 48.3699 	 132.589
| 36> H 	 -87.3999 	 49.1317 	 132.242
| 37> H 	 -86.6441 	 48.3976 	 133.678
| 38> H 	 -86.9786 	 47.3324 	 132.323
| 39> H 	 -92.0914 	 48.3848 	 129.608
| 40> H 	 -85.2699 	 44.1393 	 128.834
| 41> *
| 42>
| 43>                          ****END OF INPUT****

CARTESIAN COORDINATES (ANGSTROEM)
---------------------------------
  S    -90.066700   46.788700  129.728000
  C    -90.956800   48.295800  129.636000
  C    -90.129900   49.375600  129.504000
  C    -88.743800   49.033100  129.466000
  C    -88.552900   47.691800  129.631000
  H    -87.963500   49.676600  129.226000
  C    -90.519500   50.881200  129.366000
  H    -91.529300   50.899100  128.825000
  H    -89.757900   51.239500  128.700000
  C    -90.385600   51.813000  130.602000
  H    -90.900900   51.377000  131.402000
  H    -89.386200   51.684000  131.055000
  C    -90.797200   53.286700  130.437000
  H    -91.834000   53.383000  130.149000
  H    -90.729100   53.899500  131.320000
  H    -90.219500   53.837800  129.749000
  S    -87.475700   45.271700  129.087000
  C    -85.803400   45.106800  129.062000
  C    -85.105800   46.195600  129.494000
  C    -86.020800   47.266100  129.859000
  C    -87.314400   46.956200  129.581000
  H    -84.031700   46.107700  129.568000
  C    -85.418500   48.548000  130.395000
  H    -85.852400   49.433600  129.993000
  H    -84.400600   48.619800  130.100000
  C    -85.372900   48.616200  131.908000
  H    -85.121300   49.628300  132.204000
  H    -84.567700   47.922500  132.195000
  C    -86.704800   48.369900  132.589000
  H    -87.399900   49.131700  132.242000
  H    -86.644100   48.397600  133.678000
  H    -86.978600   47.332400  132.323000
  H    -92.091400   48.384800  129.608000
  H    -85.269900   44.139300  128.834000

 Total Charge           Charge          ....    0
 Multiplicity           Mult            ....    1
 Number of Electrons    NEL             ....  134
 Basis Dimension        Dim             ....  322

ORBITAL ENERGIES
----------------

  NO   OCC          E(Eh)            E(eV)
   0   2.0000     -88.966870     -2420.9116
   1   2.0000     -88.963796     -2420.8280
   2   2.0000     -10.328386      -281.0497
   3   2.0000     -10.323356      -280.9128
   4   2.0000     -10.316959      -280.7387
   5   2.0000     -10.313446      -280.6431
   6   2.0000     -10.304268      -280.3934
   7   2.0000     -10.301200      -280.3099
   8   2.0000     -10.299753      -280.2705
   9   2.0000     -10.291922      -280.0574
  10   2.0000     -10.287126      -279.9269
  11   2.0000     -10.286744      -279.9165
  12   2.0000     -10.283754      -279.8352
  13   2.0000     -10.279431      -279.7175
  14   2.0000     -10.275735      -279.6170
  15   2.0000     -10.268522      -279.4207
  16   2.0000      -8.081516      -219.9092
  17   2.0000      -8.080176      -219.8728
  18   2.0000      -6.040190      -164.3619
  19   2.0000      -6.038631      -164.3195
  20   2.0000      -6.036228      -164.2541
  21   2.0000      -6.034605      -164.2099
  22   2.0000      -6.031917      -164.1368
  23   2.0000      -6.030744      -164.1049
  24   2.0000      -1.014690       -27.6111
  25   2.0000      -0.987905       -26.8823
  26   2.0000      -0.917020       -24.9534
  27   2.0000      -0.904816       -24.6213
  28   2.0000      -0.871983       -23.7279
  29   2.0000      -0.855604       -23.2822
  30   2.0000      -0.845588       -23.0096
  31   2.0000      -0.814416       -22.1614
  32   2.0000      -0.788107       -21.4455
  33   2.0000      -0.777814       -21.1654
  34   2.0000      -0.712031       -19.3754
  35   2.0000      -0.702890       -19.1266
  36   2.0000      -0.684521       -18.6268
  37   2.0000      -0.664841       -18.0912
  38   2.0000      -0.635688       -17.2979
  39   2.0000      -0.623220       -16.9587
  40   2.0000      -0.599728       -16.3194
  41   2.0000      -0.564802       -15.3690
  42   2.0000      -0.560080       -15.2406
  43   2.0000      -0.550830       -14.9888
  44   2.0000      -0.546663       -14.8755
  45   2.0000      -0.521809       -14.1991
  46   2.0000      -0.517100       -14.0710
  47   2.0000      -0.510516       -13.8918
  48   2.0000      -0.504302       -13.7228
  49   2.0000      -0.498286       -13.5591
  50   2.0000      -0.492757       -13.4086
  51   2.0000      -0.480320       -13.0702
  52   2.0000      -0.473626       -12.8880
  53   2.0000      -0.467508       -12.7215
  54   2.0000      -0.465876       -12.6771
  55   2.0000      -0.455701       -12.4003
  56   2.0000      -0.438983       -11.9453
  57   2.0000      -0.437218       -11.8973
  58   2.0000      -0.432939       -11.7809
  59   2.0000      -0.423373       -11.5206
  60   2.0000      -0.418936       -11.3998
  61   2.0000      -0.413155       -11.2425
  62   2.0000      -0.408373       -11.1124
  63   2.0000      -0.362717        -9.8700
  64   2.0000      -0.337215        -9.1761
  65   2.0000      -0.328351        -8.9349
  66   2.0000      -0.284422        -7.7395
  67   0.0000       0.024309         0.6615
  68   0.0000       0.079086         2.1520
  69   0.0000       0.100137         2.7249
  70   0.0000       0.119919         3.2632
  71   0.0000       0.132701         3.6110

MULLIKEN ATOMIC CHARGES
-----------------------
   0 S :    0.091927
   1 C :   -0.140206
   2 C :   -0.086324
   3 C :    0.004430
   4 C :   -0.083436
   5 H :   -0.012602
   6 C :    0.051451
   7 H :    0.037992
   8 H :    0.017934
   9 C :   -0.034680
  10 H :    0.008019
  11 H :    0.014299
  12 C :   -0.015674
  13 H :    0.026730
  14 H :    0.025513
  15 H :    0.017899
  16 S :    0.100362
  17 C :   -0.092867
  18 C :   -0.042067
  19 C :   -0.082112
  20 C :   -0.125553
  21 H :    0.018361
  22 C :    0.116043
  23 H :    0.007705
  24 H :    0.004747
  25 C :   -0.075723
  26 H :    0.019257
  27 H :    0.025295
  28 C :   -0.051628
  29 H :    0.036496
  30 H :    0.032815
  31 H :    0.048393
  32 H :    0.067316
  33 H :    0.069888
Sum of atomic charges:   -0.0000000

LOEWDIN ATOMIC CHARGES
----------------------
   0 S :    0.386970
   1 C :   -0.207545
   2 C :   -0.063356
   3 C :   -0.061549
   4 C :   -0.169522
   5 H :    0.020681
   6 C :   -0.030950
   7 H :    0.036349
   8 H :    0.026229
   9 C :   -0.044361
  10 H :    0.017177
  11 H :    0.027530
  12 C :   -0.061295
  13 H :    0.026762
  14 H :    0.029469
  15 H :    0.018529
  16 S :    0.416331
  17 C :   -0.207482
  18 C :   -0.076517
  19 C :   -0.051969
  20 C :   -0.190453
  21 H :    0.033042
  22 C :   -0.027543
  23 H :    0.020095
  24 H :    0.028893
  25 C :   -0.037363
  26 H :    0.021082
  27 H :    0.022337
  28 C :   -0.065701
  29 H :    0.025827
  30 H :    0.024672
  31 H :    0.029458
  32 H :    0.043690
  33 H :    0.040485

  Mayer bond orders larger than 0.100000
B(  0-S ,  1-C ) :   1.1111 B(  0-S ,  4-C ) :   1.1322 B(  1-C ,  2-C ) :   1.6606
B(  1-C , 32-H ) :   0.9572 B(  2-C ,  3-C ) :   1.2131 B(  2-C ,  6-C ) :   1.0141
B(  3-C ,  4-C ) :   1.5942 B(  3-C ,  5-H ) :   1.0065 B(  4-C , 20-C ) :   1.0828
B(  6-C ,  7-H ) :   0.9459 B(  6-C ,  8-H ) :   0.9377 B(  6-C ,  9-C ) :   1.0566
B(  9-C , 10-H ) :   0.9522 B(  9-C , 11-H ) :   0.9482 B(  9-C , 12-C ) :   1.0786
B( 12-C , 13-H ) :   0.9745 B( 12-C , 14-H ) :   0.9717 B( 12-C , 15-H ) :   0.9770
B( 16-S , 17-C ) :   1.1665 B( 16-S , 20-C ) :   1.1150 B( 17-C , 18-C ) :   1.6427
B( 17-C , 33-H ) :   0.9543 B( 18-C , 19-C ) :   1.2006 B( 18-C , 21-H ) :   0.9931
B( 19-C , 20-C ) :   1.6364 B( 19-C , 22-C ) :   1.0357 B( 22-C , 23-H ) :   0.9358
B( 22-C , 24-H ) :   0.9253 B( 22-C , 25-C ) :   1.0797 B( 25-C , 26-H ) :   0.9535
B( 25-C , 27-H ) :   0.9552 B( 25-C , 28-C ) :   1.0858 B( 28-C , 29-H ) :   0.9725
B( 28-C , 30-H ) :   0.9728 B( 28-C , 31-H ) :   0.9694

Dispersion correction           -0.015085297
FINAL SINGLE POINT ENERGY     -1339.876131624621

DIPOLE MOMENT
-------------
                                X             Y             Z
Electronic contribution:     -2.30816     -27.49910     -10.97958
Nuclear contribution   :      2.63752      28.05099      11.07610
                        -----------------------------------------
Total Dipole Moment    :      0.32936       0.55190       0.09652
                        -----------------------------------------
Magnitude (a.u.)       :      0.64991
Magnitude (Debye)      :      1.65195

Rotational constants in cm-1:     0.021243     0.008788     0.006869
Rotational constants in MHz :   636.847192   263.465013   205.919141

                             ****ORCA TERMINATED NORMALLY****
TOTAL RUN TIME: 0 days 0 hours 0 minutes 33 seconds 523 msec
