                         Program Version 4.2.1 -  RELEASE  -
|  1> ! wB97X-D3 SP def2-SVP
|  2> %pal
|  3> nprocs 16
|  4> end
|  5>
|  6> * xyz 0 1
|  7> S 	 -49.3304 	 14.1693 	 79.3123
|  8> C 	 -47.954 	 13.2162 	 79.2662
|  9> C 	 -47.7454 	 12.4634 	 80.3963
| 10> C 	 -48.7781 	 12.7488 	 81.3759
| 11> C 	 -49.7371 	 13.6208 	 80.9196
| 12> H 	 -48.8505 	 12.4804 	 82.4621
| 13> C 	 -46.4998 	 11.7296 	 80.7792
| 14> H 	 -46.1266 	 11.1468 	 79.9315
| 15> H 	 -46.8988 	 11.0198 	 81.5018
| 16> C 	 -45.2971 	 12.6447 	 81.2685
| 17> H 	 -44.3681 	 12.1288 	 81.0711
| 18> H 	 -45.23 	 13.5683 	 80.6425
| 19> C 	 -45.2523 	 13.0017 	 82.749
| 20> H 	 -44.9336 	 12.1633 	 83.4505
| 21> H 	 -44.6582 	 13.8447 	 82.8964
| 22> H 	 -46.2848 	 13.2381 	 83.1145
| 23> S 	 -52.146 	 14.7947 	 80.5399
| 24> C 	 -53.0636 	 15.342 	 81.8164
| 25> C 	 -52.503 	 15.0914 	 83.038
| 26> C 	 -51.2725 	 14.4329 	 82.9639
| 27> C 	 -50.8907 	 14.2366 	 81.6388
| 28> H 	 -52.9428 	 15.316 	 83.9873
| 29> C 	 -50.4835 	 14.0781 	 84.2323
| 30> H 	 -49.7976 	 14.9017 	 84.4131
| 31> H 	 -49.881 	 13.2748 	 83.9738
| 32> C 	 -51.2926 	 13.7606 	 85.5393
| 33> H 	 -52.0607 	 13.0472 	 85.3264
| 34> H 	 -51.8421 	 14.6367 	 85.8662
| 35> C 	 -50.4332 	 13.1843 	 86.704
| 36> H 	 -50.8898 	 13.6156 	 87.5768
| 37> H 	 -49.4741 	 13.5722 	 86.796
| 38> H 	 -50.4199 	 12.0386 	 86.8386
| 39> H 	 -47.1273 	 13.2188 	 78.4972
| 40> H 	 -53.9367 	 15.9734 	 81.834
| 41> *
| 42>
| 43>                          ****END OF INPUT****

CARTESIAN COORDINATES (ANGSTROEM)
---------------------------------
  S    -49.330400   14.169300   79.312300
  C    -47.954000   13.216200   79.266200
  C    -47.745400   12.463400   80.396300
  C    -48.778100   12.748800   81.375900
  C    -49.737100   13.620800   80.919600
  H    -48.850500   12.480400   82.462100
  C    -46.499800   11.729600   80.779200
  H    -46.126600   11.146800   79.931500
  H    -46.898800   11.019800   81.501800
  C    -45.297100   12.644700   81.268500
  H    -44.368100   12.128800   81.071100
  H    -45.230000   13.568300   80.642500
  C    -45.252300   13.001700   82.749000
  H    -44.933600   12.163300   83.450500
  H    -44.658200   13.844700   82.896400
  H    -46.284800   13.238100   83.114500
  S    -52.146000   14.794700   80.539900
  C    -53.063600   15.342000   81.816400
  C    -52.503000   15.091400   83.038000
  C    -51.272500   14.432900   82.963900
  C    -50.890700   14.236600   81.638800
  H    -52.942800   15.316000   83.987300
  C    -50.483500   14.078100   84.232300
  H    -49.797600   14.901700   84.413100
  H    -49.881000   13.274800   83.973800
  C    -51.292600   13.760600   85.539300
  H    -52.060700   13.047200   85.326400
  H    -51.842100   14.636700   85.866200
  C    -50.433200   13.184300   86.704000
  H    -50.889800   13.615600   87.576800
  H    -49.474100   13.572200   86.796000
  H    -50.419900   12.038600   86.838600
  H    -47.127300   13.218800   78.497200
  H    -53.936700   15.973400   81.834000

 Total Charge           Charge          ....    0
 Multiplicity           Mult            ....    1
 Number of Electrons    NEL             ....  134
 Basis Dimension        Dim             ....  322

ORBITAL ENERGIES
----------------

  NO   OCC          E(Eh)            E(eV)
   0   2.0000     -88.966307     -2420.8963
   1   2.0000     -88.965747     -2420.8811
   2   2.0000     -10.327956      -281.0380
   3   2.0000     -10.327766      -281.0328
   4   2.0000     -10.309478      -280.5351
   5   2.0000     -10.305748      -280.4337
   6   2.0000     -10.300585      -280.2932
   7   2.0000     -10.297060      -280.1972
   8   2.0000     -10.294896      -280.1384
   9   2.0000     -10.293281      -280.0944
  10   2.0000     -10.293261      -280.0939
  11   2.0000     -10.292095      -280.0621
  12   2.0000     -10.291518      -280.0464
  13   2.0000     -10.282372      -279.7976
  14   2.0000     -10.282350      -279.7970
  15   2.0000     -10.279445      -279.7179
  16   2.0000      -8.082471      -219.9352
  17   2.0000      -8.081819      -219.9175
  18   2.0000      -6.040834      -164.3794
  19   2.0000      -6.040270      -164.3641
  20   2.0000      -6.036756      -164.2685
  21   2.0000      -6.036102      -164.2507
  22   2.0000      -6.033319      -164.1750
  23   2.0000      -6.032596      -164.1553
  24   2.0000      -1.014608       -27.6089
  25   2.0000      -0.994418       -27.0595
  26   2.0000      -0.908928       -24.7332
  27   2.0000      -0.906049       -24.6548
  28   2.0000      -0.867252       -23.5991
  29   2.0000      -0.858226       -23.3535
  30   2.0000      -0.848195       -23.0806
  31   2.0000      -0.815590       -22.1933
  32   2.0000      -0.787271       -21.4227
  33   2.0000      -0.772027       -21.0079
  34   2.0000      -0.715013       -19.4565
  35   2.0000      -0.703419       -19.1410
  36   2.0000      -0.693399       -18.8683
  37   2.0000      -0.661654       -18.0045
  38   2.0000      -0.634552       -17.2670
  39   2.0000      -0.614549       -16.7227
  40   2.0000      -0.596418       -16.2294
  41   2.0000      -0.567965       -15.4551
  42   2.0000      -0.566880       -15.4256
  43   2.0000      -0.544944       -14.8287
  44   2.0000      -0.532956       -14.5025
  45   2.0000      -0.525455       -14.2983
  46   2.0000      -0.517826       -14.0908
  47   2.0000      -0.513481       -13.9725
  48   2.0000      -0.502661       -13.6781
  49   2.0000      -0.499157       -13.5828
  50   2.0000      -0.488602       -13.2955
  51   2.0000      -0.484219       -13.1763
  52   2.0000      -0.476471       -12.9654
  53   2.0000      -0.465583       -12.6692
  54   2.0000      -0.462704       -12.5908
  55   2.0000      -0.454959       -12.3801
  56   2.0000      -0.442919       -12.0524
  57   2.0000      -0.438951       -11.9445
  58   2.0000      -0.435196       -11.8423
  59   2.0000      -0.430005       -11.7010
  60   2.0000      -0.425268       -11.5721
  61   2.0000      -0.414124       -11.2689
  62   2.0000      -0.412434       -11.2229
  63   2.0000      -0.358914        -9.7666
  64   2.0000      -0.335761        -9.1365
  65   2.0000      -0.327733        -8.9181
  66   2.0000      -0.281784        -7.6677
  67   0.0000       0.029686         0.8078
  68   0.0000       0.083629         2.2757
  69   0.0000       0.107839         2.9344
  70   0.0000       0.121415         3.3039
  71   0.0000       0.133867         3.6427

MULLIKEN ATOMIC CHARGES
-----------------------
   0 S :    0.117949
   1 C :   -0.114178
   2 C :   -0.101139
   3 C :   -0.039834
   4 C :   -0.115334
   5 H :    0.028688
   6 C :    0.053284
   7 H :    0.026671
   8 H :    0.030779
   9 C :   -0.059847
  10 H :    0.025953
  11 H :    0.034778
  12 C :   -0.052496
  13 H :    0.041002
  14 H :    0.026761
  15 H :    0.023873
  16 S :    0.112943
  17 C :   -0.041506
  18 C :   -0.061238
  19 C :   -0.069141
  20 C :   -0.154652
  21 H :   -0.001183
  22 C :    0.128298
  23 H :    0.041354
  24 H :   -0.009259
  25 C :   -0.105789
  26 H :    0.031021
  27 H :    0.036423
  28 C :   -0.028078
  29 H :    0.017483
  30 H :    0.013827
  31 H :    0.056677
  32 H :    0.060520
  33 H :    0.045391
Sum of atomic charges:   -0.0000000

LOEWDIN ATOMIC CHARGES
----------------------
   0 S :    0.431383
   1 C :   -0.229138
   2 C :   -0.072168
   3 C :   -0.079331
   4 C :   -0.196095
   5 H :    0.036169
   6 C :   -0.034599
   7 H :    0.032811
   8 H :    0.033048
   9 C :   -0.038767
  10 H :    0.022213
  11 H :    0.030449
  12 C :   -0.069173
  13 H :    0.031891
  14 H :    0.018261
  15 H :    0.025361
  16 S :    0.440831
  17 C :   -0.213788
  18 C :   -0.075908
  19 C :   -0.057171
  20 C :   -0.192677
  21 H :    0.025427
  22 C :   -0.022799
  23 H :    0.037321
  24 H :    0.015056
  25 C :   -0.035845
  26 H :    0.025436
  27 H :    0.021531
  28 C :   -0.067943
  29 H :    0.029225
  30 H :    0.015243
  31 H :    0.039647
  32 H :    0.042176
  33 H :    0.031920

  Mayer bond orders larger than 0.100000
B(  0-S ,  1-C ) :   1.1552 B(  0-S ,  4-C ) :   1.1510 B(  1-C ,  2-C ) :   1.6235
B(  1-C , 32-H ) :   0.9529 B(  2-C ,  3-C ) :   1.2276 B(  2-C ,  6-C ) :   1.0403
B(  3-C ,  4-C ) :   1.6119 B(  3-C ,  5-H ) :   0.9778 B(  4-C , 20-C ) :   1.0281
B(  6-C ,  7-H ) :   0.9367 B(  6-C ,  8-H ) :   0.9458 B(  6-C ,  9-C ) :   1.0451
B(  9-C , 10-H ) :   0.9579 B(  9-C , 11-H ) :   0.9589 B(  9-C , 12-C ) :   1.0803
B( 12-C , 13-H ) :   0.9752 B( 12-C , 14-H ) :   0.9725 B( 12-C , 15-H ) :   0.9751
B( 16-S , 17-C ) :   1.1763 B( 16-S , 20-C ) :   1.1538 B( 17-C , 18-C ) :   1.5801
B( 17-C , 33-H ) :   0.9590 B( 18-C , 19-C ) :   1.2933 B( 18-C , 21-H ) :   0.9891
B( 19-C , 20-C ) :   1.5834 B( 19-C , 22-C ) :   1.0199 B( 22-C , 23-H ) :   0.9231
B( 22-C , 24-H ) :   0.9310 B( 22-C , 25-C ) :   1.0719 B( 25-C , 26-H ) :   0.9601
B( 25-C , 27-H ) :   0.9560 B( 25-C , 28-C ) :   1.0757 B( 28-C , 29-H ) :   0.9721
B( 28-C , 30-H ) :   0.9740 B( 28-C , 31-H ) :   0.9767

Dispersion correction           -0.013786678
FINAL SINGLE POINT ENERGY     -1339.865576076599

DIPOLE MOMENT
-------------
                                X             Y             Z
Electronic contribution:    -16.88568       8.06377     -25.62141
Nuclear contribution   :     17.25466      -8.05384      26.32013
                        -----------------------------------------
Total Dipole Moment    :      0.36897       0.00993       0.69872
                        -----------------------------------------
Magnitude (a.u.)       :      0.79022
Magnitude (Debye)      :      2.00858

Rotational constants in cm-1:     0.016012     0.009695     0.006305
Rotational constants in MHz :   480.024274   290.658708   189.005709

                             ****ORCA TERMINATED NORMALLY****
TOTAL RUN TIME: 0 days 0 hours 0 minutes 29 seconds 389 msec
