                         Program Version 4.2.1 -  RELEASE  -
|  1> ! wB97X-D3 SP def2-SVP
|  2> %pal
|  3> nprocs 16
|  4> end
|  5>
|  6> * xyz 0 1
|  7> S 	 -7.08084 	 9.03883 	 84.3077
|  8> C 	 -6.82477 	 8.59243 	 85.9621
|  9> C 	 -7.84222 	 9.07736 	 86.7716
| 10> C 	 -8.83139 	 9.84376 	 86.0424
| 11> C 	 -8.49016 	 9.98907 	 84.6966
| 12> H 	 -9.75311 	 10.2912 	 86.3706
| 13> C 	 -8.05002 	 8.84285 	 88.2564
| 14> H 	 -8.08198 	 7.75 	 88.4003
| 15> H 	 -9.02532 	 9.14654 	 88.5115
| 16> C 	 -6.93437 	 9.29796 	 89.2321
| 17> H 	 -5.90958 	 9.12268 	 88.8455
| 18> H 	 -6.85475 	 10.4147 	 89.4414
| 19> C 	 -7.06648 	 8.51211 	 90.5611
| 20> H 	 -7.30357 	 7.45276 	 90.3883
| 21> H 	 -6.17417 	 8.49631 	 91.2663
| 22> H 	 -7.75647 	 8.90144 	 91.3431
| 23> S 	 -8.53407 	 11.7508 	 82.6837
| 24> C 	 -10.0475 	 12.4351 	 82.1547
| 25> C 	 -11.096 	 11.5903 	 82.4786
| 26> C 	 -10.6809 	 10.5721 	 83.4084
| 27> C 	 -9.32059 	 10.5703 	 83.6728
| 28> H 	 -12.1143 	 11.7355 	 82.1698
| 29> C 	 -11.6874 	 9.61173 	 83.9735
| 30> H 	 -12.6945 	 9.97073 	 84.1974
| 31> H 	 -11.3094 	 9.3991 	 84.9453
| 32> C 	 -11.8304 	 8.3046 	 83.2641
| 33> H 	 -12.1142 	 8.37594 	 82.2463
| 34> H 	 -12.6515 	 7.77906 	 83.7762
| 35> C 	 -10.6918 	 7.2363 	 83.3138
| 36> H 	 -9.83631 	 7.51789 	 82.7277
| 37> H 	 -11.1056 	 6.19959 	 83.1173
| 38> H 	 -10.42 	 7.16953 	 84.3544
| 39> H 	 -6.05461 	 7.98958 	 86.3244
| 40> H 	 -10.0214 	 13.3365 	 81.5525
| 41> *
| 42>
| 43>                          ****END OF INPUT****

CARTESIAN COORDINATES (ANGSTROEM)
---------------------------------
  S     -7.080840    9.038830   84.307700
  C     -6.824770    8.592430   85.962100
  C     -7.842220    9.077360   86.771600
  C     -8.831390    9.843760   86.042400
  C     -8.490160    9.989070   84.696600
  H     -9.753110   10.291200   86.370600
  C     -8.050020    8.842850   88.256400
  H     -8.081980    7.750000   88.400300
  H     -9.025320    9.146540   88.511500
  C     -6.934370    9.297960   89.232100
  H     -5.909580    9.122680   88.845500
  H     -6.854750   10.414700   89.441400
  C     -7.066480    8.512110   90.561100
  H     -7.303570    7.452760   90.388300
  H     -6.174170    8.496310   91.266300
  H     -7.756470    8.901440   91.343100
  S     -8.534070   11.750800   82.683700
  C    -10.047500   12.435100   82.154700
  C    -11.096000   11.590300   82.478600
  C    -10.680900   10.572100   83.408400
  C     -9.320590   10.570300   83.672800
  H    -12.114300   11.735500   82.169800
  C    -11.687400    9.611730   83.973500
  H    -12.694500    9.970730   84.197400
  H    -11.309400    9.399100   84.945300
  C    -11.830400    8.304600   83.264100
  H    -12.114200    8.375940   82.246300
  H    -12.651500    7.779060   83.776200
  C    -10.691800    7.236300   83.313800
  H     -9.836310    7.517890   82.727700
  H    -11.105600    6.199590   83.117300
  H    -10.420000    7.169530   84.354400
  H     -6.054610    7.989580   86.324400
  H    -10.021400   13.336500   81.552500

 Total Charge           Charge          ....    0
 Multiplicity           Mult            ....    1
 Number of Electrons    NEL             ....  134
 Basis Dimension        Dim             ....  322

ORBITAL ENERGIES
----------------

  NO   OCC          E(Eh)            E(eV)
   0   2.0000     -88.968183     -2420.9473
   1   2.0000     -88.960843     -2420.7476
   2   2.0000     -10.328426      -281.0507
   3   2.0000     -10.323279      -280.9107
   4   2.0000     -10.320634      -280.8387
   5   2.0000     -10.310525      -280.5636
   6   2.0000     -10.304431      -280.3978
   7   2.0000     -10.304420      -280.3975
   8   2.0000     -10.299806      -280.2720
   9   2.0000     -10.296716      -280.1879
  10   2.0000     -10.295208      -280.1468
  11   2.0000     -10.293142      -280.0906
  12   2.0000     -10.286625      -279.9133
  13   2.0000     -10.284816      -279.8641
  14   2.0000     -10.277451      -279.6637
  15   2.0000     -10.271918      -279.5131
  16   2.0000      -8.083048      -219.9509
  17   2.0000      -8.076771      -219.7801
  18   2.0000      -6.041524      -164.3982
  19   2.0000      -6.037494      -164.2886
  20   2.0000      -6.035207      -164.2263
  21   2.0000      -6.033881      -164.1902
  22   2.0000      -6.031041      -164.1130
  23   2.0000      -6.027605      -164.0195
  24   2.0000      -1.010700       -27.5025
  25   2.0000      -0.985827       -26.8257
  26   2.0000      -0.911985       -24.8164
  27   2.0000      -0.908471       -24.7207
  28   2.0000      -0.871598       -23.7174
  29   2.0000      -0.850084       -23.1320
  30   2.0000      -0.843898       -22.9636
  31   2.0000      -0.812999       -22.1228
  32   2.0000      -0.782774       -21.3004
  33   2.0000      -0.772539       -21.0219
  34   2.0000      -0.708637       -19.2830
  35   2.0000      -0.702990       -19.1293
  36   2.0000      -0.691930       -18.8284
  37   2.0000      -0.667086       -18.1523
  38   2.0000      -0.647680       -17.6243
  39   2.0000      -0.616522       -16.7764
  40   2.0000      -0.602951       -16.4071
  41   2.0000      -0.569375       -15.4935
  42   2.0000      -0.557265       -15.1640
  43   2.0000      -0.549929       -14.9643
  44   2.0000      -0.542013       -14.7489
  45   2.0000      -0.520983       -14.1767
  46   2.0000      -0.515071       -14.0158
  47   2.0000      -0.511524       -13.9193
  48   2.0000      -0.506540       -13.7836
  49   2.0000      -0.505017       -13.7422
  50   2.0000      -0.492966       -13.4143
  51   2.0000      -0.484394       -13.1810
  52   2.0000      -0.474819       -12.9205
  53   2.0000      -0.462971       -12.5981
  54   2.0000      -0.455743       -12.4014
  55   2.0000      -0.444459       -12.0943
  56   2.0000      -0.440809       -11.9950
  57   2.0000      -0.436008       -11.8644
  58   2.0000      -0.434619       -11.8266
  59   2.0000      -0.425728       -11.5846
  60   2.0000      -0.413189       -11.2434
  61   2.0000      -0.410145       -11.1606
  62   2.0000      -0.407720       -11.0946
  63   2.0000      -0.349501        -9.5104
  64   2.0000      -0.330593        -8.9959
  65   2.0000      -0.327625        -8.9151
  66   2.0000      -0.290920        -7.9163
  67   0.0000       0.030724         0.8360
  68   0.0000       0.063383         1.7247
  69   0.0000       0.108324         2.9476
  70   0.0000       0.120884         3.2894
  71   0.0000       0.128863         3.5066

MULLIKEN ATOMIC CHARGES
-----------------------
   0 S :    0.118611
   1 C :   -0.090474
   2 C :   -0.091298
   3 C :    0.012197
   4 C :   -0.130799
   5 H :    0.020314
   6 C :    0.108068
   7 H :    0.027438
   8 H :    0.006614
   9 C :   -0.068518
  10 H :    0.034167
  11 H :    0.044832
  12 C :   -0.106927
  13 H :    0.033874
  14 H :    0.032049
  15 H :    0.036535
  16 S :    0.096510
  17 C :   -0.101784
  18 C :   -0.001498
  19 C :   -0.067714
  20 C :   -0.151302
  21 H :    0.016341
  22 C :    0.124472
  23 H :    0.021359
  24 H :   -0.021817
  25 C :   -0.076464
  26 H :    0.016735
  27 H :    0.019736
  28 C :   -0.049172
  29 H :    0.043404
  30 H :    0.039089
  31 H :    0.015616
  32 H :    0.023873
  33 H :    0.065935
Sum of atomic charges:   -0.0000000

LOEWDIN ATOMIC CHARGES
----------------------
   0 S :    0.421637
   1 C :   -0.197470
   2 C :   -0.057239
   3 C :   -0.063533
   4 C :   -0.197672
   5 H :    0.030080
   6 C :   -0.028708
   7 H :    0.036753
   8 H :    0.023807
   9 C :   -0.045497
  10 H :    0.027899
  11 H :    0.033740
  12 C :   -0.087587
  13 H :    0.022968
  14 H :    0.031865
  15 H :    0.028228
  16 S :    0.415926
  17 C :   -0.176630
  18 C :   -0.065725
  19 C :   -0.052177
  20 C :   -0.212742
  21 H :    0.030738
  22 C :   -0.036240
  23 H :    0.034412
  24 H :    0.024694
  25 C :   -0.038468
  26 H :    0.014649
  27 H :    0.026957
  28 C :   -0.064849
  29 H :    0.019708
  30 H :    0.034541
  31 H :    0.020144
  32 H :    0.017755
  33 H :    0.028037

  Mayer bond orders larger than 0.100000
B(  0-S ,  1-C ) :   1.1365 B(  0-S ,  4-C ) :   1.1656 B(  1-C ,  2-C ) :   1.6025
B(  1-C , 32-H ) :   0.9793 B(  2-C ,  3-C ) :   1.2354 B(  2-C ,  6-C ) :   1.0238
B(  3-C ,  4-C ) :   1.5769 B(  3-C ,  5-H ) :   0.9931 B(  4-C , 20-C ) :   1.0104
B(  6-C ,  7-H ) :   0.9391 B(  6-C ,  8-H ) :   0.9419 B(  6-C ,  9-C ) :   1.0437
B(  9-C , 10-H ) :   0.9623 B(  9-C , 11-H ) :   0.9556 B(  9-C , 12-C ) :   1.0597
B( 12-C , 13-H ) :   0.9772 B( 12-C , 14-H ) :   0.9744 B( 12-C , 15-H ) :   0.9766
B( 16-S , 17-C ) :   1.1769 B( 16-S , 20-C ) :   1.1369 B( 17-C , 18-C ) :   1.5624
B( 17-C , 20-C ) :   0.1011 B( 17-C , 33-H ) :   0.9733 B( 18-C , 19-C ) :   1.2443
B( 18-C , 21-H ) :   0.9998 B( 19-C , 20-C ) :   1.5940 B( 19-C , 22-C ) :   1.0422
B( 22-C , 23-H ) :   0.9313 B( 22-C , 24-H ) :   0.9143 B( 22-C , 25-C ) :   1.0865
B( 25-C , 26-H ) :   0.9548 B( 25-C , 27-H ) :   0.9516 B( 25-C , 28-C ) :   1.0811
B( 28-C , 29-H ) :   0.9761 B( 28-C , 30-H ) :   0.9747 B( 28-C , 31-H ) :   0.9721

Dispersion correction           -0.014868353
FINAL SINGLE POINT ENERGY     -1339.869778014309

DIPOLE MOMENT
-------------
                                X             Y             Z
Electronic contribution:      8.24012      13.63349     -20.44716
Nuclear contribution   :     -8.71869     -13.76076      20.90135
                        -----------------------------------------
Total Dipole Moment    :     -0.47857      -0.12727       0.45419
                        -----------------------------------------
Magnitude (a.u.)       :      0.67195
Magnitude (Debye)      :      1.70795

Rotational constants in cm-1:     0.022077     0.007633     0.006906
Rotational constants in MHz :   661.843128   228.831832   207.029595

                             ****ORCA TERMINATED NORMALLY****
TOTAL RUN TIME: 0 days 0 hours 0 minutes 34 seconds 893 msec
