                         Program Version 4.2.1 -  RELEASE  -
|  1> ! wB97X-D3 SP def2-SVP
|  2> %pal
|  3> nprocs 16
|  4> end
|  5>
|  6> * xyz 0 1
|  7> S 	 -95.5577 	 55.6596 	 124.946
|  8> C 	 -94.3521 	 54.5486 	 125.527
|  9> C 	 -94.6131 	 53.2154 	 125.278
| 10> C 	 -95.8992 	 53.1211 	 124.701
| 11> C 	 -96.5204 	 54.294 	 124.405
| 12> H 	 -96.4123 	 52.1847 	 124.62
| 13> C 	 -93.7649 	 52.1328 	 125.789
| 14> H 	 -94.1999 	 51.1556 	 125.493
| 15> H 	 -93.7641 	 52.2006 	 126.831
| 16> C 	 -92.3224 	 52.1291 	 125.33
| 17> H 	 -91.7791 	 52.9273 	 125.851
| 18> H 	 -91.7554 	 51.3191 	 125.836
| 19> C 	 -92.0145 	 52.0087 	 123.826
| 20> H 	 -92.7866 	 51.4426 	 123.267
| 21> H 	 -91.9304 	 52.9657 	 123.307
| 22> H 	 -90.9752 	 51.6223 	 123.729
| 23> S 	 -99.1514 	 55.0643 	 124.941
| 24> C 	 -100.406 	 54.8712 	 123.746
| 25> C 	 -99.8227 	 54.332 	 122.617
| 26> C 	 -98.4756 	 53.9456 	 122.713
| 27> C 	 -97.8619 	 54.4301 	 123.861
| 28> H 	 -100.515 	 54.0317 	 121.783
| 29> C 	 -97.7234 	 53.1987 	 121.611
| 30> H 	 -98.171 	 52.1897 	 121.587
| 31> H 	 -96.6975 	 53.0861 	 121.902
| 32> C 	 -97.6287 	 53.8581 	 120.231
| 33> H 	 -96.9717 	 54.6548 	 120.238
| 34> H 	 -98.6758 	 54.0604 	 119.994
| 35> C 	 -97.0833 	 52.7962 	 119.178
| 36> H 	 -97.5867 	 51.798 	 119.288
| 37> H 	 -96.0289 	 52.5803 	 119.462
| 38> H 	 -97.2626 	 53.0524 	 118.069
| 39> H 	 -93.6951 	 54.8519 	 126.312
| 40> H 	 -101.466 	 55.1732 	 123.865
| 41> *
| 42>
| 43>                          ****END OF INPUT****

CARTESIAN COORDINATES (ANGSTROEM)
---------------------------------
  S    -95.557700   55.659600  124.946000
  C    -94.352100   54.548600  125.527000
  C    -94.613100   53.215400  125.278000
  C    -95.899200   53.121100  124.701000
  C    -96.520400   54.294000  124.405000
  H    -96.412300   52.184700  124.620000
  C    -93.764900   52.132800  125.789000
  H    -94.199900   51.155600  125.493000
  H    -93.764100   52.200600  126.831000
  C    -92.322400   52.129100  125.330000
  H    -91.779100   52.927300  125.851000
  H    -91.755400   51.319100  125.836000
  C    -92.014500   52.008700  123.826000
  H    -92.786600   51.442600  123.267000
  H    -91.930400   52.965700  123.307000
  H    -90.975200   51.622300  123.729000
  S    -99.151400   55.064300  124.941000
  C    -100.406000   54.871200  123.746000
  C    -99.822700   54.332000  122.617000
  C    -98.475600   53.945600  122.713000
  C    -97.861900   54.430100  123.861000
  H    -100.515000   54.031700  121.783000
  C    -97.723400   53.198700  121.611000
  H    -98.171000   52.189700  121.587000
  H    -96.697500   53.086100  121.902000
  C    -97.628700   53.858100  120.231000
  H    -96.971700   54.654800  120.238000
  H    -98.675800   54.060400  119.994000
  C    -97.083300   52.796200  119.178000
  H    -97.586700   51.798000  119.288000
  H    -96.028900   52.580300  119.462000
  H    -97.262600   53.052400  118.069000
  H    -93.695100   54.851900  126.312000
  H    -101.466000   55.173200  123.865000

 Total Charge           Charge          ....    0
 Multiplicity           Mult            ....    1
 Number of Electrons    NEL             ....  134
 Basis Dimension        Dim             ....  322

ORBITAL ENERGIES
----------------

  NO   OCC          E(Eh)            E(eV)
   0   2.0000     -88.966717     -2420.9074
   1   2.0000     -88.960562     -2420.7399
   2   2.0000     -10.327372      -281.0221
   3   2.0000     -10.325316      -280.9661
   4   2.0000     -10.321696      -280.8676
   5   2.0000     -10.308329      -280.5039
   6   2.0000     -10.302821      -280.3540
   7   2.0000     -10.296494      -280.1818
   8   2.0000     -10.294191      -280.1192
   9   2.0000     -10.291088      -280.0347
  10   2.0000     -10.290348      -280.0146
  11   2.0000     -10.289096      -279.9805
  12   2.0000     -10.288963      -279.9769
  13   2.0000     -10.288224      -279.9568
  14   2.0000     -10.284491      -279.8552
  15   2.0000     -10.282407      -279.7985
  16   2.0000      -8.081640      -219.9126
  17   2.0000      -8.074953      -219.7306
  18   2.0000      -6.040026      -164.3575
  19   2.0000      -6.036179      -164.2528
  20   2.0000      -6.033514      -164.1803
  21   2.0000      -6.032461      -164.1516
  22   2.0000      -6.029353      -164.0670
  23   2.0000      -6.025815      -163.9708
  24   2.0000      -1.007725       -27.4216
  25   2.0000      -0.986171       -26.8351
  26   2.0000      -0.918612       -24.9967
  27   2.0000      -0.905697       -24.6453
  28   2.0000      -0.867592       -23.6084
  29   2.0000      -0.852200       -23.1895
  30   2.0000      -0.841704       -22.9039
  31   2.0000      -0.813812       -22.1450
  32   2.0000      -0.783893       -21.3308
  33   2.0000      -0.767809       -20.8931
  34   2.0000      -0.707099       -19.2411
  35   2.0000      -0.703782       -19.1509
  36   2.0000      -0.696999       -18.9663
  37   2.0000      -0.654102       -17.7990
  38   2.0000      -0.642279       -17.4773
  39   2.0000      -0.616812       -16.7843
  40   2.0000      -0.596005       -16.2181
  41   2.0000      -0.572307       -15.5733
  42   2.0000      -0.569083       -15.4855
  43   2.0000      -0.564333       -15.3563
  44   2.0000      -0.539293       -14.6749
  45   2.0000      -0.520495       -14.1634
  46   2.0000      -0.514195       -13.9920
  47   2.0000      -0.508474       -13.8363
  48   2.0000      -0.502678       -13.6786
  49   2.0000      -0.497827       -13.5466
  50   2.0000      -0.487499       -13.2655
  51   2.0000      -0.478471       -13.0199
  52   2.0000      -0.467882       -12.7317
  53   2.0000      -0.465486       -12.6665
  54   2.0000      -0.460995       -12.5443
  55   2.0000      -0.444161       -12.0862
  56   2.0000      -0.440281       -11.9807
  57   2.0000      -0.439675       -11.9642
  58   2.0000      -0.437644       -11.9089
  59   2.0000      -0.434618       -11.8266
  60   2.0000      -0.415911       -11.3175
  61   2.0000      -0.408225       -11.1084
  62   2.0000      -0.402998       -10.9661
  63   2.0000      -0.340227        -9.2581
  64   2.0000      -0.329766        -8.9734
  65   2.0000      -0.328231        -8.9316
  66   2.0000      -0.298670        -8.1272
  67   0.0000       0.028984         0.7887
  68   0.0000       0.064118         1.7447
  69   0.0000       0.118805         3.2328
  70   0.0000       0.119701         3.2572
  71   0.0000       0.126417         3.4400

MULLIKEN ATOMIC CHARGES
-----------------------
   0 S :    0.120107
   1 C :   -0.124775
   2 C :   -0.082906
   3 C :    0.044863
   4 C :   -0.172917
   5 H :    0.004430
   6 C :    0.102601
   7 H :    0.019550
   8 H :    0.025687
   9 C :   -0.096165
  10 H :    0.016301
  11 H :    0.021426
  12 C :   -0.048074
  13 H :    0.039704
  14 H :    0.036099
  15 H :    0.037520
  16 S :    0.088949
  17 C :   -0.108230
  18 C :   -0.056427
  19 C :   -0.016886
  20 C :   -0.156440
  21 H :    0.036851
  22 C :    0.040482
  23 H :    0.035330
  24 H :    0.013768
  25 C :   -0.023028
  26 H :    0.031845
  27 H :    0.028713
  28 C :   -0.108096
  29 H :    0.027713
  30 H :    0.037927
  31 H :    0.057880
  32 H :    0.048515
  33 H :    0.077681
Sum of atomic charges:   -0.0000000

LOEWDIN ATOMIC CHARGES
----------------------
   0 S :    0.411441
   1 C :   -0.191631
   2 C :   -0.064501
   3 C :   -0.052286
   4 C :   -0.202876
   5 H :    0.029548
   6 C :   -0.030134
   7 H :    0.032209
   8 H :    0.031993
   9 C :   -0.050631
  10 H :    0.022723
  11 H :    0.027559
  12 C :   -0.071902
  13 H :    0.029751
  14 H :    0.027539
  15 H :    0.033802
  16 S :    0.387271
  17 C :   -0.189147
  18 C :   -0.088548
  19 C :   -0.056544
  20 C :   -0.187120
  21 H :    0.037417
  22 C :   -0.030785
  23 H :    0.034581
  24 H :    0.024268
  25 C :   -0.024348
  26 H :    0.018074
  27 H :    0.022342
  28 C :   -0.080786
  29 H :    0.024647
  30 H :    0.026790
  31 H :    0.035901
  32 H :    0.021234
  33 H :    0.042150

  Mayer bond orders larger than 0.100000
B(  0-S ,  1-C ) :   1.1562 B(  0-S ,  4-C ) :   1.1448 B(  1-C ,  2-C ) :   1.5879
B(  1-C , 32-H ) :   0.9659 B(  2-C ,  3-C ) :   1.2639 B(  2-C ,  6-C ) :   1.0228
B(  3-C ,  4-C ) :   1.5701 B(  3-C ,  5-H ) :   0.9992 B(  4-C , 20-C ) :   1.0285
B(  6-C ,  7-H ) :   0.9386 B(  6-C ,  8-H ) :   0.9271 B(  6-C ,  9-C ) :   1.0981
B(  9-C , 10-H ) :   0.9468 B(  9-C , 11-H ) :   0.9562 B(  9-C , 12-C ) :   1.0620
B( 12-C , 13-H ) :   0.9774 B( 12-C , 14-H ) :   0.9739 B( 12-C , 15-H ) :   0.9749
B( 16-S , 17-C ) :   1.1644 B( 16-S , 20-C ) :   1.1383 B( 17-C , 18-C ) :   1.5930
B( 17-C , 20-C ) :   0.1090 B( 17-C , 33-H ) :   0.9641 B( 18-C , 19-C ) :   1.2562
B( 18-C , 21-H ) :   0.9762 B( 19-C , 20-C ) :   1.5858 B( 19-C , 22-C ) :   1.0419
B( 22-C , 23-H ) :   0.9327 B( 22-C , 24-H ) :   0.9350 B( 22-C , 25-C ) :   1.0649
B( 25-C , 26-H ) :   0.9609 B( 25-C , 27-H ) :   0.9587 B( 25-C , 28-C ) :   1.0663
B( 28-C , 29-H ) :   0.9762 B( 28-C , 30-H ) :   0.9759 B( 28-C , 31-H ) :   0.9751

Dispersion correction           -0.013819921
FINAL SINGLE POINT ENERGY     -1339.868198172825

DIPOLE MOMENT
-------------
                                X             Y             Z
Electronic contribution:    -15.75757      17.63882      16.17826
Nuclear contribution   :     15.91568     -18.22290     -16.22035
                        -----------------------------------------
Total Dipole Moment    :      0.15810      -0.58408      -0.04209
                        -----------------------------------------
Magnitude (a.u.)       :      0.60657
Magnitude (Debye)      :      1.54177

Rotational constants in cm-1:     0.017590     0.008718     0.006503
Rotational constants in MHz :   527.324523   261.365732   194.968755

                             ****ORCA TERMINATED NORMALLY****
TOTAL RUN TIME: 0 days 0 hours 0 minutes 32 seconds 877 msec
