                         Program Version 4.2.1 -  RELEASE  -
|  1> ! wB97X-D3 SP def2-SVP
|  2> %pal
|  3> nprocs 16
|  4> end
|  5>
|  6> * xyz 0 1
|  7> S 	 60.4413 	 21.1297 	 74.958
|  8> C 	 61.1894 	 20.4963 	 73.5696
|  9> C 	 61.9791 	 19.3805 	 73.7827
| 10> C 	 62.1243 	 19.185 	 75.1987
| 11> C 	 61.3941 	 20.0208 	 75.9531
| 12> H 	 62.7396 	 18.4769 	 75.6706
| 13> C 	 62.8117 	 18.6534 	 72.724
| 14> H 	 62.1537 	 18.7177 	 71.8369
| 15> H 	 63.0757 	 17.5653 	 73.0403
| 16> C 	 64.1751 	 19.3106 	 72.4903
| 17> H 	 64.0064 	 20.3453 	 72.367
| 18> H 	 64.8306 	 19.3533 	 73.3855
| 19> C 	 64.8404 	 18.5941 	 71.3495
| 20> H 	 65.8014 	 19.0169 	 71.1074
| 21> H 	 65.1031 	 17.5656 	 71.6452
| 22> H 	 64.272 	 18.7108 	 70.4914
| 23> S 	 62.3759 	 20.7951 	 78.2394
| 24> C 	 61.5836 	 20.3596 	 79.7319
| 25> C 	 60.3675 	 19.7066 	 79.5797
| 26> C 	 60.2118 	 19.46 	 78.1481
| 27> C 	 61.1948 	 20.0528 	 77.3509
| 28> H 	 59.7216 	 19.3641 	 80.3751
| 29> C 	 59.2179 	 18.4043 	 77.6697
| 30> H 	 59.6541 	 17.4306 	 77.9928
| 31> H 	 59.1838 	 18.3485 	 76.515
| 32> C 	 57.8339 	 18.4898 	 78.2381
| 33> H 	 57.7859 	 18.5473 	 79.367
| 34> H 	 57.2365 	 17.6814 	 78.0135
| 35> C 	 57.0828 	 19.6841 	 77.6364
| 36> H 	 56.1709 	 19.9616 	 78.2047
| 37> H 	 56.8925 	 19.3447 	 76.6803
| 38> H 	 57.6395 	 20.6541 	 77.627
| 39> H 	 61.1572 	 20.9531 	 72.651
| 40> H 	 61.8851 	 20.7842 	 80.7124
| 41> *
| 42>
| 43>                          ****END OF INPUT****

CARTESIAN COORDINATES (ANGSTROEM)
---------------------------------
  S     60.441300   21.129700   74.958000
  C     61.189400   20.496300   73.569600
  C     61.979100   19.380500   73.782700
  C     62.124300   19.185000   75.198700
  C     61.394100   20.020800   75.953100
  H     62.739600   18.476900   75.670600
  C     62.811700   18.653400   72.724000
  H     62.153700   18.717700   71.836900
  H     63.075700   17.565300   73.040300
  C     64.175100   19.310600   72.490300
  H     64.006400   20.345300   72.367000
  H     64.830600   19.353300   73.385500
  C     64.840400   18.594100   71.349500
  H     65.801400   19.016900   71.107400
  H     65.103100   17.565600   71.645200
  H     64.272000   18.710800   70.491400
  S     62.375900   20.795100   78.239400
  C     61.583600   20.359600   79.731900
  C     60.367500   19.706600   79.579700
  C     60.211800   19.460000   78.148100
  C     61.194800   20.052800   77.350900
  H     59.721600   19.364100   80.375100
  C     59.217900   18.404300   77.669700
  H     59.654100   17.430600   77.992800
  H     59.183800   18.348500   76.515000
  C     57.833900   18.489800   78.238100
  H     57.785900   18.547300   79.367000
  H     57.236500   17.681400   78.013500
  C     57.082800   19.684100   77.636400
  H     56.170900   19.961600   78.204700
  H     56.892500   19.344700   76.680300
  H     57.639500   20.654100   77.627000
  H     61.157200   20.953100   72.651000
  H     61.885100   20.784200   80.712400

 Total Charge           Charge          ....    0
 Multiplicity           Mult            ....    1
 Number of Electrons    NEL             ....  134
 Basis Dimension        Dim             ....  322

ORBITAL ENERGIES
----------------

  NO   OCC          E(Eh)            E(eV)
   0   2.0000     -88.964740     -2420.8536
   1   2.0000     -88.961746     -2420.7722
   2   2.0000     -10.317200      -280.7453
   3   2.0000     -10.316922      -280.7377
   4   2.0000     -10.311104      -280.5794
   5   2.0000     -10.303582      -280.3747
   6   2.0000     -10.302667      -280.3498
   7   2.0000     -10.301887      -280.3286
   8   2.0000     -10.298575      -280.2385
   9   2.0000     -10.297416      -280.2069
  10   2.0000     -10.294407      -280.1250
  11   2.0000     -10.286743      -279.9165
  12   2.0000     -10.281671      -279.7785
  13   2.0000     -10.278562      -279.6939
  14   2.0000     -10.271760      -279.5088
  15   2.0000     -10.266926      -279.3773
  16   2.0000      -8.081457      -219.9076
  17   2.0000      -8.077437      -219.7982
  18   2.0000      -6.039789      -164.3510
  19   2.0000      -6.035759      -164.2414
  20   2.0000      -6.035597      -164.2369
  21   2.0000      -6.032364      -164.1490
  22   2.0000      -6.031916      -164.1368
  23   2.0000      -6.028226      -164.0364
  24   2.0000      -1.016718       -27.6663
  25   2.0000      -0.989177       -26.9169
  26   2.0000      -0.915871       -24.9221
  27   2.0000      -0.911132       -24.7932
  28   2.0000      -0.877151       -23.8685
  29   2.0000      -0.853089       -23.2137
  30   2.0000      -0.846618       -23.0376
  31   2.0000      -0.816983       -22.2312
  32   2.0000      -0.779737       -21.2177
  33   2.0000      -0.763898       -20.7867
  34   2.0000      -0.707121       -19.2418
  35   2.0000      -0.701555       -19.0903
  36   2.0000      -0.688351       -18.7310
  37   2.0000      -0.661094       -17.9893
  38   2.0000      -0.651707       -17.7339
  39   2.0000      -0.619417       -16.8552
  40   2.0000      -0.595569       -16.2062
  41   2.0000      -0.577357       -15.7107
  42   2.0000      -0.561692       -15.2844
  43   2.0000      -0.550716       -14.9857
  44   2.0000      -0.547208       -14.8903
  45   2.0000      -0.528885       -14.3917
  46   2.0000      -0.517920       -14.0933
  47   2.0000      -0.512565       -13.9476
  48   2.0000      -0.504408       -13.7257
  49   2.0000      -0.499141       -13.5823
  50   2.0000      -0.487820       -13.2742
  51   2.0000      -0.477218       -12.9858
  52   2.0000      -0.465614       -12.6700
  53   2.0000      -0.463073       -12.6009
  54   2.0000      -0.455622       -12.3981
  55   2.0000      -0.449611       -12.2345
  56   2.0000      -0.445754       -12.1296
  57   2.0000      -0.437376       -11.9016
  58   2.0000      -0.428431       -11.6582
  59   2.0000      -0.427142       -11.6231
  60   2.0000      -0.419283       -11.4093
  61   2.0000      -0.414031       -11.2664
  62   2.0000      -0.411301       -11.1921
  63   2.0000      -0.338721        -9.2171
  64   2.0000      -0.336394        -9.1537
  65   2.0000      -0.316232        -8.6051
  66   2.0000      -0.301000        -8.1906
  67   0.0000       0.054529         1.4838
  68   0.0000       0.057030         1.5519
  69   0.0000       0.105933         2.8826
  70   0.0000       0.124308         3.3826
  71   0.0000       0.130770         3.5584

MULLIKEN ATOMIC CHARGES
-----------------------
   0 S :    0.126133
   1 C :   -0.086138
   2 C :   -0.072550
   3 C :    0.067690
   4 C :   -0.184085
   5 H :   -0.012688
   6 C :    0.009680
   7 H :    0.037512
   8 H :    0.042153
   9 C :   -0.066103
  10 H :    0.006656
  11 H :    0.027239
  12 C :    0.014901
  13 H :    0.018304
  14 H :    0.031507
  15 H :    0.017965
  16 S :    0.136417
  17 C :   -0.104645
  18 C :   -0.033635
  19 C :   -0.018622
  20 C :   -0.189386
  21 H :    0.029893
  22 C :    0.023336
  23 H :    0.042417
  24 H :    0.044334
  25 C :   -0.049670
  26 H :    0.023503
  27 H :    0.008949
  28 C :   -0.051506
  29 H :    0.031051
  30 H :    0.014949
  31 H :    0.039569
  32 H :    0.011327
  33 H :    0.063543
Sum of atomic charges:   -0.0000000

LOEWDIN ATOMIC CHARGES
----------------------
   0 S :    0.416520
   1 C :   -0.196067
   2 C :   -0.063186
   3 C :   -0.048007
   4 C :   -0.196167
   5 H :    0.024918
   6 C :   -0.034553
   7 H :    0.034161
   8 H :    0.040496
   9 C :   -0.044462
  10 H :    0.015323
  11 H :    0.028217
  12 C :   -0.056288
  13 H :    0.024527
  14 H :    0.030564
  15 H :    0.017059
  16 S :    0.459231
  17 C :   -0.194441
  18 C :   -0.064974
  19 C :   -0.052734
  20 C :   -0.251065
  21 H :    0.034441
  22 C :   -0.038063
  23 H :    0.036782
  24 H :    0.038748
  25 C :   -0.043930
  26 H :    0.022906
  27 H :    0.015186
  28 C :   -0.062260
  29 H :    0.026838
  30 H :    0.013899
  31 H :    0.028122
  32 H :    0.007960
  33 H :    0.030299

  Mayer bond orders larger than 0.100000
B(  0-S ,  1-C ) :   1.1557 B(  0-S ,  4-C ) :   1.1305 B(  1-C ,  2-C ) :   1.6169
B(  1-C , 32-H ) :   0.9735 B(  2-C ,  3-C ) :   1.2118 B(  2-C ,  6-C ) :   1.0230
B(  3-C ,  4-C ) :   1.6342 B(  3-C ,  5-H ) :   1.0054 B(  4-C , 20-C ) :   1.0030
B(  6-C ,  7-H ) :   0.9410 B(  6-C ,  8-H ) :   0.9427 B(  6-C ,  9-C ) :   1.0603
B(  9-C , 10-H ) :   0.9512 B(  9-C , 11-H ) :   0.9524 B(  9-C , 12-C ) :   1.0866
B( 12-C , 13-H ) :   0.9681 B( 12-C , 14-H ) :   0.9704 B( 12-C , 15-H ) :   0.9742
B( 16-S , 17-C ) :   1.1694 B( 16-S , 20-C ) :   1.1775 B( 17-C , 18-C ) :   1.6058
B( 17-C , 33-H ) :   0.9597 B( 18-C , 19-C ) :   1.2343 B( 18-C , 21-H ) :   0.9908
B( 19-C , 20-C ) :   1.5838 B( 19-C , 22-C ) :   1.0389 B( 22-C , 23-H ) :   0.9344
B( 22-C , 24-H ) :   0.9375 B( 22-C , 25-C ) :   1.0788 B( 25-C , 26-H ) :   0.9526
B( 25-C , 27-H ) :   0.9526 B( 25-C , 28-C ) :   1.0623 B( 28-C , 29-H ) :   0.9740
B( 28-C , 30-H ) :   0.9785 B( 28-C , 31-H ) :   0.9778

Dispersion correction           -0.014511864
FINAL SINGLE POINT ENERGY     -1339.859141457834

DIPOLE MOMENT
-------------
                                X             Y             Z
Electronic contribution:      2.38181      12.16101      10.99902
Nuclear contribution   :     -2.26402     -12.53500     -11.12875
                        -----------------------------------------
Total Dipole Moment    :      0.11779      -0.37399      -0.12973
                        -----------------------------------------
Magnitude (a.u.)       :      0.41301
Magnitude (Debye)      :      1.04978

Rotational constants in cm-1:     0.023487     0.007489     0.006564
Rotational constants in MHz :   704.132262   224.521756   196.783631

                             ****ORCA TERMINATED NORMALLY****
TOTAL RUN TIME: 0 days 0 hours 0 minutes 30 seconds 279 msec
