                         Program Version 4.2.1 -  RELEASE  -
|  1> ! wB97X-D3 SP def2-SVP
|  2> %pal
|  3> nprocs 16
|  4> end
|  5>
|  6> * xyz 0 1
|  7> S 	 44.7121 	 21.1439 	 47.5059
|  8> C 	 43.4517 	 19.8786 	 47.198
|  9> C 	 43.9083 	 18.6026 	 47.0053
| 10> C 	 45.3724 	 18.5566 	 47.1744
| 11> C 	 45.9698 	 19.8 	 47.3438
| 12> H 	 46.0352 	 17.7405 	 47.246
| 13> C 	 43.073 	 17.4315 	 46.7034
| 14> H 	 42.0519 	 17.7196 	 46.9268
| 15> H 	 43.3476 	 16.6119 	 47.3783
| 16> C 	 43.1628 	 16.921 	 45.2086
| 17> H 	 44.1764 	 16.8965 	 45.0231
| 18> H 	 42.7957 	 15.9205 	 45.0486
| 19> C 	 42.5319 	 17.7448 	 44.0895
| 20> H 	 43.0593 	 18.682 	 44.0949
| 21> H 	 42.7081 	 17.3392 	 43.1104
| 22> H 	 41.5331 	 18.0387 	 44.3067
| 23> S 	 48.2641 	 19.7802 	 48.8571
| 24> C 	 49.7768 	 20.344 	 48.1986
| 25> C 	 49.5495 	 20.5964 	 46.8601
| 26> C 	 48.2004 	 20.6654 	 46.3923
| 27> C 	 47.368 	 20.101 	 47.3869
| 28> H 	 50.4477 	 20.7458 	 46.3143
| 29> C 	 47.8718 	 20.9926 	 44.9776
| 30> H 	 48.1732 	 22.016 	 44.9222
| 31> H 	 46.8409 	 20.9757 	 44.7474
| 32> C 	 48.5745 	 20.1616 	 43.8717
| 33> H 	 49.724 	 20.4294 	 43.8409
| 34> H 	 48.3309 	 20.5616 	 42.9297
| 35> C 	 48.3546 	 18.6371 	 43.8747
| 36> H 	 48.3806 	 18.1756 	 44.8663
| 37> H 	 49.1457 	 18.1784 	 43.2649
| 38> H 	 47.4353 	 18.3147 	 43.3979
| 39> H 	 42.3733 	 20.1416 	 47.0466
| 40> H 	 50.7616 	 20.0249 	 48.6579
| 41> *
| 42>
| 43>                          ****END OF INPUT****

CARTESIAN COORDINATES (ANGSTROEM)
---------------------------------
  S     44.712100   21.143900   47.505900
  C     43.451700   19.878600   47.198000
  C     43.908300   18.602600   47.005300
  C     45.372400   18.556600   47.174400
  C     45.969800   19.800000   47.343800
  H     46.035200   17.740500   47.246000
  C     43.073000   17.431500   46.703400
  H     42.051900   17.719600   46.926800
  H     43.347600   16.611900   47.378300
  C     43.162800   16.921000   45.208600
  H     44.176400   16.896500   45.023100
  H     42.795700   15.920500   45.048600
  C     42.531900   17.744800   44.089500
  H     43.059300   18.682000   44.094900
  H     42.708100   17.339200   43.110400
  H     41.533100   18.038700   44.306700
  S     48.264100   19.780200   48.857100
  C     49.776800   20.344000   48.198600
  C     49.549500   20.596400   46.860100
  C     48.200400   20.665400   46.392300
  C     47.368000   20.101000   47.386900
  H     50.447700   20.745800   46.314300
  C     47.871800   20.992600   44.977600
  H     48.173200   22.016000   44.922200
  H     46.840900   20.975700   44.747400
  C     48.574500   20.161600   43.871700
  H     49.724000   20.429400   43.840900
  H     48.330900   20.561600   42.929700
  C     48.354600   18.637100   43.874700
  H     48.380600   18.175600   44.866300
  H     49.145700   18.178400   43.264900
  H     47.435300   18.314700   43.397900
  H     42.373300   20.141600   47.046600
  H     50.761600   20.024900   48.657900

 Total Charge           Charge          ....    0
 Multiplicity           Mult            ....    1
 Number of Electrons    NEL             ....  134
 Basis Dimension        Dim             ....  322

ORBITAL ENERGIES
----------------

  NO   OCC          E(Eh)            E(eV)
   0   2.0000     -88.965891     -2420.8850
   1   2.0000     -88.961982     -2420.7786
   2   2.0000     -10.334766      -281.2233
   3   2.0000     -10.327450      -281.0242
   4   2.0000     -10.322150      -280.8800
   5   2.0000     -10.318650      -280.7847
   6   2.0000     -10.307649      -280.4854
   7   2.0000     -10.305780      -280.4345
   8   2.0000     -10.301075      -280.3065
   9   2.0000     -10.296140      -280.1722
  10   2.0000     -10.294633      -280.1312
  11   2.0000     -10.291690      -280.0511
  12   2.0000     -10.286787      -279.9177
  13   2.0000     -10.280926      -279.7582
  14   2.0000     -10.278277      -279.6861
  15   2.0000     -10.269697      -279.4527
  16   2.0000      -8.078387      -219.8241
  17   2.0000      -8.076939      -219.7847
  18   2.0000      -6.037129      -164.2786
  19   2.0000      -6.035419      -164.2321
  20   2.0000      -6.033490      -164.1796
  21   2.0000      -6.031257      -164.1188
  22   2.0000      -6.028732      -164.0501
  23   2.0000      -6.027863      -164.0265
  24   2.0000      -1.001302       -27.2468
  25   2.0000      -0.973961       -26.5028
  26   2.0000      -0.910960       -24.7885
  27   2.0000      -0.908585       -24.7239
  28   2.0000      -0.870618       -23.6907
  29   2.0000      -0.846957       -23.0469
  30   2.0000      -0.844967       -22.9927
  31   2.0000      -0.815123       -22.1806
  32   2.0000      -0.788627       -21.4596
  33   2.0000      -0.774286       -21.0694
  34   2.0000      -0.714273       -19.4363
  35   2.0000      -0.702211       -19.1081
  36   2.0000      -0.693339       -18.8667
  37   2.0000      -0.654675       -17.8146
  38   2.0000      -0.639778       -17.4093
  39   2.0000      -0.616200       -16.7676
  40   2.0000      -0.596426       -16.2296
  41   2.0000      -0.567025       -15.4295
  42   2.0000      -0.557333       -15.1658
  43   2.0000      -0.548810       -14.9339
  44   2.0000      -0.544096       -14.8056
  45   2.0000      -0.535431       -14.5698
  46   2.0000      -0.521231       -14.1834
  47   2.0000      -0.516146       -14.0450
  48   2.0000      -0.496866       -13.5204
  49   2.0000      -0.491953       -13.3867
  50   2.0000      -0.489356       -13.3161
  51   2.0000      -0.481182       -13.0936
  52   2.0000      -0.470089       -12.7918
  53   2.0000      -0.468740       -12.7551
  54   2.0000      -0.459098       -12.4927
  55   2.0000      -0.445629       -12.1262
  56   2.0000      -0.442350       -12.0370
  57   2.0000      -0.438679       -11.9371
  58   2.0000      -0.435362       -11.8468
  59   2.0000      -0.426488       -11.6053
  60   2.0000      -0.418408       -11.3855
  61   2.0000      -0.417639       -11.3645
  62   2.0000      -0.408012       -11.1026
  63   2.0000      -0.333941        -9.0870
  64   2.0000      -0.329161        -8.9569
  65   2.0000      -0.321497        -8.7484
  66   2.0000      -0.306919        -8.3517
  67   0.0000       0.034856         0.9485
  68   0.0000       0.051504         1.4015
  69   0.0000       0.099543         2.7087
  70   0.0000       0.114239         3.1086
  71   0.0000       0.124176         3.3790

MULLIKEN ATOMIC CHARGES
-----------------------
   0 S :    0.090180
   1 C :   -0.134186
   2 C :   -0.084900
   3 C :    0.062551
   4 C :   -0.164509
   5 H :    0.001811
   6 C :    0.081882
   7 H :    0.014604
   8 H :    0.038953
   9 C :   -0.054299
  10 H :    0.005464
  11 H :    0.026449
  12 C :   -0.023558
  13 H :    0.015295
  14 H :    0.036682
  15 H :    0.020263
  16 S :    0.103599
  17 C :   -0.120531
  18 C :   -0.050734
  19 C :   -0.013402
  20 C :   -0.199237
  21 H :    0.010370
  22 C :    0.127001
  23 H :    0.026398
  24 H :    0.017984
  25 C :   -0.092899
  26 H :    0.028144
  27 H :    0.014656
  28 C :   -0.041240
  29 H :    0.042879
  30 H :    0.032423
  31 H :    0.029839
  32 H :    0.061881
  33 H :    0.090187
Sum of atomic charges:   -0.0000000

LOEWDIN ATOMIC CHARGES
----------------------
   0 S :    0.332060
   1 C :   -0.176524
   2 C :   -0.066366
   3 C :   -0.042272
   4 C :   -0.162992
   5 H :    0.025670
   6 C :   -0.026946
   7 H :    0.027523
   8 H :    0.039531
   9 C :   -0.032275
  10 H :    0.012856
  11 H :    0.021606
  12 C :   -0.060663
  13 H :    0.023963
  14 H :    0.028309
  15 H :    0.018754
  16 S :    0.408526
  17 C :   -0.209039
  18 C :   -0.065878
  19 C :   -0.050110
  20 C :   -0.208576
  21 H :    0.023993
  22 C :   -0.028189
  23 H :    0.037562
  24 H :    0.026690
  25 C :   -0.040722
  26 H :    0.029447
  27 H :    0.017981
  28 C :   -0.068789
  29 H :    0.027870
  30 H :    0.031330
  31 H :    0.024233
  32 H :    0.034888
  33 H :    0.046549

  Mayer bond orders larger than 0.100000
B(  0-S ,  1-C ) :   1.1096 B(  0-S ,  4-C ) :   1.0862 B(  1-C ,  2-C ) :   1.6873
B(  1-C , 32-H ) :   0.9523 B(  2-C ,  3-C ) :   1.1452 B(  2-C ,  6-C ) :   1.0433
B(  3-C ,  4-C ) :   1.6698 B(  3-C ,  5-H ) :   0.9899 B(  4-C , 20-C ) :   1.0512
B(  6-C ,  7-H ) :   0.9411 B(  6-C ,  8-H ) :   0.9337 B(  6-C ,  9-C ) :   1.0507
B(  9-C , 10-H ) :   0.9578 B(  9-C , 11-H ) :   0.9603 B(  9-C , 12-C ) :   1.0825
B( 12-C , 13-H ) :   0.9725 B( 12-C , 14-H ) :   0.9723 B( 12-C , 15-H ) :   0.9752
B( 16-S , 17-C ) :   1.1486 B( 16-S , 20-C ) :   1.1711 B( 17-C , 18-C ) :   1.6155
B( 17-C , 20-C ) :   0.1038 B( 17-C , 33-H ) :   0.9547 B( 18-C , 19-C ) :   1.2313
B( 18-C , 21-H ) :   0.9896 B( 19-C , 20-C ) :   1.5366 B( 19-C , 22-C ) :   1.0563
B( 22-C , 23-H ) :   0.9144 B( 22-C , 24-H ) :   0.9334 B( 22-C , 25-C ) :   1.0813
B( 25-C , 26-H ) :   0.9540 B( 25-C , 27-H ) :   0.9516 B( 25-C , 28-C ) :   1.0658
B( 28-C , 29-H ) :   0.9774 B( 28-C , 30-H ) :   0.9724 B( 28-C , 31-H ) :   0.9751

Dispersion correction           -0.015232518
FINAL SINGLE POINT ENERGY     -1339.860070113086

DIPOLE MOMENT
-------------
                                X             Y             Z
Electronic contribution:      5.36114      12.54440      23.65641
Nuclear contribution   :     -5.27820     -12.99888     -24.32065
                        -----------------------------------------
Total Dipole Moment    :      0.08293      -0.45448      -0.66424
                        -----------------------------------------
Magnitude (a.u.)       :      0.80910
Magnitude (Debye)      :      2.05657

Rotational constants in cm-1:     0.019011     0.009041     0.007429
Rotational constants in MHz :   569.946165   271.045951   222.716004

                             ****ORCA TERMINATED NORMALLY****
TOTAL RUN TIME: 0 days 0 hours 0 minutes 33 seconds 387 msec
