                         Program Version 4.2.1 -  RELEASE  -
|  1> ! wB97X-D3 SP def2-SVP
|  2> %pal
|  3> nprocs 16
|  4> end
|  5>
|  6> * xyz 0 1
|  7> S 	 13.5557 	 19.1981 	 40.1251
|  8> C 	 13.6358 	 17.5664 	 39.4581
|  9> C 	 13.255 	 17.6096 	 38.1564
| 10> C 	 12.6715 	 18.8588 	 37.7076
| 11> C 	 12.7151 	 19.7934 	 38.6818
| 12> H 	 12.2526 	 19.1054 	 36.7737
| 13> C 	 13.3164 	 16.4588 	 37.1796
| 14> H 	 12.3396 	 15.9175 	 37.1867
| 15> H 	 14.0062 	 15.7298 	 37.5327
| 16> C 	 13.7069 	 16.7355 	 35.7428
| 17> H 	 13.5426 	 15.8166 	 35.1975
| 18> H 	 13.0911 	 17.527 	 35.3882
| 19> C 	 15.1808 	 17.2039 	 35.5636
| 20> H 	 15.4089 	 17.3766 	 34.5197
| 21> H 	 15.4677 	 18.0363 	 36.0076
| 22> H 	 15.8502 	 16.4687 	 35.8856
| 23> S 	 13.5527 	 22.3865 	 38.8649
| 24> C 	 12.3979 	 23.6656 	 38.7907
| 25> C 	 11.1463 	 23.2081 	 38.3611
| 26> C 	 11.0717 	 21.7923 	 38.2705
| 27> C 	 12.2891 	 21.1818 	 38.6354
| 28> H 	 10.3575 	 23.8612 	 38.1695
| 29> C 	 9.77751 	 21.104 	 37.9158
| 30> H 	 9.84805 	 20.6862 	 36.9608
| 31> H 	 9.12173 	 21.9228 	 37.7934
| 32> C 	 9.26605 	 20.2094 	 39.078
| 33> H 	 9.97455 	 19.3726 	 39.2807
| 34> H 	 8.40109 	 19.6523 	 38.6986
| 35> C 	 8.91596 	 20.9058 	 40.3418
| 36> H 	 8.68281 	 20.2041 	 41.1663
| 37> H 	 8.14262 	 21.6794 	 40.2071
| 38> H 	 9.81313 	 21.4645 	 40.5955
| 39> H 	 14.0936 	 16.7511 	 39.8209
| 40> H 	 12.6063 	 24.7481 	 38.9214
| 41> *
| 42>
| 43>                          ****END OF INPUT****

CARTESIAN COORDINATES (ANGSTROEM)
---------------------------------
  S     13.555700   19.198100   40.125100
  C     13.635800   17.566400   39.458100
  C     13.255000   17.609600   38.156400
  C     12.671500   18.858800   37.707600
  C     12.715100   19.793400   38.681800
  H     12.252600   19.105400   36.773700
  C     13.316400   16.458800   37.179600
  H     12.339600   15.917500   37.186700
  H     14.006200   15.729800   37.532700
  C     13.706900   16.735500   35.742800
  H     13.542600   15.816600   35.197500
  H     13.091100   17.527000   35.388200
  C     15.180800   17.203900   35.563600
  H     15.408900   17.376600   34.519700
  H     15.467700   18.036300   36.007600
  H     15.850200   16.468700   35.885600
  S     13.552700   22.386500   38.864900
  C     12.397900   23.665600   38.790700
  C     11.146300   23.208100   38.361100
  C     11.071700   21.792300   38.270500
  C     12.289100   21.181800   38.635400
  H     10.357500   23.861200   38.169500
  C      9.777510   21.104000   37.915800
  H      9.848050   20.686200   36.960800
  H      9.121730   21.922800   37.793400
  C      9.266050   20.209400   39.078000
  H      9.974550   19.372600   39.280700
  H      8.401090   19.652300   38.698600
  C      8.915960   20.905800   40.341800
  H      8.682810   20.204100   41.166300
  H      8.142620   21.679400   40.207100
  H      9.813130   21.464500   40.595500
  H     14.093600   16.751100   39.820900
  H     12.606300   24.748100   38.921400

 Total Charge           Charge          ....    0
 Multiplicity           Mult            ....    1
 Number of Electrons    NEL             ....  134
 Basis Dimension        Dim             ....  322

ORBITAL ENERGIES
----------------

  NO   OCC          E(Eh)            E(eV)
   0   2.0000     -88.968227     -2420.9485
   1   2.0000     -88.962606     -2420.7956
   2   2.0000     -10.328192      -281.0444
   3   2.0000     -10.325576      -280.9732
   4   2.0000     -10.319059      -280.7959
   5   2.0000     -10.304183      -280.3911
   6   2.0000     -10.303057      -280.3604
   7   2.0000     -10.298891      -280.2471
   8   2.0000     -10.289778      -279.9991
   9   2.0000     -10.289641      -279.9954
  10   2.0000     -10.286141      -279.9001
  11   2.0000     -10.284940      -279.8675
  12   2.0000     -10.284137      -279.8456
  13   2.0000     -10.281844      -279.7832
  14   2.0000     -10.271092      -279.4906
  15   2.0000     -10.259337      -279.1708
  16   2.0000      -8.082964      -219.9486
  17   2.0000      -8.076918      -219.7841
  18   2.0000      -6.041403      -164.3949
  19   2.0000      -6.037393      -164.2858
  20   2.0000      -6.035651      -164.2384
  21   2.0000      -6.033890      -164.1905
  22   2.0000      -6.031570      -164.1274
  23   2.0000      -6.027359      -164.0128
  24   2.0000      -1.006910       -27.3994
  25   2.0000      -0.984342       -26.7853
  26   2.0000      -0.913500       -24.8576
  27   2.0000      -0.912064       -24.8185
  28   2.0000      -0.872391       -23.7390
  29   2.0000      -0.852051       -23.1855
  30   2.0000      -0.843004       -22.9393
  31   2.0000      -0.817860       -22.2551
  32   2.0000      -0.788896       -21.4669
  33   2.0000      -0.778110       -21.1734
  34   2.0000      -0.713391       -19.4124
  35   2.0000      -0.702816       -19.1246
  36   2.0000      -0.688482       -18.7346
  37   2.0000      -0.664155       -18.0726
  38   2.0000      -0.646257       -17.5855
  39   2.0000      -0.626743       -17.0546
  40   2.0000      -0.592467       -16.1218
  41   2.0000      -0.569833       -15.5059
  42   2.0000      -0.558517       -15.1980
  43   2.0000      -0.548982       -14.9386
  44   2.0000      -0.543775       -14.7969
  45   2.0000      -0.540954       -14.7201
  46   2.0000      -0.521505       -14.1909
  47   2.0000      -0.514259       -13.9937
  48   2.0000      -0.507101       -13.7989
  49   2.0000      -0.495801       -13.4914
  50   2.0000      -0.490202       -13.3391
  51   2.0000      -0.475302       -12.9336
  52   2.0000      -0.473540       -12.8857
  53   2.0000      -0.467444       -12.7198
  54   2.0000      -0.465002       -12.6533
  55   2.0000      -0.454092       -12.3565
  56   2.0000      -0.447650       -12.1812
  57   2.0000      -0.438359       -11.9283
  58   2.0000      -0.431877       -11.7520
  59   2.0000      -0.422762       -11.5039
  60   2.0000      -0.420119       -11.4320
  61   2.0000      -0.415828       -11.3152
  62   2.0000      -0.404573       -11.0090
  63   2.0000      -0.344621        -9.3776
  64   2.0000      -0.332937        -9.0597
  65   2.0000      -0.325743        -8.8639
  66   2.0000      -0.295055        -8.0289
  67   0.0000       0.029756         0.8097
  68   0.0000       0.066730         1.8158
  69   0.0000       0.110467         3.0060
  70   0.0000       0.125148         3.4055
  71   0.0000       0.130798         3.5592

MULLIKEN ATOMIC CHARGES
-----------------------
   0 S :    0.095517
   1 C :   -0.049862
   2 C :   -0.094717
   3 C :    0.055027
   4 C :   -0.157844
   5 H :   -0.005352
   6 C :    0.060572
   7 H :    0.045546
   8 H :   -0.002713
   9 C :   -0.059122
  10 H :    0.031466
  11 H :    0.022215
  12 C :    0.010422
  13 H :    0.021749
  14 H :    0.001850
  15 H :    0.007957
  16 S :    0.124808
  17 C :   -0.096949
  18 C :   -0.028372
  19 C :   -0.075728
  20 C :   -0.177515
  21 H :   -0.004641
  22 C :    0.161464
  23 H :    0.021224
  24 H :   -0.012515
  25 C :   -0.088441
  26 H :    0.046475
  27 H :    0.017932
  28 C :   -0.039232
  29 H :    0.047022
  30 H :    0.025580
  31 H :    0.035247
  32 H :   -0.007563
  33 H :    0.068491
Sum of atomic charges:    0.0000000

LOEWDIN ATOMIC CHARGES
----------------------
   0 S :    0.381941
   1 C :   -0.175524
   2 C :   -0.055136
   3 C :   -0.057120
   4 C :   -0.178946
   5 H :    0.025890
   6 C :   -0.037412
   7 H :    0.039009
   8 H :    0.020032
   9 C :   -0.029732
  10 H :    0.028688
  11 H :    0.016293
  12 C :   -0.049444
  13 H :    0.029242
  14 H :    0.006590
  15 H :    0.018795
  16 S :    0.423181
  17 C :   -0.198602
  18 C :   -0.070641
  19 C :   -0.051807
  20 C :   -0.204824
  21 H :    0.020173
  22 C :   -0.020707
  23 H :    0.025901
  24 H :    0.024069
  25 C :   -0.043628
  26 H :    0.031001
  27 H :    0.019815
  28 C :   -0.067189
  29 H :    0.034447
  30 H :    0.023792
  31 H :    0.027880
  32 H :    0.006588
  33 H :    0.037383

  Mayer bond orders larger than 0.100000
B(  0-S ,  1-C ) :   1.1020 B(  0-S ,  4-C ) :   1.1334 B(  1-C ,  2-C ) :   1.6671
B(  1-C , 32-H ) :   0.9783 B(  2-C ,  3-C ) :   1.1683 B(  2-C ,  6-C ) :   1.0251
B(  3-C ,  4-C ) :   1.6268 B(  3-C ,  5-H ) :   1.0047 B(  4-C , 20-C ) :   1.0326
B(  6-C ,  7-H ) :   0.9343 B(  6-C ,  8-H ) :   0.9365 B(  6-C ,  9-C ) :   1.0845
B(  9-C , 10-H ) :   0.9518 B(  9-C , 11-H ) :   0.9538 B(  9-C , 12-C ) :   1.0782
B( 12-C , 13-H ) :   0.9720 B( 12-C , 14-H ) :   0.9747 B( 12-C , 15-H ) :   0.9722
B( 16-S , 17-C ) :   1.1710 B( 16-S , 20-C ) :   1.1635 B( 17-C , 18-C ) :   1.5759
B( 17-C , 20-C ) :   0.1080 B( 17-C , 33-H ) :   0.9626 B( 18-C , 19-C ) :   1.2731
B( 18-C , 21-H ) :   0.9950 B( 19-C , 20-C ) :   1.5505 B( 19-C , 22-C ) :   1.0318
B( 22-C , 23-H ) :   0.9242 B( 22-C , 24-H ) :   0.9230 B( 22-C , 25-C ) :   1.0666
B( 25-C , 26-H ) :   0.9555 B( 25-C , 27-H ) :   0.9527 B( 25-C , 28-C ) :   1.0782
B( 28-C , 29-H ) :   0.9694 B( 28-C , 30-H ) :   0.9721 B( 28-C , 31-H ) :   0.9720

Dispersion correction           -0.015342250
FINAL SINGLE POINT ENERGY     -1339.866128924693

DIPOLE MOMENT
-------------
                                X             Y             Z
Electronic contribution:     10.19768      12.20125      10.91665
Nuclear contribution   :    -10.48486     -12.37544     -11.43843
                        -----------------------------------------
Total Dipole Moment    :     -0.28718      -0.17419      -0.52178
                        -----------------------------------------
Magnitude (a.u.)       :      0.62054
Magnitude (Debye)      :      1.57729

Rotational constants in cm-1:     0.020180     0.008750     0.008004
Rotational constants in MHz :   604.995449   262.308643   239.950218

                             ****ORCA TERMINATED NORMALLY****
TOTAL RUN TIME: 0 days 0 hours 0 minutes 34 seconds 439 msec
