                         Program Version 4.2.1 -  RELEASE  -
|  1> ! wB97X-D3 SP def2-SVP
|  2> %pal
|  3> nprocs 16
|  4> end
|  5>
|  6> * xyz 0 1
|  7> S 	 -13.8635 	 39.169 	 36.2113
|  8> C 	 -13.8813 	 39.2243 	 38.0091
|  9> C 	 -14.1389 	 37.9811 	 38.5626
| 10> C 	 -14.2764 	 37.007 	 37.5044
| 11> C 	 -14.1042 	 37.465 	 36.2389
| 12> H 	 -14.3621 	 35.9477 	 37.6891
| 13> C 	 -14.4233 	 37.6316 	 40.0641
| 14> H 	 -14.8218 	 36.7087 	 40.3409
| 15> H 	 -15.1472 	 38.3901 	 40.4532
| 16> C 	 -13.2029 	 37.8951 	 40.9679
| 17> H 	 -12.9013 	 38.9075 	 40.7689
| 18> H 	 -13.3704 	 37.9915 	 42.0179
| 19> C 	 -11.9496 	 37.0585 	 40.6752
| 20> H 	 -12.169 	 36.0132 	 41.0508
| 21> H 	 -11.6859 	 36.9896 	 39.6468
| 22> H 	 -11.2127 	 37.5419 	 41.3898
| 23> S 	 -12.6078 	 36.1842 	 34.3133
| 24> C 	 -13.4426 	 35.3826 	 33.0554
| 25> C 	 -14.7892 	 35.3718 	 33.2031
| 26> C 	 -15.1862 	 36.0105 	 34.4354
| 27> C 	 -14.1038 	 36.6109 	 35.0578
| 28> H 	 -15.3769 	 34.7168 	 32.5179
| 29> C 	 -16.6637 	 36.0828 	 34.8768
| 30> H 	 -17.208 	 36.5648 	 34.0707
| 31> H 	 -16.695 	 36.7479 	 35.7574
| 32> C 	 -17.3935 	 34.6886 	 35.2269
| 33> H 	 -16.7214 	 33.9053 	 35.6875
| 34> H 	 -17.573 	 34.2238 	 34.2322
| 35> C 	 -18.6109 	 34.9361 	 36.093
| 36> H 	 -19.1158 	 34.0641 	 36.1252
| 37> H 	 -19.249 	 35.8169 	 35.7784
| 38> H 	 -18.2493 	 35.059 	 37.0843
| 39> H 	 -13.7829 	 40.1459 	 38.5845
| 40> H 	 -12.9366 	 34.8479 	 32.281
| 41> *
| 42>
| 43>                          ****END OF INPUT****

CARTESIAN COORDINATES (ANGSTROEM)
---------------------------------
  S    -13.863500   39.169000   36.211300
  C    -13.881300   39.224300   38.009100
  C    -14.138900   37.981100   38.562600
  C    -14.276400   37.007000   37.504400
  C    -14.104200   37.465000   36.238900
  H    -14.362100   35.947700   37.689100
  C    -14.423300   37.631600   40.064100
  H    -14.821800   36.708700   40.340900
  H    -15.147200   38.390100   40.453200
  C    -13.202900   37.895100   40.967900
  H    -12.901300   38.907500   40.768900
  H    -13.370400   37.991500   42.017900
  C    -11.949600   37.058500   40.675200
  H    -12.169000   36.013200   41.050800
  H    -11.685900   36.989600   39.646800
  H    -11.212700   37.541900   41.389800
  S    -12.607800   36.184200   34.313300
  C    -13.442600   35.382600   33.055400
  C    -14.789200   35.371800   33.203100
  C    -15.186200   36.010500   34.435400
  C    -14.103800   36.610900   35.057800
  H    -15.376900   34.716800   32.517900
  C    -16.663700   36.082800   34.876800
  H    -17.208000   36.564800   34.070700
  H    -16.695000   36.747900   35.757400
  C    -17.393500   34.688600   35.226900
  H    -16.721400   33.905300   35.687500
  H    -17.573000   34.223800   34.232200
  C    -18.610900   34.936100   36.093000
  H    -19.115800   34.064100   36.125200
  H    -19.249000   35.816900   35.778400
  H    -18.249300   35.059000   37.084300
  H    -13.782900   40.145900   38.584500
  H    -12.936600   34.847900   32.281000

 Total Charge           Charge          ....    0
 Multiplicity           Mult            ....    1
 Number of Electrons    NEL             ....  134
 Basis Dimension        Dim             ....  322

ORBITAL ENERGIES
----------------

  NO   OCC          E(Eh)            E(eV)
   0   2.0000     -88.967126     -2420.9186
   1   2.0000     -88.963232     -2420.8126
   2   2.0000     -10.321915      -280.8736
   3   2.0000     -10.320258      -280.8285
   4   2.0000     -10.319665      -280.8124
   5   2.0000     -10.309402      -280.5331
   6   2.0000     -10.308565      -280.5103
   7   2.0000     -10.303833      -280.3815
   8   2.0000     -10.296885      -280.1925
   9   2.0000     -10.295139      -280.1450
  10   2.0000     -10.293602      -280.1031
  11   2.0000     -10.292039      -280.0606
  12   2.0000     -10.288935      -279.9762
  13   2.0000     -10.279344      -279.7152
  14   2.0000     -10.279049      -279.7071
  15   2.0000     -10.271813      -279.5102
  16   2.0000      -8.081584      -219.9111
  17   2.0000      -8.079410      -219.8519
  18   2.0000      -6.040172      -164.3614
  19   2.0000      -6.037738      -164.2952
  20   2.0000      -6.036198      -164.2533
  21   2.0000      -6.033774      -164.1873
  22   2.0000      -6.032207      -164.1447
  23   2.0000      -6.030231      -164.0909
  24   2.0000      -1.010074       -27.4855
  25   2.0000      -0.985539       -26.8179
  26   2.0000      -0.909695       -24.7541
  27   2.0000      -0.899362       -24.4729
  28   2.0000      -0.868491       -23.6329
  29   2.0000      -0.853291       -23.2192
  30   2.0000      -0.843184       -22.9442
  31   2.0000      -0.812797       -22.1173
  32   2.0000      -0.785128       -21.3644
  33   2.0000      -0.772555       -21.0223
  34   2.0000      -0.701967       -19.1015
  35   2.0000      -0.697755       -18.9869
  36   2.0000      -0.691918       -18.8280
  37   2.0000      -0.652764       -17.7626
  38   2.0000      -0.641921       -17.4676
  39   2.0000      -0.614319       -16.7165
  40   2.0000      -0.594600       -16.1799
  41   2.0000      -0.576421       -15.6852
  42   2.0000      -0.556705       -15.1487
  43   2.0000      -0.548646       -14.9294
  44   2.0000      -0.538309       -14.6481
  45   2.0000      -0.528978       -14.3942
  46   2.0000      -0.515560       -14.0291
  47   2.0000      -0.506893       -13.7933
  48   2.0000      -0.503480       -13.7004
  49   2.0000      -0.493061       -13.4169
  50   2.0000      -0.489252       -13.3132
  51   2.0000      -0.480507       -13.0753
  52   2.0000      -0.472392       -12.8544
  53   2.0000      -0.469770       -12.7831
  54   2.0000      -0.461875       -12.5683
  55   2.0000      -0.447199       -12.1689
  56   2.0000      -0.442192       -12.0326
  57   2.0000      -0.436348       -11.8736
  58   2.0000      -0.429294       -11.6817
  59   2.0000      -0.426095       -11.5946
  60   2.0000      -0.417490       -11.3605
  61   2.0000      -0.409533       -11.1440
  62   2.0000      -0.408654       -11.1200
  63   2.0000      -0.337004        -9.1704
  64   2.0000      -0.329325        -8.9614
  65   2.0000      -0.325803        -8.8656
  66   2.0000      -0.307781        -8.3751
  67   0.0000       0.046297         1.2598
  68   0.0000       0.063009         1.7146
  69   0.0000       0.111295         3.0285
  70   0.0000       0.121621         3.3095
  71   0.0000       0.130751         3.5579

MULLIKEN ATOMIC CHARGES
-----------------------
   0 S :    0.120413
   1 C :   -0.142631
   2 C :   -0.067858
   3 C :    0.035626
   4 C :   -0.174202
   5 H :    0.008144
   6 C :    0.104828
   7 H :    0.012713
   8 H :    0.037210
   9 C :   -0.097698
  10 H :    0.003520
  11 H :    0.018957
  12 C :   -0.061249
  13 H :    0.027878
  14 H :    0.049145
  15 H :    0.044604
  16 S :    0.126343
  17 C :   -0.088023
  18 C :   -0.039614
  19 C :   -0.024000
  20 C :   -0.187230
  21 H :    0.034584
  22 C :    0.053406
  23 H :    0.038593
  24 H :    0.032322
  25 C :   -0.127261
  26 H :    0.037993
  27 H :    0.028655
  28 C :    0.011297
  29 H :    0.007215
  30 H :    0.049725
  31 H :    0.026603
  32 H :    0.054278
  33 H :    0.045711
Sum of atomic charges:    0.0000000

LOEWDIN ATOMIC CHARGES
----------------------
   0 S :    0.402365
   1 C :   -0.182451
   2 C :   -0.056252
   3 C :   -0.063481
   4 C :   -0.209491
   5 H :    0.029396
   6 C :   -0.023110
   7 H :    0.018376
   8 H :    0.041862
   9 C :   -0.049663
  10 H :    0.015696
  11 H :    0.020210
  12 C :   -0.065940
  13 H :    0.024664
  14 H :    0.021853
  15 H :    0.037015
  16 S :    0.430238
  17 C :   -0.189723
  18 C :   -0.081894
  19 C :   -0.048892
  20 C :   -0.217546
  21 H :    0.039635
  22 C :   -0.030807
  23 H :    0.032478
  24 H :    0.028689
  25 C :   -0.043024
  26 H :    0.029001
  27 H :    0.019631
  28 C :   -0.057227
  29 H :    0.012677
  30 H :    0.036995
  31 H :    0.026654
  32 H :    0.028419
  33 H :    0.023648

  Mayer bond orders larger than 0.100000
B(  0-S ,  1-C ) :   1.1334 B(  0-S ,  4-C ) :   1.1450 B(  1-C ,  2-C ) :   1.6316
B(  1-C , 32-H ) :   0.9637 B(  2-C ,  3-C ) :   1.2214 B(  2-C ,  6-C ) :   1.0031
B(  3-C ,  4-C ) :   1.6113 B(  3-C ,  5-H ) :   0.9974 B(  4-C , 20-C ) :   1.0057
B(  6-C ,  7-H ) :   0.9586 B(  6-C ,  8-H ) :   0.9403 B(  6-C ,  9-C ) :   1.0631
B(  9-C , 10-H ) :   0.9564 B(  9-C , 11-H ) :   0.9568 B(  9-C , 12-C ) :   1.0711
B( 12-C , 13-H ) :   0.9767 B( 12-C , 14-H ) :   0.9758 B( 12-C , 15-H ) :   0.9743
B( 16-S , 17-C ) :   1.1643 B( 16-S , 20-C ) :   1.1514 B( 17-C , 18-C ) :   1.6329
B( 17-C , 33-H ) :   0.9661 B( 18-C , 19-C ) :   1.2229 B( 18-C , 21-H ) :   0.9823
B( 19-C , 20-C ) :   1.6175 B( 19-C , 22-C ) :   1.0425 B( 22-C , 23-H ) :   0.9375
B( 22-C , 24-H ) :   0.9418 B( 22-C , 25-C ) :   1.0335 B( 25-C , 26-H ) :   0.9623
B( 25-C , 27-H ) :   0.9578 B( 25-C , 28-C ) :   1.0798 B( 28-C , 29-H ) :   0.9679
B( 28-C , 30-H ) :   0.9732 B( 28-C , 31-H ) :   0.9712

Dispersion correction           -0.014201956
FINAL SINGLE POINT ENERGY     -1339.865269949498

DIPOLE MOMENT
-------------
                                X             Y             Z
Electronic contribution:     12.61249       8.78411     -18.72561
Nuclear contribution   :    -13.04366      -9.13608      19.08984
                        -----------------------------------------
Total Dipole Moment    :     -0.43117      -0.35197       0.36422
                        -----------------------------------------
Magnitude (a.u.)       :      0.66517
Magnitude (Debye)      :      1.69072

Rotational constants in cm-1:     0.017611     0.008470     0.006943
Rotational constants in MHz :   527.967692   253.927837   208.155491

                             ****ORCA TERMINATED NORMALLY****
TOTAL RUN TIME: 0 days 0 hours 0 minutes 33 seconds 642 msec
