                         Program Version 4.2.1 -  RELEASE  -
|  1> ! wB97X-D3 SP def2-SVP
|  2> %pal
|  3> nprocs 16
|  4> end
|  5>
|  6> * xyz 0 1
|  7> S 	 0.718993 	 31.0538 	 44.2574
|  8> C 	 0.256954 	 29.6952 	 43.2668
|  9> C 	 -0.252715 	 30.1216 	 42.0308
| 10> C 	 -0.274254 	 31.5678 	 41.9172
| 11> C 	 0.163016 	 32.2117 	 43.0797
| 12> H 	 -0.687255 	 32.1495 	 41.0677
| 13> C 	 -0.657502 	 29.1986 	 40.8719
| 14> H 	 -1.20357 	 29.8606 	 40.0657
| 15> H 	 -1.33235 	 28.4535 	 41.2232
| 16> C 	 0.500004 	 28.4474 	 40.194
| 17> H 	 1.12121 	 29.1935 	 39.7178
| 18> H 	 1.14305 	 27.9099 	 40.8124
| 19> C 	 -0.00834766 	 27.3842 	 39.2633
| 20> H 	 -0.594682 	 26.6079 	 39.7054
| 21> H 	 -0.546317 	 28.0228 	 38.5673
| 22> H 	 0.804535 	 26.8301 	 38.8674
| 23> S 	 -0.952305 	 34.5523 	 44.2088
| 24> C 	 -0.296858 	 36.0784 	 43.7407
| 25> C 	 0.709311 	 35.9101 	 42.8588
| 26> C 	 1.02668 	 34.5945 	 42.5176
| 27> C 	 0.20774 	 33.6521 	 43.1613
| 28> H 	 1.21404 	 36.7218 	 42.3998
| 29> C 	 2.03095 	 34.2416 	 41.4134
| 30> H 	 1.63177 	 34.4146 	 40.4169
| 31> H 	 2.17636 	 33.1802 	 41.4838
| 32> C 	 3.44815 	 34.8334 	 41.4377
| 33> H 	 3.99849 	 34.2809 	 42.2206
| 34> H 	 3.3402 	 35.9117 	 41.7099
| 35> C 	 4.24687 	 34.5968 	 40.1571
| 36> H 	 4.56169 	 33.5906 	 40.0529
| 37> H 	 5.15525 	 35.1585 	 40.114
| 38> H 	 3.60038 	 34.8679 	 39.3452
| 39> H 	 0.412744 	 28.6939 	 43.5596
| 40> H 	 -0.693206 	 37.06 	 44.102
| 41> *
| 42>
| 43>                          ****END OF INPUT****

CARTESIAN COORDINATES (ANGSTROEM)
---------------------------------
  S      0.718993   31.053800   44.257400
  C      0.256954   29.695200   43.266800
  C     -0.252715   30.121600   42.030800
  C     -0.274254   31.567800   41.917200
  C      0.163016   32.211700   43.079700
  H     -0.687255   32.149500   41.067700
  C     -0.657502   29.198600   40.871900
  H     -1.203570   29.860600   40.065700
  H     -1.332350   28.453500   41.223200
  C      0.500004   28.447400   40.194000
  H      1.121210   29.193500   39.717800
  H      1.143050   27.909900   40.812400
  C     -0.008348   27.384200   39.263300
  H     -0.594682   26.607900   39.705400
  H     -0.546317   28.022800   38.567300
  H      0.804535   26.830100   38.867400
  S     -0.952305   34.552300   44.208800
  C     -0.296858   36.078400   43.740700
  C      0.709311   35.910100   42.858800
  C      1.026680   34.594500   42.517600
  C      0.207740   33.652100   43.161300
  H      1.214040   36.721800   42.399800
  C      2.030950   34.241600   41.413400
  H      1.631770   34.414600   40.416900
  H      2.176360   33.180200   41.483800
  C      3.448150   34.833400   41.437700
  H      3.998490   34.280900   42.220600
  H      3.340200   35.911700   41.709900
  C      4.246870   34.596800   40.157100
  H      4.561690   33.590600   40.052900
  H      5.155250   35.158500   40.114000
  H      3.600380   34.867900   39.345200
  H      0.412744   28.693900   43.559600
  H     -0.693206   37.060000   44.102000

 Total Charge           Charge          ....    0
 Multiplicity           Mult            ....    1
 Number of Electrons    NEL             ....  134
 Basis Dimension        Dim             ....  322

ORBITAL ENERGIES
----------------

  NO   OCC          E(Eh)            E(eV)
   0   2.0000     -88.969907     -2420.9942
   1   2.0000     -88.962193     -2420.7843
   2   2.0000     -10.328483      -281.0523
   3   2.0000     -10.327936      -281.0374
   4   2.0000     -10.317411      -280.7510
   5   2.0000     -10.315463      -280.6980
   6   2.0000     -10.306847      -280.4636
   7   2.0000     -10.302482      -280.3448
   8   2.0000     -10.299947      -280.2758
   9   2.0000     -10.299934      -280.2754
  10   2.0000     -10.287126      -279.9269
  11   2.0000     -10.286052      -279.8977
  12   2.0000     -10.282801      -279.8093
  13   2.0000     -10.276888      -279.6483
  14   2.0000     -10.271381      -279.4985
  15   2.0000     -10.270646      -279.4785
  16   2.0000      -8.084473      -219.9897
  17   2.0000      -8.076789      -219.7806
  18   2.0000      -6.042997      -164.4383
  19   2.0000      -6.038857      -164.3257
  20   2.0000      -6.035371      -164.2308
  21   2.0000      -6.035232      -164.2270
  22   2.0000      -6.031240      -164.1184
  23   2.0000      -6.027692      -164.0218
  24   2.0000      -1.003717       -27.3125
  25   2.0000      -0.983593       -26.7649
  26   2.0000      -0.915917       -24.9234
  27   2.0000      -0.907709       -24.7000
  28   2.0000      -0.872788       -23.7498
  29   2.0000      -0.852881       -23.2081
  30   2.0000      -0.849304       -23.1107
  31   2.0000      -0.811468       -22.0812
  32   2.0000      -0.783133       -21.3101
  33   2.0000      -0.770882       -20.9768
  34   2.0000      -0.704255       -19.1637
  35   2.0000      -0.701172       -19.0799
  36   2.0000      -0.693923       -18.8826
  37   2.0000      -0.653519       -17.7832
  38   2.0000      -0.645595       -17.5675
  39   2.0000      -0.615219       -16.7410
  40   2.0000      -0.600610       -16.3434
  41   2.0000      -0.581916       -15.8347
  42   2.0000      -0.570736       -15.5305
  43   2.0000      -0.562667       -15.3109
  44   2.0000      -0.525242       -14.2926
  45   2.0000      -0.523643       -14.2491
  46   2.0000      -0.518092       -14.0980
  47   2.0000      -0.514214       -13.9925
  48   2.0000      -0.507901       -13.8207
  49   2.0000      -0.503405       -13.6983
  50   2.0000      -0.491390       -13.3714
  51   2.0000      -0.478562       -13.0223
  52   2.0000      -0.475305       -12.9337
  53   2.0000      -0.468409       -12.7461
  54   2.0000      -0.460383       -12.5277
  55   2.0000      -0.454091       -12.3564
  56   2.0000      -0.439799       -11.9675
  57   2.0000      -0.436406       -11.8752
  58   2.0000      -0.433867       -11.8061
  59   2.0000      -0.422865       -11.5068
  60   2.0000      -0.418606       -11.3908
  61   2.0000      -0.414588       -11.2815
  62   2.0000      -0.407476       -11.0880
  63   2.0000      -0.337146        -9.1742
  64   2.0000      -0.329305        -8.9609
  65   2.0000      -0.326671        -8.8892
  66   2.0000      -0.302890        -8.2421
  67   0.0000       0.036431         0.9913
  68   0.0000       0.057801         1.5729
  69   0.0000       0.122111         3.3228
  70   0.0000       0.122623         3.3367
  71   0.0000       0.129580         3.5260

MULLIKEN ATOMIC CHARGES
-----------------------
   0 S :    0.130013
   1 C :   -0.112433
   2 C :   -0.063204
   3 C :    0.013743
   4 C :   -0.170543
   5 H :    0.034035
   6 C :    0.032970
   7 H :    0.040698
   8 H :    0.022514
   9 C :   -0.052933
  10 H :    0.024542
  11 H :    0.004745
  12 C :   -0.019130
  13 H :    0.025925
  14 H :    0.027598
  15 H :    0.023347
  16 S :    0.101319
  17 C :   -0.098986
  18 C :   -0.015109
  19 C :    0.008979
  20 C :   -0.200145
  21 H :   -0.000236
  22 C :    0.061515
  23 H :    0.027406
  24 H :    0.021267
  25 C :   -0.113348
  26 H :    0.034981
  27 H :    0.033816
  28 C :   -0.006478
  29 H :    0.023598
  30 H :    0.030306
  31 H :    0.019068
  32 H :    0.035714
  33 H :    0.074444
Sum of atomic charges:   -0.0000000

LOEWDIN ATOMIC CHARGES
----------------------
   0 S :    0.423092
   1 C :   -0.192262
   2 C :   -0.061677
   3 C :   -0.057815
   4 C :   -0.213341
   5 H :    0.039514
   6 C :   -0.032378
   7 H :    0.040607
   8 H :    0.025071
   9 C :   -0.037842
  10 H :    0.023748
  11 H :    0.011542
  12 C :   -0.057298
  13 H :    0.022129
  14 H :    0.026728
  15 H :    0.023247
  16 S :    0.394360
  17 C :   -0.190062
  18 C :   -0.079429
  19 C :   -0.048381
  20 C :   -0.188297
  21 H :    0.024900
  22 C :   -0.034054
  23 H :    0.027454
  24 H :    0.028629
  25 C :   -0.042736
  26 H :    0.027922
  27 H :    0.021887
  28 C :   -0.056991
  29 H :    0.022531
  30 H :    0.026839
  31 H :    0.020650
  32 H :    0.019617
  33 H :    0.042097

  Mayer bond orders larger than 0.100000
B(  0-S ,  1-C ) :   1.1516 B(  0-S ,  4-C ) :   1.1581 B(  1-C ,  2-C ) :   1.5787
B(  1-C , 32-H ) :   0.9791 B(  2-C ,  3-C ) :   1.2616 B(  2-C ,  6-C ) :   1.0196
B(  3-C ,  4-C ) :   1.5498 B(  3-C ,  5-H ) :   0.9865 B(  4-C , 20-C ) :   1.0554
B(  6-C ,  7-H ) :   0.9446 B(  6-C ,  8-H ) :   0.9397 B(  6-C ,  9-C ) :   1.0654
B(  9-C , 10-H ) :   0.9548 B(  9-C , 11-H ) :   0.9565 B(  9-C , 12-C ) :   1.0797
B( 12-C , 13-H ) :   0.9736 B( 12-C , 14-H ) :   0.9777 B( 12-C , 15-H ) :   0.9711
B( 16-S , 17-C ) :   1.1657 B( 16-S , 20-C ) :   1.1385 B( 17-C , 18-C ) :   1.5870
B( 17-C , 20-C ) :   0.1021 B( 17-C , 33-H ) :   0.9608 B( 18-C , 19-C ) :   1.2692
B( 18-C , 21-H ) :   0.9929 B( 19-C , 20-C ) :   1.5778 B( 19-C , 22-C ) :   1.0367
B( 22-C , 23-H ) :   0.9412 B( 22-C , 24-H ) :   0.9293 B( 22-C , 25-C ) :   1.0582
B( 25-C , 26-H ) :   0.9561 B( 25-C , 27-H ) :   0.9603 B( 25-C , 28-C ) :   1.0843
B( 28-C , 29-H ) :   0.9743 B( 28-C , 30-H ) :   0.9715 B( 28-C , 31-H ) :   0.9743

Dispersion correction           -0.013468653
FINAL SINGLE POINT ENERGY     -1339.874466083555

DIPOLE MOMENT
-------------
                                X             Y             Z
Electronic contribution:    -12.26824       9.68913      25.34248
Nuclear contribution   :     12.52906      -9.85778     -25.96873
                        -----------------------------------------
Total Dipole Moment    :      0.26083      -0.16865      -0.62626
                        -----------------------------------------
Magnitude (a.u.)       :      0.69905
Magnitude (Debye)      :      1.77684

Rotational constants in cm-1:     0.017346     0.007940     0.006226
Rotational constants in MHz :   520.005058   238.043817   186.655017

                             ****ORCA TERMINATED NORMALLY****
TOTAL RUN TIME: 0 days 0 hours 0 minutes 33 seconds 289 msec
