                         Program Version 4.2.1 -  RELEASE  -
|  1> ! wB97X-D3 SP def2-SVP
|  2> %pal
|  3> nprocs 16
|  4> end
|  5>
|  6> * xyz 0 1
|  7> S 	 50.2364 	 11.6495 	 78.4514
|  8> C 	 48.8356 	 10.6298 	 78.3874
|  9> C 	 47.604 	 11.2649 	 78.4193
| 10> C 	 47.8646 	 12.6882 	 78.2258
| 11> C 	 49.211 	 13.0232 	 78.3021
| 12> H 	 47.0932 	 13.4226 	 78.178
| 13> C 	 46.2015 	 10.6502 	 78.5275
| 14> H 	 46.1192 	 9.93329 	 79.385
| 15> H 	 45.9757 	 10.2438 	 77.5581
| 16> C 	 45.1796 	 11.6737 	 78.8937
| 17> H 	 45.511 	 12.2438 	 79.8046
| 18> H 	 45.1532 	 12.4354 	 78.0779
| 19> C 	 43.808 	 11.1559 	 79.1378
| 20> H 	 43.5282 	 10.4868 	 78.2741
| 21> H 	 43.7616 	 10.6168 	 80.1176
| 22> H 	 43.0717 	 11.9077 	 79.148
| 23> S 	 50.6785 	 14.4498 	 76.4879
| 24> C 	 50.5761 	 16.221 	 76.4759
| 25> C 	 49.6947 	 16.6485 	 77.3812
| 26> C 	 49.2616 	 15.6155 	 78.2783
| 27> C 	 49.7324 	 14.3353 	 77.9768
| 28> H 	 49.6105 	 17.695 	 77.4168
| 29> C 	 48.3143 	 15.9271 	 79.405
| 30> H 	 47.8512 	 14.9963 	 79.7135
| 31> H 	 47.4906 	 16.4645 	 78.9981
| 32> C 	 49.0474 	 16.782 	 80.5289
| 33> H 	 49.4594 	 17.6528 	 80.0733
| 34> H 	 49.8613 	 16.1752 	 80.9529
| 35> C 	 48.0177 	 17.2194 	 81.5705
| 36> H 	 47.3244 	 17.8308 	 81.0805
| 37> H 	 48.4626 	 17.9058 	 82.3165
| 38> H 	 47.4862 	 16.4495 	 82.0993
| 39> H 	 48.8958 	 9.59747 	 78.7206
| 40> H 	 50.9393 	 16.9178 	 75.7675
| 41> *
| 42>
| 43>                          ****END OF INPUT****

CARTESIAN COORDINATES (ANGSTROEM)
---------------------------------
  S     50.236400   11.649500   78.451400
  C     48.835600   10.629800   78.387400
  C     47.604000   11.264900   78.419300
  C     47.864600   12.688200   78.225800
  C     49.211000   13.023200   78.302100
  H     47.093200   13.422600   78.178000
  C     46.201500   10.650200   78.527500
  H     46.119200    9.933290   79.385000
  H     45.975700   10.243800   77.558100
  C     45.179600   11.673700   78.893700
  H     45.511000   12.243800   79.804600
  H     45.153200   12.435400   78.077900
  C     43.808000   11.155900   79.137800
  H     43.528200   10.486800   78.274100
  H     43.761600   10.616800   80.117600
  H     43.071700   11.907700   79.148000
  S     50.678500   14.449800   76.487900
  C     50.576100   16.221000   76.475900
  C     49.694700   16.648500   77.381200
  C     49.261600   15.615500   78.278300
  C     49.732400   14.335300   77.976800
  H     49.610500   17.695000   77.416800
  C     48.314300   15.927100   79.405000
  H     47.851200   14.996300   79.713500
  H     47.490600   16.464500   78.998100
  C     49.047400   16.782000   80.528900
  H     49.459400   17.652800   80.073300
  H     49.861300   16.175200   80.952900
  C     48.017700   17.219400   81.570500
  H     47.324400   17.830800   81.080500
  H     48.462600   17.905800   82.316500
  H     47.486200   16.449500   82.099300
  H     48.895800    9.597470   78.720600
  H     50.939300   16.917800   75.767500

 Total Charge           Charge          ....    0
 Multiplicity           Mult            ....    1
 Number of Electrons    NEL             ....  134
 Basis Dimension        Dim             ....  322

ORBITAL ENERGIES
----------------

  NO   OCC          E(Eh)            E(eV)
   0   2.0000     -88.969366     -2420.9795
   1   2.0000     -88.957604     -2420.6595
   2   2.0000     -10.326829      -281.0073
   3   2.0000     -10.323367      -280.9131
   4   2.0000     -10.310724      -280.5691
   5   2.0000     -10.309596      -280.5384
   6   2.0000     -10.306400      -280.4514
   7   2.0000     -10.300725      -280.2970
   8   2.0000     -10.298894      -280.2471
   9   2.0000     -10.295144      -280.1451
  10   2.0000     -10.288562      -279.9660
  11   2.0000     -10.287271      -279.9309
  12   2.0000     -10.284679      -279.8603
  13   2.0000     -10.283696      -279.8336
  14   2.0000     -10.282105      -279.7903
  15   2.0000     -10.270989      -279.4878
  16   2.0000      -8.084818      -219.9991
  17   2.0000      -8.072055      -219.6518
  18   2.0000      -6.043199      -164.4438
  19   2.0000      -6.039327      -164.3384
  20   2.0000      -6.035575      -164.2363
  21   2.0000      -6.030752      -164.1051
  22   2.0000      -6.026650      -163.9935
  23   2.0000      -6.022547      -163.8818
  24   2.0000      -1.008138       -27.4328
  25   2.0000      -0.983608       -26.7653
  26   2.0000      -0.925091       -25.1730
  27   2.0000      -0.903305       -24.5802
  28   2.0000      -0.876440       -23.8492
  29   2.0000      -0.853866       -23.2349
  30   2.0000      -0.844196       -22.9717
  31   2.0000      -0.817425       -22.2433
  32   2.0000      -0.787415       -21.4267
  33   2.0000      -0.766894       -20.8682
  34   2.0000      -0.711541       -19.3620
  35   2.0000      -0.702383       -19.1128
  36   2.0000      -0.685260       -18.6469
  37   2.0000      -0.656541       -17.8654
  38   2.0000      -0.639069       -17.3899
  39   2.0000      -0.625152       -17.0113
  40   2.0000      -0.589523       -16.0417
  41   2.0000      -0.585477       -15.9316
  42   2.0000      -0.574732       -15.6393
  43   2.0000      -0.562622       -15.3097
  44   2.0000      -0.529863       -14.4183
  45   2.0000      -0.521575       -14.1928
  46   2.0000      -0.519505       -14.1364
  47   2.0000      -0.510127       -13.8813
  48   2.0000      -0.505288       -13.7496
  49   2.0000      -0.497106       -13.5270
  50   2.0000      -0.493457       -13.4277
  51   2.0000      -0.479024       -13.0349
  52   2.0000      -0.471464       -12.8292
  53   2.0000      -0.465245       -12.6600
  54   2.0000      -0.459261       -12.4971
  55   2.0000      -0.452720       -12.3191
  56   2.0000      -0.443836       -12.0774
  57   2.0000      -0.436838       -11.8870
  58   2.0000      -0.433318       -11.7912
  59   2.0000      -0.425861       -11.5883
  60   2.0000      -0.424156       -11.5419
  61   2.0000      -0.416337       -11.3291
  62   2.0000      -0.410510       -11.1705
  63   2.0000      -0.350948        -9.5498
  64   2.0000      -0.332722        -9.0538
  65   2.0000      -0.321664        -8.7529
  66   2.0000      -0.292813        -7.9679
  67   0.0000       0.032168         0.8753
  68   0.0000       0.070362         1.9147
  69   0.0000       0.112155         3.0519
  70   0.0000       0.116170         3.1612
  71   0.0000       0.130802         3.5593

MULLIKEN ATOMIC CHARGES
-----------------------
   0 S :    0.127461
   1 C :   -0.115662
   2 C :   -0.124205
   3 C :    0.033135
   4 C :   -0.170427
   5 H :    0.006085
   6 C :    0.115281
   7 H :    0.039026
   8 H :    0.044426
   9 C :   -0.183509
  10 H :    0.039298
  11 H :    0.036059
  12 C :   -0.001062
  13 H :    0.029354
  14 H :    0.039864
  15 H :    0.022510
  16 S :    0.077933
  17 C :   -0.068237
  18 C :   -0.017341
  19 C :   -0.088349
  20 C :   -0.087283
  21 H :    0.004852
  22 C :    0.074024
  23 H :    0.012276
  24 H :    0.010692
  25 C :   -0.060791
  26 H :    0.023047
  27 H :    0.041386
  28 C :   -0.014950
  29 H :    0.007193
  30 H :    0.029276
  31 H :    0.031531
  32 H :    0.048130
  33 H :    0.038979
Sum of atomic charges:    0.0000000

LOEWDIN ATOMIC CHARGES
----------------------
   0 S :    0.429822
   1 C :   -0.205286
   2 C :   -0.055622
   3 C :   -0.051839
   4 C :   -0.210452
   5 H :    0.022150
   6 C :   -0.027834
   7 H :    0.039173
   8 H :    0.035636
   9 C :   -0.058945
  10 H :    0.028287
  11 H :    0.022557
  12 C :   -0.062701
  13 H :    0.031278
  14 H :    0.031026
  15 H :    0.020505
  16 S :    0.378316
  17 C :   -0.164291
  18 C :   -0.072179
  19 C :   -0.052840
  20 C :   -0.198263
  21 H :    0.026457
  22 C :   -0.031424
  23 H :    0.024540
  24 H :    0.023946
  25 C :   -0.024912
  26 H :    0.020270
  27 H :    0.028343
  28 C :   -0.063625
  29 H :    0.016143
  30 H :    0.028442
  31 H :    0.023009
  32 H :    0.023921
  33 H :    0.026393

  Mayer bond orders larger than 0.100000
B(  0-S ,  1-C ) :   1.1493 B(  0-S ,  4-C ) :   1.1588 B(  1-C ,  2-C ) :   1.6379
B(  1-C , 32-H ) :   0.9570 B(  2-C ,  3-C ) :   1.2453 B(  2-C ,  6-C ) :   1.0046
B(  3-C ,  4-C ) :   1.5636 B(  3-C ,  5-H ) :   0.9825 B(  4-C , 20-C ) :   1.0194
B(  6-C ,  7-H ) :   0.9440 B(  6-C ,  8-H ) :   0.9257 B(  6-C ,  9-C ) :   1.0895
B(  9-C , 10-H ) :   0.9561 B(  9-C , 11-H ) :   0.9365 B(  9-C , 12-C ) :   1.0965
B( 12-C , 13-H ) :   0.9677 B( 12-C , 14-H ) :   0.9697 B( 12-C , 15-H ) :   0.9690
B( 16-S , 17-C ) :   1.1362 B( 16-S , 20-C ) :   1.1150 B( 17-C , 18-C ) :   1.6689
B( 17-C , 33-H ) :   0.9632 B( 18-C , 19-C ) :   1.2076 B( 18-C , 21-H ) :   0.9934
B( 19-C , 20-C ) :   1.6174 B( 19-C , 22-C ) :   1.0542 B( 22-C , 23-H ) :   0.9316
B( 22-C , 24-H ) :   0.9335 B( 22-C , 25-C ) :   1.0498 B( 25-C , 26-H ) :   0.9584
B( 25-C , 27-H ) :   0.9581 B( 25-C , 28-C ) :   1.0849 B( 28-C , 29-H ) :   0.9716
B( 28-C , 30-H ) :   0.9725 B( 28-C , 31-H ) :   0.9761

Dispersion correction           -0.013622317
FINAL SINGLE POINT ENERGY     -1339.867429107786

DIPOLE MOMENT
-------------
                                X             Y             Z
Electronic contribution:     25.30039      -6.46309     -15.01229
Nuclear contribution   :    -26.09974       6.74705      15.25336
                        -----------------------------------------
Total Dipole Moment    :     -0.79935       0.28396       0.24107
                        -----------------------------------------
Magnitude (a.u.)       :      0.88188
Magnitude (Debye)      :      2.24156

Rotational constants in cm-1:     0.015828     0.009044     0.006782
Rotational constants in MHz :   474.515603   271.133660   203.315081

                             ****ORCA TERMINATED NORMALLY****
TOTAL RUN TIME: 0 days 0 hours 0 minutes 30 seconds 657 msec
