                         Program Version 4.2.1 -  RELEASE  -
|  1> ! wB97X-D3 SP def2-SVP
|  2> %pal
|  3> nprocs 16
|  4> end
|  5>
|  6> * xyz 0 1
|  7> S 	 -34.8727 	 68.3913 	 107.252
|  8> C 	 -33.7838 	 68.0218 	 105.932
|  9> C 	 -33.3455 	 69.1491 	 105.341
| 10> C 	 -34.013 	 70.3847 	 105.874
| 11> C 	 -34.9341 	 70.1442 	 106.848
| 12> H 	 -33.7139 	 71.3146 	 105.463
| 13> C 	 -32.3636 	 69.1498 	 104.166
| 14> H 	 -32.6827 	 68.3119 	 103.542
| 15> H 	 -31.3229 	 68.9492 	 104.547
| 16> C 	 -32.2717 	 70.3733 	 103.252
| 17> H 	 -33.1621 	 70.4387 	 102.754
| 18> H 	 -32.2051 	 71.285 	 103.787
| 19> C 	 -31.1217 	 70.2118 	 102.223
| 20> H 	 -31.1727 	 71.0533 	 101.503
| 21> H 	 -30.182 	 70.4649 	 102.737
| 22> H 	 -31.0301 	 69.3064 	 101.695
| 23> S 	 -36.1946 	 70.8914 	 109.228
| 24> C 	 -36.9517 	 72.5019 	 109.304
| 25> C 	 -36.9 	 73.1308 	 108.084
| 26> C 	 -36.2265 	 72.3596 	 107.062
| 27> C 	 -35.7065 	 71.1333 	 107.552
| 28> H 	 -37.4494 	 74.0577 	 107.989
| 29> C 	 -36.334 	 72.8643 	 105.581
| 30> H 	 -35.8041 	 72.186 	 104.915
| 31> H 	 -36.0074 	 73.8957 	 105.61
| 32> C 	 -37.7451 	 72.8688 	 104.991
| 33> H 	 -38.3668 	 73.7188 	 105.31
| 34> H 	 -38.2757 	 71.9725 	 105.4
| 35> C 	 -37.8196 	 72.944 	 103.392
| 36> H 	 -37.4319 	 72.0773 	 102.862
| 37> H 	 -37.2234 	 73.8289 	 103.127
| 38> H 	 -38.8522 	 73.1471 	 103.142
| 39> H 	 -33.524 	 66.9991 	 105.622
| 40> H 	 -37.3915 	 72.8879 	 110.166
| 41> *
| 42>
| 43>                          ****END OF INPUT****

CARTESIAN COORDINATES (ANGSTROEM)
---------------------------------
  S    -34.872700   68.391300  107.252000
  C    -33.783800   68.021800  105.932000
  C    -33.345500   69.149100  105.341000
  C    -34.013000   70.384700  105.874000
  C    -34.934100   70.144200  106.848000
  H    -33.713900   71.314600  105.463000
  C    -32.363600   69.149800  104.166000
  H    -32.682700   68.311900  103.542000
  H    -31.322900   68.949200  104.547000
  C    -32.271700   70.373300  103.252000
  H    -33.162100   70.438700  102.754000
  H    -32.205100   71.285000  103.787000
  C    -31.121700   70.211800  102.223000
  H    -31.172700   71.053300  101.503000
  H    -30.182000   70.464900  102.737000
  H    -31.030100   69.306400  101.695000
  S    -36.194600   70.891400  109.228000
  C    -36.951700   72.501900  109.304000
  C    -36.900000   73.130800  108.084000
  C    -36.226500   72.359600  107.062000
  C    -35.706500   71.133300  107.552000
  H    -37.449400   74.057700  107.989000
  C    -36.334000   72.864300  105.581000
  H    -35.804100   72.186000  104.915000
  H    -36.007400   73.895700  105.610000
  C    -37.745100   72.868800  104.991000
  H    -38.366800   73.718800  105.310000
  H    -38.275700   71.972500  105.400000
  C    -37.819600   72.944000  103.392000
  H    -37.431900   72.077300  102.862000
  H    -37.223400   73.828900  103.127000
  H    -38.852200   73.147100  103.142000
  H    -33.524000   66.999100  105.622000
  H    -37.391500   72.887900  110.166000

 Total Charge           Charge          ....    0
 Multiplicity           Mult            ....    1
 Number of Electrons    NEL             ....  134
 Basis Dimension        Dim             ....  322

ORBITAL ENERGIES
----------------

  NO   OCC          E(Eh)            E(eV)
   0   2.0000     -88.967086     -2420.9175
   1   2.0000     -88.961766     -2420.7727
   2   2.0000     -10.334956      -281.2285
   3   2.0000     -10.334704      -281.2216
   4   2.0000     -10.317658      -280.7577
   5   2.0000     -10.312942      -280.6294
   6   2.0000     -10.312557      -280.6190
   7   2.0000     -10.302096      -280.3343
   8   2.0000     -10.297066      -280.1974
   9   2.0000     -10.296158      -280.1727
  10   2.0000     -10.295760      -280.1619
  11   2.0000     -10.295302      -280.1494
  12   2.0000     -10.290896      -280.0295
  13   2.0000     -10.283453      -279.8270
  14   2.0000     -10.281284      -279.7680
  15   2.0000     -10.280692      -279.7518
  16   2.0000      -8.081209      -219.9009
  17   2.0000      -8.076078      -219.7613
  18   2.0000      -6.039855      -164.3528
  19   2.0000      -6.035843      -164.2436
  20   2.0000      -6.034996      -164.2206
  21   2.0000      -6.031821      -164.1342
  22   2.0000      -6.030737      -164.1047
  23   2.0000      -6.026328      -163.9847
  24   2.0000      -1.000825       -27.2338
  25   2.0000      -0.978060       -26.6144
  26   2.0000      -0.911813       -24.8117
  27   2.0000      -0.901183       -24.5224
  28   2.0000      -0.877097       -23.8670
  29   2.0000      -0.845105       -22.9965
  30   2.0000      -0.838451       -22.8154
  31   2.0000      -0.818133       -22.2625
  32   2.0000      -0.780285       -21.2326
  33   2.0000      -0.772014       -21.0076
  34   2.0000      -0.719072       -19.5669
  35   2.0000      -0.697781       -18.9876
  36   2.0000      -0.691738       -18.8232
  37   2.0000      -0.659595       -17.9485
  38   2.0000      -0.636045       -17.3077
  39   2.0000      -0.625917       -17.0321
  40   2.0000      -0.595527       -16.2051
  41   2.0000      -0.574915       -15.6442
  42   2.0000      -0.569291       -15.4912
  43   2.0000      -0.565434       -15.3862
  44   2.0000      -0.527335       -14.3495
  45   2.0000      -0.520097       -14.1526
  46   2.0000      -0.513675       -13.9778
  47   2.0000      -0.509058       -13.8522
  48   2.0000      -0.506018       -13.7695
  49   2.0000      -0.501552       -13.6479
  50   2.0000      -0.492033       -13.3889
  51   2.0000      -0.481447       -13.1008
  52   2.0000      -0.475391       -12.9361
  53   2.0000      -0.471713       -12.8360
  54   2.0000      -0.457433       -12.4474
  55   2.0000      -0.449609       -12.2345
  56   2.0000      -0.446400       -12.1472
  57   2.0000      -0.432843       -11.7783
  58   2.0000      -0.430023       -11.7015
  59   2.0000      -0.426428       -11.6037
  60   2.0000      -0.422880       -11.5072
  61   2.0000      -0.411232       -11.1902
  62   2.0000      -0.409409       -11.1406
  63   2.0000      -0.365012        -9.9325
  64   2.0000      -0.332569        -9.0497
  65   2.0000      -0.322093        -8.7646
  66   2.0000      -0.285975        -7.7818
  67   0.0000       0.021141         0.5753
  68   0.0000       0.078848         2.1456
  69   0.0000       0.103448         2.8150
  70   0.0000       0.117712         3.2031
  71   0.0000       0.136621         3.7176

MULLIKEN ATOMIC CHARGES
-----------------------
   0 S :    0.085434
   1 C :   -0.135257
   2 C :   -0.083450
   3 C :    0.015397
   4 C :   -0.089394
   5 H :    0.000172
   6 C :    0.023532
   7 H :    0.031528
   8 H :    0.046214
   9 C :   -0.044917
  10 H :    0.006645
  11 H :    0.025499
  12 C :   -0.044487
  13 H :    0.028144
  14 H :    0.029579
  15 H :    0.034910
  16 S :    0.096691
  17 C :   -0.077021
  18 C :   -0.022055
  19 C :   -0.069515
  20 C :   -0.133574
  21 H :    0.024553
  22 C :    0.098615
  23 H :    0.022084
  24 H :    0.030590
  25 C :   -0.124606
  26 H :    0.025562
  27 H :    0.044534
  28 C :   -0.055199
  29 H :    0.046468
  30 H :    0.029622
  31 H :    0.037657
  32 H :    0.057210
  33 H :    0.038833
Sum of atomic charges:    0.0000000

LOEWDIN ATOMIC CHARGES
----------------------
   0 S :    0.367519
   1 C :   -0.193692
   2 C :   -0.064142
   3 C :   -0.058158
   4 C :   -0.170559
   5 H :    0.021595
   6 C :   -0.036048
   7 H :    0.033542
   8 H :    0.036616
   9 C :   -0.034576
  10 H :    0.011741
  11 H :    0.019198
  12 C :   -0.058663
  13 H :    0.030533
  14 H :    0.028592
  15 H :    0.019318
  16 S :    0.386379
  17 C :   -0.161332
  18 C :   -0.067909
  19 C :   -0.051784
  20 C :   -0.192555
  21 H :    0.034539
  22 C :   -0.030992
  23 H :    0.029020
  24 H :    0.031486
  25 C :   -0.046361
  26 H :    0.019797
  27 H :    0.027861
  28 C :   -0.062537
  29 H :    0.024024
  30 H :    0.025978
  31 H :    0.027173
  32 H :    0.036586
  33 H :    0.017812

  Mayer bond orders larger than 0.100000
B(  0-S ,  1-C ) :   1.1089 B(  0-S ,  4-C ) :   1.1075 B(  1-C ,  2-C ) :   1.6728
B(  1-C , 32-H ) :   0.9684 B(  2-C ,  3-C ) :   1.2073 B(  2-C ,  6-C ) :   1.0046
B(  3-C ,  4-C ) :   1.5864 B(  3-C ,  5-H ) :   0.9953 B(  4-C , 20-C ) :   1.0986
B(  6-C ,  7-H ) :   0.9471 B(  6-C ,  8-H ) :   0.9421 B(  6-C ,  9-C ) :   1.0770
B(  9-C , 10-H ) :   0.9542 B(  9-C , 11-H ) :   0.9470 B(  9-C , 12-C ) :   1.0865
B( 12-C , 13-H ) :   0.9724 B( 12-C , 14-H ) :   0.9751 B( 12-C , 15-H ) :   0.9792
B( 16-S , 17-C ) :   1.1388 B( 16-S , 20-C ) :   1.1271 B( 17-C , 18-C ) :   1.6258
B( 17-C , 33-H ) :   0.9762 B( 18-C , 19-C ) :   1.2228 B( 18-C , 21-H ) :   0.9904
B( 19-C , 20-C ) :   1.5832 B( 19-C , 22-C ) :   1.0467 B( 22-C , 23-H ) :   0.9377
B( 22-C , 24-H ) :   0.9283 B( 22-C , 25-C ) :   1.0610 B( 25-C , 26-H ) :   0.9542
B( 25-C , 27-H ) :   0.9599 B( 25-C , 28-C ) :   1.0746 B( 28-C , 29-H ) :   0.9777
B( 28-C , 30-H ) :   0.9760 B( 28-C , 31-H ) :   0.9774

Dispersion correction           -0.013429273
FINAL SINGLE POINT ENERGY     -1339.871273021785

DIPOLE MOMENT
-------------
                                X             Y             Z
Electronic contribution:     -5.54560     -11.33456      29.76599
Nuclear contribution   :      5.59810      11.80657     -30.45549
                        -----------------------------------------
Total Dipole Moment    :      0.05250       0.47201      -0.68949
                        -----------------------------------------
Magnitude (a.u.)       :      0.83723
Magnitude (Debye)      :      2.12806

Rotational constants in cm-1:     0.016278     0.008837     0.006406
Rotational constants in MHz :   487.991449   264.922792   192.049578

                             ****ORCA TERMINATED NORMALLY****
TOTAL RUN TIME: 0 days 0 hours 0 minutes 29 seconds 77 msec
