                         Program Version 4.2.1 -  RELEASE  -
|  1> ! wB97X-D3 SP def2-SVP
|  2> %pal
|  3> nprocs 16
|  4> end
|  5>
|  6> * xyz 0 1
|  7> S 	 -89.2945 	 50.5679 	 132.664
|  8> C 	 -90.7391 	 51.5656 	 132.664
|  9> C 	 -91.2144 	 51.8702 	 131.422
| 10> C 	 -90.4704 	 51.2343 	 130.418
| 11> C 	 -89.4091 	 50.4643 	 130.92
| 12> H 	 -90.6602 	 51.3191 	 129.315
| 13> C 	 -92.25 	 52.9403 	 131.075
| 14> H 	 -93.2321 	 52.6799 	 131.478
| 15> H 	 -92.46 	 52.8822 	 129.994
| 16> C 	 -91.8693 	 54.355 	 131.594
| 17> H 	 -92.77 	 54.9696 	 131.316
| 18> H 	 -91.8904 	 54.4062 	 132.732
| 19> C 	 -90.6281 	 54.965 	 130.917
| 20> H 	 -90.571 	 55.9742 	 131.246
| 21> H 	 -89.6744 	 54.4648 	 131.221
| 22> H 	 -90.8048 	 55.1468 	 129.812
| 23> S 	 -88.567 	 47.8842 	 130.429
| 24> C 	 -87.413 	 47.6134 	 129.126
| 25> C 	 -87.117 	 48.7944 	 128.448
| 26> C 	 -87.7167 	 49.9261 	 129.012
| 27> C 	 -88.5538 	 49.6266 	 130.123
| 28> H 	 -86.6149 	 48.831 	 127.514
| 29> C 	 -87.5395 	 51.3279 	 128.569
| 30> H 	 -88.4606 	 51.8895 	 128.744
| 31> H 	 -87.3756 	 51.2603 	 127.528
| 32> C 	 -86.3566 	 52.1071 	 129.141
| 33> H 	 -86.2395 	 53.1967 	 128.94
| 34> H 	 -85.5904 	 51.6905 	 128.525
| 35> C 	 -86.1845 	 51.9573 	 130.611
| 36> H 	 -85.8782 	 50.9465 	 130.845
| 37> H 	 -87.111 	 52.2039 	 131.077
| 38> H 	 -85.352 	 52.6688 	 130.87
| 39> H 	 -91.2462 	 51.9977 	 133.481
| 40> H 	 -87.1821 	 46.6278 	 128.69
| 41> *
| 42>
| 43>                          ****END OF INPUT****

CARTESIAN COORDINATES (ANGSTROEM)
---------------------------------
  S    -89.294500   50.567900  132.664000
  C    -90.739100   51.565600  132.664000
  C    -91.214400   51.870200  131.422000
  C    -90.470400   51.234300  130.418000
  C    -89.409100   50.464300  130.920000
  H    -90.660200   51.319100  129.315000
  C    -92.250000   52.940300  131.075000
  H    -93.232100   52.679900  131.478000
  H    -92.460000   52.882200  129.994000
  C    -91.869300   54.355000  131.594000
  H    -92.770000   54.969600  131.316000
  H    -91.890400   54.406200  132.732000
  C    -90.628100   54.965000  130.917000
  H    -90.571000   55.974200  131.246000
  H    -89.674400   54.464800  131.221000
  H    -90.804800   55.146800  129.812000
  S    -88.567000   47.884200  130.429000
  C    -87.413000   47.613400  129.126000
  C    -87.117000   48.794400  128.448000
  C    -87.716700   49.926100  129.012000
  C    -88.553800   49.626600  130.123000
  H    -86.614900   48.831000  127.514000
  C    -87.539500   51.327900  128.569000
  H    -88.460600   51.889500  128.744000
  H    -87.375600   51.260300  127.528000
  C    -86.356600   52.107100  129.141000
  H    -86.239500   53.196700  128.940000
  H    -85.590400   51.690500  128.525000
  C    -86.184500   51.957300  130.611000
  H    -85.878200   50.946500  130.845000
  H    -87.111000   52.203900  131.077000
  H    -85.352000   52.668800  130.870000
  H    -91.246200   51.997700  133.481000
  H    -87.182100   46.627800  128.690000

 Total Charge           Charge          ....    0
 Multiplicity           Mult            ....    1
 Number of Electrons    NEL             ....  134
 Basis Dimension        Dim             ....  322

ORBITAL ENERGIES
----------------

  NO   OCC          E(Eh)            E(eV)
   0   2.0000     -88.973580     -2421.0942
   1   2.0000     -88.967972     -2420.9416
   2   2.0000     -10.328191      -281.0444
   3   2.0000     -10.325584      -280.9734
   4   2.0000     -10.321078      -280.8508
   5   2.0000     -10.307624      -280.4847
   6   2.0000     -10.300734      -280.2972
   7   2.0000     -10.299875      -280.2739
   8   2.0000     -10.296296      -280.1764
   9   2.0000     -10.295833      -280.1639
  10   2.0000     -10.294359      -280.1237
  11   2.0000     -10.292185      -280.0646
  12   2.0000     -10.283977      -279.8412
  13   2.0000     -10.278565      -279.6940
  14   2.0000     -10.273973      -279.5690
  15   2.0000     -10.264321      -279.3064
  16   2.0000      -8.087485      -220.0716
  17   2.0000      -8.081958      -219.9213
  18   2.0000      -6.045934      -164.5182
  19   2.0000      -6.042153      -164.4154
  20   2.0000      -6.040350      -164.3663
  21   2.0000      -6.038306      -164.3107
  22   2.0000      -6.036488      -164.2612
  23   2.0000      -6.032964      -164.1653
  24   2.0000      -1.005889       -27.3716
  25   2.0000      -0.983016       -26.7492
  26   2.0000      -0.914000       -24.8712
  27   2.0000      -0.908312       -24.7164
  28   2.0000      -0.867533       -23.6068
  29   2.0000      -0.851705       -23.1761
  30   2.0000      -0.847790       -23.0695
  31   2.0000      -0.809351       -22.0236
  32   2.0000      -0.787079       -21.4175
  33   2.0000      -0.772326       -21.0161
  34   2.0000      -0.708333       -19.2747
  35   2.0000      -0.697315       -18.9749
  36   2.0000      -0.688618       -18.7382
  37   2.0000      -0.660604       -17.9759
  38   2.0000      -0.635359       -17.2890
  39   2.0000      -0.610723       -16.6186
  40   2.0000      -0.587214       -15.9789
  41   2.0000      -0.572774       -15.5860
  42   2.0000      -0.560740       -15.2585
  43   2.0000      -0.552506       -15.0344
  44   2.0000      -0.546398       -14.8683
  45   2.0000      -0.539129       -14.6705
  46   2.0000      -0.512110       -13.9352
  47   2.0000      -0.503284       -13.6951
  48   2.0000      -0.499314       -13.5870
  49   2.0000      -0.494689       -13.4612
  50   2.0000      -0.490266       -13.3408
  51   2.0000      -0.477118       -12.9830
  52   2.0000      -0.467820       -12.7300
  53   2.0000      -0.466200       -12.6860
  54   2.0000      -0.463440       -12.6108
  55   2.0000      -0.449038       -12.2189
  56   2.0000      -0.443817       -12.0769
  57   2.0000      -0.432624       -11.7723
  58   2.0000      -0.429433       -11.6855
  59   2.0000      -0.427107       -11.6222
  60   2.0000      -0.417501       -11.3608
  61   2.0000      -0.416215       -11.3258
  62   2.0000      -0.400570       -10.9001
  63   2.0000      -0.342255        -9.3132
  64   2.0000      -0.333035        -9.0624
  65   2.0000      -0.331549        -9.0219
  66   2.0000      -0.287991        -7.8366
  67   0.0000       0.027316         0.7433
  68   0.0000       0.059147         1.6095
  69   0.0000       0.109447         2.9782
  70   0.0000       0.114116         3.1053
  71   0.0000       0.132097         3.5945

MULLIKEN ATOMIC CHARGES
-----------------------
   0 S :    0.140155
   1 C :   -0.100390
   2 C :   -0.082546
   3 C :    0.024252
   4 C :   -0.199272
   5 H :    0.038180
   6 C :    0.077434
   7 H :    0.025863
   8 H :    0.018269
   9 C :   -0.117294
  10 H :    0.030997
  11 H :    0.042553
  12 C :   -0.042681
  13 H :    0.020745
  14 H :    0.063131
  15 H :    0.039263
  16 S :    0.116871
  17 C :   -0.096495
  18 C :   -0.032488
  19 C :   -0.054463
  20 C :   -0.173049
  21 H :    0.008549
  22 C :    0.116092
  23 H :    0.016847
  24 H :    0.001513
  25 C :   -0.082625
  26 H :    0.028377
  27 H :    0.002996
  28 C :   -0.024523
  29 H :    0.040866
  30 H :    0.032239
  31 H :    0.034084
  32 H :    0.017689
  33 H :    0.068861
Sum of atomic charges:    0.0000000

LOEWDIN ATOMIC CHARGES
----------------------
   0 S :    0.418679
   1 C :   -0.191768
   2 C :   -0.069154
   3 C :   -0.060592
   4 C :   -0.204811
   5 H :    0.040215
   6 C :   -0.034427
   7 H :    0.031361
   8 H :    0.030513
   9 C :   -0.047546
  10 H :    0.028561
  11 H :    0.029604
  12 C :   -0.074679
  13 H :    0.022430
  14 H :    0.035264
  15 H :    0.036129
  16 S :    0.406247
  17 C :   -0.188882
  18 C :   -0.069110
  19 C :   -0.052485
  20 C :   -0.197778
  21 H :    0.028254
  22 C :   -0.032771
  23 H :    0.027581
  24 H :    0.023851
  25 C :   -0.046027
  26 H :    0.028484
  27 H :    0.015030
  28 C :   -0.061292
  29 H :    0.024518
  30 H :    0.018406
  31 H :    0.032397
  32 H :    0.018647
  33 H :    0.035153

  Mayer bond orders larger than 0.100000
B(  0-S ,  1-C ) :   1.1335 B(  0-S ,  4-C ) :   1.1543 B(  1-C ,  2-C ) :   1.6178
B(  1-C , 32-H ) :   0.9664 B(  2-C ,  3-C ) :   1.2709 B(  2-C ,  6-C ) :   1.0149
B(  3-C ,  4-C ) :   1.5534 B(  3-C ,  5-H ) :   0.9759 B(  4-C , 20-C ) :   1.0571
B(  6-C ,  7-H ) :   0.9309 B(  6-C ,  8-H ) :   0.9445 B(  6-C ,  9-C ) :   1.0752
B(  9-C , 10-H ) :   0.9528 B(  9-C , 11-H ) :   0.9550 B(  9-C , 12-C ) :   1.0735
B( 12-C , 13-H ) :   0.9696 B( 12-C , 14-H ) :   0.9728 B( 12-C , 15-H ) :   0.9710
B( 16-S , 17-C ) :   1.1657 B( 16-S , 20-C ) :   1.1564 B( 17-C , 18-C ) :   1.5696
B( 17-C , 20-C ) :   0.1128 B( 17-C , 33-H ) :   0.9613 B( 18-C , 19-C ) :   1.2890
B( 18-C , 21-H ) :   0.9881 B( 19-C , 20-C ) :   1.5314 B( 19-C , 22-C ) :   1.0530
B( 22-C , 23-H ) :   0.9241 B( 22-C , 24-H ) :   0.9267 B( 22-C , 25-C ) :   1.0554
B( 25-C , 26-H ) :   0.9598 B( 25-C , 27-H ) :   0.9552 B( 25-C , 28-C ) :   1.0890
B( 28-C , 29-H ) :   0.9663 B( 28-C , 30-H ) :   0.9730 B( 28-C , 31-H ) :   0.9730

Dispersion correction           -0.016320234
FINAL SINGLE POINT ENERGY     -1339.872345775829

DIPOLE MOMENT
-------------
                                X             Y             Z
Electronic contribution:     -0.15117     -25.24942       6.68522
Nuclear contribution   :     -0.09184      25.81100      -7.11794
                        -----------------------------------------
Total Dipole Moment    :     -0.24301       0.56158      -0.43272
                        -----------------------------------------
Magnitude (a.u.)       :      0.74945
Magnitude (Debye)      :      1.90494

Rotational constants in cm-1:     0.021729     0.009405     0.007889
Rotational constants in MHz :   651.428879   281.958157   236.501113

                             ****ORCA TERMINATED NORMALLY****
TOTAL RUN TIME: 0 days 0 hours 0 minutes 37 seconds 206 msec
