                         Program Version 4.2.1 -  RELEASE  -
|  1> ! wB97X-D3 SP def2-SVP
|  2> %pal
|  3> nprocs 16
|  4> end
|  5>
|  6> * xyz 0 1
|  7> S 	 3.21021 	 -29.2924 	 62.6565
|  8> C 	 1.6604 	 -29.8388 	 63.1953
|  9> C 	 0.689145 	 -29.8967 	 62.1964
| 10> C 	 1.26808 	 -29.3986 	 60.9643
| 11> C 	 2.60407 	 -29.0537 	 61.0365
| 12> H 	 0.83056 	 -29.3553 	 60.0348
| 13> C 	 -0.75954 	 -30.3517 	 62.3582
| 14> H 	 -0.737319 	 -31.0191 	 63.2531
| 15> H 	 -0.962037 	 -31.0682 	 61.5325
| 16> C 	 -1.83135 	 -29.2565 	 62.3403
| 17> H 	 -1.92637 	 -28.7231 	 61.4061
| 18> H 	 -2.75948 	 -29.8002 	 62.4893
| 19> C 	 -1.51479 	 -28.2497 	 63.4736
| 20> H 	 -1.60105 	 -28.6935 	 64.5042
| 21> H 	 -0.478873 	 -27.8275 	 63.466
| 22> H 	 -2.14449 	 -27.3935 	 63.5415
| 23> S 	 5.07815 	 -29.2002 	 59.8097
| 24> C 	 5.30123 	 -28.4446 	 58.2193
| 25> C 	 4.17727 	 -27.8714 	 57.7686
| 26> C 	 3.07245 	 -27.9781 	 58.7391
| 27> C 	 3.38736 	 -28.7304 	 59.862
| 28> H 	 4.12601 	 -27.3592 	 56.8392
| 29> C 	 1.75544 	 -27.2839 	 58.507
| 30> H 	 0.962686 	 -27.6995 	 58.9995
| 31> H 	 1.50821 	 -27.431 	 57.4672
| 32> C 	 1.8279 	 -25.7568 	 58.6574
| 33> H 	 0.959475 	 -25.2634 	 58.1572
| 34> H 	 2.6398 	 -25.431 	 58.1368
| 35> C 	 1.92287 	 -25.151 	 60.0675
| 36> H 	 1.35045 	 -25.8064 	 60.7774
| 37> H 	 1.56967 	 -24.0932 	 59.9008
| 38> H 	 2.97199 	 -25.0476 	 60.3236
| 39> H 	 1.38409 	 -30.1409 	 64.1548
| 40> H 	 6.2976 	 -28.3325 	 57.6784
| 41> *
| 42>
| 43>                          ****END OF INPUT****

CARTESIAN COORDINATES (ANGSTROEM)
---------------------------------
  S      3.210210  -29.292400   62.656500
  C      1.660400  -29.838800   63.195300
  C      0.689145  -29.896700   62.196400
  C      1.268080  -29.398600   60.964300
  C      2.604070  -29.053700   61.036500
  H      0.830560  -29.355300   60.034800
  C     -0.759540  -30.351700   62.358200
  H     -0.737319  -31.019100   63.253100
  H     -0.962037  -31.068200   61.532500
  C     -1.831350  -29.256500   62.340300
  H     -1.926370  -28.723100   61.406100
  H     -2.759480  -29.800200   62.489300
  C     -1.514790  -28.249700   63.473600
  H     -1.601050  -28.693500   64.504200
  H     -0.478873  -27.827500   63.466000
  H     -2.144490  -27.393500   63.541500
  S      5.078150  -29.200200   59.809700
  C      5.301230  -28.444600   58.219300
  C      4.177270  -27.871400   57.768600
  C      3.072450  -27.978100   58.739100
  C      3.387360  -28.730400   59.862000
  H      4.126010  -27.359200   56.839200
  C      1.755440  -27.283900   58.507000
  H      0.962686  -27.699500   58.999500
  H      1.508210  -27.431000   57.467200
  C      1.827900  -25.756800   58.657400
  H      0.959475  -25.263400   58.157200
  H      2.639800  -25.431000   58.136800
  C      1.922870  -25.151000   60.067500
  H      1.350450  -25.806400   60.777400
  H      1.569670  -24.093200   59.900800
  H      2.971990  -25.047600   60.323600
  H      1.384090  -30.140900   64.154800
  H      6.297600  -28.332500   57.678400

 Total Charge           Charge          ....    0
 Multiplicity           Mult            ....    1
 Number of Electrons    NEL             ....  134
 Basis Dimension        Dim             ....  322

ORBITAL ENERGIES
----------------

  NO   OCC          E(Eh)            E(eV)
   0   2.0000     -88.971238     -2421.0305
   1   2.0000     -88.962036     -2420.7801
   2   2.0000     -10.328241      -281.0457
   3   2.0000     -10.327590      -281.0280
   4   2.0000     -10.321365      -280.8586
   5   2.0000     -10.310584      -280.5653
   6   2.0000     -10.304625      -280.4031
   7   2.0000     -10.303942      -280.3845
   8   2.0000     -10.301082      -280.3067
   9   2.0000     -10.293787      -280.1082
  10   2.0000     -10.293612      -280.1034
  11   2.0000     -10.287744      -279.9438
  12   2.0000     -10.280868      -279.7566
  13   2.0000     -10.278833      -279.7013
  14   2.0000     -10.276996      -279.6513
  15   2.0000     -10.276168      -279.6287
  16   2.0000      -8.085911      -220.0288
  17   2.0000      -8.076681      -219.7777
  18   2.0000      -6.044463      -164.4782
  19   2.0000      -6.040451      -164.3690
  20   2.0000      -6.036617      -164.2647
  21   2.0000      -6.035417      -164.2321
  22   2.0000      -6.031306      -164.1202
  23   2.0000      -6.027099      -164.0057
  24   2.0000      -1.006929       -27.3999
  25   2.0000      -0.982830       -26.7442
  26   2.0000      -0.912385       -24.8272
  27   2.0000      -0.909219       -24.7411
  28   2.0000      -0.873938       -23.7811
  29   2.0000      -0.849948       -23.1283
  30   2.0000      -0.840358       -22.8673
  31   2.0000      -0.817393       -22.2424
  32   2.0000      -0.783178       -21.3114
  33   2.0000      -0.774874       -21.0854
  34   2.0000      -0.712215       -19.3804
  35   2.0000      -0.699832       -19.0434
  36   2.0000      -0.692239       -18.8368
  37   2.0000      -0.659875       -17.9561
  38   2.0000      -0.642332       -17.4787
  39   2.0000      -0.622319       -16.9341
  40   2.0000      -0.598794       -16.2940
  41   2.0000      -0.570100       -15.5132
  42   2.0000      -0.553103       -15.0507
  43   2.0000      -0.547609       -14.9012
  44   2.0000      -0.545027       -14.8309
  45   2.0000      -0.537989       -14.6394
  46   2.0000      -0.521609       -14.1937
  47   2.0000      -0.510569       -13.8933
  48   2.0000      -0.504083       -13.7168
  49   2.0000      -0.494414       -13.4537
  50   2.0000      -0.487522       -13.2661
  51   2.0000      -0.481433       -13.1005
  52   2.0000      -0.470155       -12.7936
  53   2.0000      -0.462236       -12.5781
  54   2.0000      -0.453822       -12.3491
  55   2.0000      -0.449389       -12.2285
  56   2.0000      -0.441830       -12.0228
  57   2.0000      -0.439932       -11.9712
  58   2.0000      -0.434601       -11.8261
  59   2.0000      -0.426330       -11.6010
  60   2.0000      -0.420176       -11.4336
  61   2.0000      -0.418177       -11.3792
  62   2.0000      -0.406467       -11.0605
  63   2.0000      -0.361362        -9.8331
  64   2.0000      -0.332236        -9.0406
  65   2.0000      -0.326750        -8.8913
  66   2.0000      -0.286517        -7.7965
  67   0.0000       0.027047         0.7360
  68   0.0000       0.083212         2.2643
  69   0.0000       0.108320         2.9475
  70   0.0000       0.116274         3.1640
  71   0.0000       0.130869         3.5611

MULLIKEN ATOMIC CHARGES
-----------------------
   0 S :    0.128119
   1 C :   -0.082579
   2 C :   -0.105550
   3 C :    0.016094
   4 C :   -0.121659
   5 H :   -0.016123
   6 C :    0.039446
   7 H :    0.028833
   8 H :    0.036343
   9 C :   -0.012666
  10 H :    0.033987
  11 H :    0.035305
  12 C :   -0.088246
  13 H :    0.024565
  14 H :    0.053614
  15 H :    0.024362
  16 S :    0.083463
  17 C :   -0.104142
  18 C :   -0.004113
  19 C :   -0.091151
  20 C :   -0.131573
  21 H :    0.011854
  22 C :    0.138023
  23 H :   -0.019017
  24 H :    0.010221
  25 C :   -0.073290
  26 H :    0.025437
  27 H :   -0.005746
  28 C :   -0.056509
  29 H :    0.051436
  30 H :    0.038162
  31 H :    0.037523
  32 H :    0.014500
  33 H :    0.081077
Sum of atomic charges:    0.0000000

LOEWDIN ATOMIC CHARGES
----------------------
   0 S :    0.417217
   1 C :   -0.195636
   2 C :   -0.057313
   3 C :   -0.052967
   4 C :   -0.194385
   5 H :    0.013664
   6 C :   -0.035963
   7 H :    0.034889
   8 H :    0.035680
   9 C :   -0.033829
  10 H :    0.025445
  11 H :    0.029442
  12 C :   -0.077293
  13 H :    0.027981
  14 H :    0.033698
  15 H :    0.017693
  16 S :    0.376588
  17 C :   -0.182473
  18 C :   -0.067909
  19 C :   -0.053908
  20 C :   -0.190586
  21 H :    0.028912
  22 C :   -0.025824
  23 H :    0.010377
  24 H :    0.034606
  25 C :   -0.036562
  26 H :    0.024767
  27 H :    0.007654
  28 C :   -0.068450
  29 H :    0.032252
  30 H :    0.034713
  31 H :    0.024839
  32 H :    0.014926
  33 H :    0.047757

  Mayer bond orders larger than 0.100000
B(  0-S ,  1-C ) :   1.1408 B(  0-S ,  4-C ) :   1.1325 B(  1-C ,  2-C ) :   1.6120
B(  1-C , 32-H ) :   0.9677 B(  2-C ,  3-C ) :   1.2275 B(  2-C ,  6-C ) :   1.0211
B(  3-C ,  4-C ) :   1.5698 B(  3-C ,  5-H ) :   1.0024 B(  4-C , 20-C ) :   1.0799
B(  6-C ,  7-H ) :   0.9433 B(  6-C ,  8-H ) :   0.9381 B(  6-C ,  9-C ) :   1.0636
B(  9-C , 10-H ) :   0.9569 B(  9-C , 11-H ) :   0.9546 B(  9-C , 12-C ) :   1.0647
B( 12-C , 13-H ) :   0.9755 B( 12-C , 14-H ) :   0.9731 B( 12-C , 15-H ) :   0.9767
B( 16-S , 17-C ) :   1.1255 B( 16-S , 20-C ) :   1.1082 B( 17-C , 18-C ) :   1.6602
B( 17-C , 33-H ) :   0.9548 B( 18-C , 19-C ) :   1.2022 B( 18-C , 21-H ) :   0.9921
B( 19-C , 20-C ) :   1.6232 B( 19-C , 22-C ) :   1.0508 B( 22-C , 23-H ) :   0.9337
B( 22-C , 24-H ) :   0.9185 B( 22-C , 25-C ) :   1.0787 B( 25-C , 26-H ) :   0.9609
B( 25-C , 27-H ) :   0.9523 B( 25-C , 28-C ) :   1.0665 B( 28-C , 29-H ) :   0.9776
B( 28-C , 30-H ) :   0.9745 B( 28-C , 31-H ) :   0.9788

Dispersion correction           -0.015194365
FINAL SINGLE POINT ENERGY     -1339.873013574363

DIPOLE MOMENT
-------------
                                X             Y             Z
Electronic contribution:     24.32847     -12.53384      -0.00764
Nuclear contribution   :    -24.93771      12.74955      -0.32479
                        -----------------------------------------
Total Dipole Moment    :     -0.60924       0.21570      -0.33243
                        -----------------------------------------
Magnitude (a.u.)       :      0.72678
Magnitude (Debye)      :      1.84733

Rotational constants in cm-1:     0.020329     0.009278     0.007372
Rotational constants in MHz :   609.461690   278.158743   221.012514

                             ****ORCA TERMINATED NORMALLY****
TOTAL RUN TIME: 0 days 0 hours 0 minutes 37 seconds 220 msec
