                         Program Version 4.2.1 -  RELEASE  -
|  1> ! wB97X-D3 SP def2-SVP
|  2> %pal
|  3> nprocs 16
|  4> end
|  5>
|  6> * xyz 0 1
|  7> S 	 -46.6156 	 64.0404 	 129.713
|  8> C 	 -45.1391 	 64.9365 	 129.645
|  9> C 	 -44.1517 	 64.1605 	 129.077
| 10> C 	 -44.6707 	 62.8972 	 128.703
| 11> C 	 -45.9597 	 62.6132 	 129.012
| 12> H 	 -44.119 	 62.2212 	 128.01
| 13> C 	 -42.7091 	 64.6276 	 128.933
| 14> H 	 -42.2673 	 64.8998 	 129.896
| 15> H 	 -42.6927 	 65.5472 	 128.432
| 16> C 	 -41.7316 	 63.6452 	 128.181
| 17> H 	 -41.6368 	 62.7114 	 128.754
| 18> H 	 -42.1489 	 63.3433 	 127.199
| 19> C 	 -40.2806 	 64.2075 	 128.15
| 20> H 	 -39.5723 	 63.5977 	 127.485
| 21> H 	 -40.4161 	 65.1703 	 127.609
| 22> H 	 -39.8796 	 64.4071 	 129.093
| 23> S 	 -48.1874 	 61.6981 	 127.871
| 24> C 	 -48.2562 	 60.0537 	 127.44
| 25> C 	 -47.3071 	 59.2486 	 128.109
| 26> C 	 -46.3387 	 60.0818 	 128.724
| 27> C 	 -46.7136 	 61.4115 	 128.716
| 28> H 	 -47.3706 	 58.1217 	 128.041
| 29> C 	 -45.1902 	 59.5609 	 129.491
| 30> H 	 -44.486 	 60.3822 	 129.503
| 31> H 	 -44.6754 	 58.8102 	 128.845
| 32> C 	 -45.4597 	 59.1308 	 130.955
| 33> H 	 -46.0978 	 58.2537 	 131.2
| 34> H 	 -45.8092 	 59.9672 	 131.513
| 35> C 	 -44.0747 	 58.845 	 131.631
| 36> H 	 -44.028 	 58.7091 	 132.757
| 37> H 	 -43.5283 	 59.7377 	 131.409
| 38> H 	 -43.4274 	 58.1018 	 131.072
| 39> H 	 -44.9853 	 65.8986 	 130.175
| 40> H 	 -49.0747 	 59.5846 	 126.871
| 41> *
| 42>
| 43>                          ****END OF INPUT****

CARTESIAN COORDINATES (ANGSTROEM)
---------------------------------
  S    -46.615600   64.040400  129.713000
  C    -45.139100   64.936500  129.645000
  C    -44.151700   64.160500  129.077000
  C    -44.670700   62.897200  128.703000
  C    -45.959700   62.613200  129.012000
  H    -44.119000   62.221200  128.010000
  C    -42.709100   64.627600  128.933000
  H    -42.267300   64.899800  129.896000
  H    -42.692700   65.547200  128.432000
  C    -41.731600   63.645200  128.181000
  H    -41.636800   62.711400  128.754000
  H    -42.148900   63.343300  127.199000
  C    -40.280600   64.207500  128.150000
  H    -39.572300   63.597700  127.485000
  H    -40.416100   65.170300  127.609000
  H    -39.879600   64.407100  129.093000
  S    -48.187400   61.698100  127.871000
  C    -48.256200   60.053700  127.440000
  C    -47.307100   59.248600  128.109000
  C    -46.338700   60.081800  128.724000
  C    -46.713600   61.411500  128.716000
  H    -47.370600   58.121700  128.041000
  C    -45.190200   59.560900  129.491000
  H    -44.486000   60.382200  129.503000
  H    -44.675400   58.810200  128.845000
  C    -45.459700   59.130800  130.955000
  H    -46.097800   58.253700  131.200000
  H    -45.809200   59.967200  131.513000
  C    -44.074700   58.845000  131.631000
  H    -44.028000   58.709100  132.757000
  H    -43.528300   59.737700  131.409000
  H    -43.427400   58.101800  131.072000
  H    -44.985300   65.898600  130.175000
  H    -49.074700   59.584600  126.871000

 Total Charge           Charge          ....    0
 Multiplicity           Mult            ....    1
 Number of Electrons    NEL             ....  134
 Basis Dimension        Dim             ....  322

ORBITAL ENERGIES
----------------

  NO   OCC          E(Eh)            E(eV)
   0   2.0000     -88.969574     -2420.9852
   1   2.0000     -88.962554     -2420.7942
   2   2.0000     -10.324530      -280.9448
   3   2.0000     -10.322022      -280.8765
   4   2.0000     -10.317743      -280.7601
   5   2.0000     -10.312022      -280.6044
   6   2.0000     -10.301095      -280.3070
   7   2.0000     -10.300457      -280.2897
   8   2.0000     -10.300065      -280.2790
   9   2.0000     -10.294654      -280.1318
  10   2.0000     -10.292951      -280.0854
  11   2.0000     -10.291761      -280.0531
  12   2.0000     -10.289920      -280.0030
  13   2.0000     -10.288644      -279.9682
  14   2.0000     -10.285543      -279.8839
  15   2.0000     -10.280487      -279.7463
  16   2.0000      -8.085657      -220.0219
  17   2.0000      -8.078342      -219.8229
  18   2.0000      -6.043876      -164.4622
  19   2.0000      -6.040037      -164.3578
  20   2.0000      -6.036785      -164.2693
  21   2.0000      -6.036571      -164.2634
  22   2.0000      -6.032588      -164.1551
  23   2.0000      -6.029218      -164.0634
  24   2.0000      -1.018511       -27.7151
  25   2.0000      -0.994005       -27.0482
  26   2.0000      -0.912002       -24.8168
  27   2.0000      -0.907848       -24.7038
  28   2.0000      -0.871866       -23.7247
  29   2.0000      -0.855857       -23.2890
  30   2.0000      -0.843617       -22.9560
  31   2.0000      -0.814722       -22.1697
  32   2.0000      -0.780379       -21.2352
  33   2.0000      -0.767451       -20.8834
  34   2.0000      -0.710672       -19.3384
  35   2.0000      -0.701129       -19.0787
  36   2.0000      -0.688849       -18.7445
  37   2.0000      -0.662875       -18.0378
  38   2.0000      -0.641567       -17.4579
  39   2.0000      -0.620001       -16.8711
  40   2.0000      -0.595128       -16.1943
  41   2.0000      -0.568089       -15.4585
  42   2.0000      -0.566704       -15.4208
  43   2.0000      -0.558715       -15.2034
  44   2.0000      -0.529101       -14.3976
  45   2.0000      -0.522149       -14.2084
  46   2.0000      -0.516247       -14.0478
  47   2.0000      -0.506722       -13.7886
  48   2.0000      -0.504294       -13.7225
  49   2.0000      -0.498669       -13.5695
  50   2.0000      -0.492598       -13.4043
  51   2.0000      -0.480800       -13.0832
  52   2.0000      -0.471714       -12.8360
  53   2.0000      -0.463418       -12.6102
  54   2.0000      -0.457574       -12.4512
  55   2.0000      -0.454685       -12.3726
  56   2.0000      -0.444292       -12.0898
  57   2.0000      -0.439912       -11.9706
  58   2.0000      -0.429743       -11.6939
  59   2.0000      -0.424615       -11.5544
  60   2.0000      -0.417800       -11.3689
  61   2.0000      -0.417580       -11.3629
  62   2.0000      -0.411565       -11.1993
  63   2.0000      -0.352519        -9.5925
  64   2.0000      -0.334934        -9.1140
  65   2.0000      -0.328418        -8.9367
  66   2.0000      -0.287765        -7.8305
  67   0.0000       0.031656         0.8614
  68   0.0000       0.069458         1.8901
  69   0.0000       0.113699         3.0939
  70   0.0000       0.118851         3.2341
  71   0.0000       0.139226         3.7885

MULLIKEN ATOMIC CHARGES
-----------------------
   0 S :    0.097693
   1 C :   -0.145504
   2 C :   -0.075982
   3 C :   -0.019257
   4 C :   -0.127080
   5 H :    0.031165
   6 C :    0.073542
   7 H :    0.029193
   8 H :    0.015450
   9 C :   -0.113762
  10 H :    0.033136
  11 H :    0.043524
  12 C :   -0.046705
  13 H :    0.050422
  14 H :    0.026534
  15 H :    0.030521
  16 S :    0.132944
  17 C :   -0.108859
  18 C :   -0.054864
  19 C :   -0.064329
  20 C :   -0.125112
  21 H :    0.044825
  22 C :    0.061120
  23 H :   -0.000063
  24 H :    0.028748
  25 C :   -0.025030
  26 H :    0.044108
  27 H :    0.030220
  28 C :   -0.085579
  29 H :    0.053162
  30 H :    0.011162
  31 H :    0.028340
  32 H :    0.063706
  33 H :    0.062610
Sum of atomic charges:    0.0000000

LOEWDIN ATOMIC CHARGES
----------------------
   0 S :    0.419669
   1 C :   -0.210704
   2 C :   -0.066074
   3 C :   -0.084745
   4 C :   -0.206416
   5 H :    0.034833
   6 C :   -0.029097
   7 H :    0.034072
   8 H :    0.024169
   9 C :   -0.044371
  10 H :    0.021931
  11 H :    0.025838
  12 C :   -0.065359
  13 H :    0.037041
  14 H :    0.026787
  15 H :    0.015930
  16 S :    0.449347
  17 C :   -0.203713
  18 C :   -0.073443
  19 C :   -0.057914
  20 C :   -0.209822
  21 H :    0.044914
  22 C :   -0.035543
  23 H :    0.029393
  24 H :    0.035343
  25 C :   -0.030726
  26 H :    0.027665
  27 H :    0.026618
  28 C :   -0.081116
  29 H :    0.032876
  30 H :    0.017609
  31 H :    0.026437
  32 H :    0.037616
  33 H :    0.030956

  Mayer bond orders larger than 0.100000
B(  0-S ,  1-C ) :   1.1508 B(  0-S ,  4-C ) :   1.1599 B(  1-C ,  2-C ) :   1.5912
B(  1-C ,  4-C ) :   0.1004 B(  1-C , 32-H ) :   0.9703 B(  2-C ,  3-C ) :   1.2943
B(  2-C ,  6-C ) :   1.0005 B(  3-C ,  4-C ) :   1.5609 B(  3-C ,  5-H ) :   0.9733
B(  4-C , 20-C ) :   1.0105 B(  6-C ,  7-H ) :   0.9389 B(  6-C ,  8-H ) :   0.9358
B(  6-C ,  9-C ) :   1.0757 B(  9-C , 10-H ) :   0.9537 B(  9-C , 11-H ) :   0.9550
B(  9-C , 12-C ) :   1.0726 B( 12-C , 13-H ) :   0.9736 B( 12-C , 14-H ) :   0.9763
B( 12-C , 15-H ) :   0.9766 B( 16-S , 17-C ) :   1.1937 B( 16-S , 20-C ) :   1.1505
B( 17-C , 18-C ) :   1.5747 B( 17-C , 20-C ) :   0.1018 B( 17-C , 33-H ) :   0.9626
B( 18-C , 19-C ) :   1.2505 B( 18-C , 21-H ) :   0.9852 B( 19-C , 20-C ) :   1.5760
B( 19-C , 22-C ) :   1.0671 B( 22-C , 23-H ) :   0.9234 B( 22-C , 24-H ) :   0.9232
B( 22-C , 25-C ) :   1.0576 B( 25-C , 26-H ) :   0.9621 B( 25-C , 27-H ) :   0.9533
B( 25-C , 28-C ) :   1.0632 B( 28-C , 29-H ) :   0.9741 B( 28-C , 30-H ) :   0.9743
B( 28-C , 31-H ) :   0.9744

Dispersion correction           -0.013745954
FINAL SINGLE POINT ENERGY     -1339.867636320437

DIPOLE MOMENT
-------------
                                X             Y             Z
Electronic contribution:    -29.04647       7.22499      -5.42643
Nuclear contribution   :     29.56208      -7.40197       5.39346
                        -----------------------------------------
Total Dipole Moment    :      0.51561      -0.17698      -0.03297
                        -----------------------------------------
Magnitude (a.u.)       :      0.54613
Magnitude (Debye)      :      1.38816

Rotational constants in cm-1:     0.016644     0.008899     0.007041
Rotational constants in MHz :   498.961790   266.773284   211.076671

                             ****ORCA TERMINATED NORMALLY****
TOTAL RUN TIME: 0 days 0 hours 0 minutes 33 seconds 275 msec
