                         Program Version 4.2.1 -  RELEASE  -
|  1> ! wB97X-D3 SP def2-SVP
|  2> %pal
|  3> nprocs 16
|  4> end
|  5>
|  6> * xyz 0 1
|  7> S 	 -1.30014 	 -21.0452 	 57.4803
|  8> C 	 -2.03378 	 -21.1915 	 55.8969
|  9> C 	 -2.8873 	 -20.1614 	 55.5933
| 10> C 	 -3.03961 	 -19.2517 	 56.7094
| 11> C 	 -2.17627 	 -19.6064 	 57.7497
| 12> H 	 -3.6884 	 -18.3815 	 56.7365
| 13> C 	 -3.71221 	 -19.9516 	 54.277
| 14> H 	 -3.00325 	 -19.7865 	 53.475
| 15> H 	 -4.22118 	 -19.0325 	 54.3894
| 16> C 	 -4.67539 	 -21.043 	 53.7338
| 17> H 	 -5.28953 	 -20.6941 	 52.8877
| 18> H 	 -4.17386 	 -21.9291 	 53.4425
| 19> C 	 -5.65306 	 -21.5056 	 54.8269
| 20> H 	 -5.90373 	 -20.6109 	 55.3879
| 21> H 	 -6.44677 	 -22.0548 	 54.413
| 22> H 	 -5.10489 	 -22.0505 	 55.5495
| 23> S 	 -2.81901 	 -19.6804 	 60.3828
| 24> C 	 -2.44255 	 -18.2133 	 61.2913
| 25> C 	 -1.61858 	 -17.3802 	 60.5873
| 26> C 	 -1.44344 	 -17.689 	 59.2105
| 27> C 	 -2.03334 	 -18.9101 	 58.9951
| 28> H 	 -1.17164 	 -16.4827 	 60.9918
| 29> C 	 -0.575116 	 -16.8232 	 58.239
| 30> H 	 -0.599997 	 -17.2459 	 57.2705
| 31> H 	 0.42417 	 -16.9775 	 58.5188
| 32> C 	 -0.801647 	 -15.2775 	 58.2959
| 33> H 	 -0.218317 	 -14.8187 	 57.599
| 34> H 	 -0.38985 	 -14.8417 	 59.2046
| 35> C 	 -2.2332 	 -14.7291 	 58.0887
| 36> H 	 -2.71383 	 -14.9738 	 58.9985
| 37> H 	 -2.64891 	 -15.1578 	 57.2172
| 38> H 	 -2.32486 	 -13.643 	 58.0177
| 39> H 	 -1.82252 	 -22.0784 	 55.2363
| 40> H 	 -2.55603 	 -17.9455 	 62.3494
| 41> *
| 42>
| 43>                          ****END OF INPUT****

CARTESIAN COORDINATES (ANGSTROEM)
---------------------------------
  S     -1.300140  -21.045200   57.480300
  C     -2.033780  -21.191500   55.896900
  C     -2.887300  -20.161400   55.593300
  C     -3.039610  -19.251700   56.709400
  C     -2.176270  -19.606400   57.749700
  H     -3.688400  -18.381500   56.736500
  C     -3.712210  -19.951600   54.277000
  H     -3.003250  -19.786500   53.475000
  H     -4.221180  -19.032500   54.389400
  C     -4.675390  -21.043000   53.733800
  H     -5.289530  -20.694100   52.887700
  H     -4.173860  -21.929100   53.442500
  C     -5.653060  -21.505600   54.826900
  H     -5.903730  -20.610900   55.387900
  H     -6.446770  -22.054800   54.413000
  H     -5.104890  -22.050500   55.549500
  S     -2.819010  -19.680400   60.382800
  C     -2.442550  -18.213300   61.291300
  C     -1.618580  -17.380200   60.587300
  C     -1.443440  -17.689000   59.210500
  C     -2.033340  -18.910100   58.995100
  H     -1.171640  -16.482700   60.991800
  C     -0.575116  -16.823200   58.239000
  H     -0.599997  -17.245900   57.270500
  H      0.424170  -16.977500   58.518800
  C     -0.801647  -15.277500   58.295900
  H     -0.218317  -14.818700   57.599000
  H     -0.389850  -14.841700   59.204600
  C     -2.233200  -14.729100   58.088700
  H     -2.713830  -14.973800   58.998500
  H     -2.648910  -15.157800   57.217200
  H     -2.324860  -13.643000   58.017700
  H     -1.822520  -22.078400   55.236300
  H     -2.556030  -17.945500   62.349400

 Total Charge           Charge          ....    0
 Multiplicity           Mult            ....    1
 Number of Electrons    NEL             ....  134
 Basis Dimension        Dim             ....  322

ORBITAL ENERGIES
----------------

  NO   OCC          E(Eh)            E(eV)
   0   2.0000     -88.968628     -2420.9594
   1   2.0000     -88.967198     -2420.9205
   2   2.0000     -10.320411      -280.8327
   3   2.0000     -10.319727      -280.8140
   4   2.0000     -10.315066      -280.6872
   5   2.0000     -10.314563      -280.6735
   6   2.0000     -10.305138      -280.4171
   7   2.0000     -10.302010      -280.3319
   8   2.0000     -10.295472      -280.1540
   9   2.0000     -10.294079      -280.1161
  10   2.0000     -10.291891      -280.0566
  11   2.0000     -10.287516      -279.9375
  12   2.0000     -10.282922      -279.8125
  13   2.0000     -10.282366      -279.7974
  14   2.0000     -10.269779      -279.4549
  15   2.0000     -10.261151      -279.2201
  16   2.0000      -8.082803      -219.9443
  17   2.0000      -8.082655      -219.9402
  18   2.0000      -6.041278      -164.3915
  19   2.0000      -6.041141      -164.3878
  20   2.0000      -6.037540      -164.2898
  21   2.0000      -6.037217      -164.2810
  22   2.0000      -6.033673      -164.1846
  23   2.0000      -6.033054      -164.1677
  24   2.0000      -1.008750       -27.4495
  25   2.0000      -0.982332       -26.7306
  26   2.0000      -0.907565       -24.6961
  27   2.0000      -0.905093       -24.6288
  28   2.0000      -0.867628       -23.6094
  29   2.0000      -0.851404       -23.1679
  30   2.0000      -0.847029       -23.0488
  31   2.0000      -0.808486       -22.0000
  32   2.0000      -0.790046       -21.4982
  33   2.0000      -0.776787       -21.1374
  34   2.0000      -0.708832       -19.2883
  35   2.0000      -0.700728       -19.0678
  36   2.0000      -0.695183       -18.9169
  37   2.0000      -0.657927       -17.9031
  38   2.0000      -0.638911       -17.3857
  39   2.0000      -0.607881       -16.5413
  40   2.0000      -0.592653       -16.1269
  41   2.0000      -0.568348       -15.4655
  42   2.0000      -0.554665       -15.0932
  43   2.0000      -0.553651       -15.0656
  44   2.0000      -0.546456       -14.8698
  45   2.0000      -0.539989       -14.6939
  46   2.0000      -0.519053       -14.1241
  47   2.0000      -0.508038       -13.8244
  48   2.0000      -0.497733       -13.5440
  49   2.0000      -0.494776       -13.4635
  50   2.0000      -0.483787       -13.1645
  51   2.0000      -0.474974       -12.9247
  52   2.0000      -0.471645       -12.8341
  53   2.0000      -0.462667       -12.5898
  54   2.0000      -0.459389       -12.5006
  55   2.0000      -0.448519       -12.2048
  56   2.0000      -0.445513       -12.1230
  57   2.0000      -0.443322       -12.0634
  58   2.0000      -0.437881       -11.9154
  59   2.0000      -0.426854       -11.6153
  60   2.0000      -0.419425       -11.4131
  61   2.0000      -0.418007       -11.3745
  62   2.0000      -0.415461       -11.3053
  63   2.0000      -0.338309        -9.2059
  64   2.0000      -0.330672        -8.9980
  65   2.0000      -0.325968        -8.8700
  66   2.0000      -0.301770        -8.2116
  67   0.0000       0.043736         1.1901
  68   0.0000       0.060187         1.6378
  69   0.0000       0.108649         2.9565
  70   0.0000       0.119401         3.2491
  71   0.0000       0.126881         3.4526

MULLIKEN ATOMIC CHARGES
-----------------------
   0 S :    0.125852
   1 C :   -0.154389
   2 C :   -0.099244
   3 C :    0.044734
   4 C :   -0.197300
   5 H :    0.018243
   6 C :    0.090690
   7 H :    0.034023
   8 H :    0.008205
   9 C :   -0.076899
  10 H :    0.034752
  11 H :    0.018815
  12 C :   -0.017560
  13 H :    0.014516
  14 H :    0.031743
  15 H :    0.022826
  16 S :    0.126908
  17 C :   -0.076449
  18 C :   -0.043881
  19 C :   -0.025844
  20 C :   -0.204399
  21 H :    0.008042
  22 C :    0.142103
  23 H :    0.016534
  24 H :    0.024684
  25 C :   -0.068030
  26 H :    0.002130
  27 H :    0.016398
  28 C :   -0.022969
  29 H :    0.026740
  30 H :    0.028182
  31 H :    0.029979
  32 H :    0.064897
  33 H :    0.055967
Sum of atomic charges:   -0.0000000

LOEWDIN ATOMIC CHARGES
----------------------
   0 S :    0.427249
   1 C :   -0.211119
   2 C :   -0.062030
   3 C :   -0.061222
   4 C :   -0.214694
   5 H :    0.033249
   6 C :   -0.026493
   7 H :    0.034147
   8 H :    0.022577
   9 C :   -0.035615
  10 H :    0.028201
  11 H :    0.015034
  12 C :   -0.057806
  13 H :    0.023666
  14 H :    0.018339
  15 H :    0.020672
  16 S :    0.394405
  17 C :   -0.191152
  18 C :   -0.069617
  19 C :   -0.049446
  20 C :   -0.198090
  21 H :    0.025981
  22 C :   -0.012567
  23 H :    0.027167
  24 H :    0.033999
  25 C :   -0.034436
  26 H :    0.012056
  27 H :    0.021874
  28 C :   -0.056853
  29 H :    0.021618
  30 H :    0.019642
  31 H :    0.028505
  32 H :    0.035960
  33 H :    0.036799

  Mayer bond orders larger than 0.100000
B(  0-S ,  1-C ) :   1.1325 B(  0-S ,  4-C ) :   1.1832 B(  1-C ,  2-C ) :   1.6270
B(  1-C , 32-H ) :   0.9632 B(  2-C ,  3-C ) :   1.2343 B(  2-C ,  6-C ) :   1.0042
B(  3-C ,  4-C ) :   1.5739 B(  3-C ,  5-H ) :   0.9947 B(  4-C , 20-C ) :   1.0014
B(  6-C ,  7-H ) :   0.9369 B(  6-C ,  8-H ) :   0.9415 B(  6-C ,  9-C ) :   1.0786
B(  9-C , 10-H ) :   0.9580 B(  9-C , 11-H ) :   0.9568 B(  9-C , 12-C ) :   1.0785
B( 12-C , 13-H ) :   0.9774 B( 12-C , 14-H ) :   0.9764 B( 12-C , 15-H ) :   0.9702
B( 16-S , 17-C ) :   1.1194 B( 16-S , 20-C ) :   1.1391 B( 17-C , 18-C ) :   1.6602
B( 17-C , 33-H ) :   0.9592 B( 18-C , 19-C ) :   1.2190 B( 18-C , 21-H ) :   0.9771
B( 19-C , 20-C ) :   1.6436 B( 19-C , 22-C ) :   1.0253 B( 22-C , 23-H ) :   0.9303
B( 22-C , 24-H ) :   0.9315 B( 22-C , 25-C ) :   1.0709 B( 25-C , 26-H ) :   0.9515
B( 25-C , 27-H ) :   0.9530 B( 25-C , 28-C ) :   1.0747 B( 28-C , 29-H ) :   0.9752
B( 28-C , 30-H ) :   0.9779 B( 28-C , 31-H ) :   0.9739

Dispersion correction           -0.014750074
FINAL SINGLE POINT ENERGY     -1339.861938436735

DIPOLE MOMENT
-------------
                                X             Y             Z
Electronic contribution:      7.74298     -13.60133      16.28144
Nuclear contribution   :     -7.62606      14.08012     -16.62625
                        -----------------------------------------
Total Dipole Moment    :      0.11693       0.47879      -0.34482
                        -----------------------------------------
Magnitude (a.u.)       :      0.60151
Magnitude (Debye)      :      1.52891

Rotational constants in cm-1:     0.019944     0.008153     0.006991
Rotational constants in MHz :   597.892853   244.423709   209.592924

                             ****ORCA TERMINATED NORMALLY****
TOTAL RUN TIME: 0 days 0 hours 0 minutes 35 seconds 333 msec
