                         Program Version 4.2.1 -  RELEASE  -
|  1> ! wB97X-D3 SP def2-SVP
|  2> %pal
|  3> nprocs 16
|  4> end
|  5>
|  6> * xyz 0 1
|  7> S 	 -5.47779 	 65.2967 	 53.1799
|  8> C 	 -6.6593 	 64.2266 	 52.49
|  9> C 	 -7.8879 	 64.2923 	 53.0869
| 10> C 	 -7.78436 	 65.1047 	 54.1915
| 11> C 	 -6.6347 	 65.845 	 54.33
| 12> H 	 -8.5629 	 65.1428 	 55.0052
| 13> C 	 -9.05932 	 63.4725 	 52.7004
| 14> H 	 -8.90066 	 62.3569 	 52.63
| 15> H 	 -9.21647 	 63.7396 	 51.68
| 16> C 	 -10.2572 	 63.407 	 53.5941
| 17> H 	 -9.89292 	 62.9974 	 54.5488
| 18> H 	 -10.659 	 64.4036 	 53.8541
| 19> C 	 -11.4073 	 62.5934 	 53.003
| 20> H 	 -11.1576 	 61.5421 	 52.8361
| 21> H 	 -12.3497 	 62.4956 	 53.563
| 22> H 	 -11.7035 	 63.0669 	 52.0957
| 23> S 	 -4.60833 	 67.2229 	 55.6972
| 24> C 	 -4.99064 	 68.1233 	 57.1325
| 25> C 	 -6.33047 	 68.3037 	 57.2031
| 26> C 	 -7.06734 	 67.6485 	 56.136
| 27> C 	 -6.32317 	 66.8184 	 55.3443
| 28> H 	 -6.80628 	 68.9842 	 57.8872
| 29> C 	 -8.54895 	 68.0181 	 55.8457
| 30> H 	 -9.02568 	 67.4897 	 56.6913
| 31> H 	 -8.79625 	 67.621 	 54.8959
| 32> C 	 -8.81672 	 69.4817 	 55.89
| 33> H 	 -8.02477 	 69.9518 	 55.3029
| 34> H 	 -8.64029 	 69.8183 	 56.858
| 35> C 	 -10.304 	 69.838 	 55.3973
| 36> H 	 -10.4494 	 69.7673 	 54.4361
| 37> H 	 -10.6545 	 70.7261 	 55.875
| 38> H 	 -10.9603 	 69.0042 	 55.7843
| 39> H 	 -6.41644 	 63.5549 	 51.7499
| 40> H 	 -4.33732 	 68.6626 	 57.8449
| 41> *
| 42>
| 43>                          ****END OF INPUT****

CARTESIAN COORDINATES (ANGSTROEM)
---------------------------------
  S     -5.477790   65.296700   53.179900
  C     -6.659300   64.226600   52.490000
  C     -7.887900   64.292300   53.086900
  C     -7.784360   65.104700   54.191500
  C     -6.634700   65.845000   54.330000
  H     -8.562900   65.142800   55.005200
  C     -9.059320   63.472500   52.700400
  H     -8.900660   62.356900   52.630000
  H     -9.216470   63.739600   51.680000
  C    -10.257200   63.407000   53.594100
  H     -9.892920   62.997400   54.548800
  H    -10.659000   64.403600   53.854100
  C    -11.407300   62.593400   53.003000
  H    -11.157600   61.542100   52.836100
  H    -12.349700   62.495600   53.563000
  H    -11.703500   63.066900   52.095700
  S     -4.608330   67.222900   55.697200
  C     -4.990640   68.123300   57.132500
  C     -6.330470   68.303700   57.203100
  C     -7.067340   67.648500   56.136000
  C     -6.323170   66.818400   55.344300
  H     -6.806280   68.984200   57.887200
  C     -8.548950   68.018100   55.845700
  H     -9.025680   67.489700   56.691300
  H     -8.796250   67.621000   54.895900
  C     -8.816720   69.481700   55.890000
  H     -8.024770   69.951800   55.302900
  H     -8.640290   69.818300   56.858000
  C    -10.304000   69.838000   55.397300
  H    -10.449400   69.767300   54.436100
  H    -10.654500   70.726100   55.875000
  H    -10.960300   69.004200   55.784300
  H     -6.416440   63.554900   51.749900
  H     -4.337320   68.662600   57.844900

 Total Charge           Charge          ....    0
 Multiplicity           Mult            ....    1
 Number of Electrons    NEL             ....  134
 Basis Dimension        Dim             ....  322

ORBITAL ENERGIES
----------------

  NO   OCC          E(Eh)            E(eV)
   0   2.0000     -88.968014     -2420.9427
   1   2.0000     -88.958733     -2420.6902
   2   2.0000     -10.326942      -281.0104
   3   2.0000     -10.325895      -280.9819
   4   2.0000     -10.318680      -280.7855
   5   2.0000     -10.305107      -280.4162
   6   2.0000     -10.300692      -280.2961
   7   2.0000     -10.295530      -280.1556
   8   2.0000     -10.292118      -280.0628
   9   2.0000     -10.291949      -280.0582
  10   2.0000     -10.291511      -280.0463
  11   2.0000     -10.290417      -280.0165
  12   2.0000     -10.285701      -279.8882
  13   2.0000     -10.281811      -279.7823
  14   2.0000     -10.281054      -279.7617
  15   2.0000     -10.273899      -279.5670
  16   2.0000      -8.083508      -219.9634
  17   2.0000      -8.073479      -219.6905
  18   2.0000      -6.041841      -164.4068
  19   2.0000      -6.037988      -164.3020
  20   2.0000      -6.034338      -164.2027
  21   2.0000      -6.032267      -164.1463
  22   2.0000      -6.028175      -164.0350
  23   2.0000      -6.023738      -163.9142
  24   2.0000      -1.015818       -27.6418
  25   2.0000      -0.989924       -26.9372
  26   2.0000      -0.924624       -25.1603
  27   2.0000      -0.910250       -24.7691
  28   2.0000      -0.878153       -23.8958
  29   2.0000      -0.856002       -23.2930
  30   2.0000      -0.838531       -22.8176
  31   2.0000      -0.819608       -22.3027
  32   2.0000      -0.787839       -21.4382
  33   2.0000      -0.779341       -21.2070
  34   2.0000      -0.720344       -19.6016
  35   2.0000      -0.707376       -19.2487
  36   2.0000      -0.696568       -18.9546
  37   2.0000      -0.655417       -17.8348
  38   2.0000      -0.645446       -17.5635
  39   2.0000      -0.626189       -17.0395
  40   2.0000      -0.593418       -16.1477
  41   2.0000      -0.582211       -15.8428
  42   2.0000      -0.573411       -15.6033
  43   2.0000      -0.570800       -15.5323
  44   2.0000      -0.534011       -14.5312
  45   2.0000      -0.525334       -14.2951
  46   2.0000      -0.515021       -14.0144
  47   2.0000      -0.512067       -13.9341
  48   2.0000      -0.508146       -13.8274
  49   2.0000      -0.501056       -13.6344
  50   2.0000      -0.492344       -13.3974
  51   2.0000      -0.488374       -13.2893
  52   2.0000      -0.472905       -12.8684
  53   2.0000      -0.471231       -12.8228
  54   2.0000      -0.459959       -12.5161
  55   2.0000      -0.454002       -12.3540
  56   2.0000      -0.448840       -12.2136
  57   2.0000      -0.437350       -11.9009
  58   2.0000      -0.434038       -11.8108
  59   2.0000      -0.429306       -11.6820
  60   2.0000      -0.423614       -11.5271
  61   2.0000      -0.418298       -11.3825
  62   2.0000      -0.401213       -10.9176
  63   2.0000      -0.361009        -9.8235
  64   2.0000      -0.337410        -9.1814
  65   2.0000      -0.320869        -8.7313
  66   2.0000      -0.279625        -7.6090
  67   0.0000       0.019985         0.5438
  68   0.0000       0.085242         2.3195
  69   0.0000       0.097499         2.6531
  70   0.0000       0.124390         3.3848
  71   0.0000       0.139325         3.7912

MULLIKEN ATOMIC CHARGES
-----------------------
   0 S :    0.119495
   1 C :   -0.100106
   2 C :   -0.023288
   3 C :   -0.066043
   4 C :   -0.104432
   5 H :    0.034754
   6 C :    0.038016
   7 H :    0.033935
   8 H :    0.025662
   9 C :   -0.078361
  10 H :    0.033395
  11 H :    0.027744
  12 C :   -0.033351
  13 H :    0.027752
  14 H :    0.034001
  15 H :    0.024253
  16 S :    0.070345
  17 C :   -0.069043
  18 C :   -0.035608
  19 C :   -0.111112
  20 C :   -0.120187
  21 H :    0.013026
  22 C :    0.078297
  23 H :    0.036698
  24 H :    0.020456
  25 C :   -0.069550
  26 H :    0.035776
  27 H :    0.005212
  28 C :    0.014621
  29 H :    0.005898
  30 H :    0.034418
  31 H :    0.019179
  32 H :    0.009370
  33 H :    0.068778
Sum of atomic charges:    0.0000000

LOEWDIN ATOMIC CHARGES
----------------------
   0 S :    0.428773
   1 C :   -0.177636
   2 C :   -0.065975
   3 C :   -0.071936
   4 C :   -0.202825
   5 H :    0.038998
   6 C :   -0.039835
   7 H :    0.043258
   8 H :    0.030970
   9 C :   -0.044336
  10 H :    0.026607
  11 H :    0.020741
  12 C :   -0.064445
  13 H :    0.024673
  14 H :    0.031349
  15 H :    0.023451
  16 S :    0.369478
  17 C :   -0.184821
  18 C :   -0.079983
  19 C :   -0.057063
  20 C :   -0.180030
  21 H :    0.027051
  22 C :   -0.028524
  23 H :    0.034184
  24 H :    0.021480
  25 C :   -0.032989
  26 H :    0.027588
  27 H :    0.010813
  28 C :   -0.043596
  29 H :    0.000764
  30 H :    0.026260
  31 H :    0.034500
  32 H :    0.008947
  33 H :    0.044111

  Mayer bond orders larger than 0.100000
B(  0-S ,  1-C ) :   1.1591 B(  0-S ,  4-C ) :   1.1518 B(  1-C ,  2-C ) :   1.5716
B(  1-C ,  4-C ) :   0.1061 B(  1-C , 32-H ) :   0.9838 B(  2-C ,  3-C ) :   1.3067
B(  2-C ,  6-C ) :   0.9990 B(  3-C ,  4-C ) :   1.5303 B(  3-C ,  5-H ) :   0.9771
B(  4-C , 20-C ) :   1.0973 B(  6-C ,  7-H ) :   0.9414 B(  6-C ,  8-H ) :   0.9286
B(  6-C ,  9-C ) :   1.0726 B(  9-C , 10-H ) :   0.9485 B(  9-C , 11-H ) :   0.9479
B(  9-C , 12-C ) :   1.0840 B( 12-C , 13-H ) :   0.9728 B( 12-C , 14-H ) :   0.9729
B( 12-C , 15-H ) :   0.9738 B( 16-S , 17-C ) :   1.1425 B( 16-S , 20-C ) :   1.0897
B( 17-C , 18-C ) :   1.6343 B( 17-C , 33-H ) :   0.9613 B( 18-C , 19-C ) :   1.2197
B( 18-C , 21-H ) :   0.9887 B( 19-C , 20-C ) :   1.6341 B( 19-C , 22-C ) :   1.0143
B( 22-C , 23-H ) :   0.9221 B( 22-C , 24-H ) :   0.9461 B( 22-C , 25-C ) :   1.0819
B( 25-C , 26-H ) :   0.9588 B( 25-C , 27-H ) :   0.9472 B( 25-C , 28-C ) :   1.0704
B( 28-C , 29-H ) :   0.9790 B( 28-C , 30-H ) :   0.9775 B( 28-C , 31-H ) :   0.9719

Dispersion correction           -0.013390433
FINAL SINGLE POINT ENERGY     -1339.843791437715

DIPOLE MOMENT
-------------
                                X             Y             Z
Electronic contribution:     31.69195       0.77607       0.28922
Nuclear contribution   :    -32.48730      -0.80177      -0.22204
                        -----------------------------------------
Total Dipole Moment    :     -0.79534      -0.02569       0.06718
                        -----------------------------------------
Magnitude (a.u.)       :      0.79859
Magnitude (Debye)      :      2.02985

Rotational constants in cm-1:     0.016641     0.008883     0.006290
Rotational constants in MHz :   498.880015   266.308692   188.567047

                             ****ORCA TERMINATED NORMALLY****
TOTAL RUN TIME: 0 days 0 hours 0 minutes 33 seconds 702 msec
