                         Program Version 4.2.1 -  RELEASE  -
|  1> ! wB97X-D3 SP def2-SVP
|  2> %pal
|  3> nprocs 16
|  4> end
|  5>
|  6> * xyz 0 1
|  7> S 	 47.1633 	 13.8654 	 82.8799
|  8> C 	 46.1764 	 15.0478 	 82.1046
|  9> C 	 44.8321 	 14.686 	 82.0792
| 10> C 	 44.6916 	 13.3542 	 82.4012
| 11> C 	 45.8279 	 12.7242 	 82.7881
| 12> H 	 43.8093 	 12.7803 	 82.4316
| 13> C 	 43.6356 	 15.5717 	 81.5909
| 14> H 	 44.0109 	 16.1654 	 80.7251
| 15> H 	 43.2875 	 16.2437 	 82.3225
| 16> C 	 42.337 	 14.8208 	 81.1274
| 17> H 	 42.5903 	 14.0031 	 80.4397
| 18> H 	 41.8237 	 14.2924 	 81.9543
| 19> C 	 41.3116 	 15.7958 	 80.5937
| 20> H 	 41.4694 	 16.0441 	 79.5119
| 21> H 	 40.3913 	 15.3536 	 80.3463
| 22> H 	 40.961 	 16.5859 	 81.3065
| 23> S 	 46.1869 	 10.2141 	 81.7885
| 24> C 	 46.4818 	 8.85882 	 82.7889
| 25> C 	 46.4878 	 9.21155 	 84.1476
| 26> C 	 46.2678 	 10.5723 	 84.3673
| 27> C 	 45.9409 	 11.3073 	 83.1971
| 28> H 	 46.7646 	 8.48129 	 84.8734
| 29> C 	 46.1328 	 11.1548 	 85.7862
| 30> H 	 46.0895 	 12.2258 	 85.7472
| 31> H 	 46.9908 	 10.9068 	 86.4423
| 32> C 	 44.9075 	 10.5573 	 86.607
| 33> H 	 45.2902 	 10.1573 	 87.5801
| 34> H 	 44.3873 	 9.75636 	 86.1359
| 35> C 	 43.7998 	 11.6236 	 86.8914
| 36> H 	 44.3071 	 12.4975 	 87.3344
| 37> H 	 43.1738 	 11.2428 	 87.6442
| 38> H 	 43.2079 	 11.966 	 86.0106
| 39> H 	 46.4354 	 16.102 	 82.0147
| 40> H 	 46.7443 	 7.82944 	 82.4066
| 41> *
| 42>
| 43>                          ****END OF INPUT****

CARTESIAN COORDINATES (ANGSTROEM)
---------------------------------
  S     47.163300   13.865400   82.879900
  C     46.176400   15.047800   82.104600
  C     44.832100   14.686000   82.079200
  C     44.691600   13.354200   82.401200
  C     45.827900   12.724200   82.788100
  H     43.809300   12.780300   82.431600
  C     43.635600   15.571700   81.590900
  H     44.010900   16.165400   80.725100
  H     43.287500   16.243700   82.322500
  C     42.337000   14.820800   81.127400
  H     42.590300   14.003100   80.439700
  H     41.823700   14.292400   81.954300
  C     41.311600   15.795800   80.593700
  H     41.469400   16.044100   79.511900
  H     40.391300   15.353600   80.346300
  H     40.961000   16.585900   81.306500
  S     46.186900   10.214100   81.788500
  C     46.481800    8.858820   82.788900
  C     46.487800    9.211550   84.147600
  C     46.267800   10.572300   84.367300
  C     45.940900   11.307300   83.197100
  H     46.764600    8.481290   84.873400
  C     46.132800   11.154800   85.786200
  H     46.089500   12.225800   85.747200
  H     46.990800   10.906800   86.442300
  C     44.907500   10.557300   86.607000
  H     45.290200   10.157300   87.580100
  H     44.387300    9.756360   86.135900
  C     43.799800   11.623600   86.891400
  H     44.307100   12.497500   87.334400
  H     43.173800   11.242800   87.644200
  H     43.207900   11.966000   86.010600
  H     46.435400   16.102000   82.014700
  H     46.744300    7.829440   82.406600

 Total Charge           Charge          ....    0
 Multiplicity           Mult            ....    1
 Number of Electrons    NEL             ....  134
 Basis Dimension        Dim             ....  322

ORBITAL ENERGIES
----------------

  NO   OCC          E(Eh)            E(eV)
   0   2.0000     -88.967742     -2420.9353
   1   2.0000     -88.963090     -2420.8087
   2   2.0000     -10.329566      -281.0818
   3   2.0000     -10.324787      -280.9517
   4   2.0000     -10.321107      -280.8516
   5   2.0000     -10.310684      -280.5680
   6   2.0000     -10.308598      -280.5112
   7   2.0000     -10.298997      -280.2500
   8   2.0000     -10.296334      -280.1775
   9   2.0000     -10.293773      -280.1078
  10   2.0000     -10.292221      -280.0656
  11   2.0000     -10.289650      -279.9956
  12   2.0000     -10.288219      -279.9567
  13   2.0000     -10.281891      -279.7845
  14   2.0000     -10.280525      -279.7473
  15   2.0000     -10.274812      -279.5919
  16   2.0000      -8.082465      -219.9350
  17   2.0000      -8.077788      -219.8078
  18   2.0000      -6.040790      -164.3783
  19   2.0000      -6.037042      -164.2763
  20   2.0000      -6.036126      -164.2513
  21   2.0000      -6.033354      -164.1759
  22   2.0000      -6.032100      -164.1418
  23   2.0000      -6.028917      -164.0552
  24   2.0000      -1.007124       -27.4052
  25   2.0000      -0.984764       -26.7968
  26   2.0000      -0.905813       -24.6484
  27   2.0000      -0.897464       -24.4212
  28   2.0000      -0.866094       -23.5676
  29   2.0000      -0.853503       -23.2250
  30   2.0000      -0.846188       -23.0259
  31   2.0000      -0.810954       -22.0672
  32   2.0000      -0.782096       -21.2819
  33   2.0000      -0.768726       -20.9181
  34   2.0000      -0.707166       -19.2430
  35   2.0000      -0.696297       -18.9472
  36   2.0000      -0.686808       -18.6890
  37   2.0000      -0.656899       -17.8751
  38   2.0000      -0.641948       -17.4683
  39   2.0000      -0.623223       -16.9588
  40   2.0000      -0.596371       -16.2281
  41   2.0000      -0.574059       -15.6209
  42   2.0000      -0.562680       -15.3113
  43   2.0000      -0.548171       -14.9165
  44   2.0000      -0.525004       -14.2861
  45   2.0000      -0.518813       -14.1176
  46   2.0000      -0.516849       -14.0642
  47   2.0000      -0.508622       -13.8403
  48   2.0000      -0.499521       -13.5927
  49   2.0000      -0.493072       -13.4172
  50   2.0000      -0.488212       -13.2849
  51   2.0000      -0.480635       -13.0787
  52   2.0000      -0.469716       -12.7816
  53   2.0000      -0.465849       -12.6764
  54   2.0000      -0.457879       -12.4595
  55   2.0000      -0.449912       -12.2427
  56   2.0000      -0.439057       -11.9473
  57   2.0000      -0.434501       -11.8234
  58   2.0000      -0.430230       -11.7072
  59   2.0000      -0.426821       -11.6144
  60   2.0000      -0.423506       -11.5242
  61   2.0000      -0.412584       -11.2270
  62   2.0000      -0.408797       -11.1239
  63   2.0000      -0.340169        -9.2565
  64   2.0000      -0.330650        -8.9975
  65   2.0000      -0.321915        -8.7598
  66   2.0000      -0.301067        -8.1924
  67   0.0000       0.038832         1.0567
  68   0.0000       0.051128         1.3913
  69   0.0000       0.110248         3.0000
  70   0.0000       0.120252         3.2722
  71   0.0000       0.137429         3.7396

MULLIKEN ATOMIC CHARGES
-----------------------
   0 S :    0.135836
   1 C :   -0.124403
   2 C :   -0.064955
   3 C :    0.032457
   4 C :   -0.146568
   5 H :   -0.009143
   6 C :    0.074887
   7 H :    0.039730
   8 H :    0.026834
   9 C :   -0.111735
  10 H :    0.036056
  11 H :    0.033795
  12 C :   -0.036143
  13 H :    0.031265
  14 H :    0.002709
  15 H :    0.048024
  16 S :    0.107286
  17 C :   -0.110767
  18 C :   -0.034460
  19 C :   -0.016111
  20 C :   -0.194799
  21 H :    0.011813
  22 C :    0.075964
  23 H :    0.020024
  24 H :    0.031353
  25 C :   -0.090604
  26 H :    0.029853
  27 H :    0.034929
  28 C :   -0.063991
  29 H :    0.027483
  30 H :    0.023608
  31 H :    0.050015
  32 H :    0.050438
  33 H :    0.079320
Sum of atomic charges:    0.0000000

LOEWDIN ATOMIC CHARGES
----------------------
   0 S :    0.420825
   1 C :   -0.206457
   2 C :   -0.064253
   3 C :   -0.059068
   4 C :   -0.204179
   5 H :    0.026950
   6 C :   -0.024979
   7 H :    0.037855
   8 H :    0.023974
   9 C :   -0.047943
  10 H :    0.026524
  11 H :    0.025312
  12 C :   -0.083543
  13 H :    0.036471
  14 H :    0.021897
  15 H :    0.036822
  16 S :    0.415686
  17 C :   -0.201506
  18 C :   -0.080321
  19 C :   -0.049898
  20 C :   -0.195928
  21 H :    0.028990
  22 C :   -0.028405
  23 H :    0.023021
  24 H :    0.035946
  25 C :   -0.036142
  26 H :    0.026151
  27 H :    0.019486
  28 C :   -0.065240
  29 H :    0.023509
  30 H :    0.017141
  31 H :    0.030867
  32 H :    0.028417
  33 H :    0.042016

  Mayer bond orders larger than 0.100000
B(  0-S ,  1-C ) :   1.1668 B(  0-S ,  4-C ) :   1.1405 B(  1-C ,  2-C ) :   1.5992
B(  1-C , 32-H ) :   0.9627 B(  2-C ,  3-C ) :   1.2739 B(  2-C ,  6-C ) :   0.9908
B(  3-C ,  4-C ) :   1.5619 B(  3-C ,  5-H ) :   1.0029 B(  4-C , 20-C ) :   1.0172
B(  6-C ,  7-H ) :   0.9521 B(  6-C ,  8-H ) :   0.9358 B(  6-C ,  9-C ) :   1.0763
B(  9-C , 10-H ) :   0.9548 B(  9-C , 11-H ) :   0.9479 B(  9-C , 12-C ) :   1.0976
B( 12-C , 13-H ) :   0.9646 B( 12-C , 14-H ) :   0.9595 B( 12-C , 15-H ) :   0.9699
B( 16-S , 17-C ) :   1.1980 B( 16-S , 20-C ) :   1.1472 B( 17-C , 18-C ) :   1.5544
B( 17-C , 20-C ) :   0.1136 B( 17-C , 33-H ) :   0.9587 B( 18-C , 19-C ) :   1.2770
B( 18-C , 21-H ) :   0.9976 B( 19-C , 20-C ) :   1.5515 B( 19-C , 22-C ) :   1.0569
B( 22-C , 23-H ) :   0.9468 B( 22-C , 24-H ) :   0.9408 B( 22-C , 25-C ) :   1.0269
B( 25-C , 26-H ) :   0.9622 B( 25-C , 27-H ) :   0.9662 B( 25-C , 28-C ) :   1.0828
B( 28-C , 29-H ) :   0.9784 B( 28-C , 30-H ) :   0.9744 B( 28-C , 31-H ) :   0.9766

Dispersion correction           -0.013787237
FINAL SINGLE POINT ENERGY     -1339.856632747255

DIPOLE MOMENT
-------------
                                X             Y             Z
Electronic contribution:     21.82530      -8.39940      -8.76357
Nuclear contribution   :    -22.27042       8.42366       9.07157
                        -----------------------------------------
Total Dipole Moment    :     -0.44513       0.02426       0.30799
                        -----------------------------------------
Magnitude (a.u.)       :      0.54184
Magnitude (Debye)      :      1.37724

Rotational constants in cm-1:     0.017699     0.007795     0.007114
Rotational constants in MHz :   530.595151   233.676801   213.264508

                             ****ORCA TERMINATED NORMALLY****
TOTAL RUN TIME: 0 days 0 hours 0 minutes 27 seconds 298 msec
