                         Program Version 4.2.1 -  RELEASE  -
|  1> ! wB97X-D3 SP def2-SVP
|  2> %pal
|  3> nprocs 16
|  4> end
|  5>
|  6> * xyz 0 1
|  7> S 	 -34.4444 	 52.2522 	 110.185
|  8> C 	 -35.8187 	 52.1898 	 111.301
|  9> C 	 -36.4959 	 51.0067 	 111.001
| 10> C 	 -35.8557 	 50.1235 	 110.074
| 11> C 	 -34.7352 	 50.6523 	 109.504
| 12> H 	 -36.2417 	 49.2174 	 109.718
| 13> C 	 -37.7692 	 50.5729 	 111.765
| 14> H 	 -38.2059 	 51.5213 	 111.605
| 15> H 	 -37.7413 	 50.4656 	 112.83
| 16> C 	 -38.3475 	 49.289 	 111.167
| 17> H 	 -38.5327 	 49.3051 	 110.085
| 18> H 	 -37.5729 	 48.5086 	 111.171
| 19> C 	 -39.4938 	 48.5979 	 112.003
| 20> H 	 -39.5551 	 47.5288 	 111.764
| 21> H 	 -39.1674 	 48.5427 	 113.023
| 22> H 	 -40.4536 	 49.0995 	 111.964
| 23> S 	 -32.8927 	 48.6806 	 109.002
| 24> C 	 -32.4873 	 48.3262 	 107.361
| 25> C 	 -32.8956 	 49.2956 	 106.455
| 26> C 	 -33.7247 	 50.2413 	 107.118
| 27> C 	 -33.8545 	 50.0271 	 108.488
| 28> H 	 -32.6258 	 49.2987 	 105.408
| 29> C 	 -34.4 	 51.3465 	 106.387
| 30> H 	 -33.6783 	 51.7389 	 105.616
| 31> H 	 -34.5108 	 52.2372 	 107.019
| 32> C 	 -35.7205 	 51.007 	 105.688
| 33> H 	 -35.7744 	 51.7016 	 104.93
| 34> H 	 -36.5376 	 51.2264 	 106.329
| 35> C 	 -36.0309 	 49.6342 	 105.177
| 36> H 	 -36.9124 	 49.6933 	 104.575
| 37> H 	 -36.15 	 48.82 	 105.922
| 38> H 	 -35.1971 	 49.3766 	 104.57
| 39> H 	 -36.223 	 52.9318 	 112.101
| 40> H 	 -31.8346 	 47.5706 	 107.052
| 41> *
| 42>
| 43>                          ****END OF INPUT****

CARTESIAN COORDINATES (ANGSTROEM)
---------------------------------
  S    -34.444400   52.252200  110.185000
  C    -35.818700   52.189800  111.301000
  C    -36.495900   51.006700  111.001000
  C    -35.855700   50.123500  110.074000
  C    -34.735200   50.652300  109.504000
  H    -36.241700   49.217400  109.718000
  C    -37.769200   50.572900  111.765000
  H    -38.205900   51.521300  111.605000
  H    -37.741300   50.465600  112.830000
  C    -38.347500   49.289000  111.167000
  H    -38.532700   49.305100  110.085000
  H    -37.572900   48.508600  111.171000
  C    -39.493800   48.597900  112.003000
  H    -39.555100   47.528800  111.764000
  H    -39.167400   48.542700  113.023000
  H    -40.453600   49.099500  111.964000
  S    -32.892700   48.680600  109.002000
  C    -32.487300   48.326200  107.361000
  C    -32.895600   49.295600  106.455000
  C    -33.724700   50.241300  107.118000
  C    -33.854500   50.027100  108.488000
  H    -32.625800   49.298700  105.408000
  C    -34.400000   51.346500  106.387000
  H    -33.678300   51.738900  105.616000
  H    -34.510800   52.237200  107.019000
  C    -35.720500   51.007000  105.688000
  H    -35.774400   51.701600  104.930000
  H    -36.537600   51.226400  106.329000
  C    -36.030900   49.634200  105.177000
  H    -36.912400   49.693300  104.575000
  H    -36.150000   48.820000  105.922000
  H    -35.197100   49.376600  104.570000
  H    -36.223000   52.931800  112.101000
  H    -31.834600   47.570600  107.052000

 Total Charge           Charge          ....    0
 Multiplicity           Mult            ....    1
 Number of Electrons    NEL             ....  134
 Basis Dimension        Dim             ....  322

ORBITAL ENERGIES
----------------

  NO   OCC          E(Eh)            E(eV)
   0   2.0000     -88.968609     -2420.9589
   1   2.0000     -88.965370     -2420.8708
   2   2.0000     -10.330487      -281.1068
   3   2.0000     -10.324237      -280.9368
   4   2.0000     -10.323465      -280.9158
   5   2.0000     -10.313113      -280.6341
   6   2.0000     -10.302815      -280.3539
   7   2.0000     -10.300317      -280.2859
   8   2.0000     -10.294109      -280.1169
   9   2.0000     -10.291819      -280.0546
  10   2.0000     -10.287933      -279.9489
  11   2.0000     -10.287759      -279.9442
  12   2.0000     -10.287515      -279.9375
  13   2.0000     -10.279467      -279.7185
  14   2.0000     -10.268964      -279.4327
  15   2.0000     -10.268492      -279.4199
  16   2.0000      -8.083815      -219.9718
  17   2.0000      -8.078980      -219.8402
  18   2.0000      -6.042130      -164.4147
  19   2.0000      -6.038254      -164.3092
  20   2.0000      -6.037652      -164.2929
  21   2.0000      -6.034759      -164.2142
  22   2.0000      -6.033411      -164.1775
  23   2.0000      -6.029843      -164.0804
  24   2.0000      -1.007170       -27.4065
  25   2.0000      -0.985244       -26.8099
  26   2.0000      -0.912569       -24.8323
  27   2.0000      -0.908011       -24.7082
  28   2.0000      -0.868034       -23.6204
  29   2.0000      -0.854308       -23.2469
  30   2.0000      -0.840351       -22.8671
  31   2.0000      -0.820659       -22.3313
  32   2.0000      -0.785635       -21.3782
  33   2.0000      -0.770734       -20.9727
  34   2.0000      -0.719233       -19.5713
  35   2.0000      -0.698798       -19.0153
  36   2.0000      -0.683918       -18.6104
  37   2.0000      -0.666554       -18.1379
  38   2.0000      -0.636047       -17.3077
  39   2.0000      -0.618559       -16.8319
  40   2.0000      -0.590828       -16.0772
  41   2.0000      -0.576939       -15.6993
  42   2.0000      -0.561205       -15.2712
  43   2.0000      -0.555387       -15.1128
  44   2.0000      -0.549398       -14.9499
  45   2.0000      -0.528946       -14.3934
  46   2.0000      -0.519451       -14.1350
  47   2.0000      -0.507323       -13.8050
  48   2.0000      -0.504268       -13.7218
  49   2.0000      -0.490559       -13.3488
  50   2.0000      -0.489561       -13.3216
  51   2.0000      -0.477827       -13.0023
  52   2.0000      -0.470482       -12.8025
  53   2.0000      -0.465251       -12.6601
  54   2.0000      -0.457787       -12.4570
  55   2.0000      -0.454780       -12.3752
  56   2.0000      -0.448757       -12.2113
  57   2.0000      -0.442796       -12.0491
  58   2.0000      -0.437497       -11.9049
  59   2.0000      -0.426590       -11.6081
  60   2.0000      -0.421931       -11.4813
  61   2.0000      -0.400117       -10.8877
  62   2.0000      -0.395451       -10.7608
  63   2.0000      -0.337476        -9.1832
  64   2.0000      -0.333517        -9.0755
  65   2.0000      -0.321977        -8.7614
  66   2.0000      -0.303279        -8.2526
  67   0.0000       0.039557         1.0764
  68   0.0000       0.058055         1.5798
  69   0.0000       0.110193         2.9985
  70   0.0000       0.119857         3.2615
  71   0.0000       0.131738         3.5848

MULLIKEN ATOMIC CHARGES
-----------------------
   0 S :    0.107126
   1 C :   -0.160264
   2 C :   -0.120689
   3 C :    0.054027
   4 C :   -0.141761
   5 H :   -0.009635
   6 C :    0.108387
   7 H :    0.022892
   8 H :    0.031257
   9 C :   -0.136674
  10 H :    0.033065
  11 H :    0.035289
  12 C :   -0.019238
  13 H :    0.029805
  14 H :    0.017218
  15 H :    0.043384
  16 S :    0.133599
  17 C :   -0.069952
  18 C :   -0.037573
  19 C :   -0.033105
  20 C :   -0.181839
  21 H :    0.023646
  22 C :    0.056163
  23 H :    0.022899
  24 H :    0.021371
  25 C :   -0.029586
  26 H :    0.003198
  27 H :    0.016412
  28 C :   -0.018709
  29 H :    0.030383
  30 H :    0.041737
  31 H :    0.005580
  32 H :    0.086804
  33 H :    0.034781
Sum of atomic charges:   -0.0000000

LOEWDIN ATOMIC CHARGES
----------------------
   0 S :    0.397809
   1 C :   -0.221672
   2 C :   -0.060187
   3 C :   -0.064847
   4 C :   -0.188164
   5 H :    0.023701
   6 C :   -0.034897
   7 H :    0.031062
   8 H :    0.029209
   9 C :   -0.047350
  10 H :    0.024487
  11 H :    0.027735
  12 C :   -0.063643
  13 H :    0.029675
  14 H :    0.021777
  15 H :    0.023530
  16 S :    0.435247
  17 C :   -0.180563
  18 C :   -0.067316
  19 C :   -0.053126
  20 C :   -0.215318
  21 H :    0.033523
  22 C :   -0.038114
  23 H :    0.034779
  24 H :    0.030875
  25 C :   -0.035948
  26 H :    0.016444
  27 H :    0.021288
  28 C :   -0.059250
  29 H :    0.027249
  30 H :    0.030734
  31 H :    0.016037
  32 H :    0.058690
  33 H :    0.016545

  Mayer bond orders larger than 0.100000
B(  0-S ,  1-C ) :   1.1322 B(  0-S ,  4-C ) :   1.1525 B(  1-C ,  2-C ) :   1.6152
B(  1-C ,  4-C ) :   0.1024 B(  1-C , 32-H ) :   0.9586 B(  2-C ,  3-C ) :   1.2458
B(  2-C ,  6-C ) :   0.9659 B(  3-C ,  4-C ) :   1.5761 B(  3-C ,  5-H ) :   0.9995
B(  4-C , 20-C ) :   0.9898 B(  6-C ,  7-H ) :   0.9347 B(  6-C ,  8-H ) :   0.9479
B(  6-C ,  9-C ) :   1.0797 B(  9-C , 10-H ) :   0.9564 B(  9-C , 11-H ) :   0.9426
B(  9-C , 12-C ) :   1.0729 B( 12-C , 13-H ) :   0.9755 B( 12-C , 14-H ) :   0.9709
B( 12-C , 15-H ) :   0.9781 B( 16-S , 17-C ) :   1.1792 B( 16-S , 20-C ) :   1.1528
B( 17-C , 18-C ) :   1.5834 B( 17-C , 33-H ) :   0.9703 B( 18-C , 19-C ) :   1.2574
B( 18-C , 21-H ) :   0.9899 B( 19-C , 20-C ) :   1.5848 B( 19-C , 22-C ) :   1.0632
B( 22-C , 23-H ) :   0.9326 B( 22-C , 24-H ) :   0.9289 B( 22-C , 25-C ) :   1.0601
B( 25-C , 26-H ) :   0.9481 B( 25-C , 27-H ) :   0.9491 B( 25-C , 28-C ) :   1.1094
B( 28-C , 29-H ) :   0.9686 B( 28-C , 30-H ) :   0.9667 B( 28-C , 31-H ) :   0.9704

Dispersion correction           -0.014623735
FINAL SINGLE POINT ENERGY     -1339.851782883003

DIPOLE MOMENT
-------------
                                X             Y             Z
Electronic contribution:     22.67784       4.81248       5.84695
Nuclear contribution   :    -23.08341      -4.95978      -6.06439
                        -----------------------------------------
Total Dipole Moment    :     -0.40557      -0.14731      -0.21744
                        -----------------------------------------
Magnitude (a.u.)       :      0.48318
Magnitude (Debye)      :      1.22816

Rotational constants in cm-1:     0.018161     0.008201     0.007821
Rotational constants in MHz :   544.457926   245.850796   234.452766

                             ****ORCA TERMINATED NORMALLY****
TOTAL RUN TIME: 0 days 0 hours 0 minutes 28 seconds 718 msec
