                         Program Version 4.2.1 -  RELEASE  -
|  1> ! wB97X-D3 SP def2-SVP
|  2> %pal
|  3> nprocs 16
|  4> end
|  5>
|  6> * xyz 0 1
|  7> S 	 37.7644 	 23.8262 	 97.019
|  8> C 	 38.2218 	 25.0612 	 95.8217
|  9> C 	 39.5132 	 24.916 	 95.3576
| 10> C 	 40.1102 	 23.755 	 95.9812
| 11> C 	 39.3227 	 23.0398 	 96.8869
| 12> H 	 41.0454 	 23.355 	 95.7613
| 13> C 	 40.1946 	 25.505 	 94.1966
| 14> H 	 41.1535 	 25.8483 	 94.5806
| 15> H 	 39.7611 	 26.4121 	 93.9158
| 16> C 	 40.4425 	 24.7059 	 92.9529
| 17> H 	 39.4886 	 24.4335 	 92.524
| 18> H 	 40.8123 	 25.5131 	 92.428
| 19> C 	 41.3854 	 23.5382 	 93.094
| 20> H 	 41.5635 	 23.2281 	 92.0736
| 21> H 	 42.3247 	 23.8362 	 93.4789
| 22> H 	 41.164 	 22.8821 	 93.8105
| 23> S 	 41.1867 	 21.776 	 98.4522
| 24> C 	 40.8729 	 20.1685 	 99.0793
| 25> C 	 39.7026 	 19.7078 	 98.6046
| 26> C 	 38.963 	 20.6381 	 97.8026
| 27> C 	 39.676 	 21.7926 	 97.5932
| 28> H 	 39.3615 	 18.8035 	 98.9877
| 29> C 	 37.5483 	 20.3105 	 97.4309
| 30> H 	 37.1048 	 21.1841 	 97.1588
| 31> H 	 37.0215 	 20.0927 	 98.3188
| 32> C 	 37.3702 	 19.1495 	 96.4274
| 33> H 	 36.3205 	 19.0879 	 96.1681
| 34> H 	 37.5285 	 18.244 	 96.9607
| 35> C 	 38.1321 	 19.2499 	 95.1023
| 36> H 	 37.644 	 19.986 	 94.4918
| 37> H 	 38.173 	 18.3277 	 94.6214
| 38> H 	 39.1757 	 19.5533 	 95.2319
| 39> H 	 37.4878 	 25.8203 	 95.4314
| 40> H 	 41.5906 	 19.5741 	 99.7083
| 41> *
| 42>
| 43>                          ****END OF INPUT****

CARTESIAN COORDINATES (ANGSTROEM)
---------------------------------
  S     37.764400   23.826200   97.019000
  C     38.221800   25.061200   95.821700
  C     39.513200   24.916000   95.357600
  C     40.110200   23.755000   95.981200
  C     39.322700   23.039800   96.886900
  H     41.045400   23.355000   95.761300
  C     40.194600   25.505000   94.196600
  H     41.153500   25.848300   94.580600
  H     39.761100   26.412100   93.915800
  C     40.442500   24.705900   92.952900
  H     39.488600   24.433500   92.524000
  H     40.812300   25.513100   92.428000
  C     41.385400   23.538200   93.094000
  H     41.563500   23.228100   92.073600
  H     42.324700   23.836200   93.478900
  H     41.164000   22.882100   93.810500
  S     41.186700   21.776000   98.452200
  C     40.872900   20.168500   99.079300
  C     39.702600   19.707800   98.604600
  C     38.963000   20.638100   97.802600
  C     39.676000   21.792600   97.593200
  H     39.361500   18.803500   98.987700
  C     37.548300   20.310500   97.430900
  H     37.104800   21.184100   97.158800
  H     37.021500   20.092700   98.318800
  C     37.370200   19.149500   96.427400
  H     36.320500   19.087900   96.168100
  H     37.528500   18.244000   96.960700
  C     38.132100   19.249900   95.102300
  H     37.644000   19.986000   94.491800
  H     38.173000   18.327700   94.621400
  H     39.175700   19.553300   95.231900
  H     37.487800   25.820300   95.431400
  H     41.590600   19.574100   99.708300

 Total Charge           Charge          ....    0
 Multiplicity           Mult            ....    1
 Number of Electrons    NEL             ....  134
 Basis Dimension        Dim             ....  322

ORBITAL ENERGIES
----------------

  NO   OCC          E(Eh)            E(eV)
   0   2.0000     -88.966183     -2420.8929
   1   2.0000     -88.962466     -2420.7918
   2   2.0000     -10.331247      -281.1275
   3   2.0000     -10.326776      -281.0059
   4   2.0000     -10.319748      -280.8146
   5   2.0000     -10.317308      -280.7482
   6   2.0000     -10.299369      -280.2601
   7   2.0000     -10.299074      -280.2521
   8   2.0000     -10.288400      -279.9616
   9   2.0000     -10.283700      -279.8337
  10   2.0000     -10.280412      -279.7442
  11   2.0000     -10.280190      -279.7382
  12   2.0000     -10.276718      -279.6437
  13   2.0000     -10.276379      -279.6345
  14   2.0000     -10.265301      -279.3330
  15   2.0000     -10.262698      -279.2622
  16   2.0000      -8.080018      -219.8685
  17   2.0000      -8.077596      -219.8026
  18   2.0000      -6.038617      -164.3191
  19   2.0000      -6.036187      -164.2530
  20   2.0000      -6.034671      -164.2117
  21   2.0000      -6.032043      -164.1402
  22   2.0000      -6.030717      -164.1042
  23   2.0000      -6.028238      -164.0367
  24   2.0000      -1.006918       -27.3996
  25   2.0000      -0.983720       -26.7684
  26   2.0000      -0.926383       -25.2082
  27   2.0000      -0.909918       -24.7601
  28   2.0000      -0.872457       -23.7408
  29   2.0000      -0.851168       -23.1614
  30   2.0000      -0.844703       -22.9855
  31   2.0000      -0.818161       -22.2633
  32   2.0000      -0.796384       -21.6707
  33   2.0000      -0.781782       -21.2734
  34   2.0000      -0.713890       -19.4259
  35   2.0000      -0.708145       -19.2696
  36   2.0000      -0.693424       -18.8690
  37   2.0000      -0.663352       -18.0507
  38   2.0000      -0.639613       -17.4047
  39   2.0000      -0.620294       -16.8791
  40   2.0000      -0.598768       -16.2933
  41   2.0000      -0.578758       -15.7488
  42   2.0000      -0.555958       -15.1284
  43   2.0000      -0.553953       -15.0738
  44   2.0000      -0.545948       -14.8560
  45   2.0000      -0.543402       -14.7867
  46   2.0000      -0.527729       -14.3602
  47   2.0000      -0.518636       -14.1128
  48   2.0000      -0.501547       -13.6478
  49   2.0000      -0.495533       -13.4841
  50   2.0000      -0.489162       -13.3108
  51   2.0000      -0.487164       -13.2564
  52   2.0000      -0.474322       -12.9069
  53   2.0000      -0.462116       -12.5748
  54   2.0000      -0.457510       -12.4495
  55   2.0000      -0.444724       -12.1015
  56   2.0000      -0.440700       -11.9921
  57   2.0000      -0.438129       -11.9221
  58   2.0000      -0.436089       -11.8666
  59   2.0000      -0.426143       -11.5959
  60   2.0000      -0.424585       -11.5535
  61   2.0000      -0.415968       -11.3191
  62   2.0000      -0.412326       -11.2200
  63   2.0000      -0.349010        -9.4970
  64   2.0000      -0.329743        -8.9728
  65   2.0000      -0.326513        -8.8849
  66   2.0000      -0.294391        -8.0108
  67   0.0000       0.033181         0.9029
  68   0.0000       0.079472         2.1625
  69   0.0000       0.112549         3.0626
  70   0.0000       0.116032         3.1574
  71   0.0000       0.128817         3.5053

MULLIKEN ATOMIC CHARGES
-----------------------
   0 S :    0.101037
   1 C :   -0.160781
   2 C :   -0.038134
   3 C :    0.004100
   4 C :   -0.129312
   5 H :   -0.022097
   6 C :    0.063015
   7 H :    0.013883
   8 H :   -0.010200
   9 C :   -0.016115
  10 H :    0.023950
  11 H :    0.010898
  12 C :    0.034548
  13 H :    0.035796
  14 H :   -0.005589
  15 H :    0.013605
  16 S :    0.101411
  17 C :   -0.109887
  18 C :   -0.003456
  19 C :   -0.081744
  20 C :   -0.150054
  21 H :   -0.007931
  22 C :    0.176009
  23 H :   -0.037744
  24 H :    0.015089
  25 C :   -0.069317
  26 H :    0.022018
  27 H :    0.014405
  28 C :   -0.015889
  29 H :    0.030097
  30 H :    0.020138
  31 H :    0.037163
  32 H :    0.066296
  33 H :    0.074793
Sum of atomic charges:   -0.0000000

LOEWDIN ATOMIC CHARGES
----------------------
   0 S :    0.396605
   1 C :   -0.196103
   2 C :   -0.062680
   3 C :   -0.059356
   4 C :   -0.189273
   5 H :    0.013040
   6 C :   -0.033199
   7 H :    0.033522
   8 H :    0.021099
   9 C :   -0.023040
  10 H :    0.024382
  11 H :    0.021898
  12 C :   -0.050987
  13 H :    0.034153
  14 H :    0.023068
  15 H :    0.008800
  16 S :    0.404361
  17 C :   -0.185213
  18 C :   -0.065678
  19 C :   -0.053870
  20 C :   -0.200605
  21 H :    0.020807
  22 C :   -0.022642
  23 H :    0.002149
  24 H :    0.032863
  25 C :   -0.032595
  26 H :    0.026086
  27 H :    0.015522
  28 C :   -0.056695
  29 H :    0.026137
  30 H :    0.019053
  31 H :    0.027752
  32 H :    0.038092
  33 H :    0.042547

  Mayer bond orders larger than 0.100000
B(  0-S ,  1-C ) :   1.1324 B(  0-S ,  4-C ) :   1.1385 B(  1-C ,  2-C ) :   1.6194
B(  1-C , 32-H ) :   0.9587 B(  2-C ,  3-C ) :   1.2163 B(  2-C ,  6-C ) :   1.0453
B(  3-C ,  4-C ) :   1.5855 B(  3-C ,  5-H ) :   0.9961 B(  4-C , 20-C ) :   1.0286
B(  6-C ,  7-H ) :   0.9201 B(  6-C ,  8-H ) :   0.9315 B(  6-C ,  9-C ) :   1.0731
B(  9-C , 10-H ) :   0.9504 B(  9-C , 11-H ) :   0.9489 B(  9-C , 12-C ) :   1.0883
B( 12-C , 13-H ) :   0.9666 B( 12-C , 14-H ) :   0.9627 B( 12-C , 15-H ) :   0.9663
B( 16-S , 17-C ) :   1.1372 B( 16-S , 20-C ) :   1.1419 B( 17-C , 18-C ) :   1.6430
B( 17-C , 33-H ) :   0.9594 B( 18-C , 19-C ) :   1.2078 B( 18-C , 21-H ) :   0.9999
B( 19-C , 20-C ) :   1.5979 B( 19-C , 22-C ) :   1.0439 B( 22-C , 23-H ) :   0.9117
B( 22-C , 24-H ) :   0.9241 B( 22-C , 25-C ) :   1.0691 B( 25-C , 26-H ) :   0.9536
B( 25-C , 27-H ) :   0.9585 B( 25-C , 28-C ) :   1.0772 B( 28-C , 29-H ) :   0.9765
B( 28-C , 30-H ) :   0.9725 B( 28-C , 31-H ) :   0.9740

Dispersion correction           -0.015007591
FINAL SINGLE POINT ENERGY     -1339.853357935653

DIPOLE MOMENT
-------------
                                X             Y             Z
Electronic contribution:      0.60103       5.99184      19.81651
Nuclear contribution   :     -0.63023      -6.19590     -20.20968
                        -----------------------------------------
Total Dipole Moment    :     -0.02920      -0.20406      -0.39317
                        -----------------------------------------
Magnitude (a.u.)       :      0.44393
Magnitude (Debye)      :      1.12839

Rotational constants in cm-1:     0.018732     0.008901     0.008419
Rotational constants in MHz :   561.585501   266.840656   252.393178

                             ****ORCA TERMINATED NORMALLY****
TOTAL RUN TIME: 0 days 0 hours 0 minutes 31 seconds 339 msec
