                         Program Version 4.2.1 -  RELEASE  -
|  1> ! wB97X-D3 SP def2-SVP
|  2> %pal
|  3> nprocs 16
|  4> end
|  5>
|  6> * xyz 0 1
|  7> S 	 0.227301 	 -26.153 	 85.0891
|  8> C 	 1.06048 	 -27.5296 	 84.3321
|  9> C 	 2.41959 	 -27.2678 	 84.1829
| 10> C 	 2.68975 	 -25.863 	 84.2937
| 11> C 	 1.61387 	 -25.1433 	 84.7088
| 12> H 	 3.61463 	 -25.384 	 84.2166
| 13> C 	 3.47109 	 -28.2661 	 83.799
| 14> H 	 3.16305 	 -29.223 	 84.2205
| 15> H 	 4.43249 	 -28.021 	 84.2558
| 16> C 	 3.62877 	 -28.4478 	 82.2982
| 17> H 	 2.68637 	 -28.5592 	 81.8327
| 18> H 	 4.21039 	 -27.5741 	 81.9133
| 19> C 	 4.3301 	 -29.7485 	 82.0431
| 20> H 	 3.77446 	 -30.5699 	 82.5391
| 21> H 	 4.3224 	 -29.9538 	 80.9791
| 22> H 	 5.36458 	 -29.6734 	 82.3702
| 23> S 	 2.65319 	 -23.1574 	 86.4883
| 24> C 	 2.08706 	 -21.527 	 86.3852
| 25> C 	 1.18144 	 -21.4017 	 85.3917
| 26> C 	 0.859069 	 -22.6488 	 84.7452
| 27> C 	 1.59804 	 -23.774 	 85.2165
| 28> H 	 0.697362 	 -20.4616 	 85.1202
| 29> C 	 -0.106052 	 -22.6638 	 83.4691
| 30> H 	 -1.12884 	 -22.6395 	 83.8154
| 31> H 	 -0.0213764 	 -23.6828 	 83.0859
| 32> C 	 0.155705 	 -21.6542 	 82.3241
| 33> H 	 -0.00906199 	 -22.2388 	 81.384
| 34> H 	 1.14223 	 -21.3246 	 82.2185
| 35> C 	 -0.881559 	 -20.436 	 82.3332
| 36> H 	 -0.961629 	 -19.9101 	 83.3097
| 37> H 	 -1.81422 	 -20.8955 	 82.1067
| 38> H 	 -0.660577 	 -19.6584 	 81.5858
| 39> H 	 0.682091 	 -28.5458 	 84.3163
| 40> H 	 2.37596 	 -20.7621 	 87.0362
| 41> *
| 42>
| 43>                          ****END OF INPUT****

CARTESIAN COORDINATES (ANGSTROEM)
---------------------------------
  S      0.227301  -26.153000   85.089100
  C      1.060480  -27.529600   84.332100
  C      2.419590  -27.267800   84.182900
  C      2.689750  -25.863000   84.293700
  C      1.613870  -25.143300   84.708800
  H      3.614630  -25.384000   84.216600
  C      3.471090  -28.266100   83.799000
  H      3.163050  -29.223000   84.220500
  H      4.432490  -28.021000   84.255800
  C      3.628770  -28.447800   82.298200
  H      2.686370  -28.559200   81.832700
  H      4.210390  -27.574100   81.913300
  C      4.330100  -29.748500   82.043100
  H      3.774460  -30.569900   82.539100
  H      4.322400  -29.953800   80.979100
  H      5.364580  -29.673400   82.370200
  S      2.653190  -23.157400   86.488300
  C      2.087060  -21.527000   86.385200
  C      1.181440  -21.401700   85.391700
  C      0.859069  -22.648800   84.745200
  C      1.598040  -23.774000   85.216500
  H      0.697362  -20.461600   85.120200
  C     -0.106052  -22.663800   83.469100
  H     -1.128840  -22.639500   83.815400
  H     -0.021376  -23.682800   83.085900
  C      0.155705  -21.654200   82.324100
  H     -0.009062  -22.238800   81.384000
  H      1.142230  -21.324600   82.218500
  C     -0.881559  -20.436000   82.333200
  H     -0.961629  -19.910100   83.309700
  H     -1.814220  -20.895500   82.106700
  H     -0.660577  -19.658400   81.585800
  H      0.682091  -28.545800   84.316300
  H      2.375960  -20.762100   87.036200

 Total Charge           Charge          ....    0
 Multiplicity           Mult            ....    1
 Number of Electrons    NEL             ....  134
 Basis Dimension        Dim             ....  322

ORBITAL ENERGIES
----------------

  NO   OCC          E(Eh)            E(eV)
   0   2.0000     -88.966336     -2420.8971
   1   2.0000     -88.963523     -2420.8205
   2   2.0000     -10.328534      -281.0537
   3   2.0000     -10.327554      -281.0270
   4   2.0000     -10.315253      -280.6923
   5   2.0000     -10.311836      -280.5993
   6   2.0000     -10.307973      -280.4942
   7   2.0000     -10.302108      -280.3346
   8   2.0000     -10.291308      -280.0407
   9   2.0000     -10.290513      -280.0191
  10   2.0000     -10.289350      -279.9874
  11   2.0000     -10.289196      -279.9833
  12   2.0000     -10.288689      -279.9695
  13   2.0000     -10.281855      -279.7835
  14   2.0000     -10.281628      -279.7773
  15   2.0000     -10.276553      -279.6392
  16   2.0000      -8.080408      -219.8791
  17   2.0000      -8.078255      -219.8205
  18   2.0000      -6.038935      -164.3278
  19   2.0000      -6.036815      -164.2701
  20   2.0000      -6.035253      -164.2276
  21   2.0000      -6.032606      -164.1555
  22   2.0000      -6.030921      -164.1097
  23   2.0000      -6.029111      -164.0605
  24   2.0000      -1.003432       -27.3048
  25   2.0000      -0.982798       -26.7433
  26   2.0000      -0.921060       -25.0633
  27   2.0000      -0.893515       -24.3138
  28   2.0000      -0.871244       -23.7077
  29   2.0000      -0.850574       -23.1453
  30   2.0000      -0.836344       -22.7581
  31   2.0000      -0.817360       -22.2415
  32   2.0000      -0.780609       -21.2415
  33   2.0000      -0.768510       -20.9122
  34   2.0000      -0.705606       -19.2005
  35   2.0000      -0.698822       -19.0159
  36   2.0000      -0.695030       -18.9127
  37   2.0000      -0.657431       -17.8896
  38   2.0000      -0.641076       -17.4446
  39   2.0000      -0.618964       -16.8429
  40   2.0000      -0.597598       -16.2615
  41   2.0000      -0.584553       -15.9065
  42   2.0000      -0.565607       -15.3909
  43   2.0000      -0.540817       -14.7164
  44   2.0000      -0.532184       -14.4815
  45   2.0000      -0.526673       -14.3315
  46   2.0000      -0.514918       -14.0116
  47   2.0000      -0.510934       -13.9032
  48   2.0000      -0.506318       -13.7776
  49   2.0000      -0.497271       -13.5314
  50   2.0000      -0.493525       -13.4295
  51   2.0000      -0.474816       -12.9204
  52   2.0000      -0.467429       -12.7194
  53   2.0000      -0.463893       -12.6232
  54   2.0000      -0.460686       -12.5359
  55   2.0000      -0.446503       -12.1500
  56   2.0000      -0.441751       -12.0206
  57   2.0000      -0.436301       -11.8724
  58   2.0000      -0.433501       -11.7962
  59   2.0000      -0.430333       -11.7100
  60   2.0000      -0.425234       -11.5712
  61   2.0000      -0.416755       -11.3405
  62   2.0000      -0.404100       -10.9961
  63   2.0000      -0.337987        -9.1971
  64   2.0000      -0.333656        -9.0792
  65   2.0000      -0.323536        -8.8039
  66   2.0000      -0.300009        -8.1637
  67   0.0000       0.033565         0.9133
  68   0.0000       0.063058         1.7159
  69   0.0000       0.099600         2.7103
  70   0.0000       0.122798         3.3415
  71   0.0000       0.136795         3.7224

MULLIKEN ATOMIC CHARGES
-----------------------
   0 S :    0.111411
   1 C :   -0.109706
   2 C :   -0.097084
   3 C :    0.042517
   4 C :   -0.149858
   5 H :   -0.009190
   6 C :    0.055208
   7 H :    0.009318
   8 H :    0.027165
   9 C :   -0.055600
  10 H :    0.020468
  11 H :    0.037977
  12 C :   -0.043840
  13 H :    0.033052
  14 H :    0.031474
  15 H :    0.029796
  16 S :    0.107453
  17 C :   -0.070267
  18 C :   -0.013885
  19 C :   -0.069983
  20 C :   -0.151486
  21 H :    0.019211
  22 C :    0.069981
  23 H :    0.031605
  24 H :    0.023786
  25 C :   -0.059728
  26 H :    0.035377
  27 H :    0.024113
  28 C :   -0.076361
  29 H :    0.038932
  30 H :    0.030714
  31 H :    0.039674
  32 H :    0.047014
  33 H :    0.040745
Sum of atomic charges:    0.0000000

LOEWDIN ATOMIC CHARGES
----------------------
   0 S :    0.397426
   1 C :   -0.192626
   2 C :   -0.052640
   3 C :   -0.053917
   4 C :   -0.184893
   5 H :    0.023826
   6 C :   -0.032662
   7 H :    0.026308
   8 H :    0.032088
   9 C :   -0.037004
  10 H :    0.019961
  11 H :    0.030061
  12 C :   -0.062302
  13 H :    0.027232
  14 H :    0.024170
  15 H :    0.023563
  16 S :    0.408060
  17 C :   -0.178675
  18 C :   -0.078298
  19 C :   -0.048299
  20 C :   -0.216229
  21 H :    0.033016
  22 C :   -0.032092
  23 H :    0.030211
  24 H :    0.028434
  25 C :   -0.036631
  26 H :    0.034324
  27 H :    0.015099
  28 C :   -0.067235
  29 H :    0.024172
  30 H :    0.020389
  31 H :    0.027177
  32 H :    0.025619
  33 H :    0.022368

  Mayer bond orders larger than 0.100000
B(  0-S ,  1-C ) :   1.1269 B(  0-S ,  4-C ) :   1.1471 B(  1-C ,  2-C ) :   1.6245
B(  1-C , 32-H ) :   0.9665 B(  2-C ,  3-C ) :   1.2033 B(  2-C ,  6-C ) :   1.0399
B(  3-C ,  4-C ) :   1.6040 B(  3-C ,  5-H ) :   1.0113 B(  4-C , 20-C ) :   1.0318
B(  6-C ,  7-H ) :   0.9381 B(  6-C ,  8-H ) :   0.9363 B(  6-C ,  9-C ) :   1.0716
B(  9-C , 10-H ) :   0.9548 B(  9-C , 11-H ) :   0.9502 B(  9-C , 12-C ) :   1.0944
B( 12-C , 13-H ) :   0.9733 B( 12-C , 14-H ) :   0.9736 B( 12-C , 15-H ) :   0.9723
B( 16-S , 17-C ) :   1.1688 B( 16-S , 20-C ) :   1.1302 B( 17-C , 18-C ) :   1.5831
B( 17-C , 33-H ) :   0.9751 B( 18-C , 19-C ) :   1.2737 B( 18-C , 21-H ) :   0.9897
B( 19-C , 20-C ) :   1.5663 B( 19-C , 22-C ) :   1.0325 B( 22-C , 23-H ) :   0.9426
B( 22-C , 24-H ) :   0.9370 B( 22-C , 25-C ) :   1.0395 B( 25-C , 26-H ) :   0.9630
B( 25-C , 27-H ) :   0.9687 B( 25-C , 28-C ) :   1.0569 B( 28-C , 29-H ) :   0.9813
B( 28-C , 30-H ) :   0.9792 B( 28-C , 31-H ) :   0.9765

Dispersion correction           -0.013707758
FINAL SINGLE POINT ENERGY     -1339.873513104105

DIPOLE MOMENT
-------------
                                X             Y             Z
Electronic contribution:     -1.81060       3.58156      20.70564
Nuclear contribution   :      1.99199      -3.63171     -21.08677
                        -----------------------------------------
Total Dipole Moment    :      0.18139      -0.05015      -0.38113
                        -----------------------------------------
Magnitude (a.u.)       :      0.42506
Magnitude (Debye)      :      1.08041

Rotational constants in cm-1:     0.021086     0.006852     0.006133
Rotational constants in MHz :   632.143922   205.409862   183.867031

                             ****ORCA TERMINATED NORMALLY****
TOTAL RUN TIME: 0 days 0 hours 0 minutes 37 seconds 34 msec
