                         Program Version 4.2.1 -  RELEASE  -
|  1> ! wB97X-D3 SP def2-SVP
|  2> %pal
|  3> nprocs 16
|  4> end
|  5>
|  6> * xyz 0 1
|  7> S 	 2.7194 	 78.424 	 49.8082
|  8> C 	 2.94411 	 79.0246 	 51.4754
|  9> C 	 2.70426 	 78.0028 	 52.3806
| 10> C 	 2.47438 	 76.7546 	 51.7067
| 11> C 	 2.50997 	 76.8226 	 50.3621
| 12> H 	 2.25305 	 75.7944 	 52.1223
| 13> C 	 2.84317 	 78.1601 	 53.8876
| 14> H 	 3.94845 	 78.2606 	 54.0406
| 15> H 	 2.5051 	 77.2179 	 54.2343
| 16> C 	 2.14611 	 79.356 	 54.6575
| 17> H 	 2.50488 	 79.2639 	 55.6783
| 18> H 	 2.64619 	 80.2263 	 54.2496
| 19> C 	 0.634112 	 79.2929 	 54.3892
| 20> H 	 0.0453083 	 79.8507 	 55.0828
| 21> H 	 0.308864 	 79.4149 	 53.3386
| 22> H 	 0.325321 	 78.2587 	 54.5667
| 23> S 	 3.62296 	 75.6489 	 48.1632
| 24> C 	 3.11002 	 74.1026 	 47.6113
| 25> C 	 1.99717 	 73.7337 	 48.2969
| 26> C 	 1.62713 	 74.605 	 49.3887
| 27> C 	 2.35924 	 75.7632 	 49.3998
| 28> H 	 1.52206 	 72.8098 	 47.955
| 29> C 	 0.455684 	 74.1659 	 50.3046
| 30> H 	 -0.402843 	 73.9227 	 49.6303
| 31> H 	 0.106578 	 74.9516 	 50.9757
| 32> C 	 0.761143 	 72.8524 	 51.1079
| 33> H 	 1.33978 	 72.0801 	 50.5665
| 34> H 	 -0.2373 	 72.4109 	 51.3074
| 35> C 	 1.38695 	 73.2216 	 52.4717
| 36> H 	 1.09027 	 72.3898 	 53.1113
| 37> H 	 0.897957 	 74.0681 	 53.029
| 38> H 	 2.47847 	 73.3296 	 52.4552
| 39> H 	 3.20422 	 80.0651 	 51.7445
| 40> H 	 3.45076 	 73.5698 	 46.729
| 41> *
| 42>
| 43>                          ****END OF INPUT****

CARTESIAN COORDINATES (ANGSTROEM)
---------------------------------
  S      2.719400   78.424000   49.808200
  C      2.944110   79.024600   51.475400
  C      2.704260   78.002800   52.380600
  C      2.474380   76.754600   51.706700
  C      2.509970   76.822600   50.362100
  H      2.253050   75.794400   52.122300
  C      2.843170   78.160100   53.887600
  H      3.948450   78.260600   54.040600
  H      2.505100   77.217900   54.234300
  C      2.146110   79.356000   54.657500
  H      2.504880   79.263900   55.678300
  H      2.646190   80.226300   54.249600
  C      0.634112   79.292900   54.389200
  H      0.045308   79.850700   55.082800
  H      0.308864   79.414900   53.338600
  H      0.325321   78.258700   54.566700
  S      3.622960   75.648900   48.163200
  C      3.110020   74.102600   47.611300
  C      1.997170   73.733700   48.296900
  C      1.627130   74.605000   49.388700
  C      2.359240   75.763200   49.399800
  H      1.522060   72.809800   47.955000
  C      0.455684   74.165900   50.304600
  H     -0.402843   73.922700   49.630300
  H      0.106578   74.951600   50.975700
  C      0.761143   72.852400   51.107900
  H      1.339780   72.080100   50.566500
  H     -0.237300   72.410900   51.307400
  C      1.386950   73.221600   52.471700
  H      1.090270   72.389800   53.111300
  H      0.897957   74.068100   53.029000
  H      2.478470   73.329600   52.455200
  H      3.204220   80.065100   51.744500
  H      3.450760   73.569800   46.729000

 Total Charge           Charge          ....    0
 Multiplicity           Mult            ....    1
 Number of Electrons    NEL             ....  134
 Basis Dimension        Dim             ....  322

ORBITAL ENERGIES
----------------

  NO   OCC          E(Eh)            E(eV)
   0   2.0000     -88.961673     -2420.7702
   1   2.0000     -88.959059     -2420.6991
   2   2.0000     -10.324926      -280.9555
   3   2.0000     -10.320301      -280.8297
   4   2.0000     -10.314652      -280.6759
   5   2.0000     -10.313654      -280.6488
   6   2.0000     -10.306839      -280.4633
   7   2.0000     -10.302205      -280.3372
   8   2.0000     -10.299171      -280.2547
   9   2.0000     -10.296871      -280.1921
  10   2.0000     -10.293456      -280.0992
  11   2.0000     -10.292156      -280.0638
  12   2.0000     -10.291572      -280.0479
  13   2.0000     -10.286695      -279.9152
  14   2.0000     -10.284798      -279.8636
  15   2.0000     -10.278075      -279.6806
  16   2.0000      -8.076815      -219.7813
  17   2.0000      -8.074404      -219.7157
  18   2.0000      -6.035327      -164.2296
  19   2.0000      -6.033005      -164.1664
  20   2.0000      -6.031292      -164.1198
  21   2.0000      -6.028714      -164.0497
  22   2.0000      -6.027513      -164.0170
  23   2.0000      -6.025108      -163.9515
  24   2.0000      -1.011383       -27.5211
  25   2.0000      -0.985793       -26.8248
  26   2.0000      -0.909843       -24.7581
  27   2.0000      -0.904307       -24.6074
  28   2.0000      -0.870524       -23.6882
  29   2.0000      -0.849073       -23.1045
  30   2.0000      -0.841071       -22.8867
  31   2.0000      -0.815431       -22.1890
  32   2.0000      -0.781132       -21.2557
  33   2.0000      -0.774108       -21.0646
  34   2.0000      -0.714038       -19.4300
  35   2.0000      -0.705192       -19.1892
  36   2.0000      -0.693837       -18.8803
  37   2.0000      -0.656401       -17.8616
  38   2.0000      -0.636830       -17.3290
  39   2.0000      -0.611895       -16.6505
  40   2.0000      -0.595730       -16.2106
  41   2.0000      -0.570437       -15.5224
  42   2.0000      -0.552561       -15.0360
  43   2.0000      -0.550816       -14.9885
  44   2.0000      -0.544568       -14.8185
  45   2.0000      -0.529898       -14.4193
  46   2.0000      -0.518809       -14.1175
  47   2.0000      -0.510628       -13.8949
  48   2.0000      -0.506374       -13.7791
  49   2.0000      -0.495969       -13.4960
  50   2.0000      -0.495631       -13.4868
  51   2.0000      -0.476043       -12.9538
  52   2.0000      -0.470024       -12.7900
  53   2.0000      -0.467594       -12.7239
  54   2.0000      -0.461496       -12.5580
  55   2.0000      -0.448578       -12.2064
  56   2.0000      -0.443176       -12.0594
  57   2.0000      -0.437260       -11.8985
  58   2.0000      -0.435363       -11.8468
  59   2.0000      -0.423913       -11.5353
  60   2.0000      -0.419348       -11.4110
  61   2.0000      -0.414788       -11.2869
  62   2.0000      -0.406699       -11.0668
  63   2.0000      -0.350493        -9.5374
  64   2.0000      -0.328140        -8.9291
  65   2.0000      -0.324930        -8.8418
  66   2.0000      -0.294518        -8.0143
  67   0.0000       0.033374         0.9082
  68   0.0000       0.077020         2.0958
  69   0.0000       0.112157         3.0520
  70   0.0000       0.121180         3.2975
  71   0.0000       0.130087         3.5398

MULLIKEN ATOMIC CHARGES
-----------------------
   0 S :    0.102834
   1 C :   -0.145331
   2 C :   -0.086523
   3 C :    0.043472
   4 C :   -0.131707
   5 H :   -0.049613
   6 C :    0.023621
   7 H :    0.053634
   8 H :    0.007958
   9 C :   -0.034928
  10 H :    0.036354
  11 H :    0.022606
  12 C :   -0.033736
  13 H :    0.030989
  14 H :    0.052727
  15 H :    0.010654
  16 S :    0.088112
  17 C :   -0.083226
  18 C :   -0.053974
  19 C :   -0.032177
  20 C :   -0.120020
  21 H :    0.021391
  22 C :    0.042523
  23 H :    0.038445
  24 H :    0.027684
  25 C :   -0.091189
  26 H :    0.048072
  27 H :    0.031306
  28 C :   -0.074480
  29 H :    0.028980
  30 H :    0.041564
  31 H :    0.062946
  32 H :    0.059799
  33 H :    0.061233
Sum of atomic charges:    0.0000000

LOEWDIN ATOMIC CHARGES
----------------------
   0 S :    0.405407
   1 C :   -0.195468
   2 C :   -0.061790
   3 C :   -0.069700
   4 C :   -0.201451
   5 H :    0.025577
   6 C :   -0.031593
   7 H :    0.041985
   8 H :    0.017862
   9 C :   -0.033220
  10 H :    0.028946
  11 H :    0.019325
  12 C :   -0.068301
  13 H :    0.021121
  14 H :    0.036730
  15 H :    0.025478
  16 S :    0.400487
  17 C :   -0.191517
  18 C :   -0.078081
  19 C :   -0.056127
  20 C :   -0.194355
  21 H :    0.031873
  22 C :   -0.031031
  23 H :    0.036203
  24 H :    0.027110
  25 C :   -0.039731
  26 H :    0.029927
  27 H :    0.026501
  28 C :   -0.078496
  29 H :    0.028820
  30 H :    0.029549
  31 H :    0.029455
  32 H :    0.032802
  33 H :    0.035704

  Mayer bond orders larger than 0.100000
B(  0-S ,  1-C ) :   1.1243 B(  0-S ,  4-C ) :   1.1537 B(  1-C ,  2-C ) :   1.6082
B(  1-C , 32-H ) :   0.9710 B(  2-C ,  3-C ) :   1.2177 B(  2-C ,  6-C ) :   1.0033
B(  3-C ,  4-C ) :   1.6113 B(  3-C ,  5-H ) :   0.9958 B(  4-C , 20-C ) :   1.0082
B(  6-C ,  7-H ) :   0.9410 B(  6-C ,  8-H ) :   0.9433 B(  6-C ,  9-C ) :   1.0710
B(  9-C , 10-H ) :   0.9563 B(  9-C , 11-H ) :   0.9547 B(  9-C , 12-C ) :   1.0641
B( 12-C , 13-H ) :   0.9765 B( 12-C , 14-H ) :   0.9716 B( 12-C , 15-H ) :   0.9739
B( 16-S , 17-C ) :   1.1532 B( 16-S , 20-C ) :   1.1220 B( 17-C , 18-C ) :   1.6388
B( 17-C , 33-H ) :   0.9635 B( 18-C , 19-C ) :   1.2045 B( 18-C , 21-H ) :   0.9867
B( 19-C , 20-C ) :   1.6346 B( 19-C , 22-C ) :   1.0327 B( 22-C , 23-H ) :   0.9417
B( 22-C , 24-H ) :   0.9486 B( 22-C , 25-C ) :   1.0557 B( 25-C , 26-H ) :   0.9579
B( 25-C , 27-H ) :   0.9600 B( 25-C , 28-C ) :   1.0752 B( 28-C , 29-H ) :   0.9694
B( 28-C , 30-H ) :   0.9661 B( 28-C , 31-H ) :   0.9694

Dispersion correction           -0.014835990
FINAL SINGLE POINT ENERGY     -1339.878741356398

DIPOLE MOMENT
-------------
                                X             Y             Z
Electronic contribution:     11.70727       5.63385     -25.33444
Nuclear contribution   :    -12.05173      -6.12620      25.88061
                        -----------------------------------------
Total Dipole Moment    :     -0.34446      -0.49235       0.54617
                        -----------------------------------------
Magnitude (a.u.)       :      0.81201
Magnitude (Debye)      :      2.06397

Rotational constants in cm-1:     0.020384     0.008937     0.006732
Rotational constants in MHz :   611.091323   267.923342   201.812199

                             ****ORCA TERMINATED NORMALLY****
TOTAL RUN TIME: 0 days 0 hours 0 minutes 34 seconds 980 msec
