                         Program Version 4.2.1 -  RELEASE  -
|  1> ! wB97X-D3 SP def2-SVP
|  2> %pal
|  3> nprocs 16
|  4> end
|  5>
|  6> * xyz 0 1
|  7> S 	 41.7243 	 12.9636 	 88.5323
|  8> C 	 43.2372 	 13.789 	 88.2294
|  9> C 	 44.1909 	 12.9016 	 87.6969
| 10> C 	 43.6947 	 11.6132 	 87.7181
| 11> C 	 42.479 	 11.4397 	 88.3404
| 12> H 	 44.0559 	 10.7009 	 87.3181
| 13> C 	 45.5931 	 13.2771 	 87.158
| 14> H 	 46.5619 	 12.9079 	 87.7837
| 15> H 	 45.6307 	 14.4182 	 87.2352
| 16> C 	 45.6792 	 12.9045 	 85.6574
| 17> H 	 46.6673 	 13.3076 	 85.309
| 18> H 	 45.6687 	 11.8456 	 85.6263
| 19> C 	 44.5888 	 13.5636 	 84.7823
| 20> H 	 43.6107 	 13.2178 	 85.0256
| 21> H 	 44.643 	 14.6805 	 84.8597
| 22> H 	 44.8632 	 13.267 	 83.7608
| 23> S 	 40.0972 	 10.223 	 87.9382
| 24> C 	 40.1524 	 8.52621 	 87.8853
| 25> C 	 41.2199 	 7.90583 	 88.5413
| 26> C 	 42.1995 	 8.9108 	 88.8202
| 27> C 	 41.7816 	 10.19 	 88.4513
| 28> H 	 41.3193 	 6.91263 	 88.5659
| 29> C 	 43.583 	 8.50256 	 89.3091
| 30> H 	 43.3875 	 7.90285 	 90.1958
| 31> H 	 44.1747 	 9.33997 	 89.6869
| 32> C 	 44.4555 	 7.81201 	 88.2661
| 33> H 	 44.5618 	 8.48271 	 87.4318
| 34> H 	 43.9574 	 6.90976 	 87.9405
| 35> C 	 45.7476 	 7.49748 	 88.8614
| 36> H 	 46.2723 	 8.33754 	 89.3805
| 37> H 	 46.4563 	 7.21729 	 88.0711
| 38> H 	 45.7539 	 6.6259 	 89.5892
| 39> H 	 43.4617 	 14.858 	 88.2628
| 40> H 	 39.2834 	 7.86871 	 87.5551
| 41> *
| 42>
| 43>                          ****END OF INPUT****

CARTESIAN COORDINATES (ANGSTROEM)
---------------------------------
  S     41.724300   12.963600   88.532300
  C     43.237200   13.789000   88.229400
  C     44.190900   12.901600   87.696900
  C     43.694700   11.613200   87.718100
  C     42.479000   11.439700   88.340400
  H     44.055900   10.700900   87.318100
  C     45.593100   13.277100   87.158000
  H     46.561900   12.907900   87.783700
  H     45.630700   14.418200   87.235200
  C     45.679200   12.904500   85.657400
  H     46.667300   13.307600   85.309000
  H     45.668700   11.845600   85.626300
  C     44.588800   13.563600   84.782300
  H     43.610700   13.217800   85.025600
  H     44.643000   14.680500   84.859700
  H     44.863200   13.267000   83.760800
  S     40.097200   10.223000   87.938200
  C     40.152400    8.526210   87.885300
  C     41.219900    7.905830   88.541300
  C     42.199500    8.910800   88.820200
  C     41.781600   10.190000   88.451300
  H     41.319300    6.912630   88.565900
  C     43.583000    8.502560   89.309100
  H     43.387500    7.902850   90.195800
  H     44.174700    9.339970   89.686900
  C     44.455500    7.812010   88.266100
  H     44.561800    8.482710   87.431800
  H     43.957400    6.909760   87.940500
  C     45.747600    7.497480   88.861400
  H     46.272300    8.337540   89.380500
  H     46.456300    7.217290   88.071100
  H     45.753900    6.625900   89.589200
  H     43.461700   14.858000   88.262800
  H     39.283400    7.868710   87.555100

 Total Charge           Charge          ....    0
 Multiplicity           Mult            ....    1
 Number of Electrons    NEL             ....  134
 Basis Dimension        Dim             ....  322

ORBITAL ENERGIES
----------------

  NO   OCC          E(Eh)            E(eV)
   0   2.0000     -88.968826     -2420.9648
   1   2.0000     -88.967808     -2420.9371
   2   2.0000     -10.323326      -280.9120
   3   2.0000     -10.320914      -280.8464
   4   2.0000     -10.320624      -280.8385
   5   2.0000     -10.314743      -280.6784
   6   2.0000     -10.310243      -280.5560
   7   2.0000     -10.305410      -280.4245
   8   2.0000     -10.300657      -280.2951
   9   2.0000     -10.288869      -279.9744
  10   2.0000     -10.288614      -279.9674
  11   2.0000     -10.288374      -279.9609
  12   2.0000     -10.282944      -279.8131
  13   2.0000     -10.282062      -279.7891
  14   2.0000     -10.281766      -279.7811
  15   2.0000     -10.278520      -279.6928
  16   2.0000      -8.084641      -219.9943
  17   2.0000      -8.083069      -219.9515
  18   2.0000      -6.042930      -164.4365
  19   2.0000      -6.041514      -164.3980
  20   2.0000      -6.039321      -164.3383
  21   2.0000      -6.037666      -164.2933
  22   2.0000      -6.035254      -164.2276
  23   2.0000      -6.033726      -164.1860
  24   2.0000      -1.015280       -27.6272
  25   2.0000      -0.989836       -26.9348
  26   2.0000      -0.922085       -25.0912
  27   2.0000      -0.908280       -24.7155
  28   2.0000      -0.869122       -23.6500
  29   2.0000      -0.862028       -23.4570
  30   2.0000      -0.845572       -23.0092
  31   2.0000      -0.810521       -22.0554
  32   2.0000      -0.781695       -21.2710
  33   2.0000      -0.769004       -20.9257
  34   2.0000      -0.707004       -19.2386
  35   2.0000      -0.696313       -18.9476
  36   2.0000      -0.688428       -18.7331
  37   2.0000      -0.667330       -18.1590
  38   2.0000      -0.640182       -17.4202
  39   2.0000      -0.621850       -16.9214
  40   2.0000      -0.598260       -16.2795
  41   2.0000      -0.577158       -15.7053
  42   2.0000      -0.566082       -15.4039
  43   2.0000      -0.544600       -14.8193
  44   2.0000      -0.540961       -14.7203
  45   2.0000      -0.525526       -14.3003
  46   2.0000      -0.522415       -14.2156
  47   2.0000      -0.510217       -13.8837
  48   2.0000      -0.500415       -13.6170
  49   2.0000      -0.499142       -13.5823
  50   2.0000      -0.486048       -13.2260
  51   2.0000      -0.481148       -13.0927
  52   2.0000      -0.471495       -12.8300
  53   2.0000      -0.465438       -12.6652
  54   2.0000      -0.463969       -12.6252
  55   2.0000      -0.454306       -12.3623
  56   2.0000      -0.439749       -11.9662
  57   2.0000      -0.434034       -11.8107
  58   2.0000      -0.429245       -11.6803
  59   2.0000      -0.426402       -11.6030
  60   2.0000      -0.424023       -11.5383
  61   2.0000      -0.418383       -11.3848
  62   2.0000      -0.413939       -11.2639
  63   2.0000      -0.350639        -9.5414
  64   2.0000      -0.336887        -9.1671
  65   2.0000      -0.330505        -8.9935
  66   2.0000      -0.279364        -7.6019
  67   0.0000       0.025761         0.7010
  68   0.0000       0.065090         1.7712
  69   0.0000       0.100281         2.7288
  70   0.0000       0.116802         3.1784
  71   0.0000       0.131791         3.5862

MULLIKEN ATOMIC CHARGES
-----------------------
   0 S :    0.106664
   1 C :   -0.112929
   2 C :   -0.067585
   3 C :    0.011543
   4 C :   -0.127956
   5 H :   -0.026324
   6 C :    0.011549
   7 H :    0.068243
   8 H :    0.017686
   9 C :   -0.090154
  10 H :    0.035137
  11 H :    0.032315
  12 C :   -0.046517
  13 H :    0.047919
  14 H :    0.036696
  15 H :    0.036865
  16 S :    0.121055
  17 C :   -0.110918
  18 C :    0.012563
  19 C :   -0.034732
  20 C :   -0.153896
  21 H :   -0.026267
  22 C :    0.030477
  23 H :    0.026952
  24 H :    0.019690
  25 C :   -0.021704
  26 H :    0.026639
  27 H :    0.022119
  28 C :   -0.064817
  29 H :    0.033069
  30 H :    0.029464
  31 H :    0.038608
  32 H :    0.046423
  33 H :    0.072126
Sum of atomic charges:    0.0000000

LOEWDIN ATOMIC CHARGES
----------------------
   0 S :    0.418024
   1 C :   -0.204488
   2 C :   -0.066763
   3 C :   -0.070175
   4 C :   -0.200923
   5 H :    0.021268
   6 C :   -0.043962
   7 H :    0.046026
   8 H :    0.027046
   9 C :   -0.041541
  10 H :    0.029015
  11 H :    0.015897
  12 C :   -0.060445
  13 H :    0.022218
  14 H :    0.030334
  15 H :    0.029650
  16 S :    0.417624
  17 C :   -0.196417
  18 C :   -0.057488
  19 C :   -0.045616
  20 C :   -0.197520
  21 H :    0.009767
  22 C :   -0.033308
  23 H :    0.032286
  24 H :    0.028066
  25 C :   -0.038832
  26 H :    0.022437
  27 H :    0.024813
  28 C :   -0.072835
  29 H :    0.028599
  30 H :    0.026994
  31 H :    0.031664
  32 H :    0.030625
  33 H :    0.037961

  Mayer bond orders larger than 0.100000
B(  0-S ,  1-C ) :   1.1484 B(  0-S ,  4-C ) :   1.1529 B(  1-C ,  2-C ) :   1.5790
B(  1-C ,  4-C ) :   0.1061 B(  1-C , 32-H ) :   0.9634 B(  2-C ,  3-C ) :   1.2506
B(  2-C ,  6-C ) :   1.0083 B(  3-C ,  4-C ) :   1.5477 B(  3-C ,  5-H ) :   1.0057
B(  4-C , 20-C ) :   1.0756 B(  6-C ,  7-H ) :   0.9481 B(  6-C ,  8-H ) :   0.9398
B(  6-C ,  9-C ) :   1.0552 B(  9-C , 10-H ) :   0.9581 B(  9-C , 11-H ) :   0.9594
B(  9-C , 12-C ) :   1.0713 B( 12-C , 13-H ) :   0.9733 B( 12-C , 14-H ) :   0.9757
B( 12-C , 15-H ) :   0.9736 B( 16-S , 17-C ) :   1.1795 B( 16-S , 20-C ) :   1.1187
B( 17-C , 18-C ) :   1.6117 B( 17-C , 33-H ) :   0.9541 B( 18-C , 19-C ) :   1.2177
B( 18-C , 21-H ) :   1.0098 B( 19-C , 20-C ) :   1.6072 B( 19-C , 22-C ) :   1.0479
B( 22-C , 23-H ) :   0.9318 B( 22-C , 24-H ) :   0.9348 B( 22-C , 25-C ) :   1.0683
B( 25-C , 26-H ) :   0.9467 B( 25-C , 27-H ) :   0.9430 B( 25-C , 28-C ) :   1.1032
B( 28-C , 29-H ) :   0.9683 B( 28-C , 30-H ) :   0.9689 B( 28-C , 31-H ) :   0.9709

Dispersion correction           -0.014802409
FINAL SINGLE POINT ENERGY     -1339.854713744277

DIPOLE MOMENT
-------------
                                X             Y             Z
Electronic contribution:    -26.20233       6.02063       7.95881
Nuclear contribution   :     26.71273      -6.42792      -8.23894
                        -----------------------------------------
Total Dipole Moment    :      0.51040      -0.40729      -0.28013
                        -----------------------------------------
Magnitude (a.u.)       :      0.71054
Magnitude (Debye)      :      1.80606

Rotational constants in cm-1:     0.016767     0.010193     0.007407
Rotational constants in MHz :   502.654535   305.575598   222.054110

                             ****ORCA TERMINATED NORMALLY****
TOTAL RUN TIME: 0 days 0 hours 0 minutes 32 seconds 167 msec
