                         Program Version 4.2.1 -  RELEASE  -
|  1> ! wB97X-D3 SP def2-SVP
|  2> %pal
|  3> nprocs 16
|  4> end
|  5>
|  6> * xyz 0 1
|  7> S 	 -57.8634 	 47.8258 	 132.538
|  8> C 	 -56.3672 	 47.0176 	 132.294
|  9> C 	 -55.5128 	 47.1957 	 133.342
| 10> C 	 -56.1861 	 47.8767 	 134.423
| 11> C 	 -57.3504 	 48.4747 	 134.11
| 12> H 	 -55.7052 	 48.1323 	 135.337
| 13> C 	 -54.0731 	 46.6202 	 133.546
| 14> H 	 -54.0635 	 45.5653 	 133.208
| 15> H 	 -53.9926 	 46.5564 	 134.613
| 16> C 	 -52.8583 	 47.4807 	 133.051
| 17> H 	 -53.1767 	 48.62 	 133.19
| 18> H 	 -51.9708 	 47.3418 	 133.631
| 19> C 	 -52.6481 	 47.2044 	 131.532
| 20> H 	 -53.5761 	 47.2636 	 131.04
| 21> H 	 -51.9194 	 47.7762 	 131.057
| 22> H 	 -52.2999 	 46.2067 	 131.285
| 23> S 	 -59.8337 	 48.8448 	 135.121
| 24> C 	 -60.2283 	 50.353 	 135.868
| 25> C 	 -59.0792 	 51.0492 	 136.193
| 26> C 	 -57.8996 	 50.486 	 135.592
| 27> C 	 -58.2084 	 49.3121 	 134.929
| 28> H 	 -59.1871 	 52.0395 	 136.799
| 29> C 	 -56.5608 	 51.2264 	 135.652
| 30> H 	 -55.7806 	 50.7434 	 135.024
| 31> H 	 -56.1375 	 51.2888 	 136.671
| 32> C 	 -56.6362 	 52.611 	 135.003
| 33> H 	 -55.6653 	 52.9683 	 134.799
| 34> H 	 -56.8826 	 53.4065 	 135.724
| 35> C 	 -57.4496 	 52.749 	 133.684
| 36> H 	 -58.4725 	 52.4883 	 133.979
| 37> H 	 -57.0207 	 52.2108 	 132.894
| 38> H 	 -57.4867 	 53.7584 	 133.302
| 39> H 	 -56.1715 	 46.3487 	 131.541
| 40> H 	 -61.1961 	 50.582 	 136.329
| 41> *
| 42>
| 43>                          ****END OF INPUT****

CARTESIAN COORDINATES (ANGSTROEM)
---------------------------------
  S    -57.863400   47.825800  132.538000
  C    -56.367200   47.017600  132.294000
  C    -55.512800   47.195700  133.342000
  C    -56.186100   47.876700  134.423000
  C    -57.350400   48.474700  134.110000
  H    -55.705200   48.132300  135.337000
  C    -54.073100   46.620200  133.546000
  H    -54.063500   45.565300  133.208000
  H    -53.992600   46.556400  134.613000
  C    -52.858300   47.480700  133.051000
  H    -53.176700   48.620000  133.190000
  H    -51.970800   47.341800  133.631000
  C    -52.648100   47.204400  131.532000
  H    -53.576100   47.263600  131.040000
  H    -51.919400   47.776200  131.057000
  H    -52.299900   46.206700  131.285000
  S    -59.833700   48.844800  135.121000
  C    -60.228300   50.353000  135.868000
  C    -59.079200   51.049200  136.193000
  C    -57.899600   50.486000  135.592000
  C    -58.208400   49.312100  134.929000
  H    -59.187100   52.039500  136.799000
  C    -56.560800   51.226400  135.652000
  H    -55.780600   50.743400  135.024000
  H    -56.137500   51.288800  136.671000
  C    -56.636200   52.611000  135.003000
  H    -55.665300   52.968300  134.799000
  H    -56.882600   53.406500  135.724000
  C    -57.449600   52.749000  133.684000
  H    -58.472500   52.488300  133.979000
  H    -57.020700   52.210800  132.894000
  H    -57.486700   53.758400  133.302000
  H    -56.171500   46.348700  131.541000
  H    -61.196100   50.582000  136.329000

 Total Charge           Charge          ....    0
 Multiplicity           Mult            ....    1
 Number of Electrons    NEL             ....  134
 Basis Dimension        Dim             ....  322

ORBITAL ENERGIES
----------------

  NO   OCC          E(Eh)            E(eV)
   0   2.0000     -88.966685     -2420.9066
   1   2.0000     -88.961686     -2420.7705
   2   2.0000     -10.325690      -280.9763
   3   2.0000     -10.324242      -280.9369
   4   2.0000     -10.317208      -280.7455
   5   2.0000     -10.306942      -280.4662
   6   2.0000     -10.305902      -280.4378
   7   2.0000     -10.303390      -280.3695
   8   2.0000     -10.301300      -280.3126
   9   2.0000     -10.300896      -280.3016
  10   2.0000     -10.297422      -280.2071
  11   2.0000     -10.297288      -280.2034
  12   2.0000     -10.287365      -279.9334
  13   2.0000     -10.279200      -279.7113
  14   2.0000     -10.268391      -279.4171
  15   2.0000     -10.267345      -279.3887
  16   2.0000      -8.082753      -219.9429
  17   2.0000      -8.076897      -219.7835
  18   2.0000      -6.041096      -164.3866
  19   2.0000      -6.037145      -164.2791
  20   2.0000      -6.035465      -164.2333
  21   2.0000      -6.033518      -164.1804
  22   2.0000      -6.031302      -164.1201
  23   2.0000      -6.027576      -164.0187
  24   2.0000      -1.014674       -27.6107
  25   2.0000      -0.990813       -26.9614
  26   2.0000      -0.907567       -24.6962
  27   2.0000      -0.902065       -24.5464
  28   2.0000      -0.873037       -23.7566
  29   2.0000      -0.848372       -23.0854
  30   2.0000      -0.841548       -22.8997
  31   2.0000      -0.816135       -22.2082
  32   2.0000      -0.785368       -21.3709
  33   2.0000      -0.778218       -21.1764
  34   2.0000      -0.708499       -19.2792
  35   2.0000      -0.701639       -19.0926
  36   2.0000      -0.693134       -18.8611
  37   2.0000      -0.657247       -17.8846
  38   2.0000      -0.645227       -17.5575
  39   2.0000      -0.618888       -16.8408
  40   2.0000      -0.595196       -16.1961
  41   2.0000      -0.568354       -15.4657
  42   2.0000      -0.555681       -15.1209
  43   2.0000      -0.551867       -15.0171
  44   2.0000      -0.541714       -14.7408
  45   2.0000      -0.529751       -14.4153
  46   2.0000      -0.515932       -14.0392
  47   2.0000      -0.511030       -13.9058
  48   2.0000      -0.503656       -13.7052
  49   2.0000      -0.490851       -13.3567
  50   2.0000      -0.486529       -13.2391
  51   2.0000      -0.480433       -13.0732
  52   2.0000      -0.472551       -12.8588
  53   2.0000      -0.468242       -12.7415
  54   2.0000      -0.461903       -12.5690
  55   2.0000      -0.448683       -12.2093
  56   2.0000      -0.444997       -12.1090
  57   2.0000      -0.441965       -12.0265
  58   2.0000      -0.427051       -11.6206
  59   2.0000      -0.426413       -11.6033
  60   2.0000      -0.418061       -11.3760
  61   2.0000      -0.410647       -11.1743
  62   2.0000      -0.403638       -10.9835
  63   2.0000      -0.350101        -9.5267
  64   2.0000      -0.332850        -9.0573
  65   2.0000      -0.327593        -8.9143
  66   2.0000      -0.298858        -8.1323
  67   0.0000       0.031361         0.8534
  68   0.0000       0.076196         2.0734
  69   0.0000       0.109285         2.9738
  70   0.0000       0.127686         3.4745
  71   0.0000       0.131395         3.5754

MULLIKEN ATOMIC CHARGES
-----------------------
   0 S :    0.103685
   1 C :   -0.075551
   2 C :   -0.119915
   3 C :    0.055809
   4 C :   -0.155695
   5 H :    0.002328
   6 C :    0.058355
   7 H :    0.035690
   8 H :    0.012652
   9 C :   -0.077638
  10 H :    0.048375
  11 H :    0.036074
  12 C :   -0.009522
  13 H :    0.016184
  14 H :    0.018495
  15 H :    0.012668
  16 S :    0.127664
  17 C :   -0.102699
  18 C :   -0.078505
  19 C :   -0.047648
  20 C :   -0.162227
  21 H :    0.059647
  22 C :    0.090573
  23 H :    0.029437
  24 H :    0.045284
  25 C :   -0.107228
  26 H :    0.004829
  27 H :    0.014626
  28 C :   -0.010321
  29 H :    0.043279
  30 H :    0.027464
  31 H :    0.022358
  32 H :    0.016246
  33 H :    0.065229
Sum of atomic charges:    0.0000000

LOEWDIN ATOMIC CHARGES
----------------------
   0 S :    0.399252
   1 C :   -0.189057
   2 C :   -0.065016
   3 C :   -0.058796
   4 C :   -0.184794
   5 H :    0.024488
   6 C :   -0.030922
   7 H :    0.032378
   8 H :    0.026293
   9 C :   -0.036092
  10 H :    0.039046
  11 H :    0.018955
  12 C :   -0.062602
  13 H :    0.019803
  14 H :    0.016335
  15 H :    0.023884
  16 S :    0.437169
  17 C :   -0.200081
  18 C :   -0.079957
  19 C :   -0.057027
  20 C :   -0.213478
  21 H :    0.050078
  22 C :   -0.033796
  23 H :    0.034541
  24 H :    0.038568
  25 C :   -0.049033
  26 H :    0.015623
  27 H :    0.020008
  28 C :   -0.057331
  29 H :    0.029724
  30 H :    0.019806
  31 H :    0.026185
  32 H :    0.012551
  33 H :    0.033296

  Mayer bond orders larger than 0.100000
B(  0-S ,  1-C ) :   1.1432 B(  0-S ,  4-C ) :   1.1238 B(  1-C ,  2-C ) :   1.6268
B(  1-C , 32-H ) :   0.9746 B(  2-C ,  3-C ) :   1.2364 B(  2-C ,  6-C ) :   1.0121
B(  3-C ,  4-C ) :   1.6167 B(  3-C ,  5-H ) :   0.9858 B(  4-C , 20-C ) :   1.0323
B(  6-C ,  7-H ) :   0.9489 B(  6-C ,  8-H ) :   0.9404 B(  6-C ,  9-C ) :   1.0456
B(  9-C , 10-H ) :   0.9573 B(  9-C , 11-H ) :   0.9620 B(  9-C , 12-C ) :   1.0675
B( 12-C , 13-H ) :   0.9759 B( 12-C , 14-H ) :   0.9753 B( 12-C , 15-H ) :   0.9735
B( 16-S , 17-C ) :   1.1547 B( 16-S , 20-C ) :   1.1695 B( 17-C , 18-C ) :   1.6136
B( 17-C , 33-H ) :   0.9641 B( 18-C , 19-C ) :   1.2356 B( 18-C , 21-H ) :   0.9726
B( 19-C , 20-C ) :   1.5918 B( 19-C , 22-C ) :   1.0475 B( 22-C , 23-H ) :   0.9337
B( 22-C , 24-H ) :   0.9378 B( 22-C , 25-C ) :   1.0623 B( 25-C , 26-H ) :   0.9552
B( 25-C , 27-H ) :   0.9499 B( 25-C , 28-C ) :   1.0802 B( 28-C , 29-H ) :   0.9684
B( 28-C , 30-H ) :   0.9765 B( 28-C , 31-H ) :   0.9708

Dispersion correction           -0.014908436
FINAL SINGLE POINT ENERGY     -1339.863031020112

DIPOLE MOMENT
-------------
                                X             Y             Z
Electronic contribution:    -23.93913      -9.58910       3.51960
Nuclear contribution   :     24.48707       9.78441      -3.22645
                        -----------------------------------------
Total Dipole Moment    :      0.54794       0.19531       0.29315
                        -----------------------------------------
Magnitude (a.u.)       :      0.65140
Magnitude (Debye)      :      1.65572

Rotational constants in cm-1:     0.021517     0.008380     0.006938
Rotational constants in MHz :   645.060439   251.227340   207.981512

                             ****ORCA TERMINATED NORMALLY****
TOTAL RUN TIME: 0 days 0 hours 0 minutes 35 seconds 511 msec
