                         Program Version 4.2.1 -  RELEASE  -
|  1> ! wB97X-D3 SP def2-SVP
|  2> %pal
|  3> nprocs 16
|  4> end
|  5>
|  6> * xyz 0 1
|  7> S 	 -10.5411 	 38.9778 	 29.9147
|  8> C 	 -11.8744 	 38.2749 	 29.0406
|  9> C 	 -13.0796 	 38.933 	 29.31
| 10> C 	 -12.9274 	 39.9929 	 30.2839
| 11> C 	 -11.5917 	 40.1671 	 30.7219
| 12> H 	 -13.6681 	 40.7815 	 30.646
| 13> C 	 -14.4561 	 38.4764 	 28.7967
| 14> H 	 -15.008 	 38.3157 	 29.7069
| 15> H 	 -14.4386 	 37.4985 	 28.3103
| 16> C 	 -15.2036 	 39.3903 	 27.8259
| 17> H 	 -16.2272 	 38.9541 	 27.6564
| 18> H 	 -15.3848 	 40.3384 	 28.3371
| 19> C 	 -14.5119 	 39.6447 	 26.4642
| 20> H 	 -13.5383 	 40.1775 	 26.4464
| 21> H 	 -14.4397 	 38.7097 	 25.8753
| 22> H 	 -15.1998 	 40.3124 	 25.9613
| 23> S 	 -10.0073 	 42.2612 	 30.9194
| 24> C 	 -9.95412 	 43.288 	 32.3373
| 25> C 	 -10.7645 	 42.8107 	 33.3708
| 26> C 	 -11.4985 	 41.6175 	 32.9743
| 27> C 	 -11.1437 	 41.19 	 31.7048
| 28> H 	 -10.8085 	 43.418 	 34.295
| 29> C 	 -12.2253 	 40.7371 	 33.9217
| 30> H 	 -11.8689 	 40.8538 	 34.9352
| 31> H 	 -11.9036 	 39.7626 	 33.653
| 32> C 	 -13.7385 	 40.8309 	 33.7841
| 33> H 	 -14.112 	 40.0648 	 34.4647
| 34> H 	 -14.082 	 40.5372 	 32.7318
| 35> C 	 -14.2361 	 42.2184 	 34.0457
| 36> H 	 -15.3149 	 42.3135 	 33.7816
| 37> H 	 -13.633 	 43.0356 	 33.5319
| 38> H 	 -14.1639 	 42.3978 	 35.0911
| 39> H 	 -11.8233 	 37.3888 	 28.3237
| 40> H 	 -9.32766 	 44.137 	 32.3863
| 41> *
| 42>
| 43>                          ****END OF INPUT****

CARTESIAN COORDINATES (ANGSTROEM)
---------------------------------
  S    -10.541100   38.977800   29.914700
  C    -11.874400   38.274900   29.040600
  C    -13.079600   38.933000   29.310000
  C    -12.927400   39.992900   30.283900
  C    -11.591700   40.167100   30.721900
  H    -13.668100   40.781500   30.646000
  C    -14.456100   38.476400   28.796700
  H    -15.008000   38.315700   29.706900
  H    -14.438600   37.498500   28.310300
  C    -15.203600   39.390300   27.825900
  H    -16.227200   38.954100   27.656400
  H    -15.384800   40.338400   28.337100
  C    -14.511900   39.644700   26.464200
  H    -13.538300   40.177500   26.446400
  H    -14.439700   38.709700   25.875300
  H    -15.199800   40.312400   25.961300
  S    -10.007300   42.261200   30.919400
  C     -9.954120   43.288000   32.337300
  C    -10.764500   42.810700   33.370800
  C    -11.498500   41.617500   32.974300
  C    -11.143700   41.190000   31.704800
  H    -10.808500   43.418000   34.295000
  C    -12.225300   40.737100   33.921700
  H    -11.868900   40.853800   34.935200
  H    -11.903600   39.762600   33.653000
  C    -13.738500   40.830900   33.784100
  H    -14.112000   40.064800   34.464700
  H    -14.082000   40.537200   32.731800
  C    -14.236100   42.218400   34.045700
  H    -15.314900   42.313500   33.781600
  H    -13.633000   43.035600   33.531900
  H    -14.163900   42.397800   35.091100
  H    -11.823300   37.388800   28.323700
  H     -9.327660   44.137000   32.386300

 Total Charge           Charge          ....    0
 Multiplicity           Mult            ....    1
 Number of Electrons    NEL             ....  134
 Basis Dimension        Dim             ....  322

ORBITAL ENERGIES
----------------

  NO   OCC          E(Eh)            E(eV)
   0   2.0000     -88.970864     -2421.0203
   1   2.0000     -88.962228     -2420.7853
   2   2.0000     -10.337697      -281.3030
   3   2.0000     -10.328253      -281.0461
   4   2.0000     -10.322545      -280.8907
   5   2.0000     -10.316007      -280.7128
   6   2.0000     -10.308028      -280.4957
   7   2.0000     -10.306324      -280.4493
   8   2.0000     -10.305268      -280.4206
   9   2.0000     -10.301725      -280.3242
  10   2.0000     -10.291686      -280.0510
  11   2.0000     -10.290842      -280.0281
  12   2.0000     -10.285445      -279.8812
  13   2.0000     -10.281353      -279.7699
  14   2.0000     -10.280057      -279.7346
  15   2.0000     -10.275926      -279.6222
  16   2.0000      -8.084736      -219.9968
  17   2.0000      -8.077385      -219.7968
  18   2.0000      -6.043302      -164.4466
  19   2.0000      -6.039259      -164.3366
  20   2.0000      -6.035829      -164.2433
  21   2.0000      -6.035580      -164.2365
  22   2.0000      -6.031705      -164.1310
  23   2.0000      -6.028308      -164.0386
  24   2.0000      -1.001970       -27.2650
  25   2.0000      -0.978588       -26.6287
  26   2.0000      -0.916352       -24.9352
  27   2.0000      -0.905898       -24.6507
  28   2.0000      -0.864637       -23.5280
  29   2.0000      -0.848459       -23.0877
  30   2.0000      -0.842511       -22.9259
  31   2.0000      -0.811087       -22.0708
  32   2.0000      -0.782703       -21.2984
  33   2.0000      -0.773160       -21.0388
  34   2.0000      -0.703429       -19.1413
  35   2.0000      -0.692676       -18.8487
  36   2.0000      -0.683578       -18.6011
  37   2.0000      -0.665324       -18.1044
  38   2.0000      -0.635000       -17.2792
  39   2.0000      -0.611899       -16.6506
  40   2.0000      -0.594571       -16.1791
  41   2.0000      -0.564213       -15.3530
  42   2.0000      -0.553711       -15.0672
  43   2.0000      -0.549412       -14.9503
  44   2.0000      -0.545278       -14.8378
  45   2.0000      -0.536759       -14.6060
  46   2.0000      -0.519156       -14.1270
  47   2.0000      -0.506456       -13.7814
  48   2.0000      -0.495807       -13.4916
  49   2.0000      -0.491688       -13.3795
  50   2.0000      -0.486683       -13.2433
  51   2.0000      -0.482931       -13.1412
  52   2.0000      -0.474585       -12.9141
  53   2.0000      -0.462313       -12.5802
  54   2.0000      -0.458726       -12.4826
  55   2.0000      -0.442776       -12.0486
  56   2.0000      -0.436326       -11.8730
  57   2.0000      -0.435260       -11.8440
  58   2.0000      -0.431781       -11.7494
  59   2.0000      -0.423268       -11.5177
  60   2.0000      -0.420018       -11.4293
  61   2.0000      -0.416355       -11.3296
  62   2.0000      -0.410366       -11.1666
  63   2.0000      -0.343266        -9.3408
  64   2.0000      -0.329095        -8.9551
  65   2.0000      -0.327564        -8.9135
  66   2.0000      -0.295653        -8.0451
  67   0.0000       0.032684         0.8894
  68   0.0000       0.062893         1.7114
  69   0.0000       0.113438         3.0868
  70   0.0000       0.114884         3.1261
  71   0.0000       0.121281         3.3002

MULLIKEN ATOMIC CHARGES
-----------------------
   0 S :    0.119801
   1 C :   -0.141520
   2 C :   -0.092121
   3 C :    0.012467
   4 C :   -0.160666
   5 H :    0.061064
   6 C :    0.068756
   7 H :    0.031848
   8 H :    0.012855
   9 C :   -0.090501
  10 H :    0.036833
  11 H :    0.024946
  12 C :   -0.060054
  13 H :    0.053757
  14 H :    0.032944
  15 H :    0.029832
  16 S :    0.098812
  17 C :   -0.083770
  18 C :   -0.050283
  19 C :   -0.045120
  20 C :   -0.173792
  21 H :    0.037158
  22 C :    0.083829
  23 H :    0.020867
  24 H :    0.022336
  25 C :   -0.068255
  26 H :    0.028592
  27 H :    0.021367
  28 C :   -0.062573
  29 H :    0.038875
  30 H :    0.053828
  31 H :    0.016465
  32 H :    0.077784
  33 H :    0.043639
Sum of atomic charges:   -0.0000000

LOEWDIN ATOMIC CHARGES
----------------------
   0 S :    0.400601
   1 C :   -0.214428
   2 C :   -0.066607
   3 C :   -0.070455
   4 C :   -0.201059
   5 H :    0.045599
   6 C :   -0.035610
   7 H :    0.032195
   8 H :    0.026984
   9 C :   -0.044313
  10 H :    0.031776
  11 H :    0.020279
  12 C :   -0.070757
  13 H :    0.032910
  14 H :    0.025999
  15 H :    0.026897
  16 S :    0.409351
  17 C :   -0.177498
  18 C :   -0.075658
  19 C :   -0.056608
  20 C :   -0.193957
  21 H :    0.039588
  22 C :   -0.029184
  23 H :    0.029911
  24 H :    0.031769
  25 C :   -0.043332
  26 H :    0.024783
  27 H :    0.025611
  28 C :   -0.073834
  29 H :    0.029710
  30 H :    0.035849
  31 H :    0.017775
  32 H :    0.047437
  33 H :    0.018273

  Mayer bond orders larger than 0.100000
B(  0-S ,  1-C ) :   1.1386 B(  0-S ,  4-C ) :   1.1494 B(  1-C ,  2-C ) :   1.6135
B(  1-C , 32-H ) :   0.9558 B(  2-C ,  3-C ) :   1.2359 B(  2-C ,  6-C ) :   1.0130
B(  3-C ,  4-C ) :   1.5803 B(  3-C ,  5-H ) :   0.9659 B(  4-C , 20-C ) :   1.0016
B(  6-C ,  7-H ) :   0.9409 B(  6-C ,  8-H ) :   0.9450 B(  6-C ,  9-C ) :   1.0784
B(  9-C , 10-H ) :   0.9530 B(  9-C , 11-H ) :   0.9572 B(  9-C , 12-C ) :   1.0713
B( 12-C , 13-H ) :   0.9748 B( 12-C , 14-H ) :   0.9752 B( 12-C , 15-H ) :   0.9734
B( 16-S , 17-C ) :   1.1610 B( 16-S , 20-C ) :   1.1517 B( 17-C , 18-C ) :   1.6161
B( 17-C , 33-H ) :   0.9737 B( 18-C , 19-C ) :   1.1959 B( 18-C , 21-H ) :   0.9882
B( 19-C , 20-C ) :   1.6285 B( 19-C , 22-C ) :   1.0245 B( 22-C , 23-H ) :   0.9476
B( 22-C , 24-H ) :   0.9352 B( 22-C , 25-C ) :   1.0685 B( 25-C , 26-H ) :   0.9515
B( 25-C , 27-H ) :   0.9509 B( 25-C , 28-C ) :   1.0731 B( 28-C , 29-H ) :   0.9730
B( 28-C , 30-H ) :   0.9690 B( 28-C , 31-H ) :   0.9731

Dispersion correction           -0.014931880
FINAL SINGLE POINT ENERGY     -1339.879695290189

DIPOLE MOMENT
-------------
                                X             Y             Z
Electronic contribution:     24.77332       0.97255      -0.26764
Nuclear contribution   :    -25.29843      -0.98620       0.45184
                        -----------------------------------------
Total Dipole Moment    :     -0.52511      -0.01365       0.18421
                        -----------------------------------------
Magnitude (a.u.)       :      0.55665
Magnitude (Debye)      :      1.41489

Rotational constants in cm-1:     0.019280     0.008678     0.007217
Rotational constants in MHz :   577.997515   260.153099   216.365814

                             ****ORCA TERMINATED NORMALLY****
TOTAL RUN TIME: 0 days 0 hours 0 minutes 34 seconds 602 msec
