                         Program Version 4.2.1 -  RELEASE  -
|  1> ! wB97X-D3 SP def2-SVP
|  2> %pal
|  3> nprocs 16
|  4> end
|  5>
|  6> * xyz 0 1
|  7> S 	 3.79326 	 -20.9538 	 54.6552
|  8> C 	 2.43626 	 -22.0791 	 54.8357
|  9> C 	 2.92246 	 -23.3875 	 54.9989
| 10> C 	 4.31385 	 -23.4588 	 55.0832
| 11> C 	 4.94103 	 -22.2167 	 55.0692
| 12> H 	 4.87722 	 -24.3578 	 55.065
| 13> C 	 2.01646 	 -24.5519 	 55.2853
| 14> H 	 2.61532 	 -25.4915 	 55.1334
| 15> H 	 1.31085 	 -24.5215 	 54.4533
| 16> C 	 1.35639 	 -24.4523 	 56.6624
| 17> H 	 2.12791 	 -24.2962 	 57.424
| 18> H 	 0.73208 	 -23.5034 	 56.7418
| 19> C 	 0.369724 	 -25.6093 	 56.85
| 20> H 	 1.04352 	 -26.4257 	 56.6187
| 21> H 	 -0.118556 	 -25.6308 	 57.8757
| 22> H 	 -0.455236 	 -25.6897 	 56.088
| 23> S 	 6.81682 	 -22.6088 	 53.1478
| 24> C 	 8.51366 	 -22.293 	 53.5553
| 25> C 	 8.6667 	 -21.9667 	 54.8651
| 26> C 	 7.45322 	 -21.9219 	 55.6068
| 27> C 	 6.3725 	 -22.1191 	 54.7842
| 28> H 	 9.64582 	 -21.7979 	 55.195
| 29> C 	 7.3021 	 -21.614 	 57.0815
| 30> H 	 6.49327 	 -20.996 	 57.3714
| 31> H 	 8.14514 	 -21.0991 	 57.4752
| 32> C 	 7.31382 	 -22.8824 	 58.0524
| 33> H 	 7.35869 	 -22.4494 	 59.0963
| 34> H 	 8.26432 	 -23.4145 	 57.9667
| 35> C 	 6.12023 	 -23.8069 	 57.9309
| 36> H 	 6.01232 	 -24.322 	 57.0034
| 37> H 	 5.14057 	 -23.369 	 58.0418
| 38> H 	 6.23063 	 -24.6289 	 58.6078
| 39> H 	 1.36758 	 -21.9004 	 54.6835
| 40> H 	 9.38184 	 -22.2006 	 52.9084
| 41> *
| 42>
| 43>                          ****END OF INPUT****

CARTESIAN COORDINATES (ANGSTROEM)
---------------------------------
  S      3.793260  -20.953800   54.655200
  C      2.436260  -22.079100   54.835700
  C      2.922460  -23.387500   54.998900
  C      4.313850  -23.458800   55.083200
  C      4.941030  -22.216700   55.069200
  H      4.877220  -24.357800   55.065000
  C      2.016460  -24.551900   55.285300
  H      2.615320  -25.491500   55.133400
  H      1.310850  -24.521500   54.453300
  C      1.356390  -24.452300   56.662400
  H      2.127910  -24.296200   57.424000
  H      0.732080  -23.503400   56.741800
  C      0.369724  -25.609300   56.850000
  H      1.043520  -26.425700   56.618700
  H     -0.118556  -25.630800   57.875700
  H     -0.455236  -25.689700   56.088000
  S      6.816820  -22.608800   53.147800
  C      8.513660  -22.293000   53.555300
  C      8.666700  -21.966700   54.865100
  C      7.453220  -21.921900   55.606800
  C      6.372500  -22.119100   54.784200
  H      9.645820  -21.797900   55.195000
  C      7.302100  -21.614000   57.081500
  H      6.493270  -20.996000   57.371400
  H      8.145140  -21.099100   57.475200
  C      7.313820  -22.882400   58.052400
  H      7.358690  -22.449400   59.096300
  H      8.264320  -23.414500   57.966700
  C      6.120230  -23.806900   57.930900
  H      6.012320  -24.322000   57.003400
  H      5.140570  -23.369000   58.041800
  H      6.230630  -24.628900   58.607800
  H      1.367580  -21.900400   54.683500
  H      9.381840  -22.200600   52.908400

 Total Charge           Charge          ....    0
 Multiplicity           Mult            ....    1
 Number of Electrons    NEL             ....  134
 Basis Dimension        Dim             ....  322

ORBITAL ENERGIES
----------------

  NO   OCC          E(Eh)            E(eV)
   0   2.0000     -88.970677     -2421.0152
   1   2.0000     -88.963678     -2420.8248
   2   2.0000     -10.324891      -280.9546
   3   2.0000     -10.321689      -280.8675
   4   2.0000     -10.317958      -280.7659
   5   2.0000     -10.313653      -280.6488
   6   2.0000     -10.301732      -280.3244
   7   2.0000     -10.296437      -280.1803
   8   2.0000     -10.294910      -280.1387
   9   2.0000     -10.293890      -280.1110
  10   2.0000     -10.291224      -280.0384
  11   2.0000     -10.289257      -279.9849
  12   2.0000     -10.286894      -279.9206
  13   2.0000     -10.286825      -279.9187
  14   2.0000     -10.286361      -279.9061
  15   2.0000     -10.263847      -279.2935
  16   2.0000      -8.084357      -219.9865
  17   2.0000      -8.077858      -219.8097
  18   2.0000      -6.042885      -164.4353
  19   2.0000      -6.038972      -164.3288
  20   2.0000      -6.036456      -164.2603
  21   2.0000      -6.035184      -164.2257
  22   2.0000      -6.032567      -164.1545
  23   2.0000      -6.028421      -164.0417
  24   2.0000      -1.005757       -27.3680
  25   2.0000      -0.982150       -26.7257
  26   2.0000      -0.914484       -24.8844
  27   2.0000      -0.900215       -24.4961
  28   2.0000      -0.868515       -23.6335
  29   2.0000      -0.851709       -23.1762
  30   2.0000      -0.845068       -22.9955
  31   2.0000      -0.814833       -22.1727
  32   2.0000      -0.784193       -21.3390
  33   2.0000      -0.767980       -20.8978
  34   2.0000      -0.706010       -19.2115
  35   2.0000      -0.700105       -19.0508
  36   2.0000      -0.692229       -18.8365
  37   2.0000      -0.659758       -17.9529
  38   2.0000      -0.640362       -17.4251
  39   2.0000      -0.616183       -16.7672
  40   2.0000      -0.596271       -16.2254
  41   2.0000      -0.573743       -15.6123
  42   2.0000      -0.556324       -15.1384
  43   2.0000      -0.544756       -14.8236
  44   2.0000      -0.535497       -14.5716
  45   2.0000      -0.525371       -14.2961
  46   2.0000      -0.516493       -14.0545
  47   2.0000      -0.513918       -13.9844
  48   2.0000      -0.504569       -13.7300
  49   2.0000      -0.496528       -13.5112
  50   2.0000      -0.492346       -13.3974
  51   2.0000      -0.479768       -13.0552
  52   2.0000      -0.467956       -12.7337
  53   2.0000      -0.464725       -12.6458
  54   2.0000      -0.458440       -12.4748
  55   2.0000      -0.445607       -12.1256
  56   2.0000      -0.443991       -12.0816
  57   2.0000      -0.435648       -11.8546
  58   2.0000      -0.429044       -11.6749
  59   2.0000      -0.426893       -11.6163
  60   2.0000      -0.422887       -11.5074
  61   2.0000      -0.411769       -11.2048
  62   2.0000      -0.406741       -11.0680
  63   2.0000      -0.340520        -9.2660
  64   2.0000      -0.326739        -8.8910
  65   2.0000      -0.318452        -8.6655
  66   2.0000      -0.306469        -8.3394
  67   0.0000       0.036518         0.9937
  68   0.0000       0.049801         1.3552
  69   0.0000       0.108423         2.9504
  70   0.0000       0.120025         3.2661
  71   0.0000       0.130636         3.5548

MULLIKEN ATOMIC CHARGES
-----------------------
   0 S :    0.123914
   1 C :   -0.122939
   2 C :   -0.101299
   3 C :    0.017405
   4 C :   -0.141640
   5 H :    0.019899
   6 C :    0.041434
   7 H :    0.028571
   8 H :    0.027599
   9 C :   -0.079881
  10 H :    0.041068
  11 H :    0.030024
  12 C :   -0.052954
  13 H :    0.023535
  14 H :    0.054830
  15 H :    0.039814
  16 S :    0.112678
  17 C :   -0.080888
  18 C :   -0.027733
  19 C :    0.018569
  20 C :   -0.200334
  21 H :   -0.006584
  22 C :    0.093394
  23 H :    0.026172
  24 H :    0.003739
  25 C :   -0.099857
  26 H :    0.032297
  27 H :    0.025512
  28 C :   -0.001285
  29 H :    0.001352
  30 H :    0.030471
  31 H :    0.016974
  32 H :    0.054064
  33 H :    0.052077
Sum of atomic charges:    0.0000000

LOEWDIN ATOMIC CHARGES
----------------------
   0 S :    0.412226
   1 C :   -0.195625
   2 C :   -0.067355
   3 C :   -0.053407
   4 C :   -0.207170
   5 H :    0.025894
   6 C :   -0.036685
   7 H :    0.032464
   8 H :    0.030729
   9 C :   -0.044081
  10 H :    0.028359
  11 H :    0.026729
  12 C :   -0.075495
  13 H :    0.022933
  14 H :    0.034793
  15 H :    0.030769
  16 S :    0.389228
  17 C :   -0.178635
  18 C :   -0.063919
  19 C :   -0.052916
  20 C :   -0.190305
  21 H :    0.023359
  22 C :   -0.026802
  23 H :    0.027853
  24 H :    0.026975
  25 C :   -0.033350
  26 H :    0.028788
  27 H :    0.022249
  28 C :   -0.070541
  29 H :    0.018474
  30 H :    0.024825
  31 H :    0.023847
  32 H :    0.032850
  33 H :    0.032943

  Mayer bond orders larger than 0.100000
B(  0-S ,  1-C ) :   1.1533 B(  0-S ,  4-C ) :   1.1652 B(  1-C ,  2-C ) :   1.5633
B(  1-C ,  4-C ) :   0.1088 B(  1-C , 32-H ) :   0.9666 B(  2-C ,  3-C ) :   1.2887
B(  2-C ,  6-C ) :   1.0254 B(  3-C ,  4-C ) :   1.5246 B(  3-C ,  5-H ) :   0.9964
B(  4-C , 20-C ) :   1.0121 B(  6-C ,  7-H ) :   0.9424 B(  6-C ,  8-H ) :   0.9323
B(  6-C ,  9-C ) :   1.0582 B(  9-C , 10-H ) :   0.9566 B(  9-C , 11-H ) :   0.9535
B(  9-C , 12-C ) :   1.0603 B( 12-C , 13-H ) :   0.9749 B( 12-C , 14-H ) :   0.9728
B( 12-C , 15-H ) :   0.9750 B( 16-S , 17-C ) :   1.1260 B( 16-S , 20-C ) :   1.1356
B( 17-C , 18-C ) :   1.6682 B( 17-C , 33-H ) :   0.9597 B( 18-C , 19-C ) :   1.2066
B( 18-C , 21-H ) :   0.9974 B( 19-C , 20-C ) :   1.6277 B( 19-C , 22-C ) :   1.0468
B( 22-C , 23-H ) :   0.9393 B( 22-C , 24-H ) :   0.9292 B( 22-C , 25-C ) :   1.0705
B( 25-C , 26-H ) :   0.9560 B( 25-C , 27-H ) :   0.9558 B( 25-C , 28-C ) :   1.0858
B( 28-C , 29-H ) :   0.9664 B( 28-C , 30-H ) :   0.9712 B( 28-C , 31-H ) :   0.9645

Dispersion correction           -0.015624693
FINAL SINGLE POINT ENERGY     -1339.865324304543

DIPOLE MOMENT
-------------
                                X             Y             Z
Electronic contribution:      9.94733      15.24081     -20.05436
Nuclear contribution   :     -9.96507     -15.55925      20.34581
                        -----------------------------------------
Total Dipole Moment    :     -0.01774      -0.31844       0.29145
                        -----------------------------------------
Magnitude (a.u.)       :      0.43204
Magnitude (Debye)      :      1.09817

Rotational constants in cm-1:     0.021375     0.008604     0.007345
Rotational constants in MHz :   640.817099   257.952597   220.201912

                             ****ORCA TERMINATED NORMALLY****
TOTAL RUN TIME: 0 days 0 hours 0 minutes 54 seconds 106 msec
