                         Program Version 4.2.1 -  RELEASE  -
|  1> ! wB97X-D3 SP def2-SVP
|  2> %pal
|  3> nprocs 16
|  4> end
|  5>
|  6> * xyz 0 1
|  7> S 	 -3.20156 	 -16.0201 	 85.2499
|  8> C 	 -2.64077 	 -16.5726 	 83.6217
|  9> C 	 -1.45933 	 -15.9947 	 83.3562
| 10> C 	 -1.13062 	 -14.9818 	 84.3149
| 11> C 	 -1.99548 	 -14.7817 	 85.3775
| 12> H 	 -0.272285 	 -14.3901 	 84.3217
| 13> C 	 -0.499942 	 -16.2765 	 82.1738
| 14> H 	 -0.681798 	 -15.4463 	 81.5348
| 15> H 	 -0.850024 	 -17.1053 	 81.5457
| 16> C 	 1.00526 	 -16.4446 	 82.4393
| 17> H 	 1.52339 	 -16.3875 	 81.5175
| 18> H 	 1.37961 	 -15.5093 	 82.93
| 19> C 	 1.49037 	 -17.6106 	 83.138
| 20> H 	 1.25068 	 -18.5157 	 82.5614
| 21> H 	 2.58227 	 -17.5291 	 83.1826
| 22> H 	 1.04755 	 -17.5518 	 84.157
| 23> S 	 -1.89319 	 -14.2362 	 88.0311
| 24> C 	 -1.69551 	 -12.6021 	 88.6466
| 25> C 	 -1.82563 	 -11.7062 	 87.5557
| 26> C 	 -2.13467 	 -12.3778 	 86.2854
| 27> C 	 -1.987 	 -13.7562 	 86.4098
| 28> H 	 -1.92004 	 -10.6503 	 87.839
| 29> C 	 -2.31769 	 -11.4936 	 85.0177
| 30> H 	 -3.25649 	 -10.8848 	 85.1842
| 31> H 	 -2.56623 	 -12.0229 	 84.0964
| 32> C 	 -1.10671 	 -10.6181 	 84.7247
| 33> H 	 -1.00108 	 -10.0093 	 85.6261
| 34> H 	 -1.40073 	 -9.96942 	 83.8546
| 35> C 	 0.128851 	 -11.3593 	 84.3372
| 36> H 	 0.510147 	 -12.1036 	 85.0332
| 37> H 	 0.87392 	 -10.616 	 84.3586
| 38> H 	 0.137596 	 -11.7753 	 83.3357
| 39> H 	 -3.14762 	 -17.4076 	 83.0611
| 40> H 	 -1.55782 	 -12.2907 	 89.6765
| 41> *
| 42>
| 43>                          ****END OF INPUT****

CARTESIAN COORDINATES (ANGSTROEM)
---------------------------------
  S     -3.201560  -16.020100   85.249900
  C     -2.640770  -16.572600   83.621700
  C     -1.459330  -15.994700   83.356200
  C     -1.130620  -14.981800   84.314900
  C     -1.995480  -14.781700   85.377500
  H     -0.272285  -14.390100   84.321700
  C     -0.499942  -16.276500   82.173800
  H     -0.681798  -15.446300   81.534800
  H     -0.850024  -17.105300   81.545700
  C      1.005260  -16.444600   82.439300
  H      1.523390  -16.387500   81.517500
  H      1.379610  -15.509300   82.930000
  C      1.490370  -17.610600   83.138000
  H      1.250680  -18.515700   82.561400
  H      2.582270  -17.529100   83.182600
  H      1.047550  -17.551800   84.157000
  S     -1.893190  -14.236200   88.031100
  C     -1.695510  -12.602100   88.646600
  C     -1.825630  -11.706200   87.555700
  C     -2.134670  -12.377800   86.285400
  C     -1.987000  -13.756200   86.409800
  H     -1.920040  -10.650300   87.839000
  C     -2.317690  -11.493600   85.017700
  H     -3.256490  -10.884800   85.184200
  H     -2.566230  -12.022900   84.096400
  C     -1.106710  -10.618100   84.724700
  H     -1.001080  -10.009300   85.626100
  H     -1.400730   -9.969420   83.854600
  C      0.128851  -11.359300   84.337200
  H      0.510147  -12.103600   85.033200
  H      0.873920  -10.616000   84.358600
  H      0.137596  -11.775300   83.335700
  H     -3.147620  -17.407600   83.061100
  H     -1.557820  -12.290700   89.676500

 Total Charge           Charge          ....    0
 Multiplicity           Mult            ....    1
 Number of Electrons    NEL             ....  134
 Basis Dimension        Dim             ....  322

ORBITAL ENERGIES
----------------

  NO   OCC          E(Eh)            E(eV)
   0   2.0000     -88.966571     -2420.9035
   1   2.0000     -88.958061     -2420.6719
   2   2.0000     -10.328655      -281.0570
   3   2.0000     -10.327345      -281.0213
   4   2.0000     -10.323972      -280.9296
   5   2.0000     -10.318907      -280.7917
   6   2.0000     -10.312251      -280.6106
   7   2.0000     -10.303073      -280.3609
   8   2.0000     -10.302001      -280.3317
   9   2.0000     -10.293891      -280.1110
  10   2.0000     -10.293324      -280.0956
  11   2.0000     -10.287324      -279.9323
  12   2.0000     -10.287278      -279.9311
  13   2.0000     -10.280763      -279.7538
  14   2.0000     -10.274676      -279.5881
  15   2.0000     -10.269589      -279.4497
  16   2.0000      -8.082139      -219.9262
  17   2.0000      -8.072685      -219.6689
  18   2.0000      -6.040660      -164.3747
  19   2.0000      -6.036394      -164.2586
  20   2.0000      -6.032951      -164.1650
  21   2.0000      -6.031338      -164.1210
  22   2.0000      -6.027195      -164.0083
  23   2.0000      -6.023288      -163.9020
  24   2.0000      -1.008328       -27.4380
  25   2.0000      -0.983985       -26.7756
  26   2.0000      -0.916943       -24.9513
  27   2.0000      -0.911545       -24.8044
  28   2.0000      -0.875644       -23.8275
  29   2.0000      -0.846356       -23.0305
  30   2.0000      -0.842737       -22.9320
  31   2.0000      -0.815417       -22.1886
  32   2.0000      -0.787304       -21.4236
  33   2.0000      -0.780331       -21.2339
  34   2.0000      -0.706879       -19.2351
  35   2.0000      -0.690663       -18.7939
  36   2.0000      -0.688665       -18.7395
  37   2.0000      -0.655436       -17.8353
  38   2.0000      -0.640826       -17.4378
  39   2.0000      -0.621894       -16.9226
  40   2.0000      -0.600057       -16.3284
  41   2.0000      -0.568777       -15.4772
  42   2.0000      -0.560633       -15.2556
  43   2.0000      -0.547369       -14.8947
  44   2.0000      -0.545048       -14.8315
  45   2.0000      -0.542195       -14.7539
  46   2.0000      -0.521240       -14.1836
  47   2.0000      -0.515071       -14.0158
  48   2.0000      -0.509677       -13.8690
  49   2.0000      -0.500822       -13.6281
  50   2.0000      -0.490647       -13.3512
  51   2.0000      -0.481077       -13.0908
  52   2.0000      -0.473964       -12.8972
  53   2.0000      -0.464064       -12.6278
  54   2.0000      -0.460078       -12.5194
  55   2.0000      -0.444480       -12.0949
  56   2.0000      -0.440121       -11.9763
  57   2.0000      -0.432751       -11.7758
  58   2.0000      -0.431272       -11.7355
  59   2.0000      -0.419009       -11.4018
  60   2.0000      -0.415675       -11.3111
  61   2.0000      -0.412580       -11.2269
  62   2.0000      -0.405368       -11.0306
  63   2.0000      -0.343099        -9.3362
  64   2.0000      -0.328260        -8.9324
  65   2.0000      -0.322979        -8.7887
  66   2.0000      -0.302380        -8.2282
  67   0.0000       0.037263         1.0140
  68   0.0000       0.063085         1.7166
  69   0.0000       0.106908         2.9091
  70   0.0000       0.119441         3.2502
  71   0.0000       0.130549         3.5524

MULLIKEN ATOMIC CHARGES
-----------------------
   0 S :    0.082773
   1 C :   -0.174261
   2 C :   -0.038695
   3 C :    0.039044
   4 C :   -0.132834
   5 H :   -0.034897
   6 C :    0.091239
   7 H :    0.028052
   8 H :    0.009639
   9 C :   -0.087307
  10 H :    0.009053
  11 H :    0.020501
  12 C :   -0.019946
  13 H :    0.030610
  14 H :    0.034825
  15 H :    0.048549
  16 S :    0.121108
  17 C :   -0.104219
  18 C :   -0.065965
  19 C :   -0.022562
  20 C :   -0.173114
  21 H :    0.040521
  22 C :    0.052851
  23 H :    0.039402
  24 H :    0.022746
  25 C :   -0.092580
  26 H :    0.029504
  27 H :    0.038031
  28 C :   -0.013351
  29 H :    0.042263
  30 H :    0.013464
  31 H :    0.029815
  32 H :    0.070545
  33 H :    0.065199
Sum of atomic charges:   -0.0000000

LOEWDIN ATOMIC CHARGES
----------------------
   0 S :    0.377111
   1 C :   -0.182896
   2 C :   -0.068244
   3 C :   -0.061180
   4 C :   -0.192869
   5 H :    0.015367
   6 C :   -0.027486
   7 H :    0.033056
   8 H :    0.027770
   9 C :   -0.051209
  10 H :    0.020450
  11 H :    0.025167
  12 C :   -0.063184
  13 H :    0.026699
  14 H :    0.031203
  15 H :    0.034440
  16 S :    0.433024
  17 C :   -0.188796
  18 C :   -0.076757
  19 C :   -0.049816
  20 C :   -0.224451
  21 H :    0.034596
  22 C :   -0.038167
  23 H :    0.038286
  24 H :    0.026975
  25 C :   -0.042626
  26 H :    0.022046
  27 H :    0.033385
  28 C :   -0.064581
  29 H :    0.026235
  30 H :    0.024803
  31 H :    0.026031
  32 H :    0.042208
  33 H :    0.033409

  Mayer bond orders larger than 0.100000
B(  0-S ,  1-C ) :   1.1237 B(  0-S ,  4-C ) :   1.1411 B(  1-C ,  2-C ) :   1.6319
B(  1-C , 32-H ) :   0.9638 B(  2-C ,  3-C ) :   1.2054 B(  2-C ,  6-C ) :   1.0012
B(  3-C ,  4-C ) :   1.6074 B(  3-C ,  5-H ) :   1.0090 B(  4-C , 20-C ) :   1.0168
B(  6-C ,  7-H ) :   0.9327 B(  6-C ,  8-H ) :   0.9420 B(  6-C ,  9-C ) :   1.0827
B(  9-C , 10-H ) :   0.9431 B(  9-C , 11-H ) :   0.9462 B(  9-C , 12-C ) :   1.0973
B( 12-C , 13-H ) :   0.9688 B( 12-C , 14-H ) :   0.9662 B( 12-C , 15-H ) :   0.9727
B( 16-S , 17-C ) :   1.1582 B( 16-S , 20-C ) :   1.1640 B( 17-C , 18-C ) :   1.6075
B( 17-C , 20-C ) :   0.1001 B( 17-C , 33-H ) :   0.9707 B( 18-C , 19-C ) :   1.2258
B( 18-C , 21-H ) :   0.9775 B( 19-C , 20-C ) :   1.5774 B( 19-C , 22-C ) :   1.0408
B( 22-C , 23-H ) :   0.9353 B( 22-C , 24-H ) :   0.9405 B( 22-C , 25-C ) :   1.0731
B( 25-C , 26-H ) :   0.9546 B( 25-C , 27-H ) :   0.9491 B( 25-C , 28-C ) :   1.0875
B( 28-C , 29-H ) :   0.9664 B( 28-C , 30-H ) :   0.9627 B( 28-C , 31-H ) :   0.9697

Dispersion correction           -0.015063699
FINAL SINGLE POINT ENERGY     -1339.865230710242

DIPOLE MOMENT
-------------
                                X             Y             Z
Electronic contribution:    -17.34528      -6.54391      18.67061
Nuclear contribution   :     17.77923       6.98872     -19.15127
                        -----------------------------------------
Total Dipole Moment    :      0.43395       0.44480      -0.48066
                        -----------------------------------------
Magnitude (a.u.)       :      0.78562
Magnitude (Debye)      :      1.99689

Rotational constants in cm-1:     0.018756     0.009075     0.007547
Rotational constants in MHz :   562.278108   272.072813   226.248654

                             ****ORCA TERMINATED NORMALLY****
TOTAL RUN TIME: 0 days 0 hours 0 minutes 35 seconds 327 msec
