                         Program Version 4.2.1 -  RELEASE  -
|  1> ! wB97X-D3 SP def2-SVP
|  2> %pal
|  3> nprocs 16
|  4> end
|  5>
|  6> * xyz 0 1
|  7> S 	 -12.0439 	 -10.5449 	 91.3588
|  8> C 	 -13.4064 	 -9.98611 	 92.1753
|  9> C 	 -14.4012 	 -9.49916 	 91.3606
| 10> C 	 -14.1743 	 -9.93241 	 90.0119
| 11> C 	 -12.9756 	 -10.5976 	 89.8639
| 12> H 	 -14.7616 	 -9.77827 	 89.1299
| 13> C 	 -15.689 	 -8.79488 	 91.6701
| 14> H 	 -15.4678 	 -7.78366 	 91.3717
| 15> H 	 -15.7507 	 -8.74713 	 92.7714
| 16> C 	 -17.0132 	 -9.30035 	 91.1346
| 17> H 	 -16.9568 	 -9.17071 	 90.0679
| 18> H 	 -17.1021 	 -10.3804 	 91.3114
| 19> C 	 -18.124 	 -8.47117 	 91.6542
| 20> H 	 -18.4155 	 -8.72305 	 92.669
| 21> H 	 -17.8036 	 -7.44935 	 91.565
| 22> H 	 -18.9251 	 -8.67659 	 90.9867
| 23> S 	 -10.7369 	 -10.8434 	 88.3624
| 24> C 	 -10.8003 	 -11.1932 	 86.6632
| 25> C 	 -12.1244 	 -11.4468 	 86.2367
| 26> C 	 -13.0501 	 -11.3634 	 87.3108
| 27> C 	 -12.4468 	 -11.0219 	 88.5745
| 28> H 	 -12.4467 	 -11.5121 	 85.198
| 29> C 	 -14.5312 	 -11.781 	 87.064
| 30> H 	 -15.018 	 -11.376 	 87.8631
| 31> H 	 -14.5065 	 -12.8646 	 87.0829
| 32> C 	 -15.1487 	 -11.2341 	 85.7959
| 33> H 	 -14.9094 	 -11.9062 	 85.0049
| 34> H 	 -14.8481 	 -10.2316 	 85.5027
| 35> C 	 -16.6518 	 -10.9752 	 85.8441
| 36> H 	 -17.2023 	 -11.909 	 86.0163
| 37> H 	 -16.9833 	 -10.5595 	 84.8698
| 38> H 	 -16.8851 	 -10.1879 	 86.5486
| 39> H 	 -13.3478 	 -9.69061 	 93.2491
| 40> H 	 -9.95792 	 -11.1956 	 86.0297
| 41> *
| 42>
| 43>                          ****END OF INPUT****

CARTESIAN COORDINATES (ANGSTROEM)
---------------------------------
  S    -12.043900  -10.544900   91.358800
  C    -13.406400   -9.986110   92.175300
  C    -14.401200   -9.499160   91.360600
  C    -14.174300   -9.932410   90.011900
  C    -12.975600  -10.597600   89.863900
  H    -14.761600   -9.778270   89.129900
  C    -15.689000   -8.794880   91.670100
  H    -15.467800   -7.783660   91.371700
  H    -15.750700   -8.747130   92.771400
  C    -17.013200   -9.300350   91.134600
  H    -16.956800   -9.170710   90.067900
  H    -17.102100  -10.380400   91.311400
  C    -18.124000   -8.471170   91.654200
  H    -18.415500   -8.723050   92.669000
  H    -17.803600   -7.449350   91.565000
  H    -18.925100   -8.676590   90.986700
  S    -10.736900  -10.843400   88.362400
  C    -10.800300  -11.193200   86.663200
  C    -12.124400  -11.446800   86.236700
  C    -13.050100  -11.363400   87.310800
  C    -12.446800  -11.021900   88.574500
  H    -12.446700  -11.512100   85.198000
  C    -14.531200  -11.781000   87.064000
  H    -15.018000  -11.376000   87.863100
  H    -14.506500  -12.864600   87.082900
  C    -15.148700  -11.234100   85.795900
  H    -14.909400  -11.906200   85.004900
  H    -14.848100  -10.231600   85.502700
  C    -16.651800  -10.975200   85.844100
  H    -17.202300  -11.909000   86.016300
  H    -16.983300  -10.559500   84.869800
  H    -16.885100  -10.187900   86.548600
  H    -13.347800   -9.690610   93.249100
  H     -9.957920  -11.195600   86.029700

 Total Charge           Charge          ....    0
 Multiplicity           Mult            ....    1
 Number of Electrons    NEL             ....  134
 Basis Dimension        Dim             ....  322

ORBITAL ENERGIES
----------------

  NO   OCC          E(Eh)            E(eV)
   0   2.0000     -88.966563     -2420.9033
   1   2.0000     -88.966350     -2420.8975
   2   2.0000     -10.328929      -281.0645
   3   2.0000     -10.327564      -281.0273
   4   2.0000     -10.316021      -280.7132
   5   2.0000     -10.309529      -280.5365
   6   2.0000     -10.306071      -280.4424
   7   2.0000     -10.298286      -280.2306
   8   2.0000     -10.295123      -280.1445
   9   2.0000     -10.288331      -279.9597
  10   2.0000     -10.287837      -279.9463
  11   2.0000     -10.285260      -279.8761
  12   2.0000     -10.283025      -279.8153
  13   2.0000     -10.282435      -279.7993
  14   2.0000     -10.281734      -279.7802
  15   2.0000     -10.273055      -279.5440
  16   2.0000      -8.082243      -219.9290
  17   2.0000      -8.081693      -219.9140
  18   2.0000      -6.040766      -164.3776
  19   2.0000      -6.040085      -164.3591
  20   2.0000      -6.036843      -164.2708
  21   2.0000      -6.036015      -164.2483
  22   2.0000      -6.032713      -164.1585
  23   2.0000      -6.032676      -164.1575
  24   2.0000      -1.009970       -27.4827
  25   2.0000      -0.984803       -26.7979
  26   2.0000      -0.923509       -25.1300
  27   2.0000      -0.914713       -24.8906
  28   2.0000      -0.872325       -23.7372
  29   2.0000      -0.860254       -23.4087
  30   2.0000      -0.850534       -23.1442
  31   2.0000      -0.812826       -22.1181
  32   2.0000      -0.783561       -21.3218
  33   2.0000      -0.770866       -20.9763
  34   2.0000      -0.709615       -19.3096
  35   2.0000      -0.701560       -19.0904
  36   2.0000      -0.692165       -18.8348
  37   2.0000      -0.659143       -17.9362
  38   2.0000      -0.638434       -17.3727
  39   2.0000      -0.622060       -16.9271
  40   2.0000      -0.594911       -16.1883
  41   2.0000      -0.582477       -15.8500
  42   2.0000      -0.579148       -15.7594
  43   2.0000      -0.563228       -15.3262
  44   2.0000      -0.533322       -14.5124
  45   2.0000      -0.528739       -14.3877
  46   2.0000      -0.520462       -14.1625
  47   2.0000      -0.512976       -13.9588
  48   2.0000      -0.504771       -13.7355
  49   2.0000      -0.495532       -13.4841
  50   2.0000      -0.490740       -13.3537
  51   2.0000      -0.483916       -13.1680
  52   2.0000      -0.476498       -12.9662
  53   2.0000      -0.473258       -12.8780
  54   2.0000      -0.463128       -12.6024
  55   2.0000      -0.450263       -12.2523
  56   2.0000      -0.445881       -12.1330
  57   2.0000      -0.440652       -11.9908
  58   2.0000      -0.436665       -11.8823
  59   2.0000      -0.427861       -11.6427
  60   2.0000      -0.422361       -11.4930
  61   2.0000      -0.417154       -11.3513
  62   2.0000      -0.406271       -11.0552
  63   2.0000      -0.359067        -9.7707
  64   2.0000      -0.334072        -9.0906
  65   2.0000      -0.324799        -8.8382
  66   2.0000      -0.276748        -7.5307
  67   0.0000       0.023468         0.6386
  68   0.0000       0.080346         2.1863
  69   0.0000       0.099397         2.7047
  70   0.0000       0.119693         3.2570
  71   0.0000       0.128287         3.4909

MULLIKEN ATOMIC CHARGES
-----------------------
   0 S :    0.116364
   1 C :   -0.120844
   2 C :   -0.078149
   3 C :   -0.023767
   4 C :   -0.112036
   5 H :    0.008708
   6 C :    0.045123
   7 H :    0.031629
   8 H :    0.008843
   9 C :   -0.071223
  10 H :    0.017958
  11 H :    0.038303
  12 C :    0.004891
  13 H :    0.037562
  14 H :    0.023172
  15 H :    0.024273
  16 S :    0.099446
  17 C :   -0.078085
  18 C :   -0.032112
  19 C :   -0.122769
  20 C :   -0.137025
  21 H :    0.031237
  22 C :    0.181452
  23 H :   -0.037889
  24 H :    0.050843
  25 C :   -0.107433
  26 H :    0.027701
  27 H :    0.027888
  28 C :   -0.055026
  29 H :    0.036164
  30 H :    0.030873
  31 H :    0.030603
  32 H :    0.058532
  33 H :    0.044794
Sum of atomic charges:   -0.0000000

LOEWDIN ATOMIC CHARGES
----------------------
   0 S :    0.418129
   1 C :   -0.225819
   2 C :   -0.062399
   3 C :   -0.061633
   4 C :   -0.187183
   5 H :    0.025366
   6 C :   -0.038430
   7 H :    0.033304
   8 H :    0.027662
   9 C :   -0.039815
  10 H :    0.019030
  11 H :    0.028967
  12 C :   -0.052173
  13 H :    0.026798
  14 H :    0.026269
  15 H :    0.025788
  16 S :    0.426029
  17 C :   -0.187449
  18 C :   -0.073159
  19 C :   -0.056565
  20 C :   -0.207079
  21 H :    0.034807
  22 C :   -0.016957
  23 H :    0.008455
  24 H :    0.040720
  25 C :   -0.045745
  26 H :    0.018931
  27 H :    0.027697
  28 C :   -0.061275
  29 H :    0.023132
  30 H :    0.029479
  31 H :    0.021545
  32 H :    0.034349
  33 H :    0.019223

  Mayer bond orders larger than 0.100000
B(  0-S ,  1-C ) :   1.1427 B(  0-S ,  4-C ) :   1.1434 B(  1-C ,  2-C ) :   1.6266
B(  1-C , 32-H ) :   0.9526 B(  2-C ,  3-C ) :   1.2217 B(  2-C ,  6-C ) :   1.0247
B(  3-C ,  4-C ) :   1.5810 B(  3-C ,  5-H ) :   0.9897 B(  4-C , 20-C ) :   1.0747
B(  6-C ,  7-H ) :   0.9181 B(  6-C ,  8-H ) :   0.9433 B(  6-C ,  9-C ) :   1.0748
B(  9-C , 10-H ) :   0.9431 B(  9-C , 11-H ) :   0.9547 B(  9-C , 12-C ) :   1.0917
B( 12-C , 13-H ) :   0.9742 B( 12-C , 14-H ) :   0.9695 B( 12-C , 15-H ) :   0.9707
B( 16-S , 17-C ) :   1.1824 B( 16-S , 20-C ) :   1.1589 B( 17-C , 18-C ) :   1.5436
B( 17-C , 20-C ) :   0.1091 B( 17-C , 33-H ) :   0.9754 B( 18-C , 19-C ) :   1.3070
B( 18-C , 21-H ) :   0.9852 B( 19-C , 20-C ) :   1.5343 B( 19-C , 22-C ) :   1.0209
B( 22-C , 23-H ) :   0.9284 B( 22-C , 24-H ) :   0.9303 B( 22-C , 25-C ) :   1.0598
B( 25-C , 26-H ) :   0.9492 B( 25-C , 27-H ) :   0.9637 B( 25-C , 28-C ) :   1.0958
B( 28-C , 29-H ) :   0.9735 B( 28-C , 30-H ) :   0.9740 B( 28-C , 31-H ) :   0.9743

Dispersion correction           -0.013597804
FINAL SINGLE POINT ENERGY     -1339.864352856436

DIPOLE MOMENT
-------------
                                X             Y             Z
Electronic contribution:     32.55314      -5.39727       7.05583
Nuclear contribution   :    -33.22760       5.68480      -7.38645
                        -----------------------------------------
Total Dipole Moment    :     -0.67445       0.28753      -0.33062
                        -----------------------------------------
Magnitude (a.u.)       :      0.80428
Magnitude (Debye)      :      2.04432

Rotational constants in cm-1:     0.015795     0.009897     0.006286
Rotational constants in MHz :   473.522143   296.718883   188.436113

                             ****ORCA TERMINATED NORMALLY****
TOTAL RUN TIME: 0 days 0 hours 0 minutes 33 seconds 871 msec
