                         Program Version 4.2.1 -  RELEASE  -
|  1> ! wB97X-D3 SP def2-SVP
|  2> %pal
|  3> nprocs 16
|  4> end
|  5>
|  6> * xyz 0 1
|  7> S 	 23.1946 	 -10.369 	 80.2346
|  8> C 	 24.6326 	 -10.9002 	 79.5302
|  9> C 	 24.7234 	 -10.2649 	 78.3047
| 10> C 	 23.85 	 -9.10065 	 78.1032
| 11> C 	 23.1527 	 -8.87216 	 79.222
| 12> H 	 23.8082 	 -8.38922 	 77.3163
| 13> C 	 25.7635 	 -10.6014 	 77.206
| 14> H 	 25.5342 	 -10.016 	 76.2762
| 15> H 	 25.8189 	 -11.6528 	 76.8621
| 16> C 	 27.1559 	 -10.0515 	 77.5801
| 17> H 	 27.0454 	 -9.0431 	 77.9909
| 18> H 	 27.6151 	 -10.7219 	 78.3204
| 19> C 	 28.2429 	 -9.85356 	 76.477
| 20> H 	 28.546 	 -10.8018 	 76.0324
| 21> H 	 27.9404 	 -9.06003 	 75.8457
| 22> H 	 29.2477 	 -9.67456 	 76.8392
| 23> S 	 20.6518 	 -7.85709 	 79.6816
| 24> C 	 20.422 	 -6.16459 	 79.7422
| 25> C 	 21.6448 	 -5.52126 	 79.7351
| 26> C 	 22.7916 	 -6.38403 	 79.5724
| 27> C 	 22.4214 	 -7.69152 	 79.5705
| 28> H 	 21.6386 	 -4.46414 	 79.7655
| 29> C 	 24.2469 	 -5.87132 	 79.6117
| 30> H 	 24.8632 	 -6.7845 	 79.4635
| 31> H 	 24.6164 	 -5.56389 	 80.6176
| 32> C 	 24.6934 	 -4.83358 	 78.5227
| 33> H 	 24.043 	 -3.94357 	 78.6997
| 34> H 	 24.3993 	 -5.11573 	 77.5465
| 35> C 	 26.162 	 -4.56105 	 78.3952
| 36> H 	 26.8342 	 -5.33822 	 78.0085
| 37> H 	 26.6117 	 -4.48506 	 79.3462
| 38> H 	 26.2535 	 -3.56426 	 77.842
| 39> H 	 25.2531 	 -11.7149 	 79.886
| 40> H 	 19.4682 	 -5.70236 	 79.9993
| 41> *
| 42>
| 43>                          ****END OF INPUT****

CARTESIAN COORDINATES (ANGSTROEM)
---------------------------------
  S     23.194600  -10.369000   80.234600
  C     24.632600  -10.900200   79.530200
  C     24.723400  -10.264900   78.304700
  C     23.850000   -9.100650   78.103200
  C     23.152700   -8.872160   79.222000
  H     23.808200   -8.389220   77.316300
  C     25.763500  -10.601400   77.206000
  H     25.534200  -10.016000   76.276200
  H     25.818900  -11.652800   76.862100
  C     27.155900  -10.051500   77.580100
  H     27.045400   -9.043100   77.990900
  H     27.615100  -10.721900   78.320400
  C     28.242900   -9.853560   76.477000
  H     28.546000  -10.801800   76.032400
  H     27.940400   -9.060030   75.845700
  H     29.247700   -9.674560   76.839200
  S     20.651800   -7.857090   79.681600
  C     20.422000   -6.164590   79.742200
  C     21.644800   -5.521260   79.735100
  C     22.791600   -6.384030   79.572400
  C     22.421400   -7.691520   79.570500
  H     21.638600   -4.464140   79.765500
  C     24.246900   -5.871320   79.611700
  H     24.863200   -6.784500   79.463500
  H     24.616400   -5.563890   80.617600
  C     24.693400   -4.833580   78.522700
  H     24.043000   -3.943570   78.699700
  H     24.399300   -5.115730   77.546500
  C     26.162000   -4.561050   78.395200
  H     26.834200   -5.338220   78.008500
  H     26.611700   -4.485060   79.346200
  H     26.253500   -3.564260   77.842000
  H     25.253100  -11.714900   79.886000
  H     19.468200   -5.702360   79.999300

 Total Charge           Charge          ....    0
 Multiplicity           Mult            ....    1
 Number of Electrons    NEL             ....  134
 Basis Dimension        Dim             ....  322

ORBITAL ENERGIES
----------------

  NO   OCC          E(Eh)            E(eV)
   0   2.0000     -88.961883     -2420.7759
   1   2.0000     -88.956980     -2420.6425
   2   2.0000     -10.326341      -280.9940
   3   2.0000     -10.325510      -280.9714
   4   2.0000     -10.317414      -280.7511
   5   2.0000     -10.314635      -280.6755
   6   2.0000     -10.309100      -280.5249
   7   2.0000     -10.307991      -280.4947
   8   2.0000     -10.299774      -280.2711
   9   2.0000     -10.296759      -280.1891
  10   2.0000     -10.295836      -280.1639
  11   2.0000     -10.292688      -280.0783
  12   2.0000     -10.287918      -279.9485
  13   2.0000     -10.287507      -279.9373
  14   2.0000     -10.281471      -279.7730
  15   2.0000     -10.275434      -279.6088
  16   2.0000      -8.077488      -219.7996
  17   2.0000      -8.072962      -219.6765
  18   2.0000      -6.035990      -164.2476
  19   2.0000      -6.031854      -164.1351
  20   2.0000      -6.031536      -164.1264
  21   2.0000      -6.028207      -164.0359
  22   2.0000      -6.027644      -164.0205
  23   2.0000      -6.023189      -163.8993
  24   2.0000      -1.012074       -27.5399
  25   2.0000      -0.989363       -26.9219
  26   2.0000      -0.906305       -24.6618
  27   2.0000      -0.902438       -24.5566
  28   2.0000      -0.880734       -23.9660
  29   2.0000      -0.853761       -23.2320
  30   2.0000      -0.844944       -22.9921
  31   2.0000      -0.817765       -22.2525
  32   2.0000      -0.782730       -21.2992
  33   2.0000      -0.769384       -20.9360
  34   2.0000      -0.707402       -19.2494
  35   2.0000      -0.701089       -19.0776
  36   2.0000      -0.693149       -18.8616
  37   2.0000      -0.662821       -18.0363
  38   2.0000      -0.650950       -17.7133
  39   2.0000      -0.616357       -16.7719
  40   2.0000      -0.598069       -16.2743
  41   2.0000      -0.572489       -15.5782
  42   2.0000      -0.564389       -15.3578
  43   2.0000      -0.555674       -15.1207
  44   2.0000      -0.534112       -14.5339
  45   2.0000      -0.526393       -14.3239
  46   2.0000      -0.519139       -14.1265
  47   2.0000      -0.515182       -14.0188
  48   2.0000      -0.508147       -13.8274
  49   2.0000      -0.497879       -13.5480
  50   2.0000      -0.496561       -13.5121
  51   2.0000      -0.488663       -13.2972
  52   2.0000      -0.478241       -13.0136
  53   2.0000      -0.471932       -12.8419
  54   2.0000      -0.463110       -12.6019
  55   2.0000      -0.444055       -12.0833
  56   2.0000      -0.441388       -12.0108
  57   2.0000      -0.431551       -11.7431
  58   2.0000      -0.424823       -11.5600
  59   2.0000      -0.420802       -11.4506
  60   2.0000      -0.419194       -11.4068
  61   2.0000      -0.404637       -11.0107
  62   2.0000      -0.402266       -10.9462
  63   2.0000      -0.350107        -9.5269
  64   2.0000      -0.332761        -9.0549
  65   2.0000      -0.323758        -8.8099
  66   2.0000      -0.293728        -7.9927
  67   0.0000       0.030626         0.8334
  68   0.0000       0.056467         1.5366
  69   0.0000       0.109394         2.9768
  70   0.0000       0.116974         3.1830
  71   0.0000       0.125709         3.4207

MULLIKEN ATOMIC CHARGES
-----------------------
   0 S :    0.094655
   1 C :   -0.094312
   2 C :   -0.097885
   3 C :    0.073337
   4 C :   -0.165893
   5 H :    0.009871
   6 C :    0.050627
   7 H :    0.017337
   8 H :    0.040085
   9 C :   -0.105279
  10 H :    0.032320
  11 H :    0.025667
  12 C :   -0.033714
  13 H :    0.018619
  14 H :    0.036434
  15 H :    0.019529
  16 S :    0.097029
  17 C :   -0.092269
  18 C :   -0.029251
  19 C :   -0.006195
  20 C :   -0.150829
  21 H :    0.005611
  22 C :    0.028419
  23 H :    0.022515
  24 H :    0.045862
  25 C :   -0.064652
  26 H :    0.030808
  27 H :    0.012158
  28 C :   -0.042408
  29 H :    0.035263
  30 H :    0.008546
  31 H :    0.051726
  32 H :    0.058132
  33 H :    0.068138
Sum of atomic charges:    0.0000000

LOEWDIN ATOMIC CHARGES
----------------------
   0 S :    0.386007
   1 C :   -0.202974
   2 C :   -0.060306
   3 C :   -0.046663
   4 C :   -0.171795
   5 H :    0.032026
   6 C :   -0.040195
   7 H :    0.030291
   8 H :    0.030342
   9 C :   -0.044050
  10 H :    0.023856
  11 H :    0.019688
  12 C :   -0.072781
  13 H :    0.025592
  14 H :    0.019307
  15 H :    0.029098
  16 S :    0.404740
  17 C :   -0.193044
  18 C :   -0.069852
  19 C :   -0.052497
  20 C :   -0.186824
  21 H :    0.022650
  22 C :   -0.036290
  23 H :    0.030630
  24 H :    0.036510
  25 C :   -0.045786
  26 H :    0.026924
  27 H :    0.017935
  28 C :   -0.071969
  29 H :    0.029998
  30 H :    0.016409
  31 H :    0.042919
  32 H :    0.035537
  33 H :    0.034570

  Mayer bond orders larger than 0.100000
B(  0-S ,  1-C ) :   1.1322 B(  0-S ,  4-C ) :   1.1146 B(  1-C ,  2-C ) :   1.6224
B(  1-C , 32-H ) :   0.9787 B(  2-C ,  3-C ) :   1.1676 B(  2-C ,  6-C ) :   1.0277
B(  3-C ,  4-C ) :   1.6191 B(  3-C ,  5-H ) :   1.0093 B(  4-C , 20-C ) :   1.0281
B(  6-C ,  7-H ) :   0.9467 B(  6-C ,  8-H ) :   0.9455 B(  6-C ,  9-C ) :   1.0525
B(  9-C , 10-H ) :   0.9596 B(  9-C , 11-H ) :   0.9579 B(  9-C , 12-C ) :   1.0890
B( 12-C , 13-H ) :   0.9692 B( 12-C , 14-H ) :   0.9777 B( 12-C , 15-H ) :   0.9689
B( 16-S , 17-C ) :   1.1631 B( 16-S , 20-C ) :   1.1349 B( 17-C , 18-C ) :   1.6171
B( 17-C , 33-H ) :   0.9641 B( 18-C , 19-C ) :   1.2052 B( 18-C , 21-H ) :   0.9982
B( 19-C , 20-C ) :   1.6358 B( 19-C , 22-C ) :   1.0348 B( 22-C , 23-H ) :   0.9364
B( 22-C , 24-H ) :   0.9413 B( 22-C , 25-C ) :   1.0474 B( 25-C , 26-H ) :   0.9572
B( 25-C , 27-H ) :   0.9544 B( 25-C , 28-C ) :   1.0845 B( 28-C , 29-H ) :   0.9711
B( 28-C , 30-H ) :   0.9708 B( 28-C , 31-H ) :   0.9706

Dispersion correction           -0.014113379
FINAL SINGLE POINT ENERGY     -1339.841829261910

DIPOLE MOMENT
-------------
                                X             Y             Z
Electronic contribution:    -29.31502     -10.34937      13.67906
Nuclear contribution   :     29.88819      10.72066     -13.96483
                        -----------------------------------------
Total Dipole Moment    :      0.57317       0.37129      -0.28577
                        -----------------------------------------
Magnitude (a.u.)       :      0.74030
Magnitude (Debye)      :      1.88169

Rotational constants in cm-1:     0.016606     0.009581     0.006554
Rotational constants in MHz :   497.826474   287.237726   196.473380

                             ****ORCA TERMINATED NORMALLY****
TOTAL RUN TIME: 0 days 0 hours 0 minutes 30 seconds 142 msec
