                         Program Version 4.2.1 -  RELEASE  -
|  1> ! wB97X-D3 SP def2-SVP
|  2> %pal
|  3> nprocs 16
|  4> end
|  5>
|  6> * xyz 0 1
|  7> S 	 -84.2276 	 52.0267 	 135.951
|  8> C 	 -84.8347 	 53.0726 	 137.188
|  9> C 	 -83.7515 	 53.6947 	 137.863
| 10> C 	 -82.5524 	 53.5021 	 137.148
| 11> C 	 -82.6677 	 52.8387 	 135.918
| 12> H 	 -81.6464 	 53.8472 	 137.572
| 13> C 	 -83.8094 	 54.5172 	 139.101
| 14> H 	 -83.2873 	 54.0894 	 139.925
| 15> H 	 -84.871 	 54.4989 	 139.486
| 16> C 	 -83.5343 	 55.9701 	 139.045
| 17> H 	 -82.5025 	 56.0828 	 138.8
| 18> H 	 -84.1193 	 56.5147 	 138.337
| 19> C 	 -83.6482 	 56.6479 	 140.462
| 20> H 	 -82.8543 	 56.2958 	 141.183
| 21> H 	 -83.4563 	 57.7373 	 140.307
| 22> H 	 -84.6408 	 56.492 	 140.916
| 23> S 	 -81.5566 	 53.9871 	 133.787
| 24> C 	 -80.2279 	 53.2219 	 132.867
| 25> C 	 -79.8491 	 52 	 133.49
| 26> C 	 -80.7035 	 51.7102 	 134.577
| 27> C 	 -81.6922 	 52.6376 	 134.845
| 28> H 	 -79.0317 	 51.3783 	 133.139
| 29> C 	 -80.4461 	 50.46 	 135.323
| 30> H 	 -80.2306 	 49.7581 	 134.555
| 31> H 	 -81.3082 	 50.1023 	 135.901
| 32> C 	 -79.2772 	 50.6507 	 136.333
| 33> H 	 -78.3699 	 51.0502 	 135.79
| 34> H 	 -78.9314 	 49.6861 	 136.641
| 35> C 	 -79.5973 	 51.6158 	 137.46
| 36> H 	 -78.682 	 51.9022 	 137.975
| 37> H 	 -80.2802 	 51.0986 	 138.104
| 38> H 	 -79.9917 	 52.5254 	 136.953
| 39> H 	 -85.8745 	 52.9637 	 137.624
| 40> H 	 -79.5446 	 53.7688 	 132.223
| 41> *
| 42>
| 43>                          ****END OF INPUT****

CARTESIAN COORDINATES (ANGSTROEM)
---------------------------------
  S    -84.227600   52.026700  135.951000
  C    -84.834700   53.072600  137.188000
  C    -83.751500   53.694700  137.863000
  C    -82.552400   53.502100  137.148000
  C    -82.667700   52.838700  135.918000
  H    -81.646400   53.847200  137.572000
  C    -83.809400   54.517200  139.101000
  H    -83.287300   54.089400  139.925000
  H    -84.871000   54.498900  139.486000
  C    -83.534300   55.970100  139.045000
  H    -82.502500   56.082800  138.800000
  H    -84.119300   56.514700  138.337000
  C    -83.648200   56.647900  140.462000
  H    -82.854300   56.295800  141.183000
  H    -83.456300   57.737300  140.307000
  H    -84.640800   56.492000  140.916000
  S    -81.556600   53.987100  133.787000
  C    -80.227900   53.221900  132.867000
  C    -79.849100   52.000000  133.490000
  C    -80.703500   51.710200  134.577000
  C    -81.692200   52.637600  134.845000
  H    -79.031700   51.378300  133.139000
  C    -80.446100   50.460000  135.323000
  H    -80.230600   49.758100  134.555000
  H    -81.308200   50.102300  135.901000
  C    -79.277200   50.650700  136.333000
  H    -78.369900   51.050200  135.790000
  H    -78.931400   49.686100  136.641000
  C    -79.597300   51.615800  137.460000
  H    -78.682000   51.902200  137.975000
  H    -80.280200   51.098600  138.104000
  H    -79.991700   52.525400  136.953000
  H    -85.874500   52.963700  137.624000
  H    -79.544600   53.768800  132.223000

 Total Charge           Charge          ....    0
 Multiplicity           Mult            ....    1
 Number of Electrons    NEL             ....  134
 Basis Dimension        Dim             ....  322

ORBITAL ENERGIES
----------------

  NO   OCC          E(Eh)            E(eV)
   0   2.0000     -88.965712     -2420.8801
   1   2.0000     -88.965634     -2420.8780
   2   2.0000     -10.332501      -281.1617
   3   2.0000     -10.324411      -280.9415
   4   2.0000     -10.323848      -280.9262
   5   2.0000     -10.321411      -280.8599
   6   2.0000     -10.301021      -280.3050
   7   2.0000     -10.298999      -280.2500
   8   2.0000     -10.298429      -280.2345
   9   2.0000     -10.293288      -280.0946
  10   2.0000     -10.288731      -279.9706
  11   2.0000     -10.287481      -279.9366
  12   2.0000     -10.284405      -279.8529
  13   2.0000     -10.284275      -279.8493
  14   2.0000     -10.280619      -279.7499
  15   2.0000     -10.273887      -279.5667
  16   2.0000      -8.080455      -219.8803
  17   2.0000      -8.080246      -219.8747
  18   2.0000      -6.038832      -164.3250
  19   2.0000      -6.038736      -164.3224
  20   2.0000      -6.035087      -164.2231
  21   2.0000      -6.034576      -164.2091
  22   2.0000      -6.031213      -164.1177
  23   2.0000      -6.031200      -164.1173
  24   2.0000      -1.007188       -27.4070
  25   2.0000      -0.985530       -26.8176
  26   2.0000      -0.918207       -24.9857
  27   2.0000      -0.911920       -24.8146
  28   2.0000      -0.868155       -23.6237
  29   2.0000      -0.850292       -23.1376
  30   2.0000      -0.845050       -22.9950
  31   2.0000      -0.811584       -22.0843
  32   2.0000      -0.780075       -21.2269
  33   2.0000      -0.768123       -20.9017
  34   2.0000      -0.706307       -19.2196
  35   2.0000      -0.695732       -18.9318
  36   2.0000      -0.688197       -18.7268
  37   2.0000      -0.669052       -18.2058
  38   2.0000      -0.640617       -17.4321
  39   2.0000      -0.626662       -17.0523
  40   2.0000      -0.596256       -16.2249
  41   2.0000      -0.576568       -15.6892
  42   2.0000      -0.564607       -15.3637
  43   2.0000      -0.556193       -15.1348
  44   2.0000      -0.543167       -14.7803
  45   2.0000      -0.525536       -14.3006
  46   2.0000      -0.520675       -14.1683
  47   2.0000      -0.513058       -13.9610
  48   2.0000      -0.501010       -13.6332
  49   2.0000      -0.491052       -13.3622
  50   2.0000      -0.488643       -13.2966
  51   2.0000      -0.476135       -12.9563
  52   2.0000      -0.465732       -12.6732
  53   2.0000      -0.465130       -12.6568
  54   2.0000      -0.458323       -12.4716
  55   2.0000      -0.448155       -12.1949
  56   2.0000      -0.443983       -12.0814
  57   2.0000      -0.441913       -12.0251
  58   2.0000      -0.437120       -11.8946
  59   2.0000      -0.423242       -11.5170
  60   2.0000      -0.416231       -11.3262
  61   2.0000      -0.413864       -11.2618
  62   2.0000      -0.409831       -11.1521
  63   2.0000      -0.334799        -9.1103
  64   2.0000      -0.327952        -8.9240
  65   2.0000      -0.317872        -8.6497
  66   2.0000      -0.306056        -8.3282
  67   0.0000       0.034575         0.9408
  68   0.0000       0.044391         1.2079
  69   0.0000       0.100682         2.7397
  70   0.0000       0.122351         3.3293
  71   0.0000       0.123085         3.3493

MULLIKEN ATOMIC CHARGES
-----------------------
   0 S :    0.120960
   1 C :   -0.131498
   2 C :   -0.090762
   3 C :    0.077644
   4 C :   -0.179139
   5 H :    0.000737
   6 C :    0.055967
   7 H :    0.022318
   8 H :    0.005929
   9 C :   -0.039857
  10 H :    0.014753
  11 H :    0.030454
  12 C :   -0.102096
  13 H :    0.041794
  14 H :    0.045156
  15 H :    0.039266
  16 S :    0.111934
  17 C :   -0.094066
  18 C :   -0.054742
  19 C :   -0.038577
  20 C :   -0.169214
  21 H :    0.030404
  22 C :    0.091061
  23 H :    0.018334
  24 H :    0.021437
  25 C :   -0.090545
  26 H :    0.016649
  27 H :    0.017678
  28 C :   -0.029116
  29 H :    0.033486
  30 H :    0.034919
  31 H :    0.047113
  32 H :    0.074410
  33 H :    0.067209
Sum of atomic charges:   -0.0000000

LOEWDIN ATOMIC CHARGES
----------------------
   0 S :    0.419024
   1 C :   -0.208898
   2 C :   -0.068580
   3 C :   -0.047310
   4 C :   -0.205116
   5 H :    0.021839
   6 C :   -0.042871
   7 H :    0.030211
   8 H :    0.033124
   9 C :   -0.034718
  10 H :    0.017816
  11 H :    0.023039
  12 C :   -0.070467
  13 H :    0.029602
  14 H :    0.031966
  15 H :    0.022635
  16 S :    0.422695
  17 C :   -0.181446
  18 C :   -0.064162
  19 C :   -0.061050
  20 C :   -0.221217
  21 H :    0.034905
  22 C :   -0.029315
  23 H :    0.028163
  24 H :    0.028823
  25 C :   -0.038071
  26 H :    0.022250
  27 H :    0.014519
  28 C :   -0.060858
  29 H :    0.027026
  30 H :    0.023212
  31 H :    0.033062
  32 H :    0.040531
  33 H :    0.029637

  Mayer bond orders larger than 0.100000
B(  0-S ,  1-C ) :   1.1737 B(  0-S ,  4-C ) :   1.1599 B(  1-C ,  2-C ) :   1.5480
B(  1-C ,  4-C ) :   0.1187 B(  1-C , 32-H ) :   0.9573 B(  2-C ,  3-C ) :   1.2930
B(  2-C ,  6-C ) :   1.0372 B(  3-C ,  4-C ) :   1.5238 B(  3-C ,  5-H ) :   1.0005
B(  4-C , 20-C ) :   1.0106 B(  6-C ,  7-H ) :   0.9320 B(  6-C ,  8-H ) :   0.9345
B(  6-C ,  9-C ) :   1.0781 B(  9-C , 10-H ) :   0.9487 B(  9-C , 11-H ) :   0.9556
B(  9-C , 12-C ) :   1.0778 B( 12-C , 13-H ) :   0.9747 B( 12-C , 14-H ) :   0.9753
B( 12-C , 15-H ) :   0.9767 B( 16-S , 17-C ) :   1.1721 B( 16-S , 20-C ) :   1.1551
B( 17-C , 18-C ) :   1.5707 B( 17-C , 20-C ) :   0.1071 B( 17-C , 33-H ) :   0.9637
B( 18-C , 19-C ) :   1.2708 B( 18-C , 21-H ) :   0.9858 B( 19-C , 20-C ) :   1.5759
B( 19-C , 22-C ) :   1.0493 B( 22-C , 23-H ) :   0.9273 B( 22-C , 24-H ) :   0.9363
B( 22-C , 25-C ) :   1.0682 B( 25-C , 26-H ) :   0.9563 B( 25-C , 27-H ) :   0.9573
B( 25-C , 28-C ) :   1.0714 B( 28-C , 29-H ) :   0.9682 B( 28-C , 30-H ) :   0.9759
B( 28-C , 31-H ) :   0.9689

Dispersion correction           -0.015176318
FINAL SINGLE POINT ENERGY     -1339.862457534427

DIPOLE MOMENT
-------------
                                X             Y             Z
Electronic contribution:     -7.85282      -4.61335     -22.13880
Nuclear contribution   :      8.30994       4.57576      22.66519
                        -----------------------------------------
Total Dipole Moment    :      0.45712      -0.03759       0.52639
                        -----------------------------------------
Magnitude (a.u.)       :      0.69819
Magnitude (Debye)      :      1.77465

Rotational constants in cm-1:     0.020522     0.007897     0.007580
Rotational constants in MHz :   615.227879   236.749004   227.238093

                             ****ORCA TERMINATED NORMALLY****
TOTAL RUN TIME: 0 days 0 hours 0 minutes 35 seconds 978 msec
