                         Program Version 4.2.1 -  RELEASE  -
|  1> ! wB97X-D3 SP def2-SVP
|  2> %pal
|  3> nprocs 16
|  4> end
|  5>
|  6> * xyz 0 1
|  7> S 	 -37.1264 	 59.8451 	 103.234
|  8> C 	 -38.5927 	 58.9727 	 103.287
|  9> C 	 -38.4663 	 57.8688 	 104.12
| 10> C 	 -37.2327 	 57.8186 	 104.832
| 11> C 	 -36.3611 	 58.8394 	 104.472
| 12> H 	 -37.0234 	 57.051 	 105.599
| 13> C 	 -39.5495 	 56.7676 	 104.253
| 14> H 	 -40.3387 	 57.0339 	 103.577
| 15> H 	 -40.0469 	 56.7569 	 105.206
| 16> C 	 -39.0618 	 55.3667 	 103.911
| 17> H 	 -38.4818 	 54.963 	 104.746
| 18> H 	 -39.9678 	 54.7669 	 103.762
| 19> C 	 -38.1138 	 55.2156 	 102.724
| 20> H 	 -37.1384 	 55.6226 	 102.931
| 21> H 	 -38.1053 	 54.1756 	 102.509
| 22> H 	 -38.5082 	 55.6321 	 101.795
| 23> S 	 -34.5937 	 58.8191 	 106.607
| 24> C 	 -32.8504 	 59.0037 	 106.25
| 25> C 	 -32.6338 	 59.0241 	 104.859
| 26> C 	 -33.8395 	 58.9384 	 104.074
| 27> C 	 -34.9614 	 58.9634 	 104.85
| 28> H 	 -31.6188 	 59.0162 	 104.44
| 29> C 	 -33.8359 	 58.9724 	 102.583
| 30> H 	 -32.883 	 59.241 	 102.209
| 31> H 	 -34.5149 	 59.817 	 102.357
| 32> C 	 -34.2141 	 57.6601 	 101.847
| 33> H 	 -35.3407 	 57.615 	 101.926
| 34> H 	 -33.8259 	 56.8971 	 102.455
| 35> C 	 -33.7113 	 57.6403 	 100.399
| 36> H 	 -32.6608 	 57.4366 	 100.334
| 37> H 	 -33.9628 	 58.5607 	 99.9314
| 38> H 	 -34.2561 	 56.8451 	 99.9227
| 39> H 	 -39.3648 	 59.1859 	 102.541
| 40> H 	 -32.0524 	 58.8484 	 106.994
| 41> *
| 42>
| 43>                          ****END OF INPUT****

CARTESIAN COORDINATES (ANGSTROEM)
---------------------------------
  S    -37.126400   59.845100  103.234000
  C    -38.592700   58.972700  103.287000
  C    -38.466300   57.868800  104.120000
  C    -37.232700   57.818600  104.832000
  C    -36.361100   58.839400  104.472000
  H    -37.023400   57.051000  105.599000
  C    -39.549500   56.767600  104.253000
  H    -40.338700   57.033900  103.577000
  H    -40.046900   56.756900  105.206000
  C    -39.061800   55.366700  103.911000
  H    -38.481800   54.963000  104.746000
  H    -39.967800   54.766900  103.762000
  C    -38.113800   55.215600  102.724000
  H    -37.138400   55.622600  102.931000
  H    -38.105300   54.175600  102.509000
  H    -38.508200   55.632100  101.795000
  S    -34.593700   58.819100  106.607000
  C    -32.850400   59.003700  106.250000
  C    -32.633800   59.024100  104.859000
  C    -33.839500   58.938400  104.074000
  C    -34.961400   58.963400  104.850000
  H    -31.618800   59.016200  104.440000
  C    -33.835900   58.972400  102.583000
  H    -32.883000   59.241000  102.209000
  H    -34.514900   59.817000  102.357000
  C    -34.214100   57.660100  101.847000
  H    -35.340700   57.615000  101.926000
  H    -33.825900   56.897100  102.455000
  C    -33.711300   57.640300  100.399000
  H    -32.660800   57.436600  100.334000
  H    -33.962800   58.560700   99.931400
  H    -34.256100   56.845100   99.922700
  H    -39.364800   59.185900  102.541000
  H    -32.052400   58.848400  106.994000

 Total Charge           Charge          ....    0
 Multiplicity           Mult            ....    1
 Number of Electrons    NEL             ....  134
 Basis Dimension        Dim             ....  322

ORBITAL ENERGIES
----------------

  NO   OCC          E(Eh)            E(eV)
   0   2.0000     -88.967268     -2420.9225
   1   2.0000     -88.966094     -2420.8905
   2   2.0000     -10.332469      -281.1608
   3   2.0000     -10.326560      -281.0000
   4   2.0000     -10.325290      -280.9654
   5   2.0000     -10.315125      -280.6888
   6   2.0000     -10.302823      -280.3541
   7   2.0000     -10.300612      -280.2939
   8   2.0000     -10.300380      -280.2876
   9   2.0000     -10.298288      -280.2307
  10   2.0000     -10.287406      -279.9345
  11   2.0000     -10.284715      -279.8613
  12   2.0000     -10.283684      -279.8333
  13   2.0000     -10.282044      -279.7886
  14   2.0000     -10.272495      -279.5288
  15   2.0000     -10.269287      -279.4415
  16   2.0000      -8.082044      -219.9236
  17   2.0000      -8.079355      -219.8504
  18   2.0000      -6.040505      -164.3705
  19   2.0000      -6.038036      -164.3033
  20   2.0000      -6.036414      -164.2592
  21   2.0000      -6.034202      -164.1990
  22   2.0000      -6.032990      -164.1660
  23   2.0000      -6.029895      -164.0818
  24   2.0000      -1.005265       -27.3546
  25   2.0000      -0.979838       -26.6627
  26   2.0000      -0.910411       -24.7735
  27   2.0000      -0.907468       -24.6935
  28   2.0000      -0.868406       -23.6305
  29   2.0000      -0.852311       -23.1926
  30   2.0000      -0.844726       -22.9862
  31   2.0000      -0.811531       -22.0829
  32   2.0000      -0.785785       -21.3823
  33   2.0000      -0.773001       -21.0344
  34   2.0000      -0.708102       -19.2684
  35   2.0000      -0.694838       -18.9075
  36   2.0000      -0.685034       -18.6407
  37   2.0000      -0.667203       -18.1555
  38   2.0000      -0.639710       -17.4074
  39   2.0000      -0.618590       -16.8327
  40   2.0000      -0.592384       -16.1196
  41   2.0000      -0.567058       -15.4304
  42   2.0000      -0.563066       -15.3218
  43   2.0000      -0.552202       -15.0262
  44   2.0000      -0.545545       -14.8450
  45   2.0000      -0.525875       -14.3098
  46   2.0000      -0.519007       -14.1229
  47   2.0000      -0.514561       -14.0019
  48   2.0000      -0.504644       -13.7321
  49   2.0000      -0.495657       -13.4875
  50   2.0000      -0.490301       -13.3418
  51   2.0000      -0.475210       -12.9311
  52   2.0000      -0.473934       -12.8964
  53   2.0000      -0.470715       -12.8088
  54   2.0000      -0.458103       -12.4656
  55   2.0000      -0.448222       -12.1968
  56   2.0000      -0.445273       -12.1165
  57   2.0000      -0.436263       -11.8713
  58   2.0000      -0.431021       -11.7287
  59   2.0000      -0.424651       -11.5553
  60   2.0000      -0.415775       -11.3138
  61   2.0000      -0.415142       -11.2966
  62   2.0000      -0.409075       -11.1315
  63   2.0000      -0.348279        -9.4772
  64   2.0000      -0.330680        -8.9983
  65   2.0000      -0.329738        -8.9726
  66   2.0000      -0.291280        -7.9261
  67   0.0000       0.025333         0.6893
  68   0.0000       0.069896         1.9020
  69   0.0000       0.102721         2.7952
  70   0.0000       0.119892         3.2624
  71   0.0000       0.132260         3.5990

MULLIKEN ATOMIC CHARGES
-----------------------
   0 S :    0.099554
   1 C :   -0.127326
   2 C :   -0.124476
   3 C :    0.029067
   4 C :   -0.161357
   5 H :    0.029483
   6 C :    0.124767
   7 H :   -0.001092
   8 H :    0.033180
   9 C :   -0.123497
  10 H :    0.029908
  11 H :    0.033381
  12 C :   -0.014573
  13 H :    0.044173
  14 H :    0.022109
  15 H :    0.016405
  16 S :    0.090469
  17 C :   -0.100729
  18 C :   -0.037897
  19 C :   -0.045516
  20 C :   -0.146400
  21 H :    0.027125
  22 C :    0.068999
  23 H :   -0.007301
  24 H :    0.036558
  25 C :   -0.086805
  26 H :    0.047956
  27 H :    0.020229
  28 C :   -0.003988
  29 H :    0.033924
  30 H :    0.027594
  31 H :    0.030411
  32 H :    0.063767
  33 H :    0.071898
Sum of atomic charges:   -0.0000000

LOEWDIN ATOMIC CHARGES
----------------------
   0 S :    0.425180
   1 C :   -0.213733
   2 C :   -0.063531
   3 C :   -0.065886
   4 C :   -0.189130
   5 H :    0.037159
   6 C :   -0.029699
   7 H :    0.023609
   8 H :    0.030750
   9 C :   -0.043795
  10 H :    0.023211
  11 H :    0.027534
  12 C :   -0.061487
  13 H :    0.025102
  14 H :    0.024530
  15 H :    0.022336
  16 S :    0.369953
  17 C :   -0.179815
  18 C :   -0.067916
  19 C :   -0.057211
  20 C :   -0.181126
  21 H :    0.034080
  22 C :   -0.036441
  23 H :    0.019271
  24 H :    0.027456
  25 C :   -0.033996
  26 H :    0.028513
  27 H :    0.015884
  28 C :   -0.055083
  29 H :    0.024194
  30 H :    0.023221
  31 H :    0.028698
  32 H :    0.032886
  33 H :    0.035283

  Mayer bond orders larger than 0.100000
B(  0-S ,  1-C ) :   1.1530 B(  0-S ,  4-C ) :   1.1634 B(  1-C ,  2-C ) :   1.5930
B(  1-C , 32-H ) :   0.9645 B(  2-C ,  3-C ) :   1.2722 B(  2-C ,  6-C ) :   1.0204
B(  3-C ,  4-C ) :   1.5470 B(  3-C ,  5-H ) :   0.9867 B(  4-C , 20-C ) :   1.0345
B(  6-C ,  7-H ) :   0.9360 B(  6-C ,  8-H ) :   0.9405 B(  6-C ,  9-C ) :   1.0723
B(  9-C , 10-H ) :   0.9525 B(  9-C , 11-H ) :   0.9580 B(  9-C , 12-C ) :   1.0911
B( 12-C , 13-H ) :   0.9665 B( 12-C , 14-H ) :   0.9688 B( 12-C , 15-H ) :   0.9743
B( 16-S , 17-C ) :   1.1380 B( 16-S , 20-C ) :   1.1174 B( 17-C , 18-C ) :   1.6197
B( 17-C , 33-H ) :   0.9630 B( 18-C , 19-C ) :   1.2301 B( 18-C , 21-H ) :   0.9824
B( 19-C , 20-C ) :   1.6096 B( 19-C , 22-C ) :   1.0433 B( 22-C , 23-H ) :   0.9299
B( 22-C , 24-H ) :   0.9294 B( 22-C , 25-C ) :   1.0456 B( 25-C , 26-H ) :   0.9497
B( 25-C , 27-H ) :   0.9603 B( 25-C , 28-C ) :   1.0877 B( 28-C , 29-H ) :   0.9738
B( 28-C , 30-H ) :   0.9729 B( 28-C , 31-H ) :   0.9728

Dispersion correction           -0.015789222
FINAL SINGLE POINT ENERGY     -1339.888352882894

DIPOLE MOMENT
-------------
                                X             Y             Z
Electronic contribution:      2.91234      17.14235      17.08594
Nuclear contribution   :     -2.89569     -17.70374     -17.49683
                        -----------------------------------------
Total Dipole Moment    :      0.01665      -0.56139      -0.41088
                        -----------------------------------------
Magnitude (a.u.)       :      0.69589
Magnitude (Debye)      :      1.76882

Rotational constants in cm-1:     0.017374     0.009961     0.008235
Rotational constants in MHz :   520.871428   298.629536   246.877160

                             ****ORCA TERMINATED NORMALLY****
TOTAL RUN TIME: 0 days 0 hours 0 minutes 34 seconds 893 msec
