                         Program Version 4.2.1 -  RELEASE  -
|  1> ! wB97X-D3 SP def2-SVP
|  2> %pal
|  3> nprocs 16
|  4> end
|  5>
|  6> * xyz 0 1
|  7> S 	 6.48204 	 -3.01588 	 90.9477
|  8> C 	 7.46501 	 -1.76986 	 91.6079
|  9> C 	 7.74727 	 -0.856392 	 90.619
| 10> C 	 7.31241 	 -1.20805 	 89.2949
| 11> C 	 6.58045 	 -2.36532 	 89.2994
| 12> H 	 7.35217 	 -0.701089 	 88.4019
| 13> C 	 8.37662 	 0.435155 	 90.8983
| 14> H 	 8.33203 	 0.700308 	 91.9767
| 15> H 	 7.93479 	 1.23354 	 90.2992
| 16> C 	 9.91354 	 0.461106 	 90.7104
| 17> H 	 10.2713 	 -0.408164 	 91.2652
| 18> H 	 9.90971 	 0.22642 	 89.6235
| 19> C 	 10.7508 	 1.69204 	 91.0323
| 20> H 	 10.3955 	 2.59095 	 90.6104
| 21> H 	 10.858 	 1.75894 	 92.1549
| 22> H 	 11.7494 	 1.46762 	 90.6672
| 23> S 	 6.85245 	 -4.8062 	 88.0502
| 24> C 	 6.22645 	 -4.94052 	 86.412
| 25> C 	 5.60399 	 -3.77421 	 85.9724
| 26> C 	 5.4018 	 -2.84758 	 87.0723
| 27> C 	 6.13296 	 -3.19662 	 88.1824
| 28> H 	 5.23722 	 -3.70343 	 84.9722
| 29> C 	 4.64346 	 -1.54476 	 86.8811
| 30> H 	 4.55383 	 -1.31122 	 85.8058
| 31> H 	 5.15641 	 -0.711686 	 87.3665
| 32> C 	 3.29777 	 -1.57196 	 87.6618
| 33> H 	 3.4661 	 -2.06714 	 88.5902
| 34> H 	 2.45105 	 -2.16606 	 87.2161
| 35> C 	 2.7875 	 -0.175711 	 87.8509
| 36> H 	 1.89863 	 -0.130222 	 88.5074
| 37> H 	 2.45992 	 0.327372 	 86.8507
| 38> H 	 3.49863 	 0.400922 	 88.3374
| 39> H 	 7.60587 	 -1.45625 	 92.6521
| 40> H 	 6.18361 	 -5.86722 	 85.8512
| 41> *
| 42>
| 43>                          ****END OF INPUT****

CARTESIAN COORDINATES (ANGSTROEM)
---------------------------------
  S      6.482040   -3.015880   90.947700
  C      7.465010   -1.769860   91.607900
  C      7.747270   -0.856392   90.619000
  C      7.312410   -1.208050   89.294900
  C      6.580450   -2.365320   89.299400
  H      7.352170   -0.701089   88.401900
  C      8.376620    0.435155   90.898300
  H      8.332030    0.700308   91.976700
  H      7.934790    1.233540   90.299200
  C      9.913540    0.461106   90.710400
  H     10.271300   -0.408164   91.265200
  H      9.909710    0.226420   89.623500
  C     10.750800    1.692040   91.032300
  H     10.395500    2.590950   90.610400
  H     10.858000    1.758940   92.154900
  H     11.749400    1.467620   90.667200
  S      6.852450   -4.806200   88.050200
  C      6.226450   -4.940520   86.412000
  C      5.603990   -3.774210   85.972400
  C      5.401800   -2.847580   87.072300
  C      6.132960   -3.196620   88.182400
  H      5.237220   -3.703430   84.972200
  C      4.643460   -1.544760   86.881100
  H      4.553830   -1.311220   85.805800
  H      5.156410   -0.711686   87.366500
  C      3.297770   -1.571960   87.661800
  H      3.466100   -2.067140   88.590200
  H      2.451050   -2.166060   87.216100
  C      2.787500   -0.175711   87.850900
  H      1.898630   -0.130222   88.507400
  H      2.459920    0.327372   86.850700
  H      3.498630    0.400922   88.337400
  H      7.605870   -1.456250   92.652100
  H      6.183610   -5.867220   85.851200

 Total Charge           Charge          ....    0
 Multiplicity           Mult            ....    1
 Number of Electrons    NEL             ....  134
 Basis Dimension        Dim             ....  322

ORBITAL ENERGIES
----------------

  NO   OCC          E(Eh)            E(eV)
   0   2.0000     -88.966792     -2420.9095
   1   2.0000     -88.964824     -2420.8559
   2   2.0000     -10.331395      -281.1316
   3   2.0000     -10.326424      -280.9963
   4   2.0000     -10.319565      -280.8096
   5   2.0000     -10.312901      -280.6283
   6   2.0000     -10.306401      -280.4514
   7   2.0000     -10.298629      -280.2399
   8   2.0000     -10.297254      -280.2025
   9   2.0000     -10.296054      -280.1699
  10   2.0000     -10.292218      -280.0655
  11   2.0000     -10.286070      -279.8982
  12   2.0000     -10.283580      -279.8304
  13   2.0000     -10.283319      -279.8233
  14   2.0000     -10.281069      -279.7621
  15   2.0000     -10.276517      -279.6382
  16   2.0000      -8.081118      -219.8984
  17   2.0000      -8.079681      -219.8593
  18   2.0000      -6.039676      -164.3479
  19   2.0000      -6.038227      -164.3085
  20   2.0000      -6.035750      -164.2411
  21   2.0000      -6.034040      -164.1946
  22   2.0000      -6.031754      -164.1324
  23   2.0000      -6.030512      -164.0986
  24   2.0000      -1.008669       -27.4473
  25   2.0000      -0.984848       -26.7991
  26   2.0000      -0.913427       -24.8556
  27   2.0000      -0.910660       -24.7803
  28   2.0000      -0.871056       -23.7026
  29   2.0000      -0.854539       -23.2532
  30   2.0000      -0.848569       -23.0907
  31   2.0000      -0.820587       -22.3293
  32   2.0000      -0.781439       -21.2640
  33   2.0000      -0.768983       -20.9251
  34   2.0000      -0.705355       -19.1937
  35   2.0000      -0.693084       -18.8598
  36   2.0000      -0.690474       -18.7887
  37   2.0000      -0.666175       -18.1276
  38   2.0000      -0.648409       -17.6441
  39   2.0000      -0.621046       -16.8995
  40   2.0000      -0.596862       -16.2414
  41   2.0000      -0.576078       -15.6759
  42   2.0000      -0.568719       -15.4756
  43   2.0000      -0.557719       -15.1763
  44   2.0000      -0.527031       -14.3412
  45   2.0000      -0.522631       -14.2215
  46   2.0000      -0.519980       -14.1494
  47   2.0000      -0.511231       -13.9113
  48   2.0000      -0.506017       -13.7694
  49   2.0000      -0.501449       -13.6451
  50   2.0000      -0.500187       -13.6108
  51   2.0000      -0.482724       -13.1356
  52   2.0000      -0.474009       -12.8984
  53   2.0000      -0.462387       -12.5822
  54   2.0000      -0.461445       -12.5566
  55   2.0000      -0.451066       -12.2741
  56   2.0000      -0.445954       -12.1350
  57   2.0000      -0.435942       -11.8626
  58   2.0000      -0.432524       -11.7696
  59   2.0000      -0.423206       -11.5160
  60   2.0000      -0.419889       -11.4258
  61   2.0000      -0.416901       -11.3445
  62   2.0000      -0.398663       -10.8482
  63   2.0000      -0.348182        -9.4745
  64   2.0000      -0.331324        -9.0158
  65   2.0000      -0.323648        -8.8069
  66   2.0000      -0.296799        -8.0763
  67   0.0000       0.029203         0.7946
  68   0.0000       0.064629         1.7586
  69   0.0000       0.108947         2.9646
  70   0.0000       0.111815         3.0426
  71   0.0000       0.134222         3.6524

MULLIKEN ATOMIC CHARGES
-----------------------
   0 S :    0.102290
   1 C :   -0.094682
   2 C :   -0.106077
   3 C :    0.094953
   4 C :   -0.185570
   5 H :   -0.014381
   6 C :    0.051109
   7 H :    0.007265
   8 H :    0.024606
   9 C :   -0.123348
  10 H :    0.025791
  11 H :    0.018835
  12 C :    0.003290
  13 H :    0.027808
  14 H :    0.034610
  15 H :    0.037900
  16 S :    0.118374
  17 C :   -0.100271
  18 C :   -0.026741
  19 C :   -0.048345
  20 C :   -0.133217
  21 H :    0.016653
  22 C :    0.078724
  23 H :    0.029895
  24 H :    0.011352
  25 C :   -0.071951
  26 H :    0.029052
  27 H :    0.033820
  28 C :   -0.055196
  29 H :    0.032347
  30 H :    0.040334
  31 H :    0.018610
  32 H :    0.059444
  33 H :    0.062717
Sum of atomic charges:    0.0000000

LOEWDIN ATOMIC CHARGES
----------------------
   0 S :    0.404233
   1 C :   -0.210649
   2 C :   -0.064516
   3 C :   -0.047675
   4 C :   -0.179611
   5 H :    0.020478
   6 C :   -0.040807
   7 H :    0.025161
   8 H :    0.027078
   9 C :   -0.047088
  10 H :    0.023119
  11 H :    0.020595
  12 C :   -0.060924
  13 H :    0.018531
  14 H :    0.032091
  15 H :    0.033054
  16 S :    0.399261
  17 C :   -0.179883
  18 C :   -0.065397
  19 C :   -0.051604
  20 C :   -0.202862
  21 H :    0.028504
  22 C :   -0.027765
  23 H :    0.032175
  24 H :    0.028667
  25 C :   -0.040920
  26 H :    0.022361
  27 H :    0.029058
  28 C :   -0.068564
  29 H :    0.028557
  30 H :    0.034630
  31 H :    0.011124
  32 H :    0.039657
  33 H :    0.029932

  Mayer bond orders larger than 0.100000
B(  0-S ,  1-C ) :   1.1318 B(  0-S ,  4-C ) :   1.1518 B(  1-C ,  2-C ) :   1.6172
B(  1-C , 32-H ) :   0.9595 B(  2-C ,  3-C ) :   1.2072 B(  2-C ,  6-C ) :   1.0547
B(  3-C ,  4-C ) :   1.5910 B(  3-C ,  5-H ) :   1.0037 B(  4-C , 20-C ) :   1.0094
B(  6-C ,  7-H ) :   0.9370 B(  6-C ,  8-H ) :   0.9397 B(  6-C ,  9-C ) :   1.0457
B(  9-C , 10-H ) :   0.9561 B(  9-C , 11-H ) :   0.9604 B(  9-C , 12-C ) :   1.0839
B( 12-C , 13-H ) :   0.9736 B( 12-C , 14-H ) :   0.9715 B( 12-C , 15-H ) :   0.9693
B( 16-S , 17-C ) :   1.1510 B( 16-S , 20-C ) :   1.1260 B( 17-C , 18-C ) :   1.6210
B( 17-C , 33-H ) :   0.9658 B( 18-C , 19-C ) :   1.2275 B( 18-C , 21-H ) :   0.9913
B( 19-C , 20-C ) :   1.6116 B( 19-C , 22-C ) :   1.0518 B( 22-C , 23-H ) :   0.9363
B( 22-C , 24-H ) :   0.9371 B( 22-C , 25-C ) :   1.0424 B( 25-C , 26-H ) :   0.9591
B( 25-C , 27-H ) :   0.9509 B( 25-C , 28-C ) :   1.0944 B( 28-C , 29-H ) :   0.9705
B( 28-C , 30-H ) :   0.9711 B( 28-C , 31-H ) :   0.9734

Dispersion correction           -0.013924087
FINAL SINGLE POINT ENERGY     -1339.867059244572

DIPOLE MOMENT
-------------
                                X             Y             Z
Electronic contribution:     -0.33729     -25.45230       0.62774
Nuclear contribution   :      0.28301      26.02127      -0.89809
                        -----------------------------------------
Total Dipole Moment    :     -0.05427       0.56897      -0.27035
                        -----------------------------------------
Magnitude (a.u.)       :      0.63227
Magnitude (Debye)      :      1.60710

Rotational constants in cm-1:     0.018339     0.008020     0.006903
Rotational constants in MHz :   549.788262   240.424077   206.946556

                             ****ORCA TERMINATED NORMALLY****
TOTAL RUN TIME: 0 days 0 hours 0 minutes 31 seconds 395 msec
