                         Program Version 4.2.1 -  RELEASE  -
|  1> ! wB97X-D3 SP def2-SVP
|  2> %pal
|  3> nprocs 16
|  4> end
|  5>
|  6> * xyz 0 1
|  7> S 	 -82.9879 	 48.583 	 137.025
|  8> C 	 -83.4207 	 47.0392 	 137.809
|  9> C 	 -82.6439 	 46.8622 	 138.956
| 10> C 	 -81.6756 	 47.9136 	 139.152
| 11> C 	 -81.7042 	 48.7934 	 138.138
| 12> H 	 -80.9596 	 48.1066 	 140.01
| 13> C 	 -82.639 	 45.7551 	 139.976
| 14> H 	 -81.9463 	 45.9462 	 140.851
| 15> H 	 -82.3519 	 44.8288 	 139.454
| 16> C 	 -84.053 	 45.5048 	 140.571
| 17> H 	 -84.9083 	 45.655 	 139.829
| 18> H 	 -84.0728 	 44.4568 	 140.529
| 19> C 	 -84.2932 	 46.3436 	 141.815
| 20> H 	 -84.4963 	 47.4281 	 141.531
| 21> H 	 -85.1478 	 45.9324 	 142.414
| 22> H 	 -83.3792 	 46.4515 	 142.403
| 23> S 	 -81.3623 	 51.4827 	 138.361
| 24> C 	 -79.7894 	 52.1112 	 138.357
| 25> C 	 -78.8456 	 51.2165 	 137.934
| 26> C 	 -79.4187 	 49.9107 	 137.743
| 27> C 	 -80.7587 	 49.9151 	 138.034
| 28> H 	 -77.8767 	 51.554 	 137.677
| 29> C 	 -78.5819 	 48.6874 	 137.526
| 30> H 	 -78.7007 	 48.3326 	 136.445
| 31> H 	 -78.9505 	 47.8196 	 138.124
| 32> C 	 -77.0465 	 48.8259 	 137.8
| 33> H 	 -76.7186 	 49.6641 	 137.235
| 34> H 	 -76.4979 	 48.0082 	 137.311
| 35> C 	 -76.6692 	 48.8651 	 139.357
| 36> H 	 -77.2904 	 49.6845 	 139.844
| 37> H 	 -75.6595 	 49.112 	 139.615
| 38> H 	 -76.9741 	 48.047 	 139.965
| 39> H 	 -84.1603 	 46.2988 	 137.439
| 40> H 	 -79.6535 	 53.1958 	 138.237
| 41> *
| 42>
| 43>                          ****END OF INPUT****

CARTESIAN COORDINATES (ANGSTROEM)
---------------------------------
  S    -82.987900   48.583000  137.025000
  C    -83.420700   47.039200  137.809000
  C    -82.643900   46.862200  138.956000
  C    -81.675600   47.913600  139.152000
  C    -81.704200   48.793400  138.138000
  H    -80.959600   48.106600  140.010000
  C    -82.639000   45.755100  139.976000
  H    -81.946300   45.946200  140.851000
  H    -82.351900   44.828800  139.454000
  C    -84.053000   45.504800  140.571000
  H    -84.908300   45.655000  139.829000
  H    -84.072800   44.456800  140.529000
  C    -84.293200   46.343600  141.815000
  H    -84.496300   47.428100  141.531000
  H    -85.147800   45.932400  142.414000
  H    -83.379200   46.451500  142.403000
  S    -81.362300   51.482700  138.361000
  C    -79.789400   52.111200  138.357000
  C    -78.845600   51.216500  137.934000
  C    -79.418700   49.910700  137.743000
  C    -80.758700   49.915100  138.034000
  H    -77.876700   51.554000  137.677000
  C    -78.581900   48.687400  137.526000
  H    -78.700700   48.332600  136.445000
  H    -78.950500   47.819600  138.124000
  C    -77.046500   48.825900  137.800000
  H    -76.718600   49.664100  137.235000
  H    -76.497900   48.008200  137.311000
  C    -76.669200   48.865100  139.357000
  H    -77.290400   49.684500  139.844000
  H    -75.659500   49.112000  139.615000
  H    -76.974100   48.047000  139.965000
  H    -84.160300   46.298800  137.439000
  H    -79.653500   53.195800  138.237000

 Total Charge           Charge          ....    0
 Multiplicity           Mult            ....    1
 Number of Electrons    NEL             ....  134
 Basis Dimension        Dim             ....  322

ORBITAL ENERGIES
----------------

  NO   OCC          E(Eh)            E(eV)
   0   2.0000     -88.966724     -2420.9076
   1   2.0000     -88.961780     -2420.7731
   2   2.0000     -10.318875      -280.7909
   3   2.0000     -10.318588      -280.7830
   4   2.0000     -10.317235      -280.7462
   5   2.0000     -10.308471      -280.5078
   6   2.0000     -10.302445      -280.3438
   7   2.0000     -10.300355      -280.2869
   8   2.0000     -10.296969      -280.1948
   9   2.0000     -10.296128      -280.1719
  10   2.0000     -10.293139      -280.0905
  11   2.0000     -10.290904      -280.0297
  12   2.0000     -10.289547      -279.9928
  13   2.0000     -10.286886      -279.9204
  14   2.0000     -10.284775      -279.8629
  15   2.0000     -10.280257      -279.7400
  16   2.0000      -8.081532      -219.9097
  17   2.0000      -8.078650      -219.8312
  18   2.0000      -6.040076      -164.3588
  19   2.0000      -6.036883      -164.2719
  20   2.0000      -6.036108      -164.2509
  21   2.0000      -6.032930      -164.1644
  22   2.0000      -6.032186      -164.1441
  23   2.0000      -6.029509      -164.0713
  24   2.0000      -1.015060       -27.6212
  25   2.0000      -0.988932       -26.9102
  26   2.0000      -0.912164       -24.8212
  27   2.0000      -0.902280       -24.5523
  28   2.0000      -0.866798       -23.5868
  29   2.0000      -0.847563       -23.0634
  30   2.0000      -0.842527       -22.9263
  31   2.0000      -0.812394       -22.1064
  32   2.0000      -0.781054       -21.2536
  33   2.0000      -0.771175       -20.9847
  34   2.0000      -0.709995       -19.3199
  35   2.0000      -0.707995       -19.2655
  36   2.0000      -0.687582       -18.7100
  37   2.0000      -0.656247       -17.8574
  38   2.0000      -0.638455       -17.3733
  39   2.0000      -0.610428       -16.6106
  40   2.0000      -0.597783       -16.2665
  41   2.0000      -0.569232       -15.4896
  42   2.0000      -0.556965       -15.1558
  43   2.0000      -0.544747       -14.8233
  44   2.0000      -0.529994       -14.4219
  45   2.0000      -0.523912       -14.2564
  46   2.0000      -0.513374       -13.9696
  47   2.0000      -0.510563       -13.8931
  48   2.0000      -0.501411       -13.6441
  49   2.0000      -0.494511       -13.4563
  50   2.0000      -0.483538       -13.1577
  51   2.0000      -0.481174       -13.0934
  52   2.0000      -0.470803       -12.8112
  53   2.0000      -0.468194       -12.7402
  54   2.0000      -0.465112       -12.6564
  55   2.0000      -0.444308       -12.0902
  56   2.0000      -0.441686       -12.0189
  57   2.0000      -0.438044       -11.9198
  58   2.0000      -0.432679       -11.7738
  59   2.0000      -0.431127       -11.7316
  60   2.0000      -0.424957       -11.5637
  61   2.0000      -0.412315       -11.2197
  62   2.0000      -0.397098       -10.8056
  63   2.0000      -0.336760        -9.1637
  64   2.0000      -0.327779        -8.9193
  65   2.0000      -0.324580        -8.8323
  66   2.0000      -0.304097        -8.2749
  67   0.0000       0.044691         1.2161
  68   0.0000       0.061988         1.6868
  69   0.0000       0.110803         3.0151
  70   0.0000       0.124649         3.3919
  71   0.0000       0.132977         3.6185

MULLIKEN ATOMIC CHARGES
-----------------------
   0 S :    0.118788
   1 C :   -0.142756
   2 C :   -0.061484
   3 C :    0.006416
   4 C :   -0.156099
   5 H :    0.044684
   6 C :    0.014312
   7 H :    0.041329
   8 H :    0.040719
   9 C :   -0.068344
  10 H :    0.026342
  11 H :    0.005311
  12 C :   -0.051254
  13 H :    0.049146
  14 H :    0.053568
  15 H :    0.026157
  16 S :    0.123355
  17 C :   -0.085987
  18 C :   -0.046824
  19 C :    0.007400
  20 C :   -0.204842
  21 H :    0.008055
  22 C :    0.012443
  23 H :    0.048319
  24 H :    0.038884
  25 C :   -0.050338
  26 H :    0.018783
  27 H :    0.029705
  28 C :   -0.057625
  29 H :    0.030566
  30 H :    0.034730
  31 H :    0.024866
  32 H :    0.058045
  33 H :    0.063626
Sum of atomic charges:   -0.0000000

LOEWDIN ATOMIC CHARGES
----------------------
   0 S :    0.407184
   1 C :   -0.205066
   2 C :   -0.057992
   3 C :   -0.075273
   4 C :   -0.206382
   5 H :    0.047521
   6 C :   -0.032751
   7 H :    0.036266
   8 H :    0.035891
   9 C :   -0.052344
  10 H :    0.030488
  11 H :    0.014331
  12 C :   -0.071527
  13 H :    0.039617
  14 H :    0.034124
  15 H :    0.021270
  16 S :    0.442718
  17 C :   -0.208852
  18 C :   -0.067023
  19 C :   -0.059051
  20 C :   -0.213114
  21 H :    0.025457
  22 C :   -0.040180
  23 H :    0.044428
  24 H :    0.034503
  25 C :   -0.036558
  26 H :    0.016484
  27 H :    0.026991
  28 C :   -0.073849
  29 H :    0.033426
  30 H :    0.022339
  31 H :    0.020800
  32 H :    0.035050
  33 H :    0.031072

  Mayer bond orders larger than 0.100000
B(  0-S ,  1-C ) :   1.1122 B(  0-S ,  4-C ) :   1.1651 B(  1-C ,  2-C ) :   1.6310
B(  1-C , 32-H ) :   0.9649 B(  2-C ,  3-C ) :   1.2072 B(  2-C ,  6-C ) :   1.0187
B(  3-C ,  4-C ) :   1.6230 B(  3-C ,  5-H ) :   0.9808 B(  4-C , 20-C ) :   0.9808
B(  6-C ,  7-H ) :   0.9531 B(  6-C ,  8-H ) :   0.9383 B(  6-C ,  9-C ) :   1.0604
B(  9-C , 10-H ) :   0.9553 B(  9-C , 11-H ) :   0.9623 B(  9-C , 12-C ) :   1.0565
B( 12-C , 13-H ) :   0.9719 B( 12-C , 14-H ) :   0.9745 B( 12-C , 15-H ) :   0.9772
B( 16-S , 17-C ) :   1.1734 B( 16-S , 20-C ) :   1.1722 B( 17-C , 18-C ) :   1.6136
B( 17-C , 33-H ) :   0.9541 B( 18-C , 19-C ) :   1.2422 B( 18-C , 21-H ) :   0.9915
B( 19-C , 20-C ) :   1.6061 B( 19-C , 22-C ) :   1.0393 B( 22-C , 23-H ) :   0.9216
B( 22-C , 24-H ) :   0.9427 B( 22-C , 25-C ) :   1.0832 B( 25-C , 26-H ) :   0.9511
B( 25-C , 27-H ) :   0.9563 B( 25-C , 28-C ) :   1.0543 B( 28-C , 29-H ) :   0.9752
B( 28-C , 30-H ) :   0.9795 B( 28-C , 31-H ) :   0.9770

Dispersion correction           -0.014584326
FINAL SINGLE POINT ENERGY     -1339.858477377434

DIPOLE MOMENT
-------------
                                X             Y             Z
Electronic contribution:    -10.02381      16.14852     -13.85166
Nuclear contribution   :     10.33167     -16.54133      14.01105
                        -----------------------------------------
Total Dipole Moment    :      0.30786      -0.39281       0.15939
                        -----------------------------------------
Magnitude (a.u.)       :      0.52391
Magnitude (Debye)      :      1.33169

Rotational constants in cm-1:     0.019958     0.008083     0.006975
Rotational constants in MHz :   598.328003   242.332772   209.107730

                             ****ORCA TERMINATED NORMALLY****
TOTAL RUN TIME: 0 days 0 hours 0 minutes 34 seconds 811 msec
