                         Program Version 4.2.1 -  RELEASE  -
|  1> ! wB97X-D3 SP def2-SVP
|  2> %pal
|  3> nprocs 16
|  4> end
|  5>
|  6> * xyz 0 1
|  7> S 	 -35.1046 	 68.7508 	 171.449
|  8> C 	 -34.2539 	 68.5499 	 172.958
|  9> C 	 -34.8644 	 69.3238 	 173.977
| 10> C 	 -35.9767 	 70.0442 	 173.537
| 11> C 	 -36.2762 	 69.8413 	 172.175
| 12> H 	 -36.5617 	 70.695 	 174.118
| 13> C 	 -34.5045 	 69.2763 	 175.415
| 14> H 	 -33.9141 	 68.3854 	 175.604
| 15> H 	 -35.4695 	 69.1719 	 175.855
| 16> C 	 -33.9088 	 70.5841 	 175.86
| 17> H 	 -32.8738 	 70.7145 	 175.456
| 18> H 	 -34.6074 	 71.3811 	 175.527
| 19> C 	 -33.9322 	 70.7323 	 177.431
| 20> H 	 -34.9407 	 70.5271 	 177.764
| 21> H 	 -33.2561 	 70.0186 	 177.939
| 22> H 	 -33.6068 	 71.7435 	 177.687
| 23> S 	 -36.8751 	 71.3772 	 170.08
| 24> C 	 -38.5583 	 71.7956 	 169.702
| 25> C 	 -39.4568 	 71.1206 	 170.514
| 26> C 	 -38.7505 	 70.4364 	 171.565
| 27> C 	 -37.3866 	 70.3688 	 171.381
| 28> H 	 -40.5029 	 71.238 	 170.274
| 29> C 	 -39.4757 	 69.7014 	 172.667
| 30> H 	 -38.7046 	 69.4186 	 173.454
| 31> H 	 -39.8153 	 68.7841 	 172.151
| 32> C 	 -40.6859 	 70.3821 	 173.292
| 33> H 	 -41.2636 	 69.6084 	 173.729
| 34> H 	 -41.3564 	 70.7639 	 172.529
| 35> C 	 -40.4234 	 71.5071 	 174.274
| 36> H 	 -39.991 	 72.4408 	 173.807
| 37> H 	 -39.7481 	 71.3426 	 175.18
| 38> H 	 -41.3495 	 71.793 	 174.647
| 39> H 	 -33.5504 	 67.8116 	 173.036
| 40> H 	 -38.8778 	 72.4884 	 168.995
| 41> *
| 42>
| 43>                          ****END OF INPUT****

CARTESIAN COORDINATES (ANGSTROEM)
---------------------------------
  S    -35.104600   68.750800  171.449000
  C    -34.253900   68.549900  172.958000
  C    -34.864400   69.323800  173.977000
  C    -35.976700   70.044200  173.537000
  C    -36.276200   69.841300  172.175000
  H    -36.561700   70.695000  174.118000
  C    -34.504500   69.276300  175.415000
  H    -33.914100   68.385400  175.604000
  H    -35.469500   69.171900  175.855000
  C    -33.908800   70.584100  175.860000
  H    -32.873800   70.714500  175.456000
  H    -34.607400   71.381100  175.527000
  C    -33.932200   70.732300  177.431000
  H    -34.940700   70.527100  177.764000
  H    -33.256100   70.018600  177.939000
  H    -33.606800   71.743500  177.687000
  S    -36.875100   71.377200  170.080000
  C    -38.558300   71.795600  169.702000
  C    -39.456800   71.120600  170.514000
  C    -38.750500   70.436400  171.565000
  C    -37.386600   70.368800  171.381000
  H    -40.502900   71.238000  170.274000
  C    -39.475700   69.701400  172.667000
  H    -38.704600   69.418600  173.454000
  H    -39.815300   68.784100  172.151000
  C    -40.685900   70.382100  173.292000
  H    -41.263600   69.608400  173.729000
  H    -41.356400   70.763900  172.529000
  C    -40.423400   71.507100  174.274000
  H    -39.991000   72.440800  173.807000
  H    -39.748100   71.342600  175.180000
  H    -41.349500   71.793000  174.647000
  H    -33.550400   67.811600  173.036000
  H    -38.877800   72.488400  168.995000

 Total Charge           Charge          ....    0
 Multiplicity           Mult            ....    1
 Number of Electrons    NEL             ....  134
 Basis Dimension        Dim             ....  322

ORBITAL ENERGIES
----------------

  NO   OCC          E(Eh)            E(eV)
   0   2.0000     -88.965427     -2420.8723
   1   2.0000     -88.962162     -2420.7835
   2   2.0000     -10.331947      -281.1466
   3   2.0000     -10.320598      -280.8378
   4   2.0000     -10.314273      -280.6656
   5   2.0000     -10.308483      -280.5081
   6   2.0000     -10.303354      -280.3685
   7   2.0000     -10.298358      -280.2326
   8   2.0000     -10.295999      -280.1684
   9   2.0000     -10.291852      -280.0555
  10   2.0000     -10.291747      -280.0527
  11   2.0000     -10.290469      -280.0179
  12   2.0000     -10.284047      -279.8431
  13   2.0000     -10.283668      -279.8328
  14   2.0000     -10.280553      -279.7481
  15   2.0000     -10.280126      -279.7364
  16   2.0000      -8.080059      -219.8696
  17   2.0000      -8.077162      -219.7908
  18   2.0000      -6.038416      -164.3136
  19   2.0000      -6.035668      -164.2389
  20   2.0000      -6.034405      -164.2045
  21   2.0000      -6.031632      -164.1290
  22   2.0000      -6.031187      -164.1169
  23   2.0000      -6.027890      -164.0272
  24   2.0000      -1.006034       -27.3756
  25   2.0000      -0.983183       -26.7538
  26   2.0000      -0.918013       -24.9804
  27   2.0000      -0.909381       -24.7455
  28   2.0000      -0.868245       -23.6261
  29   2.0000      -0.851146       -23.1609
  30   2.0000      -0.846455       -23.0332
  31   2.0000      -0.816537       -22.2191
  32   2.0000      -0.781189       -21.2572
  33   2.0000      -0.770644       -20.9703
  34   2.0000      -0.708405       -19.2767
  35   2.0000      -0.698526       -19.0079
  36   2.0000      -0.695346       -18.9213
  37   2.0000      -0.659639       -17.9497
  38   2.0000      -0.649434       -17.6720
  39   2.0000      -0.625136       -17.0108
  40   2.0000      -0.592492       -16.1225
  41   2.0000      -0.571962       -15.5639
  42   2.0000      -0.564267       -15.3545
  43   2.0000      -0.556233       -15.1359
  44   2.0000      -0.535909       -14.5828
  45   2.0000      -0.524176       -14.2635
  46   2.0000      -0.519376       -14.1329
  47   2.0000      -0.518552       -14.1105
  48   2.0000      -0.506149       -13.7730
  49   2.0000      -0.500782       -13.6270
  50   2.0000      -0.497146       -13.5280
  51   2.0000      -0.475786       -12.9468
  52   2.0000      -0.469658       -12.7800
  53   2.0000      -0.462930       -12.5970
  54   2.0000      -0.453188       -12.3319
  55   2.0000      -0.447834       -12.1862
  56   2.0000      -0.444514       -12.0958
  57   2.0000      -0.439670       -11.9640
  58   2.0000      -0.436577       -11.8799
  59   2.0000      -0.428257       -11.6535
  60   2.0000      -0.426620       -11.6089
  61   2.0000      -0.411869       -11.2075
  62   2.0000      -0.410388       -11.1672
  63   2.0000      -0.344532        -9.3752
  64   2.0000      -0.330063        -8.9815
  65   2.0000      -0.323478        -8.8023
  66   2.0000      -0.289384        -7.8745
  67   0.0000       0.036181         0.9845
  68   0.0000       0.062744         1.7074
  69   0.0000       0.115619         3.1462
  70   0.0000       0.120166         3.2699
  71   0.0000       0.123013         3.3473

MULLIKEN ATOMIC CHARGES
-----------------------
   0 S :    0.109404
   1 C :   -0.096444
   2 C :   -0.096551
   3 C :    0.055494
   4 C :   -0.172972
   5 H :   -0.005712
   6 C :    0.114426
   7 H :    0.019996
   8 H :    0.012208
   9 C :   -0.113364
  10 H :    0.044859
  11 H :    0.036466
  12 C :   -0.039170
  13 H :    0.023816
  14 H :    0.032387
  15 H :    0.038067
  16 S :    0.105097
  17 C :   -0.073799
  18 C :   -0.041109
  19 C :   -0.038454
  20 C :   -0.137272
  21 H :    0.025872
  22 C :    0.036823
  23 H :    0.032109
  24 H :    0.044560
  25 C :   -0.038735
  26 H :    0.017321
  27 H :    0.017481
  28 C :   -0.051605
  29 H :    0.039189
  30 H :    0.035329
  31 H :    0.016489
  32 H :    0.016043
  33 H :    0.031748
Sum of atomic charges:    0.0000000

LOEWDIN ATOMIC CHARGES
----------------------
   0 S :    0.414156
   1 C :   -0.193904
   2 C :   -0.054902
   3 C :   -0.061518
   4 C :   -0.190361
   5 H :    0.022500
   6 C :   -0.031749
   7 H :    0.029171
   8 H :    0.029181
   9 C :   -0.037929
  10 H :    0.030333
  11 H :    0.028955
  12 C :   -0.064880
  13 H :    0.020204
  14 H :    0.024282
  15 H :    0.025576
  16 S :    0.408073
  17 C :   -0.162698
  18 C :   -0.069863
  19 C :   -0.057227
  20 C :   -0.217212
  21 H :    0.034204
  22 C :   -0.037414
  23 H :    0.036092
  24 H :    0.040616
  25 C :   -0.042543
  26 H :    0.023157
  27 H :    0.025307
  28 C :   -0.069865
  29 H :    0.032302
  30 H :    0.029757
  31 H :    0.016871
  32 H :    0.006034
  33 H :    0.015294

  Mayer bond orders larger than 0.100000
B(  0-S ,  1-C ) :   1.1497 B(  0-S ,  4-C ) :   1.1854 B(  1-C ,  2-C ) :   1.5508
B(  1-C ,  4-C ) :   0.1147 B(  1-C , 32-H ) :   0.9874 B(  2-C ,  3-C ) :   1.2787
B(  2-C ,  6-C ) :   1.0194 B(  3-C ,  4-C ) :   1.5359 B(  3-C ,  5-H ) :   0.9981
B(  4-C , 20-C ) :   0.9977 B(  6-C ,  7-H ) :   0.9387 B(  6-C ,  8-H ) :   0.9324
B(  6-C ,  9-C ) :   1.0660 B(  9-C , 10-H ) :   0.9542 B(  9-C , 11-H ) :   0.9587
B(  9-C , 12-C ) :   1.0728 B( 12-C , 13-H ) :   0.9766 B( 12-C , 14-H ) :   0.9762
B( 12-C , 15-H ) :   0.9770 B( 16-S , 17-C ) :   1.1550 B( 16-S , 20-C ) :   1.1404
B( 17-C , 18-C ) :   1.6311 B( 17-C , 33-H ) :   0.9736 B( 18-C , 19-C ) :   1.1963
B( 18-C , 21-H ) :   0.9921 B( 19-C , 20-C ) :   1.6221 B( 19-C , 22-C ) :   1.0404
B( 22-C , 23-H ) :   0.9375 B( 22-C , 24-H ) :   0.9312 B( 22-C , 25-C ) :   1.0802
B( 25-C , 26-H ) :   0.9505 B( 25-C , 27-H ) :   0.9460 B( 25-C , 28-C ) :   1.0787
B( 28-C , 29-H ) :   0.9733 B( 28-C , 30-H ) :   0.9743 B( 28-C , 31-H ) :   0.9706

Dispersion correction           -0.013980060
FINAL SINGLE POINT ENERGY     -1339.874666366836

DIPOLE MOMENT
-------------
                                X             Y             Z
Electronic contribution:      7.38340      -3.98593     -27.68109
Nuclear contribution   :     -7.86595       4.01069      28.21895
                        -----------------------------------------
Total Dipole Moment    :     -0.48255       0.02477       0.53786
                        -----------------------------------------
Magnitude (a.u.)       :      0.72302
Magnitude (Debye)      :      1.83777

Rotational constants in cm-1:     0.017696     0.008719     0.006717
Rotational constants in MHz :   530.504090   261.396097   201.367441

                             ****ORCA TERMINATED NORMALLY****
TOTAL RUN TIME: 0 days 0 hours 0 minutes 33 seconds 746 msec
