                         Program Version 4.2.1 -  RELEASE  -
|  1> ! wB97X-D3 SP def2-SVP
|  2> %pal
|  3> nprocs 16
|  4> end
|  5>
|  6> * xyz 0 1
|  7> S 	 44.4448 	 14.8004 	 74.8855
|  8> C 	 43.0519 	 13.7575 	 74.6867
|  9> C 	 42.0288 	 14.4049 	 73.9718
| 10> C 	 42.4092 	 15.7094 	 73.7036
| 11> C 	 43.7159 	 16.1044 	 74.0247
| 12> H 	 41.823 	 16.5199 	 73.2989
| 13> C 	 40.5937 	 13.865 	 73.7677
| 14> H 	 40.117 	 13.8776 	 74.8004
| 15> H 	 40.6501 	 12.8542 	 73.3941
| 16> C 	 39.6106 	 14.5169 	 72.7559
| 17> H 	 39.3136 	 15.5288 	 73.1807
| 18> H 	 40.0983 	 14.7017 	 71.8239
| 19> C 	 38.2884 	 13.7887 	 72.6363
| 20> H 	 37.7853 	 13.896 	 73.5638
| 21> H 	 37.6847 	 14.2451 	 71.9021
| 22> H 	 38.4448 	 12.7441 	 72.3485
| 23> S 	 46.016 	 17.6365 	 73.1585
| 24> C 	 45.8314 	 19.3684 	 73.1702
| 25> C 	 44.5807 	 19.7438 	 73.6357
| 26> C 	 43.7706 	 18.6699 	 74.117
| 27> C 	 44.3454 	 17.4289 	 73.8493
| 28> H 	 44.2874 	 20.773 	 73.7255
| 29> C 	 42.3837 	 18.9942 	 74.66
| 30> H 	 41.8136 	 18.0685 	 74.7647
| 31> H 	 41.8103 	 19.6521 	 73.9608
| 32> C 	 42.4544 	 19.5292 	 76.0561
| 33> H 	 43.2425 	 20.2949 	 76.141
| 34> H 	 42.7366 	 18.7139 	 76.7065
| 35> C 	 41.0614 	 19.9277 	 76.4858
| 36> H 	 40.7306 	 20.7163 	 75.8466
| 37> H 	 40.945 	 20.1039 	 77.5869
| 38> H 	 40.3782 	 19.1718 	 76.2578
| 39> H 	 42.7489 	 12.7865 	 75.1311
| 40> H 	 46.5256 	 20.1434 	 72.9095
| 41> *
| 42>
| 43>                          ****END OF INPUT****

CARTESIAN COORDINATES (ANGSTROEM)
---------------------------------
  S     44.444800   14.800400   74.885500
  C     43.051900   13.757500   74.686700
  C     42.028800   14.404900   73.971800
  C     42.409200   15.709400   73.703600
  C     43.715900   16.104400   74.024700
  H     41.823000   16.519900   73.298900
  C     40.593700   13.865000   73.767700
  H     40.117000   13.877600   74.800400
  H     40.650100   12.854200   73.394100
  C     39.610600   14.516900   72.755900
  H     39.313600   15.528800   73.180700
  H     40.098300   14.701700   71.823900
  C     38.288400   13.788700   72.636300
  H     37.785300   13.896000   73.563800
  H     37.684700   14.245100   71.902100
  H     38.444800   12.744100   72.348500
  S     46.016000   17.636500   73.158500
  C     45.831400   19.368400   73.170200
  C     44.580700   19.743800   73.635700
  C     43.770600   18.669900   74.117000
  C     44.345400   17.428900   73.849300
  H     44.287400   20.773000   73.725500
  C     42.383700   18.994200   74.660000
  H     41.813600   18.068500   74.764700
  H     41.810300   19.652100   73.960800
  C     42.454400   19.529200   76.056100
  H     43.242500   20.294900   76.141000
  H     42.736600   18.713900   76.706500
  C     41.061400   19.927700   76.485800
  H     40.730600   20.716300   75.846600
  H     40.945000   20.103900   77.586900
  H     40.378200   19.171800   76.257800
  H     42.748900   12.786500   75.131100
  H     46.525600   20.143400   72.909500

 Total Charge           Charge          ....    0
 Multiplicity           Mult            ....    1
 Number of Electrons    NEL             ....  134
 Basis Dimension        Dim             ....  322

ORBITAL ENERGIES
----------------

  NO   OCC          E(Eh)            E(eV)
   0   2.0000     -88.971744     -2421.0442
   1   2.0000     -88.970233     -2421.0031
   2   2.0000     -10.335963      -281.2559
   3   2.0000     -10.328928      -281.0644
   4   2.0000     -10.318478      -280.7801
   5   2.0000     -10.317885      -280.7639
   6   2.0000     -10.304065      -280.3879
   7   2.0000     -10.302885      -280.3558
   8   2.0000     -10.301661      -280.3225
   9   2.0000     -10.293144      -280.0907
  10   2.0000     -10.291266      -280.0396
  11   2.0000     -10.291027      -280.0331
  12   2.0000     -10.289310      -279.9864
  13   2.0000     -10.280937      -279.7585
  14   2.0000     -10.275567      -279.6124
  15   2.0000     -10.272274      -279.5228
  16   2.0000      -8.086075      -220.0333
  17   2.0000      -8.083722      -219.9693
  18   2.0000      -6.044495      -164.4791
  19   2.0000      -6.042404      -164.4222
  20   2.0000      -6.040453      -164.3691
  21   2.0000      -6.038461      -164.3149
  22   2.0000      -6.037123      -164.2785
  23   2.0000      -6.034307      -164.2018
  24   2.0000      -1.004541       -27.3349
  25   2.0000      -0.982710       -26.7409
  26   2.0000      -0.920131       -25.0380
  27   2.0000      -0.911607       -24.8061
  28   2.0000      -0.870430       -23.6856
  29   2.0000      -0.855429       -23.2774
  30   2.0000      -0.845906       -23.0183
  31   2.0000      -0.811078       -22.0706
  32   2.0000      -0.785547       -21.3758
  33   2.0000      -0.773927       -21.0596
  34   2.0000      -0.709759       -19.3135
  35   2.0000      -0.698244       -19.0002
  36   2.0000      -0.690486       -18.7891
  37   2.0000      -0.657698       -17.8969
  38   2.0000      -0.640149       -17.4193
  39   2.0000      -0.617274       -16.7969
  40   2.0000      -0.598823       -16.2948
  41   2.0000      -0.577601       -15.7173
  42   2.0000      -0.572238       -15.5714
  43   2.0000      -0.569861       -15.5067
  44   2.0000      -0.526714       -14.3326
  45   2.0000      -0.525995       -14.3130
  46   2.0000      -0.514291       -13.9946
  47   2.0000      -0.508779       -13.8446
  48   2.0000      -0.504609       -13.7311
  49   2.0000      -0.503891       -13.7116
  50   2.0000      -0.490804       -13.3555
  51   2.0000      -0.480904       -13.0861
  52   2.0000      -0.472477       -12.8567
  53   2.0000      -0.466627       -12.6976
  54   2.0000      -0.461424       -12.5560
  55   2.0000      -0.451262       -12.2795
  56   2.0000      -0.444077       -12.0839
  57   2.0000      -0.440546       -11.9879
  58   2.0000      -0.433925       -11.8077
  59   2.0000      -0.426002       -11.5921
  60   2.0000      -0.423676       -11.5288
  61   2.0000      -0.414495       -11.2790
  62   2.0000      -0.412314       -11.2196
  63   2.0000      -0.344275        -9.3682
  64   2.0000      -0.335852        -9.1390
  65   2.0000      -0.332809        -9.0562
  66   2.0000      -0.288587        -7.8529
  67   0.0000       0.026620         0.7244
  68   0.0000       0.067121         1.8265
  69   0.0000       0.112467         3.0604
  70   0.0000       0.115832         3.1519
  71   0.0000       0.133179         3.6240

MULLIKEN ATOMIC CHARGES
-----------------------
   0 S :    0.133088
   1 C :   -0.126912
   2 C :   -0.068441
   3 C :    0.007339
   4 C :   -0.172852
   5 H :    0.007520
   6 C :    0.023907
   7 H :    0.054268
   8 H :    0.026663
   9 C :   -0.105664
  10 H :    0.026682
  11 H :    0.033883
  12 C :   -0.001690
  13 H :    0.024737
  14 H :    0.026271
  15 H :    0.031257
  16 S :    0.113570
  17 C :   -0.073607
  18 C :   -0.036180
  19 C :   -0.027893
  20 C :   -0.152183
  21 H :    0.012873
  22 C :    0.023786
  23 H :    0.015369
  24 H :    0.041163
  25 C :   -0.075155
  26 H :    0.031703
  27 H :    0.028579
  28 C :    0.013408
  29 H :    0.012121
  30 H :    0.045622
  31 H :   -0.000515
  32 H :    0.053869
  33 H :    0.053413
Sum of atomic charges:    0.0000000

LOEWDIN ATOMIC CHARGES
----------------------
   0 S :    0.434868
   1 C :   -0.212177
   2 C :   -0.069580
   3 C :   -0.068966
   4 C :   -0.209797
   5 H :    0.026292
   6 C :   -0.036151
   7 H :    0.042184
   8 H :    0.027815
   9 C :   -0.042785
  10 H :    0.025815
  11 H :    0.019398
  12 C :   -0.053743
  13 H :    0.023504
  14 H :    0.024497
  15 H :    0.025087
  16 S :    0.384543
  17 C :   -0.185448
  18 C :   -0.070045
  19 C :   -0.050183
  20 C :   -0.183539
  21 H :    0.026891
  22 C :   -0.034009
  23 H :    0.029165
  24 H :    0.033416
  25 C :   -0.039223
  26 H :    0.021664
  27 H :    0.027845
  28 C :   -0.060814
  29 H :    0.020757
  30 H :    0.033522
  31 H :    0.016934
  32 H :    0.040110
  33 H :    0.032153

  Mayer bond orders larger than 0.100000
B(  0-S ,  1-C ) :   1.1674 B(  0-S ,  4-C ) :   1.1674 B(  1-C ,  2-C ) :   1.5635
B(  1-C ,  4-C ) :   0.1154 B(  1-C , 32-H ) :   0.9639 B(  2-C ,  3-C ) :   1.3041
B(  2-C ,  6-C ) :   1.0045 B(  3-C ,  4-C ) :   1.5285 B(  3-C ,  5-H ) :   0.9911
B(  4-C , 20-C ) :   1.0439 B(  6-C ,  7-H ) :   0.9423 B(  6-C ,  8-H ) :   0.9415
B(  6-C ,  9-C ) :   1.0736 B(  9-C , 10-H ) :   0.9475 B(  9-C , 11-H ) :   0.9602
B(  9-C , 12-C ) :   1.0892 B( 12-C , 13-H ) :   0.9738 B( 12-C , 14-H ) :   0.9703
B( 12-C , 15-H ) :   0.9736 B( 16-S , 17-C ) :   1.1445 B( 16-S , 20-C ) :   1.1172
B( 17-C , 18-C ) :   1.6222 B( 17-C , 33-H ) :   0.9659 B( 18-C , 19-C ) :   1.2392
B( 18-C , 21-H ) :   0.9850 B( 19-C , 20-C ) :   1.6027 B( 19-C , 22-C ) :   1.0338
B( 22-C , 23-H ) :   0.9235 B( 22-C , 24-H ) :   0.9483 B( 22-C , 25-C ) :   1.0597
B( 25-C , 26-H ) :   0.9630 B( 25-C , 27-H ) :   0.9473 B( 25-C , 28-C ) :   1.0831
B( 28-C , 29-H ) :   0.9702 B( 28-C , 30-H ) :   0.9720 B( 28-C , 31-H ) :   0.9621

Dispersion correction           -0.013599945
FINAL SINGLE POINT ENERGY     -1339.869888316543

DIPOLE MOMENT
-------------
                                X             Y             Z
Electronic contribution:     31.15707      -3.87572      -3.23719
Nuclear contribution   :    -31.99090       4.12998       3.32690
                        -----------------------------------------
Total Dipole Moment    :     -0.83383       0.25426       0.08971
                        -----------------------------------------
Magnitude (a.u.)       :      0.87634
Magnitude (Debye)      :      2.22748

Rotational constants in cm-1:     0.016519     0.008448     0.006646
Rotational constants in MHz :   495.234302   253.265969   199.245448

                             ****ORCA TERMINATED NORMALLY****
TOTAL RUN TIME: 0 days 0 hours 0 minutes 29 seconds 554 msec
