                         Program Version 4.2.1 -  RELEASE  -
|  1> ! wB97X-D3 SP def2-SVP
|  2> %pal
|  3> nprocs 16
|  4> end
|  5>
|  6> * xyz 0 1
|  7> S 	 1.44734 	 16.7082 	 52.7496
|  8> C 	 2.47481 	 16.3402 	 51.4097
|  9> C 	 2.61235 	 17.4478 	 50.5785
| 10> C 	 1.79057 	 18.4906 	 50.991
| 11> C 	 1.14934 	 18.3346 	 52.2543
| 12> H 	 1.60656 	 19.3214 	 50.306
| 13> C 	 3.69084 	 17.7097 	 49.5402
| 14> H 	 4.55615 	 17.3098 	 49.9967
| 15> H 	 3.83479 	 18.7974 	 49.2392
| 16> C 	 3.34923 	 16.9777 	 48.2147
| 17> H 	 3.1201 	 15.8951 	 48.4449
| 18> H 	 2.39355 	 17.3328 	 47.7498
| 19> C 	 4.46033 	 17.05 	 47.1755
| 20> H 	 5.37721 	 16.8092 	 47.6621
| 21> H 	 4.22044 	 16.2895 	 46.4408
| 22> H 	 4.52709 	 17.9775 	 46.5752
| 23> S 	 -0.708687 	 18.6962 	 54.2463
| 24> C 	 -1.44054 	 20.2463 	 54.6632
| 25> C 	 -0.690366 	 21.1734 	 54.002
| 26> C 	 0.295875 	 20.6659 	 53.0655
| 27> C 	 0.337492 	 19.2637 	 53.0047
| 28> H 	 -0.972245 	 22.1703 	 54.2427
| 29> C 	 1.13803 	 21.571 	 52.2374
| 30> H 	 0.533824 	 21.9456 	 51.4586
| 31> H 	 1.92089 	 20.9721 	 51.7777
| 32> C 	 1.91024 	 22.6772 	 52.9358
| 33> H 	 1.28174 	 23.5224 	 53.2867
| 34> H 	 2.56878 	 23.1608 	 52.2895
| 35> C 	 2.80906 	 22.1308 	 54.1032
| 36> H 	 3.37963 	 22.918 	 54.6291
| 37> H 	 3.56415 	 21.4337 	 53.7789
| 38> H 	 2.14446 	 21.6098 	 54.8527
| 39> H 	 3.0178 	 15.3917 	 51.2802
| 40> H 	 -2.06831 	 20.4207 	 55.5411
| 41> *
| 42>
| 43>                          ****END OF INPUT****

CARTESIAN COORDINATES (ANGSTROEM)
---------------------------------
  S      1.447340   16.708200   52.749600
  C      2.474810   16.340200   51.409700
  C      2.612350   17.447800   50.578500
  C      1.790570   18.490600   50.991000
  C      1.149340   18.334600   52.254300
  H      1.606560   19.321400   50.306000
  C      3.690840   17.709700   49.540200
  H      4.556150   17.309800   49.996700
  H      3.834790   18.797400   49.239200
  C      3.349230   16.977700   48.214700
  H      3.120100   15.895100   48.444900
  H      2.393550   17.332800   47.749800
  C      4.460330   17.050000   47.175500
  H      5.377210   16.809200   47.662100
  H      4.220440   16.289500   46.440800
  H      4.527090   17.977500   46.575200
  S     -0.708687   18.696200   54.246300
  C     -1.440540   20.246300   54.663200
  C     -0.690366   21.173400   54.002000
  C      0.295875   20.665900   53.065500
  C      0.337492   19.263700   53.004700
  H     -0.972245   22.170300   54.242700
  C      1.138030   21.571000   52.237400
  H      0.533824   21.945600   51.458600
  H      1.920890   20.972100   51.777700
  C      1.910240   22.677200   52.935800
  H      1.281740   23.522400   53.286700
  H      2.568780   23.160800   52.289500
  C      2.809060   22.130800   54.103200
  H      3.379630   22.918000   54.629100
  H      3.564150   21.433700   53.778900
  H      2.144460   21.609800   54.852700
  H      3.017800   15.391700   51.280200
  H     -2.068310   20.420700   55.541100

 Total Charge           Charge          ....    0
 Multiplicity           Mult            ....    1
 Number of Electrons    NEL             ....  134
 Basis Dimension        Dim             ....  322

ORBITAL ENERGIES
----------------

  NO   OCC          E(Eh)            E(eV)
   0   2.0000     -88.971306     -2421.0323
   1   2.0000     -88.957631     -2420.6602
   2   2.0000     -10.336009      -281.2571
   3   2.0000     -10.331144      -281.1247
   4   2.0000     -10.318747      -280.7874
   5   2.0000     -10.317696      -280.7588
   6   2.0000     -10.305714      -280.4327
   7   2.0000     -10.298942      -280.2485
   8   2.0000     -10.298024      -280.2235
   9   2.0000     -10.294692      -280.1328
  10   2.0000     -10.293191      -280.0920
  11   2.0000     -10.293116      -280.0899
  12   2.0000     -10.283107      -279.8176
  13   2.0000     -10.282121      -279.7907
  14   2.0000     -10.276917      -279.6491
  15   2.0000     -10.276791      -279.6457
  16   2.0000      -8.086305      -220.0396
  17   2.0000      -8.073187      -219.6826
  18   2.0000      -6.044758      -164.4862
  19   2.0000      -6.040597      -164.3730
  20   2.0000      -6.037280      -164.2827
  21   2.0000      -6.031793      -164.1334
  22   2.0000      -6.027493      -164.0164
  23   2.0000      -6.023853      -163.9174
  24   2.0000      -1.012892       -27.5622
  25   2.0000      -0.990360       -26.9491
  26   2.0000      -0.914195       -24.8765
  27   2.0000      -0.909456       -24.7476
  28   2.0000      -0.876030       -23.8380
  29   2.0000      -0.854069       -23.2404
  30   2.0000      -0.837162       -22.7803
  31   2.0000      -0.816816       -22.2267
  32   2.0000      -0.782993       -21.3063
  33   2.0000      -0.772815       -21.0294
  34   2.0000      -0.711506       -19.3610
  35   2.0000      -0.699770       -19.0417
  36   2.0000      -0.694944       -18.9104
  37   2.0000      -0.658423       -17.9166
  38   2.0000      -0.634361       -17.2618
  39   2.0000      -0.628680       -17.1073
  40   2.0000      -0.595419       -16.2022
  41   2.0000      -0.574916       -15.6443
  42   2.0000      -0.562621       -15.3097
  43   2.0000      -0.559549       -15.2261
  44   2.0000      -0.539916       -14.6919
  45   2.0000      -0.531001       -14.4493
  46   2.0000      -0.520177       -14.1547
  47   2.0000      -0.514558       -14.0018
  48   2.0000      -0.509036       -13.8516
  49   2.0000      -0.498949       -13.5771
  50   2.0000      -0.494858       -13.4658
  51   2.0000      -0.478643       -13.0245
  52   2.0000      -0.471658       -12.8345
  53   2.0000      -0.465786       -12.6747
  54   2.0000      -0.460185       -12.5223
  55   2.0000      -0.445822       -12.1314
  56   2.0000      -0.442424       -12.0390
  57   2.0000      -0.440484       -11.9862
  58   2.0000      -0.430571       -11.7164
  59   2.0000      -0.428219       -11.6524
  60   2.0000      -0.414540       -11.2802
  61   2.0000      -0.410632       -11.1739
  62   2.0000      -0.402746       -10.9593
  63   2.0000      -0.364139        -9.9087
  64   2.0000      -0.331463        -9.0196
  65   2.0000      -0.321513        -8.7488
  66   2.0000      -0.283284        -7.7085
  67   0.0000       0.015868         0.4318
  68   0.0000       0.085441         2.3250
  69   0.0000       0.101291         2.7563
  70   0.0000       0.121606         3.3091
  71   0.0000       0.140811         3.8317

MULLIKEN ATOMIC CHARGES
-----------------------
   0 S :    0.125158
   1 C :   -0.133443
   2 C :   -0.078549
   3 C :   -0.011829
   4 C :   -0.132265
   5 H :    0.024265
   6 C :    0.072764
   7 H :    0.025521
   8 H :    0.043674
   9 C :   -0.146763
  10 H :    0.031831
  11 H :    0.033554
  12 C :   -0.008574
  13 H :    0.022247
  14 H :    0.028399
  15 H :    0.039273
  16 S :    0.062366
  17 C :   -0.094969
  18 C :   -0.027071
  19 C :   -0.084733
  20 C :   -0.095462
  21 H :    0.009792
  22 C :    0.102606
  23 H :    0.030832
  24 H :    0.011639
  25 C :   -0.051396
  26 H :    0.025734
  27 H :    0.011481
  28 C :   -0.087853
  29 H :    0.034478
  30 H :    0.030927
  31 H :    0.051339
  32 H :    0.059012
  33 H :    0.076015
Sum of atomic charges:   -0.0000000

LOEWDIN ATOMIC CHARGES
----------------------
   0 S :    0.440699
   1 C :   -0.211586
   2 C :   -0.067800
   3 C :   -0.068443
   4 C :   -0.201735
   5 H :    0.031176
   6 C :   -0.025650
   7 H :    0.027374
   8 H :    0.039800
   9 C :   -0.049177
  10 H :    0.025326
  11 H :    0.026878
  12 C :   -0.068096
  13 H :    0.019766
  14 H :    0.028860
  15 H :    0.028399
  16 S :    0.397144
  17 C :   -0.182798
  18 C :   -0.069897
  19 C :   -0.060329
  20 C :   -0.200639
  21 H :    0.026984
  22 C :   -0.033523
  23 H :    0.028968
  24 H :    0.031444
  25 C :   -0.037007
  26 H :    0.022695
  27 H :    0.016366
  28 C :   -0.069790
  29 H :    0.026415
  30 H :    0.022001
  31 H :    0.031830
  32 H :    0.034330
  33 H :    0.040016

  Mayer bond orders larger than 0.100000
B(  0-S ,  1-C ) :   1.1660 B(  0-S ,  4-C ) :   1.1730 B(  1-C ,  2-C ) :   1.5499
B(  1-C ,  4-C ) :   0.1131 B(  1-C , 32-H ) :   0.9653 B(  2-C ,  3-C ) :   1.3357
B(  2-C ,  6-C ) :   1.0027 B(  3-C ,  4-C ) :   1.4833 B(  3-C ,  5-H ) :   0.9815
B(  4-C , 20-C ) :   1.1067 B(  6-C ,  7-H ) :   0.9384 B(  6-C ,  8-H ) :   0.9532
B(  6-C ,  9-C ) :   1.0522 B(  9-C , 10-H ) :   0.9612 B(  9-C , 11-H ) :   0.9560
B(  9-C , 12-C ) :   1.0795 B( 12-C , 13-H ) :   0.9733 B( 12-C , 14-H ) :   0.9716
B( 12-C , 15-H ) :   0.9739 B( 16-S , 17-C ) :   1.1435 B( 16-S , 20-C ) :   1.1432
B( 17-C , 18-C ) :   1.6074 B( 17-C , 33-H ) :   0.9659 B( 18-C , 19-C ) :   1.2305
B( 18-C , 21-H ) :   0.9982 B( 19-C , 20-C ) :   1.5447 B( 19-C , 22-C ) :   1.0507
B( 22-C , 23-H ) :   0.9285 B( 22-C , 24-H ) :   0.9236 B( 22-C , 25-C ) :   1.0799
B( 25-C , 26-H ) :   0.9519 B( 25-C , 27-H ) :   0.9546 B( 25-C , 28-C ) :   1.0699
B( 28-C , 29-H ) :   0.9759 B( 28-C , 30-H ) :   0.9766 B( 28-C , 31-H ) :   0.9745

Dispersion correction           -0.014025069
FINAL SINGLE POINT ENERGY     -1339.868963284307

DIPOLE MOMENT
-------------
                                X             Y             Z
Electronic contribution:    -17.83979     -11.76475      17.35246
Nuclear contribution   :     18.28071      12.19169     -17.77167
                        -----------------------------------------
Total Dipole Moment    :      0.44092       0.42694      -0.41921
                        -----------------------------------------
Magnitude (a.u.)       :      0.74325
Magnitude (Debye)      :      1.88920

Rotational constants in cm-1:     0.021414     0.007768     0.006254
Rotational constants in MHz :   641.976445   232.874091   187.504586

                             ****ORCA TERMINATED NORMALLY****
TOTAL RUN TIME: 0 days 0 hours 0 minutes 34 seconds 981 msec
