                         Program Version 4.2.1 -  RELEASE  -
|  1> ! wB97X-D3 SP def2-SVP
|  2> %pal
|  3> nprocs 16
|  4> end
|  5>
|  6> * xyz 0 1
|  7> S 	 -61.4146 	 63.0286 	 123.012
|  8> C 	 -62.0879 	 64.2846 	 123.997
|  9> C 	 -63.1321 	 63.8508 	 124.746
| 10> C 	 -63.4262 	 62.4955 	 124.438
| 11> C 	 -62.5497 	 61.9229 	 123.57
| 12> H 	 -64.2015 	 61.8903 	 124.892
| 13> C 	 -63.7958 	 64.6367 	 125.881
| 14> H 	 -64.4732 	 65.3209 	 125.293
| 15> H 	 -63.1362 	 65.2235 	 126.478
| 16> C 	 -64.5558 	 63.8653 	 127.039
| 17> H 	 -65.4941 	 63.5086 	 126.571
| 18> H 	 -63.9822 	 63.0055 	 127.308
| 19> C 	 -64.7749 	 64.8399 	 128.222
| 20> H 	 -63.9478 	 65.4293 	 128.517
| 21> H 	 -65.5777 	 65.6128 	 127.912
| 22> H 	 -65.1444 	 64.2874 	 129.081
| 23> S 	 -61.9463 	 60.1677 	 121.468
| 24> C 	 -62.456 	 58.4644 	 121.592
| 25> C 	 -63.0168 	 58.3021 	 122.825
| 26> C 	 -62.9522 	 59.4212 	 123.718
| 27> C 	 -62.5195 	 60.5213 	 123.122
| 28> H 	 -63.4472 	 57.296 	 123.046
| 29> C 	 -63.1598 	 59.2477 	 125.246
| 30> H 	 -62.6534 	 60.0879 	 125.733
| 31> H 	 -62.7041 	 58.3297 	 125.536
| 32> C 	 -64.6382 	 59.1834 	 125.731
| 33> H 	 -65.0898 	 58.1978 	 125.347
| 34> H 	 -65.1774 	 60.0089 	 125.237
| 35> C 	 -64.6245 	 59.3834 	 127.293
| 36> H 	 -64.134 	 58.5755 	 127.862
| 37> H 	 -65.6769 	 59.5381 	 127.628
| 38> H 	 -64.016 	 60.2659 	 127.57
| 39> H 	 -61.6378 	 65.257 	 124.122
| 40> H 	 -62.2866 	 57.6892 	 120.929
| 41> *
| 42>
| 43>                          ****END OF INPUT****

CARTESIAN COORDINATES (ANGSTROEM)
---------------------------------
  S    -61.414600   63.028600  123.012000
  C    -62.087900   64.284600  123.997000
  C    -63.132100   63.850800  124.746000
  C    -63.426200   62.495500  124.438000
  C    -62.549700   61.922900  123.570000
  H    -64.201500   61.890300  124.892000
  C    -63.795800   64.636700  125.881000
  H    -64.473200   65.320900  125.293000
  H    -63.136200   65.223500  126.478000
  C    -64.555800   63.865300  127.039000
  H    -65.494100   63.508600  126.571000
  H    -63.982200   63.005500  127.308000
  C    -64.774900   64.839900  128.222000
  H    -63.947800   65.429300  128.517000
  H    -65.577700   65.612800  127.912000
  H    -65.144400   64.287400  129.081000
  S    -61.946300   60.167700  121.468000
  C    -62.456000   58.464400  121.592000
  C    -63.016800   58.302100  122.825000
  C    -62.952200   59.421200  123.718000
  C    -62.519500   60.521300  123.122000
  H    -63.447200   57.296000  123.046000
  C    -63.159800   59.247700  125.246000
  H    -62.653400   60.087900  125.733000
  H    -62.704100   58.329700  125.536000
  C    -64.638200   59.183400  125.731000
  H    -65.089800   58.197800  125.347000
  H    -65.177400   60.008900  125.237000
  C    -64.624500   59.383400  127.293000
  H    -64.134000   58.575500  127.862000
  H    -65.676900   59.538100  127.628000
  H    -64.016000   60.265900  127.570000
  H    -61.637800   65.257000  124.122000
  H    -62.286600   57.689200  120.929000

 Total Charge           Charge          ....    0
 Multiplicity           Mult            ....    1
 Number of Electrons    NEL             ....  134
 Basis Dimension        Dim             ....  322

ORBITAL ENERGIES
----------------

  NO   OCC          E(Eh)            E(eV)
   0   2.0000     -88.964945     -2420.8592
   1   2.0000     -88.959720     -2420.7171
   2   2.0000     -10.324786      -280.9517
   3   2.0000     -10.322764      -280.8967
   4   2.0000     -10.314311      -280.6667
   5   2.0000     -10.306395      -280.4513
   6   2.0000     -10.300662      -280.2953
   7   2.0000     -10.299416      -280.2614
   8   2.0000     -10.297141      -280.1995
   9   2.0000     -10.296916      -280.1933
  10   2.0000     -10.295390      -280.1518
  11   2.0000     -10.294987      -280.1408
  12   2.0000     -10.292512      -280.0735
  13   2.0000     -10.290562      -280.0204
  14   2.0000     -10.289356      -279.9876
  15   2.0000     -10.287802      -279.9453
  16   2.0000      -8.081474      -219.9081
  17   2.0000      -8.073868      -219.7011
  18   2.0000      -6.039851      -164.3527
  19   2.0000      -6.035751      -164.2411
  20   2.0000      -6.032644      -164.1566
  21   2.0000      -6.032249      -164.1458
  22   2.0000      -6.028573      -164.0458
  23   2.0000      -6.024254      -163.9283
  24   2.0000      -1.017466       -27.6867
  25   2.0000      -0.989149       -26.9161
  26   2.0000      -0.909715       -24.7546
  27   2.0000      -0.903282       -24.5795
  28   2.0000      -0.873053       -23.7570
  29   2.0000      -0.853517       -23.2254
  30   2.0000      -0.839324       -22.8392
  31   2.0000      -0.818585       -22.2748
  32   2.0000      -0.779576       -21.2133
  33   2.0000      -0.774003       -21.0617
  34   2.0000      -0.714338       -19.4381
  35   2.0000      -0.698163       -18.9980
  36   2.0000      -0.696088       -18.9415
  37   2.0000      -0.662422       -18.0254
  38   2.0000      -0.643820       -17.5192
  39   2.0000      -0.623552       -16.9677
  40   2.0000      -0.593869       -16.1600
  41   2.0000      -0.571417       -15.5490
  42   2.0000      -0.566680       -15.4201
  43   2.0000      -0.564245       -15.3539
  44   2.0000      -0.528720       -14.3872
  45   2.0000      -0.523503       -14.2452
  46   2.0000      -0.514545       -14.0015
  47   2.0000      -0.513856       -13.9827
  48   2.0000      -0.506657       -13.7868
  49   2.0000      -0.493106       -13.4181
  50   2.0000      -0.490648       -13.3512
  51   2.0000      -0.485409       -13.2086
  52   2.0000      -0.480213       -13.0673
  53   2.0000      -0.467352       -12.7173
  54   2.0000      -0.461329       -12.5534
  55   2.0000      -0.452869       -12.3232
  56   2.0000      -0.444338       -12.0910
  57   2.0000      -0.436970       -11.8906
  58   2.0000      -0.432675       -11.7737
  59   2.0000      -0.428284       -11.6542
  60   2.0000      -0.425858       -11.5882
  61   2.0000      -0.416753       -11.3404
  62   2.0000      -0.407960       -11.1012
  63   2.0000      -0.356242        -9.6938
  64   2.0000      -0.333444        -9.0735
  65   2.0000      -0.326447        -8.8831
  66   2.0000      -0.292524        -7.9600
  67   0.0000       0.029951         0.8150
  68   0.0000       0.086981         2.3669
  69   0.0000       0.102035         2.7765
  70   0.0000       0.122189         3.3249
  71   0.0000       0.129580         3.5261

MULLIKEN ATOMIC CHARGES
-----------------------
   0 S :    0.117465
   1 C :   -0.127593
   2 C :   -0.054671
   3 C :    0.000197
   4 C :   -0.112706
   5 H :   -0.023900
   6 C :    0.023147
   7 H :    0.052524
   8 H :    0.018822
   9 C :   -0.087925
  10 H :    0.042098
  11 H :    0.037333
  12 C :   -0.053248
  13 H :    0.032498
  14 H :    0.040965
  15 H :    0.040182
  16 S :    0.071786
  17 C :   -0.059328
  18 C :   -0.048776
  19 C :   -0.047231
  20 C :   -0.104808
  21 H :    0.028801
  22 C :    0.042248
  23 H :    0.032465
  24 H :    0.024904
  25 C :   -0.106574
  26 H :    0.045960
  27 H :    0.044628
  28 C :   -0.061362
  29 H :    0.039050
  30 H :    0.048149
  31 H :    0.032534
  32 H :    0.039259
  33 H :    0.033106
Sum of atomic charges:   -0.0000000

LOEWDIN ATOMIC CHARGES
----------------------
   0 S :    0.441624
   1 C :   -0.202100
   2 C :   -0.063835
   3 C :   -0.070480
   4 C :   -0.206883
   5 H :    0.026755
   6 C :   -0.033132
   7 H :    0.042060
   8 H :    0.022478
   9 C :   -0.038017
  10 H :    0.027563
  11 H :    0.018027
  12 C :   -0.065481
  13 H :    0.018660
  14 H :    0.038288
  15 H :    0.027951
  16 S :    0.356875
  17 C :   -0.161332
  18 C :   -0.070695
  19 C :   -0.069021
  20 C :   -0.173840
  21 H :    0.035016
  22 C :   -0.023847
  23 H :    0.028818
  24 H :    0.026407
  25 C :   -0.044087
  26 H :    0.032097
  27 H :    0.020536
  28 C :   -0.072062
  29 H :    0.028444
  30 H :    0.030754
  31 H :    0.026390
  32 H :    0.026380
  33 H :    0.019689

  Mayer bond orders larger than 0.100000
B(  0-S ,  1-C ) :   1.1401 B(  0-S ,  4-C ) :   1.1747 B(  1-C ,  2-C ) :   1.6266
B(  1-C , 32-H ) :   0.9713 B(  2-C ,  3-C ) :   1.2540 B(  2-C ,  6-C ) :   0.9880
B(  3-C ,  4-C ) :   1.5639 B(  3-C ,  5-H ) :   0.9940 B(  4-C , 20-C ) :   1.0156
B(  6-C ,  7-H ) :   0.9349 B(  6-C ,  8-H ) :   0.9599 B(  6-C ,  9-C ) :   1.0621
B(  9-C , 10-H ) :   0.9490 B(  9-C , 11-H ) :   0.9592 B(  9-C , 12-C ) :   1.0819
B( 12-C , 13-H ) :   0.9759 B( 12-C , 14-H ) :   0.9745 B( 12-C , 15-H ) :   0.9740
B( 16-S , 17-C ) :   1.1173 B( 16-S , 20-C ) :   1.1025 B( 17-C , 18-C ) :   1.6644
B( 17-C , 33-H ) :   0.9790 B( 18-C , 19-C ) :   1.1940 B( 18-C , 21-H ) :   0.9799
B( 19-C , 20-C ) :   1.6872 B( 19-C , 22-C ) :   1.0213 B( 22-C , 23-H ) :   0.9464
B( 22-C , 24-H ) :   0.9409 B( 22-C , 25-C ) :   1.0487 B( 25-C , 26-H ) :   0.9529
B( 25-C , 27-H ) :   0.9570 B( 25-C , 28-C ) :   1.0660 B( 28-C , 29-H ) :   0.9736
B( 28-C , 30-H ) :   0.9763 B( 28-C , 31-H ) :   0.9739

Dispersion correction           -0.014745743
FINAL SINGLE POINT ENERGY     -1339.874545342016

DIPOLE MOMENT
-------------
                                X             Y             Z
Electronic contribution:     17.19434      -2.35644     -29.93177
Nuclear contribution   :    -17.51711       2.23743      30.72788
                        -----------------------------------------
Total Dipole Moment    :     -0.32277      -0.11901       0.79611
                        -----------------------------------------
Magnitude (a.u.)       :      0.86726
Magnitude (Debye)      :      2.20440

Rotational constants in cm-1:     0.018341     0.009700     0.006558
Rotational constants in MHz :   549.856166   290.788499   196.607926

                             ****ORCA TERMINATED NORMALLY****
TOTAL RUN TIME: 0 days 0 hours 0 minutes 33 seconds 912 msec
