                         Program Version 4.2.1 -  RELEASE  -
|  1> ! wB97X-D3 SP def2-SVP
|  2> %pal
|  3> nprocs 16
|  4> end
|  5>
|  6> * xyz 0 1
|  7> S 	 16.4906 	 37.1725 	 63.2185
|  8> C 	 17.2579 	 38.1223 	 62.0172
|  9> C 	 17.2781 	 37.4797 	 60.7675
| 10> C 	 16.8042 	 36.1287 	 60.8757
| 11> C 	 16.1698 	 35.8456 	 62.08
| 12> H 	 16.7889 	 35.463 	 59.9481
| 13> C 	 17.6424 	 38.1015 	 59.4285
| 14> H 	 18.0325 	 37.2737 	 58.8502
| 15> H 	 18.3708 	 38.9287 	 59.5566
| 16> C 	 16.4224 	 38.4759 	 58.5535
| 17> H 	 15.7597 	 39.0781 	 59.2115
| 18> H 	 16.6405 	 39.175 	 57.7494
| 19> C 	 15.6134 	 37.2638 	 57.8611
| 20> H 	 15.2896 	 36.5404 	 58.5849
| 21> H 	 14.7825 	 37.7481 	 57.295
| 22> H 	 16.39 	 36.7368 	 57.2368
| 23> S 	 13.9023 	 34.464 	 61.8559
| 24> C 	 13.738 	 32.8786 	 62.3418
| 25> C 	 14.9261 	 32.3322 	 62.7477
| 26> C 	 16.0008 	 33.2969 	 62.7504
| 27> C 	 15.5651 	 34.5404 	 62.3571
| 28> H 	 14.856 	 31.3092 	 63.0165
| 29> C 	 17.3946 	 32.9309 	 63.1467
| 30> H 	 17.7332 	 33.718 	 63.8259
| 31> H 	 17.9817 	 33.0668 	 62.1994
| 32> C 	 17.6168 	 31.5891 	 63.8902
| 33> H 	 18.6339 	 31.3496 	 63.9655
| 34> H 	 17.1629 	 30.751 	 63.2939
| 35> C 	 16.8926 	 31.5165 	 65.2083
| 36> H 	 15.8252 	 31.6842 	 65.2249
| 37> H 	 17.3968 	 32.0444 	 66.0442
| 38> H 	 16.9332 	 30.5219 	 65.633
| 39> H 	 17.6302 	 39.0955 	 62.221
| 40> H 	 12.8368 	 32.3745 	 62.4574
| 41> *
| 42>
| 43>                          ****END OF INPUT****

CARTESIAN COORDINATES (ANGSTROEM)
---------------------------------
  S     16.490600   37.172500   63.218500
  C     17.257900   38.122300   62.017200
  C     17.278100   37.479700   60.767500
  C     16.804200   36.128700   60.875700
  C     16.169800   35.845600   62.080000
  H     16.788900   35.463000   59.948100
  C     17.642400   38.101500   59.428500
  H     18.032500   37.273700   58.850200
  H     18.370800   38.928700   59.556600
  C     16.422400   38.475900   58.553500
  H     15.759700   39.078100   59.211500
  H     16.640500   39.175000   57.749400
  C     15.613400   37.263800   57.861100
  H     15.289600   36.540400   58.584900
  H     14.782500   37.748100   57.295000
  H     16.390000   36.736800   57.236800
  S     13.902300   34.464000   61.855900
  C     13.738000   32.878600   62.341800
  C     14.926100   32.332200   62.747700
  C     16.000800   33.296900   62.750400
  C     15.565100   34.540400   62.357100
  H     14.856000   31.309200   63.016500
  C     17.394600   32.930900   63.146700
  H     17.733200   33.718000   63.825900
  H     17.981700   33.066800   62.199400
  C     17.616800   31.589100   63.890200
  H     18.633900   31.349600   63.965500
  H     17.162900   30.751000   63.293900
  C     16.892600   31.516500   65.208300
  H     15.825200   31.684200   65.224900
  H     17.396800   32.044400   66.044200
  H     16.933200   30.521900   65.633000
  H     17.630200   39.095500   62.221000
  H     12.836800   32.374500   62.457400

 Total Charge           Charge          ....    0
 Multiplicity           Mult            ....    1
 Number of Electrons    NEL             ....  134
 Basis Dimension        Dim             ....  322

ORBITAL ENERGIES
----------------

  NO   OCC          E(Eh)            E(eV)
   0   2.0000     -88.968949     -2420.9682
   1   2.0000     -88.957909     -2420.6678
   2   2.0000     -10.331323      -281.1296
   3   2.0000     -10.319091      -280.7967
   4   2.0000     -10.313605      -280.6475
   5   2.0000     -10.304200      -280.3915
   6   2.0000     -10.302032      -280.3325
   7   2.0000     -10.301654      -280.3222
   8   2.0000     -10.301014      -280.3048
   9   2.0000     -10.295751      -280.1616
  10   2.0000     -10.291230      -280.0386
  11   2.0000     -10.290642      -280.0226
  12   2.0000     -10.288257      -279.9577
  13   2.0000     -10.287842      -279.9464
  14   2.0000     -10.285809      -279.8911
  15   2.0000     -10.273275      -279.5500
  16   2.0000      -8.083469      -219.9624
  17   2.0000      -8.074813      -219.7268
  18   2.0000      -6.041945      -164.4097
  19   2.0000      -6.037867      -164.2987
  20   2.0000      -6.034414      -164.2048
  21   2.0000      -6.033017      -164.1668
  22   2.0000      -6.028970      -164.0566
  23   2.0000      -6.025801      -163.9704
  24   2.0000      -1.010747       -27.5038
  25   2.0000      -0.987917       -26.8826
  26   2.0000      -0.911615       -24.8063
  27   2.0000      -0.904392       -24.6098
  28   2.0000      -0.871793       -23.7227
  29   2.0000      -0.850274       -23.1371
  30   2.0000      -0.840074       -22.8596
  31   2.0000      -0.813790       -22.1444
  32   2.0000      -0.783483       -21.3197
  33   2.0000      -0.771543       -20.9947
  34   2.0000      -0.709600       -19.3092
  35   2.0000      -0.698372       -19.0037
  36   2.0000      -0.695636       -18.9292
  37   2.0000      -0.656522       -17.8649
  38   2.0000      -0.641436       -17.4544
  39   2.0000      -0.615852       -16.7582
  40   2.0000      -0.596777       -16.2391
  41   2.0000      -0.569957       -15.5093
  42   2.0000      -0.555970       -15.1287
  43   2.0000      -0.546645       -14.8750
  44   2.0000      -0.541791       -14.7429
  45   2.0000      -0.537295       -14.6205
  46   2.0000      -0.520979       -14.1765
  47   2.0000      -0.508085       -13.8257
  48   2.0000      -0.506583       -13.7848
  49   2.0000      -0.494060       -13.4440
  50   2.0000      -0.491172       -13.3655
  51   2.0000      -0.478955       -13.0330
  52   2.0000      -0.468727       -12.7547
  53   2.0000      -0.464958       -12.6521
  54   2.0000      -0.456724       -12.4281
  55   2.0000      -0.446527       -12.1506
  56   2.0000      -0.442309       -12.0358
  57   2.0000      -0.439605       -11.9623
  58   2.0000      -0.434443       -11.8218
  59   2.0000      -0.423791       -11.5320
  60   2.0000      -0.420225       -11.4349
  61   2.0000      -0.409646       -11.1470
  62   2.0000      -0.408001       -11.1023
  63   2.0000      -0.335470        -9.1286
  64   2.0000      -0.325680        -8.8622
  65   2.0000      -0.316062        -8.6005
  66   2.0000      -0.310852        -8.4587
  67   0.0000       0.047136         1.2826
  68   0.0000       0.055967         1.5229
  69   0.0000       0.114461         3.1147
  70   0.0000       0.126808         3.4506
  71   0.0000       0.130174         3.5422

MULLIKEN ATOMIC CHARGES
-----------------------
   0 S :    0.128166
   1 C :   -0.115800
   2 C :   -0.100345
   3 C :    0.018645
   4 C :   -0.167065
   5 H :    0.044555
   6 C :    0.087426
   7 H :    0.012126
   8 H :    0.037423
   9 C :   -0.095298
  10 H :    0.025848
  11 H :    0.032267
  12 C :   -0.086564
  13 H :    0.045763
  14 H :    0.058650
  15 H :    0.037870
  16 S :    0.117564
  17 C :   -0.054740
  18 C :   -0.068797
  19 C :   -0.021146
  20 C :   -0.205977
  21 H :    0.005276
  22 C :    0.087849
  23 H :    0.029752
  24 H :    0.047597
  25 C :   -0.037127
  26 H :    0.022176
  27 H :    0.027796
  28 C :   -0.065299
  29 H :    0.039696
  30 H :    0.029116
  31 H :    0.014496
  32 H :    0.038723
  33 H :    0.029375
Sum of atomic charges:   -0.0000000

LOEWDIN ATOMIC CHARGES
----------------------
   0 S :    0.418872
   1 C :   -0.202151
   2 C :   -0.066353
   3 C :   -0.061548
   4 C :   -0.210121
   5 H :    0.042565
   6 C :   -0.034818
   7 H :    0.027375
   8 H :    0.035447
   9 C :   -0.044012
  10 H :    0.021385
  11 H :    0.022694
  12 C :   -0.067461
  13 H :    0.018980
  14 H :    0.037049
  15 H :    0.028265
  16 S :    0.447561
  17 C :   -0.198590
  18 C :   -0.080147
  19 C :   -0.047809
  20 C :   -0.211681
  21 H :    0.026059
  22 C :   -0.036616
  23 H :    0.034979
  24 H :    0.043473
  25 C :   -0.038325
  26 H :    0.022336
  27 H :    0.028358
  28 C :   -0.074989
  29 H :    0.026089
  30 H :    0.028035
  31 H :    0.026326
  32 H :    0.021259
  33 H :    0.017515

  Mayer bond orders larger than 0.100000
B(  0-S ,  1-C ) :   1.1648 B(  0-S ,  4-C ) :   1.1413 B(  1-C ,  2-C ) :   1.5759
B(  1-C ,  4-C ) :   0.1022 B(  1-C , 32-H ) :   0.9740 B(  2-C ,  3-C ) :   1.2684
B(  2-C ,  6-C ) :   1.0381 B(  3-C ,  4-C ) :   1.5680 B(  3-C ,  5-H ) :   0.9702
B(  4-C , 20-C ) :   1.0153 B(  6-C ,  7-H ) :   0.9368 B(  6-C ,  8-H ) :   0.9420
B(  6-C ,  9-C ) :   1.0502 B(  9-C , 10-H ) :   0.9564 B(  9-C , 11-H ) :   0.9603
B(  9-C , 12-C ) :   1.0639 B( 12-C , 13-H ) :   0.9742 B( 12-C , 14-H ) :   0.9730
B( 12-C , 15-H ) :   0.9750 B( 16-S , 17-C ) :   1.1879 B( 16-S , 20-C ) :   1.1624
B( 17-C , 18-C ) :   1.6035 B( 17-C , 33-H ) :   0.9683 B( 18-C , 19-C ) :   1.2165
B( 18-C , 21-H ) :   0.9979 B( 19-C , 20-C ) :   1.6106 B( 19-C , 22-C ) :   1.0260
B( 22-C , 23-H ) :   0.9316 B( 22-C , 24-H ) :   0.9253 B( 22-C , 25-C ) :   1.0783
B( 25-C , 26-H ) :   0.9522 B( 25-C , 27-H ) :   0.9495 B( 25-C , 28-C ) :   1.0841
B( 28-C , 29-H ) :   0.9727 B( 28-C , 30-H ) :   0.9700 B( 28-C , 31-H ) :   0.9674

Dispersion correction           -0.014757619
FINAL SINGLE POINT ENERGY     -1339.867341203987

DIPOLE MOMENT
-------------
                                X             Y             Z
Electronic contribution:     -8.56520       6.50665       7.36968
Nuclear contribution   :      8.82652      -6.71277      -7.56880
                        -----------------------------------------
Total Dipole Moment    :      0.26132      -0.20612      -0.19912
                        -----------------------------------------
Magnitude (a.u.)       :      0.38784
Magnitude (Debye)      :      0.98581

Rotational constants in cm-1:     0.022571     0.007843     0.006959
Rotational constants in MHz :   676.658921   235.133827   208.629433

                             ****ORCA TERMINATED NORMALLY****
TOTAL RUN TIME: 0 days 0 hours 0 minutes 34 seconds 857 msec
