                         Program Version 4.2.1 -  RELEASE  -
|  1> ! wB97X-D3 SP def2-SVP
|  2> %pal
|  3> nprocs 16
|  4> end
|  5>
|  6> * xyz 0 1
|  7> S 	 12.6991 	 -0.244952 	 85.0926
|  8> C 	 13.091 	 1.09962 	 84.1135
|  9> C 	 12.3782 	 2.25637 	 84.4037
| 10> C 	 11.2972 	 1.96998 	 85.3764
| 11> C 	 11.4196 	 0.660177 	 85.9366
| 12> H 	 10.5957 	 2.66228 	 85.7735
| 13> C 	 12.4542 	 3.52983 	 83.5314
| 14> H 	 13.4511 	 3.73736 	 83.1343
| 15> H 	 12.0318 	 4.36197 	 84.1262
| 16> C 	 11.5182 	 3.5015 	 82.3962
| 17> H 	 10.6009 	 3.21328 	 82.7525
| 18> H 	 11.4371 	 4.52967 	 82.0769
| 19> C 	 12.0214 	 2.56296 	 81.2982
| 20> H 	 13.1046 	 2.68011 	 81.0386
| 21> H 	 11.9452 	 1.50228 	 81.6207
| 22> H 	 11.4216 	 2.68641 	 80.4112
| 23> S 	 11.4984 	 -0.85308 	 88.2188
| 24> C 	 10.0701 	 -1.13783 	 89.1463
| 25> C 	 9.00738 	 -0.508087 	 88.5303
| 26> C 	 9.27181 	 0.166584 	 87.3287
| 27> C 	 10.6402 	 0.171605 	 87.0516
| 28> H 	 8.04412 	 -0.792753 	 88.9982
| 29> C 	 8.155 	 0.638605 	 86.4576
| 30> H 	 7.69332 	 -0.322511 	 86.1731
| 31> H 	 8.58607 	 0.960957 	 85.5288
| 32> C 	 7.16864 	 1.55936 	 87.2004
| 33> H 	 7.76234 	 2.19365 	 87.8752
| 34> H 	 6.63284 	 0.9349 	 87.8554
| 35> C 	 6.27179 	 2.38384 	 86.2515
| 36> H 	 6.8852 	 2.9819 	 85.5297
| 37> H 	 5.59366 	 3.09567 	 86.8512
| 38> H 	 5.64663 	 1.72618 	 85.6188
| 39> H 	 13.9036 	 1.13936 	 83.4153
| 40> H 	 10.0235 	 -1.75155 	 90.0641
| 41> *
| 42>
| 43>                          ****END OF INPUT****

CARTESIAN COORDINATES (ANGSTROEM)
---------------------------------
  S     12.699100   -0.244952   85.092600
  C     13.091000    1.099620   84.113500
  C     12.378200    2.256370   84.403700
  C     11.297200    1.969980   85.376400
  C     11.419600    0.660177   85.936600
  H     10.595700    2.662280   85.773500
  C     12.454200    3.529830   83.531400
  H     13.451100    3.737360   83.134300
  H     12.031800    4.361970   84.126200
  C     11.518200    3.501500   82.396200
  H     10.600900    3.213280   82.752500
  H     11.437100    4.529670   82.076900
  C     12.021400    2.562960   81.298200
  H     13.104600    2.680110   81.038600
  H     11.945200    1.502280   81.620700
  H     11.421600    2.686410   80.411200
  S     11.498400   -0.853080   88.218800
  C     10.070100   -1.137830   89.146300
  C      9.007380   -0.508087   88.530300
  C      9.271810    0.166584   87.328700
  C     10.640200    0.171605   87.051600
  H      8.044120   -0.792753   88.998200
  C      8.155000    0.638605   86.457600
  H      7.693320   -0.322511   86.173100
  H      8.586070    0.960957   85.528800
  C      7.168640    1.559360   87.200400
  H      7.762340    2.193650   87.875200
  H      6.632840    0.934900   87.855400
  C      6.271790    2.383840   86.251500
  H      6.885200    2.981900   85.529700
  H      5.593660    3.095670   86.851200
  H      5.646630    1.726180   85.618800
  H     13.903600    1.139360   83.415300
  H     10.023500   -1.751550   90.064100

 Total Charge           Charge          ....    0
 Multiplicity           Mult            ....    1
 Number of Electrons    NEL             ....  134
 Basis Dimension        Dim             ....  322

ORBITAL ENERGIES
----------------

  NO   OCC          E(Eh)            E(eV)
   0   2.0000     -88.970779     -2421.0180
   1   2.0000     -88.962610     -2420.7957
   2   2.0000     -10.336186      -281.2619
   3   2.0000     -10.328413      -281.0504
   4   2.0000     -10.317900      -280.7643
   5   2.0000     -10.310843      -280.5723
   6   2.0000     -10.306563      -280.4558
   7   2.0000     -10.303004      -280.3590
   8   2.0000     -10.302427      -280.3433
   9   2.0000     -10.293386      -280.0973
  10   2.0000     -10.291562      -280.0476
  11   2.0000     -10.290498      -280.0187
  12   2.0000     -10.289365      -279.9879
  13   2.0000     -10.288692      -279.9695
  14   2.0000     -10.276865      -279.6477
  15   2.0000     -10.273206      -279.5482
  16   2.0000      -8.085256      -220.0110
  17   2.0000      -8.077618      -219.8032
  18   2.0000      -6.043833      -164.4610
  19   2.0000      -6.039726      -164.3493
  20   2.0000      -6.036090      -164.2504
  21   2.0000      -6.036036      -164.2489
  22   2.0000      -6.031981      -164.1386
  23   2.0000      -6.028505      -164.0440
  24   2.0000      -1.005346       -27.3569
  25   2.0000      -0.982567       -26.7370
  26   2.0000      -0.922882       -25.1129
  27   2.0000      -0.912901       -24.8413
  28   2.0000      -0.870469       -23.6867
  29   2.0000      -0.850969       -23.1560
  30   2.0000      -0.841178       -22.8896
  31   2.0000      -0.808151       -21.9909
  32   2.0000      -0.782291       -21.2872
  33   2.0000      -0.774558       -21.0768
  34   2.0000      -0.712042       -19.3757
  35   2.0000      -0.704353       -19.1664
  36   2.0000      -0.691793       -18.8246
  37   2.0000      -0.657180       -17.8828
  38   2.0000      -0.639107       -17.3910
  39   2.0000      -0.619807       -16.8658
  40   2.0000      -0.596244       -16.2246
  41   2.0000      -0.571554       -15.5528
  42   2.0000      -0.563732       -15.3399
  43   2.0000      -0.552705       -15.0399
  44   2.0000      -0.542240       -14.7551
  45   2.0000      -0.530949       -14.4478
  46   2.0000      -0.515927       -14.0391
  47   2.0000      -0.509052       -13.8520
  48   2.0000      -0.503196       -13.6927
  49   2.0000      -0.496059       -13.4985
  50   2.0000      -0.486138       -13.2285
  51   2.0000      -0.485323       -13.2063
  52   2.0000      -0.469659       -12.7801
  53   2.0000      -0.468082       -12.7372
  54   2.0000      -0.455424       -12.3927
  55   2.0000      -0.448212       -12.1965
  56   2.0000      -0.444646       -12.0994
  57   2.0000      -0.440559       -11.9882
  58   2.0000      -0.437287       -11.8992
  59   2.0000      -0.427013       -11.6196
  60   2.0000      -0.425380       -11.5752
  61   2.0000      -0.415316       -11.3013
  62   2.0000      -0.409840       -11.1523
  63   2.0000      -0.353909        -9.6304
  64   2.0000      -0.329986        -8.9794
  65   2.0000      -0.328170        -8.9300
  66   2.0000      -0.284211        -7.7338
  67   0.0000       0.024992         0.6801
  68   0.0000       0.072783         1.9805
  69   0.0000       0.113173         3.0796
  70   0.0000       0.117750         3.2041
  71   0.0000       0.121874         3.3164

MULLIKEN ATOMIC CHARGES
-----------------------
   0 S :    0.128995
   1 C :   -0.099367
   2 C :   -0.098996
   3 C :    0.021941
   4 C :   -0.153344
   5 H :    0.011822
   6 C :    0.033351
   7 H :    0.026274
   8 H :    0.023833
   9 C :    0.007083
  10 H :   -0.001654
  11 H :    0.023355
  12 C :   -0.080067
  13 H :    0.025115
  14 H :    0.046174
  15 H :    0.033679
  16 S :    0.094022
  17 C :   -0.111853
  18 C :   -0.062358
  19 C :   -0.042765
  20 C :   -0.164194
  21 H :    0.029495
  22 C :    0.094742
  23 H :    0.037679
  24 H :    0.004942
  25 C :   -0.060391
  26 H :    0.035530
  27 H :    0.020678
  28 C :   -0.062761
  29 H :    0.037548
  30 H :    0.050233
  31 H :    0.035379
  32 H :    0.043055
  33 H :    0.072825
Sum of atomic charges:   -0.0000000

LOEWDIN ATOMIC CHARGES
----------------------
   0 S :    0.414190
   1 C :   -0.211682
   2 C :   -0.057695
   3 C :   -0.056685
   4 C :   -0.189751
   5 H :    0.024479
   6 C :   -0.030133
   7 H :    0.028140
   8 H :    0.033911
   9 C :   -0.032615
  10 H :    0.013130
  11 H :    0.024028
  12 C :   -0.070058
  13 H :    0.024644
  14 H :    0.030920
  15 H :    0.022897
  16 S :    0.402390
  17 C :   -0.195109
  18 C :   -0.085280
  19 C :   -0.056410
  20 C :   -0.194094
  21 H :    0.036091
  22 C :   -0.029996
  23 H :    0.040588
  24 H :    0.023290
  25 C :   -0.037230
  26 H :    0.027490
  27 H :    0.017848
  28 C :   -0.070869
  29 H :    0.027931
  30 H :    0.035327
  31 H :    0.026453
  32 H :    0.024918
  33 H :    0.038940

  Mayer bond orders larger than 0.100000
B(  0-S ,  1-C ) :   1.1402 B(  0-S ,  4-C ) :   1.1405 B(  1-C ,  2-C ) :   1.6200
B(  1-C , 32-H ) :   0.9594 B(  2-C ,  3-C ) :   1.2279 B(  2-C ,  6-C ) :   1.0458
B(  3-C ,  4-C ) :   1.5540 B(  3-C ,  5-H ) :   0.9919 B(  4-C , 20-C ) :   1.0927
B(  6-C ,  7-H ) :   0.9457 B(  6-C ,  8-H ) :   0.9364 B(  6-C ,  9-C ) :   1.0786
B(  9-C , 10-H ) :   0.9428 B(  9-C , 11-H ) :   0.9537 B(  9-C , 12-C ) :   1.0793
B( 12-C , 13-H ) :   0.9756 B( 12-C , 14-H ) :   0.9692 B( 12-C , 15-H ) :   0.9735
B( 16-S , 17-C ) :   1.1636 B( 16-S , 20-C ) :   1.1377 B( 17-C , 18-C ) :   1.6013
B( 17-C , 20-C ) :   0.1022 B( 17-C , 33-H ) :   0.9643 B( 18-C , 19-C ) :   1.2447
B( 18-C , 21-H ) :   0.9850 B( 19-C , 20-C ) :   1.5541 B( 19-C , 22-C ) :   1.0459
B( 22-C , 23-H ) :   0.9248 B( 22-C , 24-H ) :   0.9331 B( 22-C , 25-C ) :   1.0324
B( 25-C , 26-H ) :   0.9665 B( 25-C , 27-H ) :   0.9482 B( 25-C , 28-C ) :   1.0811
B( 28-C , 29-H ) :   0.9772 B( 28-C , 30-H ) :   0.9751 B( 28-C , 31-H ) :   0.9728

Dispersion correction           -0.014203641
FINAL SINGLE POINT ENERGY     -1339.875669832244

DIPOLE MOMENT
-------------
                                X             Y             Z
Electronic contribution:     16.50392     -17.83799      15.32466
Nuclear contribution   :    -17.05089      18.11280     -15.51988
                        -----------------------------------------
Total Dipole Moment    :     -0.54697       0.27481      -0.19522
                        -----------------------------------------
Magnitude (a.u.)       :      0.64250
Magnitude (Debye)      :      1.63310

Rotational constants in cm-1:     0.017931     0.009046     0.006403
Rotational constants in MHz :   537.571122   271.188045   191.958237

                             ****ORCA TERMINATED NORMALLY****
TOTAL RUN TIME: 0 days 0 hours 0 minutes 34 seconds 939 msec
