                         Program Version 4.2.1 -  RELEASE  -
|  1> ! wB97X-D3 SP def2-SVP
|  2> %pal
|  3> nprocs 16
|  4> end
|  5>
|  6> * xyz 0 1
|  7> S 	 -18.0591 	 37.7177 	 58.2151
|  8> C 	 -16.98 	 37.0201 	 57.0096
|  9> C 	 -17.7315 	 36.5868 	 55.9033
| 10> C 	 -19.153 	 36.7889 	 56.0072
| 11> C 	 -19.4977 	 37.3252 	 57.2456
| 12> H 	 -19.809 	 36.6309 	 55.1911
| 13> C 	 -17.139 	 35.9904 	 54.6733
| 14> H 	 -17.86 	 35.3021 	 54.208
| 15> H 	 -16.3034 	 35.3304 	 55.0448
| 16> C 	 -16.8202 	 36.9523 	 53.4916
| 17> H 	 -16.2019 	 36.5034 	 52.6958
| 18> H 	 -17.7767 	 37.3114 	 53.0705
| 19> C 	 -16.0547 	 38.1498 	 53.99
| 20> H 	 -15.6813 	 38.4866 	 53.0548
| 21> H 	 -16.6581 	 38.8398 	 54.4909
| 22> H 	 -15.1008 	 37.9937 	 54.5511
| 23> S 	 -21.1396 	 39.2071 	 58.2882
| 24> C 	 -22.7562 	 38.8673 	 58.6605
| 25> C 	 -23.1306 	 37.5849 	 58.2846
| 26> C 	 -22.0097 	 36.7805 	 57.8488
| 27> C 	 -20.8021 	 37.537 	 57.7834
| 28> H 	 -24.1416 	 37.2976 	 58.3874
| 29> C 	 -22.2295 	 35.3806 	 57.3173
| 30> H 	 -22.808 	 34.8142 	 58.0118
| 31> H 	 -21.2791 	 34.9349 	 57.2136
| 32> C 	 -22.9401 	 35.2998 	 55.925
| 33> H 	 -22.2523 	 35.7734 	 55.3307
| 34> H 	 -23.8411 	 35.9105 	 56.0634
| 35> C 	 -23.1635 	 33.8133 	 55.4179
| 36> H 	 -23.7699 	 33.1194 	 56.0551
| 37> H 	 -22.1472 	 33.4385 	 55.2684
| 38> H 	 -23.7379 	 33.9353 	 54.5537
| 39> H 	 -15.9121 	 37.1295 	 56.8913
| 40> H 	 -23.5219 	 39.5412 	 58.8484
| 41> *
| 42>
| 43>                          ****END OF INPUT****

CARTESIAN COORDINATES (ANGSTROEM)
---------------------------------
  S    -18.059100   37.717700   58.215100
  C    -16.980000   37.020100   57.009600
  C    -17.731500   36.586800   55.903300
  C    -19.153000   36.788900   56.007200
  C    -19.497700   37.325200   57.245600
  H    -19.809000   36.630900   55.191100
  C    -17.139000   35.990400   54.673300
  H    -17.860000   35.302100   54.208000
  H    -16.303400   35.330400   55.044800
  C    -16.820200   36.952300   53.491600
  H    -16.201900   36.503400   52.695800
  H    -17.776700   37.311400   53.070500
  C    -16.054700   38.149800   53.990000
  H    -15.681300   38.486600   53.054800
  H    -16.658100   38.839800   54.490900
  H    -15.100800   37.993700   54.551100
  S    -21.139600   39.207100   58.288200
  C    -22.756200   38.867300   58.660500
  C    -23.130600   37.584900   58.284600
  C    -22.009700   36.780500   57.848800
  C    -20.802100   37.537000   57.783400
  H    -24.141600   37.297600   58.387400
  C    -22.229500   35.380600   57.317300
  H    -22.808000   34.814200   58.011800
  H    -21.279100   34.934900   57.213600
  C    -22.940100   35.299800   55.925000
  H    -22.252300   35.773400   55.330700
  H    -23.841100   35.910500   56.063400
  C    -23.163500   33.813300   55.417900
  H    -23.769900   33.119400   56.055100
  H    -22.147200   33.438500   55.268400
  H    -23.737900   33.935300   54.553700
  H    -15.912100   37.129500   56.891300
  H    -23.521900   39.541200   58.848400

 Total Charge           Charge          ....    0
 Multiplicity           Mult            ....    1
 Number of Electrons    NEL             ....  134
 Basis Dimension        Dim             ....  322

ORBITAL ENERGIES
----------------

  NO   OCC          E(Eh)            E(eV)
   0   2.0000     -88.968652     -2420.9601
   1   2.0000     -88.965308     -2420.8691
   2   2.0000     -10.333896      -281.1996
   3   2.0000     -10.329410      -281.0775
   4   2.0000     -10.315710      -280.7047
   5   2.0000     -10.310879      -280.5733
   6   2.0000     -10.310047      -280.5506
   7   2.0000     -10.301202      -280.3100
   8   2.0000     -10.296477      -280.1814
   9   2.0000     -10.291721      -280.0520
  10   2.0000     -10.291691      -280.0512
  11   2.0000     -10.291099      -280.0350
  12   2.0000     -10.285980      -279.8958
  13   2.0000     -10.284542      -279.8566
  14   2.0000     -10.282094      -279.7900
  15   2.0000     -10.266578      -279.3678
  16   2.0000      -8.082459      -219.9349
  17   2.0000      -8.080703      -219.8871
  18   2.0000      -6.041165      -164.3885
  19   2.0000      -6.039078      -164.3317
  20   2.0000      -6.037006      -164.2753
  21   2.0000      -6.035013      -164.2211
  22   2.0000      -6.033142      -164.1701
  23   2.0000      -6.031657      -164.1297
  24   2.0000      -1.004400       -27.3311
  25   2.0000      -0.980573       -26.6827
  26   2.0000      -0.913889       -24.8682
  27   2.0000      -0.908108       -24.7109
  28   2.0000      -0.871686       -23.7198
  29   2.0000      -0.851858       -23.1802
  30   2.0000      -0.846666       -23.0390
  31   2.0000      -0.814910       -22.1748
  32   2.0000      -0.784319       -21.3424
  33   2.0000      -0.772243       -21.0138
  34   2.0000      -0.714219       -19.4349
  35   2.0000      -0.700213       -19.0538
  36   2.0000      -0.693215       -18.8633
  37   2.0000      -0.661550       -18.0017
  38   2.0000      -0.636120       -17.3097
  39   2.0000      -0.622163       -16.9299
  40   2.0000      -0.594658       -16.1815
  41   2.0000      -0.574557       -15.6345
  42   2.0000      -0.570401       -15.5214
  43   2.0000      -0.558621       -15.2008
  44   2.0000      -0.539410       -14.6781
  45   2.0000      -0.526324       -14.3220
  46   2.0000      -0.521202       -14.1826
  47   2.0000      -0.511930       -13.9303
  48   2.0000      -0.508072       -13.8253
  49   2.0000      -0.505766       -13.7626
  50   2.0000      -0.495291       -13.4776
  51   2.0000      -0.477199       -12.9852
  52   2.0000      -0.466712       -12.6999
  53   2.0000      -0.465742       -12.6735
  54   2.0000      -0.459382       -12.5004
  55   2.0000      -0.454116       -12.3571
  56   2.0000      -0.449973       -12.2444
  57   2.0000      -0.432202       -11.7608
  58   2.0000      -0.428332       -11.6555
  59   2.0000      -0.426464       -11.6047
  60   2.0000      -0.421444       -11.4681
  61   2.0000      -0.417060       -11.3488
  62   2.0000      -0.406266       -11.0550
  63   2.0000      -0.344816        -9.3829
  64   2.0000      -0.329294        -8.9605
  65   2.0000      -0.327417        -8.9095
  66   2.0000      -0.290792        -7.9128
  67   0.0000       0.023965         0.6521
  68   0.0000       0.064106         1.7444
  69   0.0000       0.111163         3.0249
  70   0.0000       0.114414         3.1134
  71   0.0000       0.125079         3.4036

MULLIKEN ATOMIC CHARGES
-----------------------
   0 S :    0.113727
   1 C :   -0.097476
   2 C :   -0.130596
   3 C :    0.044359
   4 C :   -0.136825
   5 H :    0.006189
   6 C :    0.027026
   7 H :    0.020001
   8 H :    0.042040
   9 C :   -0.068243
  10 H :    0.039173
  11 H :    0.031629
  12 C :   -0.039792
  13 H :    0.013193
  14 H :    0.043437
  15 H :    0.026969
  16 S :    0.110056
  17 C :   -0.041676
  18 C :   -0.063690
  19 C :   -0.021636
  20 C :   -0.167200
  21 H :    0.009634
  22 C :    0.082786
  23 H :    0.015336
  24 H :    0.008616
  25 C :   -0.069364
  26 H :    0.005318
  27 H :    0.028040
  28 C :   -0.031149
  29 H :    0.041288
  30 H :    0.041541
  31 H :    0.030969
  32 H :    0.050161
  33 H :    0.036157
Sum of atomic charges:    0.0000000

LOEWDIN ATOMIC CHARGES
----------------------
   0 S :    0.397736
   1 C :   -0.202223
   2 C :   -0.061059
   3 C :   -0.056735
   4 C :   -0.186088
   5 H :    0.026314
   6 C :   -0.048020
   7 H :    0.028257
   8 H :    0.037784
   9 C :   -0.035387
  10 H :    0.028756
  11 H :    0.028611
  12 C :   -0.067795
  13 H :    0.023433
  14 H :    0.018956
  15 H :    0.026791
  16 S :    0.424868
  17 C :   -0.192746
  18 C :   -0.068338
  19 C :   -0.041405
  20 C :   -0.202068
  21 H :    0.024241
  22 C :   -0.028163
  23 H :    0.024043
  24 H :    0.020552
  25 C :   -0.024004
  26 H :    0.009099
  27 H :    0.021962
  28 C :   -0.059254
  29 H :    0.030921
  30 H :    0.030419
  31 H :    0.020725
  32 H :    0.030347
  33 H :    0.019469

  Mayer bond orders larger than 0.100000
B(  0-S ,  1-C ) :   1.1254 B(  0-S ,  4-C ) :   1.1513 B(  1-C ,  2-C ) :   1.6027
B(  1-C ,  4-C ) :   0.1008 B(  1-C , 32-H ) :   0.9636 B(  2-C ,  3-C ) :   1.2441
B(  2-C ,  6-C ) :   1.0332 B(  3-C ,  4-C ) :   1.5430 B(  3-C ,  5-H ) :   1.0024
B(  4-C , 20-C ) :   1.0531 B(  6-C ,  7-H ) :   0.9430 B(  6-C ,  8-H ) :   0.9456
B(  6-C ,  9-C ) :   1.0602 B(  9-C , 10-H ) :   0.9638 B(  9-C , 11-H ) :   0.9501
B(  9-C , 12-C ) :   1.0808 B( 12-C , 13-H ) :   0.9724 B( 12-C , 14-H ) :   0.9713
B( 12-C , 15-H ) :   0.9737 B( 16-S , 17-C ) :   1.1747 B( 16-S , 20-C ) :   1.1471
B( 17-C , 18-C ) :   1.6011 B( 17-C , 33-H ) :   0.9681 B( 18-C , 19-C ) :   1.2403
B( 18-C , 21-H ) :   0.9940 B( 19-C , 20-C ) :   1.5528 B( 19-C , 22-C ) :   1.0682
B( 22-C , 23-H ) :   0.9298 B( 22-C , 24-H ) :   0.9308 B( 22-C , 25-C ) :   1.0553
B( 25-C , 26-H ) :   0.9574 B( 25-C , 27-H ) :   0.9593 B( 25-C , 28-C ) :   1.0685
B( 28-C , 29-H ) :   0.9781 B( 28-C , 30-H ) :   0.9753 B( 28-C , 31-H ) :   0.9755

Dispersion correction           -0.014562965
FINAL SINGLE POINT ENERGY     -1339.855348623714

DIPOLE MOMENT
-------------
                                X             Y             Z
Electronic contribution:      0.09665      14.88388      21.49622
Nuclear contribution   :     -0.37797     -15.15090     -22.21372
                        -----------------------------------------
Total Dipole Moment    :     -0.28132      -0.26702      -0.71750
                        -----------------------------------------
Magnitude (a.u.)       :      0.81563
Magnitude (Debye)      :      2.07316

Rotational constants in cm-1:     0.017796     0.008987     0.006755
Rotational constants in MHz :   533.501548   269.420635   202.505326

                             ****ORCA TERMINATED NORMALLY****
TOTAL RUN TIME: 0 days 0 hours 0 minutes 34 seconds 832 msec
