                         Program Version 4.2.1 -  RELEASE  -
|  1> ! wB97X-D3 SP def2-SVP
|  2> %pal
|  3> nprocs 16
|  4> end
|  5>
|  6> * xyz 0 1
|  7> S 	 -0.517504 	 -10.8192 	 76.7919
|  8> C 	 -1.31032 	 -12.1865 	 77.4314
|  9> C 	 -1.5053 	 -12.1355 	 78.8076
| 10> C 	 -0.964259 	 -10.918 	 79.3975
| 11> C 	 -0.724103 	 -9.94589 	 78.3723
| 12> H 	 -1.08542 	 -10.7244 	 80.4228
| 13> C 	 -2.21472 	 -13.2443 	 79.5623
| 14> H 	 -1.92257 	 -13.3161 	 80.6553
| 15> H 	 -1.93033 	 -14.2268 	 79.1727
| 16> C 	 -3.73359 	 -13.1773 	 79.6173
| 17> H 	 -4.25 	 -12.9909 	 78.6969
| 18> H 	 -4.14049 	 -14.0929 	 79.9133
| 19> C 	 -4.34885 	 -12.1713 	 80.5096
| 20> H 	 -4.10862 	 -11.1663 	 80.2001
| 21> H 	 -5.42429 	 -12.3159 	 80.4663
| 22> H 	 -3.92481 	 -12.2747 	 81.5684
| 23> S 	 1.27767 	 -8.01724 	 78.5188
| 24> C 	 0.800373 	 -6.38511 	 78.9283
| 25> C 	 -0.458592 	 -6.26173 	 79.2587
| 26> C 	 -1.10651 	 -7.52479 	 79.1779
| 27> C 	 -0.343627 	 -8.54616 	 78.6605
| 28> H 	 -0.755419 	 -5.39315 	 79.7427
| 29> C 	 -2.53564 	 -7.7812 	 79.5828
| 30> H 	 -2.64526 	 -7.20287 	 80.5221
| 31> H 	 -2.58188 	 -8.87376 	 79.6763
| 32> C 	 -3.72384 	 -7.35215 	 78.5988
| 33> H 	 -3.51749 	 -7.7055 	 77.5579
| 34> H 	 -3.88441 	 -6.27721 	 78.5627
| 35> C 	 -5.01699 	 -7.89969 	 79.1442
| 36> H 	 -5.7568 	 -7.28251 	 78.6834
| 37> H 	 -4.97878 	 -7.84632 	 80.1906
| 38> H 	 -5.21108 	 -9.00136 	 78.9426
| 39> H 	 -1.74023 	 -12.9884 	 76.8913
| 40> H 	 1.45802 	 -5.47235 	 78.8643
| 41> *
| 42>
| 43>                          ****END OF INPUT****

CARTESIAN COORDINATES (ANGSTROEM)
---------------------------------
  S     -0.517504  -10.819200   76.791900
  C     -1.310320  -12.186500   77.431400
  C     -1.505300  -12.135500   78.807600
  C     -0.964259  -10.918000   79.397500
  C     -0.724103   -9.945890   78.372300
  H     -1.085420  -10.724400   80.422800
  C     -2.214720  -13.244300   79.562300
  H     -1.922570  -13.316100   80.655300
  H     -1.930330  -14.226800   79.172700
  C     -3.733590  -13.177300   79.617300
  H     -4.250000  -12.990900   78.696900
  H     -4.140490  -14.092900   79.913300
  C     -4.348850  -12.171300   80.509600
  H     -4.108620  -11.166300   80.200100
  H     -5.424290  -12.315900   80.466300
  H     -3.924810  -12.274700   81.568400
  S      1.277670   -8.017240   78.518800
  C      0.800373   -6.385110   78.928300
  C     -0.458592   -6.261730   79.258700
  C     -1.106510   -7.524790   79.177900
  C     -0.343627   -8.546160   78.660500
  H     -0.755419   -5.393150   79.742700
  C     -2.535640   -7.781200   79.582800
  H     -2.645260   -7.202870   80.522100
  H     -2.581880   -8.873760   79.676300
  C     -3.723840   -7.352150   78.598800
  H     -3.517490   -7.705500   77.557900
  H     -3.884410   -6.277210   78.562700
  C     -5.016990   -7.899690   79.144200
  H     -5.756800   -7.282510   78.683400
  H     -4.978780   -7.846320   80.190600
  H     -5.211080   -9.001360   78.942600
  H     -1.740230  -12.988400   76.891300
  H      1.458020   -5.472350   78.864300

 Total Charge           Charge          ....    0
 Multiplicity           Mult            ....    1
 Number of Electrons    NEL             ....  134
 Basis Dimension        Dim             ....  322

ORBITAL ENERGIES
----------------

  NO   OCC          E(Eh)            E(eV)
   0   2.0000     -88.972491     -2421.0646
   1   2.0000     -88.960053     -2420.7261
   2   2.0000     -10.342373      -281.4303
   3   2.0000     -10.318990      -280.7940
   4   2.0000     -10.311709      -280.5959
   5   2.0000     -10.310438      -280.5613
   6   2.0000     -10.304251      -280.3929
   7   2.0000     -10.303800      -280.3807
   8   2.0000     -10.298676      -280.2412
   9   2.0000     -10.295481      -280.1543
  10   2.0000     -10.288944      -279.9764
  11   2.0000     -10.285279      -279.8767
  12   2.0000     -10.279744      -279.7261
  13   2.0000     -10.276969      -279.6505
  14   2.0000     -10.274372      -279.5799
  15   2.0000     -10.270007      -279.4611
  16   2.0000      -8.086587      -220.0472
  17   2.0000      -8.075942      -219.7576
  18   2.0000      -6.045127      -164.4963
  19   2.0000      -6.041296      -164.3920
  20   2.0000      -6.037234      -164.2815
  21   2.0000      -6.034470      -164.2063
  22   2.0000      -6.030392      -164.0953
  23   2.0000      -6.026511      -163.9897
  24   2.0000      -1.010680       -27.5020
  25   2.0000      -0.985976       -26.8298
  26   2.0000      -0.917622       -24.9698
  27   2.0000      -0.902141       -24.5485
  28   2.0000      -0.876779       -23.8584
  29   2.0000      -0.854585       -23.2544
  30   2.0000      -0.851262       -23.1640
  31   2.0000      -0.822132       -22.3714
  32   2.0000      -0.780588       -21.2409
  33   2.0000      -0.761038       -20.7089
  34   2.0000      -0.705124       -19.1874
  35   2.0000      -0.696646       -18.9567
  36   2.0000      -0.689853       -18.7719
  37   2.0000      -0.660465       -17.9722
  38   2.0000      -0.642947       -17.4955
  39   2.0000      -0.617396       -16.8002
  40   2.0000      -0.590590       -16.0708
  41   2.0000      -0.582712       -15.8564
  42   2.0000      -0.563094       -15.3226
  43   2.0000      -0.559140       -15.2150
  44   2.0000      -0.545764       -14.8510
  45   2.0000      -0.529406       -14.4059
  46   2.0000      -0.514834       -14.0093
  47   2.0000      -0.511369       -13.9151
  48   2.0000      -0.503136       -13.6910
  49   2.0000      -0.499603       -13.5949
  50   2.0000      -0.483388       -13.1536
  51   2.0000      -0.479524       -13.0485
  52   2.0000      -0.472966       -12.8701
  53   2.0000      -0.469108       -12.7651
  54   2.0000      -0.461197       -12.5498
  55   2.0000      -0.442998       -12.0546
  56   2.0000      -0.442481       -12.0405
  57   2.0000      -0.437711       -11.9107
  58   2.0000      -0.430899       -11.7254
  59   2.0000      -0.425899       -11.5893
  60   2.0000      -0.417464       -11.3598
  61   2.0000      -0.412996       -11.2382
  62   2.0000      -0.411987       -11.2107
  63   2.0000      -0.345345        -9.3973
  64   2.0000      -0.332182        -9.0391
  65   2.0000      -0.320875        -8.7314
  66   2.0000      -0.296788        -8.0760
  67   0.0000       0.029511         0.8030
  68   0.0000       0.059657         1.6234
  69   0.0000       0.108231         2.9451
  70   0.0000       0.117274         3.1912
  71   0.0000       0.132402         3.6028

MULLIKEN ATOMIC CHARGES
-----------------------
   0 S :    0.132504
   1 C :   -0.078183
   2 C :   -0.115094
   3 C :    0.088581
   4 C :   -0.193305
   5 H :    0.014629
   6 C :    0.046198
   7 H :    0.026539
   8 H :    0.027881
   9 C :   -0.025248
  10 H :    0.008737
  11 H :    0.006048
  12 C :   -0.067670
  13 H :    0.028290
  14 H :    0.038510
  15 H :    0.023951
  16 S :    0.106476
  17 C :   -0.099968
  18 C :    0.009249
  19 C :   -0.060215
  20 C :   -0.154134
  21 H :   -0.003037
  22 C :    0.038491
  23 H :    0.028441
  24 H :    0.027479
  25 C :   -0.075578
  26 H :    0.038724
  27 H :    0.024456
  28 C :   -0.028528
  29 H :    0.029414
  30 H :    0.015483
  31 H :    0.041680
  32 H :    0.033076
  33 H :    0.066125
Sum of atomic charges:    0.0000000

LOEWDIN ATOMIC CHARGES
----------------------
   0 S :    0.407606
   1 C :   -0.203151
   2 C :   -0.064065
   3 C :   -0.038150
   4 C :   -0.177013
   5 H :    0.023723
   6 C :   -0.035757
   7 H :    0.037102
   8 H :    0.032492
   9 C :   -0.045849
  10 H :    0.021883
  11 H :    0.017496
  12 C :   -0.062401
  13 H :    0.016827
  14 H :    0.029149
  15 H :    0.025016
  16 S :    0.409300
  17 C :   -0.177696
  18 C :   -0.073811
  19 C :   -0.055870
  20 C :   -0.223008
  21 H :    0.027457
  22 C :   -0.037158
  23 H :    0.032849
  24 H :    0.029586
  25 C :   -0.037279
  26 H :    0.028472
  27 H :    0.020343
  28 C :   -0.063424
  29 H :    0.024395
  30 H :    0.016101
  31 H :    0.030760
  32 H :    0.023119
  33 H :    0.040954

  Mayer bond orders larger than 0.100000
B(  0-S ,  1-C ) :   1.1475 B(  0-S ,  4-C ) :   1.1410 B(  1-C ,  2-C ) :   1.6161
B(  1-C , 32-H ) :   0.9639 B(  2-C ,  3-C ) :   1.2496 B(  2-C ,  6-C ) :   1.0293
B(  3-C ,  4-C ) :   1.5500 B(  3-C ,  5-H ) :   0.9834 B(  4-C , 20-C ) :   1.0335
B(  6-C ,  7-H ) :   0.9429 B(  6-C ,  8-H ) :   0.9404 B(  6-C ,  9-C ) :   1.0723
B(  9-C , 10-H ) :   0.9485 B(  9-C , 11-H ) :   0.9487 B(  9-C , 12-C ) :   1.0917
B( 12-C , 13-H ) :   0.9754 B( 12-C , 14-H ) :   0.9706 B( 12-C , 15-H ) :   0.9681
B( 16-S , 17-C ) :   1.1478 B( 16-S , 20-C ) :   1.1324 B( 17-C , 18-C ) :   1.6600
B( 17-C , 33-H ) :   0.9501 B( 18-C , 19-C ) :   1.2154 B( 18-C , 21-H ) :   1.0013
B( 19-C , 20-C ) :   1.6271 B( 19-C , 22-C ) :   1.0528 B( 22-C , 23-H ) :   0.9229
B( 22-C , 24-H ) :   0.9296 B( 22-C , 25-C ) :   1.0718 B( 25-C , 26-H ) :   0.9552
B( 25-C , 27-H ) :   0.9583 B( 25-C , 28-C ) :   1.0784 B( 28-C , 29-H ) :   0.9751
B( 28-C , 30-H ) :   0.9714 B( 28-C , 31-H ) :   0.9720

Dispersion correction           -0.015228961
FINAL SINGLE POINT ENERGY     -1339.846890493411

DIPOLE MOMENT
-------------
                                X             Y             Z
Electronic contribution:     28.25056       5.35445     -12.24659
Nuclear contribution   :    -28.80780      -5.41052      12.62389
                        -----------------------------------------
Total Dipole Moment    :     -0.55723      -0.05607       0.37730
                        -----------------------------------------
Magnitude (a.u.)       :      0.67528
Magnitude (Debye)      :      1.71644

Rotational constants in cm-1:     0.017733     0.010019     0.007413
Rotational constants in MHz :   531.628579   300.373293   222.249910

                             ****ORCA TERMINATED NORMALLY****
TOTAL RUN TIME: 0 days 0 hours 0 minutes 36 seconds 748 msec
