                         Program Version 4.2.1 -  RELEASE  -
|  1> ! wB97X-D3 SP def2-SVP
|  2> %pal
|  3> nprocs 16
|  4> end
|  5>
|  6> * xyz 0 1
|  7> S 	 0.44978 	 -11.702 	 80.3052
|  8> C 	 0.0554479 	 -11.9222 	 82.0151
|  9> C 	 -1.08643 	 -11.2294 	 82.3146
| 10> C 	 -1.56839 	 -10.4333 	 81.1887
| 11> C 	 -0.78932 	 -10.4924 	 80.0355
| 12> H 	 -2.4303 	 -9.78146 	 81.1963
| 13> C 	 -1.83532 	 -11.2797 	 83.5685
| 14> H 	 -2.41599 	 -10.4108 	 83.6315
| 15> H 	 -1.15995 	 -11.2695 	 84.3338
| 16> C 	 -2.79915 	 -12.4147 	 83.8117
| 17> H 	 -3.52697 	 -12.2736 	 83.0281
| 18> H 	 -2.28494 	 -13.3875 	 83.6567
| 19> C 	 -3.45639 	 -12.3998 	 85.1677
| 20> H 	 -4.11066 	 -11.5149 	 85.4389
| 21> H 	 -4.0041 	 -13.2453 	 85.4164
| 22> H 	 -2.65411 	 -12.4429 	 85.8552
| 23> S 	 -0.475176 	 -10.3893 	 77.358
| 24> C 	 -0.809652 	 -8.96937 	 76.4714
| 25> C 	 -1.08302 	 -7.92061 	 77.3115
| 26> C 	 -1.13931 	 -8.31063 	 78.6693
| 27> C 	 -0.842318 	 -9.64707 	 78.8879
| 28> H 	 -1.19307 	 -6.89633 	 76.8666
| 29> C 	 -1.58541 	 -7.30774 	 79.7413
| 30> H 	 -2.42483 	 -7.75571 	 80.2589
| 31> H 	 -2.03708 	 -6.49929 	 79.1786
| 32> C 	 -0.457923 	 -6.75777 	 80.6044
| 33> H 	 0.304148 	 -6.36782 	 79.9991
| 34> H 	 -0.179869 	 -7.60254 	 81.2512
| 35> C 	 -0.967337 	 -5.54149 	 81.3527
| 36> H 	 -0.904384 	 -4.6664 	 80.7237
| 37> H 	 -0.211532 	 -5.501 	 82.1103
| 38> H 	 -1.99184 	 -5.7446 	 81.7127
| 39> H 	 0.696752 	 -12.5981 	 82.6136
| 40> H 	 -0.516396 	 -8.81986 	 75.4068
| 41> *
| 42>
| 43>                          ****END OF INPUT****

CARTESIAN COORDINATES (ANGSTROEM)
---------------------------------
  S      0.449780  -11.702000   80.305200
  C      0.055448  -11.922200   82.015100
  C     -1.086430  -11.229400   82.314600
  C     -1.568390  -10.433300   81.188700
  C     -0.789320  -10.492400   80.035500
  H     -2.430300   -9.781460   81.196300
  C     -1.835320  -11.279700   83.568500
  H     -2.415990  -10.410800   83.631500
  H     -1.159950  -11.269500   84.333800
  C     -2.799150  -12.414700   83.811700
  H     -3.526970  -12.273600   83.028100
  H     -2.284940  -13.387500   83.656700
  C     -3.456390  -12.399800   85.167700
  H     -4.110660  -11.514900   85.438900
  H     -4.004100  -13.245300   85.416400
  H     -2.654110  -12.442900   85.855200
  S     -0.475176  -10.389300   77.358000
  C     -0.809652   -8.969370   76.471400
  C     -1.083020   -7.920610   77.311500
  C     -1.139310   -8.310630   78.669300
  C     -0.842318   -9.647070   78.887900
  H     -1.193070   -6.896330   76.866600
  C     -1.585410   -7.307740   79.741300
  H     -2.424830   -7.755710   80.258900
  H     -2.037080   -6.499290   79.178600
  C     -0.457923   -6.757770   80.604400
  H      0.304148   -6.367820   79.999100
  H     -0.179869   -7.602540   81.251200
  C     -0.967337   -5.541490   81.352700
  H     -0.904384   -4.666400   80.723700
  H     -0.211532   -5.501000   82.110300
  H     -1.991840   -5.744600   81.712700
  H      0.696752  -12.598100   82.613600
  H     -0.516396   -8.819860   75.406800

 Total Charge           Charge          ....    0
 Multiplicity           Mult            ....    1
 Number of Electrons    NEL             ....  134
 Basis Dimension        Dim             ....  322

ORBITAL ENERGIES
----------------

  NO   OCC          E(Eh)            E(eV)
   0   2.0000     -88.962713     -2420.7985
   1   2.0000     -88.961598     -2420.7681
   2   2.0000     -10.331068      -281.1227
   3   2.0000     -10.324276      -280.9378
   4   2.0000     -10.320121      -280.8248
   5   2.0000     -10.314842      -280.6811
   6   2.0000     -10.302764      -280.3524
   7   2.0000     -10.301663      -280.3225
   8   2.0000     -10.296064      -280.1701
   9   2.0000     -10.294521      -280.1282
  10   2.0000     -10.285245      -279.8758
  11   2.0000     -10.283723      -279.8343
  12   2.0000     -10.276605      -279.6406
  13   2.0000     -10.273801      -279.5643
  14   2.0000     -10.273195      -279.5478
  15   2.0000     -10.273150      -279.5466
  16   2.0000      -8.078664      -219.8316
  17   2.0000      -8.076479      -219.7722
  18   2.0000      -6.037067      -164.2770
  19   2.0000      -6.035106      -164.2236
  20   2.0000      -6.032895      -164.1634
  21   2.0000      -6.030935      -164.1101
  22   2.0000      -6.029576      -164.0731
  23   2.0000      -6.027121      -164.0063
  24   2.0000      -1.012201       -27.5434
  25   2.0000      -0.987205       -26.8632
  26   2.0000      -0.924614       -25.1600
  27   2.0000      -0.915400       -24.9093
  28   2.0000      -0.877024       -23.8650
  29   2.0000      -0.856331       -23.3020
  30   2.0000      -0.847782       -23.0693
  31   2.0000      -0.815902       -22.2018
  32   2.0000      -0.785414       -21.3722
  33   2.0000      -0.773736       -21.0544
  34   2.0000      -0.707933       -19.2638
  35   2.0000      -0.704336       -19.1660
  36   2.0000      -0.690791       -18.7974
  37   2.0000      -0.665056       -18.0971
  38   2.0000      -0.641470       -17.4553
  39   2.0000      -0.623583       -16.9686
  40   2.0000      -0.596209       -16.2237
  41   2.0000      -0.580113       -15.7857
  42   2.0000      -0.572489       -15.5782
  43   2.0000      -0.564686       -15.3659
  44   2.0000      -0.536238       -14.5918
  45   2.0000      -0.524668       -14.2770
  46   2.0000      -0.519279       -14.1303
  47   2.0000      -0.515997       -14.0410
  48   2.0000      -0.509879       -13.8745
  49   2.0000      -0.507102       -13.7989
  50   2.0000      -0.491499       -13.3744
  51   2.0000      -0.487936       -13.2774
  52   2.0000      -0.476151       -12.9567
  53   2.0000      -0.466707       -12.6997
  54   2.0000      -0.457105       -12.4385
  55   2.0000      -0.451890       -12.2966
  56   2.0000      -0.445803       -12.1309
  57   2.0000      -0.440003       -11.9731
  58   2.0000      -0.431571       -11.7437
  59   2.0000      -0.423543       -11.5252
  60   2.0000      -0.420619       -11.4456
  61   2.0000      -0.412374       -11.2213
  62   2.0000      -0.403270       -10.9735
  63   2.0000      -0.356869        -9.7109
  64   2.0000      -0.331990        -9.0339
  65   2.0000      -0.325430        -8.8554
  66   2.0000      -0.288154        -7.8411
  67   0.0000       0.022787         0.6201
  68   0.0000       0.075651         2.0586
  69   0.0000       0.110058         2.9948
  70   0.0000       0.120614         3.2821
  71   0.0000       0.140837         3.8324

MULLIKEN ATOMIC CHARGES
-----------------------
   0 S :    0.088190
   1 C :   -0.145300
   2 C :   -0.074242
   3 C :   -0.004088
   4 C :   -0.103790
   5 H :    0.005419
   6 C :    0.136439
   7 H :   -0.007000
   8 H :   -0.011978
   9 C :   -0.059181
  10 H :    0.016566
  11 H :    0.028029
  12 C :   -0.013047
  13 H :    0.038979
  14 H :    0.019092
  15 H :    0.007371
  16 S :    0.101261
  17 C :   -0.098403
  18 C :   -0.069540
  19 C :   -0.045866
  20 C :   -0.145586
  21 H :    0.037788
  22 C :    0.043960
  23 H :    0.025497
  24 H :   -0.002075
  25 C :   -0.049499
  26 H :    0.017755
  27 H :    0.046901
  28 C :   -0.022011
  29 H :    0.033739
  30 H :    0.029848
  31 H :    0.033499
  32 H :    0.066298
  33 H :    0.074976
Sum of atomic charges:    0.0000000

LOEWDIN ATOMIC CHARGES
----------------------
   0 S :    0.388440
   1 C :   -0.187071
   2 C :   -0.059091
   3 C :   -0.066861
   4 C :   -0.191002
   5 H :    0.026106
   6 C :   -0.028324
   7 H :    0.024311
   8 H :    0.016968
   9 C :   -0.032370
  10 H :    0.019960
  11 H :    0.027425
  12 C :   -0.063497
  13 H :    0.033617
  14 H :    0.019927
  15 H :    0.020302
  16 S :    0.428132
  17 C :   -0.206737
  18 C :   -0.083993
  19 C :   -0.054291
  20 C :   -0.204445
  21 H :    0.041877
  22 C :   -0.032513
  23 H :    0.025082
  24 H :    0.024135
  25 C :   -0.031907
  26 H :    0.021184
  27 H :    0.029375
  28 C :   -0.057215
  29 H :    0.023638
  30 H :    0.026769
  31 H :    0.025537
  32 H :    0.036291
  33 H :    0.040240

  Mayer bond orders larger than 0.100000
B(  0-S ,  1-C ) :   1.1270 B(  0-S ,  4-C ) :   1.1440 B(  1-C ,  2-C ) :   1.5949
B(  1-C , 32-H ) :   0.9744 B(  2-C ,  3-C ) :   1.2253 B(  2-C ,  6-C ) :   1.0459
B(  3-C ,  4-C ) :   1.5606 B(  3-C ,  5-H ) :   0.9994 B(  4-C , 20-C ) :   1.0726
B(  6-C ,  7-H ) :   0.9261 B(  6-C ,  8-H ) :   0.9217 B(  6-C ,  9-C ) :   1.0702
B(  9-C , 10-H ) :   0.9526 B(  9-C , 11-H ) :   0.9530 B(  9-C , 12-C ) :   1.0859
B( 12-C , 13-H ) :   0.9730 B( 12-C , 14-H ) :   0.9704 B( 12-C , 15-H ) :   0.9690
B( 16-S , 17-C ) :   1.1798 B( 16-S , 20-C ) :   1.1423 B( 17-C , 18-C ) :   1.5918
B( 17-C , 20-C ) :   0.1034 B( 17-C , 33-H ) :   0.9565 B( 18-C , 19-C ) :   1.2770
B( 18-C , 21-H ) :   0.9823 B( 19-C , 20-C ) :   1.5657 B( 19-C , 22-C ) :   1.0248
B( 22-C , 23-H ) :   0.9351 B( 22-C , 24-H ) :   0.9294 B( 22-C , 25-C ) :   1.0733
B( 25-C , 26-H ) :   0.9509 B( 25-C , 27-H ) :   0.9574 B( 25-C , 28-C ) :   1.0777
B( 28-C , 29-H ) :   0.9773 B( 28-C , 30-H ) :   0.9753 B( 28-C , 31-H ) :   0.9734

Dispersion correction           -0.013802578
FINAL SINGLE POINT ENERGY     -1339.866934176107

DIPOLE MOMENT
-------------
                                X             Y             Z
Electronic contribution:     11.94660     -11.30167     -24.11185
Nuclear contribution   :    -12.14351      11.73791      24.55446
                        -----------------------------------------
Total Dipole Moment    :     -0.19690       0.43625       0.44262
                        -----------------------------------------
Magnitude (a.u.)       :      0.65192
Magnitude (Debye)      :      1.65704

Rotational constants in cm-1:     0.018713     0.008270     0.006471
Rotational constants in MHz :   560.997761   247.933354   193.999377

                             ****ORCA TERMINATED NORMALLY****
TOTAL RUN TIME: 0 days 0 hours 0 minutes 35 seconds 398 msec
