                         Program Version 4.2.1 -  RELEASE  -
|  1> ! wB97X-D3 SP def2-SVP
|  2> %pal
|  3> nprocs 16
|  4> end
|  5>
|  6> * xyz 0 1
|  7> S 	 1.68303 	 -12.3817 	 59.9532
|  8> C 	 2.30351 	 -12.0266 	 61.5725
|  9> C 	 2.18111 	 -13.0827 	 62.4782
| 10> C 	 1.45168 	 -14.1664 	 61.9037
| 11> C 	 1.09639 	 -13.9352 	 60.5881
| 12> H 	 1.27796 	 -15.0984 	 62.3519
| 13> C 	 2.90267 	 -13.2526 	 63.7992
| 14> H 	 3.65987 	 -12.5118 	 63.7704
| 15> H 	 3.34812 	 -14.2485 	 63.8515
| 16> C 	 1.95788 	 -12.8738 	 64.9478
| 17> H 	 1.52109 	 -11.906 	 64.7252
| 18> H 	 1.07782 	 -13.5074 	 65.0383
| 19> C 	 2.62286 	 -12.8306 	 66.3353
| 20> H 	 3.29612 	 -13.6472 	 66.5708
| 21> H 	 3.48039 	 -12.1126 	 66.2864
| 22> H 	 1.89085 	 -12.622 	 67.0409
| 23> S 	 -0.917649 	 -14.2931 	 58.8448
| 24> C 	 -1.09523 	 -15.8021 	 58.0566
| 25> C 	 -0.376463 	 -16.7957 	 58.6249
| 26> C 	 0.547212 	 -16.2618 	 59.5696
| 27> C 	 0.433201 	 -14.8923 	 59.7339
| 28> H 	 -0.610796 	 -17.844 	 58.3632
| 29> C 	 1.44866 	 -17.2205 	 60.325
| 30> H 	 1.1678 	 -18.2083 	 59.9611
| 31> H 	 1.1085 	 -17.3306 	 61.2975
| 32> C 	 2.87119 	 -16.8703 	 60.0377
| 33> H 	 3.04125 	 -15.8566 	 60.3406
| 34> H 	 2.99965 	 -16.9769 	 58.982
| 35> C 	 3.78673 	 -17.7854 	 60.8372
| 36> H 	 4.77584 	 -17.5361 	 60.5073
| 37> H 	 3.66688 	 -18.7897 	 60.6845
| 38> H 	 3.76432 	 -17.6806 	 61.9314
| 39> H 	 2.9711 	 -11.1797 	 61.8819
| 40> H 	 -1.79086 	 -15.9501 	 57.2729
| 41> *
| 42>
| 43>                          ****END OF INPUT****

CARTESIAN COORDINATES (ANGSTROEM)
---------------------------------
  S      1.683030  -12.381700   59.953200
  C      2.303510  -12.026600   61.572500
  C      2.181110  -13.082700   62.478200
  C      1.451680  -14.166400   61.903700
  C      1.096390  -13.935200   60.588100
  H      1.277960  -15.098400   62.351900
  C      2.902670  -13.252600   63.799200
  H      3.659870  -12.511800   63.770400
  H      3.348120  -14.248500   63.851500
  C      1.957880  -12.873800   64.947800
  H      1.521090  -11.906000   64.725200
  H      1.077820  -13.507400   65.038300
  C      2.622860  -12.830600   66.335300
  H      3.296120  -13.647200   66.570800
  H      3.480390  -12.112600   66.286400
  H      1.890850  -12.622000   67.040900
  S     -0.917649  -14.293100   58.844800
  C     -1.095230  -15.802100   58.056600
  C     -0.376463  -16.795700   58.624900
  C      0.547212  -16.261800   59.569600
  C      0.433201  -14.892300   59.733900
  H     -0.610796  -17.844000   58.363200
  C      1.448660  -17.220500   60.325000
  H      1.167800  -18.208300   59.961100
  H      1.108500  -17.330600   61.297500
  C      2.871190  -16.870300   60.037700
  H      3.041250  -15.856600   60.340600
  H      2.999650  -16.976900   58.982000
  C      3.786730  -17.785400   60.837200
  H      4.775840  -17.536100   60.507300
  H      3.666880  -18.789700   60.684500
  H      3.764320  -17.680600   61.931400
  H      2.971100  -11.179700   61.881900
  H     -1.790860  -15.950100   57.272900

 Total Charge           Charge          ....    0
 Multiplicity           Mult            ....    1
 Number of Electrons    NEL             ....  134
 Basis Dimension        Dim             ....  322

ORBITAL ENERGIES
----------------

  NO   OCC          E(Eh)            E(eV)
   0   2.0000     -88.972450     -2421.0634
   1   2.0000     -88.959993     -2420.7245
   2   2.0000     -10.328384      -281.0496
   3   2.0000     -10.318420      -280.7785
   4   2.0000     -10.317182      -280.7448
   5   2.0000     -10.304696      -280.4050
   6   2.0000     -10.300281      -280.2849
   7   2.0000     -10.296630      -280.1855
   8   2.0000     -10.292902      -280.0841
   9   2.0000     -10.288965      -279.9770
  10   2.0000     -10.288560      -279.9660
  11   2.0000     -10.285792      -279.8906
  12   2.0000     -10.278015      -279.6790
  13   2.0000     -10.275482      -279.6101
  14   2.0000     -10.275258      -279.6040
  15   2.0000     -10.264912      -279.3224
  16   2.0000      -8.085921      -220.0291
  17   2.0000      -8.076357      -219.7688
  18   2.0000      -6.044455      -164.4780
  19   2.0000      -6.040802      -164.3786
  20   2.0000      -6.036522      -164.2621
  21   2.0000      -6.034682      -164.2120
  22   2.0000      -6.030728      -164.1045
  23   2.0000      -6.027123      -164.0064
  24   2.0000      -1.011021       -27.5113
  25   2.0000      -0.983760       -26.7695
  26   2.0000      -0.918566       -24.9955
  27   2.0000      -0.914266       -24.8784
  28   2.0000      -0.869873       -23.6705
  29   2.0000      -0.853542       -23.2261
  30   2.0000      -0.849044       -23.1037
  31   2.0000      -0.815336       -22.1864
  32   2.0000      -0.785276       -21.3684
  33   2.0000      -0.771575       -20.9956
  34   2.0000      -0.713308       -19.4101
  35   2.0000      -0.704879       -19.1807
  36   2.0000      -0.695439       -18.9239
  37   2.0000      -0.663832       -18.0638
  38   2.0000      -0.635814       -17.3014
  39   2.0000      -0.623509       -16.9665
  40   2.0000      -0.597137       -16.2489
  41   2.0000      -0.569783       -15.5046
  42   2.0000      -0.569620       -15.5001
  43   2.0000      -0.558919       -15.2089
  44   2.0000      -0.541338       -14.7306
  45   2.0000      -0.533586       -14.5196
  46   2.0000      -0.515316       -14.0225
  47   2.0000      -0.506597       -13.7852
  48   2.0000      -0.502370       -13.6702
  49   2.0000      -0.496939       -13.5224
  50   2.0000      -0.490004       -13.3337
  51   2.0000      -0.483467       -13.1558
  52   2.0000      -0.471352       -12.8261
  53   2.0000      -0.466218       -12.6864
  54   2.0000      -0.459569       -12.5055
  55   2.0000      -0.458492       -12.4762
  56   2.0000      -0.448786       -12.2121
  57   2.0000      -0.444495       -12.0953
  58   2.0000      -0.436575       -11.8798
  59   2.0000      -0.428144       -11.6504
  60   2.0000      -0.419088       -11.4040
  61   2.0000      -0.409803       -11.1513
  62   2.0000      -0.407635       -11.0923
  63   2.0000      -0.345154        -9.3921
  64   2.0000      -0.331357        -9.0167
  65   2.0000      -0.327757        -8.9187
  66   2.0000      -0.288656        -7.8547
  67   0.0000       0.029426         0.8007
  68   0.0000       0.073713         2.0058
  69   0.0000       0.099983         2.7207
  70   0.0000       0.111718         3.0400
  71   0.0000       0.142360         3.8738

MULLIKEN ATOMIC CHARGES
-----------------------
   0 S :    0.126990
   1 C :   -0.122294
   2 C :   -0.124436
   3 C :    0.049408
   4 C :   -0.150143
   5 H :   -0.013842
   6 C :    0.111020
   7 H :    0.000195
   8 H :    0.038482
   9 C :   -0.095342
  10 H :    0.026445
  11 H :    0.025434
  12 C :   -0.002889
  13 H :    0.017261
  14 H :    0.012081
  15 H :    0.038082
  16 S :    0.110687
  17 C :   -0.073923
  18 C :   -0.050556
  19 C :   -0.068580
  20 C :   -0.159639
  21 H :    0.031521
  22 C :    0.113430
  23 H :   -0.010701
  24 H :    0.008491
  25 C :   -0.055261
  26 H :    0.042902
  27 H :    0.027537
  28 C :    0.015402
  29 H :    0.017220
  30 H :    0.001612
  31 H :    0.021098
  32 H :    0.056521
  33 H :    0.035786
Sum of atomic charges:    0.0000000

LOEWDIN ATOMIC CHARGES
----------------------
   0 S :    0.393496
   1 C :   -0.208137
   2 C :   -0.057272
   3 C :   -0.051553
   4 C :   -0.185533
   5 H :    0.022685
   6 C :   -0.021468
   7 H :    0.023557
   8 H :    0.033985
   9 C :   -0.038526
  10 H :    0.026300
  11 H :    0.021151
  12 C :   -0.067342
  13 H :    0.025237
  14 H :    0.028167
  15 H :    0.019609
  16 S :    0.428055
  17 C :   -0.185749
  18 C :   -0.079750
  19 C :   -0.052269
  20 C :   -0.214168
  21 H :    0.039939
  22 C :   -0.028191
  23 H :    0.026777
  24 H :    0.016598
  25 C :   -0.027144
  26 H :    0.026098
  27 H :    0.028161
  28 C :   -0.056989
  29 H :    0.023895
  30 H :    0.009921
  31 H :    0.026040
  32 H :    0.036115
  33 H :    0.018303

  Mayer bond orders larger than 0.100000
B(  0-S ,  1-C ) :   1.1219 B(  0-S ,  4-C ) :   1.1401 B(  1-C ,  2-C ) :   1.6409
B(  1-C , 32-H ) :   0.9519 B(  2-C ,  3-C ) :   1.2243 B(  2-C ,  6-C ) :   1.0231
B(  3-C ,  4-C ) :   1.5766 B(  3-C ,  5-H ) :   1.0041 B(  4-C , 20-C ) :   1.0514
B(  6-C ,  7-H ) :   0.9310 B(  6-C ,  8-H ) :   0.9452 B(  6-C ,  9-C ) :   1.0565
B(  9-C , 10-H ) :   0.9529 B(  9-C , 11-H ) :   0.9607 B(  9-C , 12-C ) :   1.0836
B( 12-C , 13-H ) :   0.9696 B( 12-C , 14-H ) :   0.9677 B( 12-C , 15-H ) :   0.9754
B( 16-S , 17-C ) :   1.1694 B( 16-S , 20-C ) :   1.1520 B( 17-C , 18-C ) :   1.6077
B( 17-C , 33-H ) :   0.9694 B( 18-C , 19-C ) :   1.2497 B( 18-C , 21-H ) :   0.9880
B( 19-C , 20-C ) :   1.5870 B( 19-C , 22-C ) :   1.0297 B( 22-C , 23-H ) :   0.9194
B( 22-C , 24-H ) :   0.9282 B( 22-C , 25-C ) :   1.0626 B( 25-C , 26-H ) :   0.9575
B( 25-C , 27-H ) :   0.9490 B( 25-C , 28-C ) :   1.0908 B( 28-C , 29-H ) :   0.9707
B( 28-C , 30-H ) :   0.9701 B( 28-C , 31-H ) :   0.9725

Dispersion correction           -0.014530784
FINAL SINGLE POINT ENERGY     -1339.859286570098

DIPOLE MOMENT
-------------
                                X             Y             Z
Electronic contribution:    -15.56512      11.14769     -22.58876
Nuclear contribution   :     15.84396     -11.65671      23.00551
                        -----------------------------------------
Total Dipole Moment    :      0.27885      -0.50902       0.41675
                        -----------------------------------------
Magnitude (a.u.)       :      0.71452
Magnitude (Debye)      :      1.81615

Rotational constants in cm-1:     0.018971     0.008607     0.006941
Rotational constants in MHz :   568.732930   258.046022   208.089357

                             ****ORCA TERMINATED NORMALLY****
TOTAL RUN TIME: 0 days 0 hours 0 minutes 31 seconds 55 msec
