                         Program Version 4.2.1 -  RELEASE  -
|  1> ! wB97X-D3 SP def2-SVP
|  2> %pal
|  3> nprocs 16
|  4> end
|  5>
|  6> * xyz 0 1
|  7> S 	 53.1006 	 7.52325 	 65.0317
|  8> C 	 53.5346 	 8.86743 	 66.0218
|  9> C 	 54.1087 	 9.86912 	 65.277
| 10> C 	 54.1112 	 9.60363 	 63.9064
| 11> C 	 53.6916 	 8.29724 	 63.5848
| 12> H 	 54.4886 	 10.3188 	 63.1561
| 13> C 	 54.4719 	 11.2389 	 65.8648
| 14> H 	 55.3684 	 11.5278 	 65.4159
| 15> H 	 54.7222 	 11.3091 	 66.9433
| 16> C 	 53.5602 	 12.4559 	 65.4681
| 17> H 	 53.7658 	 12.4938 	 64.3743
| 18> H 	 52.5185 	 12.2414 	 65.7158
| 19> C 	 53.9784 	 13.7761 	 66.1322
| 20> H 	 53.8679 	 13.6103 	 67.2005
| 21> H 	 54.9113 	 14.326 	 65.9037
| 22> H 	 53.1546 	 14.5124 	 66.0028
| 23> S 	 52.8253 	 6.02432 	 62.4776
| 24> C 	 52.4756 	 5.84848 	 60.7423
| 25> C 	 52.7015 	 7.01053 	 60.1398
| 26> C 	 53.2621 	 8.02631 	 61.0187
| 27> C 	 53.3704 	 7.65567 	 62.3169
| 28> H 	 52.6012 	 7.03909 	 59.09
| 29> C 	 53.5978 	 9.35394 	 60.3746
| 30> H 	 53.5457 	 9.31367 	 59.3336
| 31> H 	 54.5868 	 9.67989 	 60.7433
| 32> C 	 52.6341 	 10.4796 	 60.7257
| 33> H 	 52.8422 	 10.7377 	 61.8182
| 34> H 	 51.598 	 10.1094 	 60.6258
| 35> C 	 52.8934 	 11.7927 	 59.9573
| 36> H 	 52.8283 	 11.7137 	 58.8605
| 37> H 	 53.9666 	 11.9816 	 60.1872
| 38> H 	 52.2596 	 12.6622 	 60.3071
| 39> H 	 53.2201 	 8.93506 	 67.053
| 40> H 	 52.2494 	 4.89814 	 60.3181
| 41> *
| 42>
| 43>                          ****END OF INPUT****

CARTESIAN COORDINATES (ANGSTROEM)
---------------------------------
  S     53.100600    7.523250   65.031700
  C     53.534600    8.867430   66.021800
  C     54.108700    9.869120   65.277000
  C     54.111200    9.603630   63.906400
  C     53.691600    8.297240   63.584800
  H     54.488600   10.318800   63.156100
  C     54.471900   11.238900   65.864800
  H     55.368400   11.527800   65.415900
  H     54.722200   11.309100   66.943300
  C     53.560200   12.455900   65.468100
  H     53.765800   12.493800   64.374300
  H     52.518500   12.241400   65.715800
  C     53.978400   13.776100   66.132200
  H     53.867900   13.610300   67.200500
  H     54.911300   14.326000   65.903700
  H     53.154600   14.512400   66.002800
  S     52.825300    6.024320   62.477600
  C     52.475600    5.848480   60.742300
  C     52.701500    7.010530   60.139800
  C     53.262100    8.026310   61.018700
  C     53.370400    7.655670   62.316900
  H     52.601200    7.039090   59.090000
  C     53.597800    9.353940   60.374600
  H     53.545700    9.313670   59.333600
  H     54.586800    9.679890   60.743300
  C     52.634100   10.479600   60.725700
  H     52.842200   10.737700   61.818200
  H     51.598000   10.109400   60.625800
  C     52.893400   11.792700   59.957300
  H     52.828300   11.713700   58.860500
  H     53.966600   11.981600   60.187200
  H     52.259600   12.662200   60.307100
  H     53.220100    8.935060   67.053000
  H     52.249400    4.898140   60.318100

 Total Charge           Charge          ....    0
 Multiplicity           Mult            ....    1
 Number of Electrons    NEL             ....  134
 Basis Dimension        Dim             ....  322

ORBITAL ENERGIES
----------------

  NO   OCC          E(Eh)            E(eV)
   0   2.0000     -88.967753     -2420.9356
   1   2.0000     -88.956487     -2420.6291
   2   2.0000     -10.336441      -281.2689
   3   2.0000     -10.327387      -281.0225
   4   2.0000     -10.314704      -280.6774
   5   2.0000     -10.312339      -280.6130
   6   2.0000     -10.302762      -280.3524
   7   2.0000     -10.301785      -280.3258
   8   2.0000     -10.300964      -280.3035
   9   2.0000     -10.294886      -280.1381
  10   2.0000     -10.290047      -280.0064
  11   2.0000     -10.289822      -280.0003
  12   2.0000     -10.288262      -279.9578
  13   2.0000     -10.287279      -279.9311
  14   2.0000     -10.287062      -279.9252
  15   2.0000     -10.285182      -279.8740
  16   2.0000      -8.083144      -219.9535
  17   2.0000      -8.072345      -219.6597
  18   2.0000      -6.041570      -164.3995
  19   2.0000      -6.037487      -164.2884
  20   2.0000      -6.033992      -164.1933
  21   2.0000      -6.031080      -164.1140
  22   2.0000      -6.026757      -163.9964
  23   2.0000      -6.022720      -163.8865
  24   2.0000      -1.016442       -27.6588
  25   2.0000      -0.991369       -26.9765
  26   2.0000      -0.913185       -24.8490
  27   2.0000      -0.909717       -24.7546
  28   2.0000      -0.878814       -23.9138
  29   2.0000      -0.853514       -23.2253
  30   2.0000      -0.842537       -22.9266
  31   2.0000      -0.821421       -22.3520
  32   2.0000      -0.782220       -21.2853
  33   2.0000      -0.773778       -21.0556
  34   2.0000      -0.709693       -19.3117
  35   2.0000      -0.697265       -18.9735
  36   2.0000      -0.685657       -18.6577
  37   2.0000      -0.673507       -18.3271
  38   2.0000      -0.640988       -17.4422
  39   2.0000      -0.628587       -17.1047
  40   2.0000      -0.600482       -16.3400
  41   2.0000      -0.575198       -15.6519
  42   2.0000      -0.573723       -15.6118
  43   2.0000      -0.563668       -15.3382
  44   2.0000      -0.526000       -14.3132
  45   2.0000      -0.523184       -14.2366
  46   2.0000      -0.519248       -14.1295
  47   2.0000      -0.509332       -13.8596
  48   2.0000      -0.508952       -13.8493
  49   2.0000      -0.505518       -13.7558
  50   2.0000      -0.495964       -13.4959
  51   2.0000      -0.481348       -13.0981
  52   2.0000      -0.476068       -12.9545
  53   2.0000      -0.471830       -12.8392
  54   2.0000      -0.460410       -12.5284
  55   2.0000      -0.450596       -12.2613
  56   2.0000      -0.447338       -12.1727
  57   2.0000      -0.431684       -11.7467
  58   2.0000      -0.429049       -11.6750
  59   2.0000      -0.423646       -11.5280
  60   2.0000      -0.416885       -11.3440
  61   2.0000      -0.414447       -11.2777
  62   2.0000      -0.404027       -10.9941
  63   2.0000      -0.369119       -10.0442
  64   2.0000      -0.339984        -9.2514
  65   2.0000      -0.323421        -8.8007
  66   2.0000      -0.285538        -7.7699
  67   0.0000       0.017791         0.4841
  68   0.0000       0.083786         2.2799
  69   0.0000       0.099504         2.7076
  70   0.0000       0.118569         3.2264
  71   0.0000       0.123825         3.3694

MULLIKEN ATOMIC CHARGES
-----------------------
   0 S :    0.097156
   1 C :   -0.119325
   2 C :   -0.044540
   3 C :   -0.031048
   4 C :   -0.080455
   5 H :    0.021867
   6 C :    0.061740
   7 H :    0.001528
   8 H :    0.022194
   9 C :   -0.085023
  10 H :    0.033348
  11 H :    0.040280
  12 C :   -0.069904
  13 H :    0.023943
  14 H :    0.052796
  15 H :    0.032383
  16 S :    0.045085
  17 C :   -0.065929
  18 C :   -0.002182
  19 C :   -0.099351
  20 C :   -0.070312
  21 H :    0.006994
  22 C :    0.095678
  23 H :   -0.003702
  24 H :    0.026317
  25 C :   -0.115319
  26 H :    0.033051
  27 H :    0.036111
  28 C :   -0.059797
  29 H :    0.034949
  30 H :    0.021960
  31 H :    0.054587
  32 H :    0.053464
  33 H :    0.051458
Sum of atomic charges:    0.0000000

LOEWDIN ATOMIC CHARGES
----------------------
   0 S :    0.425328
   1 C :   -0.198521
   2 C :   -0.066976
   3 C :   -0.068058
   4 C :   -0.185774
   5 H :    0.032560
   6 C :   -0.035482
   7 H :    0.020979
   8 H :    0.028734
   9 C :   -0.035965
  10 H :    0.024544
  11 H :    0.026068
  12 C :   -0.079651
  13 H :    0.025405
  14 H :    0.030984
  15 H :    0.033494
  16 S :    0.378848
  17 C :   -0.155784
  18 C :   -0.065870
  19 C :   -0.059854
  20 C :   -0.192007
  21 H :    0.027976
  22 C :   -0.027934
  23 H :    0.019166
  24 H :    0.029659
  25 C :   -0.047624
  26 H :    0.027419
  27 H :    0.022576
  28 C :   -0.074616
  29 H :    0.021641
  30 H :    0.026207
  31 H :    0.035748
  32 H :    0.029939
  33 H :    0.026842

  Mayer bond orders larger than 0.100000
B(  0-S ,  1-C ) :   1.1571 B(  0-S ,  4-C ) :   1.1696 B(  1-C ,  2-C ) :   1.5746
B(  1-C ,  4-C ) :   0.1032 B(  1-C , 32-H ) :   0.9720 B(  2-C ,  3-C ) :   1.2945
B(  2-C ,  6-C ) :   1.0275 B(  3-C ,  4-C ) :   1.5274 B(  3-C ,  5-H ) :   0.9801
B(  4-C , 20-C ) :   1.0663 B(  6-C ,  7-H ) :   0.9333 B(  6-C ,  8-H ) :   0.9514
B(  6-C ,  9-C ) :   1.0471 B(  9-C , 10-H ) :   0.9576 B(  9-C , 11-H ) :   0.9587
B(  9-C , 12-C ) :   1.0833 B( 12-C , 13-H ) :   0.9702 B( 12-C , 14-H ) :   0.9763
B( 12-C , 15-H ) :   0.9712 B( 16-S , 17-C ) :   1.1276 B( 16-S , 20-C ) :   1.1148
B( 17-C , 18-C ) :   1.6449 B( 17-C , 33-H ) :   0.9740 B( 18-C , 19-C ) :   1.2046
B( 18-C , 21-H ) :   0.9983 B( 19-C , 20-C ) :   1.6304 B( 19-C , 22-C ) :   1.0579
B( 22-C , 23-H ) :   0.9306 B( 22-C , 24-H ) :   0.9273 B( 22-C , 25-C ) :   1.0664
B( 25-C , 26-H ) :   0.9506 B( 25-C , 27-H ) :   0.9540 B( 25-C , 28-C ) :   1.0720
B( 28-C , 29-H ) :   0.9755 B( 28-C , 30-H ) :   0.9708 B( 28-C , 31-H ) :   0.9739

Dispersion correction           -0.014087311
FINAL SINGLE POINT ENERGY     -1339.869522193432

DIPOLE MOMENT
-------------
                                X             Y             Z
Electronic contribution:     -2.42654     -33.23393       3.51316
Nuclear contribution   :      2.39712      33.86415      -3.74416
                        -----------------------------------------
Total Dipole Moment    :     -0.02942       0.63022      -0.23100
                        -----------------------------------------
Magnitude (a.u.)       :      0.67187
Magnitude (Debye)      :      1.70775

Rotational constants in cm-1:     0.018645     0.009277     0.006404
Rotational constants in MHz :   558.968256   278.103705   191.997613

                             ****ORCA TERMINATED NORMALLY****
TOTAL RUN TIME: 0 days 0 hours 0 minutes 30 seconds 627 msec
