                         Program Version 4.2.1 -  RELEASE  -
|  1> ! wB97X-D3 SP def2-SVP
|  2> %pal
|  3> nprocs 16
|  4> end
|  5>
|  6> * xyz 0 1
|  7> S 	 -100.202 	 49.2321 	 128.276
|  8> C 	 -99.4169 	 49.1738 	 126.738
|  9> C 	 -100.207 	 49.6934 	 125.787
| 10> C 	 -101.302 	 50.4643 	 126.302
| 11> C 	 -101.499 	 50.2322 	 127.602
| 12> H 	 -102.111 	 50.8968 	 125.786
| 13> C 	 -99.8659 	 49.8213 	 124.31
| 14> H 	 -100.806 	 49.6266 	 123.761
| 15> H 	 -99.1605 	 49.0401 	 124.012
| 16> C 	 -99.328 	 51.1235 	 123.716
| 17> H 	 -100.118 	 51.8792 	 123.717
| 18> H 	 -98.5621 	 51.4083 	 124.504
| 19> C 	 -98.866 	 51.0838 	 122.252
| 20> H 	 -99.7311 	 51.0521 	 121.643
| 21> H 	 -98.3185 	 51.9724 	 121.972
| 22> H 	 -98.1676 	 50.238 	 122.14
| 23> S 	 -102.208 	 51.1802 	 130.016
| 24> C 	 -103.899 	 51.4981 	 130.245
| 25> C 	 -104.701 	 51.2212 	 129.214
| 26> C 	 -103.966 	 50.8592 	 128.091
| 27> C 	 -102.597 	 50.7226 	 128.362
| 28> H 	 -105.732 	 51.3793 	 129.247
| 29> C 	 -104.718 	 50.3938 	 126.895
| 30> H 	 -105.61 	 49.7911 	 127.158
| 31> H 	 -104.115 	 49.6714 	 126.459
| 32> C 	 -105.164 	 51.4416 	 125.851
| 33> H 	 -104.32 	 51.8991 	 125.344
| 34> H 	 -105.804 	 52.2798 	 126.32
| 35> C 	 -106.015 	 50.8266 	 124.685
| 36> H 	 -106.005 	 51.5299 	 123.892
| 37> H 	 -107.061 	 50.6279 	 124.886
| 38> H 	 -105.464 	 49.9111 	 124.398
| 39> H 	 -98.6522 	 48.5082 	 126.52
| 40> H 	 -104.28 	 51.8951 	 131.149
| 41> *
| 42>
| 43>                          ****END OF INPUT****

CARTESIAN COORDINATES (ANGSTROEM)
---------------------------------
  S    -100.202000   49.232100  128.276000
  C    -99.416900   49.173800  126.738000
  C    -100.207000   49.693400  125.787000
  C    -101.302000   50.464300  126.302000
  C    -101.499000   50.232200  127.602000
  H    -102.111000   50.896800  125.786000
  C    -99.865900   49.821300  124.310000
  H    -100.806000   49.626600  123.761000
  H    -99.160500   49.040100  124.012000
  C    -99.328000   51.123500  123.716000
  H    -100.118000   51.879200  123.717000
  H    -98.562100   51.408300  124.504000
  C    -98.866000   51.083800  122.252000
  H    -99.731100   51.052100  121.643000
  H    -98.318500   51.972400  121.972000
  H    -98.167600   50.238000  122.140000
  S    -102.208000   51.180200  130.016000
  C    -103.899000   51.498100  130.245000
  C    -104.701000   51.221200  129.214000
  C    -103.966000   50.859200  128.091000
  C    -102.597000   50.722600  128.362000
  H    -105.732000   51.379300  129.247000
  C    -104.718000   50.393800  126.895000
  H    -105.610000   49.791100  127.158000
  H    -104.115000   49.671400  126.459000
  C    -105.164000   51.441600  125.851000
  H    -104.320000   51.899100  125.344000
  H    -105.804000   52.279800  126.320000
  C    -106.015000   50.826600  124.685000
  H    -106.005000   51.529900  123.892000
  H    -107.061000   50.627900  124.886000
  H    -105.464000   49.911100  124.398000
  H    -98.652200   48.508200  126.520000
  H    -104.280000   51.895100  131.149000

 Total Charge           Charge          ....    0
 Multiplicity           Mult            ....    1
 Number of Electrons    NEL             ....  134
 Basis Dimension        Dim             ....  322

ORBITAL ENERGIES
----------------

  NO   OCC          E(Eh)            E(eV)
   0   2.0000     -88.966722     -2420.9076
   1   2.0000     -88.962866     -2420.8026
   2   2.0000     -10.325237      -280.9640
   3   2.0000     -10.322512      -280.8898
   4   2.0000     -10.307952      -280.4936
   5   2.0000     -10.304045      -280.3873
   6   2.0000     -10.300024      -280.2779
   7   2.0000     -10.297555      -280.2107
   8   2.0000     -10.297231      -280.2019
   9   2.0000     -10.289252      -279.9848
  10   2.0000     -10.287754      -279.9440
  11   2.0000     -10.287567      -279.9389
  12   2.0000     -10.281917      -279.7852
  13   2.0000     -10.281069      -279.7621
  14   2.0000     -10.280010      -279.7333
  15   2.0000     -10.278977      -279.7052
  16   2.0000      -8.081939      -219.9207
  17   2.0000      -8.078111      -219.8166
  18   2.0000      -6.040231      -164.3630
  19   2.0000      -6.036730      -164.2678
  20   2.0000      -6.036595      -164.2641
  21   2.0000      -6.032713      -164.1585
  22   2.0000      -6.032683      -164.1577
  23   2.0000      -6.028550      -164.0452
  24   2.0000      -1.016700       -27.6658
  25   2.0000      -0.993590       -27.0369
  26   2.0000      -0.911785       -24.8109
  27   2.0000      -0.909271       -24.7425
  28   2.0000      -0.881888       -23.9974
  29   2.0000      -0.859173       -23.3793
  30   2.0000      -0.849004       -23.1026
  31   2.0000      -0.822576       -22.3834
  32   2.0000      -0.785336       -21.3701
  33   2.0000      -0.774031       -21.0624
  34   2.0000      -0.711533       -19.3618
  35   2.0000      -0.696519       -18.9533
  36   2.0000      -0.693427       -18.8691
  37   2.0000      -0.671259       -18.2659
  38   2.0000      -0.648833       -17.6556
  39   2.0000      -0.622440       -16.9375
  40   2.0000      -0.604602       -16.4520
  41   2.0000      -0.571657       -15.5556
  42   2.0000      -0.569514       -15.4973
  43   2.0000      -0.560019       -15.2389
  44   2.0000      -0.531146       -14.4532
  45   2.0000      -0.521522       -14.1913
  46   2.0000      -0.520676       -14.1683
  47   2.0000      -0.517060       -14.0699
  48   2.0000      -0.509018       -13.8511
  49   2.0000      -0.504762       -13.7353
  50   2.0000      -0.496888       -13.5210
  51   2.0000      -0.479894       -13.0586
  52   2.0000      -0.474670       -12.9164
  53   2.0000      -0.466777       -12.7017
  54   2.0000      -0.461473       -12.5573
  55   2.0000      -0.458680       -12.4813
  56   2.0000      -0.447137       -12.1672
  57   2.0000      -0.440065       -11.9748
  58   2.0000      -0.430046       -11.7021
  59   2.0000      -0.424582       -11.5535
  60   2.0000      -0.417126       -11.3506
  61   2.0000      -0.415500       -11.3063
  62   2.0000      -0.408500       -11.1158
  63   2.0000      -0.361596        -9.8395
  64   2.0000      -0.338036        -9.1984
  65   2.0000      -0.329954        -8.9785
  66   2.0000      -0.288018        -7.8374
  67   0.0000       0.027262         0.7418
  68   0.0000       0.077805         2.1172
  69   0.0000       0.104774         2.8510
  70   0.0000       0.120626         3.2824
  71   0.0000       0.125886         3.4255

MULLIKEN ATOMIC CHARGES
-----------------------
   0 S :    0.095891
   1 C :   -0.076359
   2 C :   -0.078551
   3 C :    0.027822
   4 C :   -0.109388
   5 H :   -0.020288
   6 C :    0.049844
   7 H :    0.014431
   8 H :    0.009197
   9 C :   -0.098664
  10 H :    0.021587
  11 H :    0.037698
  12 C :   -0.020168
  13 H :    0.029085
  14 H :    0.036820
  15 H :    0.032428
  16 S :    0.109856
  17 C :   -0.056166
  18 C :   -0.005713
  19 C :    0.005442
  20 C :   -0.165423
  21 H :   -0.004458
  22 C :    0.046127
  23 H :    0.028888
  24 H :    0.001632
  25 C :   -0.101434
  26 H :    0.034273
  27 H :    0.039364
  28 C :   -0.040788
  29 H :    0.025670
  30 H :    0.038372
  31 H :    0.031750
  32 H :    0.029592
  33 H :    0.031631
Sum of atomic charges:    0.0000000

LOEWDIN ATOMIC CHARGES
----------------------
   0 S :    0.388456
   1 C :   -0.189471
   2 C :   -0.059023
   3 C :   -0.062990
   4 C :   -0.176716
   5 H :    0.024458
   6 C :   -0.038959
   7 H :    0.027211
   8 H :    0.023584
   9 C :   -0.047403
  10 H :    0.019429
  11 H :    0.028704
  12 C :   -0.057520
  13 H :    0.022643
  14 H :    0.030155
  15 H :    0.026403
  16 S :    0.407972
  17 C :   -0.169019
  18 C :   -0.061264
  19 C :   -0.050656
  20 C :   -0.188204
  21 H :    0.027076
  22 C :   -0.037421
  23 H :    0.037831
  24 H :    0.019187
  25 C :   -0.039282
  26 H :    0.019546
  27 H :    0.029956
  28 C :   -0.063253
  29 H :    0.021331
  30 H :    0.023240
  31 H :    0.027952
  32 H :    0.018240
  33 H :    0.017810

  Mayer bond orders larger than 0.100000
B(  0-S ,  1-C ) :   1.1126 B(  0-S ,  4-C ) :   1.1225 B(  1-C ,  2-C ) :   1.6560
B(  1-C , 32-H ) :   0.9662 B(  2-C ,  3-C ) :   1.1767 B(  2-C ,  6-C ) :   1.0545
B(  3-C ,  4-C ) :   1.6263 B(  3-C ,  5-H ) :   0.9969 B(  4-C , 20-C ) :   1.0771
B(  6-C ,  7-H ) :   0.9288 B(  6-C ,  8-H ) :   0.9413 B(  6-C ,  9-C ) :   1.0594
B(  9-C , 10-H ) :   0.9530 B(  9-C , 11-H ) :   0.9572 B(  9-C , 12-C ) :   1.0770
B( 12-C , 13-H ) :   0.9751 B( 12-C , 14-H ) :   0.9727 B( 12-C , 15-H ) :   0.9763
B( 16-S , 17-C ) :   1.1471 B( 16-S , 20-C ) :   1.1381 B( 17-C , 18-C ) :   1.6213
B( 17-C , 33-H ) :   0.9665 B( 18-C , 19-C ) :   1.2432 B( 18-C , 21-H ) :   1.0025
B( 19-C , 20-C ) :   1.5689 B( 19-C , 22-C ) :   1.0466 B( 22-C , 23-H ) :   0.9430
B( 22-C , 24-H ) :   0.9222 B( 22-C , 25-C ) :   1.0584 B( 25-C , 26-H ) :   0.9540
B( 25-C , 27-H ) :   0.9562 B( 25-C , 28-C ) :   1.0766 B( 28-C , 29-H ) :   0.9764
B( 28-C , 30-H ) :   0.9773 B( 28-C , 31-H ) :   0.9739

Dispersion correction           -0.013698853
FINAL SINGLE POINT ENERGY     -1339.863677525366

DIPOLE MOMENT
-------------
                                X             Y             Z
Electronic contribution:      7.10672      -3.99379      31.19739
Nuclear contribution   :     -7.58961       4.03732     -31.75892
                        -----------------------------------------
Total Dipole Moment    :     -0.48289       0.04352      -0.56153
                        -----------------------------------------
Magnitude (a.u.)       :      0.74188
Magnitude (Debye)      :      1.88572

Rotational constants in cm-1:     0.016557     0.009139     0.006404
Rotational constants in MHz :   496.352131   273.971439   191.994847

                             ****ORCA TERMINATED NORMALLY****
TOTAL RUN TIME: 0 days 0 hours 0 minutes 35 seconds 737 msec
