                         Program Version 4.2.1 -  RELEASE  -
|  1> ! wB97X-D3 SP def2-SVP
|  2> %pal
|  3> nprocs 16
|  4> end
|  5>
|  6> * xyz 0 1
|  7> S 	 -14.0339 	 -10.3944 	 89.0413
|  8> C 	 -15.3418 	 -9.44606 	 88.2525
|  9> C 	 -16.5212 	 -9.53384 	 89.0105
| 10> C 	 -16.2763 	 -10.1961 	 90.2312
| 11> C 	 -14.9525 	 -10.6149 	 90.4531
| 12> H 	 -17.0881 	 -10.2876 	 90.8459
| 13> C 	 -17.878 	 -9.07303 	 88.5705
| 14> H 	 -17.8654 	 -8.89081 	 87.4688
| 15> H 	 -18.0317 	 -8.17385 	 89.1171
| 16> C 	 -18.9997 	 -10.0462 	 88.894
| 17> H 	 -18.7462 	 -10.9142 	 88.4378
| 18> H 	 -19.1845 	 -10.1186 	 90.0153
| 19> C 	 -20.3862 	 -9.53959 	 88.3678
| 20> H 	 -20.2135 	 -8.97166 	 87.4679
| 21> H 	 -21.0993 	 -10.2582 	 88.155
| 22> H 	 -20.7783 	 -8.78881 	 89.0353
| 23> S 	 -13.1562 	 -10.732 	 92.3738
| 24> C 	 -12.9752 	 -12.1444 	 93.4626
| 25> C 	 -14.0258 	 -12.9816 	 93.2432
| 26> C 	 -14.9175 	 -12.6018 	 92.1994
| 27> C 	 -14.5645 	 -11.3762 	 91.6015
| 28> H 	 -13.9876 	 -13.9267 	 93.8208
| 29> C 	 -16.0133 	 -13.4967 	 91.6149
| 30> H 	 -16.3512 	 -12.986 	 90.7126
| 31> H 	 -16.8769 	 -13.476 	 92.3236
| 32> C 	 -15.7038 	 -14.9538 	 91.151
| 33> H 	 -16.6613 	 -15.4845 	 90.8788
| 34> H 	 -15.4402 	 -15.5114 	 92.0682
| 35> C 	 -14.7084 	 -14.9513 	 90.027
| 36> H 	 -15.1469 	 -14.485 	 89.1569
| 37> H 	 -14.3958 	 -15.9455 	 89.6569
| 38> H 	 -13.8309 	 -14.373 	 90.2844
| 39> H 	 -15.3772 	 -8.97877 	 87.2372
| 40> H 	 -12.2113 	 -12.348 	 94.178
| 41> *
| 42>
| 43>                          ****END OF INPUT****

CARTESIAN COORDINATES (ANGSTROEM)
---------------------------------
  S    -14.033900  -10.394400   89.041300
  C    -15.341800   -9.446060   88.252500
  C    -16.521200   -9.533840   89.010500
  C    -16.276300  -10.196100   90.231200
  C    -14.952500  -10.614900   90.453100
  H    -17.088100  -10.287600   90.845900
  C    -17.878000   -9.073030   88.570500
  H    -17.865400   -8.890810   87.468800
  H    -18.031700   -8.173850   89.117100
  C    -18.999700  -10.046200   88.894000
  H    -18.746200  -10.914200   88.437800
  H    -19.184500  -10.118600   90.015300
  C    -20.386200   -9.539590   88.367800
  H    -20.213500   -8.971660   87.467900
  H    -21.099300  -10.258200   88.155000
  H    -20.778300   -8.788810   89.035300
  S    -13.156200  -10.732000   92.373800
  C    -12.975200  -12.144400   93.462600
  C    -14.025800  -12.981600   93.243200
  C    -14.917500  -12.601800   92.199400
  C    -14.564500  -11.376200   91.601500
  H    -13.987600  -13.926700   93.820800
  C    -16.013300  -13.496700   91.614900
  H    -16.351200  -12.986000   90.712600
  H    -16.876900  -13.476000   92.323600
  C    -15.703800  -14.953800   91.151000
  H    -16.661300  -15.484500   90.878800
  H    -15.440200  -15.511400   92.068200
  C    -14.708400  -14.951300   90.027000
  H    -15.146900  -14.485000   89.156900
  H    -14.395800  -15.945500   89.656900
  H    -13.830900  -14.373000   90.284400
  H    -15.377200   -8.978770   87.237200
  H    -12.211300  -12.348000   94.178000

 Total Charge           Charge          ....    0
 Multiplicity           Mult            ....    1
 Number of Electrons    NEL             ....  134
 Basis Dimension        Dim             ....  322

ORBITAL ENERGIES
----------------

  NO   OCC          E(Eh)            E(eV)
   0   2.0000     -88.973303     -2421.0867
   1   2.0000     -88.960529     -2420.7391
   2   2.0000     -10.328516      -281.0532
   3   2.0000     -10.326597      -281.0010
   4   2.0000     -10.320506      -280.8352
   5   2.0000     -10.315914      -280.7103
   6   2.0000     -10.307902      -280.4923
   7   2.0000     -10.298135      -280.2265
   8   2.0000     -10.294476      -280.1269
   9   2.0000     -10.293759      -280.1074
  10   2.0000     -10.291334      -280.0414
  11   2.0000     -10.290271      -280.0125
  12   2.0000     -10.288987      -279.9776
  13   2.0000     -10.285307      -279.8774
  14   2.0000     -10.273728      -279.5623
  15   2.0000     -10.271604      -279.5046
  16   2.0000      -8.087458      -220.0709
  17   2.0000      -8.075239      -219.7384
  18   2.0000      -6.046014      -164.5204
  19   2.0000      -6.041997      -164.4111
  20   2.0000      -6.038219      -164.3083
  21   2.0000      -6.033816      -164.1885
  22   2.0000      -6.029521      -164.0716
  23   2.0000      -6.026122      -163.9791
  24   2.0000      -1.009333       -27.4654
  25   2.0000      -0.982679       -26.7401
  26   2.0000      -0.921534       -25.0762
  27   2.0000      -0.903215       -24.5777
  28   2.0000      -0.874542       -23.7975
  29   2.0000      -0.851016       -23.1573
  30   2.0000      -0.842328       -22.9209
  31   2.0000      -0.814148       -22.1541
  32   2.0000      -0.785344       -21.3703
  33   2.0000      -0.769624       -20.9425
  34   2.0000      -0.718604       -19.5542
  35   2.0000      -0.699994       -19.0478
  36   2.0000      -0.695573       -18.9275
  37   2.0000      -0.652708       -17.7611
  38   2.0000      -0.632801       -17.2194
  39   2.0000      -0.630140       -17.1470
  40   2.0000      -0.589705       -16.0467
  41   2.0000      -0.585044       -15.9199
  42   2.0000      -0.567297       -15.4369
  43   2.0000      -0.552457       -15.0331
  44   2.0000      -0.538074       -14.6417
  45   2.0000      -0.530677       -14.4404
  46   2.0000      -0.520410       -14.1611
  47   2.0000      -0.508449       -13.8356
  48   2.0000      -0.504162       -13.7189
  49   2.0000      -0.501011       -13.6332
  50   2.0000      -0.491308       -13.3692
  51   2.0000      -0.478524       -13.0213
  52   2.0000      -0.467197       -12.7131
  53   2.0000      -0.463117       -12.6021
  54   2.0000      -0.458028       -12.4636
  55   2.0000      -0.450303       -12.2534
  56   2.0000      -0.444361       -12.0917
  57   2.0000      -0.439135       -11.9495
  58   2.0000      -0.435977       -11.8635
  59   2.0000      -0.427712       -11.6386
  60   2.0000      -0.420348       -11.4383
  61   2.0000      -0.415043       -11.2939
  62   2.0000      -0.405580       -11.0364
  63   2.0000      -0.341745        -9.2994
  64   2.0000      -0.334519        -9.1027
  65   2.0000      -0.324750        -8.8369
  66   2.0000      -0.294168        -8.0047
  67   0.0000       0.027303         0.7430
  68   0.0000       0.067091         1.8256
  69   0.0000       0.110353         3.0029
  70   0.0000       0.123241         3.3536
  71   0.0000       0.127983         3.4826

MULLIKEN ATOMIC CHARGES
-----------------------
   0 S :    0.141263
   1 C :   -0.149136
   2 C :   -0.113676
   3 C :    0.070719
   4 C :   -0.117141
   5 H :   -0.041420
   6 C :    0.089030
   7 H :    0.027480
   8 H :    0.032919
   9 C :   -0.102635
  10 H :    0.017670
  11 H :    0.053406
  12 C :   -0.005602
  13 H :    0.009360
  14 H :    0.029006
  15 H :    0.023777
  16 S :    0.089148
  17 C :   -0.086237
  18 C :   -0.056191
  19 C :   -0.011482
  20 C :   -0.185219
  21 H :    0.033766
  22 C :    0.032693
  23 H :    0.018489
  24 H :    0.039125
  25 C :   -0.068052
  26 H :    0.031794
  27 H :    0.024207
  28 C :   -0.030221
  29 H :    0.023381
  30 H :    0.032629
  31 H :    0.040559
  32 H :    0.058585
  33 H :    0.048008
Sum of atomic charges:   -0.0000000

LOEWDIN ATOMIC CHARGES
----------------------
   0 S :    0.429689
   1 C :   -0.204443
   2 C :   -0.061229
   3 C :   -0.050985
   4 C :   -0.224355
   5 H :    0.011481
   6 C :   -0.029142
   7 H :    0.034513
   8 H :    0.031533
   9 C :   -0.029991
  10 H :    0.010087
  11 H :    0.034544
  12 C :   -0.056145
  13 H :    0.021671
  14 H :    0.017571
  15 H :    0.025559
  16 S :    0.398523
  17 C :   -0.171990
  18 C :   -0.077873
  19 C :   -0.060154
  20 C :   -0.199622
  21 H :    0.039500
  22 C :   -0.036155
  23 H :    0.027319
  24 H :    0.034539
  25 C :   -0.047045
  26 H :    0.030624
  27 H :    0.019426
  28 C :   -0.065869
  29 H :    0.026316
  30 H :    0.027965
  31 H :    0.027962
  32 H :    0.038114
  33 H :    0.028061

  Mayer bond orders larger than 0.100000
B(  0-S ,  1-C ) :   1.1387 B(  0-S ,  4-C ) :   1.1754 B(  1-C ,  2-C ) :   1.5750
B(  1-C ,  4-C ) :   0.1033 B(  1-C , 32-H ) :   0.9601 B(  2-C ,  3-C ) :   1.3010
B(  2-C ,  6-C ) :   1.0184 B(  3-C ,  4-C ) :   1.4804 B(  3-C ,  5-H ) :   1.0135
B(  4-C , 20-C ) :   1.0488 B(  6-C ,  7-H ) :   0.9388 B(  6-C ,  8-H ) :   0.9255
B(  6-C ,  9-C ) :   1.0808 B(  9-C , 10-H ) :   0.9641 B(  9-C , 11-H ) :   0.9485
B(  9-C , 12-C ) :   1.0792 B( 12-C , 13-H ) :   0.9720 B( 12-C , 14-H ) :   0.9768
B( 12-C , 15-H ) :   0.9757 B( 16-S , 17-C ) :   1.1362 B( 16-S , 20-C ) :   1.1550
B( 17-C , 18-C ) :   1.6330 B( 17-C , 20-C ) :   0.1031 B( 17-C , 33-H ) :   0.9712
B( 18-C , 19-C ) :   1.2228 B( 18-C , 21-H ) :   0.9840 B( 19-C , 20-C ) :   1.5692
B( 19-C , 22-C ) :   1.0400 B( 22-C , 23-H ) :   0.9371 B( 22-C , 24-H ) :   0.9317
B( 22-C , 25-C ) :   1.0708 B( 25-C , 26-H ) :   0.9525 B( 25-C , 27-H ) :   0.9545
B( 25-C , 28-C ) :   1.0676 B( 28-C , 29-H ) :   0.9708 B( 28-C , 30-H ) :   0.9727
B( 28-C , 31-H ) :   0.9768

Dispersion correction           -0.014611151
FINAL SINGLE POINT ENERGY     -1339.861698047242

DIPOLE MOMENT
-------------
                                X             Y             Z
Electronic contribution:     23.74148       9.84767       7.87879
Nuclear contribution   :    -24.40223     -10.14916      -8.05521
                        -----------------------------------------
Total Dipole Moment    :     -0.66075      -0.30149      -0.17642
                        -----------------------------------------
Magnitude (a.u.)       :      0.74740
Magnitude (Debye)      :      1.89974

Rotational constants in cm-1:     0.019259     0.008472     0.007188
Rotational constants in MHz :   577.379195   253.976575   215.492615

                             ****ORCA TERMINATED NORMALLY****
TOTAL RUN TIME: 0 days 0 hours 0 minutes 33 seconds 604 msec
