                         Program Version 4.2.1 -  RELEASE  -
|  1> ! wB97X-D3 SP def2-SVP
|  2> %pal
|  3> nprocs 16
|  4> end
|  5>
|  6> * xyz 0 1
|  7> S 	 62.4785 	 4.92537 	 77.6626
|  8> C 	 61.4274 	 5.42047 	 78.9936
|  9> C 	 60.3602 	 6.0818 	 78.496
| 10> C 	 60.4188 	 6.3648 	 77.0829
| 11> C 	 61.59 	 5.90634 	 76.5109
| 12> H 	 59.7055 	 6.97197 	 76.56
| 13> C 	 59.1343 	 6.55549 	 79.2809
| 14> H 	 58.6681 	 5.75023 	 79.8696
| 15> H 	 58.3727 	 6.96346 	 78.5827
| 16> C 	 59.4813 	 7.71547 	 80.2468
| 17> H 	 60.354 	 7.41293 	 80.8036
| 18> H 	 59.8518 	 8.60193 	 79.7495
| 19> C 	 58.4343 	 8.20657 	 81.2096
| 20> H 	 57.5161 	 8.72071 	 80.8285
| 21> H 	 57.9925 	 7.43305 	 81.8116
| 22> H 	 58.8714 	 9.00837 	 81.8337
| 23> S 	 62.7984 	 4.57221 	 74.4585
| 24> C 	 62.9457 	 5.30502 	 72.9153
| 25> C 	 62.4533 	 6.59648 	 72.9286
| 26> C 	 61.8305 	 6.99276 	 74.1872
| 27> C 	 62.1309 	 6.06119 	 75.1852
| 28> H 	 62.5968 	 7.14866 	 71.9719
| 29> C 	 61.0677 	 8.33297 	 74.4145
| 30> H 	 61.5667 	 8.71684 	 75.2938
| 31> H 	 60.0302 	 8.23859 	 74.5932
| 32> C 	 61.2568 	 9.33635 	 73.2867
| 33> H 	 60.8746 	 8.95091 	 72.317
| 34> H 	 62.3432 	 9.51423 	 73.1171
| 35> C 	 60.6848 	 10.6733 	 73.6722
| 36> H 	 60.6435 	 11.2629 	 72.7703
| 37> H 	 61.233 	 11.2473 	 74.4577
| 38> H 	 59.6671 	 10.4846 	 74.1078
| 39> H 	 61.722 	 5.1927 	 80.0491
| 40> H 	 63.3703 	 4.84528 	 72.0323
| 41> *
| 42>
| 43>                          ****END OF INPUT****

CARTESIAN COORDINATES (ANGSTROEM)
---------------------------------
  S     62.478500    4.925370   77.662600
  C     61.427400    5.420470   78.993600
  C     60.360200    6.081800   78.496000
  C     60.418800    6.364800   77.082900
  C     61.590000    5.906340   76.510900
  H     59.705500    6.971970   76.560000
  C     59.134300    6.555490   79.280900
  H     58.668100    5.750230   79.869600
  H     58.372700    6.963460   78.582700
  C     59.481300    7.715470   80.246800
  H     60.354000    7.412930   80.803600
  H     59.851800    8.601930   79.749500
  C     58.434300    8.206570   81.209600
  H     57.516100    8.720710   80.828500
  H     57.992500    7.433050   81.811600
  H     58.871400    9.008370   81.833700
  S     62.798400    4.572210   74.458500
  C     62.945700    5.305020   72.915300
  C     62.453300    6.596480   72.928600
  C     61.830500    6.992760   74.187200
  C     62.130900    6.061190   75.185200
  H     62.596800    7.148660   71.971900
  C     61.067700    8.332970   74.414500
  H     61.566700    8.716840   75.293800
  H     60.030200    8.238590   74.593200
  C     61.256800    9.336350   73.286700
  H     60.874600    8.950910   72.317000
  H     62.343200    9.514230   73.117100
  C     60.684800   10.673300   73.672200
  H     60.643500   11.262900   72.770300
  H     61.233000   11.247300   74.457700
  H     59.667100   10.484600   74.107800
  H     61.722000    5.192700   80.049100
  H     63.370300    4.845280   72.032300

 Total Charge           Charge          ....    0
 Multiplicity           Mult            ....    1
 Number of Electrons    NEL             ....  134
 Basis Dimension        Dim             ....  322

ORBITAL ENERGIES
----------------

  NO   OCC          E(Eh)            E(eV)
   0   2.0000     -88.964106     -2420.8364
   1   2.0000     -88.960075     -2420.7267
   2   2.0000     -10.329993      -281.0934
   3   2.0000     -10.327822      -281.0343
   4   2.0000     -10.316209      -280.7183
   5   2.0000     -10.316207      -280.7183
   6   2.0000     -10.314133      -280.6618
   7   2.0000     -10.301297      -280.3125
   8   2.0000     -10.299347      -280.2595
   9   2.0000     -10.296037      -280.1694
  10   2.0000     -10.294328      -280.1229
  11   2.0000     -10.294017      -280.1144
  12   2.0000     -10.289413      -279.9892
  13   2.0000     -10.283358      -279.8244
  14   2.0000     -10.282449      -279.7997
  15   2.0000     -10.278823      -279.7010
  16   2.0000      -8.079126      -219.8442
  17   2.0000      -8.075152      -219.7361
  18   2.0000      -6.037735      -164.2951
  19   2.0000      -6.033856      -164.1896
  20   2.0000      -6.033598      -164.1825
  21   2.0000      -6.029734      -164.0774
  22   2.0000      -6.029631      -164.0746
  23   2.0000      -6.025671      -163.9668
  24   2.0000      -1.006974       -27.4012
  25   2.0000      -0.982776       -26.7427
  26   2.0000      -0.916642       -24.9431
  27   2.0000      -0.909315       -24.7437
  28   2.0000      -0.872571       -23.7439
  29   2.0000      -0.853589       -23.2273
  30   2.0000      -0.841324       -22.8936
  31   2.0000      -0.813624       -22.1398
  32   2.0000      -0.783971       -21.3329
  33   2.0000      -0.772748       -21.0275
  34   2.0000      -0.703253       -19.1365
  35   2.0000      -0.702650       -19.1201
  36   2.0000      -0.697910       -18.9911
  37   2.0000      -0.652967       -17.7681
  38   2.0000      -0.635130       -17.2828
  39   2.0000      -0.622352       -16.9351
  40   2.0000      -0.599541       -16.3143
  41   2.0000      -0.576203       -15.6793
  42   2.0000      -0.564235       -15.3536
  43   2.0000      -0.556458       -15.1420
  44   2.0000      -0.533608       -14.5202
  45   2.0000      -0.525692       -14.3048
  46   2.0000      -0.517922       -14.0934
  47   2.0000      -0.512432       -13.9440
  48   2.0000      -0.507542       -13.8109
  49   2.0000      -0.500603       -13.6221
  50   2.0000      -0.487701       -13.2710
  51   2.0000      -0.485468       -13.2103
  52   2.0000      -0.477589       -12.9959
  53   2.0000      -0.464819       -12.6484
  54   2.0000      -0.462772       -12.5927
  55   2.0000      -0.449156       -12.2222
  56   2.0000      -0.446510       -12.1502
  57   2.0000      -0.434308       -11.8181
  58   2.0000      -0.432238       -11.7618
  59   2.0000      -0.423945       -11.5361
  60   2.0000      -0.418302       -11.3826
  61   2.0000      -0.412659       -11.2290
  62   2.0000      -0.406008       -11.0480
  63   2.0000      -0.358256        -9.7486
  64   2.0000      -0.330798        -9.0015
  65   2.0000      -0.327472        -8.9110
  66   2.0000      -0.285850        -7.7784
  67   0.0000       0.022149         0.6027
  68   0.0000       0.073128         1.9899
  69   0.0000       0.104971         2.8564
  70   0.0000       0.120845         3.2884
  71   0.0000       0.134312         3.6548

MULLIKEN ATOMIC CHARGES
-----------------------
   0 S :    0.080873
   1 C :   -0.153791
   2 C :   -0.058136
   3 C :    0.019582
   4 C :   -0.134277
   5 H :   -0.002129
   6 C :    0.066948
   7 H :    0.037833
   8 H :    0.024694
   9 C :   -0.069147
  10 H :    0.015929
  11 H :    0.019182
  12 C :   -0.054297
  13 H :    0.026248
  14 H :    0.023004
  15 H :    0.036608
  16 S :    0.091227
  17 C :   -0.078748
  18 C :   -0.067924
  19 C :   -0.060818
  20 C :   -0.092415
  21 H :    0.034478
  22 C :    0.058897
  23 H :    0.040054
  24 H :    0.040349
  25 C :   -0.115493
  26 H :    0.038983
  27 H :    0.033045
  28 C :   -0.036430
  29 H :    0.035636
  30 H :    0.043689
  31 H :    0.025772
  32 H :    0.072546
  33 H :    0.058030
Sum of atomic charges:   -0.0000000

LOEWDIN ATOMIC CHARGES
----------------------
   0 S :    0.384293
   1 C :   -0.194511
   2 C :   -0.063056
   3 C :   -0.065749
   4 C :   -0.180598
   5 H :    0.027067
   6 C :   -0.028571
   7 H :    0.032573
   8 H :    0.030413
   9 C :   -0.046124
  10 H :    0.021222
  11 H :    0.024897
  12 C :   -0.074619
  13 H :    0.026627
  14 H :    0.019013
  15 H :    0.033039
  16 S :    0.403502
  17 C :   -0.193625
  18 C :   -0.085081
  19 C :   -0.044279
  20 C :   -0.193284
  21 H :    0.038370
  22 C :   -0.027584
  23 H :    0.038996
  24 H :    0.023507
  25 C :   -0.049413
  26 H :    0.025650
  27 H :    0.028423
  28 C :   -0.066505
  29 H :    0.026493
  30 H :    0.030741
  31 H :    0.026010
  32 H :    0.039716
  33 H :    0.032448

  Mayer bond orders larger than 0.100000
B(  0-S ,  1-C ) :   1.1155 B(  0-S ,  4-C ) :   1.1447 B(  1-C ,  2-C ) :   1.6308
B(  1-C , 32-H ) :   0.9687 B(  2-C ,  3-C ) :   1.2253 B(  2-C ,  6-C ) :   1.0177
B(  3-C ,  4-C ) :   1.5747 B(  3-C ,  5-H ) :   0.9963 B(  4-C , 20-C ) :   1.0538
B(  6-C ,  7-H ) :   0.9425 B(  6-C ,  8-H ) :   0.9443 B(  6-C ,  9-C ) :   1.0597
B(  9-C , 10-H ) :   0.9557 B(  9-C , 11-H ) :   0.9518 B(  9-C , 12-C ) :   1.0882
B( 12-C , 13-H ) :   0.9732 B( 12-C , 14-H ) :   0.9729 B( 12-C , 15-H ) :   0.9713
B( 16-S , 17-C ) :   1.1620 B( 16-S , 20-C ) :   1.1243 B( 17-C , 18-C ) :   1.6198
B( 17-C , 33-H ) :   0.9620 B( 18-C , 19-C ) :   1.2190 B( 18-C , 21-H ) :   0.9830
B( 19-C , 20-C ) :   1.6169 B( 19-C , 22-C ) :   1.0087 B( 22-C , 23-H ) :   0.9409
B( 22-C , 24-H ) :   0.9287 B( 22-C , 25-C ) :   1.0975 B( 25-C , 26-H ) :   0.9477
B( 25-C , 27-H ) :   0.9489 B( 25-C , 28-C ) :   1.0831 B( 28-C , 29-H ) :   0.9702
B( 28-C , 30-H ) :   0.9741 B( 28-C , 31-H ) :   0.9713

Dispersion correction           -0.013201848
FINAL SINGLE POINT ENERGY     -1339.879743637095

DIPOLE MOMENT
-------------
                                X             Y             Z
Electronic contribution:     17.11631     -25.76630      -7.38997
Nuclear contribution   :    -17.50769      26.39397       7.27303
                        -----------------------------------------
Total Dipole Moment    :     -0.39138       0.62766      -0.11694
                        -----------------------------------------
Magnitude (a.u.)       :      0.74887
Magnitude (Debye)      :      1.90348

Rotational constants in cm-1:     0.017308     0.008401     0.005869
Rotational constants in MHz :   518.870284   251.843807   175.943606

                             ****ORCA TERMINATED NORMALLY****
TOTAL RUN TIME: 0 days 0 hours 0 minutes 28 seconds 795 msec
