                         Program Version 4.2.1 -  RELEASE  -
|  1> ! wB97X-D3 SP def2-SVP
|  2> %pal
|  3> nprocs 16
|  4> end
|  5>
|  6> * xyz 0 1
|  7> S 	 -0.109364 	 -14.4475 	 66.2408
|  8> C 	 1.30112 	 -14.8583 	 65.2272
|  9> C 	 2.15946 	 -15.6753 	 65.9114
| 10> C 	 1.77768 	 -15.8617 	 67.2951
| 11> C 	 0.632872 	 -15.1652 	 67.6412
| 12> H 	 2.33886 	 -16.3601 	 68.0109
| 13> C 	 3.5462 	 -16.1398 	 65.4033
| 14> H 	 3.79959 	 -15.8459 	 64.4017
| 15> H 	 3.71421 	 -17.1968 	 65.4634
| 16> C 	 4.72053 	 -15.5792 	 66.2809
| 17> H 	 4.66768 	 -14.5435 	 66.3505
| 18> H 	 4.51839 	 -15.948 	 67.3072
| 19> C 	 6.16098 	 -16.0028 	 65.976
| 20> H 	 6.32405 	 -17.0947 	 66.1193
| 21> H 	 6.38448 	 -15.8621 	 64.8679
| 22> H 	 6.91636 	 -15.3526 	 66.4778
| 23> S 	 -1.70631 	 -15.3402 	 69.0411
| 24> C 	 -1.53487 	 -15.5072 	 70.7561
| 25> C 	 -0.269578 	 -15.1327 	 71.2437
| 26> C 	 0.610821 	 -14.8037 	 70.1888
| 27> C 	 0.0384712 	 -15.0932 	 68.9635
| 28> H 	 -0.0832146 	 -15.1552 	 72.304
| 29> C 	 1.99472 	 -14.2837 	 70.4773
| 30> H 	 2.69605 	 -14.9899 	 70.0644
| 31> H 	 2.10202 	 -14.22 	 71.5118
| 32> C 	 2.37135 	 -12.8136 	 70.1217
| 33> H 	 1.62448 	 -12.1754 	 70.5526
| 34> H 	 2.33496 	 -12.6249 	 69.0244
| 35> C 	 3.70005 	 -12.2008 	 70.6818
| 36> H 	 4.57291 	 -12.6988 	 70.3152
| 37> H 	 3.64766 	 -12.3419 	 71.7421
| 38> H 	 3.62255 	 -11.1382 	 70.416
| 39> H 	 1.34024 	 -14.6362 	 64.1136
| 40> H 	 -2.27099 	 -15.8754 	 71.4684
| 41> *
| 42>
| 43>                          ****END OF INPUT****

CARTESIAN COORDINATES (ANGSTROEM)
---------------------------------
  S     -0.109364  -14.447500   66.240800
  C      1.301120  -14.858300   65.227200
  C      2.159460  -15.675300   65.911400
  C      1.777680  -15.861700   67.295100
  C      0.632872  -15.165200   67.641200
  H      2.338860  -16.360100   68.010900
  C      3.546200  -16.139800   65.403300
  H      3.799590  -15.845900   64.401700
  H      3.714210  -17.196800   65.463400
  C      4.720530  -15.579200   66.280900
  H      4.667680  -14.543500   66.350500
  H      4.518390  -15.948000   67.307200
  C      6.160980  -16.002800   65.976000
  H      6.324050  -17.094700   66.119300
  H      6.384480  -15.862100   64.867900
  H      6.916360  -15.352600   66.477800
  S     -1.706310  -15.340200   69.041100
  C     -1.534870  -15.507200   70.756100
  C     -0.269578  -15.132700   71.243700
  C      0.610821  -14.803700   70.188800
  C      0.038471  -15.093200   68.963500
  H     -0.083215  -15.155200   72.304000
  C      1.994720  -14.283700   70.477300
  H      2.696050  -14.989900   70.064400
  H      2.102020  -14.220000   71.511800
  C      2.371350  -12.813600   70.121700
  H      1.624480  -12.175400   70.552600
  H      2.334960  -12.624900   69.024400
  C      3.700050  -12.200800   70.681800
  H      4.572910  -12.698800   70.315200
  H      3.647660  -12.341900   71.742100
  H      3.622550  -11.138200   70.416000
  H      1.340240  -14.636200   64.113600
  H     -2.270990  -15.875400   71.468400

 Total Charge           Charge          ....    0
 Multiplicity           Mult            ....    1
 Number of Electrons    NEL             ....  134
 Basis Dimension        Dim             ....  322

ORBITAL ENERGIES
----------------

  NO   OCC          E(Eh)            E(eV)
   0   2.0000     -88.971207     -2421.0296
   1   2.0000     -88.963964     -2420.8325
   2   2.0000     -10.329250      -281.0732
   3   2.0000     -10.325846      -280.9805
   4   2.0000     -10.320020      -280.8220
   5   2.0000     -10.317835      -280.7626
   6   2.0000     -10.306826      -280.4630
   7   2.0000     -10.304425      -280.3976
   8   2.0000     -10.294378      -280.1243
   9   2.0000     -10.294200      -280.1194
  10   2.0000     -10.290152      -280.0093
  11   2.0000     -10.289730      -279.9978
  12   2.0000     -10.287869      -279.9472
  13   2.0000     -10.285239      -279.8756
  14   2.0000     -10.283375      -279.8249
  15   2.0000     -10.278260      -279.6857
  16   2.0000      -8.086003      -220.0313
  17   2.0000      -8.078679      -219.8320
  18   2.0000      -6.044376      -164.4758
  19   2.0000      -6.040777      -164.3779
  20   2.0000      -6.037297      -164.2832
  21   2.0000      -6.036638      -164.2653
  22   2.0000      -6.033322      -164.1751
  23   2.0000      -6.029200      -164.0629
  24   2.0000      -1.008398       -27.4399
  25   2.0000      -0.983140       -26.7526
  26   2.0000      -0.908138       -24.7117
  27   2.0000      -0.906149       -24.6576
  28   2.0000      -0.867696       -23.6112
  29   2.0000      -0.857179       -23.3250
  30   2.0000      -0.842454       -22.9243
  31   2.0000      -0.812088       -22.0980
  32   2.0000      -0.786725       -21.4079
  33   2.0000      -0.773713       -21.0538
  34   2.0000      -0.707083       -19.2407
  35   2.0000      -0.695302       -18.9201
  36   2.0000      -0.687244       -18.7009
  37   2.0000      -0.665975       -18.1221
  38   2.0000      -0.640577       -17.4310
  39   2.0000      -0.623767       -16.9736
  40   2.0000      -0.594699       -16.1826
  41   2.0000      -0.571575       -15.5533
  42   2.0000      -0.569661       -15.5013
  43   2.0000      -0.553995       -15.0750
  44   2.0000      -0.528184       -14.3726
  45   2.0000      -0.517706       -14.0875
  46   2.0000      -0.517176       -14.0731
  47   2.0000      -0.510055       -13.8793
  48   2.0000      -0.508217       -13.8293
  49   2.0000      -0.497271       -13.5314
  50   2.0000      -0.491929       -13.3861
  51   2.0000      -0.485565       -13.2129
  52   2.0000      -0.476906       -12.9773
  53   2.0000      -0.464789       -12.6475
  54   2.0000      -0.459071       -12.4920
  55   2.0000      -0.454556       -12.3691
  56   2.0000      -0.444224       -12.0880
  57   2.0000      -0.437018       -11.8919
  58   2.0000      -0.433322       -11.7913
  59   2.0000      -0.423447       -11.5226
  60   2.0000      -0.422077       -11.4853
  61   2.0000      -0.414968       -11.2919
  62   2.0000      -0.410344       -11.1660
  63   2.0000      -0.347058        -9.4439
  64   2.0000      -0.336221        -9.1490
  65   2.0000      -0.329498        -8.9661
  66   2.0000      -0.285844        -7.7782
  67   0.0000       0.025386         0.6908
  68   0.0000       0.065838         1.7915
  69   0.0000       0.096837         2.6351
  70   0.0000       0.120201         3.2708
  71   0.0000       0.128549         3.4980

MULLIKEN ATOMIC CHARGES
-----------------------
   0 S :    0.090010
   1 C :   -0.157496
   2 C :   -0.043378
   3 C :    0.035301
   4 C :   -0.129613
   5 H :   -0.013607
   6 C :    0.095186
   7 H :    0.012660
   8 H :    0.022811
   9 C :   -0.100748
  10 H :    0.020592
  11 H :    0.022382
  12 C :   -0.075932
  13 H :    0.040211
  14 H :    0.026956
  15 H :    0.050517
  16 S :    0.126359
  17 C :   -0.089218
  18 C :   -0.052071
  19 C :   -0.034682
  20 C :   -0.164906
  21 H :    0.017857
  22 C :    0.140875
  23 H :    0.025671
  24 H :   -0.014576
  25 C :   -0.112068
  26 H :    0.019897
  27 H :    0.040561
  28 C :   -0.036898
  29 H :    0.033950
  30 H :    0.022430
  31 H :    0.048757
  32 H :    0.077371
  33 H :    0.054839
Sum of atomic charges:   -0.0000000

LOEWDIN ATOMIC CHARGES
----------------------
   0 S :    0.381708
   1 C :   -0.197274
   2 C :   -0.057548
   3 C :   -0.058376
   4 C :   -0.185824
   5 H :    0.016959
   6 C :   -0.022810
   7 H :    0.023244
   8 H :    0.027761
   9 C :   -0.042280
  10 H :    0.013795
  11 H :    0.021564
  12 C :   -0.076102
  13 H :    0.027550
  14 H :    0.026412
  15 H :    0.035305
  16 S :    0.412677
  17 C :   -0.191371
  18 C :   -0.067614
  19 C :   -0.050863
  20 C :   -0.190865
  21 H :    0.031340
  22 C :   -0.027323
  23 H :    0.029215
  24 H :    0.021008
  25 C :   -0.037871
  26 H :    0.020583
  27 H :    0.024162
  28 C :   -0.056628
  29 H :    0.019836
  30 H :    0.019197
  31 H :    0.035820
  32 H :    0.044550
  33 H :    0.030062

  Mayer bond orders larger than 0.100000
B(  0-S ,  1-C ) :   1.1113 B(  0-S ,  4-C ) :   1.1418 B(  1-C ,  2-C ) :   1.6476
B(  1-C , 32-H ) :   0.9588 B(  2-C ,  3-C ) :   1.2019 B(  2-C ,  6-C ) :   1.0318
B(  3-C ,  4-C ) :   1.5921 B(  3-C ,  5-H ) :   1.0058 B(  4-C , 20-C ) :   1.0562
B(  6-C ,  7-H ) :   0.9501 B(  6-C ,  8-H ) :   0.9390 B(  6-C ,  9-C ) :   1.0488
B(  9-C , 10-H ) :   0.9598 B(  9-C , 11-H ) :   0.9524 B(  9-C , 12-C ) :   1.0845
B( 12-C , 13-H ) :   0.9737 B( 12-C , 14-H ) :   0.9738 B( 12-C , 15-H ) :   0.9728
B( 16-S , 17-C ) :   1.1585 B( 16-S , 20-C ) :   1.1335 B( 17-C , 18-C ) :   1.6154
B( 17-C , 20-C ) :   0.1046 B( 17-C , 33-H ) :   0.9642 B( 18-C , 19-C ) :   1.2375
B( 18-C , 21-H ) :   0.9911 B( 19-C , 20-C ) :   1.5838 B( 19-C , 22-C ) :   1.0519
B( 22-C , 23-H ) :   0.9243 B( 22-C , 24-H ) :   0.9230 B( 22-C , 25-C ) :   1.0586
B( 25-C , 26-H ) :   0.9562 B( 25-C , 27-H ) :   0.9586 B( 25-C , 28-C ) :   1.0803
B( 28-C , 29-H ) :   0.9782 B( 28-C , 30-H ) :   0.9755 B( 28-C , 31-H ) :   0.9753

Dispersion correction           -0.014076668
FINAL SINGLE POINT ENERGY     -1339.865644501036

DIPOLE MOMENT
-------------
                                X             Y             Z
Electronic contribution:    -32.09402      -4.01621      -3.54639
Nuclear contribution   :     32.70396       3.99457       3.87117
                        -----------------------------------------
Total Dipole Moment    :      0.60994      -0.02164       0.32478
                        -----------------------------------------
Magnitude (a.u.)       :      0.69136
Magnitude (Debye)      :      1.75730

Rotational constants in cm-1:     0.016702     0.009406     0.006958
Rotational constants in MHz :   500.703177   281.995487   208.582201

                             ****ORCA TERMINATED NORMALLY****
TOTAL RUN TIME: 0 days 0 hours 0 minutes 33 seconds 328 msec
