                         Program Version 4.2.1 -  RELEASE  -
|  1> ! wB97X-D3 SP def2-SVP
|  2> %pal
|  3> nprocs 16
|  4> end
|  5>
|  6> * xyz 0 1
|  7> S 	 24.2835 	 6.05439 	 73.8277
|  8> C 	 24.0968 	 4.27514 	 73.665
|  9> C 	 23.5409 	 3.82368 	 74.8577
| 10> C 	 23.5542 	 4.83757 	 75.934
| 11> C 	 24.0304 	 6.1398 	 75.5835
| 12> H 	 23.2795 	 4.65303 	 76.9361
| 13> C 	 23.0097 	 2.40929 	 75.1979
| 14> H 	 23.3942 	 2.09896 	 76.1494
| 15> H 	 23.5768 	 1.7901 	 74.5426
| 16> C 	 21.4658 	 2.13713 	 75.2317
| 17> H 	 21.2882 	 1.12196 	 75.4815
| 18> H 	 20.9847 	 2.7451 	 76.0301
| 19> C 	 20.8544 	 2.29644 	 73.7942
| 20> H 	 21.46 	 1.73063 	 73.0255
| 21> H 	 19.8995 	 1.67617 	 73.705
| 22> H 	 20.8298 	 3.34269 	 73.5594
| 23> S 	 22.3835 	 8.39942 	 75.8554
| 24> C 	 22.7538 	 9.54178 	 77.1873
| 25> C 	 23.8842 	 9.21276 	 77.8568
| 26> C 	 24.4201 	 7.91845 	 77.4502
| 27> C 	 23.8007 	 7.41592 	 76.2972
| 28> H 	 24.1833 	 9.77055 	 78.6832
| 29> C 	 25.5465 	 7.18384 	 78.2866
| 30> H 	 26.3914 	 7.85236 	 78.272
| 31> H 	 25.8768 	 6.25395 	 77.7332
| 32> C 	 25.2396 	 6.83738 	 79.7471
| 33> H 	 24.8228 	 7.77062 	 80.2196
| 34> H 	 26.1756 	 6.56012 	 80.2355
| 35> C 	 24.3081 	 5.63592 	 79.9525
| 36> H 	 23.9299 	 5.64345 	 80.9717
| 37> H 	 24.7021 	 4.62814 	 79.789
| 38> H 	 23.3592 	 5.73331 	 79.419
| 39> H 	 24.0452 	 3.74718 	 72.7566
| 40> H 	 22.2174 	 10.417 	 77.3874
| 41> *
| 42>
| 43>                          ****END OF INPUT****

CARTESIAN COORDINATES (ANGSTROEM)
---------------------------------
  S     24.283500    6.054390   73.827700
  C     24.096800    4.275140   73.665000
  C     23.540900    3.823680   74.857700
  C     23.554200    4.837570   75.934000
  C     24.030400    6.139800   75.583500
  H     23.279500    4.653030   76.936100
  C     23.009700    2.409290   75.197900
  H     23.394200    2.098960   76.149400
  H     23.576800    1.790100   74.542600
  C     21.465800    2.137130   75.231700
  H     21.288200    1.121960   75.481500
  H     20.984700    2.745100   76.030100
  C     20.854400    2.296440   73.794200
  H     21.460000    1.730630   73.025500
  H     19.899500    1.676170   73.705000
  H     20.829800    3.342690   73.559400
  S     22.383500    8.399420   75.855400
  C     22.753800    9.541780   77.187300
  C     23.884200    9.212760   77.856800
  C     24.420100    7.918450   77.450200
  C     23.800700    7.415920   76.297200
  H     24.183300    9.770550   78.683200
  C     25.546500    7.183840   78.286600
  H     26.391400    7.852360   78.272000
  H     25.876800    6.253950   77.733200
  C     25.239600    6.837380   79.747100
  H     24.822800    7.770620   80.219600
  H     26.175600    6.560120   80.235500
  C     24.308100    5.635920   79.952500
  H     23.929900    5.643450   80.971700
  H     24.702100    4.628140   79.789000
  H     23.359200    5.733310   79.419000
  H     24.045200    3.747180   72.756600
  H     22.217400   10.417000   77.387400

 Total Charge           Charge          ....    0
 Multiplicity           Mult            ....    1
 Number of Electrons    NEL             ....  134
 Basis Dimension        Dim             ....  322

ORBITAL ENERGIES
----------------

  NO   OCC          E(Eh)            E(eV)
   0   2.0000     -88.967094     -2420.9177
   1   2.0000     -88.962720     -2420.7987
   2   2.0000     -10.339103      -281.3413
   3   2.0000     -10.335362      -281.2395
   4   2.0000     -10.320985      -280.8483
   5   2.0000     -10.318315      -280.7756
   6   2.0000     -10.313732      -280.6509
   7   2.0000     -10.311596      -280.5928
   8   2.0000     -10.300068      -280.2791
   9   2.0000     -10.297680      -280.2141
  10   2.0000     -10.294767      -280.1348
  11   2.0000     -10.293578      -280.1025
  12   2.0000     -10.293187      -280.0918
  13   2.0000     -10.291899      -280.0568
  14   2.0000     -10.285756      -279.8897
  15   2.0000     -10.277337      -279.6606
  16   2.0000      -8.080724      -219.8877
  17   2.0000      -8.076290      -219.7670
  18   2.0000      -6.039433      -164.3413
  19   2.0000      -6.035525      -164.2350
  20   2.0000      -6.034999      -164.2207
  21   2.0000      -6.031177      -164.1167
  22   2.0000      -6.030900      -164.1091
  23   2.0000      -6.026902      -164.0003
  24   2.0000      -0.994243       -27.0547
  25   2.0000      -0.972940       -26.4750
  26   2.0000      -0.902789       -24.5661
  27   2.0000      -0.902114       -24.5478
  28   2.0000      -0.868208       -23.6251
  29   2.0000      -0.842504       -22.9257
  30   2.0000      -0.834764       -22.7151
  31   2.0000      -0.815182       -22.1822
  32   2.0000      -0.781284       -21.2598
  33   2.0000      -0.774495       -21.0751
  34   2.0000      -0.709291       -19.3008
  35   2.0000      -0.698952       -19.0194
  36   2.0000      -0.692984       -18.8570
  37   2.0000      -0.659179       -17.9372
  38   2.0000      -0.641593       -17.4586
  39   2.0000      -0.612303       -16.6616
  40   2.0000      -0.594475       -16.1765
  41   2.0000      -0.571076       -15.5398
  42   2.0000      -0.551467       -15.0062
  43   2.0000      -0.549539       -14.9537
  44   2.0000      -0.542992       -14.7756
  45   2.0000      -0.535496       -14.5716
  46   2.0000      -0.516592       -14.0572
  47   2.0000      -0.512104       -13.9351
  48   2.0000      -0.505218       -13.7477
  49   2.0000      -0.492576       -13.4037
  50   2.0000      -0.489250       -13.3132
  51   2.0000      -0.475945       -12.9511
  52   2.0000      -0.470560       -12.8046
  53   2.0000      -0.464207       -12.6317
  54   2.0000      -0.456632       -12.4256
  55   2.0000      -0.444779       -12.1030
  56   2.0000      -0.439788       -11.9672
  57   2.0000      -0.436106       -11.8671
  58   2.0000      -0.429921       -11.6988
  59   2.0000      -0.422657       -11.5011
  60   2.0000      -0.415574       -11.3083
  61   2.0000      -0.413193       -11.2436
  62   2.0000      -0.407507       -11.0888
  63   2.0000      -0.342796        -9.3280
  64   2.0000      -0.327744        -8.9184
  65   2.0000      -0.320688        -8.7264
  66   2.0000      -0.304817        -8.2945
  67   0.0000       0.030293         0.8243
  68   0.0000       0.051869         1.4114
  69   0.0000       0.108904         2.9634
  70   0.0000       0.115218         3.1352
  71   0.0000       0.123031         3.3478

MULLIKEN ATOMIC CHARGES
-----------------------
   0 S :    0.077245
   1 C :   -0.083756
   2 C :   -0.121025
   3 C :    0.051063
   4 C :   -0.148259
   5 H :   -0.007573
   6 C :    0.066637
   7 H :    0.017218
   8 H :    0.009110
   9 C :   -0.040692
  10 H :    0.021196
  11 H :    0.043195
  12 C :   -0.091661
  13 H :    0.026571
  14 H :    0.043315
  15 H :    0.056507
  16 S :    0.104307
  17 C :   -0.072769
  18 C :    0.005375
  19 C :   -0.059255
  20 C :   -0.147846
  21 H :    0.003124
  22 C :    0.058552
  23 H :    0.028838
  24 H :    0.039119
  25 C :   -0.073652
  26 H :    0.035209
  27 H :    0.037124
  28 C :   -0.063047
  29 H :    0.023546
  30 H :    0.039727
  31 H :    0.035494
  32 H :    0.046571
  33 H :    0.040491
Sum of atomic charges:    0.0000000

LOEWDIN ATOMIC CHARGES
----------------------
   0 S :    0.379989
   1 C :   -0.178189
   2 C :   -0.060391
   3 C :   -0.050857
   4 C :   -0.193095
   5 H :    0.018343
   6 C :   -0.031943
   7 H :    0.027250
   8 H :    0.024505
   9 C :   -0.034122
  10 H :    0.020009
  11 H :    0.029992
  12 C :   -0.074723
  13 H :    0.027492
  14 H :    0.034212
  15 H :    0.024697
  16 S :    0.376011
  17 C :   -0.152986
  18 C :   -0.063962
  19 C :   -0.045565
  20 C :   -0.197103
  21 H :    0.022928
  22 C :   -0.033354
  23 H :    0.029209
  24 H :    0.036528
  25 C :   -0.042360
  26 H :    0.029002
  27 H :    0.029305
  28 C :   -0.075591
  29 H :    0.028248
  30 H :    0.026719
  31 H :    0.025168
  32 H :    0.024569
  33 H :    0.020067

  Mayer bond orders larger than 0.100000
B(  0-S ,  1-C ) :   1.1339 B(  0-S ,  4-C ) :   1.1407 B(  1-C ,  2-C ) :   1.6031
B(  1-C ,  4-C ) :   0.1007 B(  1-C , 32-H ) :   0.9733 B(  2-C ,  3-C ) :   1.2427
B(  2-C ,  6-C ) :   1.0130 B(  3-C ,  4-C ) :   1.5568 B(  3-C ,  5-H ) :   0.9974
B(  4-C , 20-C ) :   1.0299 B(  6-C ,  7-H ) :   0.9440 B(  6-C ,  8-H ) :   0.9446
B(  6-C ,  9-C ) :   1.0692 B(  9-C , 10-H ) :   0.9556 B(  9-C , 11-H ) :   0.9578
B(  9-C , 12-C ) :   1.0633 B( 12-C , 13-H ) :   0.9746 B( 12-C , 14-H ) :   0.9759
B( 12-C , 15-H ) :   0.9801 B( 16-S , 17-C ) :   1.1318 B( 16-S , 20-C ) :   1.1216
B( 17-C , 18-C ) :   1.6627 B( 17-C , 33-H ) :   0.9696 B( 18-C , 19-C ) :   1.2006
B( 18-C , 21-H ) :   0.9933 B( 19-C , 20-C ) :   1.6433 B( 19-C , 22-C ) :   1.0293
B( 22-C , 23-H ) :   0.9368 B( 22-C , 24-H ) :   0.9385 B( 22-C , 25-C ) :   1.0728
B( 25-C , 26-H ) :   0.9552 B( 25-C , 27-H ) :   0.9530 B( 25-C , 28-C ) :   1.0785
B( 28-C , 29-H ) :   0.9684 B( 28-C , 30-H ) :   0.9757 B( 28-C , 31-H ) :   0.9721

Dispersion correction           -0.014684756
FINAL SINGLE POINT ENERGY     -1339.854341105534

DIPOLE MOMENT
-------------
                                X             Y             Z
Electronic contribution:      2.59871      19.26819     -13.41618
Nuclear contribution   :     -2.73673     -19.67202      14.08254
                        -----------------------------------------
Total Dipole Moment    :     -0.13802      -0.40382       0.66637
                        -----------------------------------------
Magnitude (a.u.)       :      0.79131
Magnitude (Debye)      :      2.01134

Rotational constants in cm-1:     0.019080     0.008247     0.007084
Rotational constants in MHz :   572.007412   247.243873   212.363847

                             ****ORCA TERMINATED NORMALLY****
TOTAL RUN TIME: 0 days 0 hours 0 minutes 34 seconds 844 msec
