                         Program Version 4.2.1 -  RELEASE  -
|  1> ! wB97X-D3 SP def2-SVP
|  2> %pal
|  3> nprocs 16
|  4> end
|  5>
|  6> * xyz 0 1
|  7> S 	 6.72046 	 -5.47984 	 101.003
|  8> C 	 6.00303 	 -4.88979 	 99.5485
|  9> C 	 5.67813 	 -5.91419 	 98.7057
| 10> C 	 5.90475 	 -7.26148 	 99.2344
| 11> C 	 6.42102 	 -7.19199 	 100.499
| 12> H 	 5.79429 	 -8.24958 	 98.7967
| 13> C 	 4.88775 	 -5.6908 	 97.3801
| 14> H 	 4.64743 	 -4.61042 	 97.1952
| 15> H 	 3.90919 	 -6.09744 	 97.4997
| 16> C 	 5.60065 	 -6.11681 	 96.1593
| 17> H 	 6.44599 	 -5.52936 	 95.9604
| 18> H 	 5.80289 	 -7.15024 	 96.3513
| 19> C 	 4.73167 	 -6.0402 	 94.9155
| 20> H 	 3.75058 	 -6.36041 	 95.2301
| 21> H 	 4.46308 	 -4.97394 	 94.6981
| 22> H 	 5.17089 	 -6.58558 	 94.0811
| 23> S 	 5.76213 	 -9.28945 	 102.193
| 24> C 	 7.07176 	 -10.3247 	 102.762
| 25> C 	 8.27059 	 -9.96767 	 102.261
| 26> C 	 8.26282 	 -8.76773 	 101.418
| 27> C 	 6.96435 	 -8.26325 	 101.325
| 28> H 	 9.09335 	 -10.6088 	 102.51
| 29> C 	 9.4937 	 -8.3612 	 100.737
| 30> H 	 9.17992 	 -7.87784 	 99.756
| 31> H 	 10.087 	 -9.18433 	 100.481
| 32> C 	 10.3591 	 -7.39237 	 101.537
| 33> H 	 10.6348 	 -7.76539 	 102.507
| 34> H 	 9.66027 	 -6.52604 	 101.706
| 35> C 	 11.6689 	 -6.90002 	 100.81
| 36> H 	 12.0505 	 -6.05062 	 101.323
| 37> H 	 11.521 	 -6.66121 	 99.7489
| 38> H 	 12.3282 	 -7.70475 	 100.855
| 39> H 	 5.85772 	 -3.82531 	 99.505
| 40> H 	 6.95602 	 -11.1749 	 103.436
| 41> *
| 42>
| 43>                          ****END OF INPUT****

CARTESIAN COORDINATES (ANGSTROEM)
---------------------------------
  S      6.720460   -5.479840  101.003000
  C      6.003030   -4.889790   99.548500
  C      5.678130   -5.914190   98.705700
  C      5.904750   -7.261480   99.234400
  C      6.421020   -7.191990  100.499000
  H      5.794290   -8.249580   98.796700
  C      4.887750   -5.690800   97.380100
  H      4.647430   -4.610420   97.195200
  H      3.909190   -6.097440   97.499700
  C      5.600650   -6.116810   96.159300
  H      6.445990   -5.529360   95.960400
  H      5.802890   -7.150240   96.351300
  C      4.731670   -6.040200   94.915500
  H      3.750580   -6.360410   95.230100
  H      4.463080   -4.973940   94.698100
  H      5.170890   -6.585580   94.081100
  S      5.762130   -9.289450  102.193000
  C      7.071760  -10.324700  102.762000
  C      8.270590   -9.967670  102.261000
  C      8.262820   -8.767730  101.418000
  C      6.964350   -8.263250  101.325000
  H      9.093350  -10.608800  102.510000
  C      9.493700   -8.361200  100.737000
  H      9.179920   -7.877840   99.756000
  H     10.087000   -9.184330  100.481000
  C     10.359100   -7.392370  101.537000
  H     10.634800   -7.765390  102.507000
  H      9.660270   -6.526040  101.706000
  C     11.668900   -6.900020  100.810000
  H     12.050500   -6.050620  101.323000
  H     11.521000   -6.661210   99.748900
  H     12.328200   -7.704750  100.855000
  H      5.857720   -3.825310   99.505000
  H      6.956020  -11.174900  103.436000

 Total Charge           Charge          ....    0
 Multiplicity           Mult            ....    1
 Number of Electrons    NEL             ....  134
 Basis Dimension        Dim             ....  322

ORBITAL ENERGIES
----------------

  NO   OCC          E(Eh)            E(eV)
   0   2.0000     -88.963355     -2420.8160
   1   2.0000     -88.960521     -2420.7389
   2   2.0000     -10.331527      -281.1351
   3   2.0000     -10.329746      -281.0867
   4   2.0000     -10.314983      -280.6850
   5   2.0000     -10.314909      -280.6829
   6   2.0000     -10.308353      -280.5046
   7   2.0000     -10.307287      -280.4755
   8   2.0000     -10.303130      -280.3624
   9   2.0000     -10.289884      -280.0020
  10   2.0000     -10.288184      -279.9557
  11   2.0000     -10.286707      -279.9155
  12   2.0000     -10.285074      -279.8711
  13   2.0000     -10.277029      -279.6522
  14   2.0000     -10.272314      -279.5239
  15   2.0000     -10.271446      -279.5003
  16   2.0000      -8.077288      -219.7942
  17   2.0000      -8.075276      -219.7394
  18   2.0000      -6.035915      -164.2456
  19   2.0000      -6.033744      -164.1865
  20   2.0000      -6.032055      -164.1406
  21   2.0000      -6.029811      -164.0795
  22   2.0000      -6.027823      -164.0254
  23   2.0000      -6.026038      -163.9768
  24   2.0000      -1.000592       -27.2275
  25   2.0000      -0.979381       -26.6503
  26   2.0000      -0.918787       -25.0015
  27   2.0000      -0.909281       -24.7428
  28   2.0000      -0.873413       -23.7668
  29   2.0000      -0.846955       -23.0468
  30   2.0000      -0.845453       -23.0059
  31   2.0000      -0.817091       -22.2342
  32   2.0000      -0.783083       -21.3088
  33   2.0000      -0.767654       -20.8889
  34   2.0000      -0.707211       -19.2442
  35   2.0000      -0.695383       -18.9223
  36   2.0000      -0.688683       -18.7400
  37   2.0000      -0.661210       -17.9924
  38   2.0000      -0.652575       -17.7575
  39   2.0000      -0.617216       -16.7953
  40   2.0000      -0.596043       -16.2192
  41   2.0000      -0.575741       -15.6667
  42   2.0000      -0.568240       -15.4626
  43   2.0000      -0.558176       -15.1887
  44   2.0000      -0.533663       -14.5217
  45   2.0000      -0.525777       -14.3071
  46   2.0000      -0.520570       -14.1654
  47   2.0000      -0.517081       -14.0705
  48   2.0000      -0.509114       -13.8537
  49   2.0000      -0.499405       -13.5895
  50   2.0000      -0.488642       -13.2966
  51   2.0000      -0.484150       -13.1744
  52   2.0000      -0.464852       -12.6493
  53   2.0000      -0.463635       -12.6161
  54   2.0000      -0.453411       -12.3379
  55   2.0000      -0.448933       -12.2161
  56   2.0000      -0.441655       -12.0181
  57   2.0000      -0.436987       -11.8910
  58   2.0000      -0.434192       -11.8150
  59   2.0000      -0.421013       -11.4564
  60   2.0000      -0.415379       -11.3030
  61   2.0000      -0.412155       -11.2153
  62   2.0000      -0.407444       -11.0871
  63   2.0000      -0.342225        -9.3124
  64   2.0000      -0.330804        -9.0016
  65   2.0000      -0.320990        -8.7346
  66   2.0000      -0.309131        -8.4119
  67   0.0000       0.044911         1.2221
  68   0.0000       0.055405         1.5077
  69   0.0000       0.104524         2.8442
  70   0.0000       0.114867         3.1257
  71   0.0000       0.129213         3.5161

MULLIKEN ATOMIC CHARGES
-----------------------
   0 S :    0.088889
   1 C :   -0.117935
   2 C :   -0.054109
   3 C :    0.063208
   4 C :   -0.178178
   5 H :    0.028286
   6 C :    0.020552
   7 H :    0.008938
   8 H :    0.028745
   9 C :   -0.040241
  10 H :    0.023954
  11 H :    0.015910
  12 C :   -0.027743
  13 H :    0.005605
  14 H :    0.020849
  15 H :    0.050934
  16 S :    0.094983
  17 C :   -0.088073
  18 C :   -0.032384
  19 C :    0.010521
  20 C :   -0.196275
  21 H :    0.012252
  22 C :    0.085085
  23 H :    0.036262
  24 H :    0.004630
  25 C :   -0.107854
  26 H :    0.023818
  27 H :    0.026118
  28 C :    0.001967
  29 H :    0.034723
  30 H :    0.029313
  31 H :    0.015250
  32 H :    0.054692
  33 H :    0.057305
Sum of atomic charges:   -0.0000000

LOEWDIN ATOMIC CHARGES
----------------------
   0 S :    0.383850
   1 C :   -0.189355
   2 C :   -0.060924
   3 C :   -0.053488
   4 C :   -0.176719
   5 H :    0.040283
   6 C :   -0.032580
   7 H :    0.028020
   8 H :    0.025133
   9 C :   -0.039876
  10 H :    0.020394
  11 H :    0.019405
  12 C :   -0.063447
  13 H :    0.019691
  14 H :    0.027425
  15 H :    0.029528
  16 S :    0.371760
  17 C :   -0.177608
  18 C :   -0.071692
  19 C :   -0.041785
  20 C :   -0.191673
  21 H :    0.029708
  22 C :   -0.036621
  23 H :    0.041256
  24 H :    0.020990
  25 C :   -0.035291
  26 H :    0.018643
  27 H :    0.021501
  28 C :   -0.054677
  29 H :    0.025302
  30 H :    0.027202
  31 H :    0.014906
  32 H :    0.027653
  33 H :    0.033086

  Mayer bond orders larger than 0.100000
B(  0-S ,  1-C ) :   1.1353 B(  0-S ,  4-C ) :   1.1342 B(  1-C ,  2-C ) :   1.6406
B(  1-C , 32-H ) :   0.9767 B(  2-C ,  3-C ) :   1.1760 B(  2-C ,  6-C ) :   1.0112
B(  3-C ,  4-C ) :   1.6411 B(  3-C ,  5-H ) :   0.9917 B(  4-C , 20-C ) :   1.0073
B(  6-C ,  7-H ) :   0.9462 B(  6-C ,  8-H ) :   0.9452 B(  6-C ,  9-C ) :   1.0686
B(  9-C , 10-H ) :   0.9523 B(  9-C , 11-H ) :   0.9557 B(  9-C , 12-C ) :   1.0916
B( 12-C , 13-H ) :   0.9697 B( 12-C , 14-H ) :   0.9693 B( 12-C , 15-H ) :   0.9727
B( 16-S , 17-C ) :   1.1262 B( 16-S , 20-C ) :   1.1212 B( 17-C , 18-C ) :   1.6821
B( 17-C , 33-H ) :   0.9614 B( 18-C , 19-C ) :   1.1789 B( 18-C , 21-H ) :   0.9885
B( 19-C , 20-C ) :   1.6281 B( 19-C , 22-C ) :   1.0637 B( 22-C , 23-H ) :   0.9225
B( 22-C , 24-H ) :   0.9282 B( 22-C , 25-C ) :   1.0623 B( 25-C , 26-H ) :   0.9589
B( 25-C , 27-H ) :   0.9528 B( 25-C , 28-C ) :   1.0735 B( 28-C , 29-H ) :   0.9758
B( 28-C , 30-H ) :   0.9756 B( 28-C , 31-H ) :   0.9757

Dispersion correction           -0.014005123
FINAL SINGLE POINT ENERGY     -1339.872072016311

DIPOLE MOMENT
-------------
                                X             Y             Z
Electronic contribution:    -10.22829      -5.11009      20.35383
Nuclear contribution   :     10.51700       4.96724     -20.77382
                        -----------------------------------------
Total Dipole Moment    :      0.28871      -0.14285      -0.41999
                        -----------------------------------------
Magnitude (a.u.)       :      0.52930
Magnitude (Debye)      :      1.34536

Rotational constants in cm-1:     0.017820     0.007881     0.006731
Rotational constants in MHz :   534.241832   236.252170   201.790743

                             ****ORCA TERMINATED NORMALLY****
TOTAL RUN TIME: 0 days 0 hours 0 minutes 32 seconds 645 msec
