                         Program Version 4.2.1 -  RELEASE  -
|  1> ! wB97X-D3 SP def2-SVP
|  2> %pal
|  3> nprocs 16
|  4> end
|  5>
|  6> * xyz 0 1
|  7> S 	 39.9627 	 23.2969 	 94.1129
|  8> C 	 41.0964 	 24.6944 	 94.0339
|  9> C 	 42.3583 	 24.354 	 93.7744
| 10> C 	 42.543 	 22.9397 	 93.8049
| 11> C 	 41.3131 	 22.241 	 93.8768
| 12> H 	 43.4717 	 22.4088 	 93.7596
| 13> C 	 43.5853 	 25.2335 	 93.7093
| 14> H 	 43.2666 	 26.2098 	 93.2407
| 15> H 	 44.2656 	 24.774 	 92.9842
| 16> C 	 44.2943 	 25.4747 	 95.0815
| 17> H 	 44.7163 	 24.5772 	 95.4597
| 18> H 	 45.2954 	 26.0041 	 94.9142
| 19> C 	 43.4307 	 25.9702 	 96.1919
| 20> H 	 43.9603 	 26.2175 	 97.1265
| 21> H 	 42.8823 	 26.8758 	 95.9616
| 22> H 	 42.7916 	 25.1188 	 96.433
| 23> S 	 40.293 	 20.2845 	 95.4757
| 24> C 	 40.3931 	 18.593 	 95.1115
| 25> C 	 41.0533 	 18.4024 	 93.9481
| 26> C 	 41.5463 	 19.6738 	 93.3957
| 27> C 	 41.0676 	 20.821 	 93.9938
| 28> H 	 41.1483 	 17.4748 	 93.4874
| 29> C 	 42.3665 	 19.6358 	 92.1302
| 30> H 	 42.3243 	 20.5634 	 91.5838
| 31> H 	 41.9758 	 18.8477 	 91.4131
| 32> C 	 43.8348 	 19.3008 	 92.4498
| 33> H 	 43.8424 	 18.3439 	 92.9143
| 34> H 	 44.1106 	 19.9424 	 93.3352
| 35> C 	 44.9821 	 19.3635 	 91.456
| 36> H 	 44.8641 	 20.1219 	 90.7507
| 37> H 	 44.9957 	 18.3917 	 90.8532
| 38> H 	 45.963 	 19.3709 	 92.0253
| 39> H 	 40.6613 	 25.7232 	 94.1246
| 40> H 	 40.0534 	 17.7827 	 95.7069
| 41> *
| 42>
| 43>                          ****END OF INPUT****

CARTESIAN COORDINATES (ANGSTROEM)
---------------------------------
  S     39.962700   23.296900   94.112900
  C     41.096400   24.694400   94.033900
  C     42.358300   24.354000   93.774400
  C     42.543000   22.939700   93.804900
  C     41.313100   22.241000   93.876800
  H     43.471700   22.408800   93.759600
  C     43.585300   25.233500   93.709300
  H     43.266600   26.209800   93.240700
  H     44.265600   24.774000   92.984200
  C     44.294300   25.474700   95.081500
  H     44.716300   24.577200   95.459700
  H     45.295400   26.004100   94.914200
  C     43.430700   25.970200   96.191900
  H     43.960300   26.217500   97.126500
  H     42.882300   26.875800   95.961600
  H     42.791600   25.118800   96.433000
  S     40.293000   20.284500   95.475700
  C     40.393100   18.593000   95.111500
  C     41.053300   18.402400   93.948100
  C     41.546300   19.673800   93.395700
  C     41.067600   20.821000   93.993800
  H     41.148300   17.474800   93.487400
  C     42.366500   19.635800   92.130200
  H     42.324300   20.563400   91.583800
  H     41.975800   18.847700   91.413100
  C     43.834800   19.300800   92.449800
  H     43.842400   18.343900   92.914300
  H     44.110600   19.942400   93.335200
  C     44.982100   19.363500   91.456000
  H     44.864100   20.121900   90.750700
  H     44.995700   18.391700   90.853200
  H     45.963000   19.370900   92.025300
  H     40.661300   25.723200   94.124600
  H     40.053400   17.782700   95.706900

 Total Charge           Charge          ....    0
 Multiplicity           Mult            ....    1
 Number of Electrons    NEL             ....  134
 Basis Dimension        Dim             ....  322

ORBITAL ENERGIES
----------------

  NO   OCC          E(Eh)            E(eV)
   0   2.0000     -88.967188     -2420.9203
   1   2.0000     -88.958391     -2420.6809
   2   2.0000     -10.333350      -281.1848
   3   2.0000     -10.326077      -280.9868
   4   2.0000     -10.317897      -280.7642
   5   2.0000     -10.313362      -280.6408
   6   2.0000     -10.305497      -280.4268
   7   2.0000     -10.301407      -280.3155
   8   2.0000     -10.299052      -280.2515
   9   2.0000     -10.297779      -280.2168
  10   2.0000     -10.291094      -280.0349
  11   2.0000     -10.289964      -280.0042
  12   2.0000     -10.289770      -279.9989
  13   2.0000     -10.283590      -279.8307
  14   2.0000     -10.282288      -279.7953
  15   2.0000     -10.274633      -279.5870
  16   2.0000      -8.081853      -219.9184
  17   2.0000      -8.073829      -219.7001
  18   2.0000      -6.040304      -164.3650
  19   2.0000      -6.036501      -164.2615
  20   2.0000      -6.032535      -164.1536
  21   2.0000      -6.032496      -164.1526
  22   2.0000      -6.028145      -164.0342
  23   2.0000      -6.024417      -163.9327
  24   2.0000      -1.009654       -27.4741
  25   2.0000      -0.986532       -26.8449
  26   2.0000      -0.914807       -24.8932
  27   2.0000      -0.906566       -24.6689
  28   2.0000      -0.875386       -23.8205
  29   2.0000      -0.850835       -23.1524
  30   2.0000      -0.843987       -22.9661
  31   2.0000      -0.814904       -22.1747
  32   2.0000      -0.786839       -21.4110
  33   2.0000      -0.773681       -21.0529
  34   2.0000      -0.709709       -19.3122
  35   2.0000      -0.697704       -18.9855
  36   2.0000      -0.692105       -18.8331
  37   2.0000      -0.665838       -18.1184
  38   2.0000      -0.639818       -17.4103
  39   2.0000      -0.621023       -16.8989
  40   2.0000      -0.597016       -16.2456
  41   2.0000      -0.572141       -15.5687
  42   2.0000      -0.556998       -15.1567
  43   2.0000      -0.551367       -15.0035
  44   2.0000      -0.543049       -14.7771
  45   2.0000      -0.531195       -14.4546
  46   2.0000      -0.521906       -14.2018
  47   2.0000      -0.514189       -13.9918
  48   2.0000      -0.506638       -13.7863
  49   2.0000      -0.497782       -13.5453
  50   2.0000      -0.487321       -13.2607
  51   2.0000      -0.486211       -13.2305
  52   2.0000      -0.468542       -12.7497
  53   2.0000      -0.468389       -12.7455
  54   2.0000      -0.454287       -12.3618
  55   2.0000      -0.450662       -12.2631
  56   2.0000      -0.445782       -12.1304
  57   2.0000      -0.439753       -11.9663
  58   2.0000      -0.430830       -11.7235
  59   2.0000      -0.428134       -11.6501
  60   2.0000      -0.413435       -11.2501
  61   2.0000      -0.407666       -11.0931
  62   2.0000      -0.400506       -10.8983
  63   2.0000      -0.350802        -9.5458
  64   2.0000      -0.336407        -9.1541
  65   2.0000      -0.322141        -8.7659
  66   2.0000      -0.297042        -8.0829
  67   0.0000       0.029678         0.8076
  68   0.0000       0.072582         1.9751
  69   0.0000       0.104434         2.8418
  70   0.0000       0.122159         3.3241
  71   0.0000       0.128345         3.4924

MULLIKEN ATOMIC CHARGES
-----------------------
   0 S :    0.103871
   1 C :   -0.159330
   2 C :   -0.059586
   3 C :    0.032464
   4 C :   -0.159977
   5 H :    0.005950
   6 C :    0.061273
   7 H :    0.035109
   8 H :    0.030231
   9 C :   -0.066570
  10 H :    0.009426
  11 H :    0.033033
  12 C :   -0.048455
  13 H :    0.033588
  14 H :    0.027240
  15 H :    0.053042
  16 S :    0.082873
  17 C :   -0.058118
  18 C :   -0.000681
  19 C :   -0.081062
  20 C :   -0.100986
  21 H :   -0.000908
  22 C :    0.066447
  23 H :    0.018204
  24 H :    0.031872
  25 C :   -0.120984
  26 H :    0.009384
  27 H :    0.023271
  28 C :   -0.014523
  29 H :    0.021708
  30 H :    0.030632
  31 H :    0.048958
  32 H :    0.065028
  33 H :    0.047574
Sum of atomic charges:   -0.0000000

LOEWDIN ATOMIC CHARGES
----------------------
   0 S :    0.395896
   1 C :   -0.178483
   2 C :   -0.073237
   3 C :   -0.052395
   4 C :   -0.194923
   5 H :    0.027525
   6 C :   -0.028677
   7 H :    0.034713
   8 H :    0.033488
   9 C :   -0.048661
  10 H :    0.019133
  11 H :    0.030369
  12 C :   -0.067837
  13 H :    0.031537
  14 H :    0.020386
  15 H :    0.034152
  16 S :    0.400401
  17 C :   -0.176897
  18 C :   -0.064598
  19 C :   -0.051030
  20 C :   -0.202678
  21 H :    0.021687
  22 C :   -0.035122
  23 H :    0.023594
  24 H :    0.033331
  25 C :   -0.055256
  26 H :    0.017412
  27 H :    0.023807
  28 C :   -0.065708
  29 H :    0.013739
  30 H :    0.031104
  31 H :    0.039825
  32 H :    0.034925
  33 H :    0.028480

  Mayer bond orders larger than 0.100000
B(  0-S ,  1-C ) :   1.1196 B(  0-S ,  4-C ) :   1.1618 B(  1-C ,  2-C ) :   1.6437
B(  1-C , 32-H ) :   0.9618 B(  2-C ,  3-C ) :   1.2065 B(  2-C ,  6-C ) :   1.0238
B(  3-C ,  4-C ) :   1.5728 B(  3-C ,  5-H ) :   0.9972 B(  4-C , 20-C ) :   1.0246
B(  6-C ,  7-H ) :   0.9437 B(  6-C ,  8-H ) :   0.9371 B(  6-C ,  9-C ) :   1.0648
B(  9-C , 10-H ) :   0.9526 B(  9-C , 11-H ) :   0.9533 B(  9-C , 12-C ) :   1.0760
B( 12-C , 13-H ) :   0.9692 B( 12-C , 14-H ) :   0.9776 B( 12-C , 15-H ) :   0.9695
B( 16-S , 17-C ) :   1.1533 B( 16-S , 20-C ) :   1.1129 B( 17-C , 18-C ) :   1.6177
B( 17-C , 33-H ) :   0.9701 B( 18-C , 19-C ) :   1.2084 B( 18-C , 21-H ) :   1.0020
B( 19-C , 20-C ) :   1.6325 B( 19-C , 22-C ) :   1.0638 B( 22-C , 23-H ) :   0.9366
B( 22-C , 24-H ) :   0.9415 B( 22-C , 25-C ) :   1.0443 B( 25-C , 26-H ) :   0.9525
B( 25-C , 27-H ) :   0.9549 B( 25-C , 28-C ) :   1.0797 B( 28-C , 29-H ) :   0.9754
B( 28-C , 30-H ) :   0.9734 B( 28-C , 31-H ) :   0.9723

Dispersion correction           -0.014539346
FINAL SINGLE POINT ENERGY     -1339.871280494308

DIPOLE MOMENT
-------------
                                X             Y             Z
Electronic contribution:    -24.24227      -4.43647       6.05472
Nuclear contribution   :     24.84460       4.35763      -6.17130
                        -----------------------------------------
Total Dipole Moment    :      0.60233      -0.07884      -0.11658
                        -----------------------------------------
Magnitude (a.u.)       :      0.61855
Magnitude (Debye)      :      1.57224

Rotational constants in cm-1:     0.017955     0.009033     0.006945
Rotational constants in MHz :   538.276388   270.815410   208.218484

                             ****ORCA TERMINATED NORMALLY****
TOTAL RUN TIME: 0 days 0 hours 0 minutes 30 seconds 473 msec
