                         Program Version 4.2.1 -  RELEASE  -
|  1> ! wB97X-D3 SP def2-SVP
|  2> %pal
|  3> nprocs 16
|  4> end
|  5>
|  6> * xyz 0 1
|  7> S 	 -14.8209 	 70.6319 	 51.4019
|  8> C 	 -14.9058 	 70.0563 	 49.7414
|  9> C 	 -13.7454 	 70.5452 	 48.9961
| 10> C 	 -12.7476 	 71.1259 	 49.8793
| 11> C 	 -13.1636 	 71.1088 	 51.2047
| 12> H 	 -11.7871 	 71.4463 	 49.4544
| 13> C 	 -13.5395 	 70.5665 	 47.4686
| 14> H 	 -12.4983 	 70.5956 	 47.2944
| 15> H 	 -13.812 	 71.6238 	 47.2509
| 16> C 	 -14.2997 	 69.6333 	 46.4972
| 17> H 	 -14.0576 	 68.6287 	 46.8082
| 18> H 	 -15.3888 	 69.7259 	 46.5271
| 19> C 	 -13.9845 	 69.8404 	 45.0062
| 20> H 	 -14.4884 	 70.8025 	 44.7843
| 21> H 	 -12.9565 	 69.8176 	 44.812
| 22> H 	 -14.4866 	 69.1997 	 44.3475
| 23> S 	 -13.3601 	 72.6587 	 53.5437
| 24> C 	 -11.9986 	 72.89 	 54.583
| 25> C 	 -10.8735 	 72.2962 	 54.055
| 26> C 	 -11.0699 	 71.6102 	 52.7894
| 27> C 	 -12.4452 	 71.6976 	 52.3946
| 28> H 	 -10.017 	 72.4205 	 54.6501
| 29> C 	 -9.94826 	 70.772 	 52.0997
| 30> H 	 -10.4858 	 70.285 	 51.2532
| 31> H 	 -9.48955 	 70.0374 	 52.7101
| 32> C 	 -8.90826 	 71.4779 	 51.1987
| 33> H 	 -8.2895 	 71.995 	 51.8396
| 34> H 	 -9.34396 	 72.1801 	 50.5041
| 35> C 	 -8.19148 	 70.3948 	 50.2402
| 36> H 	 -8.86079 	 70.2324 	 49.4164
| 37> H 	 -8.02944 	 69.44 	 50.7624
| 38> H 	 -7.31416 	 70.8005 	 49.732
| 39> H 	 -15.6625 	 69.574 	 49.209
| 40> H 	 -11.9331 	 73.377 	 55.4644
| 41> *
| 42>
| 43>                          ****END OF INPUT****

CARTESIAN COORDINATES (ANGSTROEM)
---------------------------------
  S    -14.820900   70.631900   51.401900
  C    -14.905800   70.056300   49.741400
  C    -13.745400   70.545200   48.996100
  C    -12.747600   71.125900   49.879300
  C    -13.163600   71.108800   51.204700
  H    -11.787100   71.446300   49.454400
  C    -13.539500   70.566500   47.468600
  H    -12.498300   70.595600   47.294400
  H    -13.812000   71.623800   47.250900
  C    -14.299700   69.633300   46.497200
  H    -14.057600   68.628700   46.808200
  H    -15.388800   69.725900   46.527100
  C    -13.984500   69.840400   45.006200
  H    -14.488400   70.802500   44.784300
  H    -12.956500   69.817600   44.812000
  H    -14.486600   69.199700   44.347500
  S    -13.360100   72.658700   53.543700
  C    -11.998600   72.890000   54.583000
  C    -10.873500   72.296200   54.055000
  C    -11.069900   71.610200   52.789400
  C    -12.445200   71.697600   52.394600
  H    -10.017000   72.420500   54.650100
  C     -9.948260   70.772000   52.099700
  H    -10.485800   70.285000   51.253200
  H     -9.489550   70.037400   52.710100
  C     -8.908260   71.477900   51.198700
  H     -8.289500   71.995000   51.839600
  H     -9.343960   72.180100   50.504100
  C     -8.191480   70.394800   50.240200
  H     -8.860790   70.232400   49.416400
  H     -8.029440   69.440000   50.762400
  H     -7.314160   70.800500   49.732000
  H    -15.662500   69.574000   49.209000
  H    -11.933100   73.377000   55.464400

 Total Charge           Charge          ....    0
 Multiplicity           Mult            ....    1
 Number of Electrons    NEL             ....  134
 Basis Dimension        Dim             ....  322

ORBITAL ENERGIES
----------------

  NO   OCC          E(Eh)            E(eV)
   0   2.0000     -88.972936     -2421.0767
   1   2.0000     -88.967819     -2420.9374
   2   2.0000     -10.337959      -281.3102
   3   2.0000     -10.337317      -281.2927
   4   2.0000     -10.316605      -280.7291
   5   2.0000     -10.314754      -280.6787
   6   2.0000     -10.313917      -280.6560
   7   2.0000     -10.306413      -280.4518
   8   2.0000     -10.302303      -280.3399
   9   2.0000     -10.298938      -280.2483
  10   2.0000     -10.292524      -280.0738
  11   2.0000     -10.292504      -280.0733
  12   2.0000     -10.289730      -279.9978
  13   2.0000     -10.284631      -279.8590
  14   2.0000     -10.284293      -279.8498
  15   2.0000     -10.276425      -279.6357
  16   2.0000      -8.087048      -220.0598
  17   2.0000      -8.082491      -219.9358
  18   2.0000      -6.045675      -164.5112
  19   2.0000      -6.041686      -164.4026
  20   2.0000      -6.041060      -164.3856
  21   2.0000      -6.037677      -164.2935
  22   2.0000      -6.036863      -164.2714
  23   2.0000      -6.033352      -164.1759
  24   2.0000      -1.000697       -27.2303
  25   2.0000      -0.978282       -26.6204
  26   2.0000      -0.910641       -24.7798
  27   2.0000      -0.902499       -24.5582
  28   2.0000      -0.864658       -23.5285
  29   2.0000      -0.853307       -23.2197
  30   2.0000      -0.842567       -22.9274
  31   2.0000      -0.815204       -22.1828
  32   2.0000      -0.783337       -21.3157
  33   2.0000      -0.771817       -21.0022
  34   2.0000      -0.714732       -19.4488
  35   2.0000      -0.705116       -19.1872
  36   2.0000      -0.694535       -18.8993
  37   2.0000      -0.657854       -17.9011
  38   2.0000      -0.634658       -17.2699
  39   2.0000      -0.620295       -16.8791
  40   2.0000      -0.594173       -16.1683
  41   2.0000      -0.576888       -15.6979
  42   2.0000      -0.571979       -15.5643
  43   2.0000      -0.566383       -15.4121
  44   2.0000      -0.528563       -14.3829
  45   2.0000      -0.522869       -14.2280
  46   2.0000      -0.517844       -14.0913
  47   2.0000      -0.513557       -13.9746
  48   2.0000      -0.503617       -13.7041
  49   2.0000      -0.496795       -13.5185
  50   2.0000      -0.494883       -13.4664
  51   2.0000      -0.478957       -13.0331
  52   2.0000      -0.471343       -12.8259
  53   2.0000      -0.465438       -12.6652
  54   2.0000      -0.460880       -12.5412
  55   2.0000      -0.451100       -12.2750
  56   2.0000      -0.448956       -12.2167
  57   2.0000      -0.441189       -12.0054
  58   2.0000      -0.437174       -11.8961
  59   2.0000      -0.429979       -11.7003
  60   2.0000      -0.419222       -11.4076
  61   2.0000      -0.414337       -11.2747
  62   2.0000      -0.409993       -11.1565
  63   2.0000      -0.349425        -9.5083
  64   2.0000      -0.330916        -9.0047
  65   2.0000      -0.326297        -8.8790
  66   2.0000      -0.285309        -7.7636
  67   0.0000       0.024850         0.6762
  68   0.0000       0.070923         1.9299
  69   0.0000       0.104960         2.8561
  70   0.0000       0.120269         3.2727
  71   0.0000       0.123077         3.3491

MULLIKEN ATOMIC CHARGES
-----------------------
   0 S :    0.120809
   1 C :   -0.084894
   2 C :   -0.134736
   3 C :    0.019578
   4 C :   -0.116800
   5 H :    0.019376
   6 C :    0.056454
   7 H :    0.007268
   8 H :    0.039681
   9 C :   -0.073351
  10 H :    0.028747
  11 H :    0.032462
  12 C :   -0.017764
  13 H :    0.026770
  14 H :    0.028226
  15 H :    0.021835
  16 S :    0.106448
  17 C :   -0.048690
  18 C :   -0.028036
  19 C :   -0.017523
  20 C :   -0.143548
  21 H :   -0.000582
  22 C :    0.031477
  23 H :    0.016616
  24 H :    0.037008
  25 C :   -0.038655
  26 H :    0.012465
  27 H :    0.026109
  28 C :   -0.070217
  29 H :    0.023609
  30 H :    0.045019
  31 H :    0.038811
  32 H :    0.025088
  33 H :    0.010939
Sum of atomic charges:   -0.0000000

LOEWDIN ATOMIC CHARGES
----------------------
   0 S :    0.420491
   1 C :   -0.208351
   2 C :   -0.044614
   3 C :   -0.070140
   4 C :   -0.189913
   5 H :    0.034014
   6 C :   -0.036940
   7 H :    0.022420
   8 H :    0.042614
   9 C :   -0.039710
  10 H :    0.019566
  11 H :    0.026020
  12 C :   -0.053194
  13 H :    0.032061
  14 H :    0.016865
  15 H :    0.021615
  16 S :    0.411084
  17 C :   -0.181463
  18 C :   -0.064213
  19 C :   -0.054709
  20 C :   -0.193891
  21 H :    0.023427
  22 C :   -0.032767
  23 H :    0.034863
  24 H :    0.025911
  25 C :   -0.025865
  26 H :    0.005199
  27 H :    0.021475
  28 C :   -0.063933
  29 H :    0.020847
  30 H :    0.027347
  31 H :    0.028422
  32 H :    0.015394
  33 H :    0.010071

  Mayer bond orders larger than 0.100000
B(  0-S ,  1-C ) :   1.1301 B(  0-S ,  4-C ) :   1.1693 B(  1-C ,  2-C ) :   1.5822
B(  1-C ,  4-C ) :   0.1001 B(  1-C , 32-H ) :   0.9761 B(  2-C ,  3-C ) :   1.2681
B(  2-C ,  6-C ) :   1.0176 B(  3-C ,  4-C ) :   1.5314 B(  3-C ,  5-H ) :   0.9864
B(  4-C , 20-C ) :   1.0256 B(  6-C ,  7-H ) :   0.9422 B(  6-C ,  8-H ) :   0.9314
B(  6-C ,  9-C ) :   1.0541 B(  9-C , 10-H ) :   0.9596 B(  9-C , 11-H ) :   0.9552
B(  9-C , 12-C ) :   1.0857 B( 12-C , 13-H ) :   0.9759 B( 12-C , 14-H ) :   0.9789
B( 12-C , 15-H ) :   0.9724 B( 16-S , 17-C ) :   1.1432 B( 16-S , 20-C ) :   1.1570
B( 17-C , 18-C ) :   1.6292 B( 17-C , 33-H ) :   0.9777 B( 18-C , 19-C ) :   1.2278
B( 18-C , 21-H ) :   0.9988 B( 19-C , 20-C ) :   1.5765 B( 19-C , 22-C ) :   1.0312
B( 22-C , 23-H ) :   0.9376 B( 22-C , 24-H ) :   0.9490 B( 22-C , 25-C ) :   1.0491
B( 25-C , 26-H ) :   0.9624 B( 25-C , 27-H ) :   0.9588 B( 25-C , 28-C ) :   1.0634
B( 28-C , 29-H ) :   0.9767 B( 28-C , 30-H ) :   0.9789 B( 28-C , 31-H ) :   0.9750

Dispersion correction           -0.013404405
FINAL SINGLE POINT ENERGY     -1339.840443169971

DIPOLE MOMENT
-------------
                                X             Y             Z
Electronic contribution:    -16.36218       7.86564      26.65335
Nuclear contribution   :     16.77862      -7.89444     -27.23868
                        -----------------------------------------
Total Dipole Moment    :      0.41644      -0.02880      -0.58533
                        -----------------------------------------
Magnitude (a.u.)       :      0.71894
Magnitude (Debye)      :      1.82739

Rotational constants in cm-1:     0.018160     0.007960     0.005800
Rotational constants in MHz :   544.409830   238.643065   173.890645

                             ****ORCA TERMINATED NORMALLY****
TOTAL RUN TIME: 0 days 0 hours 0 minutes 32 seconds 859 msec
