                         Program Version 4.2.1 -  RELEASE  -
|  1> ! wB97X-D3 SP def2-SVP
|  2> %pal
|  3> nprocs 16
|  4> end
|  5>
|  6> * xyz 0 1
|  7> S 	 -43.1893 	 17.137 	 78.6581
|  8> C 	 -42.8978 	 18.8898 	 78.3705
|  9> C 	 -43.3478 	 19.2659 	 77.1907
| 10> C 	 -43.9506 	 18.1652 	 76.459
| 11> C 	 -43.935 	 16.9286 	 77.0925
| 12> H 	 -44.2831 	 18.1889 	 75.4427
| 13> C 	 -43.2088 	 20.632 	 76.6
| 14> H 	 -43.3604 	 21.3341 	 77.4664
| 15> H 	 -43.9317 	 20.7768 	 75.7855
| 16> C 	 -41.8781 	 20.8222 	 75.8344
| 17> H 	 -41.0598 	 20.832 	 76.5688
| 18> H 	 -41.4933 	 19.9442 	 75.2711
| 19> C 	 -41.9055 	 21.9874 	 74.7942
| 20> H 	 -42.0961 	 22.9205 	 75.3552
| 21> H 	 -40.9371 	 22.1707 	 74.1963
| 22> H 	 -42.8212 	 21.8871 	 74.1012
| 23> S 	 -44.8325 	 14.5653 	 77.9556
| 24> C 	 -44.9807 	 13.2588 	 76.8047
| 25> C 	 -44.6053 	 13.6333 	 75.5116
| 26> C 	 -44.2959 	 14.9288 	 75.4071
| 27> C 	 -44.3619 	 15.5648 	 76.6698
| 28> H 	 -44.5097 	 12.978 	 74.6883
| 29> C 	 -43.6144 	 15.4849 	 74.1402
| 30> H 	 -44.0395 	 16.3846 	 73.8051
| 31> H 	 -43.6959 	 14.8246 	 73.2514
| 32> C 	 -42.1291 	 15.7699 	 74.4116
| 33> H 	 -41.7136 	 14.8254 	 74.8502
| 34> H 	 -42.0536 	 16.4806 	 75.1932
| 35> C 	 -41.1448 	 16.1533 	 73.2577
| 36> H 	 -41.6171 	 16.9595 	 72.6867
| 37> H 	 -41.1115 	 15.3183 	 72.6455
| 38> H 	 -40.1454 	 16.3196 	 73.5858
| 39> H 	 -42.5201 	 19.6098 	 79.0616
| 40> H 	 -45.2828 	 12.2324 	 77.0465
| 41> *
| 42>
| 43>                          ****END OF INPUT****

CARTESIAN COORDINATES (ANGSTROEM)
---------------------------------
  S    -43.189300   17.137000   78.658100
  C    -42.897800   18.889800   78.370500
  C    -43.347800   19.265900   77.190700
  C    -43.950600   18.165200   76.459000
  C    -43.935000   16.928600   77.092500
  H    -44.283100   18.188900   75.442700
  C    -43.208800   20.632000   76.600000
  H    -43.360400   21.334100   77.466400
  H    -43.931700   20.776800   75.785500
  C    -41.878100   20.822200   75.834400
  H    -41.059800   20.832000   76.568800
  H    -41.493300   19.944200   75.271100
  C    -41.905500   21.987400   74.794200
  H    -42.096100   22.920500   75.355200
  H    -40.937100   22.170700   74.196300
  H    -42.821200   21.887100   74.101200
  S    -44.832500   14.565300   77.955600
  C    -44.980700   13.258800   76.804700
  C    -44.605300   13.633300   75.511600
  C    -44.295900   14.928800   75.407100
  C    -44.361900   15.564800   76.669800
  H    -44.509700   12.978000   74.688300
  C    -43.614400   15.484900   74.140200
  H    -44.039500   16.384600   73.805100
  H    -43.695900   14.824600   73.251400
  C    -42.129100   15.769900   74.411600
  H    -41.713600   14.825400   74.850200
  H    -42.053600   16.480600   75.193200
  C    -41.144800   16.153300   73.257700
  H    -41.617100   16.959500   72.686700
  H    -41.111500   15.318300   72.645500
  H    -40.145400   16.319600   73.585800
  H    -42.520100   19.609800   79.061600
  H    -45.282800   12.232400   77.046500

 Total Charge           Charge          ....    0
 Multiplicity           Mult            ....    1
 Number of Electrons    NEL             ....  134
 Basis Dimension        Dim             ....  322

ORBITAL ENERGIES
----------------

  NO   OCC          E(Eh)            E(eV)
   0   2.0000     -88.978278     -2421.2220
   1   2.0000     -88.961455     -2420.7643
   2   2.0000     -10.332683      -281.1666
   3   2.0000     -10.329598      -281.0826
   4   2.0000     -10.319335      -280.8034
   5   2.0000     -10.307332      -280.4768
   6   2.0000     -10.301123      -280.3078
   7   2.0000     -10.299917      -280.2750
   8   2.0000     -10.296761      -280.1891
   9   2.0000     -10.295511      -280.1551
  10   2.0000     -10.294827      -280.1365
  11   2.0000     -10.293514      -280.1008
  12   2.0000     -10.290232      -280.0115
  13   2.0000     -10.287083      -279.9257
  14   2.0000     -10.279316      -279.7144
  15   2.0000     -10.271692      -279.5070
  16   2.0000      -8.093483      -220.2349
  17   2.0000      -8.075809      -219.7539
  18   2.0000      -6.051599      -164.6724
  19   2.0000      -6.047921      -164.5723
  20   2.0000      -6.044628      -164.4827
  21   2.0000      -6.034612      -164.2101
  22   2.0000      -6.030424      -164.0962
  23   2.0000      -6.026209      -163.9815
  24   2.0000      -1.016734       -27.6667
  25   2.0000      -0.988585       -26.9008
  26   2.0000      -0.913913       -24.8688
  27   2.0000      -0.908355       -24.7176
  28   2.0000      -0.873707       -23.7748
  29   2.0000      -0.855340       -23.2750
  30   2.0000      -0.836575       -22.7644
  31   2.0000      -0.814400       -22.1610
  32   2.0000      -0.786158       -21.3925
  33   2.0000      -0.772360       -21.0170
  34   2.0000      -0.706550       -19.2262
  35   2.0000      -0.701258       -19.0822
  36   2.0000      -0.690324       -18.7847
  37   2.0000      -0.672776       -18.3072
  38   2.0000      -0.639732       -17.4080
  39   2.0000      -0.618179       -16.8215
  40   2.0000      -0.602867       -16.4049
  41   2.0000      -0.575512       -15.6605
  42   2.0000      -0.562306       -15.3011
  43   2.0000      -0.550136       -14.9700
  44   2.0000      -0.526545       -14.3280
  45   2.0000      -0.523218       -14.2375
  46   2.0000      -0.517204       -14.0738
  47   2.0000      -0.512231       -13.9385
  48   2.0000      -0.502488       -13.6734
  49   2.0000      -0.497715       -13.5435
  50   2.0000      -0.491230       -13.3670
  51   2.0000      -0.486044       -13.2259
  52   2.0000      -0.475720       -12.9450
  53   2.0000      -0.462778       -12.5928
  54   2.0000      -0.460523       -12.5315
  55   2.0000      -0.456769       -12.4293
  56   2.0000      -0.448331       -12.1997
  57   2.0000      -0.443362       -12.0645
  58   2.0000      -0.438874       -11.9424
  59   2.0000      -0.423920       -11.5355
  60   2.0000      -0.416030       -11.3208
  61   2.0000      -0.411031       -11.1847
  62   2.0000      -0.404062       -10.9951
  63   2.0000      -0.356219        -9.6932
  64   2.0000      -0.344748        -9.3811
  65   2.0000      -0.326572        -8.8865
  66   2.0000      -0.285402        -7.7662
  67   0.0000       0.020654         0.5620
  68   0.0000       0.077236         2.1017
  69   0.0000       0.099796         2.7156
  70   0.0000       0.127881         3.4798
  71   0.0000       0.129537         3.5249

MULLIKEN ATOMIC CHARGES
-----------------------
   0 S :    0.071257
   1 C :   -0.114048
   2 C :   -0.073638
   3 C :    0.019162
   4 C :   -0.125549
   5 H :   -0.010045
   6 C :    0.072797
   7 H :    0.046776
   8 H :    0.018803
   9 C :   -0.081830
  10 H :    0.018972
  11 H :    0.035740
  12 C :   -0.097475
  13 H :    0.033493
  14 H :    0.059339
  15 H :    0.046750
  16 S :    0.145176
  17 C :   -0.096261
  18 C :   -0.027215
  19 C :    0.001176
  20 C :   -0.164058
  21 H :   -0.001795
  22 C :    0.093319
  23 H :    0.006228
  24 H :    0.016918
  25 C :   -0.122039
  26 H :    0.022037
  27 H :    0.036350
  28 C :    0.011128
  29 H :    0.026880
  30 H :    0.008056
  31 H :    0.036633
  32 H :    0.029817
  33 H :    0.057145
Sum of atomic charges:   -0.0000000

LOEWDIN ATOMIC CHARGES
----------------------
   0 S :    0.365812
   1 C :   -0.179663
   2 C :   -0.064934
   3 C :   -0.074152
   4 C :   -0.183086
   5 H :    0.022154
   6 C :   -0.029397
   7 H :    0.040259
   8 H :    0.031127
   9 C :   -0.053114
  10 H :    0.022396
  11 H :    0.029813
  12 C :   -0.082869
  13 H :    0.023663
  14 H :    0.038521
  15 H :    0.032634
  16 S :    0.460069
  17 C :   -0.193996
  18 C :   -0.061441
  19 C :   -0.053918
  20 C :   -0.212123
  21 H :    0.028743
  22 C :   -0.022766
  23 H :    0.017323
  24 H :    0.030805
  25 C :   -0.040596
  26 H :    0.024918
  27 H :    0.015918
  28 C :   -0.054683
  29 H :    0.024955
  30 H :    0.014112
  31 H :    0.027643
  32 H :    0.026375
  33 H :    0.029495

  Mayer bond orders larger than 0.100000
B(  0-S ,  1-C ) :   1.0921 B(  0-S ,  4-C ) :   1.1360 B(  1-C ,  2-C ) :   1.6822
B(  1-C , 32-H ) :   0.9657 B(  2-C ,  3-C ) :   1.1963 B(  2-C ,  6-C ) :   1.0316
B(  3-C ,  4-C ) :   1.6079 B(  3-C ,  5-H ) :   1.0006 B(  4-C , 20-C ) :   1.0323
B(  6-C ,  7-H ) :   0.9366 B(  6-C ,  8-H ) :   0.9410 B(  6-C ,  9-C ) :   1.0400
B(  9-C , 10-H ) :   0.9516 B(  9-C , 11-H ) :   0.9599 B(  9-C , 12-C ) :   1.0631
B( 12-C , 13-H ) :   0.9758 B( 12-C , 14-H ) :   0.9743 B( 12-C , 15-H ) :   0.9724
B( 16-S , 17-C ) :   1.1771 B( 16-S , 20-C ) :   1.1999 B( 17-C , 18-C ) :   1.5212
B( 17-C , 20-C ) :   0.1208 B( 17-C , 33-H ) :   0.9686 B( 18-C , 19-C ) :   1.3599
B( 18-C , 21-H ) :   0.9921 B( 19-C , 20-C ) :   1.4814 B( 19-C , 22-C ) :   1.0452
B( 22-C , 23-H ) :   0.9228 B( 22-C , 24-H ) :   0.9406 B( 22-C , 25-C ) :   1.0551
B( 25-C , 26-H ) :   0.9560 B( 25-C , 27-H ) :   0.9574 B( 25-C , 28-C ) :   1.0787
B( 28-C , 29-H ) :   0.9748 B( 28-C , 30-H ) :   0.9751 B( 28-C , 31-H ) :   0.9735

Dispersion correction           -0.014718397
FINAL SINGLE POINT ENERGY     -1339.859512851655

DIPOLE MOMENT
-------------
                                X             Y             Z
Electronic contribution:    -13.99001     -17.72762      23.14468
Nuclear contribution   :     14.22848      17.86069     -23.69496
                        -----------------------------------------
Total Dipole Moment    :      0.23847       0.13307      -0.55028
                        -----------------------------------------
Magnitude (a.u.)       :      0.61432
Magnitude (Debye)      :      1.56147

Rotational constants in cm-1:     0.019850     0.009132     0.006829
Rotational constants in MHz :   595.093108   273.769112   204.718425

                             ****ORCA TERMINATED NORMALLY****
TOTAL RUN TIME: 0 days 0 hours 0 minutes 30 seconds 999 msec
