                         Program Version 4.2.1 -  RELEASE  -
|  1> ! wB97X-D3 SP def2-SVP
|  2> %pal
|  3> nprocs 16
|  4> end
|  5>
|  6> * xyz 0 1
|  7> S 	 -16.423 	 -4.45032 	 83.2977
|  8> C 	 -15.3267 	 -3.45355 	 82.3491
|  9> C 	 -14.0439 	 -3.40162 	 82.7868
| 10> C 	 -13.9777 	 -4.18824 	 84.0113
| 11> C 	 -15.1541 	 -4.79953 	 84.4486
| 12> H 	 -13.1686 	 -4.26855 	 84.6294
| 13> C 	 -12.8077 	 -2.66182 	 82.2306
| 14> H 	 -12.2164 	 -2.05741 	 82.8809
| 15> H 	 -13.2304 	 -1.95101 	 81.5195
| 16> C 	 -11.9899 	 -3.57931 	 81.2352
| 17> H 	 -12.5147 	 -3.97619 	 80.3809
| 18> H 	 -11.2236 	 -2.9759 	 80.6807
| 19> C 	 -11.3842 	 -4.73 	 82.0739
| 20> H 	 -11.1109 	 -4.37286 	 83.0255
| 21> H 	 -12.1481 	 -5.54729 	 82.2258
| 22> H 	 -10.4773 	 -5.08575 	 81.6126
| 23> S 	 -16.1086 	 -7.05822 	 85.6533
| 24> C 	 -15.7167 	 -7.44385 	 87.2491
| 25> C 	 -15.0764 	 -6.31808 	 87.9206
| 26> C 	 -14.9803 	 -5.20322 	 86.996
| 27> C 	 -15.2845 	 -5.56655 	 85.6617
| 28> H 	 -14.9091 	 -6.26216 	 88.996
| 29> C 	 -14.5168 	 -3.80425 	 87.3775
| 30> H 	 -13.64 	 -3.65737 	 86.7774
| 31> H 	 -14.2498 	 -3.84636 	 88.4662
| 32> C 	 -15.5049 	 -2.71137 	 87.1577
| 33> H 	 -16.461 	 -3.04338 	 87.7035
| 34> H 	 -15.5893 	 -2.69557 	 86.0703
| 35> C 	 -15.0173 	 -1.38494 	 87.7192
| 36> H 	 -15.6532 	 -0.464896 	 87.7616
| 37> H 	 -14.0107 	 -1.20384 	 87.2298
| 38> H 	 -14.8619 	 -1.60191 	 88.7561
| 39> H 	 -15.6962 	 -3.18749 	 81.3946
| 40> H 	 -15.9314 	 -8.39801 	 87.7572
| 41> *
| 42>
| 43>                          ****END OF INPUT****

CARTESIAN COORDINATES (ANGSTROEM)
---------------------------------
  S    -16.423000   -4.450320   83.297700
  C    -15.326700   -3.453550   82.349100
  C    -14.043900   -3.401620   82.786800
  C    -13.977700   -4.188240   84.011300
  C    -15.154100   -4.799530   84.448600
  H    -13.168600   -4.268550   84.629400
  C    -12.807700   -2.661820   82.230600
  H    -12.216400   -2.057410   82.880900
  H    -13.230400   -1.951010   81.519500
  C    -11.989900   -3.579310   81.235200
  H    -12.514700   -3.976190   80.380900
  H    -11.223600   -2.975900   80.680700
  C    -11.384200   -4.730000   82.073900
  H    -11.110900   -4.372860   83.025500
  H    -12.148100   -5.547290   82.225800
  H    -10.477300   -5.085750   81.612600
  S    -16.108600   -7.058220   85.653300
  C    -15.716700   -7.443850   87.249100
  C    -15.076400   -6.318080   87.920600
  C    -14.980300   -5.203220   86.996000
  C    -15.284500   -5.566550   85.661700
  H    -14.909100   -6.262160   88.996000
  C    -14.516800   -3.804250   87.377500
  H    -13.640000   -3.657370   86.777400
  H    -14.249800   -3.846360   88.466200
  C    -15.504900   -2.711370   87.157700
  H    -16.461000   -3.043380   87.703500
  H    -15.589300   -2.695570   86.070300
  C    -15.017300   -1.384940   87.719200
  H    -15.653200   -0.464896   87.761600
  H    -14.010700   -1.203840   87.229800
  H    -14.861900   -1.601910   88.756100
  H    -15.696200   -3.187490   81.394600
  H    -15.931400   -8.398010   87.757200

 Total Charge           Charge          ....    0
 Multiplicity           Mult            ....    1
 Number of Electrons    NEL             ....  134
 Basis Dimension        Dim             ....  322

ORBITAL ENERGIES
----------------

  NO   OCC          E(Eh)            E(eV)
   0   2.0000     -88.970067     -2420.9986
   1   2.0000     -88.965688     -2420.8794
   2   2.0000     -10.329325      -281.0752
   3   2.0000     -10.324437      -280.9422
   4   2.0000     -10.321926      -280.8739
   5   2.0000     -10.313515      -280.6450
   6   2.0000     -10.308938      -280.5205
   7   2.0000     -10.307588      -280.4837
   8   2.0000     -10.304507      -280.3999
   9   2.0000     -10.300513      -280.2912
  10   2.0000     -10.292853      -280.0828
  11   2.0000     -10.288775      -279.9718
  12   2.0000     -10.287274      -279.9310
  13   2.0000     -10.283031      -279.8155
  14   2.0000     -10.279804      -279.7277
  15   2.0000     -10.272552      -279.5303
  16   2.0000      -8.086297      -220.0393
  17   2.0000      -8.080563      -219.8833
  18   2.0000      -6.044501      -164.4792
  19   2.0000      -6.040385      -164.3672
  20   2.0000      -6.039061      -164.3312
  21   2.0000      -6.037517      -164.2892
  22   2.0000      -6.035105      -164.2235
  23   2.0000      -6.031272      -164.1193
  24   2.0000      -1.010308       -27.4919
  25   2.0000      -0.985872       -26.8269
  26   2.0000      -0.917146       -24.9568
  27   2.0000      -0.908137       -24.7117
  28   2.0000      -0.869013       -23.6470
  29   2.0000      -0.851910       -23.1816
  30   2.0000      -0.841834       -22.9075
  31   2.0000      -0.810288       -22.0491
  32   2.0000      -0.783898       -21.3309
  33   2.0000      -0.771424       -20.9915
  34   2.0000      -0.704853       -19.1800
  35   2.0000      -0.700489       -19.0613
  36   2.0000      -0.682925       -18.5833
  37   2.0000      -0.667600       -18.1663
  38   2.0000      -0.649935       -17.6856
  39   2.0000      -0.616718       -16.7818
  40   2.0000      -0.590809       -16.0767
  41   2.0000      -0.576141       -15.6776
  42   2.0000      -0.572550       -15.5799
  43   2.0000      -0.546173       -14.8621
  44   2.0000      -0.535142       -14.5620
  45   2.0000      -0.518450       -14.1077
  46   2.0000      -0.516340       -14.0503
  47   2.0000      -0.514208       -13.9923
  48   2.0000      -0.510366       -13.8878
  49   2.0000      -0.497799       -13.5458
  50   2.0000      -0.489230       -13.3126
  51   2.0000      -0.480200       -13.0669
  52   2.0000      -0.476554       -12.9677
  53   2.0000      -0.465938       -12.6788
  54   2.0000      -0.462094       -12.5742
  55   2.0000      -0.449757       -12.2385
  56   2.0000      -0.444841       -12.1047
  57   2.0000      -0.438927       -11.9438
  58   2.0000      -0.426837       -11.6148
  59   2.0000      -0.419427       -11.4132
  60   2.0000      -0.415630       -11.3099
  61   2.0000      -0.413884       -11.2624
  62   2.0000      -0.407043       -11.0762
  63   2.0000      -0.344101        -9.3635
  64   2.0000      -0.332232        -9.0405
  65   2.0000      -0.329273        -8.9600
  66   2.0000      -0.289438        -7.8760
  67   0.0000       0.027758         0.7553
  68   0.0000       0.066297         1.8040
  69   0.0000       0.109046         2.9673
  70   0.0000       0.119022         3.2388
  71   0.0000       0.127960         3.4820

MULLIKEN ATOMIC CHARGES
-----------------------
   0 S :    0.105629
   1 C :   -0.125015
   2 C :   -0.038254
   3 C :    0.031231
   4 C :   -0.151707
   5 H :   -0.031090
   6 C :    0.073741
   7 H :    0.043400
   8 H :    0.015410
   9 C :   -0.094273
  10 H :    0.028703
  11 H :    0.030263
  12 C :   -0.039902
  13 H :    0.011873
  14 H :    0.061802
  15 H :    0.028502
  16 S :    0.141936
  17 C :   -0.114001
  18 C :   -0.038166
  19 C :   -0.071891
  20 C :   -0.165421
  21 H :    0.029855
  22 C :    0.066904
  23 H :    0.017683
  24 H :    0.010830
  25 C :   -0.081319
  26 H :    0.039635
  27 H :    0.046330
  28 C :   -0.037126
  29 H :    0.051010
  30 H :    0.031477
  31 H :    0.012130
  32 H :    0.035469
  33 H :    0.074351
Sum of atomic charges:   -0.0000000

LOEWDIN ATOMIC CHARGES
----------------------
   0 S :    0.394731
   1 C :   -0.178009
   2 C :   -0.055267
   3 C :   -0.052518
   4 C :   -0.198492
   5 H :    0.008345
   6 C :   -0.025555
   7 H :    0.030374
   8 H :    0.033058
   9 C :   -0.038667
  10 H :    0.022683
  11 H :    0.025333
  12 C :   -0.065484
  13 H :    0.012927
  14 H :    0.037856
  15 H :    0.022771
  16 S :    0.468742
  17 C :   -0.214860
  18 C :   -0.076431
  19 C :   -0.046133
  20 C :   -0.231415
  21 H :    0.032815
  22 C :   -0.034671
  23 H :    0.025237
  24 H :    0.028177
  25 C :   -0.045951
  26 H :    0.032600
  27 H :    0.025602
  28 C :   -0.073207
  29 H :    0.032901
  30 H :    0.031753
  31 H :    0.019028
  32 H :    0.015579
  33 H :    0.036153

  Mayer bond orders larger than 0.100000
B(  0-S ,  1-C ) :   1.1430 B(  0-S ,  4-C ) :   1.1278 B(  1-C ,  2-C ) :   1.6390
B(  1-C , 32-H ) :   0.9653 B(  2-C ,  3-C ) :   1.2105 B(  2-C ,  6-C ) :   1.0093
B(  3-C ,  4-C ) :   1.5874 B(  3-C ,  5-H ) :   1.0073 B(  4-C , 20-C ) :   1.0713
B(  6-C ,  7-H ) :   0.9558 B(  6-C ,  8-H ) :   0.9342 B(  6-C ,  9-C ) :   1.0676
B(  9-C , 10-H ) :   0.9601 B(  9-C , 11-H ) :   0.9604 B(  9-C , 12-C ) :   1.0684
B( 12-C , 13-H ) :   0.9771 B( 12-C , 14-H ) :   0.9711 B( 12-C , 15-H ) :   0.9726
B( 16-S , 17-C ) :   1.2205 B( 16-S , 20-C ) :   1.1655 B( 17-C , 18-C ) :   1.5070
B( 17-C , 20-C ) :   0.1125 B( 17-C , 33-H ) :   0.9673 B( 18-C , 19-C ) :   1.3216
B( 18-C , 21-H ) :   0.9858 B( 19-C , 20-C ) :   1.5008 B( 19-C , 22-C ) :   1.0413
B( 22-C , 23-H ) :   0.9242 B( 22-C , 24-H ) :   0.9313 B( 22-C , 25-C ) :   1.0632
B( 25-C , 26-H ) :   0.9538 B( 25-C , 27-H ) :   0.9506 B( 25-C , 28-C ) :   1.0783
B( 28-C , 29-H ) :   0.9752 B( 28-C , 30-H ) :   0.9688 B( 28-C , 31-H ) :   0.9714

Dispersion correction           -0.015149897
FINAL SINGLE POINT ENERGY     -1339.856056313638

DIPOLE MOMENT
-------------
                                X             Y             Z
Electronic contribution:    -17.60210     -16.44677      -0.99796
Nuclear contribution   :     18.02575      16.72618       1.06655
                        -----------------------------------------
Total Dipole Moment    :      0.42366       0.27941       0.06859
                        -----------------------------------------
Magnitude (a.u.)       :      0.51211
Magnitude (Debye)      :      1.30169

Rotational constants in cm-1:     0.017750     0.009216     0.007916
Rotational constants in MHz :   532.144653   276.286992   237.307747

                             ****ORCA TERMINATED NORMALLY****
TOTAL RUN TIME: 0 days 0 hours 0 minutes 35 seconds 969 msec
