                         Program Version 4.2.1 -  RELEASE  -
|  1> ! wB97X-D3 SP def2-SVP
|  2> %pal
|  3> nprocs 16
|  4> end
|  5>
|  6> * xyz 0 1
|  7> S 	 64.0793 	 -2.1147 	 89.9703
|  8> C 	 63.0738 	 -1.51245 	 91.1912
|  9> C 	 63.788 	 -1.15016 	 92.3218
| 10> C 	 65.131 	 -1.59712 	 92.1932
| 11> C 	 65.5188 	 -2.2254 	 91.0403
| 12> H 	 65.8851 	 -1.61268 	 92.9349
| 13> C 	 63.1372 	 -0.546464 	 93.5707
| 14> H 	 62.1901 	 0.0373192 	 93.3531
| 15> H 	 63.8649 	 0.207422 	 93.9119
| 16> C 	 62.7571 	 -1.60511 	 94.7329
| 17> H 	 62.1395 	 -1.033 	 95.3873
| 18> H 	 62.1157 	 -2.38282 	 94.3684
| 19> C 	 63.9729 	 -2.1048 	 95.4142
| 20> H 	 64.648 	 -2.50917 	 94.6994
| 21> H 	 64.6765 	 -1.33629 	 95.8435
| 22> H 	 63.8839 	 -2.94634 	 96.1648
| 23> S 	 66.8237 	 -3.94685 	 89.3082
| 24> C 	 68.5461 	 -4.13553 	 89.4297
| 25> C 	 69.0863 	 -3.32056 	 90.3994
| 26> C 	 68.1383 	 -2.47521 	 91.0454
| 27> C 	 66.8195 	 -2.74268 	 90.5997
| 28> H 	 70.1301 	 -3.40473 	 90.6287
| 29> C 	 68.4847 	 -1.53826 	 92.1695
| 30> H 	 67.8124 	 -0.672144 	 92.2077
| 31> H 	 69.4754 	 -1.27895 	 91.8698
| 32> C 	 68.6307 	 -2.11836 	 93.5537
| 33> H 	 69.3085 	 -2.94992 	 93.4068
| 34> H 	 67.7249 	 -2.5739 	 93.751
| 35> C 	 69.1061 	 -1.24202 	 94.7232
| 36> H 	 69.1852 	 -0.268357 	 94.371
| 37> H 	 70.0434 	 -1.5406 	 95.2385
| 38> H 	 68.2089 	 -1.14706 	 95.3695
| 39> H 	 62.0121 	 -1.29426 	 91.093
| 40> H 	 69.1563 	 -4.75995 	 88.8145
| 41> *
| 42>
| 43>                          ****END OF INPUT****

CARTESIAN COORDINATES (ANGSTROEM)
---------------------------------
  S     64.079300   -2.114700   89.970300
  C     63.073800   -1.512450   91.191200
  C     63.788000   -1.150160   92.321800
  C     65.131000   -1.597120   92.193200
  C     65.518800   -2.225400   91.040300
  H     65.885100   -1.612680   92.934900
  C     63.137200   -0.546464   93.570700
  H     62.190100    0.037319   93.353100
  H     63.864900    0.207422   93.911900
  C     62.757100   -1.605110   94.732900
  H     62.139500   -1.033000   95.387300
  H     62.115700   -2.382820   94.368400
  C     63.972900   -2.104800   95.414200
  H     64.648000   -2.509170   94.699400
  H     64.676500   -1.336290   95.843500
  H     63.883900   -2.946340   96.164800
  S     66.823700   -3.946850   89.308200
  C     68.546100   -4.135530   89.429700
  C     69.086300   -3.320560   90.399400
  C     68.138300   -2.475210   91.045400
  C     66.819500   -2.742680   90.599700
  H     70.130100   -3.404730   90.628700
  C     68.484700   -1.538260   92.169500
  H     67.812400   -0.672144   92.207700
  H     69.475400   -1.278950   91.869800
  C     68.630700   -2.118360   93.553700
  H     69.308500   -2.949920   93.406800
  H     67.724900   -2.573900   93.751000
  C     69.106100   -1.242020   94.723200
  H     69.185200   -0.268357   94.371000
  H     70.043400   -1.540600   95.238500
  H     68.208900   -1.147060   95.369500
  H     62.012100   -1.294260   91.093000
  H     69.156300   -4.759950   88.814500

 Total Charge           Charge          ....    0
 Multiplicity           Mult            ....    1
 Number of Electrons    NEL             ....  134
 Basis Dimension        Dim             ....  322

ORBITAL ENERGIES
----------------

  NO   OCC          E(Eh)            E(eV)
   0   2.0000     -88.969634     -2420.9868
   1   2.0000     -88.963110     -2420.8093
   2   2.0000     -10.335493      -281.2430
   3   2.0000     -10.333263      -281.1824
   4   2.0000     -10.317985      -280.7667
   5   2.0000     -10.311998      -280.6037
   6   2.0000     -10.309118      -280.5254
   7   2.0000     -10.305566      -280.4287
   8   2.0000     -10.302113      -280.3348
   9   2.0000     -10.295615      -280.1579
  10   2.0000     -10.291684      -280.0510
  11   2.0000     -10.288512      -279.9646
  12   2.0000     -10.288294      -279.9587
  13   2.0000     -10.281082      -279.7625
  14   2.0000     -10.278534      -279.6931
  15   2.0000     -10.277737      -279.6714
  16   2.0000      -8.084176      -219.9816
  17   2.0000      -8.078283      -219.8213
  18   2.0000      -6.042662      -164.4292
  19   2.0000      -6.038647      -164.3199
  20   2.0000      -6.036784      -164.2692
  21   2.0000      -6.035047      -164.2220
  22   2.0000      -6.032690      -164.1578
  23   2.0000      -6.029052      -164.0588
  24   2.0000      -1.008117       -27.4323
  25   2.0000      -0.988323       -26.8936
  26   2.0000      -0.919102       -25.0100
  27   2.0000      -0.906482       -24.6666
  28   2.0000      -0.873571       -23.7711
  29   2.0000      -0.857133       -23.3238
  30   2.0000      -0.846267       -23.0281
  31   2.0000      -0.820798       -22.3351
  32   2.0000      -0.787451       -21.4276
  33   2.0000      -0.770378       -20.9630
  34   2.0000      -0.712060       -19.3761
  35   2.0000      -0.707456       -19.2509
  36   2.0000      -0.697480       -18.9794
  37   2.0000      -0.668674       -18.1955
  38   2.0000      -0.644781       -17.5454
  39   2.0000      -0.620806       -16.8930
  40   2.0000      -0.597882       -16.2692
  41   2.0000      -0.574481       -15.6324
  42   2.0000      -0.571485       -15.5509
  43   2.0000      -0.540988       -14.7210
  44   2.0000      -0.537055       -14.6140
  45   2.0000      -0.525425       -14.2975
  46   2.0000      -0.519409       -14.1338
  47   2.0000      -0.517839       -14.0911
  48   2.0000      -0.511339       -13.9142
  49   2.0000      -0.504975       -13.7411
  50   2.0000      -0.489490       -13.3197
  51   2.0000      -0.486326       -13.2336
  52   2.0000      -0.481784       -13.1100
  53   2.0000      -0.469231       -12.7684
  54   2.0000      -0.461219       -12.5504
  55   2.0000      -0.454328       -12.3629
  56   2.0000      -0.447680       -12.1820
  57   2.0000      -0.436205       -11.8697
  58   2.0000      -0.427866       -11.6428
  59   2.0000      -0.423822       -11.5328
  60   2.0000      -0.422156       -11.4875
  61   2.0000      -0.413929       -11.2636
  62   2.0000      -0.410005       -11.1568
  63   2.0000      -0.361532        -9.8378
  64   2.0000      -0.335408        -9.1269
  65   2.0000      -0.328648        -8.9430
  66   2.0000      -0.284086        -7.7304
  67   0.0000       0.019356         0.5267
  68   0.0000       0.082498         2.2449
  69   0.0000       0.104055         2.8315
  70   0.0000       0.117820         3.2060
  71   0.0000       0.121810         3.3146

MULLIKEN ATOMIC CHARGES
-----------------------
   0 S :    0.099953
   1 C :   -0.111117
   2 C :   -0.064849
   3 C :    0.010147
   4 C :   -0.111204
   5 H :   -0.038051
   6 C :    0.000820
   7 H :    0.035003
   8 H :    0.035477
   9 C :    0.003180
  10 H :    0.021102
  11 H :    0.029531
  12 C :   -0.066894
  13 H :    0.012446
  14 H :    0.024128
  15 H :    0.043482
  16 S :    0.112216
  17 C :   -0.071394
  18 C :   -0.039940
  19 C :   -0.053816
  20 C :   -0.141761
  21 H :    0.014248
  22 C :    0.062798
  23 H :    0.032975
  24 H :    0.006205
  25 C :   -0.050966
  26 H :    0.007882
  27 H :    0.002570
  28 C :    0.000901
  29 H :    0.005517
  30 H :    0.058211
  31 H :    0.031099
  32 H :    0.052042
  33 H :    0.048060
Sum of atomic charges:   -0.0000000

LOEWDIN ATOMIC CHARGES
----------------------
   0 S :    0.402613
   1 C :   -0.205044
   2 C :   -0.073851
   3 C :   -0.068896
   4 C :   -0.177367
   5 H :    0.017347
   6 C :   -0.030525
   7 H :    0.035920
   8 H :    0.032451
   9 C :   -0.030004
  10 H :    0.019433
  11 H :    0.026287
  12 C :   -0.081511
  13 H :    0.019763
  14 H :    0.029528
  15 H :    0.033428
  16 S :    0.410887
  17 C :   -0.182004
  18 C :   -0.070192
  19 C :   -0.049472
  20 C :   -0.189994
  21 H :    0.030464
  22 C :   -0.033936
  23 H :    0.028791
  24 H :    0.027518
  25 C :   -0.040939
  26 H :    0.023956
  27 H :    0.008165
  28 C :   -0.063003
  29 H :    0.016665
  30 H :    0.037169
  31 H :    0.036443
  32 H :    0.032882
  33 H :    0.027031

  Mayer bond orders larger than 0.100000
B(  0-S ,  1-C ) :   1.1689 B(  0-S ,  4-C ) :   1.1256 B(  1-C ,  2-C ) :   1.5851
B(  1-C , 32-H ) :   0.9646 B(  2-C ,  3-C ) :   1.2426 B(  2-C ,  6-C ) :   1.0275
B(  3-C ,  4-C ) :   1.5889 B(  3-C ,  5-H ) :   0.9942 B(  4-C , 20-C ) :   1.0766
B(  6-C ,  7-H ) :   0.9466 B(  6-C ,  8-H ) :   0.9433 B(  6-C ,  9-C ) :   1.0542
B(  9-C , 10-H ) :   0.9559 B(  9-C , 11-H ) :   0.9549 B(  9-C , 12-C ) :   1.0780
B( 12-C , 13-H ) :   0.9699 B( 12-C , 14-H ) :   0.9714 B( 12-C , 15-H ) :   0.9686
B( 16-S , 17-C ) :   1.1583 B( 16-S , 20-C ) :   1.1439 B( 17-C , 18-C ) :   1.6038
B( 17-C , 33-H ) :   0.9686 B( 18-C , 19-C ) :   1.2566 B( 18-C , 21-H ) :   0.9901
B( 19-C , 20-C ) :   1.5477 B( 19-C , 22-C ) :   1.0554 B( 22-C , 23-H ) :   0.9252
B( 22-C , 24-H ) :   0.9151 B( 22-C , 25-C ) :   1.0801 B( 25-C , 26-H ) :   0.9466
B( 25-C , 27-H ) :   0.9558 B( 25-C , 28-C ) :   1.0583 B( 28-C , 29-H ) :   0.9745
B( 28-C , 30-H ) :   0.9768 B( 28-C , 31-H ) :   0.9725

Dispersion correction           -0.014753532
FINAL SINGLE POINT ENERGY     -1339.865853512428

DIPOLE MOMENT
-------------
                                X             Y             Z
Electronic contribution:     -4.23987      -8.53935     -30.04590
Nuclear contribution   :      4.51009       8.70207      30.63198
                        -----------------------------------------
Total Dipole Moment    :      0.27022       0.16272       0.58608
                        -----------------------------------------
Magnitude (a.u.)       :      0.66557
Magnitude (Debye)      :      1.69174

Rotational constants in cm-1:     0.016560     0.010344     0.006903
Rotational constants in MHz :   496.453389   310.090552   206.939582

                             ****ORCA TERMINATED NORMALLY****
TOTAL RUN TIME: 0 days 0 hours 0 minutes 31 seconds 481 msec
