                         Program Version 4.2.1 -  RELEASE  -
|  1> ! wB97X-D3 SP def2-SVP
|  2> %pal
|  3> nprocs 16
|  4> end
|  5>
|  6> * xyz 0 1
|  7> S 	 -41.4232 	 35.1335 	 83.6145
|  8> C 	 -40.8546 	 36.5018 	 82.6604
|  9> C 	 -40.5677 	 36.1089 	 81.3423
| 10> C 	 -40.688 	 34.7009 	 81.1693
| 11> C 	 -41.2215 	 34.0576 	 82.267
| 12> H 	 -40.1868 	 34.1249 	 80.3783
| 13> C 	 -39.8546 	 37.0021 	 80.3147
| 14> H 	 -39.2032 	 36.3754 	 79.6534
| 15> H 	 -39.0411 	 37.4774 	 80.935
| 16> C 	 -40.6785 	 38.0314 	 79.5255
| 17> H 	 -41.5474 	 37.5484 	 79.0166
| 18> H 	 -41.248 	 38.5831 	 80.2554
| 19> C 	 -39.8559 	 38.8806 	 78.5207
| 20> H 	 -39.1578 	 39.5674 	 78.9566
| 21> H 	 -39.3295 	 38.2445 	 77.7974
| 22> H 	 -40.592 	 39.4709 	 78.0273
| 23> S 	 -39.7511 	 31.6501 	 82.3256
| 24> C 	 -40.6244 	 30.1373 	 82.7965
| 25> C 	 -41.9977 	 30.3561 	 82.6647
| 26> C 	 -42.3127 	 31.6962 	 82.4592
| 27> C 	 -41.2693 	 32.5773 	 82.3827
| 28> H 	 -42.7076 	 29.6719 	 82.9238
| 29> C 	 -43.7474 	 32.0601 	 82.2832
| 30> H 	 -43.6633 	 33.1534 	 82.218
| 31> H 	 -44.2323 	 31.8581 	 83.2312
| 32> C 	 -44.418 	 31.5591 	 80.9987
| 33> H 	 -45.4713 	 31.7234 	 81.1932
| 34> H 	 -44.2402 	 30.5283 	 81.0874
| 35> C 	 -43.8873 	 32.0934 	 79.7001
| 36> H 	 -43.1128 	 31.405 	 79.1675
| 37> H 	 -43.5133 	 33.1285 	 79.6179
| 38> H 	 -44.7562 	 32.1714 	 78.9833
| 39> H 	 -40.6472 	 37.4706 	 83.0781
| 40> H 	 -40.179 	 29.2208 	 83.1567
| 41> *
| 42>
| 43>                          ****END OF INPUT****

CARTESIAN COORDINATES (ANGSTROEM)
---------------------------------
  S    -41.423200   35.133500   83.614500
  C    -40.854600   36.501800   82.660400
  C    -40.567700   36.108900   81.342300
  C    -40.688000   34.700900   81.169300
  C    -41.221500   34.057600   82.267000
  H    -40.186800   34.124900   80.378300
  C    -39.854600   37.002100   80.314700
  H    -39.203200   36.375400   79.653400
  H    -39.041100   37.477400   80.935000
  C    -40.678500   38.031400   79.525500
  H    -41.547400   37.548400   79.016600
  H    -41.248000   38.583100   80.255400
  C    -39.855900   38.880600   78.520700
  H    -39.157800   39.567400   78.956600
  H    -39.329500   38.244500   77.797400
  H    -40.592000   39.470900   78.027300
  S    -39.751100   31.650100   82.325600
  C    -40.624400   30.137300   82.796500
  C    -41.997700   30.356100   82.664700
  C    -42.312700   31.696200   82.459200
  C    -41.269300   32.577300   82.382700
  H    -42.707600   29.671900   82.923800
  C    -43.747400   32.060100   82.283200
  H    -43.663300   33.153400   82.218000
  H    -44.232300   31.858100   83.231200
  C    -44.418000   31.559100   80.998700
  H    -45.471300   31.723400   81.193200
  H    -44.240200   30.528300   81.087400
  C    -43.887300   32.093400   79.700100
  H    -43.112800   31.405000   79.167500
  H    -43.513300   33.128500   79.617900
  H    -44.756200   32.171400   78.983300
  H    -40.647200   37.470600   83.078100
  H    -40.179000   29.220800   83.156700

 Total Charge           Charge          ....    0
 Multiplicity           Mult            ....    1
 Number of Electrons    NEL             ....  134
 Basis Dimension        Dim             ....  322

ORBITAL ENERGIES
----------------

  NO   OCC          E(Eh)            E(eV)
   0   2.0000     -88.971525     -2421.0383
   1   2.0000     -88.962937     -2420.8046
   2   2.0000     -10.328986      -281.0660
   3   2.0000     -10.324359      -280.9401
   4   2.0000     -10.323596      -280.9193
   5   2.0000     -10.318335      -280.7762
   6   2.0000     -10.305198      -280.4187
   7   2.0000     -10.298683      -280.2414
   8   2.0000     -10.294398      -280.1248
   9   2.0000     -10.290710      -280.0245
  10   2.0000     -10.288916      -279.9756
  11   2.0000     -10.285159      -279.8734
  12   2.0000     -10.284069      -279.8438
  13   2.0000     -10.280709      -279.7523
  14   2.0000     -10.279289      -279.7137
  15   2.0000     -10.279081      -279.7080
  16   2.0000      -8.085782      -220.0253
  17   2.0000      -8.076327      -219.7680
  18   2.0000      -6.044260      -164.4727
  19   2.0000      -6.040310      -164.3652
  20   2.0000      -6.036641      -164.2653
  21   2.0000      -6.035020      -164.2212
  22   2.0000      -6.031119      -164.1151
  23   2.0000      -6.026879      -163.9997
  24   2.0000      -1.003459       -27.3055
  25   2.0000      -0.981968       -26.7207
  26   2.0000      -0.909057       -24.7367
  27   2.0000      -0.904987       -24.6260
  28   2.0000      -0.865685       -23.5565
  29   2.0000      -0.851468       -23.1696
  30   2.0000      -0.844478       -22.9794
  31   2.0000      -0.813178       -22.1277
  32   2.0000      -0.780541       -21.2396
  33   2.0000      -0.768794       -20.9200
  34   2.0000      -0.705832       -19.2067
  35   2.0000      -0.702534       -19.1169
  36   2.0000      -0.696760       -18.9598
  37   2.0000      -0.667747       -18.1703
  38   2.0000      -0.641638       -17.4599
  39   2.0000      -0.611964       -16.6524
  40   2.0000      -0.591505       -16.0957
  41   2.0000      -0.570085       -15.5128
  42   2.0000      -0.552896       -15.0451
  43   2.0000      -0.549165       -14.9435
  44   2.0000      -0.539909       -14.6917
  45   2.0000      -0.526306       -14.3215
  46   2.0000      -0.517623       -14.0852
  47   2.0000      -0.512280       -13.9399
  48   2.0000      -0.505343       -13.7511
  49   2.0000      -0.496425       -13.5084
  50   2.0000      -0.495983       -13.4964
  51   2.0000      -0.473506       -12.8848
  52   2.0000      -0.470025       -12.7900
  53   2.0000      -0.465087       -12.6557
  54   2.0000      -0.453274       -12.3342
  55   2.0000      -0.448365       -12.2006
  56   2.0000      -0.444076       -12.0839
  57   2.0000      -0.440757       -11.9936
  58   2.0000      -0.432799       -11.7770
  59   2.0000      -0.423976       -11.5370
  60   2.0000      -0.408825       -11.1247
  61   2.0000      -0.407102       -11.0778
  62   2.0000      -0.405841       -11.0435
  63   2.0000      -0.335385        -9.1263
  64   2.0000      -0.334802        -9.1104
  65   2.0000      -0.325579        -8.8595
  66   2.0000      -0.297132        -8.0854
  67   0.0000       0.039660         1.0792
  68   0.0000       0.045830         1.2471
  69   0.0000       0.099909         2.7187
  70   0.0000       0.116097         3.1592
  71   0.0000       0.134964         3.6726

MULLIKEN ATOMIC CHARGES
-----------------------
   0 S :    0.131583
   1 C :   -0.126837
   2 C :   -0.067742
   3 C :    0.005029
   4 C :   -0.159365
   5 H :    0.034431
   6 C :    0.012727
   7 H :    0.019271
   8 H :    0.033825
   9 C :   -0.065137
  10 H :    0.029231
  11 H :    0.014690
  12 C :   -0.015786
  13 H :    0.031506
  14 H :    0.037791
  15 H :    0.028109
  16 S :    0.087629
  17 C :   -0.097694
  18 C :    0.021220
  19 C :   -0.060911
  20 C :   -0.159915
  21 H :   -0.011436
  22 C :    0.041579
  23 H :    0.013455
  24 H :    0.030011
  25 C :    0.001521
  26 H :    0.033602
  27 H :    0.009147
  28 C :   -0.094361
  29 H :    0.055945
  30 H :    0.043068
  31 H :    0.033028
  32 H :    0.050503
  33 H :    0.060282
Sum of atomic charges:   -0.0000000

LOEWDIN ATOMIC CHARGES
----------------------
   0 S :    0.421220
   1 C :   -0.191927
   2 C :   -0.063120
   3 C :   -0.066048
   4 C :   -0.205353
   5 H :    0.037443
   6 C :   -0.042761
   7 H :    0.028527
   8 H :    0.036261
   9 C :   -0.045500
  10 H :    0.029976
  11 H :    0.020865
  12 C :   -0.057729
  13 H :    0.023045
  14 H :    0.029234
  15 H :    0.026310
  16 S :    0.365923
  17 C :   -0.155462
  18 C :   -0.061554
  19 C :   -0.065159
  20 C :   -0.190322
  21 H :    0.016402
  22 C :   -0.034604
  23 H :    0.025322
  24 H :    0.029861
  25 C :   -0.037712
  26 H :    0.028968
  27 H :    0.018801
  28 C :   -0.081939
  29 H :    0.041180
  30 H :    0.029838
  31 H :    0.034571
  32 H :    0.025809
  33 H :    0.029635

  Mayer bond orders larger than 0.100000
B(  0-S ,  1-C ) :   1.1510 B(  0-S ,  4-C ) :   1.1649 B(  1-C ,  2-C ) :   1.5863
B(  1-C , 32-H ) :   0.9722 B(  2-C ,  3-C ) :   1.2602 B(  2-C ,  6-C ) :   1.0043
B(  3-C ,  4-C ) :   1.5647 B(  3-C ,  5-H ) :   0.9897 B(  4-C , 20-C ) :   1.0104
B(  6-C ,  7-H ) :   0.9496 B(  6-C ,  8-H ) :   0.9478 B(  6-C ,  9-C ) :   1.0497
B(  9-C , 10-H ) :   0.9550 B(  9-C , 11-H ) :   0.9538 B(  9-C , 12-C ) :   1.0735
B( 12-C , 13-H ) :   0.9772 B( 12-C , 14-H ) :   0.9754 B( 12-C , 15-H ) :   0.9741
B( 16-S , 17-C ) :   1.1499 B( 16-S , 20-C ) :   1.1112 B( 17-C , 18-C ) :   1.5871
B( 17-C , 20-C ) :   0.1030 B( 17-C , 33-H ) :   0.9702 B( 18-C , 19-C ) :   1.2507
B( 18-C , 21-H ) :   0.9947 B( 19-C , 20-C ) :   1.6203 B( 19-C , 22-C ) :   1.0402
B( 22-C , 23-H ) :   0.9286 B( 22-C , 24-H ) :   0.9335 B( 22-C , 25-C ) :   1.0668
B( 25-C , 26-H ) :   0.9565 B( 25-C , 27-H ) :   0.9550 B( 25-C , 28-C ) :   1.0608
B( 28-C , 29-H ) :   0.9734 B( 28-C , 30-H ) :   0.9770 B( 28-C , 31-H ) :   0.9725

Dispersion correction           -0.014419242
FINAL SINGLE POINT ENERGY     -1339.856630092642

DIPOLE MOMENT
-------------
                                X             Y             Z
Electronic contribution:      8.14754     -11.15668      19.72460
Nuclear contribution   :     -8.27112      11.31110     -19.95247
                        -----------------------------------------
Total Dipole Moment    :     -0.12359       0.15442      -0.22787
                        -----------------------------------------
Magnitude (a.u.)       :      0.30173
Magnitude (Debye)      :      0.76694

Rotational constants in cm-1:     0.020995     0.007378     0.006744
Rotational constants in MHz :   629.407343   221.190306   202.170287

                             ****ORCA TERMINATED NORMALLY****
TOTAL RUN TIME: 0 days 0 hours 0 minutes 28 seconds 36 msec
