                         Program Version 4.2.1 -  RELEASE  -
|  1> ! wB97X-D3 SP def2-SVP
|  2> %pal
|  3> nprocs 16
|  4> end
|  5>
|  6> * xyz 0 1
|  7> S 	 58.0177 	 -4.90131 	 87.5204
|  8> C 	 56.6152 	 -5.87313 	 87.7361
|  9> C 	 55.5123 	 -5.01987 	 88.0115
| 10> C 	 55.8257 	 -3.61168 	 88.052
| 11> C 	 57.1569 	 -3.37236 	 87.7398
| 12> H 	 55.2537 	 -2.77972 	 88.389
| 13> C 	 54.2085 	 -5.65249 	 88.4309
| 14> H 	 54.0601 	 -6.59196 	 87.944
| 15> H 	 53.4159 	 -4.94188 	 88.1097
| 16> C 	 53.9373 	 -5.77962 	 89.9227
| 17> H 	 54.8533 	 -6.23496 	 90.2906
| 18> H 	 54.0208 	 -4.71675 	 90.2909
| 19> C 	 52.6828 	 -6.5863 	 90.3595
| 20> H 	 52.7578 	 -7.62477 	 90.0903
| 21> H 	 52.4475 	 -6.49916 	 91.4611
| 22> H 	 51.8657 	 -6.26297 	 89.8186
| 23> S 	 58.2949 	 -1.50074 	 86.1641
| 24> C 	 58.6198 	 0.132172 	 86.7823
| 25> C 	 58.0253 	 0.268368 	 88.0052
| 26> C 	 57.6163 	 -1.01012 	 88.5609
| 27> C 	 57.7268 	 -2.05924 	 87.6505
| 28> H 	 57.9691 	 1.27203 	 88.4792
| 29> C 	 56.9402 	 -1.09145 	 89.92
| 30> H 	 57.2321 	 -2.06351 	 90.3079
| 31> H 	 55.8731 	 -1.00206 	 89.792
| 32> C 	 57.4566 	 -0.148001 	 91.0131
| 33> H 	 57.0791 	 0.793648 	 90.652
| 34> H 	 58.5902 	 -0.330188 	 91.0142
| 35> C 	 56.9753 	 -0.631604 	 92.4265
| 36> H 	 57.4575 	 0.0862675 	 93.1106
| 37> H 	 57.0842 	 -1.66596 	 92.6446
| 38> H 	 55.9361 	 -0.464093 	 92.5914
| 39> H 	 56.5641 	 -6.9513 	 87.9539
| 40> H 	 58.8914 	 0.982972 	 86.1376
| 41> *
| 42>
| 43>                          ****END OF INPUT****

CARTESIAN COORDINATES (ANGSTROEM)
---------------------------------
  S     58.017700   -4.901310   87.520400
  C     56.615200   -5.873130   87.736100
  C     55.512300   -5.019870   88.011500
  C     55.825700   -3.611680   88.052000
  C     57.156900   -3.372360   87.739800
  H     55.253700   -2.779720   88.389000
  C     54.208500   -5.652490   88.430900
  H     54.060100   -6.591960   87.944000
  H     53.415900   -4.941880   88.109700
  C     53.937300   -5.779620   89.922700
  H     54.853300   -6.234960   90.290600
  H     54.020800   -4.716750   90.290900
  C     52.682800   -6.586300   90.359500
  H     52.757800   -7.624770   90.090300
  H     52.447500   -6.499160   91.461100
  H     51.865700   -6.262970   89.818600
  S     58.294900   -1.500740   86.164100
  C     58.619800    0.132172   86.782300
  C     58.025300    0.268368   88.005200
  C     57.616300   -1.010120   88.560900
  C     57.726800   -2.059240   87.650500
  H     57.969100    1.272030   88.479200
  C     56.940200   -1.091450   89.920000
  H     57.232100   -2.063510   90.307900
  H     55.873100   -1.002060   89.792000
  C     57.456600   -0.148001   91.013100
  H     57.079100    0.793648   90.652000
  H     58.590200   -0.330188   91.014200
  C     56.975300   -0.631604   92.426500
  H     57.457500    0.086267   93.110600
  H     57.084200   -1.665960   92.644600
  H     55.936100   -0.464093   92.591400
  H     56.564100   -6.951300   87.953900
  H     58.891400    0.982972   86.137600

 Total Charge           Charge          ....    0
 Multiplicity           Mult            ....    1
 Number of Electrons    NEL             ....  134
 Basis Dimension        Dim             ....  322

ORBITAL ENERGIES
----------------

  NO   OCC          E(Eh)            E(eV)
   0   2.0000     -88.969547     -2420.9845
   1   2.0000     -88.962537     -2420.7937
   2   2.0000     -10.330504      -281.1073
   3   2.0000     -10.322006      -280.8761
   4   2.0000     -10.318704      -280.7862
   5   2.0000     -10.317761      -280.7606
   6   2.0000     -10.307108      -280.4707
   7   2.0000     -10.303173      -280.3636
   8   2.0000     -10.298319      -280.2315
   9   2.0000     -10.298163      -280.2273
  10   2.0000     -10.294096      -280.1166
  11   2.0000     -10.288505      -279.9644
  12   2.0000     -10.286951      -279.9222
  13   2.0000     -10.285430      -279.8808
  14   2.0000     -10.280901      -279.7575
  15   2.0000     -10.278425      -279.6902
  16   2.0000      -8.083996      -219.9767
  17   2.0000      -8.078285      -219.8213
  18   2.0000      -6.042466      -164.4239
  19   2.0000      -6.038359      -164.3121
  20   2.0000      -6.036744      -164.2681
  21   2.0000      -6.034982      -164.2202
  22   2.0000      -6.032655      -164.1569
  23   2.0000      -6.029007      -164.0576
  24   2.0000      -1.011240       -27.5172
  25   2.0000      -0.985104       -26.8060
  26   2.0000      -0.911792       -24.8111
  27   2.0000      -0.909820       -24.7575
  28   2.0000      -0.876285       -23.8449
  29   2.0000      -0.850096       -23.1323
  30   2.0000      -0.843709       -22.9585
  31   2.0000      -0.819600       -22.3025
  32   2.0000      -0.782097       -21.2819
  33   2.0000      -0.770554       -20.9678
  34   2.0000      -0.708989       -19.2926
  35   2.0000      -0.698072       -18.9955
  36   2.0000      -0.695963       -18.9381
  37   2.0000      -0.652604       -17.7582
  38   2.0000      -0.643977       -17.5235
  39   2.0000      -0.618162       -16.8211
  40   2.0000      -0.592527       -16.1235
  41   2.0000      -0.582127       -15.8405
  42   2.0000      -0.572162       -15.5693
  43   2.0000      -0.559101       -15.2139
  44   2.0000      -0.526948       -14.3390
  45   2.0000      -0.523255       -14.2385
  46   2.0000      -0.517122       -14.0716
  47   2.0000      -0.511892       -13.9293
  48   2.0000      -0.510090       -13.8803
  49   2.0000      -0.505339       -13.7510
  50   2.0000      -0.492235       -13.3944
  51   2.0000      -0.482093       -13.1184
  52   2.0000      -0.480235       -13.0678
  53   2.0000      -0.471427       -12.8282
  54   2.0000      -0.462394       -12.5824
  55   2.0000      -0.448809       -12.2127
  56   2.0000      -0.442876       -12.0513
  57   2.0000      -0.432188       -11.7604
  58   2.0000      -0.430813       -11.7230
  59   2.0000      -0.427240       -11.6258
  60   2.0000      -0.414541       -11.2802
  61   2.0000      -0.411193       -11.1891
  62   2.0000      -0.405405       -11.0316
  63   2.0000      -0.350387        -9.5345
  64   2.0000      -0.329600        -8.9689
  65   2.0000      -0.323455        -8.8017
  66   2.0000      -0.296167        -8.0591
  67   0.0000       0.031053         0.8450
  68   0.0000       0.062862         1.7106
  69   0.0000       0.110880         3.0172
  70   0.0000       0.122082         3.3220
  71   0.0000       0.126848         3.4517

MULLIKEN ATOMIC CHARGES
-----------------------
   0 S :    0.127925
   1 C :   -0.113862
   2 C :   -0.110084
   3 C :    0.058191
   4 C :   -0.184753
   5 H :    0.006220
   6 C :    0.045427
   7 H :    0.015623
   8 H :    0.022262
   9 C :   -0.078934
  10 H :    0.011953
  11 H :    0.024572
  12 C :   -0.006739
  13 H :    0.026595
  14 H :    0.052295
  15 H :    0.010085
  16 S :    0.105890
  17 C :   -0.104872
  18 C :   -0.053410
  19 C :   -0.067273
  20 C :   -0.121349
  21 H :    0.042144
  22 C :    0.034953
  23 H :    0.024916
  24 H :    0.043449
  25 C :   -0.116273
  26 H :    0.035442
  27 H :    0.054921
  28 C :   -0.015069
  29 H :    0.040073
  30 H :    0.034758
  31 H :    0.013672
  32 H :    0.071017
  33 H :    0.070236
Sum of atomic charges:   -0.0000000

LOEWDIN ATOMIC CHARGES
----------------------
   0 S :    0.421021
   1 C :   -0.217131
   2 C :   -0.059189
   3 C :   -0.050948
   4 C :   -0.194550
   5 H :    0.030038
   6 C :   -0.039687
   7 H :    0.022131
   8 H :    0.030930
   9 C :   -0.046285
  10 H :    0.016218
  11 H :    0.026825
  12 C :   -0.060609
  13 H :    0.026084
  14 H :    0.039381
  15 H :    0.014242
  16 S :    0.425548
  17 C :   -0.187878
  18 C :   -0.074164
  19 C :   -0.061042
  20 C :   -0.223842
  21 H :    0.039455
  22 C :   -0.041274
  23 H :    0.029903
  24 H :    0.024596
  25 C :   -0.040113
  26 H :    0.019945
  27 H :    0.039597
  28 C :   -0.062926
  29 H :    0.033359
  30 H :    0.024253
  31 H :    0.019906
  32 H :    0.040259
  33 H :    0.035948

  Mayer bond orders larger than 0.100000
B(  0-S ,  1-C ) :   1.1543 B(  0-S ,  4-C ) :   1.1593 B(  1-C ,  2-C ) :   1.5702
B(  1-C ,  4-C ) :   0.1021 B(  1-C , 32-H ) :   0.9636 B(  2-C ,  3-C ) :   1.2497
B(  2-C ,  6-C ) :   1.0498 B(  3-C ,  4-C ) :   1.5485 B(  3-C ,  5-H ) :   0.9975
B(  4-C , 20-C ) :   1.0409 B(  6-C ,  7-H ) :   0.9432 B(  6-C ,  8-H ) :   0.9328
B(  6-C ,  9-C ) :   1.0563 B(  9-C , 10-H ) :   0.9570 B(  9-C , 11-H ) :   0.9550
B(  9-C , 12-C ) :   1.0672 B( 12-C , 13-H ) :   0.9721 B( 12-C , 14-H ) :   0.9747
B( 12-C , 15-H ) :   0.9746 B( 16-S , 17-C ) :   1.1500 B( 16-S , 20-C ) :   1.1661
B( 17-C , 18-C ) :   1.6191 B( 17-C , 33-H ) :   0.9625 B( 18-C , 19-C ) :   1.2379
B( 18-C , 21-H ) :   0.9800 B( 19-C , 20-C ) :   1.5802 B( 19-C , 22-C ) :   1.0404
B( 22-C , 23-H ) :   0.9350 B( 22-C , 24-H ) :   0.9327 B( 22-C , 25-C ) :   1.0583
B( 25-C , 26-H ) :   0.9505 B( 25-C , 27-H ) :   0.9625 B( 25-C , 28-C ) :   1.0794
B( 28-C , 29-H ) :   0.9747 B( 28-C , 30-H ) :   0.9748 B( 28-C , 31-H ) :   0.9715

Dispersion correction           -0.013831150
FINAL SINGLE POINT ENERGY     -1339.857301884718

DIPOLE MOMENT
-------------
                                X             Y             Z
Electronic contribution:     18.86853       1.43187     -24.82506
Nuclear contribution   :    -19.48094      -1.25064      25.40916
                        -----------------------------------------
Total Dipole Moment    :     -0.61242       0.18123       0.58410
                        -----------------------------------------
Magnitude (a.u.)       :      0.86549
Magnitude (Debye)      :      2.19989

Rotational constants in cm-1:     0.016989     0.008636     0.006355
Rotational constants in MHz :   509.319857   258.892456   190.510311

                             ****ORCA TERMINATED NORMALLY****
TOTAL RUN TIME: 0 days 0 hours 0 minutes 28 seconds 263 msec
