                         Program Version 4.2.1 -  RELEASE  -
|  1> ! wB97X-D3 SP def2-SVP
|  2> %pal
|  3> nprocs 16
|  4> end
|  5>
|  6> * xyz 0 1
|  7> S 	 4.17568 	 -20.4781 	 52.5523
|  8> C 	 3.05748 	 -21.8081 	 52.3632
|  9> C 	 3.52565 	 -22.9672 	 52.9227
| 10> C 	 4.85736 	 -22.7998 	 53.4649
| 11> C 	 5.30597 	 -21.4772 	 53.3887
| 12> H 	 5.44602 	 -23.5495 	 53.9637
| 13> C 	 2.74835 	 -24.2511 	 52.8673
| 14> H 	 3.46455 	 -24.9121 	 52.3872
| 15> H 	 1.86479 	 -24.1596 	 52.2703
| 16> C 	 2.25804 	 -24.769 	 54.2422
| 17> H 	 1.91404 	 -25.8168 	 54.201
| 18> H 	 3.13502 	 -24.946 	 54.9285
| 19> C 	 1.20727 	 -23.842 	 54.8859
| 20> H 	 0.299821 	 -23.7619 	 54.307
| 21> H 	 1.01551 	 -24.0965 	 55.9003
| 22> H 	 1.5299 	 -22.84 	 54.8251
| 23> S 	 7.44089 	 -20.5395 	 51.9818
| 24> C 	 8.97613 	 -20.6745 	 52.689
| 25> C 	 8.93459 	 -20.9494 	 54.0661
| 26> C 	 7.61682 	 -21.2964 	 54.4635
| 27> C 	 6.72476 	 -21.1941 	 53.3884
| 28> H 	 9.73596 	 -21.0399 	 54.7888
| 29> C 	 7.26848 	 -21.9183 	 55.8443
| 30> H 	 6.24723 	 -22.41 	 55.8229
| 31> H 	 7.27072 	 -21.1401 	 56.5517
| 32> C 	 8.19462 	 -23.0092 	 56.3797
| 33> H 	 8.05984 	 -23.2516 	 57.4044
| 34> H 	 9.22578 	 -22.6469 	 56.2185
| 35> C 	 8.01653 	 -24.2267 	 55.6033
| 36> H 	 7.00154 	 -24.6127 	 55.7756
| 37> H 	 8.70414 	 -24.9603 	 56.0291
| 38> H 	 8.23874 	 -24.1898 	 54.5054
| 39> H 	 2.07171 	 -21.6552 	 51.8867
| 40> H 	 9.81181 	 -20.3961 	 52.1176
| 41> *
| 42>
| 43>                          ****END OF INPUT****

CARTESIAN COORDINATES (ANGSTROEM)
---------------------------------
  S      4.175680  -20.478100   52.552300
  C      3.057480  -21.808100   52.363200
  C      3.525650  -22.967200   52.922700
  C      4.857360  -22.799800   53.464900
  C      5.305970  -21.477200   53.388700
  H      5.446020  -23.549500   53.963700
  C      2.748350  -24.251100   52.867300
  H      3.464550  -24.912100   52.387200
  H      1.864790  -24.159600   52.270300
  C      2.258040  -24.769000   54.242200
  H      1.914040  -25.816800   54.201000
  H      3.135020  -24.946000   54.928500
  C      1.207270  -23.842000   54.885900
  H      0.299821  -23.761900   54.307000
  H      1.015510  -24.096500   55.900300
  H      1.529900  -22.840000   54.825100
  S      7.440890  -20.539500   51.981800
  C      8.976130  -20.674500   52.689000
  C      8.934590  -20.949400   54.066100
  C      7.616820  -21.296400   54.463500
  C      6.724760  -21.194100   53.388400
  H      9.735960  -21.039900   54.788800
  C      7.268480  -21.918300   55.844300
  H      6.247230  -22.410000   55.822900
  H      7.270720  -21.140100   56.551700
  C      8.194620  -23.009200   56.379700
  H      8.059840  -23.251600   57.404400
  H      9.225780  -22.646900   56.218500
  C      8.016530  -24.226700   55.603300
  H      7.001540  -24.612700   55.775600
  H      8.704140  -24.960300   56.029100
  H      8.238740  -24.189800   54.505400
  H      2.071710  -21.655200   51.886700
  H      9.811810  -20.396100   52.117600

 Total Charge           Charge          ....    0
 Multiplicity           Mult            ....    1
 Number of Electrons    NEL             ....  134
 Basis Dimension        Dim             ....  322

ORBITAL ENERGIES
----------------

  NO   OCC          E(Eh)            E(eV)
   0   2.0000     -88.967014     -2420.9155
   1   2.0000     -88.964936     -2420.8590
   2   2.0000     -10.323975      -280.9296
   3   2.0000     -10.318957      -280.7931
   4   2.0000     -10.313927      -280.6562
   5   2.0000     -10.311599      -280.5929
   6   2.0000     -10.301414      -280.3157
   7   2.0000     -10.299979      -280.2767
   8   2.0000     -10.295817      -280.1634
   9   2.0000     -10.295736      -280.1612
  10   2.0000     -10.292659      -280.0775
  11   2.0000     -10.291103      -280.0351
  12   2.0000     -10.289616      -279.9947
  13   2.0000     -10.279412      -279.7170
  14   2.0000     -10.273867      -279.5661
  15   2.0000     -10.269263      -279.4409
  16   2.0000      -8.083475      -219.9625
  17   2.0000      -8.080347      -219.8774
  18   2.0000      -6.041701      -164.4030
  19   2.0000      -6.038779      -164.3235
  20   2.0000      -6.037763      -164.2959
  21   2.0000      -6.034692      -164.2123
  22   2.0000      -6.034409      -164.2046
  23   2.0000      -6.031236      -164.1183
  24   2.0000      -1.013877       -27.5890
  25   2.0000      -0.987949       -26.8835
  26   2.0000      -0.920323       -25.0433
  27   2.0000      -0.912598       -24.8331
  28   2.0000      -0.868182       -23.6244
  29   2.0000      -0.857701       -23.3392
  30   2.0000      -0.845420       -23.0051
  31   2.0000      -0.809941       -22.0396
  32   2.0000      -0.785490       -21.3743
  33   2.0000      -0.774140       -21.0654
  34   2.0000      -0.707941       -19.2641
  35   2.0000      -0.695818       -18.9342
  36   2.0000      -0.693081       -18.8597
  37   2.0000      -0.658511       -17.9190
  38   2.0000      -0.641600       -17.4588
  39   2.0000      -0.618426       -16.8282
  40   2.0000      -0.604866       -16.4592
  41   2.0000      -0.563234       -15.3264
  42   2.0000      -0.562039       -15.2939
  43   2.0000      -0.556440       -15.1415
  44   2.0000      -0.554080       -15.0773
  45   2.0000      -0.535897       -14.5825
  46   2.0000      -0.516914       -14.0660
  47   2.0000      -0.511532       -13.9195
  48   2.0000      -0.500989       -13.6326
  49   2.0000      -0.495558       -13.4848
  50   2.0000      -0.488272       -13.2866
  51   2.0000      -0.481881       -13.1126
  52   2.0000      -0.468963       -12.7611
  53   2.0000      -0.462446       -12.5838
  54   2.0000      -0.461149       -12.5485
  55   2.0000      -0.455754       -12.4017
  56   2.0000      -0.449560       -12.2331
  57   2.0000      -0.440382       -11.9834
  58   2.0000      -0.431708       -11.7474
  59   2.0000      -0.427662       -11.6373
  60   2.0000      -0.422460       -11.4957
  61   2.0000      -0.411337       -11.1931
  62   2.0000      -0.409655       -11.1473
  63   2.0000      -0.347090        -9.4448
  64   2.0000      -0.333313        -9.0699
  65   2.0000      -0.328294        -8.9333
  66   2.0000      -0.286738        -7.8025
  67   0.0000       0.034802         0.9470
  68   0.0000       0.065985         1.7955
  69   0.0000       0.119089         3.2406
  70   0.0000       0.122453         3.3321
  71   0.0000       0.129485         3.5235

MULLIKEN ATOMIC CHARGES
-----------------------
   0 S :    0.096214
   1 C :   -0.153878
   2 C :   -0.079138
   3 C :    0.031095
   4 C :   -0.135787
   5 H :    0.003097
   6 C :    0.088462
   7 H :    0.037213
   8 H :    0.013873
   9 C :   -0.094993
  10 H :    0.028829
  11 H :    0.023046
  12 C :   -0.010101
  13 H :    0.017670
  14 H :    0.034247
  15 H :    0.021869
  16 S :    0.138745
  17 C :   -0.088577
  18 C :   -0.011921
  19 C :   -0.067761
  20 C :   -0.166453
  21 H :    0.016055
  22 C :    0.081352
  23 H :    0.026736
  24 H :    0.021061
  25 C :   -0.052996
  26 H :    0.025905
  27 H :    0.017741
  28 C :   -0.070799
  29 H :    0.026276
  30 H :    0.025750
  31 H :    0.054797
  32 H :    0.061273
  33 H :    0.041096
Sum of atomic charges:   -0.0000000

LOEWDIN ATOMIC CHARGES
----------------------
   0 S :    0.408871
   1 C :   -0.202977
   2 C :   -0.063191
   3 C :   -0.051770
   4 C :   -0.203568
   5 H :    0.026078
   6 C :   -0.027393
   7 H :    0.036584
   8 H :    0.026262
   9 C :   -0.045080
  10 H :    0.024007
  11 H :    0.023874
  12 C :   -0.060629
  13 H :    0.024340
  14 H :    0.024853
  15 H :    0.022653
  16 S :    0.454543
  17 C :   -0.196868
  18 C :   -0.067327
  19 C :   -0.058091
  20 C :   -0.214903
  21 H :    0.029280
  22 C :   -0.027119
  23 H :    0.034225
  24 H :    0.023535
  25 C :   -0.043051
  26 H :    0.024648
  27 H :    0.021569
  28 C :   -0.070131
  29 H :    0.020846
  30 H :    0.025914
  31 H :    0.032854
  32 H :    0.032642
  33 H :    0.014521

  Mayer bond orders larger than 0.100000
B(  0-S ,  1-C ) :   1.1337 B(  0-S ,  4-C ) :   1.1634 B(  1-C ,  2-C ) :   1.5969
B(  1-C , 32-H ) :   0.9649 B(  2-C ,  3-C ) :   1.2442 B(  2-C ,  6-C ) :   1.0253
B(  3-C ,  4-C ) :   1.5436 B(  3-C ,  5-H ) :   0.9907 B(  4-C , 20-C ) :   1.0332
B(  6-C ,  7-H ) :   0.9339 B(  6-C ,  8-H ) :   0.9454 B(  6-C ,  9-C ) :   1.0691
B(  9-C , 10-H ) :   0.9570 B(  9-C , 11-H ) :   0.9574 B(  9-C , 12-C ) :   1.0628
B( 12-C , 13-H ) :   0.9718 B( 12-C , 14-H ) :   0.9738 B( 12-C , 15-H ) :   0.9751
B( 16-S , 17-C ) :   1.1907 B( 16-S , 20-C ) :   1.1716 B( 17-C , 18-C ) :   1.5363
B( 17-C , 33-H ) :   0.9792 B( 18-C , 19-C ) :   1.2959 B( 18-C , 21-H ) :   0.9901
B( 19-C , 20-C ) :   1.5676 B( 19-C , 22-C ) :   1.0272 B( 22-C , 23-H ) :   0.9419
B( 22-C , 24-H ) :   0.9257 B( 22-C , 25-C ) :   1.0772 B( 25-C , 26-H ) :   0.9483
B( 25-C , 27-H ) :   0.9472 B( 25-C , 28-C ) :   1.0974 B( 28-C , 29-H ) :   0.9645
B( 28-C , 30-H ) :   0.9678 B( 28-C , 31-H ) :   0.9706

Dispersion correction           -0.015172091
FINAL SINGLE POINT ENERGY     -1339.876192444669

DIPOLE MOMENT
-------------
                                X             Y             Z
Electronic contribution:      6.16677      21.43489     -17.18088
Nuclear contribution   :     -6.16154     -21.93961      17.45252
                        -----------------------------------------
Total Dipole Moment    :      0.00523      -0.50473       0.27164
                        -----------------------------------------
Magnitude (a.u.)       :      0.57320
Magnitude (Debye)      :      1.45697

Rotational constants in cm-1:     0.019461     0.009561     0.007089
Rotational constants in MHz :   583.422144   286.643516   212.536220

                             ****ORCA TERMINATED NORMALLY****
TOTAL RUN TIME: 0 days 0 hours 0 minutes 38 seconds 892 msec
