                         Program Version 4.2.1 -  RELEASE  -
|  1> ! wB97X-D3 SP def2-SVP
|  2> %pal
|  3> nprocs 16
|  4> end
|  5>
|  6> * xyz 0 1
|  7> S 	 43.8911 	 13.1768 	 73.9175
|  8> C 	 42.165 	 12.9225 	 74.4374
|  9> C 	 41.5578 	 14.1798 	 74.4537
| 10> C 	 42.4653 	 15.2211 	 74.3507
| 11> C 	 43.8092 	 14.9128 	 74.1274
| 12> H 	 42.1554 	 16.251 	 74.4606
| 13> C 	 40.0384 	 14.4284 	 74.7941
| 14> H 	 39.3789 	 13.6079 	 74.6152
| 15> H 	 39.6408 	 15.2166 	 74.1372
| 16> C 	 39.7642 	 14.7314 	 76.2586
| 17> H 	 40.1727 	 14.0046 	 76.9801
| 18> H 	 40.1723 	 15.6939 	 76.5808
| 19> C 	 38.2667 	 14.7881 	 76.6381
| 20> H 	 38.1701 	 14.6316 	 77.7309
| 21> H 	 37.7904 	 15.7789 	 76.3883
| 22> H 	 37.713 	 13.9968 	 76.2037
| 23> S 	 46.0654 	 15.5135 	 72.6345
| 24> C 	 47.1808 	 16.6977 	 73.3691
| 25> C 	 46.532 	 17.3714 	 74.3874
| 26> C 	 45.2652 	 16.8729 	 74.7844
| 27> C 	 44.9116 	 15.8105 	 74.0102
| 28> H 	 47.0312 	 18.2362 	 74.8762
| 29> C 	 44.5143 	 17.4296 	 75.976
| 30> H 	 43.5494 	 17.8528 	 75.6386
| 31> H 	 45.0834 	 18.2536 	 76.3766
| 32> C 	 44.3254 	 16.5132 	 77.1785
| 33> H 	 45.1729 	 16.0987 	 77.5291
| 34> H 	 43.7989 	 15.6076 	 76.8372
| 35> C 	 43.5647 	 17.1984 	 78.3403
| 36> H 	 44.3023 	 17.5545 	 79.0699
| 37> H 	 42.9364 	 16.5496 	 78.8336
| 38> H 	 42.9563 	 18.0358 	 77.8775
| 39> H 	 41.6648 	 12.0067 	 74.5728
| 40> H 	 48.1035 	 16.9594 	 73.0047
| 41> *
| 42>
| 43>                          ****END OF INPUT****

CARTESIAN COORDINATES (ANGSTROEM)
---------------------------------
  S     43.891100   13.176800   73.917500
  C     42.165000   12.922500   74.437400
  C     41.557800   14.179800   74.453700
  C     42.465300   15.221100   74.350700
  C     43.809200   14.912800   74.127400
  H     42.155400   16.251000   74.460600
  C     40.038400   14.428400   74.794100
  H     39.378900   13.607900   74.615200
  H     39.640800   15.216600   74.137200
  C     39.764200   14.731400   76.258600
  H     40.172700   14.004600   76.980100
  H     40.172300   15.693900   76.580800
  C     38.266700   14.788100   76.638100
  H     38.170100   14.631600   77.730900
  H     37.790400   15.778900   76.388300
  H     37.713000   13.996800   76.203700
  S     46.065400   15.513500   72.634500
  C     47.180800   16.697700   73.369100
  C     46.532000   17.371400   74.387400
  C     45.265200   16.872900   74.784400
  C     44.911600   15.810500   74.010200
  H     47.031200   18.236200   74.876200
  C     44.514300   17.429600   75.976000
  H     43.549400   17.852800   75.638600
  H     45.083400   18.253600   76.376600
  C     44.325400   16.513200   77.178500
  H     45.172900   16.098700   77.529100
  H     43.798900   15.607600   76.837200
  C     43.564700   17.198400   78.340300
  H     44.302300   17.554500   79.069900
  H     42.936400   16.549600   78.833600
  H     42.956300   18.035800   77.877500
  H     41.664800   12.006700   74.572800
  H     48.103500   16.959400   73.004700

 Total Charge           Charge          ....    0
 Multiplicity           Mult            ....    1
 Number of Electrons    NEL             ....  134
 Basis Dimension        Dim             ....  322

ORBITAL ENERGIES
----------------

  NO   OCC          E(Eh)            E(eV)
   0   2.0000     -88.967524     -2420.9294
   1   2.0000     -88.966497     -2420.9015
   2   2.0000     -10.330617      -281.1104
   3   2.0000     -10.329841      -281.0893
   4   2.0000     -10.319836      -280.8170
   5   2.0000     -10.316037      -280.7136
   6   2.0000     -10.305337      -280.4225
   7   2.0000     -10.302692      -280.3505
   8   2.0000     -10.297822      -280.2180
   9   2.0000     -10.296802      -280.1902
  10   2.0000     -10.294504      -280.1277
  11   2.0000     -10.290769      -280.0261
  12   2.0000     -10.288136      -279.9544
  13   2.0000     -10.281569      -279.7757
  14   2.0000     -10.276736      -279.6442
  15   2.0000     -10.272876      -279.5392
  16   2.0000      -8.080897      -219.8924
  17   2.0000      -8.079823      -219.8632
  18   2.0000      -6.039494      -164.3430
  19   2.0000      -6.038495      -164.3158
  20   2.0000      -6.035561      -164.2360
  21   2.0000      -6.034739      -164.2136
  22   2.0000      -6.031633      -164.1291
  23   2.0000      -6.030286      -164.0924
  24   2.0000      -1.004327       -27.3291
  25   2.0000      -0.979584       -26.6558
  26   2.0000      -0.910637       -24.7797
  27   2.0000      -0.909908       -24.7599
  28   2.0000      -0.871443       -23.7132
  29   2.0000      -0.853247       -23.2180
  30   2.0000      -0.841298       -22.8929
  31   2.0000      -0.810566       -22.0566
  32   2.0000      -0.784628       -21.3508
  33   2.0000      -0.776741       -21.1362
  34   2.0000      -0.716784       -19.5047
  35   2.0000      -0.700709       -19.0673
  36   2.0000      -0.696974       -18.9656
  37   2.0000      -0.665067       -18.0974
  38   2.0000      -0.644511       -17.5380
  39   2.0000      -0.622022       -16.9261
  40   2.0000      -0.601522       -16.3682
  41   2.0000      -0.566541       -15.4164
  42   2.0000      -0.565422       -15.3859
  43   2.0000      -0.559991       -15.2381
  44   2.0000      -0.528159       -14.3719
  45   2.0000      -0.527006       -14.3406
  46   2.0000      -0.518096       -14.0981
  47   2.0000      -0.514392       -13.9973
  48   2.0000      -0.506411       -13.7801
  49   2.0000      -0.499164       -13.5830
  50   2.0000      -0.492152       -13.3921
  51   2.0000      -0.486172       -13.2294
  52   2.0000      -0.471569       -12.8321
  53   2.0000      -0.469504       -12.7759
  54   2.0000      -0.456646       -12.4260
  55   2.0000      -0.445212       -12.1148
  56   2.0000      -0.442823       -12.0498
  57   2.0000      -0.438944       -11.9443
  58   2.0000      -0.434836       -11.8325
  59   2.0000      -0.425026       -11.5656
  60   2.0000      -0.423767       -11.5313
  61   2.0000      -0.411419       -11.1953
  62   2.0000      -0.407675       -11.0934
  63   2.0000      -0.348702        -9.4887
  64   2.0000      -0.334375        -9.0988
  65   2.0000      -0.333233        -9.0677
  66   2.0000      -0.286830        -7.8051
  67   0.0000       0.016806         0.4573
  68   0.0000       0.065989         1.7957
  69   0.0000       0.097189         2.6447
  70   0.0000       0.116773         3.1776
  71   0.0000       0.130729         3.5573

MULLIKEN ATOMIC CHARGES
-----------------------
   0 S :    0.103809
   1 C :   -0.117895
   2 C :   -0.048080
   3 C :    0.017444
   4 C :   -0.144451
   5 H :   -0.000589
   6 C :    0.080860
   7 H :    0.005197
   8 H :    0.033998
   9 C :   -0.083449
  10 H :    0.032615
  11 H :    0.022357
  12 C :   -0.069650
  13 H :    0.035560
  14 H :    0.042480
  15 H :    0.021023
  16 S :    0.094282
  17 C :   -0.051964
  18 C :   -0.050109
  19 C :   -0.011159
  20 C :   -0.161245
  21 H :    0.027506
  22 C :    0.068697
  23 H :    0.036604
  24 H :    0.007838
  25 C :   -0.045710
  26 H :   -0.003911
  27 H :    0.036321
  28 C :   -0.028431
  29 H :    0.038536
  30 H :    0.018037
  31 H :    0.033801
  32 H :    0.035673
  33 H :    0.024009
Sum of atomic charges:    0.0000000

LOEWDIN ATOMIC CHARGES
----------------------
   0 S :    0.387777
   1 C :   -0.168434
   2 C :   -0.058971
   3 C :   -0.066850
   4 C :   -0.194951
   5 H :    0.026952
   6 C :   -0.028137
   7 H :    0.023998
   8 H :    0.035002
   9 C :   -0.045849
  10 H :    0.027886
  11 H :    0.020650
  12 C :   -0.068488
  13 H :    0.030956
  14 H :    0.029065
  15 H :    0.014716
  16 S :    0.358994
  17 C :   -0.158143
  18 C :   -0.066667
  19 C :   -0.056245
  20 C :   -0.166317
  21 H :    0.035760
  22 C :   -0.027151
  23 H :    0.031986
  24 H :    0.027822
  25 C :   -0.034778
  26 H :    0.008646
  27 H :    0.027650
  28 C :   -0.056160
  29 H :    0.029207
  30 H :    0.014794
  31 H :    0.031728
  32 H :    0.021306
  33 H :    0.012248

  Mayer bond orders larger than 0.100000
B(  0-S ,  1-C ) :   1.1374 B(  0-S ,  4-C ) :   1.1431 B(  1-C ,  2-C ) :   1.5644
B(  1-C ,  4-C ) :   0.1174 B(  1-C , 32-H ) :   0.9805 B(  2-C ,  3-C ) :   1.2835
B(  2-C ,  6-C ) :   1.0232 B(  3-C ,  4-C ) :   1.5166 B(  3-C ,  5-H ) :   0.9989
B(  4-C , 20-C ) :   1.1000 B(  6-C ,  7-H ) :   0.9436 B(  6-C ,  8-H ) :   0.9421
B(  6-C ,  9-C ) :   1.0614 B(  9-C , 10-H ) :   0.9597 B(  9-C , 11-H ) :   0.9545
B(  9-C , 12-C ) :   1.0806 B( 12-C , 13-H ) :   0.9768 B( 12-C , 14-H ) :   0.9771
B( 12-C , 15-H ) :   0.9746 B( 16-S , 17-C ) :   1.1214 B( 16-S , 20-C ) :   1.1169
B( 17-C , 18-C ) :   1.6348 B( 17-C , 33-H ) :   0.9783 B( 18-C , 19-C ) :   1.2309
B( 18-C , 21-H ) :   0.9774 B( 19-C , 20-C ) :   1.6166 B( 19-C , 22-C ) :   1.0419
B( 22-C , 23-H ) :   0.9241 B( 22-C , 24-H ) :   0.9296 B( 22-C , 25-C ) :   1.0704
B( 25-C , 26-H ) :   0.9515 B( 25-C , 27-H ) :   0.9542 B( 25-C , 28-C ) :   1.0721
B( 28-C , 29-H ) :   0.9775 B( 28-C , 30-H ) :   0.9742 B( 28-C , 31-H ) :   0.9765

Dispersion correction           -0.014631100
FINAL SINGLE POINT ENERGY     -1339.861285420003

DIPOLE MOMENT
-------------
                                X             Y             Z
Electronic contribution:     22.49992      -9.38985     -23.36273
Nuclear contribution   :    -22.91113       9.75179      23.92149
                        -----------------------------------------
Total Dipole Moment    :     -0.41121       0.36195       0.55876
                        -----------------------------------------
Magnitude (a.u.)       :      0.78250
Magnitude (Debye)      :      1.98897

Rotational constants in cm-1:     0.019525     0.008962     0.006736
Rotational constants in MHz :   585.358172   268.684484   201.946029

                             ****ORCA TERMINATED NORMALLY****
TOTAL RUN TIME: 0 days 0 hours 0 minutes 29 seconds 536 msec
