                         Program Version 4.2.1 -  RELEASE  -
|  1> ! wB97X-D3 SP def2-SVP
|  2> %pal
|  3> nprocs 16
|  4> end
|  5>
|  6> * xyz 0 1
|  7> S 	 -9.09846 	 -9.5879 	 77.9463
|  8> C 	 -8.75117 	 -11.1144 	 77.096
|  9> C 	 -9.65924 	 -11.3616 	 76.0528
| 10> C 	 -10.5083 	 -10.2168 	 75.8801
| 11> C 	 -10.2717 	 -9.10048 	 76.6919
| 12> H 	 -11.2206 	 -10.0651 	 75.0442
| 13> C 	 -9.77172 	 -12.7045 	 75.3108
| 14> H 	 -10.1115 	 -12.4506 	 74.2592
| 15> H 	 -10.6729 	 -13.1815 	 75.7931
| 16> C 	 -8.5704 	 -13.6409 	 75.1897
| 17> H 	 -7.63858 	 -13.1677 	 74.8425
| 18> H 	 -8.42191 	 -14.0348 	 76.29
| 19> C 	 -8.93729 	 -14.8494 	 74.315
| 20> H 	 -8.92043 	 -14.6056 	 73.2759
| 21> H 	 -8.21748 	 -15.7107 	 74.4784
| 22> H 	 -9.87577 	 -15.171 	 74.8589
| 23> S 	 -11.4661 	 -7.10795 	 78.2683
| 24> C 	 -12.2809 	 -5.74882 	 77.4927
| 25> C 	 -12.1549 	 -5.75981 	 76.1297
| 26> C 	 -11.4953 	 -6.96203 	 75.7453
| 27> C 	 -10.9949 	 -7.77036 	 76.7364
| 28> H 	 -12.6102 	 -5.0297 	 75.5013
| 29> C 	 -11.2795 	 -7.13924 	 74.2879
| 30> H 	 -10.4592 	 -7.85676 	 74.1767
| 31> H 	 -10.9499 	 -6.16033 	 73.77
| 32> C 	 -12.5098 	 -7.62578 	 73.5542
| 33> H 	 -13.2143 	 -6.8553 	 73.6261
| 34> H 	 -12.9309 	 -8.42846 	 74.1424
| 35> C 	 -12.3079 	 -7.8815 	 72.0543
| 36> H 	 -11.484 	 -8.62873 	 71.9675
| 37> H 	 -11.9837 	 -7.01666 	 71.6202
| 38> H 	 -13.1968 	 -8.13221 	 71.5392
| 39> H 	 -7.92297 	 -11.7778 	 77.3107
| 40> H 	 -12.795 	 -4.95507 	 77.9609
| 41> *
| 42>
| 43>                          ****END OF INPUT****

CARTESIAN COORDINATES (ANGSTROEM)
---------------------------------
  S     -9.098460   -9.587900   77.946300
  C     -8.751170  -11.114400   77.096000
  C     -9.659240  -11.361600   76.052800
  C    -10.508300  -10.216800   75.880100
  C    -10.271700   -9.100480   76.691900
  H    -11.220600  -10.065100   75.044200
  C     -9.771720  -12.704500   75.310800
  H    -10.111500  -12.450600   74.259200
  H    -10.672900  -13.181500   75.793100
  C     -8.570400  -13.640900   75.189700
  H     -7.638580  -13.167700   74.842500
  H     -8.421910  -14.034800   76.290000
  C     -8.937290  -14.849400   74.315000
  H     -8.920430  -14.605600   73.275900
  H     -8.217480  -15.710700   74.478400
  H     -9.875770  -15.171000   74.858900
  S    -11.466100   -7.107950   78.268300
  C    -12.280900   -5.748820   77.492700
  C    -12.154900   -5.759810   76.129700
  C    -11.495300   -6.962030   75.745300
  C    -10.994900   -7.770360   76.736400
  H    -12.610200   -5.029700   75.501300
  C    -11.279500   -7.139240   74.287900
  H    -10.459200   -7.856760   74.176700
  H    -10.949900   -6.160330   73.770000
  C    -12.509800   -7.625780   73.554200
  H    -13.214300   -6.855300   73.626100
  H    -12.930900   -8.428460   74.142400
  C    -12.307900   -7.881500   72.054300
  H    -11.484000   -8.628730   71.967500
  H    -11.983700   -7.016660   71.620200
  H    -13.196800   -8.132210   71.539200
  H     -7.922970  -11.777800   77.310700
  H    -12.795000   -4.955070   77.960900

 Total Charge           Charge          ....    0
 Multiplicity           Mult            ....    1
 Number of Electrons    NEL             ....  134
 Basis Dimension        Dim             ....  322

ORBITAL ENERGIES
----------------

  NO   OCC          E(Eh)            E(eV)
   0   2.0000     -88.967542     -2420.9299
   1   2.0000     -88.967236     -2420.9216
   2   2.0000     -10.342148      -281.4242
   3   2.0000     -10.332334      -281.1571
   4   2.0000     -10.318916      -280.7920
   5   2.0000     -10.316312      -280.7211
   6   2.0000     -10.310298      -280.5575
   7   2.0000     -10.307469      -280.4805
   8   2.0000     -10.302816      -280.3539
   9   2.0000     -10.302566      -280.3471
  10   2.0000     -10.297900      -280.2201
  11   2.0000     -10.291645      -280.0499
  12   2.0000     -10.290479      -280.0182
  13   2.0000     -10.287829      -279.9461
  14   2.0000     -10.276473      -279.6371
  15   2.0000     -10.271390      -279.4987
  16   2.0000      -8.082013      -219.9227
  17   2.0000      -8.081071      -219.8971
  18   2.0000      -6.040633      -164.3740
  19   2.0000      -6.039740      -164.3497
  20   2.0000      -6.036509      -164.2618
  21   2.0000      -6.035808      -164.2427
  22   2.0000      -6.032657      -164.1570
  23   2.0000      -6.031680      -164.1303
  24   2.0000      -1.005828       -27.3700
  25   2.0000      -0.980654       -26.6849
  26   2.0000      -0.915302       -24.9066
  27   2.0000      -0.911954       -24.8155
  28   2.0000      -0.868929       -23.6448
  29   2.0000      -0.853322       -23.2201
  30   2.0000      -0.845533       -23.0081
  31   2.0000      -0.817090       -22.2342
  32   2.0000      -0.779487       -21.2109
  33   2.0000      -0.770051       -20.9541
  34   2.0000      -0.706209       -19.2169
  35   2.0000      -0.700918       -19.0730
  36   2.0000      -0.690472       -18.7887
  37   2.0000      -0.667824       -18.1724
  38   2.0000      -0.635750       -17.2996
  39   2.0000      -0.613140       -16.6844
  40   2.0000      -0.596517       -16.2321
  41   2.0000      -0.579994       -15.7824
  42   2.0000      -0.571278       -15.5453
  43   2.0000      -0.567529       -15.4433
  44   2.0000      -0.529669       -14.4130
  45   2.0000      -0.525454       -14.2983
  46   2.0000      -0.518202       -14.1010
  47   2.0000      -0.512477       -13.9452
  48   2.0000      -0.507190       -13.8013
  49   2.0000      -0.501425       -13.6445
  50   2.0000      -0.492330       -13.3970
  51   2.0000      -0.478213       -13.0128
  52   2.0000      -0.471397       -12.8274
  53   2.0000      -0.462387       -12.5822
  54   2.0000      -0.460485       -12.5304
  55   2.0000      -0.450196       -12.2505
  56   2.0000      -0.442809       -12.0494
  57   2.0000      -0.436385       -11.8746
  58   2.0000      -0.434453       -11.8221
  59   2.0000      -0.424931       -11.5630
  60   2.0000      -0.419491       -11.4149
  61   2.0000      -0.412564       -11.2264
  62   2.0000      -0.411929       -11.2091
  63   2.0000      -0.354178        -9.6377
  64   2.0000      -0.332529        -9.0486
  65   2.0000      -0.328085        -8.9277
  66   2.0000      -0.289890        -7.8883
  67   0.0000       0.026615         0.7242
  68   0.0000       0.069828         1.9001
  69   0.0000       0.103574         2.8184
  70   0.0000       0.120016         3.2658
  71   0.0000       0.127420         3.4673

MULLIKEN ATOMIC CHARGES
-----------------------
   0 S :    0.095104
   1 C :   -0.126620
   2 C :   -0.076337
   3 C :    0.019714
   4 C :   -0.146187
   5 H :    0.017041
   6 C :    0.014428
   7 H :    0.029677
   8 H :    0.060799
   9 C :   -0.119440
  10 H :    0.046137
  11 H :    0.043291
  12 C :   -0.054297
  13 H :    0.048630
  14 H :    0.042294
  15 H :    0.040200
  16 S :    0.098731
  17 C :   -0.064497
  18 C :   -0.011536
  19 C :   -0.066630
  20 C :   -0.098391
  21 H :    0.018547
  22 C :   -0.003300
  23 H :    0.020355
  24 H :    0.033559
  25 C :   -0.067644
  26 H :   -0.001436
  27 H :    0.023659
  28 C :    0.034972
  29 H :    0.028123
  30 H :   -0.001159
  31 H :    0.029753
  32 H :    0.054771
  33 H :    0.037688
Sum of atomic charges:   -0.0000000

LOEWDIN ATOMIC CHARGES
----------------------
   0 S :    0.375539
   1 C :   -0.188535
   2 C :   -0.063646
   3 C :   -0.070050
   4 C :   -0.177172
   5 H :    0.033221
   6 C :   -0.043101
   7 H :    0.032116
   8 H :    0.045019
   9 C :   -0.052919
  10 H :    0.025063
  11 H :    0.033165
  12 C :   -0.067958
  13 H :    0.023243
  14 H :    0.033158
  15 H :    0.037202
  16 S :    0.404415
  17 C :   -0.164838
  18 C :   -0.061710
  19 C :   -0.062521
  20 C :   -0.202260
  21 H :    0.032339
  22 C :   -0.038255
  23 H :    0.023062
  24 H :    0.035668
  25 C :   -0.038936
  26 H :    0.012701
  27 H :    0.019322
  28 C :   -0.049238
  29 H :    0.029575
  30 H :    0.012735
  31 H :    0.023785
  32 H :    0.027736
  33 H :    0.022075

  Mayer bond orders larger than 0.100000
B(  0-S ,  1-C ) :   1.1316 B(  0-S ,  4-C ) :   1.1391 B(  1-C ,  2-C ) :   1.6112
B(  1-C ,  4-C ) :   0.1033 B(  1-C , 32-H ) :   0.9646 B(  2-C ,  3-C ) :   1.2476
B(  2-C ,  6-C ) :   1.0060 B(  3-C ,  4-C ) :   1.5823 B(  3-C ,  5-H ) :   0.9817
B(  4-C , 20-C ) :   1.0191 B(  6-C ,  7-H ) :   0.9442 B(  6-C ,  8-H ) :   0.9324
B(  6-C ,  9-C ) :   1.0617 B(  9-C , 10-H ) :   0.9597 B(  9-C , 11-H ) :   0.9473
B(  9-C , 12-C ) :   1.0719 B( 12-C , 13-H ) :   0.9767 B( 12-C , 14-H ) :   0.9743
B( 12-C , 15-H ) :   0.9727 B( 16-S , 17-C ) :   1.1568 B( 16-S , 20-C ) :   1.1159
B( 17-C , 18-C ) :   1.6155 B( 17-C , 33-H ) :   0.9677 B( 18-C , 19-C ) :   1.2307
B( 18-C , 21-H ) :   0.9956 B( 19-C , 20-C ) :   1.6235 B( 19-C , 22-C ) :   1.0588
B( 22-C , 23-H ) :   0.9365 B( 22-C , 24-H ) :   0.9382 B( 22-C , 25-C ) :   1.0558
B( 25-C , 26-H ) :   0.9493 B( 25-C , 27-H ) :   0.9518 B( 25-C , 28-C ) :   1.0816
B( 28-C , 29-H ) :   0.9754 B( 28-C , 30-H ) :   0.9658 B( 28-C , 31-H ) :   0.9730

Dispersion correction           -0.013573308
FINAL SINGLE POINT ENERGY     -1339.860902031465

DIPOLE MOMENT
-------------
                                X             Y             Z
Electronic contribution:      1.88436      16.36773      26.46776
Nuclear contribution   :     -2.09476     -16.58247     -27.15264
                        -----------------------------------------
Total Dipole Moment    :     -0.21040      -0.21474      -0.68488
                        -----------------------------------------
Magnitude (a.u.)       :      0.74796
Magnitude (Debye)      :      1.90115

Rotational constants in cm-1:     0.019067     0.007844     0.005776
Rotational constants in MHz :   571.628523   235.147312   173.165715

                             ****ORCA TERMINATED NORMALLY****
TOTAL RUN TIME: 0 days 0 hours 0 minutes 32 seconds 717 msec
