                         Program Version 4.2.1 -  RELEASE  -
|  1> ! wB97X-D3 SP def2-SVP
|  2> %pal
|  3> nprocs 16
|  4> end
|  5>
|  6> * xyz 0 1
|  7> S 	 -3.01888 	 34.1478 	 36.5125
|  8> C 	 -2.77941 	 33.1768 	 35.1254
|  9> C 	 -1.88127 	 32.1635 	 35.3023
| 10> C 	 -1.3041 	 32.2063 	 36.62
| 11> C 	 -1.76707 	 33.306 	 37.3866
| 12> H 	 -0.673249 	 31.4973 	 37.0944
| 13> C 	 -1.62953 	 30.9823 	 34.3909
| 14> H 	 -0.626906 	 30.5487 	 34.5209
| 15> H 	 -1.54085 	 31.4155 	 33.3736
| 16> C 	 -2.73642 	 29.8894 	 34.4676
| 17> H 	 -3.03856 	 29.6114 	 35.4907
| 18> H 	 -3.59783 	 30.299 	 34.0077
| 19> C 	 -2.4187 	 28.5108 	 33.7872
| 20> H 	 -1.42918 	 28.1443 	 34.2466
| 21> H 	 -3.19206 	 27.8058 	 33.8735
| 22> H 	 -2.20669 	 28.7814 	 32.795
| 23> S 	 -2.79729 	 33.1597 	 39.8783
| 24> C 	 -1.77375 	 33.2874 	 41.304
| 25> C 	 -0.452579 	 33.468 	 40.9945
| 26> C 	 -0.22572 	 33.449 	 39.5459
| 27> C 	 -1.43679 	 33.3675 	 38.8135
| 28> H 	 0.252842 	 33.641 	 41.8151
| 29> C 	 1.20254 	 33.4031 	 39.0511
| 30> H 	 1.1909 	 34.0659 	 38.1963
| 31> H 	 1.53099 	 32.4208 	 38.5615
| 32> C 	 2.38043 	 34.0031 	 39.88
| 33> H 	 2.55157 	 33.4002 	 40.8248
| 34> H 	 2.16268 	 35.021 	 40.0933
| 35> C 	 3.75917 	 33.8512 	 39.1532
| 36> H 	 3.70577 	 34.4688 	 38.2028
| 37> H 	 3.94986 	 32.8252 	 38.9736
| 38> H 	 4.58907 	 34.181 	 39.7641
| 39> H 	 -3.48173 	 33.2609 	 34.3338
| 40> H 	 -2.10617 	 33.3293 	 42.2687
| 41> *
| 42>
| 43>                          ****END OF INPUT****

CARTESIAN COORDINATES (ANGSTROEM)
---------------------------------
  S     -3.018880   34.147800   36.512500
  C     -2.779410   33.176800   35.125400
  C     -1.881270   32.163500   35.302300
  C     -1.304100   32.206300   36.620000
  C     -1.767070   33.306000   37.386600
  H     -0.673249   31.497300   37.094400
  C     -1.629530   30.982300   34.390900
  H     -0.626906   30.548700   34.520900
  H     -1.540850   31.415500   33.373600
  C     -2.736420   29.889400   34.467600
  H     -3.038560   29.611400   35.490700
  H     -3.597830   30.299000   34.007700
  C     -2.418700   28.510800   33.787200
  H     -1.429180   28.144300   34.246600
  H     -3.192060   27.805800   33.873500
  H     -2.206690   28.781400   32.795000
  S     -2.797290   33.159700   39.878300
  C     -1.773750   33.287400   41.304000
  C     -0.452579   33.468000   40.994500
  C     -0.225720   33.449000   39.545900
  C     -1.436790   33.367500   38.813500
  H      0.252842   33.641000   41.815100
  C      1.202540   33.403100   39.051100
  H      1.190900   34.065900   38.196300
  H      1.530990   32.420800   38.561500
  C      2.380430   34.003100   39.880000
  H      2.551570   33.400200   40.824800
  H      2.162680   35.021000   40.093300
  C      3.759170   33.851200   39.153200
  H      3.705770   34.468800   38.202800
  H      3.949860   32.825200   38.973600
  H      4.589070   34.181000   39.764100
  H     -3.481730   33.260900   34.333800
  H     -2.106170   33.329300   42.268700

 Total Charge           Charge          ....    0
 Multiplicity           Mult            ....    1
 Number of Electrons    NEL             ....  134
 Basis Dimension        Dim             ....  322

ORBITAL ENERGIES
----------------

  NO   OCC          E(Eh)            E(eV)
   0   2.0000     -88.970777     -2421.0179
   1   2.0000     -88.962774     -2420.8002
   2   2.0000     -10.330142      -281.0975
   3   2.0000     -10.329771      -281.0873
   4   2.0000     -10.311275      -280.5841
   5   2.0000     -10.310324      -280.5582
   6   2.0000     -10.307250      -280.4745
   7   2.0000     -10.302352      -280.3412
   8   2.0000     -10.298514      -280.2368
   9   2.0000     -10.294900      -280.1385
  10   2.0000     -10.294288      -280.1218
  11   2.0000     -10.293755      -280.1073
  12   2.0000     -10.292870      -280.0832
  13   2.0000     -10.287255      -279.9304
  14   2.0000     -10.281745      -279.7805
  15   2.0000     -10.279046      -279.7071
  16   2.0000      -8.086025      -220.0319
  17   2.0000      -8.077650      -219.8040
  18   2.0000      -6.044475      -164.4785
  19   2.0000      -6.040382      -164.3672
  20   2.0000      -6.036895      -164.2723
  21   2.0000      -6.036231      -164.2542
  22   2.0000      -6.032117      -164.1423
  23   2.0000      -6.028355      -164.0399
  24   2.0000      -1.006360       -27.3845
  25   2.0000      -0.982526       -26.7359
  26   2.0000      -0.907598       -24.6970
  27   2.0000      -0.902179       -24.5495
  28   2.0000      -0.870834       -23.6966
  29   2.0000      -0.852395       -23.1948
  30   2.0000      -0.844486       -22.9796
  31   2.0000      -0.814232       -22.1564
  32   2.0000      -0.780276       -21.2324
  33   2.0000      -0.769027       -20.9263
  34   2.0000      -0.704214       -19.1626
  35   2.0000      -0.702192       -19.1076
  36   2.0000      -0.695576       -18.9276
  37   2.0000      -0.657070       -17.8798
  38   2.0000      -0.645737       -17.5714
  39   2.0000      -0.615003       -16.7351
  40   2.0000      -0.595681       -16.2093
  41   2.0000      -0.571110       -15.5407
  42   2.0000      -0.568129       -15.4596
  43   2.0000      -0.557271       -15.1641
  44   2.0000      -0.533803       -14.5255
  45   2.0000      -0.518592       -14.1116
  46   2.0000      -0.515187       -14.0189
  47   2.0000      -0.511718       -13.9246
  48   2.0000      -0.506764       -13.7898
  49   2.0000      -0.498380       -13.5616
  50   2.0000      -0.496552       -13.5119
  51   2.0000      -0.474379       -12.9085
  52   2.0000      -0.469844       -12.7851
  53   2.0000      -0.459272       -12.4974
  54   2.0000      -0.456568       -12.4238
  55   2.0000      -0.452445       -12.3117
  56   2.0000      -0.447017       -12.1639
  57   2.0000      -0.440203       -11.9785
  58   2.0000      -0.437115       -11.8945
  59   2.0000      -0.426529       -11.6064
  60   2.0000      -0.423025       -11.5111
  61   2.0000      -0.413303       -11.2465
  62   2.0000      -0.405693       -11.0395
  63   2.0000      -0.345171        -9.3926
  64   2.0000      -0.330909        -9.0045
  65   2.0000      -0.323700        -8.8083
  66   2.0000      -0.293770        -7.9939
  67   0.0000       0.030433         0.8281
  68   0.0000       0.070015         1.9052
  69   0.0000       0.117532         3.1982
  70   0.0000       0.123854         3.3702
  71   0.0000       0.128451         3.4953

MULLIKEN ATOMIC CHARGES
-----------------------
   0 S :    0.129047
   1 C :   -0.123134
   2 C :   -0.052698
   3 C :    0.023625
   4 C :   -0.155907
   5 H :    0.009859
   6 C :    0.058643
   7 H :    0.019777
   8 H :    0.029627
   9 C :   -0.076956
  10 H :    0.034650
  11 H :    0.015802
  12 C :   -0.029981
  13 H :    0.035833
  14 H :    0.039290
  15 H :    0.018174
  16 S :    0.100733
  17 C :   -0.048071
  18 C :   -0.052551
  19 C :   -0.012749
  20 C :   -0.166579
  21 H :    0.033048
  22 C :    0.020015
  23 H :    0.020333
  24 H :    0.045420
  25 C :   -0.102028
  26 H :    0.037273
  27 H :    0.034582
  28 C :   -0.046486
  29 H :    0.041960
  30 H :    0.026324
  31 H :    0.035386
  32 H :    0.040968
  33 H :    0.016772
Sum of atomic charges:   -0.0000000

LOEWDIN ATOMIC CHARGES
----------------------
   0 S :    0.433223
   1 C :   -0.201504
   2 C :   -0.063170
   3 C :   -0.044176
   4 C :   -0.213538
   5 H :    0.026215
   6 C :   -0.034577
   7 H :    0.028415
   8 H :    0.034918
   9 C :   -0.036623
  10 H :    0.025582
  11 H :    0.015656
  12 C :   -0.056574
  13 H :    0.032701
  14 H :    0.020434
  15 H :    0.015645
  16 S :    0.404579
  17 C :   -0.170976
  18 C :   -0.070447
  19 C :   -0.056208
  20 C :   -0.199390
  21 H :    0.037498
  22 C :   -0.049380
  23 H :    0.032328
  24 H :    0.038076
  25 C :   -0.038970
  26 H :    0.025093
  27 H :    0.019500
  28 C :   -0.061174
  29 H :    0.031402
  30 H :    0.018934
  31 H :    0.026372
  32 H :    0.020737
  33 H :    0.009401

  Mayer bond orders larger than 0.100000
B(  0-S ,  1-C ) :   1.1583 B(  0-S ,  4-C ) :   1.1645 B(  1-C ,  2-C ) :   1.5879
B(  1-C , 32-H ) :   0.9723 B(  2-C ,  3-C ) :   1.2606 B(  2-C ,  6-C ) :   1.0313
B(  3-C ,  4-C ) :   1.5372 B(  3-C ,  5-H ) :   0.9985 B(  4-C , 20-C ) :   1.0465
B(  6-C ,  7-H ) :   0.9456 B(  6-C ,  8-H ) :   0.9356 B(  6-C ,  9-C ) :   1.0463
B(  9-C , 10-H ) :   0.9643 B(  9-C , 11-H ) :   0.9554 B(  9-C , 12-C ) :   1.0762
B( 12-C , 13-H ) :   0.9772 B( 12-C , 14-H ) :   0.9768 B( 12-C , 15-H ) :   0.9771
B( 16-S , 17-C ) :   1.1429 B( 16-S , 20-C ) :   1.1476 B( 17-C , 18-C ) :   1.6419
B( 17-C , 33-H ) :   0.9719 B( 18-C , 19-C ) :   1.2178 B( 18-C , 21-H ) :   0.9845
B( 19-C , 20-C ) :   1.6004 B( 19-C , 22-C ) :   1.0342 B( 22-C , 23-H ) :   0.9263
B( 22-C , 24-H ) :   0.9369 B( 22-C , 25-C ) :   1.0689 B( 25-C , 26-H ) :   0.9484
B( 25-C , 27-H ) :   0.9592 B( 25-C , 28-C ) :   1.0822 B( 28-C , 29-H ) :   0.9755
B( 28-C , 30-H ) :   0.9756 B( 28-C , 31-H ) :   0.9742

Dispersion correction           -0.013289379
FINAL SINGLE POINT ENERGY     -1339.863692407315

DIPOLE MOMENT
-------------
                                X             Y             Z
Electronic contribution:    -19.58398      13.66223       9.27993
Nuclear contribution   :     19.92432     -14.04072      -9.41372
                        -----------------------------------------
Total Dipole Moment    :      0.34034      -0.37849      -0.13379
                        -----------------------------------------
Magnitude (a.u.)       :      0.52629
Magnitude (Debye)      :      1.33773

Rotational constants in cm-1:     0.017444     0.007395     0.006237
Rotational constants in MHz :   522.964608   221.681763   186.989167

                             ****ORCA TERMINATED NORMALLY****
TOTAL RUN TIME: 0 days 0 hours 0 minutes 32 seconds 821 msec
