                         Program Version 4.2.1 -  RELEASE  -
|  1> ! wB97X-D3 SP def2-SVP
|  2> %pal
|  3> nprocs 16
|  4> end
|  5>
|  6> * xyz 0 1
|  7> S 	 38.2144 	 26.0551 	 48.2477
|  8> C 	 39.6514 	 26.9015 	 48.8475
|  9> C 	 40.5309 	 26.0283 	 49.4869
| 10> C 	 40.0634 	 24.6758 	 49.4768
| 11> C 	 38.8618 	 24.4962 	 48.7295
| 12> H 	 40.4283 	 23.7801 	 49.94
| 13> C 	 41.8405 	 26.4284 	 50.1189
| 14> H 	 42.4356 	 25.6109 	 50.4863
| 15> H 	 41.495 	 27.0134 	 51.0189
| 16> C 	 42.7031 	 27.3081 	 49.2201
| 17> H 	 43.2038 	 26.6635 	 48.487
| 18> H 	 42.1511 	 28.1116 	 48.7087
| 19> C 	 43.8664 	 28.0059 	 50.0062
| 20> H 	 43.5178 	 28.7816 	 50.7435
| 21> H 	 44.3959 	 27.2312 	 50.5563
| 22> H 	 44.5801 	 28.5693 	 49.3939
| 23> S 	 39.0511 	 22.2612 	 47.1191
| 24> C 	 37.9558 	 20.9329 	 47.2645
| 25> C 	 37.0467 	 21.1742 	 48.2723
| 26> C 	 37.1102 	 22.4836 	 48.9
| 27> C 	 38.2607 	 23.1377 	 48.4077
| 28> H 	 36.3983 	 20.366 	 48.3985
| 29> C 	 36.3154 	 23.0783 	 50.0624
| 30> H 	 36.2805 	 24.1548 	 49.8611
| 31> H 	 36.9068 	 23.1314 	 50.9935
| 32> C 	 34.8664 	 22.6141 	 50.1481
| 33> H 	 34.4685 	 22.9683 	 51.0823
| 34> H 	 34.7549 	 21.5388 	 50.1305
| 35> C 	 33.9487 	 23.2877 	 49.062
| 36> H 	 33.9296 	 24.346 	 49.1064
| 37> H 	 33.0117 	 22.7348 	 49.0122
| 38> H 	 34.391 	 23.2172 	 48.0819
| 39> H 	 39.8987 	 27.99 	 48.9346
| 40> H 	 37.999 	 19.9793 	 46.7307
| 41> *
| 42>
| 43>                          ****END OF INPUT****

CARTESIAN COORDINATES (ANGSTROEM)
---------------------------------
  S     38.214400   26.055100   48.247700
  C     39.651400   26.901500   48.847500
  C     40.530900   26.028300   49.486900
  C     40.063400   24.675800   49.476800
  C     38.861800   24.496200   48.729500
  H     40.428300   23.780100   49.940000
  C     41.840500   26.428400   50.118900
  H     42.435600   25.610900   50.486300
  H     41.495000   27.013400   51.018900
  C     42.703100   27.308100   49.220100
  H     43.203800   26.663500   48.487000
  H     42.151100   28.111600   48.708700
  C     43.866400   28.005900   50.006200
  H     43.517800   28.781600   50.743500
  H     44.395900   27.231200   50.556300
  H     44.580100   28.569300   49.393900
  S     39.051100   22.261200   47.119100
  C     37.955800   20.932900   47.264500
  C     37.046700   21.174200   48.272300
  C     37.110200   22.483600   48.900000
  C     38.260700   23.137700   48.407700
  H     36.398300   20.366000   48.398500
  C     36.315400   23.078300   50.062400
  H     36.280500   24.154800   49.861100
  H     36.906800   23.131400   50.993500
  C     34.866400   22.614100   50.148100
  H     34.468500   22.968300   51.082300
  H     34.754900   21.538800   50.130500
  C     33.948700   23.287700   49.062000
  H     33.929600   24.346000   49.106400
  H     33.011700   22.734800   49.012200
  H     34.391000   23.217200   48.081900
  H     39.898700   27.990000   48.934600
  H     37.999000   19.979300   46.730700

 Total Charge           Charge          ....    0
 Multiplicity           Mult            ....    1
 Number of Electrons    NEL             ....  134
 Basis Dimension        Dim             ....  322

ORBITAL ENERGIES
----------------

  NO   OCC          E(Eh)            E(eV)
   0   2.0000     -88.972841     -2421.0741
   1   2.0000     -88.964767     -2420.8544
   2   2.0000     -10.335562      -281.2449
   3   2.0000     -10.329968      -281.0927
   4   2.0000     -10.318957      -280.7931
   5   2.0000     -10.314794      -280.6798
   6   2.0000     -10.312076      -280.6058
   7   2.0000     -10.303874      -280.3827
   8   2.0000     -10.296561      -280.1837
   9   2.0000     -10.295856      -280.1645
  10   2.0000     -10.293975      -280.1133
  11   2.0000     -10.292195      -280.0649
  12   2.0000     -10.292070      -280.0615
  13   2.0000     -10.285873      -279.8928
  14   2.0000     -10.283423      -279.8262
  15   2.0000     -10.271575      -279.5038
  16   2.0000      -8.086046      -220.0325
  17   2.0000      -8.079729      -219.8606
  18   2.0000      -6.044704      -164.4848
  19   2.0000      -6.040629      -164.3739
  20   2.0000      -6.038148      -164.3064
  21   2.0000      -6.036878      -164.2718
  22   2.0000      -6.034011      -164.1938
  23   2.0000      -6.030753      -164.1051
  24   2.0000      -0.999214       -27.1900
  25   2.0000      -0.980135       -26.6708
  26   2.0000      -0.911444       -24.8016
  27   2.0000      -0.907097       -24.6834
  28   2.0000      -0.861065       -23.4308
  29   2.0000      -0.846195       -23.0261
  30   2.0000      -0.843428       -22.9508
  31   2.0000      -0.811733       -22.0884
  32   2.0000      -0.781420       -21.2635
  33   2.0000      -0.771201       -20.9854
  34   2.0000      -0.708340       -19.2749
  35   2.0000      -0.703083       -19.1319
  36   2.0000      -0.692238       -18.8367
  37   2.0000      -0.647727       -17.6256
  38   2.0000      -0.636119       -17.3097
  39   2.0000      -0.612266       -16.6606
  40   2.0000      -0.596546       -16.2328
  41   2.0000      -0.583524       -15.8785
  42   2.0000      -0.556568       -15.1450
  43   2.0000      -0.549346       -14.9485
  44   2.0000      -0.534112       -14.5339
  45   2.0000      -0.523500       -14.2452
  46   2.0000      -0.517640       -14.0857
  47   2.0000      -0.507334       -13.8053
  48   2.0000      -0.504253       -13.7214
  49   2.0000      -0.493149       -13.4193
  50   2.0000      -0.488980       -13.3058
  51   2.0000      -0.478961       -13.0332
  52   2.0000      -0.470688       -12.8081
  53   2.0000      -0.468781       -12.7562
  54   2.0000      -0.455234       -12.3875
  55   2.0000      -0.442128       -12.0309
  56   2.0000      -0.438897       -11.9430
  57   2.0000      -0.434239       -11.8163
  58   2.0000      -0.431996       -11.7552
  59   2.0000      -0.429402       -11.6846
  60   2.0000      -0.424717       -11.5571
  61   2.0000      -0.421002       -11.4560
  62   2.0000      -0.412689       -11.2298
  63   2.0000      -0.332521        -9.0484
  64   2.0000      -0.329379        -8.9628
  65   2.0000      -0.322064        -8.7638
  66   2.0000      -0.304173        -8.2770
  67   0.0000       0.037771         1.0278
  68   0.0000       0.055665         1.5147
  69   0.0000       0.111432         3.0322
  70   0.0000       0.124114         3.3773
  71   0.0000       0.127875         3.4797

MULLIKEN ATOMIC CHARGES
-----------------------
   0 S :    0.130808
   1 C :   -0.138616
   2 C :   -0.077879
   3 C :    0.038697
   4 C :   -0.186255
   5 H :    0.010316
   6 C :    0.067474
   7 H :    0.022996
   8 H :    0.044890
   9 C :   -0.084884
  10 H :    0.041831
  11 H :    0.034069
  12 C :   -0.078368
  13 H :    0.034154
  14 H :    0.028825
  15 H :    0.037169
  16 S :    0.127869
  17 C :   -0.108833
  18 C :   -0.040415
  19 C :    0.001947
  20 C :   -0.198586
  21 H :   -0.004774
  22 C :    0.061710
  23 H :    0.010198
  24 H :    0.048292
  25 C :   -0.044102
  26 H :    0.023775
  27 H :    0.031301
  28 C :   -0.043814
  29 H :    0.023272
  30 H :    0.041493
  31 H :    0.019137
  32 H :    0.063132
  33 H :    0.063173
Sum of atomic charges:    0.0000000

LOEWDIN ATOMIC CHARGES
----------------------
   0 S :    0.407513
   1 C :   -0.212112
   2 C :   -0.062896
   3 C :   -0.060846
   4 C :   -0.203351
   5 H :    0.030041
   6 C :   -0.034353
   7 H :    0.028778
   8 H :    0.041440
   9 C :   -0.038060
  10 H :    0.029984
  11 H :    0.022820
  12 C :   -0.072835
  13 H :    0.026797
  14 H :    0.021504
  15 H :    0.025725
  16 S :    0.424524
  17 C :   -0.199267
  18 C :   -0.071608
  19 C :   -0.049674
  20 C :   -0.205334
  21 H :    0.020357
  22 C :   -0.038754
  23 H :    0.031421
  24 H :    0.040281
  25 C :   -0.035802
  26 H :    0.024470
  27 H :    0.020922
  28 C :   -0.064788
  29 H :    0.022356
  30 H :    0.029598
  31 H :    0.023958
  32 H :    0.041082
  33 H :    0.036108

  Mayer bond orders larger than 0.100000
B(  0-S ,  1-C ) :   1.1357 B(  0-S ,  4-C ) :   1.1558 B(  1-C ,  2-C ) :   1.6051
B(  1-C ,  4-C ) :   0.1010 B(  1-C , 32-H ) :   0.9561 B(  2-C ,  3-C ) :   1.2460
B(  2-C ,  6-C ) :   1.0114 B(  3-C ,  4-C ) :   1.5633 B(  3-C ,  5-H ) :   0.9961
B(  4-C , 20-C ) :   1.0035 B(  6-C ,  7-H ) :   0.9468 B(  6-C ,  8-H ) :   0.9363
B(  6-C ,  9-C ) :   1.0610 B(  9-C , 10-H ) :   0.9567 B(  9-C , 11-H ) :   0.9594
B(  9-C , 12-C ) :   1.0746 B( 12-C , 13-H ) :   0.9772 B( 12-C , 14-H ) :   0.9752
B( 12-C , 15-H ) :   0.9765 B( 16-S , 17-C ) :   1.1539 B( 16-S , 20-C ) :   1.1759
B( 17-C , 18-C ) :   1.6269 B( 17-C , 33-H ) :   0.9631 B( 18-C , 19-C ) :   1.2092
B( 18-C , 21-H ) :   0.9987 B( 19-C , 20-C ) :   1.5701 B( 19-C , 22-C ) :   1.0387
B( 22-C , 23-H ) :   0.9207 B( 22-C , 24-H ) :   0.9365 B( 22-C , 25-C ) :   1.0669
B( 25-C , 26-H ) :   0.9528 B( 25-C , 27-H ) :   0.9602 B( 25-C , 28-C ) :   1.0738
B( 28-C , 29-H ) :   0.9709 B( 28-C , 30-H ) :   0.9751 B( 28-C , 31-H ) :   0.9761

Dispersion correction           -0.013942145
FINAL SINGLE POINT ENERGY     -1339.869351476818

DIPOLE MOMENT
-------------
                                X             Y             Z
Electronic contribution:     -2.35102      -8.03932     -12.11313
Nuclear contribution   :      2.48190       7.98432      12.54682
                        -----------------------------------------
Total Dipole Moment    :      0.13088      -0.05500       0.43369
                        -----------------------------------------
Magnitude (a.u.)       :      0.45634
Magnitude (Debye)      :      1.15992

Rotational constants in cm-1:     0.025150     0.006687     0.005869
Rotational constants in MHz :   753.973357   200.470239   175.934160

                             ****ORCA TERMINATED NORMALLY****
TOTAL RUN TIME: 0 days 0 hours 0 minutes 33 seconds 7 msec
