                         Program Version 4.2.1 -  RELEASE  -
|  1> ! wB97X-D3 SP def2-SVP
|  2> %pal
|  3> nprocs 16
|  4> end
|  5>
|  6> * xyz 0 1
|  7> S 	 48.6973 	 11.4535 	 85.5727
|  8> C 	 47.4644 	 12.519 	 84.7414
|  9> C 	 48.113 	 13.3059 	 83.8198
| 10> C 	 49.5289 	 13.086 	 83.7185
| 11> C 	 49.9099 	 12.016 	 84.4437
| 12> H 	 50.1691 	 13.6657 	 83.0772
| 13> C 	 47.4134 	 14.3234 	 82.8658
| 14> H 	 46.35 	 14.1943 	 83.0547
| 15> H 	 47.4862 	 14.1403 	 81.8514
| 16> C 	 47.795 	 15.8248 	 83.1494
| 17> H 	 48.7792 	 15.9788 	 82.5928
| 18> H 	 47.0041 	 16.4623 	 82.6619
| 19> C 	 47.7971 	 16.2858 	 84.588
| 20> H 	 47.7754 	 17.3583 	 84.6211
| 21> H 	 46.8215 	 16.1659 	 85.0751
| 22> H 	 48.5924 	 15.8536 	 85.2111
| 23> S 	 52.5672 	 12.3415 	 84.3576
| 24> C 	 53.629 	 10.9744 	 84.3475
| 25> C 	 52.9512 	 9.84095 	 84.0862
| 26> C 	 51.5399 	 9.99092 	 83.99
| 27> C 	 51.2002 	 11.3236 	 84.267
| 28> H 	 53.4091 	 8.84189 	 84.1109
| 29> C 	 50.5645 	 8.80323 	 83.7135
| 30> H 	 49.5372 	 9.1466 	 83.6797
| 31> H 	 50.4511 	 8.3633 	 84.6264
| 32> C 	 50.9318 	 7.73025 	 82.656
| 33> H 	 50.7871 	 6.72065 	 83.0666
| 34> H 	 51.9867 	 7.80823 	 82.4673
| 35> C 	 50.2756 	 7.88475 	 81.2804
| 36> H 	 50.2057 	 8.85375 	 80.8269
| 37> H 	 49.2621 	 7.51669 	 81.4157
| 38> H 	 50.8214 	 7.28206 	 80.5711
| 39> H 	 46.3885 	 12.444 	 84.9057
| 40> H 	 54.6924 	 11.0743 	 84.7318
| 41> *
| 42>
| 43>                          ****END OF INPUT****

CARTESIAN COORDINATES (ANGSTROEM)
---------------------------------
  S     48.697300   11.453500   85.572700
  C     47.464400   12.519000   84.741400
  C     48.113000   13.305900   83.819800
  C     49.528900   13.086000   83.718500
  C     49.909900   12.016000   84.443700
  H     50.169100   13.665700   83.077200
  C     47.413400   14.323400   82.865800
  H     46.350000   14.194300   83.054700
  H     47.486200   14.140300   81.851400
  C     47.795000   15.824800   83.149400
  H     48.779200   15.978800   82.592800
  H     47.004100   16.462300   82.661900
  C     47.797100   16.285800   84.588000
  H     47.775400   17.358300   84.621100
  H     46.821500   16.165900   85.075100
  H     48.592400   15.853600   85.211100
  S     52.567200   12.341500   84.357600
  C     53.629000   10.974400   84.347500
  C     52.951200    9.840950   84.086200
  C     51.539900    9.990920   83.990000
  C     51.200200   11.323600   84.267000
  H     53.409100    8.841890   84.110900
  C     50.564500    8.803230   83.713500
  H     49.537200    9.146600   83.679700
  H     50.451100    8.363300   84.626400
  C     50.931800    7.730250   82.656000
  H     50.787100    6.720650   83.066600
  H     51.986700    7.808230   82.467300
  C     50.275600    7.884750   81.280400
  H     50.205700    8.853750   80.826900
  H     49.262100    7.516690   81.415700
  H     50.821400    7.282060   80.571100
  H     46.388500   12.444000   84.905700
  H     54.692400   11.074300   84.731800

 Total Charge           Charge          ....    0
 Multiplicity           Mult            ....    1
 Number of Electrons    NEL             ....  134
 Basis Dimension        Dim             ....  322

ORBITAL ENERGIES
----------------

  NO   OCC          E(Eh)            E(eV)
   0   2.0000     -88.965866     -2420.8843
   1   2.0000     -88.961909     -2420.7766
   2   2.0000     -10.328521      -281.0533
   3   2.0000     -10.322690      -280.8947
   4   2.0000     -10.318116      -280.7702
   5   2.0000     -10.314922      -280.6833
   6   2.0000     -10.306417      -280.4519
   7   2.0000     -10.304509      -280.4000
   8   2.0000     -10.296306      -280.1767
   9   2.0000     -10.290964      -280.0314
  10   2.0000     -10.289084      -279.9802
  11   2.0000     -10.288772      -279.9717
  12   2.0000     -10.287318      -279.9321
  13   2.0000     -10.284404      -279.8529
  14   2.0000     -10.273619      -279.5594
  15   2.0000     -10.270837      -279.4837
  16   2.0000      -8.079425      -219.8523
  17   2.0000      -8.078068      -219.8154
  18   2.0000      -6.038181      -164.3072
  19   2.0000      -6.036463      -164.2605
  20   2.0000      -6.034256      -164.2004
  21   2.0000      -6.032407      -164.1501
  22   2.0000      -6.029842      -164.0803
  23   2.0000      -6.028855      -164.0535
  24   2.0000      -1.010553       -27.4985
  25   2.0000      -0.983577       -26.7645
  26   2.0000      -0.904113       -24.6022
  27   2.0000      -0.903631       -24.5890
  28   2.0000      -0.867504       -23.6060
  29   2.0000      -0.851050       -23.1583
  30   2.0000      -0.841126       -22.8882
  31   2.0000      -0.814630       -22.1672
  32   2.0000      -0.788766       -21.4634
  33   2.0000      -0.776561       -21.1313
  34   2.0000      -0.705720       -19.2036
  35   2.0000      -0.696610       -18.9557
  36   2.0000      -0.687226       -18.7004
  37   2.0000      -0.657708       -17.8971
  38   2.0000      -0.632821       -17.2199
  39   2.0000      -0.620999       -16.8982
  40   2.0000      -0.603154       -16.4127
  41   2.0000      -0.561779       -15.2868
  42   2.0000      -0.551859       -15.0168
  43   2.0000      -0.550390       -14.9769
  44   2.0000      -0.539481       -14.6800
  45   2.0000      -0.536793       -14.6069
  46   2.0000      -0.519093       -14.1252
  47   2.0000      -0.510396       -13.8886
  48   2.0000      -0.498913       -13.5761
  49   2.0000      -0.496333       -13.5059
  50   2.0000      -0.488891       -13.3034
  51   2.0000      -0.475659       -12.9434
  52   2.0000      -0.472851       -12.8669
  53   2.0000      -0.461095       -12.5470
  54   2.0000      -0.454347       -12.3634
  55   2.0000      -0.449411       -12.2291
  56   2.0000      -0.442934       -12.0529
  57   2.0000      -0.440425       -11.9846
  58   2.0000      -0.434437       -11.8216
  59   2.0000      -0.426596       -11.6083
  60   2.0000      -0.413065       -11.2401
  61   2.0000      -0.410187       -11.1618
  62   2.0000      -0.407781       -11.0963
  63   2.0000      -0.347751        -9.4628
  64   2.0000      -0.332496        -9.0477
  65   2.0000      -0.325974        -8.8702
  66   2.0000      -0.291021        -7.9191
  67   0.0000       0.032496         0.8843
  68   0.0000       0.071774         1.9531
  69   0.0000       0.108089         2.9413
  70   0.0000       0.112818         3.0699
  71   0.0000       0.135221         3.6795

MULLIKEN ATOMIC CHARGES
-----------------------
   0 S :    0.090781
   1 C :   -0.147717
   2 C :   -0.083477
   3 C :    0.031627
   4 C :   -0.114403
   5 H :    0.012571
   6 C :    0.110748
   7 H :    0.000417
   8 H :    0.022498
   9 C :   -0.137982
  10 H :    0.044375
  11 H :    0.037764
  12 C :   -0.026733
  13 H :    0.021463
  14 H :    0.017533
  15 H :    0.056299
  16 S :    0.104500
  17 C :   -0.114956
  18 C :   -0.040176
  19 C :   -0.050791
  20 C :   -0.186364
  21 H :    0.029755
  22 C :    0.141247
  23 H :    0.005769
  24 H :    0.001022
  25 C :   -0.078310
  26 H :    0.033060
  27 H :    0.021150
  28 C :   -0.037303
  29 H :    0.038346
  30 H :    0.030150
  31 H :    0.026323
  32 H :    0.056051
  33 H :    0.084764
Sum of atomic charges:    0.0000000

LOEWDIN ATOMIC CHARGES
----------------------
   0 S :    0.366464
   1 C :   -0.182947
   2 C :   -0.051441
   3 C :   -0.070902
   4 C :   -0.179396
   5 H :    0.028670
   6 C :   -0.025295
   7 H :    0.025209
   8 H :    0.020323
   9 C :   -0.047900
  10 H :    0.027651
  11 H :    0.031787
  12 C :   -0.074239
  13 H :    0.026726
  14 H :    0.029010
  15 H :    0.030775
  16 S :    0.428681
  17 C :   -0.203527
  18 C :   -0.078227
  19 C :   -0.051826
  20 C :   -0.209114
  21 H :    0.035420
  22 C :   -0.032931
  23 H :    0.029616
  24 H :    0.024455
  25 C :   -0.037504
  26 H :    0.029789
  27 H :    0.020658
  28 C :   -0.061174
  29 H :    0.025759
  30 H :    0.024652
  31 H :    0.024505
  32 H :    0.031458
  33 H :    0.044813

  Mayer bond orders larger than 0.100000
B(  0-S ,  1-C ) :   1.0875 B(  0-S ,  4-C ) :   1.1405 B(  1-C ,  2-C ) :   1.6649
B(  1-C , 32-H ) :   0.9666 B(  2-C ,  3-C ) :   1.2010 B(  2-C ,  6-C ) :   1.0198
B(  3-C ,  4-C ) :   1.6065 B(  3-C ,  5-H ) :   0.9962 B(  4-C , 20-C ) :   0.9972
B(  6-C ,  7-H ) :   0.9353 B(  6-C ,  8-H ) :   0.9500 B(  6-C ,  9-C ) :   1.0609
B(  9-C , 10-H ) :   0.9563 B(  9-C , 11-H ) :   0.9573 B(  9-C , 12-C ) :   1.0876
B( 12-C , 13-H ) :   0.9684 B( 12-C , 14-H ) :   0.9670 B( 12-C , 15-H ) :   0.9699
B( 16-S , 17-C ) :   1.1505 B( 16-S , 20-C ) :   1.1719 B( 17-C , 18-C ) :   1.6105
B( 17-C , 33-H ) :   0.9592 B( 18-C , 19-C ) :   1.2479 B( 18-C , 21-H ) :   0.9806
B( 19-C , 20-C ) :   1.5808 B( 19-C , 22-C ) :   1.0291 B( 22-C , 23-H ) :   0.9260
B( 22-C , 24-H ) :   0.9212 B( 22-C , 25-C ) :   1.0447 B( 25-C , 26-H ) :   0.9572
B( 25-C , 27-H ) :   0.9650 B( 25-C , 28-C ) :   1.0771 B( 28-C , 29-H ) :   0.9786
B( 28-C , 30-H ) :   0.9772 B( 28-C , 31-H ) :   0.9745

Dispersion correction           -0.014227472
FINAL SINGLE POINT ENERGY     -1339.856116156840

DIPOLE MOMENT
-------------
                                X             Y             Z
Electronic contribution:     10.11014      -0.26968      12.15465
Nuclear contribution   :    -10.29823       0.15555     -12.42706
                        -----------------------------------------
Total Dipole Moment    :     -0.18810      -0.11413      -0.27241
                        -----------------------------------------
Magnitude (a.u.)       :      0.35016
Magnitude (Debye)      :      0.89003

Rotational constants in cm-1:     0.020609     0.007956     0.006855
Rotational constants in MHz :   617.846608   238.500581   205.508458

                             ****ORCA TERMINATED NORMALLY****
TOTAL RUN TIME: 0 days 0 hours 0 minutes 28 seconds 429 msec
