                         Program Version 4.2.1 -  RELEASE  -
|  1> ! wB97X-D3 SP def2-SVP
|  2> %pal
|  3> nprocs 16
|  4> end
|  5>
|  6> * xyz 0 1
|  7> S 	 -0.609257 	 24.3385 	 33.1022
|  8> C 	 -2.0823 	 25.262 	 33.0861
|  9> C 	 -3.15038 	 24.6478 	 33.5868
| 10> C 	 -2.81058 	 23.3701 	 34.0557
| 11> C 	 -1.46163 	 23.0723 	 33.972
| 12> H 	 -3.52953 	 22.6959 	 34.5065
| 13> C 	 -4.49998 	 25.2658 	 33.708
| 14> H 	 -5.30679 	 24.6772 	 33.3536
| 15> H 	 -4.44637 	 26.0693 	 33.0127
| 16> C 	 -4.88086 	 25.7688 	 35.1442
| 17> H 	 -4.93644 	 25.0188 	 35.9414
| 18> H 	 -4.19232 	 26.5424 	 35.4539
| 19> C 	 -6.31748 	 26.3148 	 35.2852
| 20> H 	 -6.56026 	 27.0806 	 34.613
| 21> H 	 -7.02346 	 25.5312 	 35.0173
| 22> H 	 -6.50322 	 26.7132 	 36.3307
| 23> S 	 0.659902 	 22.1953 	 35.3745
| 24> C 	 1.00914 	 20.4731 	 35.38
| 25> C 	 -0.0329738 	 19.7622 	 34.8706
| 26> C 	 -0.956924 	 20.5873 	 34.2754
| 27> C 	 -0.77574 	 21.9204 	 34.4557
| 28> H 	 -0.0685574 	 18.6694 	 34.7655
| 29> C 	 -2.10806 	 19.9375 	 33.5632
| 30> H 	 -2.9749 	 20.5904 	 33.532
| 31> H 	 -2.35108 	 19.0152 	 34.1742
| 32> C 	 -1.82308 	 19.3482 	 32.2536
| 33> H 	 -2.58586 	 18.6584 	 31.8656
| 34> H 	 -1.04469 	 18.6946 	 32.4374
| 35> C 	 -1.4524 	 20.2544 	 31.1545
| 36> H 	 -1.04049 	 19.7849 	 30.2614
| 37> H 	 -0.765105 	 20.997 	 31.5041
| 38> H 	 -2.34278 	 20.8053 	 30.8299
| 39> H 	 -2.21314 	 26.3115 	 32.7271
| 40> H 	 1.92957 	 20.1552 	 35.8471
| 41> *
| 42>
| 43>                          ****END OF INPUT****

CARTESIAN COORDINATES (ANGSTROEM)
---------------------------------
  S     -0.609257   24.338500   33.102200
  C     -2.082300   25.262000   33.086100
  C     -3.150380   24.647800   33.586800
  C     -2.810580   23.370100   34.055700
  C     -1.461630   23.072300   33.972000
  H     -3.529530   22.695900   34.506500
  C     -4.499980   25.265800   33.708000
  H     -5.306790   24.677200   33.353600
  H     -4.446370   26.069300   33.012700
  C     -4.880860   25.768800   35.144200
  H     -4.936440   25.018800   35.941400
  H     -4.192320   26.542400   35.453900
  C     -6.317480   26.314800   35.285200
  H     -6.560260   27.080600   34.613000
  H     -7.023460   25.531200   35.017300
  H     -6.503220   26.713200   36.330700
  S      0.659902   22.195300   35.374500
  C      1.009140   20.473100   35.380000
  C     -0.032974   19.762200   34.870600
  C     -0.956924   20.587300   34.275400
  C     -0.775740   21.920400   34.455700
  H     -0.068557   18.669400   34.765500
  C     -2.108060   19.937500   33.563200
  H     -2.974900   20.590400   33.532000
  H     -2.351080   19.015200   34.174200
  C     -1.823080   19.348200   32.253600
  H     -2.585860   18.658400   31.865600
  H     -1.044690   18.694600   32.437400
  C     -1.452400   20.254400   31.154500
  H     -1.040490   19.784900   30.261400
  H     -0.765105   20.997000   31.504100
  H     -2.342780   20.805300   30.829900
  H     -2.213140   26.311500   32.727100
  H      1.929570   20.155200   35.847100

 Total Charge           Charge          ....    0
 Multiplicity           Mult            ....    1
 Number of Electrons    NEL             ....  134
 Basis Dimension        Dim             ....  322

ORBITAL ENERGIES
----------------

  NO   OCC          E(Eh)            E(eV)
   0   2.0000     -88.968194     -2420.9476
   1   2.0000     -88.962167     -2420.7836
   2   2.0000     -10.325980      -280.9842
   3   2.0000     -10.317193      -280.7451
   4   2.0000     -10.316796      -280.7343
   5   2.0000     -10.308513      -280.5089
   6   2.0000     -10.291212      -280.0381
   7   2.0000     -10.290481      -280.0182
   8   2.0000     -10.290027      -280.0059
   9   2.0000     -10.289905      -280.0026
  10   2.0000     -10.289289      -279.9858
  11   2.0000     -10.289130      -279.9815
  12   2.0000     -10.285281      -279.8767
  13   2.0000     -10.277985      -279.6782
  14   2.0000     -10.267111      -279.3823
  15   2.0000     -10.261728      -279.2358
  16   2.0000      -8.082934      -219.9478
  17   2.0000      -8.077824      -219.8088
  18   2.0000      -6.041430      -164.3957
  19   2.0000      -6.037582      -164.2910
  20   2.0000      -6.036154      -164.2521
  21   2.0000      -6.033550      -164.1812
  22   2.0000      -6.032223      -164.1451
  23   2.0000      -6.028686      -164.0489
  24   2.0000      -1.018420       -27.7126
  25   2.0000      -0.995792       -27.0969
  26   2.0000      -0.923907       -25.1408
  27   2.0000      -0.913441       -24.8560
  28   2.0000      -0.876652       -23.8549
  29   2.0000      -0.855302       -23.2740
  30   2.0000      -0.851478       -23.1699
  31   2.0000      -0.817509       -22.2455
  32   2.0000      -0.786787       -21.4096
  33   2.0000      -0.775989       -21.1157
  34   2.0000      -0.711141       -19.3511
  35   2.0000      -0.700028       -19.0487
  36   2.0000      -0.695761       -18.9326
  37   2.0000      -0.669505       -18.2182
  38   2.0000      -0.637772       -17.3547
  39   2.0000      -0.623469       -16.9655
  40   2.0000      -0.605558       -16.4781
  41   2.0000      -0.577267       -15.7082
  42   2.0000      -0.560428       -15.2500
  43   2.0000      -0.557547       -15.1716
  44   2.0000      -0.546077       -14.8595
  45   2.0000      -0.529599       -14.4111
  46   2.0000      -0.518305       -14.1038
  47   2.0000      -0.513425       -13.9710
  48   2.0000      -0.506317       -13.7776
  49   2.0000      -0.500851       -13.6288
  50   2.0000      -0.493488       -13.4285
  51   2.0000      -0.480004       -13.0616
  52   2.0000      -0.468377       -12.7452
  53   2.0000      -0.464346       -12.6355
  54   2.0000      -0.457143       -12.4395
  55   2.0000      -0.450986       -12.2720
  56   2.0000      -0.443322       -12.0634
  57   2.0000      -0.438619       -11.9354
  58   2.0000      -0.436677       -11.8826
  59   2.0000      -0.431771       -11.7491
  60   2.0000      -0.420162       -11.4332
  61   2.0000      -0.417167       -11.3517
  62   2.0000      -0.404032       -10.9943
  63   2.0000      -0.348093        -9.4721
  64   2.0000      -0.337199        -9.1756
  65   2.0000      -0.332542        -9.0489
  66   2.0000      -0.292594        -7.9619
  67   0.0000       0.031028         0.8443
  68   0.0000       0.074323         2.0224
  69   0.0000       0.108981         2.9655
  70   0.0000       0.117038         3.1848
  71   0.0000       0.139354         3.7920

MULLIKEN ATOMIC CHARGES
-----------------------
   0 S :    0.128687
   1 C :   -0.136363
   2 C :   -0.074221
   3 C :    0.031863
   4 C :   -0.156783
   5 H :    0.009666
   6 C :    0.121579
   7 H :    0.011058
   8 H :    0.000124
   9 C :   -0.076886
  10 H :    0.035521
  11 H :    0.029434
  12 C :   -0.057277
  13 H :    0.012201
  14 H :    0.025014
  15 H :    0.048471
  16 S :    0.099016
  17 C :   -0.102028
  18 C :   -0.014134
  19 C :   -0.037614
  20 C :   -0.165977
  21 H :    0.030169
  22 C :    0.076410
  23 H :    0.008482
  24 H :    0.027400
  25 C :   -0.028308
  26 H :    0.020909
  27 H :   -0.017158
  28 C :   -0.025879
  29 H :    0.030595
  30 H :    0.022568
  31 H :    0.018574
  32 H :    0.047823
  33 H :    0.057059
Sum of atomic charges:   -0.0000000

LOEWDIN ATOMIC CHARGES
----------------------
   0 S :    0.407537
   1 C :   -0.200935
   2 C :   -0.073518
   3 C :   -0.053263
   4 C :   -0.190925
   5 H :    0.029573
   6 C :   -0.022693
   7 H :    0.025946
   8 H :    0.027365
   9 C :   -0.036640
  10 H :    0.027950
  11 H :    0.022446
  12 C :   -0.067519
  13 H :    0.010887
  14 H :    0.022775
  15 H :    0.036497
  16 S :    0.411989
  17 C :   -0.168543
  18 C :   -0.071011
  19 C :   -0.063329
  20 C :   -0.211031
  21 H :    0.038110
  22 C :   -0.026114
  23 H :    0.021866
  24 H :    0.042638
  25 C :   -0.049287
  26 H :    0.027381
  27 H :    0.010566
  28 C :   -0.062186
  29 H :    0.026746
  30 H :    0.021323
  31 H :    0.025166
  32 H :    0.035537
  33 H :    0.024694

  Mayer bond orders larger than 0.100000
B(  0-S ,  1-C ) :   1.1241 B(  0-S ,  4-C ) :   1.1398 B(  1-C ,  2-C ) :   1.6594
B(  1-C , 32-H ) :   0.9466 B(  2-C ,  3-C ) :   1.2364 B(  2-C ,  6-C ) :   1.0337
B(  3-C ,  4-C ) :   1.5762 B(  3-C ,  5-H ) :   0.9962 B(  4-C , 20-C ) :   1.0554
B(  6-C ,  7-H ) :   0.9341 B(  6-C ,  8-H ) :   0.9274 B(  6-C ,  9-C ) :   1.0543
B(  9-C , 10-H ) :   0.9626 B(  9-C , 11-H ) :   0.9570 B(  9-C , 12-C ) :   1.0769
B( 12-C , 13-H ) :   0.9756 B( 12-C , 14-H ) :   0.9743 B( 12-C , 15-H ) :   0.9749
B( 16-S , 17-C ) :   1.1700 B( 16-S , 20-C ) :   1.1405 B( 17-C , 18-C ) :   1.5622
B( 17-C , 20-C ) :   0.1027 B( 17-C , 33-H ) :   0.9730 B( 18-C , 19-C ) :   1.2726
B( 18-C , 21-H ) :   0.9832 B( 19-C , 20-C ) :   1.5910 B( 19-C , 22-C ) :   1.0403
B( 22-C , 23-H ) :   0.9357 B( 22-C , 24-H ) :   0.9259 B( 22-C , 25-C ) :   1.0839
B( 25-C , 26-H ) :   0.9454 B( 25-C , 27-H ) :   0.9393 B( 25-C , 28-C ) :   1.0938
B( 28-C , 29-H ) :   0.9701 B( 28-C , 30-H ) :   0.9719 B( 28-C , 31-H ) :   0.9699

Dispersion correction           -0.014449489
FINAL SINGLE POINT ENERGY     -1339.874365228301

DIPOLE MOMENT
-------------
                                X             Y             Z
Electronic contribution:     23.02627       1.32230       5.12210
Nuclear contribution   :    -23.51594      -1.52351      -5.13666
                        -----------------------------------------
Total Dipole Moment    :     -0.48967      -0.20121      -0.01456
                        -----------------------------------------
Magnitude (a.u.)       :      0.52960
Magnitude (Debye)      :      1.34613

Rotational constants in cm-1:     0.021010     0.007844     0.007163
Rotational constants in MHz :   629.856026   235.156382   214.738060

                             ****ORCA TERMINATED NORMALLY****
TOTAL RUN TIME: 0 days 0 hours 0 minutes 36 seconds 410 msec
