                         Program Version 4.2.1 -  RELEASE  -
|  1> ! wB97X-D3 SP def2-SVP
|  2> %pal
|  3> nprocs 16
|  4> end
|  5>
|  6> * xyz 0 1
|  7> S 	 4.33663 	 -5.55168 	 92.7464
|  8> C 	 4.4405 	 -4.90457 	 94.4024
|  9> C 	 3.20173 	 -4.53007 	 94.9038
| 10> C 	 2.13084 	 -4.78788 	 93.9847
| 11> C 	 2.56464 	 -5.44636 	 92.8345
| 12> H 	 1.05312 	 -4.57359 	 94.1353
| 13> C 	 3.07972 	 -3.87199 	 96.2683
| 14> H 	 2.24268 	 -3.22757 	 96.3223
| 15> H 	 4.01637 	 -3.29912 	 96.3342
| 16> C 	 3.05934 	 -4.68482 	 97.5527
| 17> H 	 2.93511 	 -3.93723 	 98.2758
| 18> H 	 2.24037 	 -5.3025 	 97.6254
| 19> C 	 4.19373 	 -5.64835 	 97.6281
| 20> H 	 5.19911 	 -5.25907 	 97.6638
| 21> H 	 4.10351 	 -6.33471 	 98.4089
| 22> H 	 4.22477 	 -6.21064 	 96.7124
| 23> S 	 2.34041 	 -5.93055 	 90.1217
| 24> C 	 0.740503 	 -6.28338 	 89.3835
| 25> C 	 -0.081927 	 -6.71813 	 90.3388
| 26> C 	 0.409606 	 -6.58291 	 91.71
| 27> C 	 1.73396 	 -6.10341 	 91.7763
| 28> H 	 -1.07958 	 -7.05178 	 90.0534
| 29> C 	 -0.497155 	 -6.73917 	 92.914
| 30> H 	 -0.0728053 	 -6.63992 	 93.8828
| 31> H 	 -0.664754 	 -7.81082 	 92.8798
| 32> C 	 -1.71727 	 -5.76665 	 92.8404
| 33> H 	 -2.23627 	 -5.76084 	 91.8669
| 34> H 	 -1.37872 	 -4.82592 	 93.2298
| 35> C 	 -2.72748 	 -6.21819 	 93.9227
| 36> H 	 -3.51762 	 -5.46285 	 94.0911
| 37> H 	 -2.32845 	 -6.32202 	 94.9326
| 38> H 	 -3.19287 	 -7.23256 	 93.6848
| 39> H 	 5.31491 	 -4.85019 	 95.0709
| 40> H 	 0.425398 	 -6.25489 	 88.3273
| 41> *
| 42>
| 43>                          ****END OF INPUT****

CARTESIAN COORDINATES (ANGSTROEM)
---------------------------------
  S      4.336630   -5.551680   92.746400
  C      4.440500   -4.904570   94.402400
  C      3.201730   -4.530070   94.903800
  C      2.130840   -4.787880   93.984700
  C      2.564640   -5.446360   92.834500
  H      1.053120   -4.573590   94.135300
  C      3.079720   -3.871990   96.268300
  H      2.242680   -3.227570   96.322300
  H      4.016370   -3.299120   96.334200
  C      3.059340   -4.684820   97.552700
  H      2.935110   -3.937230   98.275800
  H      2.240370   -5.302500   97.625400
  C      4.193730   -5.648350   97.628100
  H      5.199110   -5.259070   97.663800
  H      4.103510   -6.334710   98.408900
  H      4.224770   -6.210640   96.712400
  S      2.340410   -5.930550   90.121700
  C      0.740503   -6.283380   89.383500
  C     -0.081927   -6.718130   90.338800
  C      0.409606   -6.582910   91.710000
  C      1.733960   -6.103410   91.776300
  H     -1.079580   -7.051780   90.053400
  C     -0.497155   -6.739170   92.914000
  H     -0.072805   -6.639920   93.882800
  H     -0.664754   -7.810820   92.879800
  C     -1.717270   -5.766650   92.840400
  H     -2.236270   -5.760840   91.866900
  H     -1.378720   -4.825920   93.229800
  C     -2.727480   -6.218190   93.922700
  H     -3.517620   -5.462850   94.091100
  H     -2.328450   -6.322020   94.932600
  H     -3.192870   -7.232560   93.684800
  H      5.314910   -4.850190   95.070900
  H      0.425398   -6.254890   88.327300

 Total Charge           Charge          ....    0
 Multiplicity           Mult            ....    1
 Number of Electrons    NEL             ....  134
 Basis Dimension        Dim             ....  322

ORBITAL ENERGIES
----------------

  NO   OCC          E(Eh)            E(eV)
   0   2.0000     -88.970286     -2421.0046
   1   2.0000     -88.959118     -2420.7007
   2   2.0000     -10.339890      -281.3627
   3   2.0000     -10.333578      -281.1910
   4   2.0000     -10.321496      -280.8622
   5   2.0000     -10.317106      -280.7427
   6   2.0000     -10.311453      -280.5889
   7   2.0000     -10.303276      -280.3664
   8   2.0000     -10.301787      -280.3259
   9   2.0000     -10.296404      -280.1794
  10   2.0000     -10.296050      -280.1698
  11   2.0000     -10.291579      -280.0481
  12   2.0000     -10.287988      -279.9504
  13   2.0000     -10.285885      -279.8931
  14   2.0000     -10.273513      -279.5565
  15   2.0000     -10.265070      -279.3268
  16   2.0000      -8.083889      -219.9738
  17   2.0000      -8.073297      -219.6856
  18   2.0000      -6.042534      -164.4257
  19   2.0000      -6.038721      -164.3219
  20   2.0000      -6.034401      -164.2044
  21   2.0000      -6.032204      -164.1446
  22   2.0000      -6.027925      -164.0282
  23   2.0000      -6.023616      -163.9109
  24   2.0000      -0.998993       -27.1840
  25   2.0000      -0.978775       -26.6338
  26   2.0000      -0.921739       -25.0818
  27   2.0000      -0.909519       -24.7493
  28   2.0000      -0.870061       -23.6756
  29   2.0000      -0.849799       -23.1242
  30   2.0000      -0.841239       -22.8913
  31   2.0000      -0.819091       -22.2886
  32   2.0000      -0.788506       -21.4563
  33   2.0000      -0.768549       -20.9133
  34   2.0000      -0.713543       -19.4165
  35   2.0000      -0.703735       -19.1496
  36   2.0000      -0.696364       -18.9490
  37   2.0000      -0.656084       -17.8529
  38   2.0000      -0.636111       -17.3095
  39   2.0000      -0.618943       -16.8423
  40   2.0000      -0.598875       -16.2962
  41   2.0000      -0.576514       -15.6877
  42   2.0000      -0.566502       -15.4153
  43   2.0000      -0.557782       -15.1780
  44   2.0000      -0.545073       -14.8322
  45   2.0000      -0.527713       -14.3598
  46   2.0000      -0.526022       -14.3138
  47   2.0000      -0.512290       -13.9401
  48   2.0000      -0.504115       -13.7177
  49   2.0000      -0.494139       -13.4462
  50   2.0000      -0.486728       -13.2445
  51   2.0000      -0.480566       -13.0769
  52   2.0000      -0.468621       -12.7518
  53   2.0000      -0.464981       -12.6528
  54   2.0000      -0.456451       -12.4207
  55   2.0000      -0.453504       -12.3405
  56   2.0000      -0.444627       -12.0989
  57   2.0000      -0.438443       -11.9306
  58   2.0000      -0.434454       -11.8221
  59   2.0000      -0.433965       -11.8088
  60   2.0000      -0.426577       -11.6078
  61   2.0000      -0.417926       -11.3723
  62   2.0000      -0.399794       -10.8790
  63   2.0000      -0.356980        -9.7139
  64   2.0000      -0.335170        -9.1204
  65   2.0000      -0.321589        -8.7509
  66   2.0000      -0.286054        -7.7839
  67   0.0000       0.021804         0.5933
  68   0.0000       0.071843         1.9550
  69   0.0000       0.093481         2.5437
  70   0.0000       0.117920         3.2088
  71   0.0000       0.128987         3.5099

MULLIKEN ATOMIC CHARGES
-----------------------
   0 S :    0.110108
   1 C :   -0.119582
   2 C :   -0.112349
   3 C :    0.012669
   4 C :   -0.119596
   5 H :    0.020452
   6 C :    0.046079
   7 H :    0.013143
   8 H :    0.027997
   9 C :    0.027507
  10 H :    0.016608
  11 H :   -0.000055
  12 C :   -0.041811
  13 H :    0.012436
  14 H :    0.018398
  15 H :    0.031285
  16 S :    0.058193
  17 C :   -0.087079
  18 C :   -0.028867
  19 C :   -0.065140
  20 C :   -0.098183
  21 H :    0.021874
  22 C :    0.042331
  23 H :    0.009220
  24 H :    0.033310
  25 C :   -0.045540
  26 H :    0.051987
  27 H :    0.032781
  28 C :   -0.090406
  29 H :    0.035502
  30 H :    0.023302
  31 H :    0.040088
  32 H :    0.054477
  33 H :    0.068861
Sum of atomic charges:    0.0000000

LOEWDIN ATOMIC CHARGES
----------------------
   0 S :    0.384422
   1 C :   -0.196780
   2 C :   -0.062430
   3 C :   -0.069167
   4 C :   -0.172904
   5 H :    0.036764
   6 C :   -0.026387
   7 H :    0.024365
   8 H :    0.036225
   9 C :   -0.026980
  10 H :    0.020465
  11 H :    0.015455
  12 C :   -0.060974
  13 H :    0.018295
  14 H :    0.019008
  15 H :    0.028933
  16 S :    0.358047
  17 C :   -0.166264
  18 C :   -0.075672
  19 C :   -0.052981
  20 C :   -0.190489
  21 H :    0.032560
  22 C :   -0.035369
  23 H :    0.024229
  24 H :    0.035460
  25 C :   -0.028202
  26 H :    0.030651
  27 H :    0.024988
  28 C :   -0.076413
  29 H :    0.024711
  30 H :    0.020836
  31 H :    0.029360
  32 H :    0.033212
  33 H :    0.043025

  Mayer bond orders larger than 0.100000
B(  0-S ,  1-C ) :   1.1174 B(  0-S ,  4-C ) :   1.1443 B(  1-C ,  2-C ) :   1.6320
B(  1-C , 32-H ) :   0.9594 B(  2-C ,  3-C ) :   1.2265 B(  2-C ,  6-C ) :   1.0168
B(  3-C ,  4-C ) :   1.5885 B(  3-C ,  5-H ) :   0.9857 B(  4-C , 20-C ) :   1.0205
B(  6-C ,  7-H ) :   0.9431 B(  6-C ,  8-H ) :   0.9432 B(  6-C ,  9-C ) :   1.0774
B(  9-C , 10-H ) :   0.9542 B(  9-C , 11-H ) :   0.9470 B(  9-C , 12-C ) :   1.0799
B( 12-C , 13-H ) :   0.9739 B( 12-C , 14-H ) :   0.9714 B( 12-C , 15-H ) :   0.9645
B( 16-S , 17-C ) :   1.1237 B( 16-S , 20-C ) :   1.1037 B( 17-C , 18-C ) :   1.6722
B( 17-C , 33-H ) :   0.9617 B( 18-C , 19-C ) :   1.1970 B( 18-C , 21-H ) :   0.9851
B( 19-C , 20-C ) :   1.6360 B( 19-C , 22-C ) :   1.0300 B( 22-C , 23-H ) :   0.9441
B( 22-C , 24-H ) :   0.9378 B( 22-C , 25-C ) :   1.0506 B( 25-C , 26-H ) :   0.9589
B( 25-C , 27-H ) :   0.9531 B( 25-C , 28-C ) :   1.0771 B( 28-C , 29-H ) :   0.9749
B( 28-C , 30-H ) :   0.9726 B( 28-C , 31-H ) :   0.9772

Dispersion correction           -0.014075719
FINAL SINGLE POINT ENERGY     -1339.850954539712

DIPOLE MOMENT
-------------
                                X             Y             Z
Electronic contribution:     15.36844      -0.87058     -25.13734
Nuclear contribution   :    -16.10705       0.91042      25.68520
                        -----------------------------------------
Total Dipole Moment    :     -0.73861       0.03985       0.54786
                        -----------------------------------------
Magnitude (a.u.)       :      0.92047
Magnitude (Debye)      :      2.33966

Rotational constants in cm-1:     0.018150     0.008927     0.006309
Rotational constants in MHz :   544.128696   267.613345   189.141790

                             ****ORCA TERMINATED NORMALLY****
TOTAL RUN TIME: 0 days 0 hours 0 minutes 33 seconds 539 msec
