                         Program Version 4.2.1 -  RELEASE  -
|  1> ! wB97X-D3 SP def2-SVP
|  2> %pal
|  3> nprocs 16
|  4> end
|  5>
|  6> * xyz 0 1
|  7> S 	 -41.4856 	 57.5669 	 109.497
|  8> C 	 -43.0539 	 58.1054 	 108.701
|  9> C 	 -43.0087 	 57.7758 	 107.38
| 10> C 	 -41.9994 	 56.8428 	 107.067
| 11> C 	 -41.2026 	 56.5619 	 108.154
| 12> H 	 -41.7796 	 56.3315 	 106.107
| 13> C 	 -43.8512 	 58.4175 	 106.335
| 14> H 	 -43.8974 	 59.4242 	 106.617
| 15> H 	 -44.9581 	 58.0892 	 106.327
| 16> C 	 -43.4131 	 58.3769 	 104.868
| 17> H 	 -42.4539 	 58.8413 	 104.909
| 18> H 	 -43.3464 	 57.3175 	 104.61
| 19> C 	 -44.3118 	 59.1857 	 103.96
| 20> H 	 -45.3047 	 58.8026 	 103.909
| 21> H 	 -44.3947 	 60.2582 	 104.262
| 22> H 	 -43.9136 	 59.2151 	 102.943
| 23> S 	 -38.6453 	 56.3445 	 109.08
| 24> C 	 -37.748 	 54.8645 	 108.914
| 25> C 	 -38.3337 	 54.01 	 108.03
| 26> C 	 -39.7113 	 54.4474 	 107.678
| 27> C 	 -40.0558 	 55.7002 	 108.142
| 28> H 	 -37.9319 	 53.0443 	 107.835
| 29> C 	 -40.6991 	 53.52 	 106.98
| 30> H 	 -40.6975 	 53.8615 	 105.971
| 31> H 	 -41.6922 	 53.524 	 107.404
| 32> C 	 -40.2967 	 52.0237 	 106.799
| 33> H 	 -40.0688 	 51.6171 	 107.78
| 34> H 	 -39.5153 	 51.8279 	 106.006
| 35> C 	 -41.5066 	 51.2534 	 106.22
| 36> H 	 -42.3429 	 51.2245 	 106.945
| 37> H 	 -41.2704 	 50.2687 	 105.894
| 38> H 	 -41.797 	 51.8888 	 105.346
| 39> H 	 -43.7842 	 58.9001 	 108.944
| 40> H 	 -36.8662 	 54.5035 	 109.455
| 41> *
| 42>
| 43>                          ****END OF INPUT****

CARTESIAN COORDINATES (ANGSTROEM)
---------------------------------
  S    -41.485600   57.566900  109.497000
  C    -43.053900   58.105400  108.701000
  C    -43.008700   57.775800  107.380000
  C    -41.999400   56.842800  107.067000
  C    -41.202600   56.561900  108.154000
  H    -41.779600   56.331500  106.107000
  C    -43.851200   58.417500  106.335000
  H    -43.897400   59.424200  106.617000
  H    -44.958100   58.089200  106.327000
  C    -43.413100   58.376900  104.868000
  H    -42.453900   58.841300  104.909000
  H    -43.346400   57.317500  104.610000
  C    -44.311800   59.185700  103.960000
  H    -45.304700   58.802600  103.909000
  H    -44.394700   60.258200  104.262000
  H    -43.913600   59.215100  102.943000
  S    -38.645300   56.344500  109.080000
  C    -37.748000   54.864500  108.914000
  C    -38.333700   54.010000  108.030000
  C    -39.711300   54.447400  107.678000
  C    -40.055800   55.700200  108.142000
  H    -37.931900   53.044300  107.835000
  C    -40.699100   53.520000  106.980000
  H    -40.697500   53.861500  105.971000
  H    -41.692200   53.524000  107.404000
  C    -40.296700   52.023700  106.799000
  H    -40.068800   51.617100  107.780000
  H    -39.515300   51.827900  106.006000
  C    -41.506600   51.253400  106.220000
  H    -42.342900   51.224500  106.945000
  H    -41.270400   50.268700  105.894000
  H    -41.797000   51.888800  105.346000
  H    -43.784200   58.900100  108.944000
  H    -36.866200   54.503500  109.455000

 Total Charge           Charge          ....    0
 Multiplicity           Mult            ....    1
 Number of Electrons    NEL             ....  134
 Basis Dimension        Dim             ....  322

ORBITAL ENERGIES
----------------

  NO   OCC          E(Eh)            E(eV)
   0   2.0000     -88.970502     -2421.0104
   1   2.0000     -88.959796     -2420.7191
   2   2.0000     -10.327189      -281.0171
   3   2.0000     -10.326648      -281.0024
   4   2.0000     -10.317228      -280.7461
   5   2.0000     -10.314971      -280.6846
   6   2.0000     -10.310137      -280.5531
   7   2.0000     -10.298264      -280.2300
   8   2.0000     -10.294402      -280.1249
   9   2.0000     -10.293448      -280.0990
  10   2.0000     -10.292846      -280.0826
  11   2.0000     -10.291264      -280.0395
  12   2.0000     -10.289142      -279.9818
  13   2.0000     -10.286071      -279.8982
  14   2.0000     -10.281471      -279.7731
  15   2.0000     -10.281334      -279.7693
  16   2.0000      -8.084547      -219.9917
  17   2.0000      -8.074290      -219.7126
  18   2.0000      -6.043234      -164.4448
  19   2.0000      -6.039435      -164.3414
  20   2.0000      -6.034810      -164.2155
  21   2.0000      -6.033068      -164.1681
  22   2.0000      -6.028893      -164.0545
  23   2.0000      -6.024708      -163.9406
  24   2.0000      -1.010068       -27.4853
  25   2.0000      -0.980585       -26.6831
  26   2.0000      -0.921240       -25.0682
  27   2.0000      -0.909190       -24.7403
  28   2.0000      -0.877431       -23.8761
  29   2.0000      -0.853052       -23.2127
  30   2.0000      -0.838946       -22.8289
  31   2.0000      -0.818463       -22.2715
  32   2.0000      -0.784035       -21.3347
  33   2.0000      -0.771457       -20.9924
  34   2.0000      -0.716660       -19.5013
  35   2.0000      -0.695919       -18.9369
  36   2.0000      -0.691852       -18.8263
  37   2.0000      -0.650975       -17.7139
  38   2.0000      -0.638100       -17.3636
  39   2.0000      -0.617142       -16.7933
  40   2.0000      -0.595292       -16.1987
  41   2.0000      -0.582046       -15.8383
  42   2.0000      -0.580649       -15.8003
  43   2.0000      -0.567120       -15.4321
  44   2.0000      -0.525021       -14.2865
  45   2.0000      -0.522080       -14.2065
  46   2.0000      -0.518643       -14.1130
  47   2.0000      -0.508255       -13.8303
  48   2.0000      -0.507370       -13.8063
  49   2.0000      -0.498539       -13.5659
  50   2.0000      -0.490781       -13.3548
  51   2.0000      -0.479240       -13.0408
  52   2.0000      -0.476938       -12.9782
  53   2.0000      -0.462749       -12.5920
  54   2.0000      -0.458150       -12.4669
  55   2.0000      -0.454016       -12.3544
  56   2.0000      -0.451892       -12.2966
  57   2.0000      -0.433548       -11.7974
  58   2.0000      -0.431649       -11.7458
  59   2.0000      -0.431029       -11.7289
  60   2.0000      -0.419853       -11.4248
  61   2.0000      -0.418459       -11.3868
  62   2.0000      -0.406421       -11.0593
  63   2.0000      -0.350764        -9.5448
  64   2.0000      -0.333329        -9.0704
  65   2.0000      -0.325124        -8.8471
  66   2.0000      -0.287312        -7.8182
  67   0.0000       0.018933         0.5152
  68   0.0000       0.067850         1.8463
  69   0.0000       0.096671         2.6305
  70   0.0000       0.125857         3.4247
  71   0.0000       0.129418         3.5216

MULLIKEN ATOMIC CHARGES
-----------------------
   0 S :    0.110640
   1 C :   -0.113288
   2 C :   -0.056667
   3 C :   -0.018186
   4 C :   -0.109699
   5 H :    0.026632
   6 C :    0.020018
   7 H :    0.005790
   8 H :    0.042315
   9 C :   -0.073824
  10 H :    0.028400
  11 H :    0.040618
  12 C :   -0.030888
  13 H :    0.025258
  14 H :    0.032428
  15 H :    0.036439
  16 S :    0.065128
  17 C :   -0.069741
  18 C :   -0.020095
  19 C :   -0.068433
  20 C :   -0.132781
  21 H :    0.015885
  22 C :    0.049213
  23 H :    0.029979
  24 H :    0.045139
  25 C :   -0.127330
  26 H :    0.036292
  27 H :    0.046401
  28 C :   -0.043424
  29 H :    0.037123
  30 H :    0.032093
  31 H :    0.025312
  32 H :    0.049604
  33 H :    0.063647
Sum of atomic charges:    0.0000000

LOEWDIN ATOMIC CHARGES
----------------------
   0 S :    0.401007
   1 C :   -0.187107
   2 C :   -0.060887
   3 C :   -0.068931
   4 C :   -0.202391
   5 H :    0.038737
   6 C :   -0.040133
   7 H :    0.020496
   8 H :    0.039146
   9 C :   -0.039136
  10 H :    0.024110
  11 H :    0.024392
  12 C :   -0.061995
  13 H :    0.020375
  14 H :    0.031479
  15 H :    0.030297
  16 S :    0.362905
  17 C :   -0.183159
  18 C :   -0.071116
  19 C :   -0.051895
  20 C :   -0.174817
  21 H :    0.026632
  22 C :   -0.033400
  23 H :    0.030158
  24 H :    0.034446
  25 C :   -0.045246
  26 H :    0.018679
  27 H :    0.031299
  28 C :   -0.062285
  29 H :    0.024745
  30 H :    0.019381
  31 H :    0.027706
  32 H :    0.036596
  33 H :    0.039911

  Mayer bond orders larger than 0.100000
B(  0-S ,  1-C ) :   1.0893 B(  0-S ,  4-C ) :   1.1530 B(  1-C ,  2-C ) :   1.6531
B(  1-C , 32-H ) :   0.9627 B(  2-C ,  3-C ) :   1.2262 B(  2-C ,  6-C ) :   1.0035
B(  3-C ,  4-C ) :   1.5486 B(  3-C ,  5-H ) :   0.9914 B(  4-C , 20-C ) :   1.0760
B(  6-C ,  7-H ) :   0.9371 B(  6-C ,  8-H ) :   0.9292 B(  6-C ,  9-C ) :   1.0866
B(  9-C , 10-H ) :   0.9523 B(  9-C , 11-H ) :   0.9452 B(  9-C , 12-C ) :   1.0947
B( 12-C , 13-H ) :   0.9732 B( 12-C , 14-H ) :   0.9715 B( 12-C , 15-H ) :   0.9712
B( 16-S , 17-C ) :   1.1374 B( 16-S , 20-C ) :   1.0817 B( 17-C , 18-C ) :   1.6575
B( 17-C , 33-H ) :   0.9572 B( 18-C , 19-C ) :   1.2004 B( 18-C , 21-H ) :   0.9844
B( 19-C , 20-C ) :   1.6621 B( 19-C , 22-C ) :   1.0279 B( 22-C , 23-H ) :   0.9168
B( 22-C , 24-H ) :   0.9505 B( 22-C , 25-C ) :   1.0786 B( 25-C , 26-H ) :   0.9549
B( 25-C , 27-H ) :   0.9520 B( 25-C , 28-C ) :   1.0803 B( 28-C , 29-H ) :   0.9754
B( 28-C , 30-H ) :   0.9747 B( 28-C , 31-H ) :   0.9726

Dispersion correction           -0.013136649
FINAL SINGLE POINT ENERGY     -1339.851489883973

DIPOLE MOMENT
-------------
                                X             Y             Z
Electronic contribution:     15.30806       9.41958      23.17775
Nuclear contribution   :    -15.57106      -9.70692     -23.81198
                        -----------------------------------------
Total Dipole Moment    :     -0.26300      -0.28734      -0.63423
                        -----------------------------------------
Magnitude (a.u.)       :      0.74430
Magnitude (Debye)      :      1.89187

Rotational constants in cm-1:     0.016585     0.008359     0.006274
Rotational constants in MHz :   497.220421   250.608139   188.089264

                             ****ORCA TERMINATED NORMALLY****
TOTAL RUN TIME: 0 days 0 hours 0 minutes 29 seconds 53 msec
