                         Program Version 4.2.1 -  RELEASE  -
|  1> ! wB97X-D3 SP def2-SVP
|  2> %pal
|  3> nprocs 16
|  4> end
|  5>
|  6> * xyz 0 1
|  7> S 	 -95.2175 	 39.2621 	 125.905
|  8> C 	 -95.179 	 38.7317 	 124.241
|  9> C 	 -95.9713 	 39.5623 	 123.481
| 10> C 	 -96.4909 	 40.7029 	 124.141
| 11> C 	 -96.2843 	 40.6248 	 125.553
| 12> H 	 -97.0407 	 41.5017 	 123.739
| 13> C 	 -96.1198 	 39.2406 	 122
| 14> H 	 -95.4387 	 38.4138 	 121.731
| 15> H 	 -95.6103 	 40.0843 	 121.47
| 16> C 	 -97.5305 	 38.8151 	 121.536
| 17> H 	 -98.0352 	 38.1547 	 122.16
| 18> H 	 -98.3007 	 39.6066 	 121.464
| 19> C 	 -97.5408 	 38.1552 	 120.145
| 20> H 	 -98.5239 	 37.8232 	 119.756
| 21> H 	 -97.1711 	 38.7372 	 119.359
| 22> H 	 -96.9145 	 37.2083 	 120.221
| 23> S 	 -97.1983 	 40.8206 	 128.177
| 24> C 	 -97.2374 	 42.3394 	 128.924
| 25> C 	 -97.0399 	 43.3816 	 127.971
| 26> C 	 -96.989 	 42.9369 	 126.641
| 27> C 	 -96.652 	 41.5496 	 126.637
| 28> H 	 -97.151 	 44.4222 	 128.246
| 29> C 	 -96.754 	 43.9203 	 125.422
| 30> H 	 -97.1698 	 43.4364 	 124.52
| 31> H 	 -95.6375 	 44.1063 	 125.223
| 32> C 	 -97.4251 	 45.2873 	 125.456
| 33> H 	 -96.9482 	 45.9062 	 126.273
| 34> H 	 -98.425 	 45.2541 	 125.723
| 35> C 	 -97.2161 	 46.0985 	 124.152
| 36> H 	 -97.5841 	 45.7307 	 123.179
| 37> H 	 -96.1108 	 46.3325 	 124.079
| 38> H 	 -97.7007 	 47.0288 	 124.162
| 39> H 	 -94.729 	 37.8235 	 123.906
| 40> H 	 -97.4461 	 42.5675 	 129.956
| 41> *
| 42>
| 43>                          ****END OF INPUT****

CARTESIAN COORDINATES (ANGSTROEM)
---------------------------------
  S    -95.217500   39.262100  125.905000
  C    -95.179000   38.731700  124.241000
  C    -95.971300   39.562300  123.481000
  C    -96.490900   40.702900  124.141000
  C    -96.284300   40.624800  125.553000
  H    -97.040700   41.501700  123.739000
  C    -96.119800   39.240600  122.000000
  H    -95.438700   38.413800  121.731000
  H    -95.610300   40.084300  121.470000
  C    -97.530500   38.815100  121.536000
  H    -98.035200   38.154700  122.160000
  H    -98.300700   39.606600  121.464000
  C    -97.540800   38.155200  120.145000
  H    -98.523900   37.823200  119.756000
  H    -97.171100   38.737200  119.359000
  H    -96.914500   37.208300  120.221000
  S    -97.198300   40.820600  128.177000
  C    -97.237400   42.339400  128.924000
  C    -97.039900   43.381600  127.971000
  C    -96.989000   42.936900  126.641000
  C    -96.652000   41.549600  126.637000
  H    -97.151000   44.422200  128.246000
  C    -96.754000   43.920300  125.422000
  H    -97.169800   43.436400  124.520000
  H    -95.637500   44.106300  125.223000
  C    -97.425100   45.287300  125.456000
  H    -96.948200   45.906200  126.273000
  H    -98.425000   45.254100  125.723000
  C    -97.216100   46.098500  124.152000
  H    -97.584100   45.730700  123.179000
  H    -96.110800   46.332500  124.079000
  H    -97.700700   47.028800  124.162000
  H    -94.729000   37.823500  123.906000
  H    -97.446100   42.567500  129.956000

 Total Charge           Charge          ....    0
 Multiplicity           Mult            ....    1
 Number of Electrons    NEL             ....  134
 Basis Dimension        Dim             ....  322

ORBITAL ENERGIES
----------------

  NO   OCC          E(Eh)            E(eV)
   0   2.0000     -88.971624     -2421.0410
   1   2.0000     -88.964660     -2420.8515
   2   2.0000     -10.337190      -281.2892
   3   2.0000     -10.335469      -281.2424
   4   2.0000     -10.316881      -280.7366
   5   2.0000     -10.312733      -280.6237
   6   2.0000     -10.309445      -280.5343
   7   2.0000     -10.306087      -280.4429
   8   2.0000     -10.300132      -280.2808
   9   2.0000     -10.298151      -280.2269
  10   2.0000     -10.295929      -280.1665
  11   2.0000     -10.295203      -280.1467
  12   2.0000     -10.290705      -280.0243
  13   2.0000     -10.285299      -279.8772
  14   2.0000     -10.283918      -279.8396
  15   2.0000     -10.278545      -279.6934
  16   2.0000      -8.086295      -220.0393
  17   2.0000      -8.079071      -219.8427
  18   2.0000      -6.044608      -164.4821
  19   2.0000      -6.040822      -164.3791
  20   2.0000      -6.037514      -164.2891
  21   2.0000      -6.037242      -164.2817
  22   2.0000      -6.033494      -164.1797
  23   2.0000      -6.030035      -164.0856
  24   2.0000      -1.003439       -27.3050
  25   2.0000      -0.983456       -26.7612
  26   2.0000      -0.908167       -24.7125
  27   2.0000      -0.906495       -24.6670
  28   2.0000      -0.865597       -23.5541
  29   2.0000      -0.855009       -23.2660
  30   2.0000      -0.843856       -22.9625
  31   2.0000      -0.810189       -22.0464
  32   2.0000      -0.784725       -21.3535
  33   2.0000      -0.767367       -20.8811
  34   2.0000      -0.711703       -19.3664
  35   2.0000      -0.702914       -19.1273
  36   2.0000      -0.695837       -18.9347
  37   2.0000      -0.654657       -17.8141
  38   2.0000      -0.642293       -17.4777
  39   2.0000      -0.620010       -16.8713
  40   2.0000      -0.598072       -16.2744
  41   2.0000      -0.570592       -15.5266
  42   2.0000      -0.564399       -15.3581
  43   2.0000      -0.554543       -15.0899
  44   2.0000      -0.527985       -14.3672
  45   2.0000      -0.519171       -14.1274
  46   2.0000      -0.516320       -14.0498
  47   2.0000      -0.512238       -13.9387
  48   2.0000      -0.504402       -13.7255
  49   2.0000      -0.500521       -13.6199
  50   2.0000      -0.493901       -13.4397
  51   2.0000      -0.477544       -12.9946
  52   2.0000      -0.469962       -12.7883
  53   2.0000      -0.463124       -12.6023
  54   2.0000      -0.458157       -12.4671
  55   2.0000      -0.451794       -12.2939
  56   2.0000      -0.445392       -12.1197
  57   2.0000      -0.441755       -12.0208
  58   2.0000      -0.434432       -11.8215
  59   2.0000      -0.424640       -11.5550
  60   2.0000      -0.419567       -11.4170
  61   2.0000      -0.416378       -11.3302
  62   2.0000      -0.405832       -11.0432
  63   2.0000      -0.350219        -9.5299
  64   2.0000      -0.336074        -9.1451
  65   2.0000      -0.330397        -8.9906
  66   2.0000      -0.278624        -7.5818
  67   0.0000       0.014250         0.3878
  68   0.0000       0.073934         2.0119
  69   0.0000       0.103660         2.8207
  70   0.0000       0.122523         3.3340
  71   0.0000       0.132855         3.6152

MULLIKEN ATOMIC CHARGES
-----------------------
   0 S :    0.101706
   1 C :   -0.111082
   2 C :   -0.087936
   3 C :    0.048326
   4 C :   -0.144827
   5 H :   -0.009624
   6 C :    0.054019
   7 H :    0.009484
   8 H :    0.043429
   9 C :   -0.024179
  10 H :    0.016220
  11 H :    0.023356
  12 C :   -0.079135
  13 H :    0.031933
  14 H :    0.022167
  15 H :    0.030853
  16 S :    0.125751
  17 C :   -0.081835
  18 C :   -0.044669
  19 C :   -0.009991
  20 C :   -0.141187
  21 H :    0.018588
  22 C :   -0.001577
  23 H :    0.030770
  24 H :    0.063532
  25 C :   -0.076566
  26 H :    0.035443
  27 H :    0.019053
  28 C :   -0.053781
  29 H :    0.033645
  30 H :    0.037250
  31 H :    0.019345
  32 H :    0.045374
  33 H :    0.056145
Sum of atomic charges:    0.0000000

LOEWDIN ATOMIC CHARGES
----------------------
   0 S :    0.404896
   1 C :   -0.200758
   2 C :   -0.063294
   3 C :   -0.061533
   4 C :   -0.183132
   5 H :    0.020570
   6 C :   -0.033083
   7 H :    0.029841
   8 H :    0.039456
   9 C :   -0.041102
  10 H :    0.020005
  11 H :    0.026073
  12 C :   -0.067724
  13 H :    0.028377
  14 H :    0.013627
  15 H :    0.027474
  16 S :    0.430946
  17 C :   -0.208862
  18 C :   -0.072540
  19 C :   -0.054067
  20 C :   -0.188759
  21 H :    0.027891
  22 C :   -0.035699
  23 H :    0.027948
  24 H :    0.046500
  25 C :   -0.042096
  26 H :    0.029779
  27 H :    0.013218
  28 C :   -0.068817
  29 H :    0.026418
  30 H :    0.033272
  31 H :    0.020528
  32 H :    0.025333
  33 H :    0.029313

  Mayer bond orders larger than 0.100000
B(  0-S ,  1-C ) :   1.1333 B(  0-S ,  4-C ) :   1.1727 B(  1-C ,  2-C ) :   1.5893
B(  1-C ,  4-C ) :   0.1046 B(  1-C , 32-H ) :   0.9711 B(  2-C ,  3-C ) :   1.2645
B(  2-C ,  6-C ) :   1.0290 B(  3-C ,  4-C ) :   1.5177 B(  3-C ,  5-H ) :   1.0019
B(  4-C , 20-C ) :   1.0694 B(  6-C ,  7-H ) :   0.9469 B(  6-C ,  8-H ) :   0.9363
B(  6-C ,  9-C ) :   1.0402 B(  9-C , 10-H ) :   0.9572 B(  9-C , 11-H ) :   0.9528
B(  9-C , 12-C ) :   1.0868 B( 12-C , 13-H ) :   0.9749 B( 12-C , 14-H ) :   0.9781
B( 12-C , 15-H ) :   0.9747 B( 16-S , 17-C ) :   1.1794 B( 16-S , 20-C ) :   1.1650
B( 17-C , 18-C ) :   1.5493 B( 17-C , 20-C ) :   0.1186 B( 17-C , 33-H ) :   0.9705
B( 18-C , 19-C ) :   1.2969 B( 18-C , 21-H ) :   0.9835 B( 19-C , 20-C ) :   1.5112
B( 19-C , 22-C ) :   1.0312 B( 22-C , 23-H ) :   0.9413 B( 22-C , 24-H ) :   0.9424
B( 22-C , 25-C ) :   1.0648 B( 25-C , 26-H ) :   0.9464 B( 25-C , 27-H ) :   0.9603
B( 25-C , 28-C ) :   1.0845 B( 28-C , 29-H ) :   0.9750 B( 28-C , 30-H ) :   0.9742
B( 28-C , 31-H ) :   0.9715

Dispersion correction           -0.013067166
FINAL SINGLE POINT ENERGY     -1339.852776039088

DIPOLE MOMENT
-------------
                                X             Y             Z
Electronic contribution:      6.04770     -11.83414      27.08427
Nuclear contribution   :     -6.28619      12.30373     -27.54205
                        -----------------------------------------
Total Dipole Moment    :     -0.23849       0.46958      -0.45777
                        -----------------------------------------
Magnitude (a.u.)       :      0.69781
Magnitude (Debye)      :      1.77370

Rotational constants in cm-1:     0.016655     0.007983     0.005884
Rotational constants in MHz :   499.293577   239.319506   176.407279

                             ****ORCA TERMINATED NORMALLY****
TOTAL RUN TIME: 0 days 0 hours 0 minutes 31 seconds 686 msec
