                         Program Version 4.2.1 -  RELEASE  -
|  1> ! wB97X-D3 SP def2-SVP
|  2> %pal
|  3> nprocs 16
|  4> end
|  5>
|  6> * xyz 0 1
|  7> S 	 -16.1828 	 48.5765 	 44.2009
|  8> C 	 -17.5806 	 48.1923 	 43.193
|  9> C 	 -17.4481 	 47.0503 	 42.3796
| 10> C 	 -16.3189 	 46.3289 	 42.86
| 11> C 	 -15.6448 	 46.9105 	 43.9915
| 12> H 	 -16.0039 	 45.3459 	 42.548
| 13> C 	 -18.5221 	 46.492 	 41.4076
| 14> H 	 -18.0821 	 46.6985 	 40.4805
| 15> H 	 -19.405 	 47.1066 	 41.4596
| 16> C 	 -18.9121 	 44.9621 	 41.4194
| 17> H 	 -18.0244 	 44.4185 	 41.5393
| 18> H 	 -19.5699 	 44.7452 	 42.3081
| 19> C 	 -19.5677 	 44.5205 	 40.1138
| 20> H 	 -20.6268 	 44.6534 	 39.9929
| 21> H 	 -18.9855 	 44.7762 	 39.1774
| 22> H 	 -19.5429 	 43.4385 	 40.2781
| 23> S 	 -14.7653 	 46.6289 	 46.6254
| 24> C 	 -13.5789 	 45.5592 	 47.0584
| 25> C 	 -13.0185 	 44.9754 	 45.9356
| 26> C 	 -13.6947 	 45.2977 	 44.6954
| 27> C 	 -14.7538 	 46.1887 	 44.9269
| 28> H 	 -12.1278 	 44.3555 	 46.0821
| 29> C 	 -13.1845 	 44.8305 	 43.3596
| 30> H 	 -12.0641 	 44.9511 	 43.3826
| 31> H 	 -13.5832 	 45.5324 	 42.5536
| 32> C 	 -13.4734 	 43.3478 	 43.0292
| 33> H 	 -14.5719 	 43.3395 	 43.0593
| 34> H 	 -13.1099 	 42.5745 	 43.8003
| 35> C 	 -13.1424 	 42.9439 	 41.5589
| 36> H 	 -12.0706 	 43.0411 	 41.4344
| 37> H 	 -13.738 	 43.5633 	 40.9043
| 38> H 	 -13.3867 	 41.8924 	 41.4049
| 39> H 	 -18.4089 	 48.8646 	 43.0208
| 40> H 	 -13.1391 	 45.2901 	 48.0026
| 41> *
| 42>
| 43>                          ****END OF INPUT****

CARTESIAN COORDINATES (ANGSTROEM)
---------------------------------
  S    -16.182800   48.576500   44.200900
  C    -17.580600   48.192300   43.193000
  C    -17.448100   47.050300   42.379600
  C    -16.318900   46.328900   42.860000
  C    -15.644800   46.910500   43.991500
  H    -16.003900   45.345900   42.548000
  C    -18.522100   46.492000   41.407600
  H    -18.082100   46.698500   40.480500
  H    -19.405000   47.106600   41.459600
  C    -18.912100   44.962100   41.419400
  H    -18.024400   44.418500   41.539300
  H    -19.569900   44.745200   42.308100
  C    -19.567700   44.520500   40.113800
  H    -20.626800   44.653400   39.992900
  H    -18.985500   44.776200   39.177400
  H    -19.542900   43.438500   40.278100
  S    -14.765300   46.628900   46.625400
  C    -13.578900   45.559200   47.058400
  C    -13.018500   44.975400   45.935600
  C    -13.694700   45.297700   44.695400
  C    -14.753800   46.188700   44.926900
  H    -12.127800   44.355500   46.082100
  C    -13.184500   44.830500   43.359600
  H    -12.064100   44.951100   43.382600
  H    -13.583200   45.532400   42.553600
  C    -13.473400   43.347800   43.029200
  H    -14.571900   43.339500   43.059300
  H    -13.109900   42.574500   43.800300
  C    -13.142400   42.943900   41.558900
  H    -12.070600   43.041100   41.434400
  H    -13.738000   43.563300   40.904300
  H    -13.386700   41.892400   41.404900
  H    -18.408900   48.864600   43.020800
  H    -13.139100   45.290100   48.002600

 Total Charge           Charge          ....    0
 Multiplicity           Mult            ....    1
 Number of Electrons    NEL             ....  134
 Basis Dimension        Dim             ....  322

ORBITAL ENERGIES
----------------

  NO   OCC          E(Eh)            E(eV)
   0   2.0000     -88.971155     -2421.0282
   1   2.0000     -88.965811     -2420.8828
   2   2.0000     -10.336736      -281.2769
   3   2.0000     -10.330342      -281.1029
   4   2.0000     -10.313980      -280.6577
   5   2.0000     -10.309703      -280.5413
   6   2.0000     -10.307523      -280.4820
   7   2.0000     -10.305919      -280.4383
   8   2.0000     -10.300132      -280.2808
   9   2.0000     -10.298740      -280.2430
  10   2.0000     -10.294909      -280.1387
  11   2.0000     -10.294478      -280.1270
  12   2.0000     -10.293237      -280.0932
  13   2.0000     -10.291985      -280.0591
  14   2.0000     -10.285002      -279.8691
  15   2.0000     -10.280427      -279.7446
  16   2.0000      -8.085024      -220.0047
  17   2.0000      -8.082007      -219.9226
  18   2.0000      -6.043511      -164.4523
  19   2.0000      -6.040450      -164.3690
  20   2.0000      -6.039924      -164.3547
  21   2.0000      -6.036170      -164.2525
  22   2.0000      -6.035600      -164.2370
  23   2.0000      -6.032855      -164.1623
  24   2.0000      -1.007646       -27.4194
  25   2.0000      -0.981807       -26.7163
  26   2.0000      -0.908159       -24.7123
  27   2.0000      -0.907401       -24.6916
  28   2.0000      -0.867387       -23.6028
  29   2.0000      -0.853581       -23.2271
  30   2.0000      -0.844229       -22.9726
  31   2.0000      -0.809953       -22.0399
  32   2.0000      -0.784245       -21.3404
  33   2.0000      -0.772273       -21.0146
  34   2.0000      -0.709114       -19.2960
  35   2.0000      -0.695943       -18.9376
  36   2.0000      -0.688959       -18.7475
  37   2.0000      -0.656306       -17.8590
  38   2.0000      -0.633873       -17.2485
  39   2.0000      -0.619561       -16.8591
  40   2.0000      -0.591582       -16.0978
  41   2.0000      -0.569643       -15.5008
  42   2.0000      -0.565918       -15.3994
  43   2.0000      -0.563224       -15.3261
  44   2.0000      -0.524561       -14.2740
  45   2.0000      -0.522304       -14.2126
  46   2.0000      -0.510464       -13.8904
  47   2.0000      -0.509484       -13.8638
  48   2.0000      -0.508215       -13.8292
  49   2.0000      -0.499261       -13.5856
  50   2.0000      -0.494136       -13.4461
  51   2.0000      -0.476949       -12.9785
  52   2.0000      -0.474182       -12.9031
  53   2.0000      -0.470611       -12.8060
  54   2.0000      -0.456494       -12.4218
  55   2.0000      -0.450792       -12.2667
  56   2.0000      -0.445637       -12.1264
  57   2.0000      -0.439487       -11.9590
  58   2.0000      -0.433309       -11.7909
  59   2.0000      -0.427125       -11.6227
  60   2.0000      -0.424560       -11.5529
  61   2.0000      -0.414321       -11.2742
  62   2.0000      -0.408682       -11.1208
  63   2.0000      -0.350547        -9.5389
  64   2.0000      -0.331952        -9.0329
  65   2.0000      -0.326430        -8.8826
  66   2.0000      -0.278764        -7.5856
  67   0.0000       0.019384         0.5275
  68   0.0000       0.075858         2.0642
  69   0.0000       0.104883         2.8540
  70   0.0000       0.119105         3.2410
  71   0.0000       0.133735         3.6391

MULLIKEN ATOMIC CHARGES
-----------------------
   0 S :    0.125716
   1 C :   -0.138996
   2 C :   -0.057082
   3 C :    0.005207
   4 C :   -0.160515
   5 H :   -0.006202
   6 C :    0.094406
   7 H :    0.015645
   8 H :    0.018005
   9 C :   -0.064994
  10 H :    0.017329
  11 H :    0.049102
  12 C :   -0.073376
  13 H :    0.037634
  14 H :    0.050787
  15 H :    0.029161
  16 S :    0.124797
  17 C :   -0.068922
  18 C :   -0.064915
  19 C :   -0.026509
  20 C :   -0.145062
  21 H :    0.020350
  22 C :    0.017319
  23 H :    0.036272
  24 H :    0.042672
  25 C :   -0.122392
  26 H :    0.022654
  27 H :    0.050115
  28 C :   -0.018271
  29 H :    0.032213
  30 H :    0.030497
  31 H :    0.036451
  32 H :    0.040394
  33 H :    0.050508
Sum of atomic charges:    0.0000000

LOEWDIN ATOMIC CHARGES
----------------------
   0 S :    0.394397
   1 C :   -0.194432
   2 C :   -0.057084
   3 C :   -0.062160
   4 C :   -0.187734
   5 H :    0.019621
   6 C :   -0.026287
   7 H :    0.025831
   8 H :    0.028336
   9 C :   -0.033034
  10 H :    0.014975
  11 H :    0.036061
  12 C :   -0.073332
  13 H :    0.023828
  14 H :    0.034578
  15 H :    0.033559
  16 S :    0.448406
  17 C :   -0.219699
  18 C :   -0.077990
  19 C :   -0.056562
  20 C :   -0.203588
  21 H :    0.030645
  22 C :   -0.043547
  23 H :    0.034616
  24 H :    0.037980
  25 C :   -0.050684
  26 H :    0.018829
  27 H :    0.033143
  28 C :   -0.059395
  29 H :    0.022807
  30 H :    0.023398
  31 H :    0.028118
  32 H :    0.020722
  33 H :    0.035676

  Mayer bond orders larger than 0.100000
B(  0-S ,  1-C ) :   1.1388 B(  0-S ,  4-C ) :   1.1456 B(  1-C ,  2-C ) :   1.5995
B(  1-C , 32-H ) :   0.9620 B(  2-C ,  3-C ) :   1.2547 B(  2-C ,  6-C ) :   1.0130
B(  3-C ,  4-C ) :   1.5457 B(  3-C ,  5-H ) :   0.9872 B(  4-C , 20-C ) :   1.0822
B(  6-C ,  7-H ) :   0.9286 B(  6-C ,  8-H ) :   0.9471 B(  6-C ,  9-C ) :   1.0645
B(  9-C , 10-H ) :   0.9555 B(  9-C , 11-H ) :   0.9541 B(  9-C , 12-C ) :   1.0816
B( 12-C , 13-H ) :   0.9767 B( 12-C , 14-H ) :   0.9728 B( 12-C , 15-H ) :   0.9723
B( 16-S , 17-C ) :   1.1795 B( 16-S , 20-C ) :   1.1455 B( 17-C , 18-C ) :   1.5876
B( 17-C , 33-H ) :   0.9667 B( 18-C , 19-C ) :   1.2677 B( 18-C , 21-H ) :   0.9877
B( 19-C , 20-C ) :   1.5383 B( 19-C , 22-C ) :   1.0503 B( 22-C , 23-H ) :   0.9330
B( 22-C , 24-H ) :   0.9320 B( 22-C , 25-C ) :   1.0506 B( 25-C , 26-H ) :   0.9555
B( 25-C , 27-H ) :   0.9550 B( 25-C , 28-C ) :   1.0797 B( 28-C , 29-H ) :   0.9770
B( 28-C , 30-H ) :   0.9747 B( 28-C , 31-H ) :   0.9746

Dispersion correction           -0.013666157
FINAL SINGLE POINT ENERGY     -1339.854560291270

DIPOLE MOMENT
-------------
                                X             Y             Z
Electronic contribution:      5.07215      21.63584      24.23418
Nuclear contribution   :     -5.10432     -22.21209     -24.65218
                        -----------------------------------------
Total Dipole Moment    :     -0.03217      -0.57625      -0.41800
                        -----------------------------------------
Magnitude (a.u.)       :      0.71262
Magnitude (Debye)      :      1.81133

Rotational constants in cm-1:     0.015673     0.009243     0.006446
Rotational constants in MHz :   469.858484   277.096894   193.237590

                             ****ORCA TERMINATED NORMALLY****
TOTAL RUN TIME: 0 days 0 hours 0 minutes 32 seconds 676 msec
