                         Program Version 4.2.1 -  RELEASE  -
|  1> ! wB97X-D3 SP def2-SVP
|  2> %pal
|  3> nprocs 16
|  4> end
|  5>
|  6> * xyz 0 1
|  7> S 	 -107.985 	 53.4369 	 117.305
|  8> C 	 -108.413 	 52.2106 	 118.471
|  9> C 	 -107.434 	 52.0485 	 119.387
| 10> C 	 -106.229 	 52.722 	 119.011
| 11> C 	 -106.319 	 53.4523 	 117.785
| 12> H 	 -105.273 	 52.7166 	 119.48
| 13> C 	 -107.599 	 51.1654 	 120.648
| 14> H 	 -108.692 	 50.9101 	 120.749
| 15> H 	 -107.427 	 51.8288 	 121.525
| 16> C 	 -106.871 	 49.844 	 120.672
| 17> H 	 -106.978 	 49.3102 	 119.709
| 18> H 	 -105.793 	 50.1294 	 120.808
| 19> C 	 -107.21 	 48.9513 	 121.918
| 20> H 	 -106.771 	 47.9885 	 121.772
| 21> H 	 -106.947 	 49.3655 	 122.893
| 22> H 	 -108.257 	 48.7984 	 121.867
| 23> S 	 -105.486 	 56.0288 	 117.572
| 24> C 	 -104.228 	 56.4647 	 116.468
| 25> C 	 -103.718 	 55.3586 	 115.832
| 26> C 	 -104.331 	 54.152 	 116.262
| 27> C 	 -105.384 	 54.381 	 117.177
| 28> H 	 -102.943 	 55.5716 	 115.122
| 29> C 	 -104.095 	 52.7963 	 115.548
| 30> H 	 -103.911 	 52.9181 	 114.474
| 31> H 	 -105.038 	 52.2589 	 115.572
| 32> C 	 -103.001 	 51.7435 	 116.08
| 33> H 	 -103.128 	 50.8465 	 115.584
| 34> H 	 -103.3 	 51.5475 	 117.13
| 35> C 	 -101.614 	 52.309 	 115.964
| 36> H 	 -101.631 	 53.3412 	 116.278
| 37> H 	 -101.31 	 52.4237 	 114.89
| 38> H 	 -100.797 	 51.7645 	 116.507
| 39> H 	 -109.406 	 51.7516 	 118.689
| 40> H 	 -103.905 	 57.4672 	 116.202
| 41> *
| 42>
| 43>                          ****END OF INPUT****

CARTESIAN COORDINATES (ANGSTROEM)
---------------------------------
  S    -107.985000   53.436900  117.305000
  C    -108.413000   52.210600  118.471000
  C    -107.434000   52.048500  119.387000
  C    -106.229000   52.722000  119.011000
  C    -106.319000   53.452300  117.785000
  H    -105.273000   52.716600  119.480000
  C    -107.599000   51.165400  120.648000
  H    -108.692000   50.910100  120.749000
  H    -107.427000   51.828800  121.525000
  C    -106.871000   49.844000  120.672000
  H    -106.978000   49.310200  119.709000
  H    -105.793000   50.129400  120.808000
  C    -107.210000   48.951300  121.918000
  H    -106.771000   47.988500  121.772000
  H    -106.947000   49.365500  122.893000
  H    -108.257000   48.798400  121.867000
  S    -105.486000   56.028800  117.572000
  C    -104.228000   56.464700  116.468000
  C    -103.718000   55.358600  115.832000
  C    -104.331000   54.152000  116.262000
  C    -105.384000   54.381000  117.177000
  H    -102.943000   55.571600  115.122000
  C    -104.095000   52.796300  115.548000
  H    -103.911000   52.918100  114.474000
  H    -105.038000   52.258900  115.572000
  C    -103.001000   51.743500  116.080000
  H    -103.128000   50.846500  115.584000
  H    -103.300000   51.547500  117.130000
  C    -101.614000   52.309000  115.964000
  H    -101.631000   53.341200  116.278000
  H    -101.310000   52.423700  114.890000
  H    -100.797000   51.764500  116.507000
  H    -109.406000   51.751600  118.689000
  H    -103.905000   57.467200  116.202000

 Total Charge           Charge          ....    0
 Multiplicity           Mult            ....    1
 Number of Electrons    NEL             ....  134
 Basis Dimension        Dim             ....  322

ORBITAL ENERGIES
----------------

  NO   OCC          E(Eh)            E(eV)
   0   2.0000     -88.968284     -2420.9501
   1   2.0000     -88.966367     -2420.8979
   2   2.0000     -10.331788      -281.1423
   3   2.0000     -10.325702      -280.9766
   4   2.0000     -10.314338      -280.6674
   5   2.0000     -10.314285      -280.6660
   6   2.0000     -10.309051      -280.5235
   7   2.0000     -10.301014      -280.3048
   8   2.0000     -10.299358      -280.2598
   9   2.0000     -10.298668      -280.2410
  10   2.0000     -10.293022      -280.0874
  11   2.0000     -10.291769      -280.0533
  12   2.0000     -10.291426      -280.0439
  13   2.0000     -10.281298      -279.7683
  14   2.0000     -10.278034      -279.6795
  15   2.0000     -10.275899      -279.6214
  16   2.0000      -8.084128      -219.9803
  17   2.0000      -8.081313      -219.9037
  18   2.0000      -6.042473      -164.4241
  19   2.0000      -6.039793      -164.3511
  20   2.0000      -6.038281      -164.3100
  21   2.0000      -6.035734      -164.2407
  22   2.0000      -6.035178      -164.2255
  23   2.0000      -6.032118      -164.1423
  24   2.0000      -1.012363       -27.5478
  25   2.0000      -0.989687       -26.9307
  26   2.0000      -0.910224       -24.7685
  27   2.0000      -0.898470       -24.4486
  28   2.0000      -0.874544       -23.7975
  29   2.0000      -0.848603       -23.0917
  30   2.0000      -0.843996       -22.9663
  31   2.0000      -0.815512       -22.1912
  32   2.0000      -0.783596       -21.3227
  33   2.0000      -0.769498       -20.9391
  34   2.0000      -0.712412       -19.3857
  35   2.0000      -0.695517       -18.9260
  36   2.0000      -0.689350       -18.7582
  37   2.0000      -0.658532       -17.9196
  38   2.0000      -0.641313       -17.4510
  39   2.0000      -0.616951       -16.7881
  40   2.0000      -0.588724       -16.0200
  41   2.0000      -0.575853       -15.6698
  42   2.0000      -0.562407       -15.3039
  43   2.0000      -0.545409       -14.8413
  44   2.0000      -0.541739       -14.7415
  45   2.0000      -0.526253       -14.3201
  46   2.0000      -0.517178       -14.0731
  47   2.0000      -0.506635       -13.7863
  48   2.0000      -0.503049       -13.6887
  49   2.0000      -0.499861       -13.6019
  50   2.0000      -0.490790       -13.3551
  51   2.0000      -0.478427       -13.0187
  52   2.0000      -0.472243       -12.8504
  53   2.0000      -0.466664       -12.6986
  54   2.0000      -0.466018       -12.6810
  55   2.0000      -0.446681       -12.1548
  56   2.0000      -0.442831       -12.0501
  57   2.0000      -0.437169       -11.8960
  58   2.0000      -0.429554       -11.6888
  59   2.0000      -0.423066       -11.5122
  60   2.0000      -0.418763       -11.3951
  61   2.0000      -0.413943       -11.2640
  62   2.0000      -0.408490       -11.1156
  63   2.0000      -0.339965        -9.2509
  64   2.0000      -0.330648        -8.9974
  65   2.0000      -0.323060        -8.7909
  66   2.0000      -0.309409        -8.4195
  67   0.0000       0.039998         1.0884
  68   0.0000       0.052392         1.4257
  69   0.0000       0.114087         3.1045
  70   0.0000       0.125060         3.4031
  71   0.0000       0.135702         3.6926

MULLIKEN ATOMIC CHARGES
-----------------------
   0 S :    0.118001
   1 C :   -0.114047
   2 C :   -0.089653
   3 C :    0.061220
   4 C :   -0.190482
   5 H :    0.003552
   6 C :    0.039645
   7 H :    0.007865
   8 H :    0.042262
   9 C :   -0.098589
  10 H :    0.044483
  11 H :    0.033938
  12 C :   -0.018723
  13 H :    0.032521
  14 H :    0.039794
  15 H :    0.015804
  16 S :    0.141909
  17 C :   -0.105406
  18 C :   -0.039858
  19 C :    0.027529
  20 C :   -0.190530
  21 H :    0.017179
  22 C :   -0.003785
  23 H :    0.028564
  24 H :    0.028260
  25 C :   -0.016744
  26 H :    0.016168
  27 H :    0.024461
  28 C :   -0.060857
  29 H :    0.022249
  30 H :    0.021875
  31 H :    0.046854
  32 H :    0.059430
  33 H :    0.055110
Sum of atomic charges:   -0.0000000

LOEWDIN ATOMIC CHARGES
----------------------
   0 S :    0.420564
   1 C :   -0.203423
   2 C :   -0.071687
   3 C :   -0.052000
   4 C :   -0.208261
   5 H :    0.025720
   6 C :   -0.038015
   7 H :    0.025814
   8 H :    0.036280
   9 C :   -0.046215
  10 H :    0.030911
  11 H :    0.026371
  12 C :   -0.057904
  13 H :    0.026230
  14 H :    0.028294
  15 H :    0.017472
  16 S :    0.449839
  17 C :   -0.196421
  18 C :   -0.073046
  19 C :   -0.053341
  20 C :   -0.230416
  21 H :    0.032348
  22 C :   -0.031413
  23 H :    0.028296
  24 H :    0.030351
  25 C :   -0.031104
  26 H :    0.012998
  27 H :    0.025368
  28 C :   -0.076358
  29 H :    0.022860
  30 H :    0.027131
  31 H :    0.030439
  32 H :    0.040774
  33 H :    0.031545

  Mayer bond orders larger than 0.100000
B(  0-S ,  1-C ) :   1.1450 B(  0-S ,  4-C ) :   1.1643 B(  1-C ,  2-C ) :   1.6264
B(  1-C ,  4-C ) :   0.1016 B(  1-C , 32-H ) :   0.9552 B(  2-C ,  3-C ) :   1.2397
B(  2-C ,  6-C ) :   1.0168 B(  3-C ,  4-C ) :   1.5557 B(  3-C ,  5-H ) :   1.0046
B(  4-C , 20-C ) :   1.0217 B(  6-C ,  7-H ) :   0.9407 B(  6-C ,  8-H ) :   0.9394
B(  6-C ,  9-C ) :   1.0604 B(  9-C , 10-H ) :   0.9561 B(  9-C , 11-H ) :   0.9549
B(  9-C , 12-C ) :   1.0768 B( 12-C , 13-H ) :   0.9743 B( 12-C , 14-H ) :   0.9765
B( 12-C , 15-H ) :   0.9756 B( 16-S , 17-C ) :   1.1685 B( 16-S , 20-C ) :   1.1851
B( 17-C , 18-C ) :   1.6012 B( 17-C , 20-C ) :   0.1031 B( 17-C , 33-H ) :   0.9656
B( 18-C , 19-C ) :   1.2493 B( 18-C , 21-H ) :   0.9966 B( 19-C , 20-C ) :   1.5566
B( 19-C , 22-C ) :   1.0296 B( 22-C , 23-H ) :   0.9523 B( 22-C , 24-H ) :   0.9362
B( 22-C , 25-C ) :   1.0679 B( 25-C , 26-H ) :   0.9562 B( 25-C , 27-H ) :   0.9541
B( 25-C , 28-C ) :   1.0742 B( 28-C , 29-H ) :   0.9747 B( 28-C , 30-H ) :   0.9718
B( 28-C , 31-H ) :   0.9733

Dispersion correction           -0.013905147
FINAL SINGLE POINT ENERGY     -1339.875073827934

DIPOLE MOMENT
-------------
                                X             Y             Z
Electronic contribution:    -11.30533      23.77444      -7.47481
Nuclear contribution   :     11.47049     -24.08885       7.64995
                        -----------------------------------------
Total Dipole Moment    :      0.16516      -0.31442       0.17514
                        -----------------------------------------
Magnitude (a.u.)       :      0.39599
Magnitude (Debye)      :      1.00652

Rotational constants in cm-1:     0.018940     0.007883     0.006352
Rotational constants in MHz :   567.795273   236.334184   190.419709

                             ****ORCA TERMINATED NORMALLY****
TOTAL RUN TIME: 0 days 0 hours 0 minutes 32 seconds 296 msec
