                         Program Version 4.2.1 -  RELEASE  -
|  1> ! wB97X-D3 SP def2-SVP
|  2> %pal
|  3> nprocs 16
|  4> end
|  5>
|  6> * xyz 0 1
|  7> S 	 -6.10007 	 64.0417 	 48.32
|  8> C 	 -7.53814 	 64.3179 	 49.2791
|  9> C 	 -7.19834 	 64.4372 	 50.5704
| 10> C 	 -5.78537 	 64.4853 	 50.8156
| 11> C 	 -5.02363 	 64.2652 	 49.662
| 12> H 	 -5.27632 	 64.5849 	 51.7514
| 13> C 	 -8.24912 	 64.5852 	 51.6279
| 14> H 	 -8.14899 	 63.7417 	 52.3271
| 15> H 	 -9.27399 	 64.4081 	 51.1618
| 16> C 	 -8.1904 	 65.8588 	 52.3905
| 17> H 	 -7.33281 	 65.8798 	 53.0905
| 18> H 	 -8.06401 	 66.6379 	 51.5733
| 19> C 	 -9.49437 	 66.0575 	 53.2713
| 20> H 	 -10.4733 	 65.8429 	 52.818
| 21> H 	 -9.51816 	 65.4931 	 54.1695
| 22> H 	 -9.6054 	 67.0531 	 53.5134
| 23> S 	 -2.68052 	 63.5012 	 50.8515
| 24> C 	 -1.17071 	 63.5977 	 49.9694
| 25> C 	 -1.35219 	 64.2703 	 48.8106
| 26> C 	 -2.76166 	 64.4202 	 48.4186
| 27> C 	 -3.56645 	 64.214 	 49.5139
| 28> H 	 -0.403942 	 64.5873 	 48.3963
| 29> C 	 -3.11398 	 65.0294 	 47.1846
| 30> H 	 -2.56057 	 65.9723 	 47.0609
| 31> H 	 -4.14173 	 65.4252 	 47.0332
| 32> C 	 -2.91958 	 64.0159 	 46.0419
| 33> H 	 -1.87435 	 63.6403 	 45.9695
| 34> H 	 -3.12486 	 64.4936 	 45.0099
| 35> C 	 -3.84646 	 62.7967 	 46.0167
| 36> H 	 -4.86309 	 63.13 	 45.6285
| 37> H 	 -3.82545 	 62.4094 	 46.9951
| 38> H 	 -3.44917 	 62.0307 	 45.3044
| 39> H 	 -8.57775 	 64.3827 	 48.8197
| 40> H 	 -0.182504 	 63.1774 	 50.2474
| 41> *
| 42>
| 43>                          ****END OF INPUT****

CARTESIAN COORDINATES (ANGSTROEM)
---------------------------------
  S     -6.100070   64.041700   48.320000
  C     -7.538140   64.317900   49.279100
  C     -7.198340   64.437200   50.570400
  C     -5.785370   64.485300   50.815600
  C     -5.023630   64.265200   49.662000
  H     -5.276320   64.584900   51.751400
  C     -8.249120   64.585200   51.627900
  H     -8.148990   63.741700   52.327100
  H     -9.273990   64.408100   51.161800
  C     -8.190400   65.858800   52.390500
  H     -7.332810   65.879800   53.090500
  H     -8.064010   66.637900   51.573300
  C     -9.494370   66.057500   53.271300
  H    -10.473300   65.842900   52.818000
  H     -9.518160   65.493100   54.169500
  H     -9.605400   67.053100   53.513400
  S     -2.680520   63.501200   50.851500
  C     -1.170710   63.597700   49.969400
  C     -1.352190   64.270300   48.810600
  C     -2.761660   64.420200   48.418600
  C     -3.566450   64.214000   49.513900
  H     -0.403942   64.587300   48.396300
  C     -3.113980   65.029400   47.184600
  H     -2.560570   65.972300   47.060900
  H     -4.141730   65.425200   47.033200
  C     -2.919580   64.015900   46.041900
  H     -1.874350   63.640300   45.969500
  H     -3.124860   64.493600   45.009900
  C     -3.846460   62.796700   46.016700
  H     -4.863090   63.130000   45.628500
  H     -3.825450   62.409400   46.995100
  H     -3.449170   62.030700   45.304400
  H     -8.577750   64.382700   48.819700
  H     -0.182504   63.177400   50.247400

 Total Charge           Charge          ....    0
 Multiplicity           Mult            ....    1
 Number of Electrons    NEL             ....  134
 Basis Dimension        Dim             ....  322

ORBITAL ENERGIES
----------------

  NO   OCC          E(Eh)            E(eV)
   0   2.0000     -88.963681     -2420.8248
   1   2.0000     -88.962015     -2420.7795
   2   2.0000     -10.332748      -281.1684
   3   2.0000     -10.330758      -281.1142
   4   2.0000     -10.318680      -280.7855
   5   2.0000     -10.312594      -280.6199
   6   2.0000     -10.306315      -280.4491
   7   2.0000     -10.295510      -280.1551
   8   2.0000     -10.295101      -280.1439
   9   2.0000     -10.293747      -280.1071
  10   2.0000     -10.293535      -280.1013
  11   2.0000     -10.288853      -279.9739
  12   2.0000     -10.288726      -279.9705
  13   2.0000     -10.288041      -279.9518
  14   2.0000     -10.274629      -279.5869
  15   2.0000     -10.271987      -279.5150
  16   2.0000      -8.078616      -219.8303
  17   2.0000      -8.076592      -219.7752
  18   2.0000      -6.037351      -164.2847
  19   2.0000      -6.035178      -164.2256
  20   2.0000      -6.033184      -164.1713
  21   2.0000      -6.030998      -164.1118
  22   2.0000      -6.029029      -164.0582
  23   2.0000      -6.027367      -164.0130
  24   2.0000      -1.011302       -27.5189
  25   2.0000      -0.989445       -26.9242
  26   2.0000      -0.916995       -24.9527
  27   2.0000      -0.913421       -24.8555
  28   2.0000      -0.873271       -23.7629
  29   2.0000      -0.847803       -23.0699
  30   2.0000      -0.842182       -22.9169
  31   2.0000      -0.818141       -22.2628
  32   2.0000      -0.786527       -21.4025
  33   2.0000      -0.773335       -21.0435
  34   2.0000      -0.711000       -19.3473
  35   2.0000      -0.693144       -18.8614
  36   2.0000      -0.680902       -18.5283
  37   2.0000      -0.661089       -17.9892
  38   2.0000      -0.634401       -17.2629
  39   2.0000      -0.621121       -16.9016
  40   2.0000      -0.603008       -16.4087
  41   2.0000      -0.575230       -15.6528
  42   2.0000      -0.559497       -15.2247
  43   2.0000      -0.558688       -15.2027
  44   2.0000      -0.540200       -14.6996
  45   2.0000      -0.524256       -14.2657
  46   2.0000      -0.518335       -14.1046
  47   2.0000      -0.513002       -13.9595
  48   2.0000      -0.504459       -13.7270
  49   2.0000      -0.502607       -13.6766
  50   2.0000      -0.489137       -13.3101
  51   2.0000      -0.474179       -12.9031
  52   2.0000      -0.473163       -12.8754
  53   2.0000      -0.462682       -12.5902
  54   2.0000      -0.460999       -12.5444
  55   2.0000      -0.446211       -12.1420
  56   2.0000      -0.439931       -11.9711
  57   2.0000      -0.437901       -11.9159
  58   2.0000      -0.432925       -11.7805
  59   2.0000      -0.419899       -11.4260
  60   2.0000      -0.418034       -11.3753
  61   2.0000      -0.409965       -11.1557
  62   2.0000      -0.393141       -10.6979
  63   2.0000      -0.360355        -9.8058
  64   2.0000      -0.328064        -8.9271
  65   2.0000      -0.325540        -8.8584
  66   2.0000      -0.290024        -7.8920
  67   0.0000       0.026118         0.7107
  68   0.0000       0.082104         2.2342
  69   0.0000       0.110951         3.0191
  70   0.0000       0.118357         3.2207
  71   0.0000       0.131006         3.5649

MULLIKEN ATOMIC CHARGES
-----------------------
   0 S :    0.083031
   1 C :   -0.156177
   2 C :   -0.059655
   3 C :    0.010143
   4 C :   -0.115172
   5 H :    0.005217
   6 C :    0.059068
   7 H :    0.028492
   8 H :    0.020519
   9 C :   -0.102226
  10 H :    0.043950
  11 H :    0.044831
  12 C :   -0.015636
  13 H :    0.018988
  14 H :    0.025478
  15 H :    0.014783
  16 S :    0.086799
  17 C :   -0.105352
  18 C :   -0.027668
  19 C :   -0.058292
  20 C :   -0.085991
  21 H :    0.024252
  22 C :    0.045030
  23 H :    0.041083
  24 H :    0.030987
  25 C :   -0.139317
  26 H :    0.031777
  27 H :    0.029788
  28 C :   -0.046381
  29 H :    0.044675
  30 H :    0.033080
  31 H :    0.042274
  32 H :    0.077220
  33 H :    0.070400
Sum of atomic charges:    0.0000000

LOEWDIN ATOMIC CHARGES
----------------------
   0 S :    0.425837
   1 C :   -0.208847
   2 C :   -0.070213
   3 C :   -0.073169
   4 C :   -0.183528
   5 H :    0.024067
   6 C :   -0.040273
   7 H :    0.030810
   8 H :    0.033063
   9 C :   -0.040582
  10 H :    0.029237
  11 H :    0.032852
  12 C :   -0.063029
  13 H :    0.026722
  14 H :    0.022549
  15 H :    0.016818
  16 S :    0.391854
  17 C :   -0.186299
  18 C :   -0.066979
  19 C :   -0.060066
  20 C :   -0.185474
  21 H :    0.035171
  22 C :   -0.052266
  23 H :    0.042220
  24 H :    0.028325
  25 C :   -0.047820
  26 H :    0.020327
  27 H :    0.026662
  28 C :   -0.070305
  29 H :    0.028356
  30 H :    0.012648
  31 H :    0.033206
  32 H :    0.046452
  33 H :    0.041675

  Mayer bond orders larger than 0.100000
B(  0-S ,  1-C ) :   1.1191 B(  0-S ,  4-C ) :   1.1615 B(  1-C ,  2-C ) :   1.6253
B(  1-C , 32-H ) :   0.9602 B(  2-C ,  3-C ) :   1.2239 B(  2-C ,  6-C ) :   1.0310
B(  3-C ,  4-C ) :   1.5507 B(  3-C ,  5-H ) :   0.9976 B(  4-C , 20-C ) :   1.0640
B(  6-C ,  7-H ) :   0.9267 B(  6-C ,  8-H ) :   0.9474 B(  6-C ,  9-C ) :   1.0588
B(  9-C , 10-H ) :   0.9489 B(  9-C , 11-H ) :   0.9615 B(  9-C , 12-C ) :   1.0728
B( 12-C , 13-H ) :   0.9758 B( 12-C , 14-H ) :   0.9749 B( 12-C , 15-H ) :   0.9750
B( 16-S , 17-C ) :   1.1280 B( 16-S , 20-C ) :   1.1169 B( 17-C , 18-C ) :   1.6833
B( 17-C , 33-H ) :   0.9598 B( 18-C , 19-C ) :   1.1528 B( 18-C , 21-H ) :   0.9874
B( 19-C , 20-C ) :   1.6034 B( 19-C , 22-C ) :   1.0716 B( 22-C , 23-H ) :   0.9313
B( 22-C , 24-H ) :   0.9355 B( 22-C , 25-C ) :   1.0416 B( 25-C , 26-H ) :   0.9626
B( 25-C , 27-H ) :   0.9577 B( 25-C , 28-C ) :   1.0765 B( 28-C , 29-H ) :   0.9733
B( 28-C , 30-H ) :   0.9730 B( 28-C , 31-H ) :   0.9708

Dispersion correction           -0.014623849
FINAL SINGLE POINT ENERGY     -1339.862055733338

DIPOLE MOMENT
-------------
                                X             Y             Z
Electronic contribution:     11.82039      -5.14213       0.96839
Nuclear contribution   :    -11.80330       5.35072      -0.94984
                        -----------------------------------------
Total Dipole Moment    :      0.01709       0.20860       0.01855
                        -----------------------------------------
Magnitude (a.u.)       :      0.21012
Magnitude (Debye)      :      0.53407

Rotational constants in cm-1:     0.024697     0.007812     0.006349
Rotational constants in MHz :   740.397974   234.185004   190.351272

                             ****ORCA TERMINATED NORMALLY****
TOTAL RUN TIME: 0 days 0 hours 0 minutes 33 seconds 763 msec
