                         Program Version 4.2.1 -  RELEASE  -
|  1> ! wB97X-D3 SP def2-SVP
|  2> %pal
|  3> nprocs 16
|  4> end
|  5>
|  6> * xyz 0 1
|  7> S 	 33.6141 	 23.5831 	 51.0074
|  8> C 	 33.1951 	 23.8617 	 52.6832
|  9> C 	 33.1562 	 22.7311 	 53.4552
| 10> C 	 33.2997 	 21.5345 	 52.5927
| 11> C 	 33.6705 	 21.8219 	 51.2778
| 12> H 	 33.0542 	 20.5776 	 52.9721
| 13> C 	 32.6668 	 22.5924 	 54.8935
| 14> H 	 33.441 	 22.8031 	 55.5992
| 15> H 	 32.5474 	 21.5344 	 55.0494
| 16> C 	 31.3249 	 23.1355 	 55.2566
| 17> H 	 31.2616 	 24.2045 	 55.0739
| 18> H 	 30.4748 	 22.6718 	 54.6803
| 19> C 	 30.9725 	 22.8835 	 56.7647
| 20> H 	 31.5418 	 21.9422 	 57.0264
| 21> H 	 31.3446 	 23.6486 	 57.4524
| 22> H 	 29.9397 	 22.7446 	 57.0639
| 23> S 	 33.4494 	 21.3871 	 48.615
| 24> C 	 34.0928 	 19.9329 	 47.9482
| 25> C 	 34.5234 	 19.0113 	 48.8859
| 26> C 	 34.4793 	 19.6074 	 50.1705
| 27> C 	 34.0058 	 20.9219 	 50.1559
| 28> H 	 34.8147 	 17.9516 	 48.5952
| 29> C 	 34.8881 	 18.8212 	 51.4133
| 30> H 	 34.6829 	 17.7051 	 51.303
| 31> H 	 34.1688 	 19.1484 	 52.1227
| 32> C 	 36.3364 	 19.0751 	 51.9778
| 33> H 	 36.3587 	 19.9854 	 52.5364
| 34> H 	 37.0182 	 19.2257 	 51.1589
| 35> C 	 36.8104 	 18.0088 	 52.8921
| 36> H 	 37.0467 	 17.0541 	 52.3127
| 37> H 	 36.0941 	 17.7081 	 53.6465
| 38> H 	 37.6958 	 18.112 	 53.45
| 39> H 	 32.992 	 24.8771 	 53.1003
| 40> H 	 33.9392 	 19.6587 	 46.8963
| 41> *
| 42>
| 43>                          ****END OF INPUT****

CARTESIAN COORDINATES (ANGSTROEM)
---------------------------------
  S     33.614100   23.583100   51.007400
  C     33.195100   23.861700   52.683200
  C     33.156200   22.731100   53.455200
  C     33.299700   21.534500   52.592700
  C     33.670500   21.821900   51.277800
  H     33.054200   20.577600   52.972100
  C     32.666800   22.592400   54.893500
  H     33.441000   22.803100   55.599200
  H     32.547400   21.534400   55.049400
  C     31.324900   23.135500   55.256600
  H     31.261600   24.204500   55.073900
  H     30.474800   22.671800   54.680300
  C     30.972500   22.883500   56.764700
  H     31.541800   21.942200   57.026400
  H     31.344600   23.648600   57.452400
  H     29.939700   22.744600   57.063900
  S     33.449400   21.387100   48.615000
  C     34.092800   19.932900   47.948200
  C     34.523400   19.011300   48.885900
  C     34.479300   19.607400   50.170500
  C     34.005800   20.921900   50.155900
  H     34.814700   17.951600   48.595200
  C     34.888100   18.821200   51.413300
  H     34.682900   17.705100   51.303000
  H     34.168800   19.148400   52.122700
  C     36.336400   19.075100   51.977800
  H     36.358700   19.985400   52.536400
  H     37.018200   19.225700   51.158900
  C     36.810400   18.008800   52.892100
  H     37.046700   17.054100   52.312700
  H     36.094100   17.708100   53.646500
  H     37.695800   18.112000   53.450000
  H     32.992000   24.877100   53.100300
  H     33.939200   19.658700   46.896300

 Total Charge           Charge          ....    0
 Multiplicity           Mult            ....    1
 Number of Electrons    NEL             ....  134
 Basis Dimension        Dim             ....  322

ORBITAL ENERGIES
----------------

  NO   OCC          E(Eh)            E(eV)
   0   2.0000     -88.969599     -2420.9859
   1   2.0000     -88.966893     -2420.9122
   2   2.0000     -10.336518      -281.2709
   3   2.0000     -10.325630      -280.9747
   4   2.0000     -10.317106      -280.7427
   5   2.0000     -10.316231      -280.7189
   6   2.0000     -10.304391      -280.3967
   7   2.0000     -10.304188      -280.3912
   8   2.0000     -10.299679      -280.2685
   9   2.0000     -10.297833      -280.2183
  10   2.0000     -10.293488      -280.1001
  11   2.0000     -10.292498      -280.0731
  12   2.0000     -10.290861      -280.0286
  13   2.0000     -10.284370      -279.8519
  14   2.0000     -10.280214      -279.7388
  15   2.0000     -10.272728      -279.5351
  16   2.0000      -8.085615      -220.0208
  17   2.0000      -8.081183      -219.9002
  18   2.0000      -6.043903      -164.4630
  19   2.0000      -6.040010      -164.3570
  20   2.0000      -6.039839      -164.3524
  21   2.0000      -6.036474      -164.2608
  22   2.0000      -6.035854      -164.2439
  23   2.0000      -6.031722      -164.1315
  24   2.0000      -1.011569       -27.5262
  25   2.0000      -0.982388       -26.7321
  26   2.0000      -0.915086       -24.9007
  27   2.0000      -0.906881       -24.6775
  28   2.0000      -0.868543       -23.6343
  29   2.0000      -0.858079       -23.3495
  30   2.0000      -0.843554       -22.9543
  31   2.0000      -0.811768       -22.0893
  32   2.0000      -0.782431       -21.2910
  33   2.0000      -0.770781       -20.9740
  34   2.0000      -0.707779       -19.2597
  35   2.0000      -0.705727       -19.2038
  36   2.0000      -0.690331       -18.7849
  37   2.0000      -0.665302       -18.1038
  38   2.0000      -0.634334       -17.2611
  39   2.0000      -0.622554       -16.9406
  40   2.0000      -0.594303       -16.1718
  41   2.0000      -0.572426       -15.5765
  42   2.0000      -0.561829       -15.2881
  43   2.0000      -0.554786       -15.0965
  44   2.0000      -0.527433       -14.3522
  45   2.0000      -0.522826       -14.2268
  46   2.0000      -0.520985       -14.1767
  47   2.0000      -0.513149       -13.9635
  48   2.0000      -0.503976       -13.7139
  49   2.0000      -0.493662       -13.4332
  50   2.0000      -0.489090       -13.3088
  51   2.0000      -0.482420       -13.1273
  52   2.0000      -0.474246       -12.9049
  53   2.0000      -0.461391       -12.5551
  54   2.0000      -0.457334       -12.4447
  55   2.0000      -0.451735       -12.2923
  56   2.0000      -0.446450       -12.1485
  57   2.0000      -0.437231       -11.8977
  58   2.0000      -0.432462       -11.7679
  59   2.0000      -0.429173       -11.6784
  60   2.0000      -0.422096       -11.4858
  61   2.0000      -0.413018       -11.2388
  62   2.0000      -0.408854       -11.1255
  63   2.0000      -0.356945        -9.7130
  64   2.0000      -0.335762        -9.1365
  65   2.0000      -0.329287        -8.9604
  66   2.0000      -0.285382        -7.7656
  67   0.0000       0.023181         0.6308
  68   0.0000       0.080712         2.1963
  69   0.0000       0.095153         2.5892
  70   0.0000       0.116541         3.1712
  71   0.0000       0.137297         3.7361

MULLIKEN ATOMIC CHARGES
-----------------------
   0 S :    0.095384
   1 C :   -0.134261
   2 C :   -0.083404
   3 C :   -0.003446
   4 C :   -0.121951
   5 H :    0.019492
   6 C :    0.075461
   7 H :    0.033777
   8 H :    0.003048
   9 C :   -0.068482
  10 H :    0.027463
  11 H :    0.044020
  12 C :   -0.081573
  13 H :    0.025449
  14 H :    0.035968
  15 H :    0.039229
  16 S :    0.119271
  17 C :   -0.096569
  18 C :   -0.057086
  19 C :   -0.075068
  20 C :   -0.109378
  21 H :    0.048424
  22 C :    0.057421
  23 H :    0.032704
  24 H :   -0.007603
  25 C :   -0.003558
  26 H :    0.026592
  27 H :    0.027615
  28 C :   -0.056935
  29 H :    0.023088
  30 H :    0.020730
  31 H :    0.020682
  32 H :    0.063558
  33 H :    0.059941
Sum of atomic charges:   -0.0000000

LOEWDIN ATOMIC CHARGES
----------------------
   0 S :    0.383442
   1 C :   -0.196343
   2 C :   -0.061415
   3 C :   -0.062015
   4 C :   -0.177228
   5 H :    0.021008
   6 C :   -0.037980
   7 H :    0.031943
   8 H :    0.028957
   9 C :   -0.040986
  10 H :    0.018335
  11 H :    0.034612
  12 C :   -0.072717
  13 H :    0.028230
  14 H :    0.025002
  15 H :    0.025334
  16 S :    0.441420
  17 C :   -0.195787
  18 C :   -0.075424
  19 C :   -0.055541
  20 C :   -0.218769
  21 H :    0.048436
  22 C :   -0.030805
  23 H :    0.036888
  24 H :    0.021081
  25 C :   -0.034511
  26 H :    0.025034
  27 H :    0.024235
  28 C :   -0.071765
  29 H :    0.029058
  30 H :    0.023070
  31 H :    0.019973
  32 H :    0.036082
  33 H :    0.029147

  Mayer bond orders larger than 0.100000
B(  0-S ,  1-C ) :   1.1270 B(  0-S ,  4-C ) :   1.1350 B(  1-C ,  2-C ) :   1.6531
B(  1-C , 32-H ) :   0.9605 B(  2-C ,  3-C ) :   1.2235 B(  2-C ,  6-C ) :   1.0211
B(  3-C ,  4-C ) :   1.5958 B(  3-C ,  5-H ) :   0.9824 B(  4-C , 20-C ) :   1.0421
B(  6-C ,  7-H ) :   0.9310 B(  6-C ,  8-H ) :   0.9330 B(  6-C ,  9-C ) :   1.0718
B(  9-C , 10-H ) :   0.9587 B(  9-C , 11-H ) :   0.9583 B(  9-C , 12-C ) :   1.0574
B( 12-C , 13-H ) :   0.9771 B( 12-C , 14-H ) :   0.9767 B( 12-C , 15-H ) :   0.9790
B( 16-S , 17-C ) :   1.1772 B( 16-S , 20-C ) :   1.1592 B( 17-C , 18-C ) :   1.5836
B( 17-C , 33-H ) :   0.9635 B( 18-C , 19-C ) :   1.2695 B( 18-C , 21-H ) :   0.9858
B( 19-C , 20-C ) :   1.5718 B( 19-C , 22-C ) :   1.0368 B( 22-C , 23-H ) :   0.9462
B( 22-C , 24-H ) :   0.9219 B( 22-C , 25-C ) :   1.0474 B( 25-C , 26-H ) :   0.9495
B( 25-C , 27-H ) :   0.9604 B( 25-C , 28-C ) :   1.0901 B( 28-C , 29-H ) :   0.9715
B( 28-C , 30-H ) :   0.9717 B( 28-C , 31-H ) :   0.9725

Dispersion correction           -0.013526567
FINAL SINGLE POINT ENERGY     -1339.869881749407

DIPOLE MOMENT
-------------
                                X             Y             Z
Electronic contribution:     -1.16003      11.61489     -28.08265
Nuclear contribution   :      1.00645     -12.04814      28.57257
                        -----------------------------------------
Total Dipole Moment    :     -0.15358      -0.43325       0.48991
                        -----------------------------------------
Magnitude (a.u.)       :      0.67180
Magnitude (Debye)      :      1.70757

Rotational constants in cm-1:     0.018047     0.008142     0.006201
Rotational constants in MHz :   541.025472   244.096928   185.916143

                             ****ORCA TERMINATED NORMALLY****
TOTAL RUN TIME: 0 days 0 hours 0 minutes 33 seconds 507 msec
