                         Program Version 4.2.1 -  RELEASE  -
|  1> ! wB97X-D3 SP def2-SVP
|  2> %pal
|  3> nprocs 16
|  4> end
|  5>
|  6> * xyz 0 1
|  7> S 	 67.812 	 14.9714 	 74.2613
|  8> C 	 66.4285 	 15.598 	 73.3632
|  9> C 	 66.2223 	 16.929 	 73.6906
| 10> C 	 67.1555 	 17.4085 	 74.6628
| 11> C 	 68.0282 	 16.4548 	 75.1713
| 12> H 	 67.0507 	 18.2857 	 75.2116
| 13> C 	 65.2138 	 17.8905 	 73.078
| 14> H 	 64.3527 	 17.29 	 72.7514
| 15> H 	 65.8184 	 18.3106 	 72.2467
| 16> C 	 64.6212 	 18.991 	 73.979
| 17> H 	 65.3463 	 19.7217 	 74.3095
| 18> H 	 63.8732 	 19.5518 	 73.4088
| 19> C 	 64.0096 	 18.3657 	 75.2294
| 20> H 	 64.7783 	 17.8989 	 75.9175
| 21> H 	 63.377 	 18.9679 	 75.8381
| 22> H 	 63.4122 	 17.5353 	 74.926
| 23> S 	 70.809 	 16.3361 	 75.5976
| 24> C 	 71.449 	 17.026 	 77.0535
| 25> C 	 70.4366 	 17.4677 	 77.8431
| 26> C 	 69.115 	 17.3097 	 77.3282
| 27> C 	 69.144 	 16.6573 	 76.1493
| 28> H 	 70.5795 	 17.92 	 78.7882
| 29> C 	 67.9183 	 17.6988 	 78.1175
| 30> H 	 67.0302 	 17.7398 	 77.5584
| 31> H 	 68.0669 	 18.7299 	 78.3173
| 32> C 	 67.6996 	 17.0193 	 79.4678
| 33> H 	 66.908 	 17.596 	 79.939
| 34> H 	 68.6123 	 17.0672 	 80.1129
| 35> C 	 67.1121 	 15.5613 	 79.3639
| 36> H 	 67.8478 	 14.9754 	 78.7068
| 37> H 	 66.1542 	 15.5716 	 78.7785
| 38> H 	 67.1085 	 15.1346 	 80.3343
| 39> H 	 65.9814 	 15.1001 	 72.4952
| 40> H 	 72.4706 	 16.9876 	 77.4406
| 41> *
| 42>
| 43>                          ****END OF INPUT****

CARTESIAN COORDINATES (ANGSTROEM)
---------------------------------
  S     67.812000   14.971400   74.261300
  C     66.428500   15.598000   73.363200
  C     66.222300   16.929000   73.690600
  C     67.155500   17.408500   74.662800
  C     68.028200   16.454800   75.171300
  H     67.050700   18.285700   75.211600
  C     65.213800   17.890500   73.078000
  H     64.352700   17.290000   72.751400
  H     65.818400   18.310600   72.246700
  C     64.621200   18.991000   73.979000
  H     65.346300   19.721700   74.309500
  H     63.873200   19.551800   73.408800
  C     64.009600   18.365700   75.229400
  H     64.778300   17.898900   75.917500
  H     63.377000   18.967900   75.838100
  H     63.412200   17.535300   74.926000
  S     70.809000   16.336100   75.597600
  C     71.449000   17.026000   77.053500
  C     70.436600   17.467700   77.843100
  C     69.115000   17.309700   77.328200
  C     69.144000   16.657300   76.149300
  H     70.579500   17.920000   78.788200
  C     67.918300   17.698800   78.117500
  H     67.030200   17.739800   77.558400
  H     68.066900   18.729900   78.317300
  C     67.699600   17.019300   79.467800
  H     66.908000   17.596000   79.939000
  H     68.612300   17.067200   80.112900
  C     67.112100   15.561300   79.363900
  H     67.847800   14.975400   78.706800
  H     66.154200   15.571600   78.778500
  H     67.108500   15.134600   80.334300
  H     65.981400   15.100100   72.495200
  H     72.470600   16.987600   77.440600

 Total Charge           Charge          ....    0
 Multiplicity           Mult            ....    1
 Number of Electrons    NEL             ....  134
 Basis Dimension        Dim             ....  322

ORBITAL ENERGIES
----------------

  NO   OCC          E(Eh)            E(eV)
   0   2.0000     -88.964086     -2420.8359
   1   2.0000     -88.963866     -2420.8299
   2   2.0000     -10.332711      -281.1674
   3   2.0000     -10.327537      -281.0266
   4   2.0000     -10.316850      -280.7358
   5   2.0000     -10.315859      -280.7088
   6   2.0000     -10.302429      -280.3434
   7   2.0000     -10.297988      -280.2225
   8   2.0000     -10.296837      -280.1912
   9   2.0000     -10.291890      -280.0566
  10   2.0000     -10.290815      -280.0273
  11   2.0000     -10.287717      -279.9430
  12   2.0000     -10.286921      -279.9214
  13   2.0000     -10.283947      -279.8404
  14   2.0000     -10.281970      -279.7866
  15   2.0000     -10.275806      -279.6189
  16   2.0000      -8.078832      -219.8362
  17   2.0000      -8.078252      -219.8204
  18   2.0000      -6.037526      -164.2894
  19   2.0000      -6.036821      -164.2702
  20   2.0000      -6.033383      -164.1767
  21   2.0000      -6.032646      -164.1567
  22   2.0000      -6.029334      -164.0665
  23   2.0000      -6.029131      -164.0610
  24   2.0000      -1.006813       -27.3968
  25   2.0000      -0.985449       -26.8154
  26   2.0000      -0.913986       -24.8708
  27   2.0000      -0.912954       -24.8427
  28   2.0000      -0.867843       -23.6152
  29   2.0000      -0.848687       -23.0940
  30   2.0000      -0.840731       -22.8774
  31   2.0000      -0.815829       -22.1998
  32   2.0000      -0.786627       -21.4052
  33   2.0000      -0.775817       -21.1111
  34   2.0000      -0.709432       -19.3046
  35   2.0000      -0.697261       -18.9734
  36   2.0000      -0.694990       -18.9116
  37   2.0000      -0.660692       -17.9783
  38   2.0000      -0.639624       -17.4050
  39   2.0000      -0.622998       -16.9526
  40   2.0000      -0.605264       -16.4701
  41   2.0000      -0.569167       -15.4878
  42   2.0000      -0.558829       -15.2065
  43   2.0000      -0.553551       -15.0629
  44   2.0000      -0.539927       -14.6922
  45   2.0000      -0.532747       -14.4968
  46   2.0000      -0.523609       -14.2481
  47   2.0000      -0.510200       -13.8832
  48   2.0000      -0.503590       -13.7034
  49   2.0000      -0.497319       -13.5327
  50   2.0000      -0.487812       -13.2740
  51   2.0000      -0.478659       -13.0250
  52   2.0000      -0.472694       -12.8627
  53   2.0000      -0.468108       -12.7379
  54   2.0000      -0.456185       -12.4134
  55   2.0000      -0.447378       -12.1738
  56   2.0000      -0.440446       -11.9852
  57   2.0000      -0.438392       -11.9293
  58   2.0000      -0.437172       -11.8961
  59   2.0000      -0.428698       -11.6655
  60   2.0000      -0.424326       -11.5465
  61   2.0000      -0.413646       -11.2559
  62   2.0000      -0.408258       -11.1093
  63   2.0000      -0.345681        -9.4065
  64   2.0000      -0.331130        -9.0105
  65   2.0000      -0.327047        -8.8994
  66   2.0000      -0.299449        -8.1484
  67   0.0000       0.032218         0.8767
  68   0.0000       0.073411         1.9976
  69   0.0000       0.117761         3.2044
  70   0.0000       0.121741         3.3127
  71   0.0000       0.126556         3.4438

MULLIKEN ATOMIC CHARGES
-----------------------
   0 S :    0.095330
   1 C :   -0.123689
   2 C :   -0.129527
   3 C :    0.068379
   4 C :   -0.177279
   5 H :   -0.011532
   6 C :    0.054833
   7 H :    0.031323
   8 H :    0.060155
   9 C :   -0.064384
  10 H :    0.031617
  11 H :    0.035623
  12 C :   -0.056763
  13 H :    0.042899
  14 H :    0.028640
  15 H :    0.015010
  16 S :    0.102899
  17 C :   -0.072403
  18 C :   -0.033025
  19 C :   -0.049930
  20 C :   -0.133083
  21 H :   -0.003576
  22 C :    0.123974
  23 H :   -0.009926
  24 H :    0.011252
  25 C :   -0.089064
  26 H :    0.027802
  27 H :    0.036923
  28 C :   -0.063513
  29 H :    0.043960
  30 H :    0.045117
  31 H :    0.040039
  32 H :    0.057925
  33 H :    0.063991
Sum of atomic charges:    0.0000000

LOEWDIN ATOMIC CHARGES
----------------------
   0 S :    0.397063
   1 C :   -0.203440
   2 C :   -0.064751
   3 C :   -0.064025
   4 C :   -0.185097
   5 H :    0.016268
   6 C :   -0.031794
   7 H :    0.032136
   8 H :    0.044115
   9 C :   -0.041928
  10 H :    0.020343
  11 H :    0.030054
  12 C :   -0.067807
  13 H :    0.032252
  14 H :    0.019890
  15 H :    0.021138
  16 S :    0.393377
  17 C :   -0.187579
  18 C :   -0.066470
  19 C :   -0.057852
  20 C :   -0.185623
  21 H :    0.021481
  22 C :   -0.031200
  23 H :    0.022277
  24 H :    0.033049
  25 C :   -0.036567
  26 H :    0.023790
  27 H :    0.025968
  28 C :   -0.069102
  29 H :    0.033566
  30 H :    0.032663
  31 H :    0.020484
  32 H :    0.034268
  33 H :    0.039058

  Mayer bond orders larger than 0.100000
B(  0-S ,  1-C ) :   1.1320 B(  0-S ,  4-C ) :   1.1630 B(  1-C ,  2-C ) :   1.6163
B(  1-C , 32-H ) :   0.9673 B(  2-C ,  3-C ) :   1.2490 B(  2-C ,  6-C ) :   1.0013
B(  3-C ,  4-C ) :   1.5749 B(  3-C ,  5-H ) :   0.9889 B(  4-C , 20-C ) :   0.9988
B(  6-C ,  7-H ) :   0.9468 B(  6-C ,  8-H ) :   0.9362 B(  6-C ,  9-C ) :   1.0803
B(  9-C , 10-H ) :   0.9491 B(  9-C , 11-H ) :   0.9542 B(  9-C , 12-C ) :   1.0768
B( 12-C , 13-H ) :   0.9675 B( 12-C , 14-H ) :   0.9744 B( 12-C , 15-H ) :   0.9722
B( 16-S , 17-C ) :   1.1381 B( 16-S , 20-C ) :   1.1252 B( 17-C , 18-C ) :   1.6304
B( 17-C , 33-H ) :   0.9624 B( 18-C , 19-C ) :   1.2247 B( 18-C , 21-H ) :   0.9922
B( 19-C , 20-C ) :   1.6382 B( 19-C , 22-C ) :   1.0536 B( 22-C , 23-H ) :   0.9243
B( 22-C , 24-H ) :   0.9083 B( 22-C , 25-C ) :   1.0827 B( 25-C , 26-H ) :   0.9506
B( 25-C , 27-H ) :   0.9555 B( 25-C , 28-C ) :   1.0704 B( 28-C , 29-H ) :   0.9792
B( 28-C , 30-H ) :   0.9725 B( 28-C , 31-H ) :   0.9748

Dispersion correction           -0.015268270
FINAL SINGLE POINT ENERGY     -1339.881423925044

DIPOLE MOMENT
-------------
                                X             Y             Z
Electronic contribution:     21.25928     -10.68211     -11.86475
Nuclear contribution   :    -21.67503      11.25778      12.17774
                        -----------------------------------------
Total Dipole Moment    :     -0.41575       0.57567       0.31299
                        -----------------------------------------
Magnitude (a.u.)       :      0.77602
Magnitude (Debye)      :      1.97249

Rotational constants in cm-1:     0.018043     0.009665     0.007732
Rotational constants in MHz :   540.922010   289.751938   231.784586

                             ****ORCA TERMINATED NORMALLY****
TOTAL RUN TIME: 0 days 0 hours 0 minutes 31 seconds 578 msec
