                         Program Version 4.2.1 -  RELEASE  -
|  1> ! wB97X-D3 SP def2-SVP
|  2> %pal
|  3> nprocs 16
|  4> end
|  5>
|  6> * xyz 0 1
|  7> S 	 -112.443 	 48.4749 	 127.337
|  8> C 	 -112.776 	 49.5368 	 128.681
|  9> C 	 -112.781 	 48.8378 	 129.897
| 10> C 	 -112.511 	 47.4345 	 129.706
| 11> C 	 -112.47 	 47.0395 	 128.348
| 12> H 	 -112.577 	 46.6675 	 130.48
| 13> C 	 -112.797 	 49.5899 	 131.218
| 14> H 	 -112.202 	 50.5326 	 131.064
| 15> H 	 -112.17 	 49.0698 	 131.949
| 16> C 	 -114.278 	 49.8317 	 131.663
| 17> H 	 -114.828 	 50.1728 	 130.725
| 18> H 	 -114.727 	 48.8492 	 131.835
| 19> C 	 -114.559 	 50.8453 	 132.843
| 20> H 	 -113.919 	 51.6433 	 132.803
| 21> H 	 -115.574 	 51.2109 	 132.754
| 22> H 	 -114.414 	 50.343 	 133.804
| 23> S 	 -113.438 	 45.4801 	 126.243
| 24> C 	 -113.222 	 43.7434 	 126.359
| 25> C 	 -112.388 	 43.3757 	 127.395
| 26> C 	 -112.013 	 44.4877 	 128.248
| 27> C 	 -112.636 	 45.6424 	 127.76
| 28> H 	 -111.92 	 42.3773 	 127.39
| 29> C 	 -111.171 	 44.3352 	 129.508
| 30> H 	 -111.816 	 44.5872 	 130.343
| 31> H 	 -110.399 	 45.1182 	 129.618
| 32> C 	 -110.528 	 42.992 	 129.768
| 33> H 	 -109.759 	 42.9642 	 129.003
| 34> H 	 -111.217 	 42.1446 	 129.559
| 35> C 	 -109.923 	 42.8692 	 131.148
| 36> H 	 -110.617 	 42.9244 	 131.989
| 37> H 	 -109.123 	 43.5453 	 131.322
| 38> H 	 -109.546 	 41.8337 	 131.054
| 39> H 	 -112.948 	 50.5894 	 128.603
| 40> H 	 -113.501 	 42.9237 	 125.634
| 41> *
| 42>
| 43>                          ****END OF INPUT****

CARTESIAN COORDINATES (ANGSTROEM)
---------------------------------
  S    -112.443000   48.474900  127.337000
  C    -112.776000   49.536800  128.681000
  C    -112.781000   48.837800  129.897000
  C    -112.511000   47.434500  129.706000
  C    -112.470000   47.039500  128.348000
  H    -112.577000   46.667500  130.480000
  C    -112.797000   49.589900  131.218000
  H    -112.202000   50.532600  131.064000
  H    -112.170000   49.069800  131.949000
  C    -114.278000   49.831700  131.663000
  H    -114.828000   50.172800  130.725000
  H    -114.727000   48.849200  131.835000
  C    -114.559000   50.845300  132.843000
  H    -113.919000   51.643300  132.803000
  H    -115.574000   51.210900  132.754000
  H    -114.414000   50.343000  133.804000
  S    -113.438000   45.480100  126.243000
  C    -113.222000   43.743400  126.359000
  C    -112.388000   43.375700  127.395000
  C    -112.013000   44.487700  128.248000
  C    -112.636000   45.642400  127.760000
  H    -111.920000   42.377300  127.390000
  C    -111.171000   44.335200  129.508000
  H    -111.816000   44.587200  130.343000
  H    -110.399000   45.118200  129.618000
  C    -110.528000   42.992000  129.768000
  H    -109.759000   42.964200  129.003000
  H    -111.217000   42.144600  129.559000
  C    -109.923000   42.869200  131.148000
  H    -110.617000   42.924400  131.989000
  H    -109.123000   43.545300  131.322000
  H    -109.546000   41.833700  131.054000
  H    -112.948000   50.589400  128.603000
  H    -113.501000   42.923700  125.634000

 Total Charge           Charge          ....    0
 Multiplicity           Mult            ....    1
 Number of Electrons    NEL             ....  134
 Basis Dimension        Dim             ....  322

ORBITAL ENERGIES
----------------

  NO   OCC          E(Eh)            E(eV)
   0   2.0000     -88.973120     -2421.0817
   1   2.0000     -88.966675     -2420.9063
   2   2.0000     -10.335999      -281.2568
   3   2.0000     -10.331258      -281.1278
   4   2.0000     -10.319390      -280.8049
   5   2.0000     -10.312449      -280.6160
   6   2.0000     -10.307405      -280.4787
   7   2.0000     -10.303764      -280.3797
   8   2.0000     -10.298313      -280.2314
   9   2.0000     -10.297680      -280.2141
  10   2.0000     -10.296295      -280.1764
  11   2.0000     -10.294613      -280.1307
  12   2.0000     -10.291813      -280.0545
  13   2.0000     -10.288255      -279.9577
  14   2.0000     -10.279867      -279.7294
  15   2.0000     -10.274958      -279.5958
  16   2.0000      -8.087676      -220.0769
  17   2.0000      -8.081164      -219.8997
  18   2.0000      -6.046241      -164.5266
  19   2.0000      -6.042417      -164.4225
  20   2.0000      -6.039660      -164.3475
  21   2.0000      -6.038165      -164.3068
  22   2.0000      -6.035640      -164.2381
  23   2.0000      -6.032049      -164.1404
  24   2.0000      -1.002801       -27.2876
  25   2.0000      -0.980931       -26.6925
  26   2.0000      -0.917003       -24.9529
  27   2.0000      -0.901109       -24.5204
  28   2.0000      -0.858647       -23.3650
  29   2.0000      -0.855888       -23.2899
  30   2.0000      -0.841632       -22.9020
  31   2.0000      -0.813767       -22.1437
  32   2.0000      -0.784525       -21.3480
  33   2.0000      -0.770701       -20.9718
  34   2.0000      -0.704970       -19.1832
  35   2.0000      -0.699230       -19.0270
  36   2.0000      -0.691018       -18.8035
  37   2.0000      -0.649113       -17.6633
  38   2.0000      -0.635869       -17.3029
  39   2.0000      -0.616979       -16.7889
  40   2.0000      -0.596449       -16.2302
  41   2.0000      -0.572944       -15.5906
  42   2.0000      -0.564227       -15.3534
  43   2.0000      -0.547170       -14.8893
  44   2.0000      -0.530465       -14.4347
  45   2.0000      -0.524158       -14.2631
  46   2.0000      -0.512350       -13.9417
  47   2.0000      -0.511042       -13.9062
  48   2.0000      -0.502947       -13.6859
  49   2.0000      -0.496848       -13.5199
  50   2.0000      -0.487973       -13.2784
  51   2.0000      -0.481456       -13.1011
  52   2.0000      -0.470022       -12.7900
  53   2.0000      -0.465894       -12.6776
  54   2.0000      -0.461828       -12.5670
  55   2.0000      -0.458448       -12.4750
  56   2.0000      -0.440021       -11.9736
  57   2.0000      -0.436181       -11.8691
  58   2.0000      -0.432386       -11.7658
  59   2.0000      -0.427801       -11.6411
  60   2.0000      -0.423936       -11.5359
  61   2.0000      -0.416499       -11.3335
  62   2.0000      -0.411586       -11.1998
  63   2.0000      -0.349604        -9.5132
  64   2.0000      -0.332657        -9.0521
  65   2.0000      -0.327609        -8.9147
  66   2.0000      -0.283254        -7.7077
  67   0.0000       0.023922         0.6509
  68   0.0000       0.073437         1.9983
  69   0.0000       0.103556         2.8179
  70   0.0000       0.122273         3.3272
  71   0.0000       0.134934         3.6718

MULLIKEN ATOMIC CHARGES
-----------------------
   0 S :    0.102206
   1 C :   -0.109679
   2 C :   -0.104229
   3 C :    0.018880
   4 C :   -0.150193
   5 H :    0.011896
   6 C :    0.041371
   7 H :    0.034300
   8 H :    0.025919
   9 C :   -0.124420
  10 H :    0.035012
  11 H :    0.032242
  12 C :    0.014590
  13 H :    0.009928
  14 H :    0.036509
  15 H :    0.034230
  16 S :    0.130191
  17 C :   -0.101393
  18 C :   -0.067979
  19 C :   -0.038597
  20 C :   -0.138668
  21 H :    0.037530
  22 C :    0.044356
  23 H :    0.028951
  24 H :    0.031733
  25 C :   -0.105930
  26 H :    0.029749
  27 H :    0.040513
  28 C :   -0.017657
  29 H :    0.037318
  30 H :    0.029477
  31 H :    0.036512
  32 H :    0.045558
  33 H :    0.069773
Sum of atomic charges:   -0.0000000

LOEWDIN ATOMIC CHARGES
----------------------
   0 S :    0.401812
   1 C :   -0.197757
   2 C :   -0.061011
   3 C :   -0.073832
   4 C :   -0.186046
   5 H :    0.028522
   6 C :   -0.037666
   7 H :    0.033914
   8 H :    0.027635
   9 C :   -0.045217
  10 H :    0.029082
  11 H :    0.024521
  12 C :   -0.056821
  13 H :    0.011240
  14 H :    0.030088
  15 H :    0.028321
  16 S :    0.422121
  17 C :   -0.203996
  18 C :   -0.077871
  19 C :   -0.051702
  20 C :   -0.205572
  21 H :    0.036467
  22 C :   -0.041587
  23 H :    0.027838
  24 H :    0.035635
  25 C :   -0.045074
  26 H :    0.025881
  27 H :    0.026414
  28 C :   -0.057911
  29 H :    0.025970
  30 H :    0.021117
  31 H :    0.036905
  32 H :    0.024419
  33 H :    0.044165

  Mayer bond orders larger than 0.100000
B(  0-S ,  1-C ) :   1.1435 B(  0-S ,  4-C ) :   1.1619 B(  1-C ,  2-C ) :   1.5904
B(  1-C , 32-H ) :   0.9690 B(  2-C ,  3-C ) :   1.2726 B(  2-C ,  6-C ) :   1.0174
B(  3-C ,  4-C ) :   1.5455 B(  3-C ,  5-H ) :   0.9839 B(  4-C , 20-C ) :   1.0390
B(  6-C ,  7-H ) :   0.9508 B(  6-C ,  8-H ) :   0.9488 B(  6-C ,  9-C ) :   1.0344
B(  9-C , 10-H ) :   0.9648 B(  9-C , 11-H ) :   0.9596 B(  9-C , 12-C ) :   1.0627
B( 12-C , 13-H ) :   0.9768 B( 12-C , 14-H ) :   0.9766 B( 12-C , 15-H ) :   0.9764
B( 16-S , 17-C ) :   1.1395 B( 16-S , 20-C ) :   1.1486 B( 17-C , 18-C ) :   1.6378
B( 17-C , 33-H ) :   0.9526 B( 18-C , 19-C ) :   1.2527 B( 18-C , 21-H ) :   0.9717
B( 19-C , 20-C ) :   1.5842 B( 19-C , 22-C ) :   1.0309 B( 22-C , 23-H ) :   0.9290
B( 22-C , 24-H ) :   0.9234 B( 22-C , 25-C ) :   1.0783 B( 25-C , 26-H ) :   0.9511
B( 25-C , 27-H ) :   0.9470 B( 25-C , 28-C ) :   1.0857 B( 28-C , 29-H ) :   0.9743
B( 28-C , 30-H ) :   0.9730 B( 28-C , 31-H ) :   0.9721

Dispersion correction           -0.013248350
FINAL SINGLE POINT ENERGY     -1339.869819026067

DIPOLE MOMENT
-------------
                                X             Y             Z
Electronic contribution:     -4.19737       1.08177     -28.12150
Nuclear contribution   :      4.41731      -1.29830      28.68089
                        -----------------------------------------
Total Dipole Moment    :      0.21994      -0.21653       0.55939
                        -----------------------------------------
Magnitude (a.u.)       :      0.63889
Magnitude (Debye)      :      1.62393

Rotational constants in cm-1:     0.017538     0.007667     0.005870
Rotational constants in MHz :   525.781008   229.846719   175.973273

                             ****ORCA TERMINATED NORMALLY****
TOTAL RUN TIME: 0 days 0 hours 0 minutes 32 seconds 898 msec
