                         Program Version 4.2.1 -  RELEASE  -
|  1> ! wB97X-D3 SP def2-SVP
|  2> %pal
|  3> nprocs 16
|  4> end
|  5>
|  6> * xyz 0 1
|  7> S 	 47.9143 	 24.0128 	 45.5666
|  8> C 	 49.6322 	 23.8259 	 45.4353
|  9> C 	 50.3124 	 24.6401 	 46.3433
| 10> C 	 49.4557 	 25.3086 	 47.262
| 11> C 	 48.1254 	 24.9918 	 47.0523
| 12> H 	 49.6337 	 25.8972 	 48.1769
| 13> C 	 51.8098 	 24.846 	 46.397
| 14> H 	 52.2924 	 24.0316 	 46.8611
| 15> H 	 52.1153 	 25.6516 	 47.0041
| 16> C 	 52.5089 	 24.9477 	 45.049
| 17> H 	 52.0922 	 24.1408 	 44.3918
| 18> H 	 52.2945 	 25.9022 	 44.6595
| 19> C 	 54.0191 	 24.8769 	 45.2421
| 20> H 	 54.3203 	 24.8736 	 44.1481
| 21> H 	 54.4731 	 25.7275 	 45.7091
| 22> H 	 54.4619 	 24.0147 	 45.7631
| 23> S 	 46.3393 	 27.038 	 46.8696
| 24> C 	 45.2242 	 27.2229 	 48.2296
| 25> C 	 45.3629 	 26.2368 	 49.1659
| 26> C 	 46.4996 	 25.3949 	 48.971
| 27> C 	 47.0988 	 25.6942 	 47.7681
| 28> H 	 44.8915 	 26.2543 	 50.1084
| 29> C 	 46.7414 	 24.1454 	 49.8533
| 30> H 	 46.4082 	 24.2686 	 50.8469
| 31> H 	 47.8437 	 24.0724 	 50.0185
| 32> C 	 46.2048 	 22.835 	 49.2255
| 33> H 	 46.8215 	 22.57 	 48.3104
| 34> H 	 45.1892 	 22.9031 	 48.862
| 35> C 	 46.5455 	 21.6657 	 50.1306
| 36> H 	 46.2953 	 20.7128 	 49.6236
| 37> H 	 46.1202 	 21.7338 	 51.1082
| 38> H 	 47.6414 	 21.6262 	 50.2384
| 39> H 	 50.0895 	 23.2078 	 44.7258
| 40> H 	 44.393 	 27.9205 	 48.2607
| 41> *
| 42>
| 43>                          ****END OF INPUT****

CARTESIAN COORDINATES (ANGSTROEM)
---------------------------------
  S     47.914300   24.012800   45.566600
  C     49.632200   23.825900   45.435300
  C     50.312400   24.640100   46.343300
  C     49.455700   25.308600   47.262000
  C     48.125400   24.991800   47.052300
  H     49.633700   25.897200   48.176900
  C     51.809800   24.846000   46.397000
  H     52.292400   24.031600   46.861100
  H     52.115300   25.651600   47.004100
  C     52.508900   24.947700   45.049000
  H     52.092200   24.140800   44.391800
  H     52.294500   25.902200   44.659500
  C     54.019100   24.876900   45.242100
  H     54.320300   24.873600   44.148100
  H     54.473100   25.727500   45.709100
  H     54.461900   24.014700   45.763100
  S     46.339300   27.038000   46.869600
  C     45.224200   27.222900   48.229600
  C     45.362900   26.236800   49.165900
  C     46.499600   25.394900   48.971000
  C     47.098800   25.694200   47.768100
  H     44.891500   26.254300   50.108400
  C     46.741400   24.145400   49.853300
  H     46.408200   24.268600   50.846900
  H     47.843700   24.072400   50.018500
  C     46.204800   22.835000   49.225500
  H     46.821500   22.570000   48.310400
  H     45.189200   22.903100   48.862000
  C     46.545500   21.665700   50.130600
  H     46.295300   20.712800   49.623600
  H     46.120200   21.733800   51.108200
  H     47.641400   21.626200   50.238400
  H     50.089500   23.207800   44.725800
  H     44.393000   27.920500   48.260700

 Total Charge           Charge          ....    0
 Multiplicity           Mult            ....    1
 Number of Electrons    NEL             ....  134
 Basis Dimension        Dim             ....  322

ORBITAL ENERGIES
----------------

  NO   OCC          E(Eh)            E(eV)
   0   2.0000     -88.968206     -2420.9480
   1   2.0000     -88.965204     -2420.8663
   2   2.0000     -10.322691      -280.8947
   3   2.0000     -10.321161      -280.8531
   4   2.0000     -10.316323      -280.7214
   5   2.0000     -10.311594      -280.5927
   6   2.0000     -10.301556      -280.3196
   7   2.0000     -10.300785      -280.2986
   8   2.0000     -10.293820      -280.1091
   9   2.0000     -10.292961      -280.0857
  10   2.0000     -10.285821      -279.8914
  11   2.0000     -10.285159      -279.8734
  12   2.0000     -10.284058      -279.8434
  13   2.0000     -10.280833      -279.7557
  14   2.0000     -10.276965      -279.6504
  15   2.0000     -10.274651      -279.5875
  16   2.0000      -8.082164      -219.9269
  17   2.0000      -8.079301      -219.8490
  18   2.0000      -6.040606      -164.3733
  19   2.0000      -6.037784      -164.2965
  20   2.0000      -6.036853      -164.2711
  21   2.0000      -6.034080      -164.1957
  22   2.0000      -6.032965      -164.1653
  23   2.0000      -6.029934      -164.0828
  24   2.0000      -1.002804       -27.2877
  25   2.0000      -0.979407       -26.6510
  26   2.0000      -0.915565       -24.9138
  27   2.0000      -0.904680       -24.6176
  28   2.0000      -0.870821       -23.6962
  29   2.0000      -0.851467       -23.1696
  30   2.0000      -0.848466       -23.0879
  31   2.0000      -0.810196       -22.0465
  32   2.0000      -0.779981       -21.2244
  33   2.0000      -0.767394       -20.8819
  34   2.0000      -0.709565       -19.3082
  35   2.0000      -0.698653       -19.0113
  36   2.0000      -0.689383       -18.7591
  37   2.0000      -0.662211       -18.0197
  38   2.0000      -0.649201       -17.6657
  39   2.0000      -0.609113       -16.5748
  40   2.0000      -0.596123       -16.2213
  41   2.0000      -0.576898       -15.6982
  42   2.0000      -0.562433       -15.3046
  43   2.0000      -0.555313       -15.1108
  44   2.0000      -0.528704       -14.3868
  45   2.0000      -0.522728       -14.2242
  46   2.0000      -0.515081       -14.0161
  47   2.0000      -0.510943       -13.9035
  48   2.0000      -0.503487       -13.7006
  49   2.0000      -0.500761       -13.6264
  50   2.0000      -0.486890       -13.2490
  51   2.0000      -0.478507       -13.0208
  52   2.0000      -0.470886       -12.8135
  53   2.0000      -0.460735       -12.5372
  54   2.0000      -0.457811       -12.4577
  55   2.0000      -0.448344       -12.2001
  56   2.0000      -0.444006       -12.0820
  57   2.0000      -0.439623       -11.9628
  58   2.0000      -0.434080       -11.8119
  59   2.0000      -0.426227       -11.5982
  60   2.0000      -0.421137       -11.4597
  61   2.0000      -0.411082       -11.1861
  62   2.0000      -0.406838       -11.0706
  63   2.0000      -0.339929        -9.2499
  64   2.0000      -0.331838        -9.0298
  65   2.0000      -0.319056        -8.6820
  66   2.0000      -0.300191        -8.1686
  67   0.0000       0.040847         1.1115
  68   0.0000       0.049629         1.3505
  69   0.0000       0.112382         3.0581
  70   0.0000       0.119901         3.2627
  71   0.0000       0.128645         3.5006

MULLIKEN ATOMIC CHARGES
-----------------------
   0 S :    0.118838
   1 C :   -0.116489
   2 C :   -0.042789
   3 C :    0.016449
   4 C :   -0.171514
   5 H :    0.033288
   6 C :    0.115052
   7 H :    0.010022
   8 H :    0.000953
   9 C :   -0.090309
  10 H :    0.036156
  11 H :    0.025691
  12 C :   -0.069880
  13 H :    0.040198
  14 H :    0.031136
  15 H :    0.036631
  16 S :    0.111956
  17 C :   -0.079861
  18 C :   -0.010248
  19 C :   -0.031813
  20 C :   -0.208608
  21 H :    0.005966
  22 C :    0.085120
  23 H :    0.003363
  24 H :    0.021260
  25 C :   -0.084298
  26 H :    0.037174
  27 H :    0.036247
  28 C :   -0.034717
  29 H :    0.036570
  30 H :    0.025838
  31 H :    0.025990
  32 H :    0.031610
  33 H :    0.055018
Sum of atomic charges:    0.0000000

LOEWDIN ATOMIC CHARGES
----------------------
   0 S :    0.398961
   1 C :   -0.196090
   2 C :   -0.056853
   3 C :   -0.056409
   4 C :   -0.192918
   5 H :    0.042581
   6 C :   -0.034188
   7 H :    0.025407
   8 H :    0.022739
   9 C :   -0.033565
  10 H :    0.026727
  11 H :    0.021208
  12 C :   -0.070576
  13 H :    0.038066
  14 H :    0.021906
  15 H :    0.024687
  16 S :    0.384177
  17 C :   -0.173993
  18 C :   -0.069257
  19 C :   -0.052022
  20 C :   -0.188393
  21 H :    0.024245
  22 C :   -0.027415
  23 H :    0.019614
  24 H :    0.036019
  25 C :   -0.042103
  26 H :    0.032725
  27 H :    0.022282
  28 C :   -0.064988
  29 H :    0.030238
  30 H :    0.015572
  31 H :    0.027853
  32 H :    0.015073
  33 H :    0.028689

  Mayer bond orders larger than 0.100000
B(  0-S ,  1-C ) :   1.1401 B(  0-S ,  4-C ) :   1.1336 B(  1-C ,  2-C ) :   1.5949
B(  1-C , 32-H ) :   0.9763 B(  2-C ,  3-C ) :   1.2318 B(  2-C ,  6-C ) :   1.0193
B(  3-C ,  4-C ) :   1.5909 B(  3-C ,  5-H ) :   0.9885 B(  4-C , 20-C ) :   1.0438
B(  6-C ,  7-H ) :   0.9300 B(  6-C ,  8-H ) :   0.9424 B(  6-C ,  9-C ) :   1.0629
B(  9-C , 10-H ) :   0.9577 B(  9-C , 11-H ) :   0.9545 B(  9-C , 12-C ) :   1.0794
B( 12-C , 13-H ) :   0.9746 B( 12-C , 14-H ) :   0.9742 B( 12-C , 15-H ) :   0.9756
B( 16-S , 17-C ) :   1.1326 B( 16-S , 20-C ) :   1.1343 B( 17-C , 18-C ) :   1.6478
B( 17-C , 33-H ) :   0.9631 B( 18-C , 19-C ) :   1.2359 B( 18-C , 21-H ) :   0.9806
B( 19-C , 20-C ) :   1.6282 B( 19-C , 22-C ) :   1.0496 B( 22-C , 23-H ) :   0.9371
B( 22-C , 24-H ) :   0.9258 B( 22-C , 25-C ) :   1.0572 B( 25-C , 26-H ) :   0.9509
B( 25-C , 27-H ) :   0.9611 B( 25-C , 28-C ) :   1.0772 B( 28-C , 29-H ) :   0.9726
B( 28-C , 30-H ) :   0.9758 B( 28-C , 31-H ) :   0.9732

Dispersion correction           -0.014066331
FINAL SINGLE POINT ENERGY     -1339.865262743308

DIPOLE MOMENT
-------------
                                X             Y             Z
Electronic contribution:    -17.71849      12.06869      -7.67390
Nuclear contribution   :     18.07455     -12.18946       8.01215
                        -----------------------------------------
Total Dipole Moment    :      0.35605      -0.12077       0.33825
                        -----------------------------------------
Magnitude (a.u.)       :      0.50574
Magnitude (Debye)      :      1.28548

Rotational constants in cm-1:     0.020338     0.007654     0.006503
Rotational constants in MHz :   609.707823   229.457333   194.952423

                             ****ORCA TERMINATED NORMALLY****
TOTAL RUN TIME: 0 days 0 hours 0 minutes 33 seconds 287 msec
