                         Program Version 4.2.1 -  RELEASE  -
|  1> ! wB97X-D3 SP def2-SVP
|  2> %pal
|  3> nprocs 16
|  4> end
|  5>
|  6> * xyz 0 1
|  7> S 	 -43.9564 	 16.2544 	 84.3118
|  8> C 	 -42.1726 	 16.0867 	 84.27
|  9> C 	 -41.617 	 17.3498 	 84.3373
| 10> C 	 -42.604 	 18.3781 	 84.4571
| 11> C 	 -43.91 	 17.9414 	 84.28
| 12> H 	 -42.4558 	 19.4155 	 84.449
| 13> C 	 -40.0903 	 17.6617 	 84.4233
| 14> H 	 -39.8092 	 18.4938 	 83.7957
| 15> H 	 -39.6238 	 16.7457 	 84.0413
| 16> C 	 -39.4911 	 17.8533 	 85.8233
| 17> H 	 -39.6826 	 18.8341 	 86.2063
| 18> H 	 -39.8404 	 17.1023 	 86.5177
| 19> C 	 -37.985 	 17.6615 	 85.8785
| 20> H 	 -37.6077 	 18.3601 	 86.5975
| 21> H 	 -37.7099 	 16.589 	 86.0965
| 22> H 	 -37.6192 	 17.9759 	 84.941
| 23> S 	 -46.0731 	 18.77 	 82.9348
| 24> C 	 -47.1204 	 19.9976 	 83.5744
| 25> C 	 -46.67 	 20.3694 	 84.8524
| 26> C 	 -45.5307 	 19.5862 	 85.3235
| 27> C 	 -45.0748 	 18.771 	 84.3233
| 28> H 	 -47.1797 	 21.1125 	 85.3646
| 29> C 	 -44.8999 	 19.81 	 86.71
| 30> H 	 -43.9567 	 19.2417 	 86.8613
| 31> H 	 -45.6021 	 19.3999 	 87.4627
| 32> C 	 -44.6691 	 21.2669 	 87.1886
| 33> H 	 -45.6353 	 21.5894 	 87.4181
| 34> H 	 -44.3132 	 21.8163 	 86.2744
| 35> C 	 -43.7812 	 21.3563 	 88.4538
| 36> H 	 -43.8618 	 22.3708 	 88.798
| 37> H 	 -42.7466 	 21.1377 	 88.2969
| 38> H 	 -44.2328 	 20.7736 	 89.2144
| 39> H 	 -41.5922 	 15.2149 	 83.9402
| 40> H 	 -47.9399 	 20.5911 	 83.0578
| 41> *
| 42>
| 43>                          ****END OF INPUT****

CARTESIAN COORDINATES (ANGSTROEM)
---------------------------------
  S    -43.956400   16.254400   84.311800
  C    -42.172600   16.086700   84.270000
  C    -41.617000   17.349800   84.337300
  C    -42.604000   18.378100   84.457100
  C    -43.910000   17.941400   84.280000
  H    -42.455800   19.415500   84.449000
  C    -40.090300   17.661700   84.423300
  H    -39.809200   18.493800   83.795700
  H    -39.623800   16.745700   84.041300
  C    -39.491100   17.853300   85.823300
  H    -39.682600   18.834100   86.206300
  H    -39.840400   17.102300   86.517700
  C    -37.985000   17.661500   85.878500
  H    -37.607700   18.360100   86.597500
  H    -37.709900   16.589000   86.096500
  H    -37.619200   17.975900   84.941000
  S    -46.073100   18.770000   82.934800
  C    -47.120400   19.997600   83.574400
  C    -46.670000   20.369400   84.852400
  C    -45.530700   19.586200   85.323500
  C    -45.074800   18.771000   84.323300
  H    -47.179700   21.112500   85.364600
  C    -44.899900   19.810000   86.710000
  H    -43.956700   19.241700   86.861300
  H    -45.602100   19.399900   87.462700
  C    -44.669100   21.266900   87.188600
  H    -45.635300   21.589400   87.418100
  H    -44.313200   21.816300   86.274400
  C    -43.781200   21.356300   88.453800
  H    -43.861800   22.370800   88.798000
  H    -42.746600   21.137700   88.296900
  H    -44.232800   20.773600   89.214400
  H    -41.592200   15.214900   83.940200
  H    -47.939900   20.591100   83.057800

 Total Charge           Charge          ....    0
 Multiplicity           Mult            ....    1
 Number of Electrons    NEL             ....  134
 Basis Dimension        Dim             ....  322

ORBITAL ENERGIES
----------------

  NO   OCC          E(Eh)            E(eV)
   0   2.0000     -88.966645     -2420.9055
   1   2.0000     -88.963962     -2420.8325
   2   2.0000     -10.323445      -280.9152
   3   2.0000     -10.321383      -280.8591
   4   2.0000     -10.320310      -280.8299
   5   2.0000     -10.315439      -280.6974
   6   2.0000     -10.307512      -280.4817
   7   2.0000     -10.303774      -280.3799
   8   2.0000     -10.294888      -280.1381
   9   2.0000     -10.294015      -280.1144
  10   2.0000     -10.293052      -280.0882
  11   2.0000     -10.286506      -279.9101
  12   2.0000     -10.285759      -279.8897
  13   2.0000     -10.278805      -279.7005
  14   2.0000     -10.276161      -279.6286
  15   2.0000     -10.273862      -279.5660
  16   2.0000      -8.082238      -219.9289
  17   2.0000      -8.079120      -219.8440
  18   2.0000      -6.040743      -164.3770
  19   2.0000      -6.037648      -164.2928
  20   2.0000      -6.036467      -164.2606
  21   2.0000      -6.033461      -164.1788
  22   2.0000      -6.033087      -164.1686
  23   2.0000      -6.029925      -164.0826
  24   2.0000      -1.013394       -27.5759
  25   2.0000      -0.985073       -26.8052
  26   2.0000      -0.912695       -24.8357
  27   2.0000      -0.906694       -24.6724
  28   2.0000      -0.874001       -23.7828
  29   2.0000      -0.852042       -23.1853
  30   2.0000      -0.844734       -22.9864
  31   2.0000      -0.812723       -22.1153
  32   2.0000      -0.783985       -21.3333
  33   2.0000      -0.774850       -21.0847
  34   2.0000      -0.706713       -19.2306
  35   2.0000      -0.695472       -18.9247
  36   2.0000      -0.692528       -18.8447
  37   2.0000      -0.660334       -17.9686
  38   2.0000      -0.642091       -17.4722
  39   2.0000      -0.616376       -16.7724
  40   2.0000      -0.593469       -16.1491
  41   2.0000      -0.579465       -15.7680
  42   2.0000      -0.571901       -15.5622
  43   2.0000      -0.562786       -15.3142
  44   2.0000      -0.527626       -14.3574
  45   2.0000      -0.524990       -14.2857
  46   2.0000      -0.517047       -14.0696
  47   2.0000      -0.512649       -13.9499
  48   2.0000      -0.506925       -13.7941
  49   2.0000      -0.497544       -13.5389
  50   2.0000      -0.493956       -13.4412
  51   2.0000      -0.480751       -13.0819
  52   2.0000      -0.475027       -12.9261
  53   2.0000      -0.470537       -12.8040
  54   2.0000      -0.460935       -12.5427
  55   2.0000      -0.447132       -12.1671
  56   2.0000      -0.442622       -12.0444
  57   2.0000      -0.430037       -11.7019
  58   2.0000      -0.428655       -11.6643
  59   2.0000      -0.423892       -11.5347
  60   2.0000      -0.422189       -11.4884
  61   2.0000      -0.420315       -11.4374
  62   2.0000      -0.413109       -11.2413
  63   2.0000      -0.337128        -9.1737
  64   2.0000      -0.332803        -9.0560
  65   2.0000      -0.325226        -8.8499
  66   2.0000      -0.303079        -8.2472
  67   0.0000       0.037238         1.0133
  68   0.0000       0.066476         1.8089
  69   0.0000       0.118300         3.2191
  70   0.0000       0.123895         3.3714
  71   0.0000       0.126588         3.4446

MULLIKEN ATOMIC CHARGES
-----------------------
   0 S :    0.112761
   1 C :   -0.137695
   2 C :   -0.085928
   3 C :    0.044269
   4 C :   -0.149752
   5 H :   -0.008740
   6 C :    0.064576
   7 H :    0.032544
   8 H :    0.011554
   9 C :   -0.062193
  10 H :    0.018761
  11 H :    0.027654
  12 C :   -0.035577
  13 H :    0.027316
  14 H :    0.048072
  15 H :    0.010574
  16 S :    0.129450
  17 C :   -0.111671
  18 C :   -0.038353
  19 C :    0.015892
  20 C :   -0.199149
  21 H :   -0.005096
  22 C :    0.035469
  23 H :    0.035079
  24 H :    0.031174
  25 C :   -0.101737
  26 H :    0.017198
  27 H :    0.041223
  28 C :   -0.002659
  29 H :    0.026578
  30 H :    0.039614
  31 H :    0.021780
  32 H :    0.063042
  33 H :    0.083970
Sum of atomic charges:    0.0000000

LOEWDIN ATOMIC CHARGES
----------------------
   0 S :    0.420104
   1 C :   -0.202892
   2 C :   -0.055955
   3 C :   -0.064249
   4 C :   -0.213213
   5 H :    0.020745
   6 C :   -0.028149
   7 H :    0.028411
   8 H :    0.028696
   9 C :   -0.040100
  10 H :    0.017350
  11 H :    0.025756
  12 C :   -0.059275
  13 H :    0.026016
  14 H :    0.032787
  15 H :    0.014793
  16 S :    0.435524
  17 C :   -0.206193
  18 C :   -0.063935
  19 C :   -0.049594
  20 C :   -0.218924
  21 H :    0.016287
  22 C :   -0.038896
  23 H :    0.030578
  24 H :    0.034166
  25 C :   -0.038214
  26 H :    0.012651
  27 H :    0.027218
  28 C :   -0.053211
  29 H :    0.028298
  30 H :    0.024723
  31 H :    0.023551
  32 H :    0.036137
  33 H :    0.049008

  Mayer bond orders larger than 0.100000
B(  0-S ,  1-C ) :   1.1283 B(  0-S ,  4-C ) :   1.1813 B(  1-C ,  2-C ) :   1.6106
B(  1-C ,  4-C ) :   0.1024 B(  1-C , 32-H ) :   0.9616 B(  2-C ,  3-C ) :   1.2405
B(  2-C ,  6-C ) :   1.0276 B(  3-C ,  4-C ) :   1.5587 B(  3-C ,  5-H ) :   1.0073
B(  4-C , 20-C ) :   1.0139 B(  6-C ,  7-H ) :   0.9377 B(  6-C ,  8-H ) :   0.9414
B(  6-C ,  9-C ) :   1.0731 B(  9-C , 10-H ) :   0.9584 B(  9-C , 11-H ) :   0.9583
B(  9-C , 12-C ) :   1.0811 B( 12-C , 13-H ) :   0.9743 B( 12-C , 14-H ) :   0.9783
B( 12-C , 15-H ) :   0.9746 B( 16-S , 17-C ) :   1.1553 B( 16-S , 20-C ) :   1.1554
B( 17-C , 18-C ) :   1.6151 B( 17-C , 33-H ) :   0.9591 B( 18-C , 19-C ) :   1.2144
B( 18-C , 21-H ) :   0.9989 B( 19-C , 20-C ) :   1.6043 B( 19-C , 22-C ) :   1.0455
B( 22-C , 23-H ) :   0.9441 B( 22-C , 24-H ) :   0.9266 B( 22-C , 25-C ) :   1.0501
B( 25-C , 26-H ) :   0.9502 B( 25-C , 27-H ) :   0.9643 B( 25-C , 28-C ) :   1.0894
B( 28-C , 29-H ) :   0.9720 B( 28-C , 30-H ) :   0.9769 B( 28-C , 31-H ) :   0.9699

Dispersion correction           -0.013654563
FINAL SINGLE POINT ENERGY     -1339.867503575574

DIPOLE MOMENT
-------------
                                X             Y             Z
Electronic contribution:    -22.33581     -11.63402     -19.31112
Nuclear contribution   :     22.67717      12.18616      19.69616
                        -----------------------------------------
Total Dipole Moment    :      0.34136       0.55214       0.38504
                        -----------------------------------------
Magnitude (a.u.)       :      0.75474
Magnitude (Debye)      :      1.91840

Rotational constants in cm-1:     0.017161     0.008740     0.006348
Rotational constants in MHz :   514.460006   262.027991   190.302546

                             ****ORCA TERMINATED NORMALLY****
TOTAL RUN TIME: 0 days 0 hours 0 minutes 27 seconds 442 msec
