                         Program Version 4.2.1 -  RELEASE  -
|  1> ! wB97X-D3 SP def2-SVP
|  2> %pal
|  3> nprocs 16
|  4> end
|  5>
|  6> * xyz 0 1
|  7> S 	 7.20836 	 -26.4322 	 82.7792
|  8> C 	 7.3744 	 -26.958 	 84.3992
|  9> C 	 7.46851 	 -25.8806 	 85.2422
| 10> C 	 7.38708 	 -24.5911 	 84.5861
| 11> C 	 7.19265 	 -24.7433 	 83.2106
| 12> H 	 7.38527 	 -23.5874 	 85.0383
| 13> C 	 7.66933 	 -25.9721 	 86.765
| 14> H 	 7.34057 	 -25.0355 	 87.1488
| 15> H 	 8.74379 	 -26.0806 	 86.9985
| 16> C 	 6.84373 	 -27.0535 	 87.4878
| 17> H 	 5.72558 	 -26.9094 	 87.3146
| 18> H 	 7.06484 	 -28.0476 	 87.0087
| 19> C 	 7.13796 	 -27.3232 	 88.9946
| 20> H 	 6.86785 	 -26.3697 	 89.5014
| 21> H 	 6.42177 	 -28.194 	 89.3968
| 22> H 	 8.20011 	 -27.5254 	 89.1445
| 23> S 	 8.74958 	 -24.0178 	 80.9666
| 24> C 	 8.63223 	 -22.4141 	 80.3835
| 25> C 	 7.55042 	 -21.7525 	 80.9732
| 26> C 	 6.8406 	 -22.5417 	 81.9075
| 27> C 	 7.46807 	 -23.7348 	 82.1706
| 28> H 	 7.29215 	 -20.7603 	 80.6728
| 29> C 	 5.69234 	 -22.0698 	 82.6559
| 30> H 	 5.74368 	 -21.0289 	 82.8757
| 31> H 	 5.85352 	 -22.4188 	 83.6225
| 32> C 	 4.27706 	 -22.5056 	 82.3063
| 33> H 	 3.64248 	 -22.1342 	 83.0543
| 34> H 	 4.20509 	 -23.6119 	 82.2333
| 35> C 	 3.806 	 -22.1677 	 80.8491
| 36> H 	 4.40921 	 -22.4847 	 79.9874
| 37> H 	 3.58906 	 -21.0918 	 80.7713
| 38> H 	 2.86931 	 -22.7201 	 80.6517
| 39> H 	 7.56875 	 -27.9653 	 84.7925
| 40> H 	 9.34067 	 -22.0132 	 79.7109
| 41> *
| 42>
| 43>                          ****END OF INPUT****

CARTESIAN COORDINATES (ANGSTROEM)
---------------------------------
  S      7.208360  -26.432200   82.779200
  C      7.374400  -26.958000   84.399200
  C      7.468510  -25.880600   85.242200
  C      7.387080  -24.591100   84.586100
  C      7.192650  -24.743300   83.210600
  H      7.385270  -23.587400   85.038300
  C      7.669330  -25.972100   86.765000
  H      7.340570  -25.035500   87.148800
  H      8.743790  -26.080600   86.998500
  C      6.843730  -27.053500   87.487800
  H      5.725580  -26.909400   87.314600
  H      7.064840  -28.047600   87.008700
  C      7.137960  -27.323200   88.994600
  H      6.867850  -26.369700   89.501400
  H      6.421770  -28.194000   89.396800
  H      8.200110  -27.525400   89.144500
  S      8.749580  -24.017800   80.966600
  C      8.632230  -22.414100   80.383500
  C      7.550420  -21.752500   80.973200
  C      6.840600  -22.541700   81.907500
  C      7.468070  -23.734800   82.170600
  H      7.292150  -20.760300   80.672800
  C      5.692340  -22.069800   82.655900
  H      5.743680  -21.028900   82.875700
  H      5.853520  -22.418800   83.622500
  C      4.277060  -22.505600   82.306300
  H      3.642480  -22.134200   83.054300
  H      4.205090  -23.611900   82.233300
  C      3.806000  -22.167700   80.849100
  H      4.409210  -22.484700   79.987400
  H      3.589060  -21.091800   80.771300
  H      2.869310  -22.720100   80.651700
  H      7.568750  -27.965300   84.792500
  H      9.340670  -22.013200   79.710900

 Total Charge           Charge          ....    0
 Multiplicity           Mult            ....    1
 Number of Electrons    NEL             ....  134
 Basis Dimension        Dim             ....  322

ORBITAL ENERGIES
----------------

  NO   OCC          E(Eh)            E(eV)
   0   2.0000     -88.967419     -2420.9266
   1   2.0000     -88.964117     -2420.8367
   2   2.0000     -10.331214      -281.1266
   3   2.0000     -10.325493      -280.9710
   4   2.0000     -10.313626      -280.6480
   5   2.0000     -10.311904      -280.6012
   6   2.0000     -10.302723      -280.3514
   7   2.0000     -10.301365      -280.3144
   8   2.0000     -10.296381      -280.1788
   9   2.0000     -10.295338      -280.1504
  10   2.0000     -10.294921      -280.1390
  11   2.0000     -10.294067      -280.1158
  12   2.0000     -10.290302      -280.0134
  13   2.0000     -10.284660      -279.8598
  14   2.0000     -10.275995      -279.6240
  15   2.0000     -10.274439      -279.5817
  16   2.0000      -8.082730      -219.9423
  17   2.0000      -8.079181      -219.8457
  18   2.0000      -6.041252      -164.3908
  19   2.0000      -6.037577      -164.2908
  20   2.0000      -6.037015      -164.2755
  21   2.0000      -6.033615      -164.1830
  22   2.0000      -6.033576      -164.1819
  23   2.0000      -6.030053      -164.0861
  24   2.0000      -1.009728       -27.4761
  25   2.0000      -0.988507       -26.8987
  26   2.0000      -0.914358       -24.8809
  27   2.0000      -0.906142       -24.6574
  28   2.0000      -0.866074       -23.5671
  29   2.0000      -0.850798       -23.1514
  30   2.0000      -0.845087       -22.9960
  31   2.0000      -0.811827       -22.0909
  32   2.0000      -0.786677       -21.4066
  33   2.0000      -0.772031       -21.0080
  34   2.0000      -0.708282       -19.2733
  35   2.0000      -0.697736       -18.9864
  36   2.0000      -0.686540       -18.6817
  37   2.0000      -0.665341       -18.1048
  38   2.0000      -0.639937       -17.4136
  39   2.0000      -0.611135       -16.6298
  40   2.0000      -0.599550       -16.3146
  41   2.0000      -0.570471       -15.5233
  42   2.0000      -0.561005       -15.2657
  43   2.0000      -0.555364       -15.1122
  44   2.0000      -0.541854       -14.7446
  45   2.0000      -0.523115       -14.2347
  46   2.0000      -0.516449       -14.0533
  47   2.0000      -0.507934       -13.8216
  48   2.0000      -0.504822       -13.7369
  49   2.0000      -0.499333       -13.5875
  50   2.0000      -0.490199       -13.3390
  51   2.0000      -0.483334       -13.1522
  52   2.0000      -0.478114       -13.0101
  53   2.0000      -0.468677       -12.7533
  54   2.0000      -0.457787       -12.4570
  55   2.0000      -0.444431       -12.0936
  56   2.0000      -0.440550       -11.9880
  57   2.0000      -0.435003       -11.8370
  58   2.0000      -0.433220       -11.7885
  59   2.0000      -0.425395       -11.5756
  60   2.0000      -0.423430       -11.5221
  61   2.0000      -0.407764       -11.0958
  62   2.0000      -0.399725       -10.8771
  63   2.0000      -0.348394        -9.4803
  64   2.0000      -0.330878        -9.0037
  65   2.0000      -0.328120        -8.9286
  66   2.0000      -0.291845        -7.9415
  67   0.0000       0.030527         0.8307
  68   0.0000       0.063228         1.7205
  69   0.0000       0.120136         3.2691
  70   0.0000       0.123515         3.3610
  71   0.0000       0.130941         3.5631

MULLIKEN ATOMIC CHARGES
-----------------------
   0 S :    0.112502
   1 C :   -0.112928
   2 C :   -0.122971
   3 C :    0.033524
   4 C :   -0.164997
   5 H :    0.036927
   6 C :    0.112133
   7 H :    0.007631
   8 H :    0.043913
   9 C :   -0.150962
  10 H :    0.047136
  11 H :    0.025410
  12 C :   -0.078674
  13 H :    0.036749
  14 H :    0.062114
  15 H :    0.041539
  16 S :    0.114168
  17 C :   -0.086439
  18 C :   -0.020764
  19 C :   -0.041985
  20 C :   -0.156220
  21 H :    0.005558
  22 C :    0.134340
  23 H :    0.003914
  24 H :   -0.022876
  25 C :   -0.043435
  26 H :    0.025785
  27 H :    0.035282
  28 C :   -0.085016
  29 H :    0.045812
  30 H :    0.027357
  31 H :    0.029168
  32 H :    0.057850
  33 H :    0.048456
Sum of atomic charges:    0.0000000

LOEWDIN ATOMIC CHARGES
----------------------
   0 S :    0.428379
   1 C :   -0.216474
   2 C :   -0.065909
   3 C :   -0.060988
   4 C :   -0.197522
   5 H :    0.036954
   6 C :   -0.031341
   7 H :    0.022540
   8 H :    0.035960
   9 C :   -0.056780
  10 H :    0.032134
  11 H :    0.018818
  12 C :   -0.075726
  13 H :    0.024392
  14 H :    0.045511
  15 H :    0.023661
  16 S :    0.410784
  17 C :   -0.187931
  18 C :   -0.066460
  19 C :   -0.057680
  20 C :   -0.190597
  21 H :    0.026148
  22 C :   -0.038556
  23 H :    0.027891
  24 H :    0.026945
  25 C :   -0.026411
  26 H :    0.021038
  27 H :    0.031862
  28 C :   -0.076929
  29 H :    0.029683
  30 H :    0.019741
  31 H :    0.027402
  32 H :    0.037532
  33 H :    0.021928

  Mayer bond orders larger than 0.100000
B(  0-S ,  1-C ) :   1.1381 B(  0-S ,  4-C ) :   1.1651 B(  1-C ,  2-C ) :   1.6157
B(  1-C , 32-H ) :   0.9635 B(  2-C ,  3-C ) :   1.2602 B(  2-C ,  6-C ) :   1.0118
B(  3-C ,  4-C ) :   1.5572 B(  3-C ,  5-H ) :   0.9802 B(  4-C , 20-C ) :   1.0270
B(  6-C ,  7-H ) :   0.9421 B(  6-C ,  8-H ) :   0.9353 B(  6-C ,  9-C ) :   1.0601
B(  9-C , 10-H ) :   0.9588 B(  9-C , 11-H ) :   0.9544 B(  9-C , 12-C ) :   1.0720
B( 12-C , 13-H ) :   0.9767 B( 12-C , 14-H ) :   0.9724 B( 12-C , 15-H ) :   0.9739
B( 16-S , 17-C ) :   1.1756 B( 16-S , 20-C ) :   1.1360 B( 17-C , 18-C ) :   1.5649
B( 17-C , 33-H ) :   0.9761 B( 18-C , 19-C ) :   1.2518 B( 18-C , 21-H ) :   1.0017
B( 19-C , 20-C ) :   1.5823 B( 19-C , 22-C ) :   1.0530 B( 22-C , 23-H ) :   0.9225
B( 22-C , 24-H ) :   0.8994 B( 22-C , 25-C ) :   1.0789 B( 25-C , 26-H ) :   0.9530
B( 25-C , 27-H ) :   0.9582 B( 25-C , 28-C ) :   1.0719 B( 28-C , 29-H ) :   0.9748
B( 28-C , 30-H ) :   0.9772 B( 28-C , 31-H ) :   0.9770

Dispersion correction           -0.013975601
FINAL SINGLE POINT ENERGY     -1339.868453111687

DIPOLE MOMENT
-------------
                                X             Y             Z
Electronic contribution:     14.03752      -2.84127     -18.98380
Nuclear contribution   :    -14.08494       3.13859      19.47050
                        -----------------------------------------
Total Dipole Moment    :     -0.04742       0.29732       0.48670
                        -----------------------------------------
Magnitude (a.u.)       :      0.57229
Magnitude (Debye)      :      1.45466

Rotational constants in cm-1:     0.022930     0.007121     0.006242
Rotational constants in MHz :   687.429259   213.482451   187.121988

                             ****ORCA TERMINATED NORMALLY****
TOTAL RUN TIME: 0 days 0 hours 0 minutes 33 seconds 716 msec
