                         Program Version 4.2.1 -  RELEASE  -
|  1> ! wB97X-D3 SP def2-SVP
|  2> %pal
|  3> nprocs 16
|  4> end
|  5>
|  6> * xyz 0 1
|  7> S 	 -39.4795 	 -1.34497 	 99.5374
|  8> C 	 -38.2114 	 -2.54294 	 99.4894
|  9> C 	 -36.93 	 -2.02879 	 99.4933
| 10> C 	 -36.9606 	 -0.629782 	 99.54
| 11> C 	 -38.2189 	 -0.104364 	 99.697
| 12> H 	 -36.0943 	 -0.0111188 	 99.529
| 13> C 	 -35.6556 	 -2.78546 	 99.3843
| 14> H 	 -36.0034 	 -3.83829 	 99.2518
| 15> H 	 -35.3229 	 -2.58069 	 100.431
| 16> C 	 -34.6095 	 -2.41347 	 98.2492
| 17> H 	 -34.0068 	 -1.53928 	 98.5369
| 18> H 	 -33.9361 	 -3.22984 	 98.2109
| 19> C 	 -35.1421 	 -2.15398 	 96.7871
| 20> H 	 -34.2796 	 -1.93317 	 96.1627
| 21> H 	 -35.6151 	 -3.06628 	 96.4135
| 22> H 	 -35.8209 	 -1.2746 	 96.5296
| 23> S 	 -39.6152 	 1.88815 	 101.105
| 24> C 	 -39.3157 	 3.58585 	 100.704
| 25> C 	 -38.6314 	 3.66287 	 99.5596
| 26> C 	 -38.159 	 2.42274 	 99.0118
| 27> C 	 -38.5782 	 1.32903 	 99.7865
| 28> H 	 -38.4088 	 4.6335 	 99.2015
| 29> C 	 -37.1623 	 2.332 	 97.8402
| 30> H 	 -37.7335 	 2.64608 	 96.956
| 31> H 	 -37.012 	 1.30322 	 97.7206
| 32> C 	 -35.7992 	 3.00014 	 98.0577
| 33> H 	 -35.3125 	 2.59004 	 98.9222
| 34> H 	 -35.9616 	 4.08108 	 98.2417
| 35> C 	 -34.9205 	 2.93531 	 96.7637
| 36> H 	 -34.6347 	 1.93324 	 96.5402
| 37> H 	 -33.9896 	 3.45654 	 97.0429
| 38> H 	 -35.4754 	 3.44989 	 95.993
| 39> H 	 -38.4912 	 -3.5574 	 99.6161
| 40> H 	 -39.5612 	 4.43847 	 101.362
| 41> *
| 42>
| 43>                          ****END OF INPUT****

CARTESIAN COORDINATES (ANGSTROEM)
---------------------------------
  S    -39.479500   -1.344970   99.537400
  C    -38.211400   -2.542940   99.489400
  C    -36.930000   -2.028790   99.493300
  C    -36.960600   -0.629782   99.540000
  C    -38.218900   -0.104364   99.697000
  H    -36.094300   -0.011119   99.529000
  C    -35.655600   -2.785460   99.384300
  H    -36.003400   -3.838290   99.251800
  H    -35.322900   -2.580690  100.431000
  C    -34.609500   -2.413470   98.249200
  H    -34.006800   -1.539280   98.536900
  H    -33.936100   -3.229840   98.210900
  C    -35.142100   -2.153980   96.787100
  H    -34.279600   -1.933170   96.162700
  H    -35.615100   -3.066280   96.413500
  H    -35.820900   -1.274600   96.529600
  S    -39.615200    1.888150  101.105000
  C    -39.315700    3.585850  100.704000
  C    -38.631400    3.662870   99.559600
  C    -38.159000    2.422740   99.011800
  C    -38.578200    1.329030   99.786500
  H    -38.408800    4.633500   99.201500
  C    -37.162300    2.332000   97.840200
  H    -37.733500    2.646080   96.956000
  H    -37.012000    1.303220   97.720600
  C    -35.799200    3.000140   98.057700
  H    -35.312500    2.590040   98.922200
  H    -35.961600    4.081080   98.241700
  C    -34.920500    2.935310   96.763700
  H    -34.634700    1.933240   96.540200
  H    -33.989600    3.456540   97.042900
  H    -35.475400    3.449890   95.993000
  H    -38.491200   -3.557400   99.616100
  H    -39.561200    4.438470  101.362000

 Total Charge           Charge          ....    0
 Multiplicity           Mult            ....    1
 Number of Electrons    NEL             ....  134
 Basis Dimension        Dim             ....  322

ORBITAL ENERGIES
----------------

  NO   OCC          E(Eh)            E(eV)
   0   2.0000     -88.963916     -2420.8312
   1   2.0000     -88.959156     -2420.7017
   2   2.0000     -10.329495      -281.0799
   3   2.0000     -10.327437      -281.0238
   4   2.0000     -10.315418      -280.6968
   5   2.0000     -10.306926      -280.4657
   6   2.0000     -10.303972      -280.3853
   7   2.0000     -10.300846      -280.3003
   8   2.0000     -10.300193      -280.2825
   9   2.0000     -10.295232      -280.1475
  10   2.0000     -10.289888      -280.0021
  11   2.0000     -10.288605      -279.9672
  12   2.0000     -10.287516      -279.9375
  13   2.0000     -10.286482      -279.9094
  14   2.0000     -10.286054      -279.8978
  15   2.0000     -10.280510      -279.7469
  16   2.0000      -8.078601      -219.8299
  17   2.0000      -8.073687      -219.6962
  18   2.0000      -6.037027      -164.2759
  19   2.0000      -6.033274      -164.1737
  20   2.0000      -6.032325      -164.1479
  21   2.0000      -6.029322      -164.0662
  22   2.0000      -6.028230      -164.0365
  23   2.0000      -6.024314      -163.9299
  24   2.0000      -1.002834       -27.2885
  25   2.0000      -0.982981       -26.7483
  26   2.0000      -0.906322       -24.6623
  27   2.0000      -0.906061       -24.6552
  28   2.0000      -0.866156       -23.5693
  29   2.0000      -0.851108       -23.1598
  30   2.0000      -0.843713       -22.9586
  31   2.0000      -0.818355       -22.2686
  32   2.0000      -0.782430       -21.2910
  33   2.0000      -0.769037       -20.9265
  34   2.0000      -0.711718       -19.3668
  35   2.0000      -0.701298       -19.0833
  36   2.0000      -0.695886       -18.9360
  37   2.0000      -0.654662       -17.8143
  38   2.0000      -0.640064       -17.4170
  39   2.0000      -0.622532       -16.9400
  40   2.0000      -0.591855       -16.1052
  41   2.0000      -0.572442       -15.5769
  42   2.0000      -0.561048       -15.2669
  43   2.0000      -0.552293       -15.0287
  44   2.0000      -0.535478       -14.5711
  45   2.0000      -0.527177       -14.3452
  46   2.0000      -0.522278       -14.2119
  47   2.0000      -0.506794       -13.7906
  48   2.0000      -0.504035       -13.7155
  49   2.0000      -0.494083       -13.4447
  50   2.0000      -0.487238       -13.2584
  51   2.0000      -0.481799       -13.1104
  52   2.0000      -0.471622       -12.8335
  53   2.0000      -0.463990       -12.6258
  54   2.0000      -0.460533       -12.5317
  55   2.0000      -0.449722       -12.2376
  56   2.0000      -0.443876       -12.0785
  57   2.0000      -0.439064       -11.9475
  58   2.0000      -0.432920       -11.7803
  59   2.0000      -0.426279       -11.5996
  60   2.0000      -0.424245       -11.5443
  61   2.0000      -0.420605       -11.4452
  62   2.0000      -0.410257       -11.1637
  63   2.0000      -0.344878        -9.3846
  64   2.0000      -0.330852        -9.0029
  65   2.0000      -0.325190        -8.8489
  66   2.0000      -0.291564        -7.9339
  67   0.0000       0.034522         0.9394
  68   0.0000       0.069924         1.9027
  69   0.0000       0.112272         3.0551
  70   0.0000       0.116780         3.1778
  71   0.0000       0.126990         3.4556

MULLIKEN ATOMIC CHARGES
-----------------------
   0 S :    0.107469
   1 C :   -0.131974
   2 C :   -0.073710
   3 C :    0.019633
   4 C :   -0.136000
   5 H :   -0.007092
   6 C :    0.047831
   7 H :    0.026249
   8 H :    0.057581
   9 C :   -0.052783
  10 H :    0.032728
  11 H :    0.032078
  12 C :   -0.086871
  13 H :    0.032726
  14 H :    0.038232
  15 H :    0.057239
  16 S :    0.087325
  17 C :   -0.105224
  18 C :   -0.013621
  19 C :   -0.046546
  20 C :   -0.166403
  21 H :    0.000665
  22 C :    0.109915
  23 H :    0.030655
  24 H :   -0.006298
  25 C :   -0.094922
  26 H :    0.028956
  27 H :    0.029076
  28 C :   -0.024129
  29 H :    0.026564
  30 H :    0.035953
  31 H :    0.038844
  32 H :    0.034354
  33 H :    0.071500
Sum of atomic charges:    0.0000000

LOEWDIN ATOMIC CHARGES
----------------------
   0 S :    0.394295
   1 C :   -0.196367
   2 C :   -0.068077
   3 C :   -0.059554
   4 C :   -0.177676
   5 H :    0.026370
   6 C :   -0.038595
   7 H :    0.034436
   8 H :    0.047754
   9 C :   -0.034777
  10 H :    0.024936
  11 H :    0.025208
  12 C :   -0.075745
  13 H :    0.027130
  14 H :    0.026007
  15 H :    0.035327
  16 S :    0.377727
  17 C :   -0.177196
  18 C :   -0.072639
  19 C :   -0.051858
  20 C :   -0.197018
  21 H :    0.024657
  22 C :   -0.031527
  23 H :    0.034863
  24 H :    0.019019
  25 C :   -0.035478
  26 H :    0.019650
  27 H :    0.023845
  28 C :   -0.055631
  29 H :    0.018205
  30 H :    0.030407
  31 H :    0.026541
  32 H :    0.015482
  33 H :    0.040278

  Mayer bond orders larger than 0.100000
B(  0-S ,  1-C ) :   1.1360 B(  0-S ,  4-C ) :   1.1575 B(  1-C ,  2-C ) :   1.6048
B(  1-C , 32-H ) :   0.9676 B(  2-C ,  3-C ) :   1.2401 B(  2-C ,  6-C ) :   1.0051
B(  3-C ,  4-C ) :   1.5781 B(  3-C ,  5-H ) :   1.0049 B(  4-C , 20-C ) :   1.0173
B(  6-C ,  7-H ) :   0.9415 B(  6-C ,  8-H ) :   0.9384 B(  6-C ,  9-C ) :   1.0577
B(  9-C , 10-H ) :   0.9551 B(  9-C , 11-H ) :   0.9571 B(  9-C , 12-C ) :   1.0727
B( 12-C , 13-H ) :   0.9730 B( 12-C , 14-H ) :   0.9775 B( 12-C , 15-H ) :   0.9728
B( 16-S , 17-C ) :   1.1320 B( 16-S , 20-C ) :   1.1370 B( 17-C , 18-C ) :   1.6452
B( 17-C , 33-H ) :   0.9636 B( 18-C , 19-C ) :   1.2076 B( 18-C , 21-H ) :   0.9970
B( 19-C , 20-C ) :   1.6047 B( 19-C , 22-C ) :   1.0413 B( 22-C , 23-H ) :   0.9271
B( 22-C , 24-H ) :   0.9255 B( 22-C , 25-C ) :   1.0615 B( 25-C , 26-H ) :   0.9548
B( 25-C , 27-H ) :   0.9566 B( 25-C , 28-C ) :   1.0792 B( 28-C , 29-H ) :   0.9778
B( 28-C , 30-H ) :   0.9750 B( 28-C , 31-H ) :   0.9763

Dispersion correction           -0.015034111
FINAL SINGLE POINT ENERGY     -1339.875738536402

DIPOLE MOMENT
-------------
                                X             Y             Z
Electronic contribution:    -26.50623       0.10923      17.48389
Nuclear contribution   :     27.32619       0.00853     -17.80010
                        -----------------------------------------
Total Dipole Moment    :      0.81996       0.11776      -0.31621
                        -----------------------------------------
Magnitude (a.u.)       :      0.88667
Magnitude (Debye)      :      2.25375

Rotational constants in cm-1:     0.016413     0.010597     0.006991
Rotational constants in MHz :   492.054900   317.702937   209.573969

                             ****ORCA TERMINATED NORMALLY****
TOTAL RUN TIME: 0 days 0 hours 0 minutes 31 seconds 252 msec
