                         Program Version 4.2.1 -  RELEASE  -
|  1> ! wB97X-D3 SP def2-SVP
|  2> %pal
|  3> nprocs 16
|  4> end
|  5>
|  6> * xyz 0 1
|  7> S 	 46.7202 	 15.5779 	 80.8624
|  8> C 	 46.8572 	 17.2001 	 81.436
|  9> C 	 48.1438 	 17.6209 	 81.3229
| 10> C 	 49.0329 	 16.485 	 81.1602
| 11> C 	 48.4185 	 15.2936 	 81.0347
| 12> H 	 50.0926 	 16.5781 	 81.0821
| 13> C 	 48.5425 	 19.0619 	 81.5534
| 14> H 	 47.6525 	 19.6367 	 81.8
| 15> H 	 49.001 	 19.4474 	 80.679
| 16> C 	 49.5797 	 19.2491 	 82.6961
| 17> H 	 50.4879 	 18.6418 	 82.6796
| 18> H 	 49.967 	 20.3206 	 82.7133
| 19> C 	 48.9446 	 18.9539 	 84.0443
| 20> H 	 48.1651 	 19.5872 	 84.3981
| 21> H 	 48.4759 	 17.9862 	 84.1099
| 22> H 	 49.7382 	 18.9719 	 84.802
| 23> S 	 48.4592 	 13.1632 	 79.3412
| 24> C 	 49.8991 	 12.2121 	 79.2894
| 25> C 	 50.8173 	 12.6002 	 80.2421
| 26> C 	 50.3056 	 13.6068 	 81.1461
| 27> C 	 49.0498 	 14.0199 	 80.8224
| 28> H 	 51.7925 	 12.091 	 80.3609
| 29> C 	 51.2989 	 14.1866 	 82.2116
| 30> H 	 50.6931 	 14.8299 	 82.8822
| 31> H 	 51.9806 	 14.8216 	 81.7253
| 32> C 	 51.9981 	 13.2128 	 83.082
| 33> H 	 52.6768 	 13.7768 	 83.6252
| 34> H 	 52.5806 	 12.566 	 82.4699
| 35> C 	 51.1009 	 12.5759 	 84.1971
| 36> H 	 50.2364 	 12.1398 	 83.6623
| 37> H 	 50.7636 	 13.3705 	 84.8945
| 38> H 	 51.5484 	 11.6896 	 84.6818
| 39> H 	 46.1316 	 17.942 	 81.3782
| 40> H 	 50.107 	 11.3639 	 78.6065
| 41> *
| 42>
| 43>                          ****END OF INPUT****

CARTESIAN COORDINATES (ANGSTROEM)
---------------------------------
  S     46.720200   15.577900   80.862400
  C     46.857200   17.200100   81.436000
  C     48.143800   17.620900   81.322900
  C     49.032900   16.485000   81.160200
  C     48.418500   15.293600   81.034700
  H     50.092600   16.578100   81.082100
  C     48.542500   19.061900   81.553400
  H     47.652500   19.636700   81.800000
  H     49.001000   19.447400   80.679000
  C     49.579700   19.249100   82.696100
  H     50.487900   18.641800   82.679600
  H     49.967000   20.320600   82.713300
  C     48.944600   18.953900   84.044300
  H     48.165100   19.587200   84.398100
  H     48.475900   17.986200   84.109900
  H     49.738200   18.971900   84.802000
  S     48.459200   13.163200   79.341200
  C     49.899100   12.212100   79.289400
  C     50.817300   12.600200   80.242100
  C     50.305600   13.606800   81.146100
  C     49.049800   14.019900   80.822400
  H     51.792500   12.091000   80.360900
  C     51.298900   14.186600   82.211600
  H     50.693100   14.829900   82.882200
  H     51.980600   14.821600   81.725300
  C     51.998100   13.212800   83.082000
  H     52.676800   13.776800   83.625200
  H     52.580600   12.566000   82.469900
  C     51.100900   12.575900   84.197100
  H     50.236400   12.139800   83.662300
  H     50.763600   13.370500   84.894500
  H     51.548400   11.689600   84.681800
  H     46.131600   17.942000   81.378200
  H     50.107000   11.363900   78.606500

 Total Charge           Charge          ....    0
 Multiplicity           Mult            ....    1
 Number of Electrons    NEL             ....  134
 Basis Dimension        Dim             ....  322

ORBITAL ENERGIES
----------------

  NO   OCC          E(Eh)            E(eV)
   0   2.0000     -88.964968     -2420.8599
   1   2.0000     -88.959052     -2420.6989
   2   2.0000     -10.327790      -281.0334
   3   2.0000     -10.324218      -280.9363
   4   2.0000     -10.322812      -280.8980
   5   2.0000     -10.307721      -280.4874
   6   2.0000     -10.301825      -280.3269
   7   2.0000     -10.298118      -280.2260
   8   2.0000     -10.297194      -280.2009
   9   2.0000     -10.292861      -280.0830
  10   2.0000     -10.292776      -280.0807
  11   2.0000     -10.292385      -280.0700
  12   2.0000     -10.288503      -279.9644
  13   2.0000     -10.283287      -279.8225
  14   2.0000     -10.278482      -279.6917
  15   2.0000     -10.267602      -279.3957
  16   2.0000      -8.079702      -219.8599
  17   2.0000      -8.075062      -219.7336
  18   2.0000      -6.038357      -164.3120
  19   2.0000      -6.034283      -164.2012
  20   2.0000      -6.033673      -164.1846
  21   2.0000      -6.030202      -164.0902
  22   2.0000      -6.029643      -164.0749
  23   2.0000      -6.025379      -163.9589
  24   2.0000      -1.014197       -27.5977
  25   2.0000      -0.987610       -26.8742
  26   2.0000      -0.916555       -24.9407
  27   2.0000      -0.913483       -24.8571
  28   2.0000      -0.876383       -23.8476
  29   2.0000      -0.849800       -23.1242
  30   2.0000      -0.839143       -22.8342
  31   2.0000      -0.817178       -22.2365
  32   2.0000      -0.785943       -21.3866
  33   2.0000      -0.778553       -21.1855
  34   2.0000      -0.714507       -19.4427
  35   2.0000      -0.698896       -19.0179
  36   2.0000      -0.693976       -18.8841
  37   2.0000      -0.658577       -17.9208
  38   2.0000      -0.642241       -17.4763
  39   2.0000      -0.623453       -16.9650
  40   2.0000      -0.600541       -16.3415
  41   2.0000      -0.567453       -15.4412
  42   2.0000      -0.561581       -15.2814
  43   2.0000      -0.555868       -15.1259
  44   2.0000      -0.545031       -14.8311
  45   2.0000      -0.536087       -14.5877
  46   2.0000      -0.520411       -14.1611
  47   2.0000      -0.512426       -13.9438
  48   2.0000      -0.507808       -13.8182
  49   2.0000      -0.499055       -13.5800
  50   2.0000      -0.488747       -13.2995
  51   2.0000      -0.477368       -12.9898
  52   2.0000      -0.468699       -12.7539
  53   2.0000      -0.465088       -12.6557
  54   2.0000      -0.461208       -12.5501
  55   2.0000      -0.447054       -12.1650
  56   2.0000      -0.444740       -12.1020
  57   2.0000      -0.440080       -11.9752
  58   2.0000      -0.431725       -11.7478
  59   2.0000      -0.427804       -11.6411
  60   2.0000      -0.425238       -11.5713
  61   2.0000      -0.412521       -11.2253
  62   2.0000      -0.407747       -11.0953
  63   2.0000      -0.358602        -9.7581
  64   2.0000      -0.334111        -9.0916
  65   2.0000      -0.322940        -8.7877
  66   2.0000      -0.293409        -7.9841
  67   0.0000       0.025565         0.6957
  68   0.0000       0.073058         1.9880
  69   0.0000       0.100976         2.7477
  70   0.0000       0.124971         3.4006
  71   0.0000       0.125957         3.4275

MULLIKEN ATOMIC CHARGES
-----------------------
   0 S :    0.089724
   1 C :   -0.059142
   2 C :   -0.141957
   3 C :    0.012045
   4 C :   -0.116025
   5 H :   -0.003299
   6 C :    0.118340
   7 H :    0.019523
   8 H :    0.027743
   9 C :   -0.102482
  10 H :    0.033857
  11 H :    0.037095
  12 C :   -0.052145
  13 H :    0.018267
  14 H :    0.032202
  15 H :    0.024359
  16 S :    0.083226
  17 C :   -0.085967
  18 C :   -0.061146
  19 C :   -0.076360
  20 C :   -0.092923
  21 H :    0.033365
  22 C :    0.050032
  23 H :    0.020308
  24 H :    0.033177
  25 C :   -0.011502
  26 H :    0.006789
  27 H :    0.011919
  28 C :   -0.075524
  29 H :    0.039800
  30 H :    0.047477
  31 H :    0.043004
  32 H :    0.025270
  33 H :    0.070949
Sum of atomic charges:    0.0000000

LOEWDIN ATOMIC CHARGES
----------------------
   0 S :    0.403739
   1 C :   -0.196899
   2 C :   -0.055876
   3 C :   -0.062166
   4 C :   -0.193050
   5 H :    0.023823
   6 C :   -0.023610
   7 H :    0.032157
   8 H :    0.028308
   9 C :   -0.044191
  10 H :    0.024094
  11 H :    0.030875
  12 C :   -0.070048
  13 H :    0.018021
  14 H :    0.024693
  15 H :    0.025550
  16 S :    0.386084
  17 C :   -0.186137
  18 C :   -0.081636
  19 C :   -0.049296
  20 C :   -0.179382
  21 H :    0.034600
  22 C :   -0.023829
  23 H :    0.031021
  24 H :    0.025977
  25 C :   -0.037233
  26 H :    0.018882
  27 H :    0.015542
  28 C :   -0.066406
  29 H :    0.028732
  30 H :    0.032092
  31 H :    0.029976
  32 H :    0.016076
  33 H :    0.039517

  Mayer bond orders larger than 0.100000
B(  0-S ,  1-C ) :   1.1273 B(  0-S ,  4-C ) :   1.1329 B(  1-C ,  2-C ) :   1.6437
B(  1-C , 32-H ) :   0.9619 B(  2-C ,  3-C ) :   1.2085 B(  2-C ,  6-C ) :   1.0372
B(  3-C ,  4-C ) :   1.5889 B(  3-C ,  5-H ) :   1.0028 B(  4-C , 20-C ) :   1.0396
B(  6-C ,  7-H ) :   0.9438 B(  6-C ,  8-H ) :   0.9287 B(  6-C ,  9-C ) :   1.0669
B(  9-C , 10-H ) :   0.9595 B(  9-C , 11-H ) :   0.9548 B(  9-C , 12-C ) :   1.0711
B( 12-C , 13-H ) :   0.9752 B( 12-C , 14-H ) :   0.9743 B( 12-C , 15-H ) :   0.9743
B( 16-S , 17-C ) :   1.1586 B( 16-S , 20-C ) :   1.1044 B( 17-C , 18-C ) :   1.6315
B( 17-C , 33-H ) :   0.9599 B( 18-C , 19-C ) :   1.2139 B( 18-C , 21-H ) :   0.9831
B( 19-C , 20-C ) :   1.6591 B( 19-C , 22-C ) :   1.0119 B( 22-C , 23-H ) :   0.9374
B( 22-C , 24-H ) :   0.9356 B( 22-C , 25-C ) :   1.0874 B( 25-C , 26-H ) :   0.9445
B( 25-C , 27-H ) :   0.9515 B( 25-C , 28-C ) :   1.0663 B( 28-C , 29-H ) :   0.9802
B( 28-C , 30-H ) :   0.9719 B( 28-C , 31-H ) :   0.9752

Dispersion correction           -0.014493770
FINAL SINGLE POINT ENERGY     -1339.863381330286

DIPOLE MOMENT
-------------
                                X             Y             Z
Electronic contribution:    -16.39372     -11.06695     -20.41216
Nuclear contribution   :     17.19798      11.39954      20.50977
                        -----------------------------------------
Total Dipole Moment    :      0.80426       0.33258       0.09761
                        -----------------------------------------
Magnitude (a.u.)       :      0.87577
Magnitude (Debye)      :      2.22603

Rotational constants in cm-1:     0.017888     0.009604     0.007057
Rotational constants in MHz :   536.268573   287.923811   211.576260

                             ****ORCA TERMINATED NORMALLY****
TOTAL RUN TIME: 0 days 0 hours 0 minutes 31 seconds 356 msec
