                         Program Version 4.2.1 -  RELEASE  -
|  1> ! wB97X-D3 SP def2-SVP
|  2> %pal
|  3> nprocs 16
|  4> end
|  5>
|  6> * xyz 0 1
|  7> S 	 -32.2306 	 65.4306 	 110.511
|  8> C 	 -31.912 	 66.489 	 109.166
|  9> C 	 -30.5473 	 66.7251 	 109.019
| 10> C 	 -29.8131 	 65.9799 	 109.978
| 11> C 	 -30.524 	 65.1143 	 110.78
| 12> H 	 -28.7899 	 65.9421 	 110.234
| 13> C 	 -29.8922 	 67.6927 	 108.078
| 14> H 	 -29.2514 	 68.4112 	 108.651
| 15> H 	 -30.7186 	 68.343 	 107.631
| 16> C 	 -29.0229 	 66.9964 	 106.944
| 17> H 	 -28.4189 	 67.723 	 106.483
| 18> H 	 -28.2633 	 66.2465 	 107.317
| 19> C 	 -29.8145 	 66.2831 	 105.834
| 20> H 	 -29.3685 	 66.261 	 104.942
| 21> H 	 -30.0907 	 65.3096 	 106.11
| 22> H 	 -30.7462 	 66.7884 	 105.584
| 23> S 	 -31.1441 	 64.0627 	 113.278
| 24> C 	 -30.144 	 62.807 	 113.931
| 25> C 	 -28.9552 	 62.7487 	 113.226
| 26> C 	 -28.9004 	 63.5093 	 111.99
| 27> C 	 -30.0474 	 64.2475 	 111.877
| 28> H 	 -28.1209 	 62.0081 	 113.442
| 29> C 	 -27.7546 	 63.4789 	 111.041
| 30> H 	 -27.1853 	 64.37 	 111.107
| 31> H 	 -28.2341 	 63.3768 	 110.083
| 32> C 	 -26.7188 	 62.3413 	 111.223
| 33> H 	 -27.2164 	 61.4138 	 111.344
| 34> H 	 -26.0897 	 62.6318 	 112.085
| 35> C 	 -25.787 	 62.2718 	 110.012
| 36> H 	 -25.2508 	 63.2364 	 109.899
| 37> H 	 -26.3462 	 61.9927 	 109.101
| 38> H 	 -25.1467 	 61.5427 	 110.271
| 39> H 	 -32.621 	 67.1383 	 108.692
| 40> H 	 -30.2542 	 62.2982 	 114.935
| 41> *
| 42>
| 43>                          ****END OF INPUT****

CARTESIAN COORDINATES (ANGSTROEM)
---------------------------------
  S    -32.230600   65.430600  110.511000
  C    -31.912000   66.489000  109.166000
  C    -30.547300   66.725100  109.019000
  C    -29.813100   65.979900  109.978000
  C    -30.524000   65.114300  110.780000
  H    -28.789900   65.942100  110.234000
  C    -29.892200   67.692700  108.078000
  H    -29.251400   68.411200  108.651000
  H    -30.718600   68.343000  107.631000
  C    -29.022900   66.996400  106.944000
  H    -28.418900   67.723000  106.483000
  H    -28.263300   66.246500  107.317000
  C    -29.814500   66.283100  105.834000
  H    -29.368500   66.261000  104.942000
  H    -30.090700   65.309600  106.110000
  H    -30.746200   66.788400  105.584000
  S    -31.144100   64.062700  113.278000
  C    -30.144000   62.807000  113.931000
  C    -28.955200   62.748700  113.226000
  C    -28.900400   63.509300  111.990000
  C    -30.047400   64.247500  111.877000
  H    -28.120900   62.008100  113.442000
  C    -27.754600   63.478900  111.041000
  H    -27.185300   64.370000  111.107000
  H    -28.234100   63.376800  110.083000
  C    -26.718800   62.341300  111.223000
  H    -27.216400   61.413800  111.344000
  H    -26.089700   62.631800  112.085000
  C    -25.787000   62.271800  110.012000
  H    -25.250800   63.236400  109.899000
  H    -26.346200   61.992700  109.101000
  H    -25.146700   61.542700  110.271000
  H    -32.621000   67.138300  108.692000
  H    -30.254200   62.298200  114.935000

 Total Charge           Charge          ....    0
 Multiplicity           Mult            ....    1
 Number of Electrons    NEL             ....  134
 Basis Dimension        Dim             ....  322

ORBITAL ENERGIES
----------------

  NO   OCC          E(Eh)            E(eV)
   0   2.0000     -88.966142     -2420.8918
   1   2.0000     -88.963021     -2420.8069
   2   2.0000     -10.329139      -281.0701
   3   2.0000     -10.327826      -281.0344
   4   2.0000     -10.321500      -280.8623
   5   2.0000     -10.312448      -280.6160
   6   2.0000     -10.305753      -280.4338
   7   2.0000     -10.302015      -280.3321
   8   2.0000     -10.301705      -280.3236
   9   2.0000     -10.298499      -280.2364
  10   2.0000     -10.290840      -280.0280
  11   2.0000     -10.288841      -279.9736
  12   2.0000     -10.288326      -279.9596
  13   2.0000     -10.286876      -279.9201
  14   2.0000     -10.275804      -279.6188
  15   2.0000     -10.260358      -279.1985
  16   2.0000      -8.080536      -219.8826
  17   2.0000      -8.077741      -219.8065
  18   2.0000      -6.039180      -164.3345
  19   2.0000      -6.036227      -164.2541
  20   2.0000      -6.035179      -164.2256
  21   2.0000      -6.032288      -164.1469
  22   2.0000      -6.031082      -164.1141
  23   2.0000      -6.028472      -164.0431
  24   2.0000      -1.005890       -27.3717
  25   2.0000      -0.983966       -26.7751
  26   2.0000      -0.918585       -24.9960
  27   2.0000      -0.904103       -24.6019
  28   2.0000      -0.869393       -23.6574
  29   2.0000      -0.857388       -23.3307
  30   2.0000      -0.844355       -22.9761
  31   2.0000      -0.813709       -22.1422
  32   2.0000      -0.786621       -21.4051
  33   2.0000      -0.775704       -21.1080
  34   2.0000      -0.710809       -19.3421
  35   2.0000      -0.703048       -19.1309
  36   2.0000      -0.694695       -18.9036
  37   2.0000      -0.650259       -17.6945
  38   2.0000      -0.641831       -17.4651
  39   2.0000      -0.615458       -16.7475
  40   2.0000      -0.600909       -16.3516
  41   2.0000      -0.585631       -15.9358
  42   2.0000      -0.564449       -15.3595
  43   2.0000      -0.545304       -14.8385
  44   2.0000      -0.535617       -14.5749
  45   2.0000      -0.532480       -14.4895
  46   2.0000      -0.520410       -14.1611
  47   2.0000      -0.513593       -13.9756
  48   2.0000      -0.503067       -13.6892
  49   2.0000      -0.496382       -13.5072
  50   2.0000      -0.486074       -13.2268
  51   2.0000      -0.478056       -13.0086
  52   2.0000      -0.474456       -12.9106
  53   2.0000      -0.472103       -12.8466
  54   2.0000      -0.458606       -12.4793
  55   2.0000      -0.451208       -12.2780
  56   2.0000      -0.441427       -12.0119
  57   2.0000      -0.439202       -11.9513
  58   2.0000      -0.436885       -11.8882
  59   2.0000      -0.426664       -11.6101
  60   2.0000      -0.422419       -11.4946
  61   2.0000      -0.418839       -11.3972
  62   2.0000      -0.413316       -11.2469
  63   2.0000      -0.355274        -9.6675
  64   2.0000      -0.330440        -8.9917
  65   2.0000      -0.327248        -8.9049
  66   2.0000      -0.286964        -7.8087
  67   0.0000       0.023720         0.6455
  68   0.0000       0.079835         2.1724
  69   0.0000       0.102988         2.8024
  70   0.0000       0.126013         3.4290
  71   0.0000       0.130377         3.5477

MULLIKEN ATOMIC CHARGES
-----------------------
   0 S :    0.095387
   1 C :   -0.099513
   2 C :   -0.062650
   3 C :    0.020600
   4 C :   -0.151429
   5 H :   -0.017385
   6 C :    0.031690
   7 H :    0.045778
   8 H :    0.031189
   9 C :   -0.075753
  10 H :    0.015469
  11 H :    0.038888
  12 C :    0.014049
  13 H :    0.001095
  14 H :    0.025974
  15 H :    0.008438
  16 S :    0.102768
  17 C :   -0.097964
  18 C :   -0.063280
  19 C :   -0.062735
  20 C :   -0.144808
  21 H :    0.039905
  22 C :    0.067607
  23 H :    0.040965
  24 H :    0.032329
  25 C :   -0.127875
  26 H :    0.032186
  27 H :    0.038603
  28 C :    0.014027
  29 H :    0.032124
  30 H :    0.038591
  31 H :    0.009993
  32 H :    0.043242
  33 H :    0.082497
Sum of atomic charges:   -0.0000000

LOEWDIN ATOMIC CHARGES
----------------------
   0 S :    0.400563
   1 C :   -0.198556
   2 C :   -0.067516
   3 C :   -0.065313
   4 C :   -0.187536
   5 H :    0.022931
   6 C :   -0.033162
   7 H :    0.038243
   8 H :    0.035630
   9 C :   -0.036982
  10 H :    0.015401
  11 H :    0.031929
  12 C :   -0.054307
  13 H :    0.010086
  14 H :    0.021783
  15 H :    0.025940
  16 S :    0.391326
  17 C :   -0.204658
  18 C :   -0.081711
  19 C :   -0.058511
  20 C :   -0.181408
  21 H :    0.037793
  22 C :   -0.032136
  23 H :    0.028969
  24 H :    0.034955
  25 C :   -0.034297
  26 H :    0.017952
  27 H :    0.028336
  28 C :   -0.049791
  29 H :    0.029508
  30 H :    0.029675
  31 H :    0.010679
  32 H :    0.026523
  33 H :    0.047660

  Mayer bond orders larger than 0.100000
B(  0-S ,  1-C ) :   1.1475 B(  0-S ,  4-C ) :   1.1380 B(  1-C ,  2-C ) :   1.5948
B(  1-C , 32-H ) :   0.9649 B(  2-C ,  3-C ) :   1.2262 B(  2-C ,  6-C ) :   1.0320
B(  3-C ,  4-C ) :   1.5762 B(  3-C ,  5-H ) :   1.0004 B(  4-C , 20-C ) :   1.0604
B(  6-C ,  7-H ) :   0.9434 B(  6-C ,  8-H ) :   0.9437 B(  6-C ,  9-C ) :   1.0595
B(  9-C , 10-H ) :   0.9603 B(  9-C , 11-H ) :   0.9605 B(  9-C , 12-C ) :   1.0710
B( 12-C , 13-H ) :   0.9720 B( 12-C , 14-H ) :   0.9761 B( 12-C , 15-H ) :   0.9709
B( 16-S , 17-C ) :   1.1390 B( 16-S , 20-C ) :   1.1267 B( 17-C , 18-C ) :   1.6209
B( 17-C , 33-H ) :   0.9551 B( 18-C , 19-C ) :   1.2447 B( 18-C , 21-H ) :   0.9649
B( 19-C , 20-C ) :   1.6269 B( 19-C , 22-C ) :   1.0353 B( 22-C , 23-H ) :   0.9221
B( 22-C , 24-H ) :   0.9259 B( 22-C , 25-C ) :   1.0901 B( 25-C , 26-H ) :   0.9550
B( 25-C , 27-H ) :   0.9455 B( 25-C , 28-C ) :   1.0923 B( 28-C , 29-H ) :   0.9713
B( 28-C , 30-H ) :   0.9739 B( 28-C , 31-H ) :   0.9701

Dispersion correction           -0.013658515
FINAL SINGLE POINT ENERGY     -1339.862663682583

DIPOLE MOMENT
-------------
                                X             Y             Z
Electronic contribution:    -22.62849       0.58344      21.01071
Nuclear contribution   :     23.43630      -0.54067     -21.29759
                        -----------------------------------------
Total Dipole Moment    :      0.80781       0.04276      -0.28688
                        -----------------------------------------
Magnitude (a.u.)       :      0.85830
Magnitude (Debye)      :      2.18163

Rotational constants in cm-1:     0.016583     0.009422     0.006328
Rotational constants in MHz :   497.131826   282.457608   189.694669

                             ****ORCA TERMINATED NORMALLY****
TOTAL RUN TIME: 0 days 0 hours 0 minutes 27 seconds 238 msec
