                         Program Version 4.2.1 -  RELEASE  -
|  1> ! wB97X-D3 SP def2-SVP
|  2> %pal
|  3> nprocs 16
|  4> end
|  5>
|  6> * xyz 0 1
|  7> S 	 -55.7256 	 20.4472 	 86.1784
|  8> C 	 -54.3524 	 19.4 	 86.1452
|  9> C 	 -53.1479 	 20.0583 	 85.8178
| 10> C 	 -53.4641 	 21.4114 	 85.4378
| 11> C 	 -54.7612 	 21.7893 	 85.6571
| 12> H 	 -52.8354 	 22.2179 	 85.0854
| 13> C 	 -51.8129 	 19.3943 	 85.8862
| 14> H 	 -51.2419 	 19.5871 	 84.9113
| 15> H 	 -51.8512 	 18.2595 	 85.9984
| 16> C 	 -50.8971 	 20.0217 	 86.9672
| 17> H 	 -49.9436 	 19.6534 	 86.6668
| 18> H 	 -50.8505 	 21.127 	 86.8472
| 19> C 	 -51.2041 	 19.5704 	 88.4267
| 20> H 	 -50.8996 	 18.5532 	 88.63
| 21> H 	 -50.6271 	 20.1375 	 89.1593
| 22> H 	 -52.2743 	 19.7356 	 88.7095
| 23> S 	 -56.8605 	 23.4117 	 84.721
| 24> C 	 -57.0046 	 25.0622 	 85.3341
| 25> C 	 -55.8012 	 25.4458 	 85.9157
| 26> C 	 -54.8855 	 24.3405 	 86.1255
| 27> C 	 -55.3178 	 23.1656 	 85.5466
| 28> H 	 -55.5759 	 26.4696 	 86.1929
| 29> C 	 -53.4908 	 24.5699 	 86.7643
| 30> H 	 -52.8413 	 24.913 	 85.9489
| 31> H 	 -53.0591 	 23.6352 	 86.9073
| 32> C 	 -53.4151 	 25.4093 	 88.1232
| 33> H 	 -53.3561 	 26.4486 	 87.79
| 34> H 	 -52.4475 	 25.2264 	 88.5765
| 35> C 	 -54.5173 	 25.1743 	 89.1992
| 36> H 	 -55.5571 	 25.5239 	 88.8866
| 37> H 	 -54.1746 	 25.7729 	 90.0325
| 38> H 	 -54.5313 	 24.11 	 89.438
| 39> H 	 -54.3647 	 18.3001 	 85.985
| 40> H 	 -57.8199 	 25.8202 	 85.1103
| 41> *
| 42>
| 43>                          ****END OF INPUT****

CARTESIAN COORDINATES (ANGSTROEM)
---------------------------------
  S    -55.725600   20.447200   86.178400
  C    -54.352400   19.400000   86.145200
  C    -53.147900   20.058300   85.817800
  C    -53.464100   21.411400   85.437800
  C    -54.761200   21.789300   85.657100
  H    -52.835400   22.217900   85.085400
  C    -51.812900   19.394300   85.886200
  H    -51.241900   19.587100   84.911300
  H    -51.851200   18.259500   85.998400
  C    -50.897100   20.021700   86.967200
  H    -49.943600   19.653400   86.666800
  H    -50.850500   21.127000   86.847200
  C    -51.204100   19.570400   88.426700
  H    -50.899600   18.553200   88.630000
  H    -50.627100   20.137500   89.159300
  H    -52.274300   19.735600   88.709500
  S    -56.860500   23.411700   84.721000
  C    -57.004600   25.062200   85.334100
  C    -55.801200   25.445800   85.915700
  C    -54.885500   24.340500   86.125500
  C    -55.317800   23.165600   85.546600
  H    -55.575900   26.469600   86.192900
  C    -53.490800   24.569900   86.764300
  H    -52.841300   24.913000   85.948900
  H    -53.059100   23.635200   86.907300
  C    -53.415100   25.409300   88.123200
  H    -53.356100   26.448600   87.790000
  H    -52.447500   25.226400   88.576500
  C    -54.517300   25.174300   89.199200
  H    -55.557100   25.523900   88.886600
  H    -54.174600   25.772900   90.032500
  H    -54.531300   24.110000   89.438000
  H    -54.364700   18.300100   85.985000
  H    -57.819900   25.820200   85.110300

 Total Charge           Charge          ....    0
 Multiplicity           Mult            ....    1
 Number of Electrons    NEL             ....  134
 Basis Dimension        Dim             ....  322

ORBITAL ENERGIES
----------------

  NO   OCC          E(Eh)            E(eV)
   0   2.0000     -88.965825     -2420.8832
   1   2.0000     -88.965679     -2420.8792
   2   2.0000     -10.328870      -281.0628
   3   2.0000     -10.327752      -281.0324
   4   2.0000     -10.326912      -281.0096
   5   2.0000     -10.313072      -280.6330
   6   2.0000     -10.307129      -280.4712
   7   2.0000     -10.305936      -280.4388
   8   2.0000     -10.304805      -280.4080
   9   2.0000     -10.297355      -280.2053
  10   2.0000     -10.294652      -280.1317
  11   2.0000     -10.293083      -280.0890
  12   2.0000     -10.291620      -280.0492
  13   2.0000     -10.291610      -280.0489
  14   2.0000     -10.283910      -279.8394
  15   2.0000     -10.279567      -279.7212
  16   2.0000      -8.080932      -219.8933
  17   2.0000      -8.079965      -219.8670
  18   2.0000      -6.039363      -164.3394
  19   2.0000      -6.038638      -164.3197
  20   2.0000      -6.035326      -164.2296
  21   2.0000      -6.034582      -164.2093
  22   2.0000      -6.031769      -164.1328
  23   2.0000      -6.030548      -164.0996
  24   2.0000      -1.005182       -27.3524
  25   2.0000      -0.981920       -26.7194
  26   2.0000      -0.909666       -24.7533
  27   2.0000      -0.896546       -24.3963
  28   2.0000      -0.864290       -23.5185
  29   2.0000      -0.847991       -23.0750
  30   2.0000      -0.840237       -22.8640
  31   2.0000      -0.814171       -22.1547
  32   2.0000      -0.783841       -21.3294
  33   2.0000      -0.773081       -21.0366
  34   2.0000      -0.706726       -19.2310
  35   2.0000      -0.695486       -18.9251
  36   2.0000      -0.686926       -18.6922
  37   2.0000      -0.654451       -17.8085
  38   2.0000      -0.640855       -17.4385
  39   2.0000      -0.617127       -16.7929
  40   2.0000      -0.588525       -16.0146
  41   2.0000      -0.567932       -15.4542
  42   2.0000      -0.548526       -14.9261
  43   2.0000      -0.547872       -14.9084
  44   2.0000      -0.537721       -14.6321
  45   2.0000      -0.534327       -14.5398
  46   2.0000      -0.513582       -13.9753
  47   2.0000      -0.507356       -13.8059
  48   2.0000      -0.498874       -13.5751
  49   2.0000      -0.491032       -13.3617
  50   2.0000      -0.488386       -13.2897
  51   2.0000      -0.475785       -12.9468
  52   2.0000      -0.472319       -12.8524
  53   2.0000      -0.465292       -12.6612
  54   2.0000      -0.454262       -12.3611
  55   2.0000      -0.447469       -12.1762
  56   2.0000      -0.441832       -12.0229
  57   2.0000      -0.436491       -11.8775
  58   2.0000      -0.433120       -11.7858
  59   2.0000      -0.433017       -11.7830
  60   2.0000      -0.418408       -11.3855
  61   2.0000      -0.415180       -11.2976
  62   2.0000      -0.413487       -11.2515
  63   2.0000      -0.341099        -9.2818
  64   2.0000      -0.330111        -8.9828
  65   2.0000      -0.326607        -8.8874
  66   2.0000      -0.296308        -8.0630
  67   0.0000       0.028480         0.7750
  68   0.0000       0.072719         1.9788
  69   0.0000       0.108367         2.9488
  70   0.0000       0.119018         3.2387
  71   0.0000       0.125941         3.4270

MULLIKEN ATOMIC CHARGES
-----------------------
   0 S :    0.126100
   1 C :   -0.126662
   2 C :   -0.087291
   3 C :    0.028569
   4 C :   -0.152509
   5 H :    0.008054
   6 C :    0.010529
   7 H :    0.040701
   8 H :    0.037481
   9 C :   -0.067617
  10 H :    0.018064
  11 H :    0.036587
  12 C :   -0.049811
  13 H :    0.027666
  14 H :    0.026990
  15 H :    0.049139
  16 S :    0.101169
  17 C :   -0.116863
  18 C :   -0.027358
  19 C :   -0.056538
  20 C :   -0.172498
  21 H :    0.023450
  22 C :    0.077097
  23 H :    0.042518
  24 H :   -0.004809
  25 C :   -0.089911
  26 H :    0.027546
  27 H :    0.027766
  28 C :   -0.048727
  29 H :    0.051228
  30 H :    0.038531
  31 H :    0.046283
  32 H :    0.069860
  33 H :    0.085266
Sum of atomic charges:   -0.0000000

LOEWDIN ATOMIC CHARGES
----------------------
   0 S :    0.422992
   1 C :   -0.222473
   2 C :   -0.061680
   3 C :   -0.066959
   4 C :   -0.198109
   5 H :    0.029789
   6 C :   -0.040962
   7 H :    0.039023
   8 H :    0.037457
   9 C :   -0.038056
  10 H :    0.019486
  11 H :    0.026876
  12 C :   -0.071160
  13 H :    0.023310
  14 H :    0.025799
  15 H :    0.032922
  16 S :    0.388490
  17 C :   -0.190226
  18 C :   -0.072461
  19 C :   -0.050251
  20 C :   -0.200549
  21 H :    0.030322
  22 C :   -0.035412
  23 H :    0.038654
  24 H :    0.015628
  25 C :   -0.040889
  26 H :    0.020065
  27 H :    0.025087
  28 C :   -0.064871
  29 H :    0.034109
  30 H :    0.028031
  31 H :    0.029733
  32 H :    0.038687
  33 H :    0.047599

  Mayer bond orders larger than 0.100000
B(  0-S ,  1-C ) :   1.1501 B(  0-S ,  4-C ) :   1.1557 B(  1-C ,  2-C ) :   1.5962
B(  1-C , 32-H ) :   0.9546 B(  2-C ,  3-C ) :   1.2268 B(  2-C ,  6-C ) :   1.0431
B(  3-C ,  4-C ) :   1.5844 B(  3-C ,  5-H ) :   0.9936 B(  4-C , 20-C ) :   1.0182
B(  6-C ,  7-H ) :   0.9382 B(  6-C ,  8-H ) :   0.9439 B(  6-C ,  9-C ) :   1.0618
B(  9-C , 10-H ) :   0.9550 B(  9-C , 11-H ) :   0.9595 B(  9-C , 12-C ) :   1.0690
B( 12-C , 13-H ) :   0.9748 B( 12-C , 14-H ) :   0.9738 B( 12-C , 15-H ) :   0.9774
B( 16-S , 17-C ) :   1.1463 B( 16-S , 20-C ) :   1.1280 B( 17-C , 18-C ) :   1.6140
B( 17-C , 33-H ) :   0.9582 B( 18-C , 19-C ) :   1.2288 B( 18-C , 21-H ) :   0.9853
B( 19-C , 20-C ) :   1.6145 B( 19-C , 22-C ) :   1.0366 B( 22-C , 23-H ) :   0.9386
B( 22-C , 24-H ) :   0.9231 B( 22-C , 25-C ) :   1.0479 B( 25-C , 26-H ) :   0.9573
B( 25-C , 27-H ) :   0.9599 B( 25-C , 28-C ) :   1.0764 B( 28-C , 29-H ) :   0.9706
B( 28-C , 30-H ) :   0.9731 B( 28-C , 31-H ) :   0.9767

Dispersion correction           -0.014791181
FINAL SINGLE POINT ENERGY     -1339.873550037091

DIPOLE MOMENT
-------------
                                X             Y             Z
Electronic contribution:    -23.16648      -2.78928     -16.22506
Nuclear contribution   :     23.90687       3.07005      16.38501
                        -----------------------------------------
Total Dipole Moment    :      0.74039       0.28076       0.15995
                        -----------------------------------------
Magnitude (a.u.)       :      0.80783
Magnitude (Debye)      :      2.05334

Rotational constants in cm-1:     0.018673     0.009326     0.007040
Rotational constants in MHz :   559.789658   279.590766   211.058488

                             ****ORCA TERMINATED NORMALLY****
TOTAL RUN TIME: 0 days 0 hours 0 minutes 30 seconds 754 msec
