                         Program Version 4.2.1 -  RELEASE  -
|  1> ! wB97X-D3 SP def2-SVP
|  2> %pal
|  3> nprocs 16
|  4> end
|  5>
|  6> * xyz 0 1
|  7> S 	 -41.5223 	 38.6605 	 74.5539
|  8> C 	 -42.9865 	 38 	 75.339
|  9> C 	 -42.7063 	 37.4838 	 76.536
| 10> C 	 -41.2894 	 37.3503 	 76.7769
| 11> C 	 -40.527 	 37.8782 	 75.772
| 12> H 	 -40.8675 	 37.0387 	 77.7834
| 13> C 	 -43.7387 	 37.0414 	 77.6257
| 14> H 	 -43.1114 	 36.7296 	 78.471
| 15> H 	 -44.2378 	 36.0921 	 77.3802
| 16> C 	 -44.6763 	 38.186 	 78.0827
| 17> H 	 -44.2045 	 39.0683 	 78.5176
| 18> H 	 -45.301 	 38.4917 	 77.2411
| 19> C 	 -45.7246 	 37.7038 	 79.1099
| 20> H 	 -46.2124 	 38.5147 	 79.5494
| 21> H 	 -46.5161 	 37.134 	 78.6848
| 22> H 	 -45.3689 	 37.1167 	 79.9922
| 23> S 	 -38.3674 	 39.249 	 74.6467
| 24> C 	 -36.6697 	 38.6323 	 74.9136
| 25> C 	 -36.7607 	 37.4175 	 75.5082
| 26> C 	 -38.1006 	 37.0565 	 75.9515
| 27> C 	 -39.094 	 38.0006 	 75.7051
| 28> H 	 -35.9243 	 36.7201 	 75.5757
| 29> C 	 -38.2496 	 35.6624 	 76.6537
| 30> H 	 -38.7161 	 35.7806 	 77.565
| 31> H 	 -37.2871 	 35.2507 	 76.9126
| 32> C 	 -39.0561 	 34.6256 	 75.7934
| 33> H 	 -40.0314 	 35.0519 	 75.5408
| 34> H 	 -39.206 	 33.7606 	 76.3948
| 35> C 	 -38.3124 	 34.2868 	 74.4802
| 36> H 	 -37.2651 	 34.2046 	 74.6864
| 37> H 	 -38.5157 	 34.8669 	 73.6201
| 38> H 	 -38.6765 	 33.2541 	 74.2652
| 39> H 	 -43.9991 	 38.2203 	 75.0434
| 40> H 	 -35.7819 	 39.125 	 74.5671
| 41> *
| 42>
| 43>                          ****END OF INPUT****

CARTESIAN COORDINATES (ANGSTROEM)
---------------------------------
  S    -41.522300   38.660500   74.553900
  C    -42.986500   38.000000   75.339000
  C    -42.706300   37.483800   76.536000
  C    -41.289400   37.350300   76.776900
  C    -40.527000   37.878200   75.772000
  H    -40.867500   37.038700   77.783400
  C    -43.738700   37.041400   77.625700
  H    -43.111400   36.729600   78.471000
  H    -44.237800   36.092100   77.380200
  C    -44.676300   38.186000   78.082700
  H    -44.204500   39.068300   78.517600
  H    -45.301000   38.491700   77.241100
  C    -45.724600   37.703800   79.109900
  H    -46.212400   38.514700   79.549400
  H    -46.516100   37.134000   78.684800
  H    -45.368900   37.116700   79.992200
  S    -38.367400   39.249000   74.646700
  C    -36.669700   38.632300   74.913600
  C    -36.760700   37.417500   75.508200
  C    -38.100600   37.056500   75.951500
  C    -39.094000   38.000600   75.705100
  H    -35.924300   36.720100   75.575700
  C    -38.249600   35.662400   76.653700
  H    -38.716100   35.780600   77.565000
  H    -37.287100   35.250700   76.912600
  C    -39.056100   34.625600   75.793400
  H    -40.031400   35.051900   75.540800
  H    -39.206000   33.760600   76.394800
  C    -38.312400   34.286800   74.480200
  H    -37.265100   34.204600   74.686400
  H    -38.515700   34.866900   73.620100
  H    -38.676500   33.254100   74.265200
  H    -43.999100   38.220300   75.043400
  H    -35.781900   39.125000   74.567100

 Total Charge           Charge          ....    0
 Multiplicity           Mult            ....    1
 Number of Electrons    NEL             ....  134
 Basis Dimension        Dim             ....  322

ORBITAL ENERGIES
----------------

  NO   OCC          E(Eh)            E(eV)
   0   2.0000     -88.965788     -2420.8822
   1   2.0000     -88.961605     -2420.7683
   2   2.0000     -10.332285      -281.1558
   3   2.0000     -10.332030      -281.1488
   4   2.0000     -10.324493      -280.9438
   5   2.0000     -10.310163      -280.5538
   6   2.0000     -10.309395      -280.5329
   7   2.0000     -10.300200      -280.2827
   8   2.0000     -10.299744      -280.2703
   9   2.0000     -10.298430      -280.2345
  10   2.0000     -10.297774      -280.2167
  11   2.0000     -10.292945      -280.0853
  12   2.0000     -10.286741      -279.9165
  13   2.0000     -10.281470      -279.7730
  14   2.0000     -10.272657      -279.5332
  15   2.0000     -10.269486      -279.4469
  16   2.0000      -8.080110      -219.8710
  17   2.0000      -8.075018      -219.7324
  18   2.0000      -6.038891      -164.3266
  19   2.0000      -6.034918      -164.2185
  20   2.0000      -6.033947      -164.1920
  21   2.0000      -6.030348      -164.0941
  22   2.0000      -6.029877      -164.0813
  23   2.0000      -6.025239      -163.9551
  24   2.0000      -1.005007       -27.3476
  25   2.0000      -0.977628       -26.6026
  26   2.0000      -0.907633       -24.6980
  27   2.0000      -0.899290       -24.4709
  28   2.0000      -0.874353       -23.7923
  29   2.0000      -0.846702       -23.0399
  30   2.0000      -0.835083       -22.7238
  31   2.0000      -0.817056       -22.2332
  32   2.0000      -0.782607       -21.2958
  33   2.0000      -0.775073       -21.0908
  34   2.0000      -0.713807       -19.4237
  35   2.0000      -0.704818       -19.1791
  36   2.0000      -0.689059       -18.7503
  37   2.0000      -0.663870       -18.0648
  38   2.0000      -0.635206       -17.2848
  39   2.0000      -0.615096       -16.7376
  40   2.0000      -0.592437       -16.1210
  41   2.0000      -0.565275       -15.3819
  42   2.0000      -0.561337       -15.2748
  43   2.0000      -0.556186       -15.1346
  44   2.0000      -0.541140       -14.7252
  45   2.0000      -0.525109       -14.2889
  46   2.0000      -0.516664       -14.0592
  47   2.0000      -0.509987       -13.8774
  48   2.0000      -0.503309       -13.6957
  49   2.0000      -0.498430       -13.5630
  50   2.0000      -0.489769       -13.3273
  51   2.0000      -0.480925       -13.0866
  52   2.0000      -0.469251       -12.7690
  53   2.0000      -0.462603       -12.5881
  54   2.0000      -0.460422       -12.5287
  55   2.0000      -0.448774       -12.2118
  56   2.0000      -0.443986       -12.0815
  57   2.0000      -0.437867       -11.9150
  58   2.0000      -0.426644       -11.6096
  59   2.0000      -0.422048       -11.4845
  60   2.0000      -0.419828       -11.4241
  61   2.0000      -0.415301       -11.3009
  62   2.0000      -0.404380       -11.0037
  63   2.0000      -0.363397        -9.8885
  64   2.0000      -0.334500        -9.1022
  65   2.0000      -0.324460        -8.8290
  66   2.0000      -0.287746        -7.8300
  67   0.0000       0.017743         0.4828
  68   0.0000       0.068393         1.8611
  69   0.0000       0.096028         2.6131
  70   0.0000       0.124048         3.3755
  71   0.0000       0.135445         3.6856

MULLIKEN ATOMIC CHARGES
-----------------------
   0 S :    0.088739
   1 C :   -0.113436
   2 C :   -0.078980
   3 C :   -0.026157
   4 C :   -0.117662
   5 H :    0.042838
   6 C :    0.068483
   7 H :    0.009928
   8 H :    0.045559
   9 C :   -0.073835
  10 H :    0.044951
  11 H :    0.031149
  12 C :   -0.042469
  13 H :    0.013834
  14 H :    0.021226
  15 H :    0.028254
  16 S :    0.048457
  17 C :   -0.080741
  18 C :   -0.003026
  19 C :   -0.085862
  20 C :   -0.092778
  21 H :    0.027251
  22 C :    0.083045
  23 H :    0.004429
  24 H :    0.009017
  25 C :   -0.073220
  26 H :    0.047511
  27 H :    0.023251
  28 C :   -0.037028
  29 H :    0.016334
  30 H :    0.045714
  31 H :    0.026027
  32 H :    0.039220
  33 H :    0.059977
Sum of atomic charges:   -0.0000000

LOEWDIN ATOMIC CHARGES
----------------------
   0 S :    0.379235
   1 C :   -0.181100
   2 C :   -0.062615
   3 C :   -0.077405
   4 C :   -0.178222
   5 H :    0.042648
   6 C :   -0.029816
   7 H :    0.027932
   8 H :    0.036104
   9 C :   -0.035436
  10 H :    0.030577
  11 H :    0.025601
  12 C :   -0.068141
  13 H :    0.018538
  14 H :    0.019578
  15 H :    0.026895
  16 S :    0.342823
  17 C :   -0.149422
  18 C :   -0.070318
  19 C :   -0.046458
  20 C :   -0.182784
  21 H :    0.033586
  22 C :   -0.023465
  23 H :    0.014855
  24 H :    0.023672
  25 C :   -0.030991
  26 H :    0.027775
  27 H :    0.018055
  28 C :   -0.062303
  29 H :    0.017296
  30 H :    0.023735
  31 H :    0.032169
  32 H :    0.026383
  33 H :    0.031019

  Mayer bond orders larger than 0.100000
B(  0-S ,  1-C ) :   1.0982 B(  0-S ,  4-C ) :   1.1304 B(  1-C ,  2-C ) :   1.6822
B(  1-C , 32-H ) :   0.9684 B(  2-C ,  3-C ) :   1.2214 B(  2-C ,  6-C ) :   0.9978
B(  3-C ,  4-C ) :   1.5950 B(  3-C ,  5-H ) :   0.9796 B(  4-C , 20-C ) :   1.0932
B(  6-C ,  7-H ) :   0.9415 B(  6-C ,  8-H ) :   0.9461 B(  6-C ,  9-C ) :   1.0590
B(  9-C , 10-H ) :   0.9628 B(  9-C , 11-H ) :   0.9566 B(  9-C , 12-C ) :   1.0810
B( 12-C , 13-H ) :   0.9725 B( 12-C , 14-H ) :   0.9762 B( 12-C , 15-H ) :   0.9748
B( 16-S , 17-C ) :   1.1233 B( 16-S , 20-C ) :   1.0967 B( 17-C , 18-C ) :   1.6243
B( 17-C , 33-H ) :   0.9735 B( 18-C , 19-C ) :   1.2351 B( 18-C , 21-H ) :   0.9853
B( 19-C , 20-C ) :   1.6037 B( 19-C , 22-C ) :   1.0208 B( 22-C , 23-H ) :   0.9388
B( 22-C , 24-H ) :   0.9422 B( 22-C , 25-C ) :   1.0758 B( 25-C , 26-H ) :   0.9551
B( 25-C , 27-H ) :   0.9608 B( 25-C , 28-C ) :   1.0644 B( 28-C , 29-H ) :   0.9791
B( 28-C , 30-H ) :   0.9780 B( 28-C , 31-H ) :   0.9753

Dispersion correction           -0.014546349
FINAL SINGLE POINT ENERGY     -1339.863856138888

DIPOLE MOMENT
-------------
                                X             Y             Z
Electronic contribution:     12.22773      17.43424     -14.18379
Nuclear contribution   :    -12.34358     -17.94446      14.68768
                        -----------------------------------------
Total Dipole Moment    :     -0.11585      -0.51022       0.50389
                        -----------------------------------------
Magnitude (a.u.)       :      0.72639
Magnitude (Debye)      :      1.84635

Rotational constants in cm-1:     0.022898     0.007556     0.006489
Rotational constants in MHz :   686.453390   226.528546   194.542746

                             ****ORCA TERMINATED NORMALLY****
TOTAL RUN TIME: 0 days 0 hours 0 minutes 30 seconds 320 msec
