                         Program Version 4.2.1 -  RELEASE  -
|  1> ! wB97X-D3 SP def2-SVP
|  2> %pal
|  3> nprocs 16
|  4> end
|  5>
|  6> * xyz 0 1
|  7> S 	 50.488 	 10.0984 	 90.3247
|  8> C 	 50.7455 	 11.2969 	 91.5675
|  9> C 	 50.4441 	 12.5639 	 91.0706
| 10> C 	 50.0927 	 12.6068 	 89.684
| 11> C 	 50.1118 	 11.3572 	 89.0908
| 12> H 	 49.8654 	 13.3841 	 88.9813
| 13> C 	 50.3493 	 13.8095 	 91.8216
| 14> H 	 49.87 	 13.4976 	 92.7287
| 15> H 	 49.7232 	 14.5068 	 91.3184
| 16> C 	 51.6986 	 14.5668 	 92.0658
| 17> H 	 51.6192 	 15.3214 	 92.831
| 18> H 	 52.3983 	 13.8694 	 92.4216
| 19> C 	 52.0729 	 15.4203 	 90.8678
| 20> H 	 51.2552 	 16.101 	 90.4111
| 21> H 	 52.9761 	 15.9914 	 91.0343
| 22> H 	 52.3558 	 14.6991 	 90.0493
| 23> S 	 51.198 	 10.43 	 86.7324
| 24> C 	 50.1912 	 10.4299 	 85.3509
| 25> C 	 48.9865 	 11.0456 	 85.6193
| 26> C 	 48.7102 	 11.3008 	 86.9978
| 27> C 	 49.8504 	 11.054 	 87.7371
| 28> H 	 48.388 	 11.3145 	 84.7504
| 29> C 	 47.4694 	 11.841 	 87.6394
| 30> H 	 47.201 	 12.8158 	 87.1955
| 31> H 	 47.6299 	 12.0597 	 88.6875
| 32> C 	 46.3317 	 10.8013 	 87.5579
| 33> H 	 46.4999 	 10.0569 	 88.3799
| 34> H 	 46.2025 	 10.2237 	 86.6004
| 35> C 	 44.9871 	 11.4833 	 87.798
| 36> H 	 44.2422 	 10.6606 	 87.9264
| 37> H 	 44.7559 	 12.1091 	 87.0126
| 38> H 	 44.964 	 11.9796 	 88.7439
| 39> H 	 51.0534 	 11.1189 	 92.6098
| 40> H 	 50.5519 	 10.2838 	 84.3446
| 41> *
| 42>
| 43>                          ****END OF INPUT****

CARTESIAN COORDINATES (ANGSTROEM)
---------------------------------
  S     50.488000   10.098400   90.324700
  C     50.745500   11.296900   91.567500
  C     50.444100   12.563900   91.070600
  C     50.092700   12.606800   89.684000
  C     50.111800   11.357200   89.090800
  H     49.865400   13.384100   88.981300
  C     50.349300   13.809500   91.821600
  H     49.870000   13.497600   92.728700
  H     49.723200   14.506800   91.318400
  C     51.698600   14.566800   92.065800
  H     51.619200   15.321400   92.831000
  H     52.398300   13.869400   92.421600
  C     52.072900   15.420300   90.867800
  H     51.255200   16.101000   90.411100
  H     52.976100   15.991400   91.034300
  H     52.355800   14.699100   90.049300
  S     51.198000   10.430000   86.732400
  C     50.191200   10.429900   85.350900
  C     48.986500   11.045600   85.619300
  C     48.710200   11.300800   86.997800
  C     49.850400   11.054000   87.737100
  H     48.388000   11.314500   84.750400
  C     47.469400   11.841000   87.639400
  H     47.201000   12.815800   87.195500
  H     47.629900   12.059700   88.687500
  C     46.331700   10.801300   87.557900
  H     46.499900   10.056900   88.379900
  H     46.202500   10.223700   86.600400
  C     44.987100   11.483300   87.798000
  H     44.242200   10.660600   87.926400
  H     44.755900   12.109100   87.012600
  H     44.964000   11.979600   88.743900
  H     51.053400   11.118900   92.609800
  H     50.551900   10.283800   84.344600

 Total Charge           Charge          ....    0
 Multiplicity           Mult            ....    1
 Number of Electrons    NEL             ....  134
 Basis Dimension        Dim             ....  322

ORBITAL ENERGIES
----------------

  NO   OCC          E(Eh)            E(eV)
   0   2.0000     -88.964118     -2420.8367
   1   2.0000     -88.962380     -2420.7894
   2   2.0000     -10.324779      -280.9515
   3   2.0000     -10.320485      -280.8347
   4   2.0000     -10.317831      -280.7625
   5   2.0000     -10.313521      -280.6452
   6   2.0000     -10.304223      -280.3922
   7   2.0000     -10.298638      -280.2402
   8   2.0000     -10.293885      -280.1108
   9   2.0000     -10.292281      -280.0672
  10   2.0000     -10.292122      -280.0629
  11   2.0000     -10.289438      -279.9899
  12   2.0000     -10.284168      -279.8464
  13   2.0000     -10.281467      -279.7730
  14   2.0000     -10.281090      -279.7627
  15   2.0000     -10.269243      -279.4403
  16   2.0000      -8.078098      -219.8162
  17   2.0000      -8.077497      -219.7999
  18   2.0000      -6.036699      -164.2669
  19   2.0000      -6.035924      -164.2458
  20   2.0000      -6.032628      -164.1562
  21   2.0000      -6.032041      -164.1402
  22   2.0000      -6.028872      -164.0539
  23   2.0000      -6.028221      -164.0362
  24   2.0000      -1.006194       -27.3799
  25   2.0000      -0.982333       -26.7306
  26   2.0000      -0.914633       -24.8884
  27   2.0000      -0.911685       -24.8082
  28   2.0000      -0.874244       -23.7894
  29   2.0000      -0.853037       -23.2123
  30   2.0000      -0.847111       -23.0511
  31   2.0000      -0.813646       -22.1404
  32   2.0000      -0.783665       -21.3246
  33   2.0000      -0.765911       -20.8415
  34   2.0000      -0.707132       -19.2420
  35   2.0000      -0.703011       -19.1299
  36   2.0000      -0.694050       -18.8861
  37   2.0000      -0.655993       -17.8505
  38   2.0000      -0.644978       -17.5507
  39   2.0000      -0.611465       -16.6388
  40   2.0000      -0.597389       -16.2558
  41   2.0000      -0.576631       -15.6909
  42   2.0000      -0.567024       -15.4295
  43   2.0000      -0.553638       -15.0652
  44   2.0000      -0.540671       -14.7124
  45   2.0000      -0.523598       -14.2478
  46   2.0000      -0.522959       -14.2304
  47   2.0000      -0.512924       -13.9574
  48   2.0000      -0.507732       -13.8161
  49   2.0000      -0.500691       -13.6245
  50   2.0000      -0.485752       -13.2180
  51   2.0000      -0.479807       -13.0562
  52   2.0000      -0.472189       -12.8489
  53   2.0000      -0.464303       -12.6343
  54   2.0000      -0.460835       -12.5400
  55   2.0000      -0.447061       -12.1652
  56   2.0000      -0.442689       -12.0462
  57   2.0000      -0.436170       -11.8688
  58   2.0000      -0.430261       -11.7080
  59   2.0000      -0.425653       -11.5826
  60   2.0000      -0.423640       -11.5278
  61   2.0000      -0.413187       -11.2434
  62   2.0000      -0.403687       -10.9849
  63   2.0000      -0.339936        -9.2501
  64   2.0000      -0.330806        -9.0017
  65   2.0000      -0.321575        -8.7505
  66   2.0000      -0.296354        -8.0642
  67   0.0000       0.031732         0.8635
  68   0.0000       0.061179         1.6648
  69   0.0000       0.111501         3.0341
  70   0.0000       0.117376         3.1940
  71   0.0000       0.138333         3.7642

MULLIKEN ATOMIC CHARGES
-----------------------
   0 S :    0.108555
   1 C :   -0.118527
   2 C :   -0.088132
   3 C :    0.050627
   4 C :   -0.195563
   5 H :    0.012208
   6 C :    0.080018
   7 H :    0.021116
   8 H :    0.006697
   9 C :   -0.016249
  10 H :    0.020413
  11 H :    0.016446
  12 C :   -0.104080
  13 H :    0.048188
  14 H :    0.037365
  15 H :    0.036427
  16 S :    0.112051
  17 C :   -0.078985
  18 C :   -0.066793
  19 C :    0.009865
  20 C :   -0.189200
  21 H :    0.019758
  22 C :    0.083358
  23 H :    0.029251
  24 H :    0.030717
  25 C :   -0.129657
  26 H :    0.040553
  27 H :    0.047041
  28 C :   -0.012523
  29 H :    0.031205
  30 H :    0.024474
  31 H :    0.019696
  32 H :    0.055903
  33 H :    0.057777
Sum of atomic charges:   -0.0000000

LOEWDIN ATOMIC CHARGES
----------------------
   0 S :    0.386676
   1 C :   -0.205502
   2 C :   -0.065802
   3 C :   -0.055852
   4 C :   -0.182864
   5 H :    0.034062
   6 C :   -0.028645
   7 H :    0.030299
   8 H :    0.024645
   9 C :   -0.031780
  10 H :    0.021222
  11 H :    0.017566
  12 C :   -0.077789
  13 H :    0.035414
  14 H :    0.023731
  15 H :    0.028624
  16 S :    0.403062
  17 C :   -0.195325
  18 C :   -0.074026
  19 C :   -0.045363
  20 C :   -0.195951
  21 H :    0.030799
  22 C :   -0.031795
  23 H :    0.031403
  24 H :    0.033494
  25 C :   -0.041460
  26 H :    0.031007
  27 H :    0.028957
  28 C :   -0.059018
  29 H :    0.031399
  30 H :    0.012457
  31 H :    0.020103
  32 H :    0.036340
  33 H :    0.029915

  Mayer bond orders larger than 0.100000
B(  0-S ,  1-C ) :   1.1325 B(  0-S ,  4-C ) :   1.1350 B(  1-C ,  2-C ) :   1.6034
B(  1-C , 32-H ) :   0.9668 B(  2-C ,  3-C ) :   1.2108 B(  2-C ,  6-C ) :   1.0321
B(  3-C ,  4-C ) :   1.5835 B(  3-C ,  5-H ) :   0.9972 B(  4-C , 20-C ) :   1.0683
B(  6-C ,  7-H ) :   0.9337 B(  6-C ,  8-H ) :   0.9428 B(  6-C ,  9-C ) :   1.0672
B(  9-C , 10-H ) :   0.9569 B(  9-C , 11-H ) :   0.9572 B(  9-C , 12-C ) :   1.0717
B( 12-C , 13-H ) :   0.9723 B( 12-C , 14-H ) :   0.9731 B( 12-C , 15-H ) :   0.9749
B( 16-S , 17-C ) :   1.1557 B( 16-S , 20-C ) :   1.1351 B( 17-C , 18-C ) :   1.6276
B( 17-C , 33-H ) :   0.9646 B( 18-C , 19-C ) :   1.2103 B( 18-C , 21-H ) :   0.9883
B( 19-C , 20-C ) :   1.5913 B( 19-C , 22-C ) :   1.0503 B( 22-C , 23-H ) :   0.9405
B( 22-C , 24-H ) :   0.9191 B( 22-C , 25-C ) :   1.0451 B( 25-C , 26-H ) :   0.9530
B( 25-C , 27-H ) :   0.9677 B( 25-C , 28-C ) :   1.0833 B( 28-C , 29-H ) :   0.9725
B( 28-C , 30-H ) :   0.9793 B( 28-C , 31-H ) :   0.9698

Dispersion correction           -0.014358164
FINAL SINGLE POINT ENERGY     -1339.868604082478

DIPOLE MOMENT
-------------
                                X             Y             Z
Electronic contribution:     12.96750     -17.88212      -6.45523
Nuclear contribution   :    -13.31514      18.48750       6.47717
                        -----------------------------------------
Total Dipole Moment    :     -0.34764       0.60538       0.02194
                        -----------------------------------------
Magnitude (a.u.)       :      0.69844
Magnitude (Debye)      :      1.77530

Rotational constants in cm-1:     0.017625     0.008468     0.007331
Rotational constants in MHz :   528.396776   253.869187   219.790902

                             ****ORCA TERMINATED NORMALLY****
TOTAL RUN TIME: 0 days 0 hours 0 minutes 29 seconds 868 msec
