                         Program Version 4.2.1 -  RELEASE  -
|  1> ! wB97X-D3 SP def2-SVP
|  2> %pal
|  3> nprocs 16
|  4> end
|  5>
|  6> * xyz 0 1
|  7> S 	 -103.404 	 45.725 	 121.401
|  8> C 	 -104.733 	 46.6652 	 121.778
|  9> C 	 -104.349 	 47.9192 	 122.154
| 10> C 	 -102.917 	 48.173 	 121.997
| 11> C 	 -102.27 	 46.9662 	 121.686
| 12> H 	 -102.435 	 49.1438 	 122.249
| 13> C 	 -105.299 	 49.0701 	 122.533
| 14> H 	 -104.888 	 49.7665 	 123.356
| 15> H 	 -106.238 	 48.6418 	 122.871
| 16> C 	 -105.685 	 50.0953 	 121.423
| 17> H 	 -104.843 	 50.7379 	 121.135
| 18> H 	 -106.168 	 49.6102 	 120.568
| 19> C 	 -106.782 	 51.0167 	 121.903
| 20> H 	 -107.144 	 51.6133 	 121.123
| 21> H 	 -107.629 	 50.5246 	 122.439
| 22> H 	 -106.508 	 51.7247 	 122.617
| 23> S 	 -100.014 	 46.6551 	 123.284
| 24> C 	 -98.4503 	 47.0752 	 122.503
| 25> C 	 -98.5963 	 47.4298 	 121.187
| 26> C 	 -99.9436 	 47.2161 	 120.665
| 27> C 	 -100.819 	 46.8295 	 121.702
| 28> H 	 -97.7543 	 47.8281 	 120.658
| 29> C 	 -100.424 	 47.6663 	 119.297
| 30> H 	 -101.333 	 47.0897 	 119.178
| 31> H 	 -99.7249 	 47.2265 	 118.635
| 32> C 	 -100.506 	 49.1601 	 119.017
| 33> H 	 -99.7128 	 49.751 	 119.619
| 34> H 	 -101.46 	 49.4622 	 119.314
| 35> C 	 -100.395 	 49.4258 	 117.565
| 36> H 	 -99.2941 	 49.4178 	 117.304
| 37> H 	 -100.8 	 50.4403 	 117.287
| 38> H 	 -100.907 	 48.627 	 117.014
| 39> H 	 -105.734 	 46.2958 	 121.79
| 40> H 	 -97.6165 	 47.399 	 123.117
| 41> *
| 42>
| 43>                          ****END OF INPUT****

CARTESIAN COORDINATES (ANGSTROEM)
---------------------------------
  S    -103.404000   45.725000  121.401000
  C    -104.733000   46.665200  121.778000
  C    -104.349000   47.919200  122.154000
  C    -102.917000   48.173000  121.997000
  C    -102.270000   46.966200  121.686000
  H    -102.435000   49.143800  122.249000
  C    -105.299000   49.070100  122.533000
  H    -104.888000   49.766500  123.356000
  H    -106.238000   48.641800  122.871000
  C    -105.685000   50.095300  121.423000
  H    -104.843000   50.737900  121.135000
  H    -106.168000   49.610200  120.568000
  C    -106.782000   51.016700  121.903000
  H    -107.144000   51.613300  121.123000
  H    -107.629000   50.524600  122.439000
  H    -106.508000   51.724700  122.617000
  S    -100.014000   46.655100  123.284000
  C    -98.450300   47.075200  122.503000
  C    -98.596300   47.429800  121.187000
  C    -99.943600   47.216100  120.665000
  C    -100.819000   46.829500  121.702000
  H    -97.754300   47.828100  120.658000
  C    -100.424000   47.666300  119.297000
  H    -101.333000   47.089700  119.178000
  H    -99.724900   47.226500  118.635000
  C    -100.506000   49.160100  119.017000
  H    -99.712800   49.751000  119.619000
  H    -101.460000   49.462200  119.314000
  C    -100.395000   49.425800  117.565000
  H    -99.294100   49.417800  117.304000
  H    -100.800000   50.440300  117.287000
  H    -100.907000   48.627000  117.014000
  H    -105.734000   46.295800  121.790000
  H    -97.616500   47.399000  123.117000

 Total Charge           Charge          ....    0
 Multiplicity           Mult            ....    1
 Number of Electrons    NEL             ....  134
 Basis Dimension        Dim             ....  322

ORBITAL ENERGIES
----------------

  NO   OCC          E(Eh)            E(eV)
   0   2.0000     -88.966200     -2420.8934
   1   2.0000     -88.963874     -2420.8301
   2   2.0000     -10.327022      -281.0126
   3   2.0000     -10.326465      -280.9974
   4   2.0000     -10.318621      -280.7839
   5   2.0000     -10.307008      -280.4679
   6   2.0000     -10.306905      -280.4652
   7   2.0000     -10.301280      -280.3121
   8   2.0000     -10.300236      -280.2837
   9   2.0000     -10.299078      -280.2522
  10   2.0000     -10.296457      -280.1808
  11   2.0000     -10.287616      -279.9403
  12   2.0000     -10.284497      -279.8554
  13   2.0000     -10.283546      -279.8295
  14   2.0000     -10.282757      -279.8080
  15   2.0000     -10.267646      -279.3969
  16   2.0000      -8.083058      -219.9512
  17   2.0000      -8.077508      -219.8002
  18   2.0000      -6.041366      -164.3939
  19   2.0000      -6.037060      -164.2768
  20   2.0000      -6.036087      -164.2503
  21   2.0000      -6.034097      -164.1961
  22   2.0000      -6.032371      -164.1492
  23   2.0000      -6.028057      -164.0318
  24   2.0000      -1.011450       -27.5230
  25   2.0000      -0.978571       -26.6283
  26   2.0000      -0.915227       -24.9046
  27   2.0000      -0.908567       -24.7234
  28   2.0000      -0.872445       -23.7404
  29   2.0000      -0.851562       -23.1722
  30   2.0000      -0.849571       -23.1180
  31   2.0000      -0.813582       -22.1387
  32   2.0000      -0.779552       -21.2127
  33   2.0000      -0.766799       -20.8657
  34   2.0000      -0.702886       -19.1265
  35   2.0000      -0.697284       -18.9741
  36   2.0000      -0.691026       -18.8038
  37   2.0000      -0.656649       -17.8683
  38   2.0000      -0.648225       -17.6391
  39   2.0000      -0.614023       -16.7084
  40   2.0000      -0.592782       -16.1304
  41   2.0000      -0.573633       -15.6093
  42   2.0000      -0.570638       -15.5279
  43   2.0000      -0.561852       -15.2888
  44   2.0000      -0.532057       -14.4780
  45   2.0000      -0.523186       -14.2366
  46   2.0000      -0.518950       -14.1213
  47   2.0000      -0.511226       -13.9112
  48   2.0000      -0.504822       -13.7369
  49   2.0000      -0.501817       -13.6551
  50   2.0000      -0.488410       -13.2903
  51   2.0000      -0.473554       -12.8860
  52   2.0000      -0.466019       -12.6810
  53   2.0000      -0.463804       -12.6207
  54   2.0000      -0.454303       -12.3622
  55   2.0000      -0.450297       -12.2532
  56   2.0000      -0.443522       -12.0689
  57   2.0000      -0.435424       -11.8485
  58   2.0000      -0.432702       -11.7744
  59   2.0000      -0.424580       -11.5534
  60   2.0000      -0.421118       -11.4592
  61   2.0000      -0.418472       -11.3872
  62   2.0000      -0.415601       -11.3091
  63   2.0000      -0.337752        -9.1907
  64   2.0000      -0.325484        -8.8569
  65   2.0000      -0.318387        -8.6638
  66   2.0000      -0.311279        -8.4703
  67   0.0000       0.044135         1.2010
  68   0.0000       0.054755         1.4900
  69   0.0000       0.108159         2.9432
  70   0.0000       0.120312         3.2739
  71   0.0000       0.126171         3.4333

MULLIKEN ATOMIC CHARGES
-----------------------
   0 S :    0.138014
   1 C :   -0.108643
   2 C :   -0.071019
   3 C :    0.037203
   4 C :   -0.196859
   5 H :    0.036668
   6 C :    0.014184
   7 H :    0.039911
   8 H :    0.013087
   9 C :   -0.057799
  10 H :    0.034230
  11 H :    0.031473
  12 C :   -0.033739
  13 H :    0.020774
  14 H :    0.024343
  15 H :    0.004021
  16 S :    0.094138
  17 C :   -0.095271
  18 C :   -0.034973
  19 C :   -0.067051
  20 C :   -0.153997
  21 H :    0.019135
  22 C :    0.104953
  23 H :    0.025491
  24 H :    0.007747
  25 C :   -0.032670
  26 H :    0.042596
  27 H :    0.013409
  28 C :   -0.078095
  29 H :    0.037696
  30 H :    0.042044
  31 H :    0.041379
  32 H :    0.041443
  33 H :    0.066178
Sum of atomic charges:   -0.0000000

LOEWDIN ATOMIC CHARGES
----------------------
   0 S :    0.462054
   1 C :   -0.220839
   2 C :   -0.068078
   3 C :   -0.057223
   4 C :   -0.223290
   5 H :    0.040169
   6 C :   -0.037395
   7 H :    0.038932
   8 H :    0.024101
   9 C :   -0.038658
  10 H :    0.025901
  11 H :    0.025755
  12 C :   -0.067130
  13 H :    0.020894
  14 H :    0.028433
  15 H :    0.013631
  16 S :    0.370147
  17 C :   -0.172706
  18 C :   -0.065799
  19 C :   -0.044670
  20 C :   -0.194867
  21 H :    0.029761
  22 C :   -0.031099
  23 H :    0.032904
  24 H :    0.024602
  25 C :   -0.042407
  26 H :    0.033988
  27 H :    0.016592
  28 C :   -0.068621
  29 H :    0.029624
  30 H :    0.030760
  31 H :    0.027527
  32 H :    0.027202
  33 H :    0.029804

  Mayer bond orders larger than 0.100000
B(  0-S ,  1-C ) :   1.1596 B(  0-S ,  4-C ) :   1.1799 B(  1-C ,  2-C ) :   1.5893
B(  1-C , 32-H ) :   0.9749 B(  2-C ,  3-C ) :   1.2546 B(  2-C ,  6-C ) :   1.0318
B(  3-C ,  4-C ) :   1.5410 B(  3-C ,  5-H ) :   0.9889 B(  4-C , 20-C ) :   1.0146
B(  6-C ,  7-H ) :   0.9453 B(  6-C ,  8-H ) :   0.9434 B(  6-C ,  9-C ) :   1.0674
B(  9-C , 10-H ) :   0.9528 B(  9-C , 11-H ) :   0.9576 B(  9-C , 12-C ) :   1.0840
B( 12-C , 13-H ) :   0.9718 B( 12-C , 14-H ) :   0.9710 B( 12-C , 15-H ) :   0.9700
B( 16-S , 17-C ) :   1.1301 B( 16-S , 20-C ) :   1.1370 B( 17-C , 18-C ) :   1.6616
B( 17-C , 33-H ) :   0.9610 B( 18-C , 19-C ) :   1.2033 B( 18-C , 21-H ) :   0.9888
B( 19-C , 20-C ) :   1.6164 B( 19-C , 22-C ) :   1.0484 B( 22-C , 23-H ) :   0.9099
B( 22-C , 24-H ) :   0.9316 B( 22-C , 25-C ) :   1.0522 B( 25-C , 26-H ) :   0.9604
B( 25-C , 27-H ) :   0.9455 B( 25-C , 28-C ) :   1.0818 B( 28-C , 29-H ) :   0.9752
B( 28-C , 30-H ) :   0.9723 B( 28-C , 31-H ) :   0.9715

Dispersion correction           -0.014266215
FINAL SINGLE POINT ENERGY     -1339.866075198614

DIPOLE MOMENT
-------------
                                X             Y             Z
Electronic contribution:     10.90176     -23.50377      13.48436
Nuclear contribution   :    -11.06376      24.25830     -13.72591
                        -----------------------------------------
Total Dipole Moment    :     -0.16200       0.75453      -0.24154
                        -----------------------------------------
Magnitude (a.u.)       :      0.80864
Magnitude (Debye)      :      2.05541

Rotational constants in cm-1:     0.017081     0.008530     0.006971
Rotational constants in MHz :   512.067394   255.736048   208.988522

                             ****ORCA TERMINATED NORMALLY****
TOTAL RUN TIME: 0 days 0 hours 0 minutes 32 seconds 985 msec
