                         Program Version 4.2.1 -  RELEASE  -
|  1> ! wB97X-D3 SP def2-SVP
|  2> %pal
|  3> nprocs 16
|  4> end
|  5>
|  6> * xyz 0 1
|  7> S 	 -48.351 	 35.2436 	 95.3746
|  8> C 	 -48.5246 	 33.9934 	 94.1168
|  9> C 	 -49.7777 	 34.2007 	 93.4385
| 10> C 	 -50.5236 	 35.2676 	 93.9313
| 11> C 	 -49.8987 	 35.9367 	 95.0003
| 12> H 	 -51.5025 	 35.6759 	 93.6952
| 13> C 	 -50.2041 	 33.581 	 92.1253
| 14> H 	 -49.4598 	 33.8326 	 91.3098
| 15> H 	 -51.1481 	 34.1541 	 91.8691
| 16> C 	 -50.5668 	 32.0723 	 92.2792
| 17> H 	 -50.7595 	 31.6328 	 91.3586
| 18> H 	 -49.7266 	 31.5501 	 92.7098
| 19> C 	 -51.7732 	 31.9532 	 93.234
| 20> H 	 -51.4739 	 32.1387 	 94.2946
| 21> H 	 -52.577 	 32.6429 	 92.9218
| 22> H 	 -52.1192 	 30.9176 	 93.2615
| 23> S 	 -49.3698 	 38.6337 	 95.4653
| 24> C 	 -50.4704 	 39.5731 	 96.4664
| 25> C 	 -51.5393 	 38.835 	 96.8276
| 26> C 	 -51.5453 	 37.4571 	 96.3635
| 27> C 	 -50.3598 	 37.1682 	 95.6789
| 28> H 	 -52.3067 	 39.2933 	 97.3735
| 29> C 	 -52.6217 	 36.3903 	 96.7528
| 30> H 	 -52.7523 	 36.522 	 97.8081
| 31> H 	 -52.4824 	 35.3972 	 96.5757
| 32> C 	 -53.9612 	 36.8659 	 96.2131
| 33> H 	 -54.159 	 37.911 	 96.5226
| 34> H 	 -54.776 	 36.1605 	 96.5156
| 35> C 	 -54.1883 	 36.7064 	 94.6874
| 36> H 	 -53.6047 	 37.3733 	 94.085
| 37> H 	 -55.2737 	 36.9332 	 94.4804
| 38> H 	 -54.0993 	 35.6905 	 94.3211
| 39> H 	 -47.8371 	 33.204 	 93.9226
| 40> H 	 -50.4248 	 40.6475 	 96.5214
| 41> *
| 42>
| 43>                          ****END OF INPUT****

CARTESIAN COORDINATES (ANGSTROEM)
---------------------------------
  S    -48.351000   35.243600   95.374600
  C    -48.524600   33.993400   94.116800
  C    -49.777700   34.200700   93.438500
  C    -50.523600   35.267600   93.931300
  C    -49.898700   35.936700   95.000300
  H    -51.502500   35.675900   93.695200
  C    -50.204100   33.581000   92.125300
  H    -49.459800   33.832600   91.309800
  H    -51.148100   34.154100   91.869100
  C    -50.566800   32.072300   92.279200
  H    -50.759500   31.632800   91.358600
  H    -49.726600   31.550100   92.709800
  C    -51.773200   31.953200   93.234000
  H    -51.473900   32.138700   94.294600
  H    -52.577000   32.642900   92.921800
  H    -52.119200   30.917600   93.261500
  S    -49.369800   38.633700   95.465300
  C    -50.470400   39.573100   96.466400
  C    -51.539300   38.835000   96.827600
  C    -51.545300   37.457100   96.363500
  C    -50.359800   37.168200   95.678900
  H    -52.306700   39.293300   97.373500
  C    -52.621700   36.390300   96.752800
  H    -52.752300   36.522000   97.808100
  H    -52.482400   35.397200   96.575700
  C    -53.961200   36.865900   96.213100
  H    -54.159000   37.911000   96.522600
  H    -54.776000   36.160500   96.515600
  C    -54.188300   36.706400   94.687400
  H    -53.604700   37.373300   94.085000
  H    -55.273700   36.933200   94.480400
  H    -54.099300   35.690500   94.321100
  H    -47.837100   33.204000   93.922600
  H    -50.424800   40.647500   96.521400

 Total Charge           Charge          ....    0
 Multiplicity           Mult            ....    1
 Number of Electrons    NEL             ....  134
 Basis Dimension        Dim             ....  322

ORBITAL ENERGIES
----------------

  NO   OCC          E(Eh)            E(eV)
   0   2.0000     -88.970405     -2421.0078
   1   2.0000     -88.961788     -2420.7733
   2   2.0000     -10.331218      -281.1267
   3   2.0000     -10.329448      -281.0786
   4   2.0000     -10.319831      -280.8169
   5   2.0000     -10.316448      -280.7248
   6   2.0000     -10.312668      -280.6220
   7   2.0000     -10.303997      -280.3860
   8   2.0000     -10.298291      -280.2307
   9   2.0000     -10.293331      -280.0958
  10   2.0000     -10.292378      -280.0698
  11   2.0000     -10.292023      -280.0602
  12   2.0000     -10.288410      -279.9619
  13   2.0000     -10.282205      -279.7930
  14   2.0000     -10.280210      -279.7387
  15   2.0000     -10.277821      -279.6737
  16   2.0000      -8.084241      -219.9834
  17   2.0000      -8.076320      -219.7678
  18   2.0000      -6.042634      -164.4284
  19   2.0000      -6.038591      -164.3184
  20   2.0000      -6.035472      -164.2336
  21   2.0000      -6.034894      -164.2178
  22   2.0000      -6.030892      -164.1089
  23   2.0000      -6.026966      -164.0021
  24   2.0000      -1.000660       -27.2294
  25   2.0000      -0.979565       -26.6553
  26   2.0000      -0.911072       -24.7915
  27   2.0000      -0.909400       -24.7460
  28   2.0000      -0.864183       -23.5156
  29   2.0000      -0.848520       -23.0894
  30   2.0000      -0.841545       -22.8996
  31   2.0000      -0.811605       -22.0849
  32   2.0000      -0.786089       -21.3906
  33   2.0000      -0.768982       -20.9251
  34   2.0000      -0.708003       -19.2657
  35   2.0000      -0.698337       -19.0027
  36   2.0000      -0.691139       -18.8068
  37   2.0000      -0.655820       -17.8458
  38   2.0000      -0.643146       -17.5009
  39   2.0000      -0.615350       -16.7445
  40   2.0000      -0.600544       -16.3416
  41   2.0000      -0.573378       -15.6024
  42   2.0000      -0.554627       -15.0922
  43   2.0000      -0.551401       -15.0044
  44   2.0000      -0.546767       -14.8783
  45   2.0000      -0.536653       -14.6031
  46   2.0000      -0.519672       -14.1410
  47   2.0000      -0.512165       -13.9367
  48   2.0000      -0.497521       -13.5382
  49   2.0000      -0.493586       -13.4311
  50   2.0000      -0.485656       -13.2154
  51   2.0000      -0.479172       -13.0389
  52   2.0000      -0.472929       -12.8690
  53   2.0000      -0.466883       -12.7045
  54   2.0000      -0.455529       -12.3956
  55   2.0000      -0.444937       -12.1074
  56   2.0000      -0.440305       -11.9813
  57   2.0000      -0.434355       -11.8194
  58   2.0000      -0.433684       -11.8012
  59   2.0000      -0.428276       -11.6540
  60   2.0000      -0.424872       -11.5614
  61   2.0000      -0.416465       -11.3326
  62   2.0000      -0.402782       -10.9602
  63   2.0000      -0.342561        -9.3216
  64   2.0000      -0.333683        -9.0800
  65   2.0000      -0.327787        -8.9195
  66   2.0000      -0.293216        -7.9788
  67   0.0000       0.030417         0.8277
  68   0.0000       0.061164         1.6644
  69   0.0000       0.114918         3.1271
  70   0.0000       0.119292         3.2461
  71   0.0000       0.125226         3.4076

MULLIKEN ATOMIC CHARGES
-----------------------
   0 S :    0.123105
   1 C :   -0.119432
   2 C :   -0.077069
   3 C :    0.053443
   4 C :   -0.193163
   5 H :    0.001869
   6 C :   -0.002557
   7 H :    0.058662
   8 H :    0.029992
   9 C :   -0.017152
  10 H :    0.016089
  11 H :    0.023297
  12 C :   -0.083831
  13 H :    0.050668
  14 H :    0.035459
  15 H :    0.032846
  16 S :    0.091724
  17 C :   -0.078636
  18 C :   -0.024230
  19 C :   -0.036305
  20 C :   -0.170327
  21 H :    0.002358
  22 C :    0.177985
  23 H :    0.025970
  24 H :    0.005220
  25 C :   -0.138255
  26 H :    0.038463
  27 H :    0.035376
  28 C :   -0.069109
  29 H :    0.038869
  30 H :    0.032358
  31 H :    0.030324
  32 H :    0.045856
  33 H :    0.060132
Sum of atomic charges:   -0.0000000

LOEWDIN ATOMIC CHARGES
----------------------
   0 S :    0.419648
   1 C :   -0.196760
   2 C :   -0.062356
   3 C :   -0.066958
   4 C :   -0.202872
   5 H :    0.034779
   6 C :   -0.035234
   7 H :    0.038695
   8 H :    0.032051
   9 C :   -0.032791
  10 H :    0.012652
  11 H :    0.021900
  12 C :   -0.067784
  13 H :    0.032457
  14 H :    0.024405
  15 H :    0.025063
  16 S :    0.380931
  17 C :   -0.174931
  18 C :   -0.068200
  19 C :   -0.046581
  20 C :   -0.191834
  21 H :    0.022128
  22 C :   -0.014176
  23 H :    0.035921
  24 H :    0.017714
  25 C :   -0.043502
  26 H :    0.025230
  27 H :    0.030442
  28 C :   -0.073071
  29 H :    0.015948
  30 H :    0.032724
  31 H :    0.020637
  32 H :    0.022451
  33 H :    0.031271

  Mayer bond orders larger than 0.100000
B(  0-S ,  1-C ) :   1.1541 B(  0-S ,  4-C ) :   1.1875 B(  1-C ,  2-C ) :   1.5358
B(  1-C ,  4-C ) :   0.1213 B(  1-C , 32-H ) :   0.9780 B(  2-C ,  3-C ) :   1.2776
B(  2-C ,  6-C ) :   1.0013 B(  3-C ,  4-C ) :   1.5386 B(  3-C ,  5-H ) :   0.9889
B(  4-C , 20-C ) :   1.0141 B(  6-C ,  7-H ) :   0.9480 B(  6-C ,  8-H ) :   0.9546
B(  6-C ,  9-C ) :   1.0590 B(  9-C , 10-H ) :   0.9599 B(  9-C , 11-H ) :   0.9584
B(  9-C , 12-C ) :   1.0711 B( 12-C , 13-H ) :   0.9717 B( 12-C , 14-H ) :   0.9779
B( 12-C , 15-H ) :   0.9737 B( 16-S , 17-C ) :   1.1340 B( 16-S , 20-C ) :   1.1411
B( 17-C , 18-C ) :   1.6511 B( 17-C , 33-H ) :   0.9655 B( 18-C , 19-C ) :   1.2097
B( 18-C , 21-H ) :   0.9905 B( 19-C , 20-C ) :   1.6181 B( 19-C , 22-C ) :   1.0229
B( 22-C , 23-H ) :   0.9314 B( 22-C , 24-H ) :   0.9452 B( 22-C , 25-C ) :   1.0673
B( 25-C , 26-H ) :   0.9592 B( 25-C , 27-H ) :   0.9581 B( 25-C , 28-C ) :   1.0708
B( 28-C , 29-H ) :   0.9723 B( 28-C , 30-H ) :   0.9727 B( 28-C , 31-H ) :   0.9714

Dispersion correction           -0.015248236
FINAL SINGLE POINT ENERGY     -1339.868358457343

DIPOLE MOMENT
-------------
                                X             Y             Z
Electronic contribution:     23.23335      14.88310       8.47190
Nuclear contribution   :    -23.85383     -15.07901      -8.60444
                        -----------------------------------------
Total Dipole Moment    :     -0.62049      -0.19591      -0.13254
                        -----------------------------------------
Magnitude (a.u.)       :      0.66404
Magnitude (Debye)      :      1.68786

Rotational constants in cm-1:     0.019342     0.009474     0.007069
Rotational constants in MHz :   579.853072   284.021755   211.918787

                             ****ORCA TERMINATED NORMALLY****
TOTAL RUN TIME: 0 days 0 hours 0 minutes 31 seconds 445 msec
