                         Program Version 4.2.1 -  RELEASE  -
|  1> ! wB97X-D3 SP def2-SVP
|  2> %pal
|  3> nprocs 16
|  4> end
|  5>
|  6> * xyz 0 1
|  7> S 	 -35.3383 	 43.9723 	 97.9006
|  8> C 	 -36.5777 	 44.9811 	 98.5428
|  9> C 	 -36.3525 	 46.2592 	 98.2579
| 10> C 	 -35.189 	 46.4696 	 97.4623
| 11> C 	 -34.666 	 45.2674 	 97.1028
| 12> H 	 -34.7741 	 47.3579 	 97.0143
| 13> C 	 -37.2514 	 47.3322 	 98.7927
| 14> H 	 -37.4272 	 47.1614 	 99.8847
| 15> H 	 -38.2421 	 47.3552 	 98.3552
| 16> C 	 -36.7443 	 48.7741 	 98.7119
| 17> H 	 -35.7928 	 48.7931 	 99.2386
| 18> H 	 -36.5594 	 49.1465 	 97.7281
| 19> C 	 -37.564 	 49.9011 	 99.4765
| 20> H 	 -36.9561 	 50.8159 	 99.6102
| 21> H 	 -38.5552 	 50.2134 	 99.1951
| 22> H 	 -37.743 	 49.5513 	 100.54
| 23> S 	 -32.3944 	 44.0114 	 97.1218
| 24> C 	 -31.2465 	 44.333 	 95.8462
| 25> C 	 -31.6215 	 45.2473 	 94.8793
| 26> C 	 -32.9375 	 45.6614 	 95.1782
| 27> C 	 -33.4804 	 45.0769 	 96.343
| 28> H 	 -31.0204 	 45.5685 	 94.0449
| 29> C 	 -33.5385 	 46.7484 	 94.3739
| 30> H 	 -32.6738 	 47.1893 	 93.7612
| 31> H 	 -33.6805 	 47.5034 	 95.1942
| 32> C 	 -34.8273 	 46.4565 	 93.54
| 33> H 	 -35.1006 	 47.3917 	 93.1976
| 34> H 	 -35.7227 	 46.2181 	 94.18
| 35> C 	 -34.5762 	 45.4711 	 92.3884
| 36> H 	 -34.0067 	 44.6005 	 92.7769
| 37> H 	 -34.0687 	 46.0035 	 91.5386
| 38> H 	 -35.5163 	 45.2016 	 91.9232
| 39> H 	 -37.3494 	 44.6932 	 99.2488
| 40> H 	 -30.197 	 44.1255 	 95.9527
| 41> *
| 42>
| 43>                          ****END OF INPUT****

CARTESIAN COORDINATES (ANGSTROEM)
---------------------------------
  S    -35.338300   43.972300   97.900600
  C    -36.577700   44.981100   98.542800
  C    -36.352500   46.259200   98.257900
  C    -35.189000   46.469600   97.462300
  C    -34.666000   45.267400   97.102800
  H    -34.774100   47.357900   97.014300
  C    -37.251400   47.332200   98.792700
  H    -37.427200   47.161400   99.884700
  H    -38.242100   47.355200   98.355200
  C    -36.744300   48.774100   98.711900
  H    -35.792800   48.793100   99.238600
  H    -36.559400   49.146500   97.728100
  C    -37.564000   49.901100   99.476500
  H    -36.956100   50.815900   99.610200
  H    -38.555200   50.213400   99.195100
  H    -37.743000   49.551300  100.540000
  S    -32.394400   44.011400   97.121800
  C    -31.246500   44.333000   95.846200
  C    -31.621500   45.247300   94.879300
  C    -32.937500   45.661400   95.178200
  C    -33.480400   45.076900   96.343000
  H    -31.020400   45.568500   94.044900
  C    -33.538500   46.748400   94.373900
  H    -32.673800   47.189300   93.761200
  H    -33.680500   47.503400   95.194200
  C    -34.827300   46.456500   93.540000
  H    -35.100600   47.391700   93.197600
  H    -35.722700   46.218100   94.180000
  C    -34.576200   45.471100   92.388400
  H    -34.006700   44.600500   92.776900
  H    -34.068700   46.003500   91.538600
  H    -35.516300   45.201600   91.923200
  H    -37.349400   44.693200   99.248800
  H    -30.197000   44.125500   95.952700

 Total Charge           Charge          ....    0
 Multiplicity           Mult            ....    1
 Number of Electrons    NEL             ....  134
 Basis Dimension        Dim             ....  322

ORBITAL ENERGIES
----------------

  NO   OCC          E(Eh)            E(eV)
   0   2.0000     -88.968253     -2420.9492
   1   2.0000     -88.963417     -2420.8176
   2   2.0000     -10.317078      -280.7420
   3   2.0000     -10.315461      -280.6980
   4   2.0000     -10.311089      -280.5790
   5   2.0000     -10.300130      -280.2808
   6   2.0000     -10.298217      -280.2287
   7   2.0000     -10.297033      -280.1965
   8   2.0000     -10.293636      -280.1041
   9   2.0000     -10.292194      -280.0648
  10   2.0000     -10.291257      -280.0393
  11   2.0000     -10.288344      -279.9601
  12   2.0000     -10.286169      -279.9009
  13   2.0000     -10.285943      -279.8947
  14   2.0000     -10.284610      -279.8585
  15   2.0000     -10.280534      -279.7476
  16   2.0000      -8.083889      -219.9738
  17   2.0000      -8.080827      -219.8905
  18   2.0000      -6.042200      -164.4166
  19   2.0000      -6.039135      -164.3332
  20   2.0000      -6.038301      -164.3105
  21   2.0000      -6.035060      -164.2223
  22   2.0000      -6.034758      -164.2141
  23   2.0000      -6.031511      -164.1258
  24   2.0000      -1.027786       -27.9675
  25   2.0000      -0.993992       -27.0479
  26   2.0000      -0.915313       -24.9069
  27   2.0000      -0.906231       -24.6598
  28   2.0000      -0.877206       -23.8700
  29   2.0000      -0.854288       -23.2464
  30   2.0000      -0.847207       -23.0537
  31   2.0000      -0.817512       -22.2456
  32   2.0000      -0.783135       -21.3102
  33   2.0000      -0.768587       -20.9143
  34   2.0000      -0.717254       -19.5175
  35   2.0000      -0.701293       -19.0832
  36   2.0000      -0.684613       -18.6293
  37   2.0000      -0.670839       -18.2545
  38   2.0000      -0.643518       -17.5110
  39   2.0000      -0.621734       -16.9182
  40   2.0000      -0.583022       -15.8648
  41   2.0000      -0.570063       -15.5122
  42   2.0000      -0.566781       -15.4229
  43   2.0000      -0.555609       -15.1189
  44   2.0000      -0.539416       -14.6782
  45   2.0000      -0.523744       -14.2518
  46   2.0000      -0.516187       -14.0462
  47   2.0000      -0.509498       -13.8641
  48   2.0000      -0.503573       -13.7029
  49   2.0000      -0.498654       -13.5691
  50   2.0000      -0.483472       -13.1560
  51   2.0000      -0.481803       -13.1105
  52   2.0000      -0.470941       -12.8150
  53   2.0000      -0.466719       -12.7001
  54   2.0000      -0.460365       -12.5272
  55   2.0000      -0.459572       -12.5056
  56   2.0000      -0.448114       -12.1938
  57   2.0000      -0.435767       -11.8578
  58   2.0000      -0.426664       -11.6101
  59   2.0000      -0.423144       -11.5143
  60   2.0000      -0.422320       -11.4919
  61   2.0000      -0.416171       -11.3246
  62   2.0000      -0.413301       -11.2465
  63   2.0000      -0.353878        -9.6295
  64   2.0000      -0.334434        -9.1004
  65   2.0000      -0.330915        -9.0047
  66   2.0000      -0.282042        -7.6748
  67   0.0000       0.030644         0.8339
  68   0.0000       0.074123         2.0170
  69   0.0000       0.101150         2.7524
  70   0.0000       0.124175         3.3790
  71   0.0000       0.139095         3.7850

MULLIKEN ATOMIC CHARGES
-----------------------
   0 S :    0.112990
   1 C :   -0.120448
   2 C :   -0.040010
   3 C :    0.004469
   4 C :   -0.117621
   5 H :    0.000539
   6 C :    0.057058
   7 H :    0.028668
   8 H :    0.038733
   9 C :   -0.094000
  10 H :    0.029909
  11 H :    0.032246
  12 C :   -0.071288
  13 H :    0.038441
  14 H :    0.031936
  15 H :    0.020972
  16 S :    0.114455
  17 C :   -0.072835
  18 C :   -0.047002
  19 C :   -0.046905
  20 C :   -0.153223
  21 H :    0.023373
  22 C :   -0.014647
  23 H :    0.025533
  24 H :    0.036315
  25 C :   -0.012340
  26 H :    0.002072
  27 H :    0.040948
  28 C :   -0.057828
  29 H :    0.059748
  30 H :    0.031757
  31 H :    0.032012
  32 H :    0.038059
  33 H :    0.047914
Sum of atomic charges:   -0.0000000

LOEWDIN ATOMIC CHARGES
----------------------
   0 S :    0.444509
   1 C :   -0.208496
   2 C :   -0.063208
   3 C :   -0.071254
   4 C :   -0.216100
   5 H :    0.028939
   6 C :   -0.036291
   7 H :    0.036385
   8 H :    0.032049
   9 C :   -0.041132
  10 H :    0.027132
  11 H :    0.016975
  12 C :   -0.074320
  13 H :    0.030739
  14 H :    0.018056
  15 H :    0.027182
  16 S :    0.432505
  17 C :   -0.187234
  18 C :   -0.065894
  19 C :   -0.063839
  20 C :   -0.213167
  21 H :    0.035636
  22 C :   -0.043340
  23 H :    0.036359
  24 H :    0.036334
  25 C :   -0.039242
  26 H :    0.012926
  27 H :    0.033782
  28 C :   -0.068411
  29 H :    0.033898
  30 H :    0.030688
  31 H :    0.025766
  32 H :    0.030690
  33 H :    0.021378

  Mayer bond orders larger than 0.100000
B(  0-S ,  1-C ) :   1.1159 B(  0-S ,  4-C ) :   1.1786 B(  1-C ,  2-C ) :   1.6469
B(  1-C , 32-H ) :   0.9724 B(  2-C ,  3-C ) :   1.2294 B(  2-C ,  6-C ) :   1.0126
B(  3-C ,  4-C ) :   1.5485 B(  3-C ,  5-H ) :   1.0007 B(  4-C , 20-C ) :   1.0411
B(  6-C ,  7-H ) :   0.9395 B(  6-C ,  8-H ) :   0.9356 B(  6-C ,  9-C ) :   1.0833
B(  9-C , 10-H ) :   0.9536 B(  9-C , 11-H ) :   0.9520 B(  9-C , 12-C ) :   1.0725
B( 12-C , 13-H ) :   0.9767 B( 12-C , 14-H ) :   0.9794 B( 12-C , 15-H ) :   0.9731
B( 16-S , 17-C ) :   1.1685 B( 16-S , 20-C ) :   1.1598 B( 17-C , 18-C ) :   1.5907
B( 17-C , 20-C ) :   0.1044 B( 17-C , 33-H ) :   0.9611 B( 18-C , 19-C ) :   1.2632
B( 18-C , 21-H ) :   0.9928 B( 19-C , 20-C ) :   1.5629 B( 19-C , 22-C ) :   1.0311
B( 22-C , 23-H ) :   0.9372 B( 22-C , 24-H ) :   0.9327 B( 22-C , 25-C ) :   1.0617
B( 25-C , 26-H ) :   0.9495 B( 25-C , 27-H ) :   0.9549 B( 25-C , 28-C ) :   1.0673
B( 28-C , 29-H ) :   0.9783 B( 28-C , 30-H ) :   0.9735 B( 28-C , 31-H ) :   0.9731

Dispersion correction           -0.014285155
FINAL SINGLE POINT ENERGY     -1339.855185037046

DIPOLE MOMENT
-------------
                                X             Y             Z
Electronic contribution:     12.34089     -23.10218       7.36142
Nuclear contribution   :    -12.40531      23.74102      -7.47918
                        -----------------------------------------
Total Dipole Moment    :     -0.06442       0.63884      -0.11776
                        -----------------------------------------
Magnitude (a.u.)       :      0.65279
Magnitude (Debye)      :      1.65925

Rotational constants in cm-1:     0.018946     0.008615     0.007136
Rotational constants in MHz :   567.991257   258.280554   213.919978

                             ****ORCA TERMINATED NORMALLY****
TOTAL RUN TIME: 0 days 0 hours 0 minutes 30 seconds 613 msec
