                         Program Version 4.2.1 -  RELEASE  -
|  1> ! wB97X-D3 SP def2-SVP
|  2> %pal
|  3> nprocs 16
|  4> end
|  5>
|  6> * xyz 0 1
|  7> S 	 -40.7169 	 19.5869 	 73.172
|  8> C 	 -38.9899 	 20.0324 	 73.4359
|  9> C 	 -38.298 	 19.0238 	 74.1578
| 10> C 	 -39.1668 	 17.9315 	 74.493
| 11> C 	 -40.4681 	 18.0667 	 74.077
| 12> H 	 -38.8554 	 17.0569 	 75.1073
| 13> C 	 -36.8836 	 19.1795 	 74.5807
| 14> H 	 -36.3769 	 18.2192 	 74.88
| 15> H 	 -37.0459 	 19.7129 	 75.5565
| 16> C 	 -35.8513 	 19.8381 	 73.571
| 17> H 	 -36.1217 	 20.7154 	 73.0444
| 18> H 	 -34.8641 	 19.8946 	 73.9727
| 19> C 	 -35.5455 	 18.8875 	 72.3931
| 20> H 	 -34.6527 	 18.2991 	 72.4496
| 21> H 	 -36.4343 	 18.2799 	 72.2377
| 22> H 	 -35.5003 	 19.5015 	 71.5122
| 23> S 	 -42.8768 	 17.9648 	 75.2004
| 24> C 	 -43.7331 	 16.4974 	 75.0077
| 25> C 	 -43.056 	 15.4172 	 74.6105
| 26> C 	 -41.7923 	 15.9188 	 74.1391
| 27> C 	 -41.6087 	 17.2337 	 74.4084
| 28> H 	 -43.3966 	 14.4587 	 74.4753
| 29> C 	 -40.794 	 15.0156 	 73.4285
| 30> H 	 -40.1423 	 14.6622 	 74.1997
| 31> H 	 -40.1471 	 15.627 	 72.8731
| 32> C 	 -41.3392 	 14.0097 	 72.4222
| 33> H 	 -41.9304 	 14.7369 	 71.8188
| 34> H 	 -42.1235 	 13.3973 	 72.7585
| 35> C 	 -40.1815 	 13.4148 	 71.4861
| 36> H 	 -39.5187 	 14.1975 	 71.2148
| 37> H 	 -40.6088 	 12.8781 	 70.654
| 38> H 	 -39.5684 	 12.6682 	 72.0431
| 39> H 	 -38.5908 	 20.9426 	 73.109
| 40> H 	 -44.7514 	 16.3109 	 75.4107
| 41> *
| 42>
| 43>                          ****END OF INPUT****

CARTESIAN COORDINATES (ANGSTROEM)
---------------------------------
  S    -40.716900   19.586900   73.172000
  C    -38.989900   20.032400   73.435900
  C    -38.298000   19.023800   74.157800
  C    -39.166800   17.931500   74.493000
  C    -40.468100   18.066700   74.077000
  H    -38.855400   17.056900   75.107300
  C    -36.883600   19.179500   74.580700
  H    -36.376900   18.219200   74.880000
  H    -37.045900   19.712900   75.556500
  C    -35.851300   19.838100   73.571000
  H    -36.121700   20.715400   73.044400
  H    -34.864100   19.894600   73.972700
  C    -35.545500   18.887500   72.393100
  H    -34.652700   18.299100   72.449600
  H    -36.434300   18.279900   72.237700
  H    -35.500300   19.501500   71.512200
  S    -42.876800   17.964800   75.200400
  C    -43.733100   16.497400   75.007700
  C    -43.056000   15.417200   74.610500
  C    -41.792300   15.918800   74.139100
  C    -41.608700   17.233700   74.408400
  H    -43.396600   14.458700   74.475300
  C    -40.794000   15.015600   73.428500
  H    -40.142300   14.662200   74.199700
  H    -40.147100   15.627000   72.873100
  C    -41.339200   14.009700   72.422200
  H    -41.930400   14.736900   71.818800
  H    -42.123500   13.397300   72.758500
  C    -40.181500   13.414800   71.486100
  H    -39.518700   14.197500   71.214800
  H    -40.608800   12.878100   70.654000
  H    -39.568400   12.668200   72.043100
  H    -38.590800   20.942600   73.109000
  H    -44.751400   16.310900   75.410700

 Total Charge           Charge          ....    0
 Multiplicity           Mult            ....    1
 Number of Electrons    NEL             ....  134
 Basis Dimension        Dim             ....  322

ORBITAL ENERGIES
----------------

  NO   OCC          E(Eh)            E(eV)
   0   2.0000     -88.965757     -2420.8813
   1   2.0000     -88.964767     -2420.8544
   2   2.0000     -10.328126      -281.0426
   3   2.0000     -10.315589      -280.7014
   4   2.0000     -10.309179      -280.5270
   5   2.0000     -10.309143      -280.5260
   6   2.0000     -10.308037      -280.4959
   7   2.0000     -10.303931      -280.3842
   8   2.0000     -10.297546      -280.2105
   9   2.0000     -10.293988      -280.1137
  10   2.0000     -10.287938      -279.9490
  11   2.0000     -10.286580      -279.9121
  12   2.0000     -10.283958      -279.8407
  13   2.0000     -10.283478      -279.8277
  14   2.0000     -10.279182      -279.7108
  15   2.0000     -10.268596      -279.4227
  16   2.0000      -8.083157      -219.9539
  17   2.0000      -8.078129      -219.8171
  18   2.0000      -6.041368      -164.3940
  19   2.0000      -6.037637      -164.2924
  20   2.0000      -6.036693      -164.2668
  21   2.0000      -6.033694      -164.1852
  22   2.0000      -6.032875      -164.1629
  23   2.0000      -6.028873      -164.0540
  24   2.0000      -1.021831       -27.8054
  25   2.0000      -0.979394       -26.6507
  26   2.0000      -0.910401       -24.7733
  27   2.0000      -0.909077       -24.7372
  28   2.0000      -0.873074       -23.7576
  29   2.0000      -0.850818       -23.1519
  30   2.0000      -0.848040       -23.0763
  31   2.0000      -0.816118       -22.2077
  32   2.0000      -0.782165       -21.2838
  33   2.0000      -0.767666       -20.8893
  34   2.0000      -0.713045       -19.4029
  35   2.0000      -0.705941       -19.2096
  36   2.0000      -0.694841       -18.9076
  37   2.0000      -0.666046       -18.1240
  38   2.0000      -0.638808       -17.3828
  39   2.0000      -0.612968       -16.6797
  40   2.0000      -0.599993       -16.3266
  41   2.0000      -0.581332       -15.8189
  42   2.0000      -0.563255       -15.3269
  43   2.0000      -0.555588       -15.1183
  44   2.0000      -0.545980       -14.8569
  45   2.0000      -0.521404       -14.1881
  46   2.0000      -0.518868       -14.1191
  47   2.0000      -0.515952       -14.0398
  48   2.0000      -0.500978       -13.6323
  49   2.0000      -0.489831       -13.3290
  50   2.0000      -0.482347       -13.1253
  51   2.0000      -0.475704       -12.9446
  52   2.0000      -0.470447       -12.8015
  53   2.0000      -0.467168       -12.7123
  54   2.0000      -0.462116       -12.5748
  55   2.0000      -0.459577       -12.5057
  56   2.0000      -0.444729       -12.1017
  57   2.0000      -0.436223       -11.8702
  58   2.0000      -0.433875       -11.8063
  59   2.0000      -0.424139       -11.5414
  60   2.0000      -0.421550       -11.4710
  61   2.0000      -0.413400       -11.2492
  62   2.0000      -0.408797       -11.1239
  63   2.0000      -0.348037        -9.4706
  64   2.0000      -0.329731        -8.9724
  65   2.0000      -0.325929        -8.8690
  66   2.0000      -0.293648        -7.9906
  67   0.0000       0.036180         0.9845
  68   0.0000       0.072240         1.9658
  69   0.0000       0.110097         2.9959
  70   0.0000       0.120503         3.2790
  71   0.0000       0.134990         3.6733

MULLIKEN ATOMIC CHARGES
-----------------------
   0 S :    0.096688
   1 C :   -0.116906
   2 C :   -0.081014
   3 C :    0.028311
   4 C :   -0.164802
   5 H :    0.026140
   6 C :    0.016377
   7 H :    0.034551
   8 H :    0.061724
   9 C :   -0.039630
  10 H :    0.027241
  11 H :    0.028125
  12 C :   -0.068391
  13 H :    0.035636
  14 H :    0.031257
  15 H :    0.018181
  16 S :    0.143818
  17 C :   -0.078282
  18 C :    0.005059
  19 C :   -0.093374
  20 C :   -0.160722
  21 H :   -0.013844
  22 C :    0.133616
  23 H :    0.021393
  24 H :   -0.000112
  25 C :   -0.102024
  26 H :    0.029207
  27 H :    0.020775
  28 C :   -0.026523
  29 H :    0.031978
  30 H :    0.040601
  31 H :    0.034208
  32 H :    0.029682
  33 H :    0.051054
Sum of atomic charges:   -0.0000000

LOEWDIN ATOMIC CHARGES
----------------------
   0 S :    0.366717
   1 C :   -0.179549
   2 C :   -0.061175
   3 C :   -0.068683
   4 C :   -0.178024
   5 H :    0.039317
   6 C :   -0.042691
   7 H :    0.036470
   8 H :    0.046450
   9 C :   -0.035153
  10 H :    0.018462
  11 H :    0.026866
  12 C :   -0.062942
  13 H :    0.019376
  14 H :    0.025541
  15 H :    0.023854
  16 S :    0.456355
  17 C :   -0.188846
  18 C :   -0.057823
  19 C :   -0.046975
  20 C :   -0.241612
  21 H :    0.019688
  22 C :   -0.032593
  23 H :    0.024353
  24 H :    0.023116
  25 C :   -0.040784
  26 H :    0.033329
  27 H :    0.011167
  28 C :   -0.054492
  29 H :    0.023114
  30 H :    0.026546
  31 H :    0.028650
  32 H :    0.012241
  33 H :    0.029728

  Mayer bond orders larger than 0.100000
B(  0-S ,  1-C ) :   1.1229 B(  0-S ,  4-C ) :   1.1400 B(  1-C ,  2-C ) :   1.5951
B(  1-C ,  4-C ) :   0.1025 B(  1-C , 32-H ) :   0.9804 B(  2-C ,  3-C ) :   1.2314
B(  2-C ,  6-C ) :   1.0113 B(  3-C ,  4-C ) :   1.5964 B(  3-C ,  5-H ) :   0.9862
B(  4-C , 20-C ) :   1.0129 B(  6-C ,  7-H ) :   0.9503 B(  6-C ,  8-H ) :   0.9336
B(  6-C ,  9-C ) :   1.0660 B(  9-C , 10-H ) :   0.9718 B(  9-C , 11-H ) :   0.9622
B(  9-C , 12-C ) :   1.0539 B( 12-C , 13-H ) :   0.9816 B( 12-C , 14-H ) :   0.9775
B( 12-C , 15-H ) :   0.9802 B( 16-S , 17-C ) :   1.1612 B( 16-S , 20-C ) :   1.1467
B( 17-C , 18-C ) :   1.6352 B( 17-C , 33-H ) :   0.9531 B( 18-C , 19-C ) :   1.2220
B( 18-C , 21-H ) :   1.0055 B( 19-C , 20-C ) :   1.6406 B( 19-C , 22-C ) :   1.0391
B( 22-C , 23-H ) :   0.9198 B( 22-C , 24-H ) :   0.9249 B( 22-C , 25-C ) :   1.0394
B( 25-C , 26-H ) :   0.9586 B( 25-C , 27-H ) :   0.9638 B( 25-C , 28-C ) :   1.0688
B( 28-C , 29-H ) :   0.9750 B( 28-C , 30-H ) :   0.9775 B( 28-C , 31-H ) :   0.9784

Dispersion correction           -0.013998359
FINAL SINGLE POINT ENERGY     -1339.841595154796

DIPOLE MOMENT
-------------
                                X             Y             Z
Electronic contribution:    -22.41329      13.22784      10.57210
Nuclear contribution   :     22.85779     -13.61205     -10.53492
                        -----------------------------------------
Total Dipole Moment    :      0.44449      -0.38421       0.03719
                        -----------------------------------------
Magnitude (a.u.)       :      0.58870
Magnitude (Debye)      :      1.49637

Rotational constants in cm-1:     0.018526     0.008497     0.006445
Rotational constants in MHz :   555.395987   254.737943   193.216484

                             ****ORCA TERMINATED NORMALLY****
TOTAL RUN TIME: 0 days 0 hours 0 minutes 29 seconds 529 msec
