                         Program Version 4.2.1 -  RELEASE  -
|  1> ! wB97X-D3 SP def2-SVP
|  2> %pal
|  3> nprocs 16
|  4> end
|  5>
|  6> * xyz 0 1
|  7> S 	 40.8735 	 18.1941 	 46.2208
|  8> C 	 41.1323 	 16.873 	 47.2912
|  9> C 	 42.4692 	 16.7918 	 47.5333
| 10> C 	 43.2349 	 17.7749 	 46.9102
| 11> C 	 42.5486 	 18.612 	 46.039
| 12> H 	 44.3564 	 17.8411 	 46.9692
| 13> C 	 43.1874 	 15.6494 	 48.27
| 14> H 	 42.4594 	 14.9291 	 48.6548
| 15> H 	 43.7181 	 15.9637 	 49.1695
| 16> C 	 44.2282 	 14.9446 	 47.3019
| 17> H 	 44.9692 	 15.715 	 47.0653
| 18> H 	 44.7855 	 14.2298 	 47.8982
| 19> C 	 43.5694 	 14.3937 	 46.0223
| 20> H 	 44.2219 	 14.025 	 45.2869
| 21> H 	 42.9431 	 13.5445 	 46.3979
| 22> H 	 42.9051 	 15.1243 	 45.5494
| 23> S 	 43.8503 	 20.9239 	 46.4378
| 24> C 	 44.4835 	 21.8086 	 44.9885
| 25> C 	 44.054 	 21.2504 	 43.8174
| 26> C 	 43.2945 	 20.07 	 43.9983
| 27> C 	 43.1496 	 19.7427 	 45.3421
| 28> H 	 44.3837 	 21.7101 	 42.9176
| 29> C 	 42.8565 	 19.3613 	 42.7708
| 30> H 	 42.7284 	 20.1431 	 42.1125
| 31> H 	 41.8674 	 18.8626 	 42.8863
| 32> C 	 43.8912 	 18.4367 	 42.1542
| 33> H 	 44.8463 	 19.0874 	 42.0632
| 34> H 	 43.6501 	 18.0689 	 41.1656
| 35> C 	 44.1987 	 17.3285 	 43.0526
| 36> H 	 44.6526 	 17.7166 	 43.9234
| 37> H 	 44.8938 	 16.6125 	 42.6887
| 38> H 	 43.3173 	 16.7994 	 43.374
| 39> H 	 40.37 	 16.1184 	 47.5707
| 40> H 	 45.1787 	 22.6596 	 44.9725
| 41> *
| 42>
| 43>                          ****END OF INPUT****

CARTESIAN COORDINATES (ANGSTROEM)
---------------------------------
  S     40.873500   18.194100   46.220800
  C     41.132300   16.873000   47.291200
  C     42.469200   16.791800   47.533300
  C     43.234900   17.774900   46.910200
  C     42.548600   18.612000   46.039000
  H     44.356400   17.841100   46.969200
  C     43.187400   15.649400   48.270000
  H     42.459400   14.929100   48.654800
  H     43.718100   15.963700   49.169500
  C     44.228200   14.944600   47.301900
  H     44.969200   15.715000   47.065300
  H     44.785500   14.229800   47.898200
  C     43.569400   14.393700   46.022300
  H     44.221900   14.025000   45.286900
  H     42.943100   13.544500   46.397900
  H     42.905100   15.124300   45.549400
  S     43.850300   20.923900   46.437800
  C     44.483500   21.808600   44.988500
  C     44.054000   21.250400   43.817400
  C     43.294500   20.070000   43.998300
  C     43.149600   19.742700   45.342100
  H     44.383700   21.710100   42.917600
  C     42.856500   19.361300   42.770800
  H     42.728400   20.143100   42.112500
  H     41.867400   18.862600   42.886300
  C     43.891200   18.436700   42.154200
  H     44.846300   19.087400   42.063200
  H     43.650100   18.068900   41.165600
  C     44.198700   17.328500   43.052600
  H     44.652600   17.716600   43.923400
  H     44.893800   16.612500   42.688700
  H     43.317300   16.799400   43.374000
  H     40.370000   16.118400   47.570700
  H     45.178700   22.659600   44.972500

 Total Charge           Charge          ....    0
 Multiplicity           Mult            ....    1
 Number of Electrons    NEL             ....  134
 Basis Dimension        Dim             ....  322

ORBITAL ENERGIES
----------------

  NO   OCC          E(Eh)            E(eV)
   0   2.0000     -88.969547     -2420.9845
   1   2.0000     -88.964592     -2420.8496
   2   2.0000     -10.330188      -281.0987
   3   2.0000     -10.328506      -281.0529
   4   2.0000     -10.321477      -280.8617
   5   2.0000     -10.314218      -280.6642
   6   2.0000     -10.303881      -280.3829
   7   2.0000     -10.295109      -280.1441
   8   2.0000     -10.293760      -280.1075
   9   2.0000     -10.291362      -280.0422
  10   2.0000     -10.291155      -280.0366
  11   2.0000     -10.288234      -279.9571
  12   2.0000     -10.284922      -279.8670
  13   2.0000     -10.283527      -279.8290
  14   2.0000     -10.274218      -279.5757
  15   2.0000     -10.256428      -279.0916
  16   2.0000      -8.083002      -219.9497
  17   2.0000      -8.079828      -219.8633
  18   2.0000      -6.041630      -164.4011
  19   2.0000      -6.038237      -164.3088
  20   2.0000      -6.037761      -164.2958
  21   2.0000      -6.034044      -164.1947
  22   2.0000      -6.033614      -164.1830
  23   2.0000      -6.030842      -164.1076
  24   2.0000      -1.012034       -27.5388
  25   2.0000      -0.988965       -26.9111
  26   2.0000      -0.921473       -25.0746
  27   2.0000      -0.904770       -24.6200
  28   2.0000      -0.875121       -23.8133
  29   2.0000      -0.851970       -23.1833
  30   2.0000      -0.840475       -22.8705
  31   2.0000      -0.815967       -22.2036
  32   2.0000      -0.785053       -21.3624
  33   2.0000      -0.774651       -21.0793
  34   2.0000      -0.710857       -19.3434
  35   2.0000      -0.695204       -18.9175
  36   2.0000      -0.687750       -18.7146
  37   2.0000      -0.668562       -18.1925
  38   2.0000      -0.635373       -17.2894
  39   2.0000      -0.620835       -16.8938
  40   2.0000      -0.596566       -16.2334
  41   2.0000      -0.573065       -15.5939
  42   2.0000      -0.561587       -15.2816
  43   2.0000      -0.551721       -15.0131
  44   2.0000      -0.547265       -14.8918
  45   2.0000      -0.534346       -14.5403
  46   2.0000      -0.518447       -14.1077
  47   2.0000      -0.510044       -13.8790
  48   2.0000      -0.505911       -13.7665
  49   2.0000      -0.499969       -13.6048
  50   2.0000      -0.483269       -13.1504
  51   2.0000      -0.475737       -12.9455
  52   2.0000      -0.471547       -12.8315
  53   2.0000      -0.466755       -12.7011
  54   2.0000      -0.455364       -12.3911
  55   2.0000      -0.448197       -12.1961
  56   2.0000      -0.444401       -12.0928
  57   2.0000      -0.437956       -11.9174
  58   2.0000      -0.431643       -11.7456
  59   2.0000      -0.426657       -11.6099
  60   2.0000      -0.416300       -11.3281
  61   2.0000      -0.412846       -11.2341
  62   2.0000      -0.409608       -11.1460
  63   2.0000      -0.340950        -9.2777
  64   2.0000      -0.335458        -9.1283
  65   2.0000      -0.327953        -8.9241
  66   2.0000      -0.301530        -8.2051
  67   0.0000       0.031662         0.8616
  68   0.0000       0.066598         1.8122
  69   0.0000       0.101477         2.7613
  70   0.0000       0.125203         3.4069
  71   0.0000       0.133412         3.6303

MULLIKEN ATOMIC CHARGES
-----------------------
   0 S :    0.112034
   1 C :   -0.141122
   2 C :   -0.076604
   3 C :   -0.022419
   4 C :   -0.138100
   5 H :    0.037562
   6 C :    0.063892
   7 H :    0.011402
   8 H :    0.035440
   9 C :   -0.091448
  10 H :    0.023239
  11 H :    0.026713
  12 C :   -0.032424
  13 H :    0.029118
  14 H :    0.026836
  15 H :    0.051189
  16 S :    0.119004
  17 C :   -0.098507
  18 C :   -0.038186
  19 C :   -0.025967
  20 C :   -0.188458
  21 H :    0.012331
  22 C :    0.114278
  23 H :   -0.001625
  24 H :    0.032849
  25 C :   -0.073384
  26 H :    0.023835
  27 H :    0.029698
  28 C :   -0.000890
  29 H :    0.015845
  30 H :    0.017888
  31 H :    0.022172
  32 H :    0.066447
  33 H :    0.057361
Sum of atomic charges:   -0.0000000

LOEWDIN ATOMIC CHARGES
----------------------
   0 S :    0.426511
   1 C :   -0.212155
   2 C :   -0.077542
   3 C :   -0.074176
   4 C :   -0.211827
   5 H :    0.037054
   6 C :   -0.026341
   7 H :    0.023073
   8 H :    0.031416
   9 C :   -0.037711
  10 H :    0.017851
  11 H :    0.021187
  12 C :   -0.062758
  13 H :    0.018417
  14 H :    0.030250
  15 H :    0.029849
  16 S :    0.392374
  17 C :   -0.167323
  18 C :   -0.065864
  19 C :   -0.051589
  20 C :   -0.191988
  21 H :    0.030224
  22 C :   -0.027826
  23 H :    0.022576
  24 H :    0.033577
  25 C :   -0.036634
  26 H :    0.030368
  27 H :    0.021341
  28 C :   -0.062317
  29 H :    0.021680
  30 H :    0.020967
  31 H :    0.022468
  32 H :    0.041596
  33 H :    0.033272

  Mayer bond orders larger than 0.100000
B(  0-S ,  1-C ) :   1.1570 B(  0-S ,  4-C ) :   1.1630 B(  1-C ,  2-C ) :   1.5727
B(  1-C ,  4-C ) :   0.1022 B(  1-C , 32-H ) :   0.9649 B(  2-C ,  3-C ) :   1.2825
B(  2-C ,  6-C ) :   1.0216 B(  3-C ,  4-C ) :   1.5297 B(  3-C ,  5-H ) :   0.9867
B(  4-C , 20-C ) :   1.0413 B(  6-C ,  7-H ) :   0.9473 B(  6-C ,  8-H ) :   0.9414
B(  6-C ,  9-C ) :   1.0655 B(  9-C , 10-H ) :   0.9552 B(  9-C , 11-H ) :   0.9587
B(  9-C , 12-C ) :   1.0614 B( 12-C , 13-H ) :   0.9761 B( 12-C , 14-H ) :   0.9745
B( 12-C , 15-H ) :   0.9727 B( 16-S , 17-C ) :   1.1279 B( 16-S , 20-C ) :   1.1413
B( 17-C , 18-C ) :   1.6577 B( 17-C , 33-H ) :   0.9608 B( 18-C , 19-C ) :   1.2154
B( 18-C , 21-H ) :   0.9880 B( 19-C , 20-C ) :   1.5950 B( 19-C , 22-C ) :   1.0407
B( 22-C , 23-H ) :   0.9143 B( 22-C , 24-H ) :   0.9321 B( 22-C , 25-C ) :   1.0809
B( 25-C , 26-H ) :   0.9484 B( 25-C , 27-H ) :   0.9541 B( 25-C , 28-C ) :   1.0919
B( 28-C , 29-H ) :   0.9668 B( 28-C , 30-H ) :   0.9654 B( 28-C , 31-H ) :   0.9670

Dispersion correction           -0.016805085
FINAL SINGLE POINT ENERGY     -1339.877738880708

DIPOLE MOMENT
-------------
                                X             Y             Z
Electronic contribution:     -9.58926      20.27889       9.36752
Nuclear contribution   :      9.97750     -20.57079      -9.65865
                        -----------------------------------------
Total Dipole Moment    :      0.38824      -0.29190      -0.29114
                        -----------------------------------------
Magnitude (a.u.)       :      0.56631
Magnitude (Debye)      :      1.43943

Rotational constants in cm-1:     0.019804     0.009927     0.008549
Rotational constants in MHz :   593.702624   297.596463   256.306975

                             ****ORCA TERMINATED NORMALLY****
TOTAL RUN TIME: 0 days 0 hours 0 minutes 39 seconds 102 msec
