                         Program Version 4.2.1 -  RELEASE  -
|  1> ! wB97X-D3 SP def2-SVP
|  2> %pal
|  3> nprocs 16
|  4> end
|  5>
|  6> * xyz 0 1
|  7> S 	 -52.1894 	 39.3116 	 110.846
|  8> C 	 -50.5179 	 39.7181 	 110.693
|  9> C 	 -49.887 	 39.0039 	 109.726
| 10> C 	 -50.8518 	 38.1203 	 109.077
| 11> C 	 -52.1681 	 38.1381 	 109.579
| 12> H 	 -50.5089 	 37.4274 	 108.23
| 13> C 	 -48.5069 	 39.2614 	 109.269
| 14> H 	 -48.0512 	 39.9035 	 110.02
| 15> H 	 -48.6755 	 39.8756 	 108.403
| 16> C 	 -47.5361 	 38.0473 	 109.019
| 17> H 	 -47.5933 	 37.3978 	 109.905
| 18> H 	 -47.9704 	 37.5603 	 108.112
| 19> C 	 -46.1689 	 38.4502 	 108.599
| 20> H 	 -45.5111 	 37.6714 	 108.542
| 21> H 	 -46.3509 	 38.8966 	 107.59
| 22> H 	 -45.7652 	 39.1941 	 109.355
| 23> S 	 -54.2138 	 36.9648 	 110.944
| 24> C 	 -55.0071 	 35.4716 	 110.457
| 25> C 	 -54.3316 	 34.9558 	 109.396
| 26> C 	 -53.4445 	 35.9111 	 108.74
| 27> C 	 -53.2051 	 37.0784 	 109.545
| 28> H 	 -54.6424 	 34.0221 	 109.065
| 29> C 	 -52.8157 	 35.5974 	 107.437
| 30> H 	 -52.3202 	 36.5034 	 107.027
| 31> H 	 -53.6333 	 35.445 	 106.743
| 32> C 	 -51.9095 	 34.3369 	 107.31
| 33> H 	 -51.9609 	 33.9547 	 106.32
| 34> H 	 -52.3657 	 33.4101 	 107.767
| 35> C 	 -50.5539 	 34.5261 	 107.964
| 36> H 	 -50.0462 	 35.428 	 107.523
| 37> H 	 -49.856 	 33.6488 	 107.894
| 38> H 	 -50.6231 	 34.6312 	 109.055
| 39> H 	 -50.0371 	 40.3932 	 111.343
| 40> H 	 -55.704 	 34.9565 	 111.028
| 41> *
| 42>
| 43>                          ****END OF INPUT****

CARTESIAN COORDINATES (ANGSTROEM)
---------------------------------
  S    -52.189400   39.311600  110.846000
  C    -50.517900   39.718100  110.693000
  C    -49.887000   39.003900  109.726000
  C    -50.851800   38.120300  109.077000
  C    -52.168100   38.138100  109.579000
  H    -50.508900   37.427400  108.230000
  C    -48.506900   39.261400  109.269000
  H    -48.051200   39.903500  110.020000
  H    -48.675500   39.875600  108.403000
  C    -47.536100   38.047300  109.019000
  H    -47.593300   37.397800  109.905000
  H    -47.970400   37.560300  108.112000
  C    -46.168900   38.450200  108.599000
  H    -45.511100   37.671400  108.542000
  H    -46.350900   38.896600  107.590000
  H    -45.765200   39.194100  109.355000
  S    -54.213800   36.964800  110.944000
  C    -55.007100   35.471600  110.457000
  C    -54.331600   34.955800  109.396000
  C    -53.444500   35.911100  108.740000
  C    -53.205100   37.078400  109.545000
  H    -54.642400   34.022100  109.065000
  C    -52.815700   35.597400  107.437000
  H    -52.320200   36.503400  107.027000
  H    -53.633300   35.445000  106.743000
  C    -51.909500   34.336900  107.310000
  H    -51.960900   33.954700  106.320000
  H    -52.365700   33.410100  107.767000
  C    -50.553900   34.526100  107.964000
  H    -50.046200   35.428000  107.523000
  H    -49.856000   33.648800  107.894000
  H    -50.623100   34.631200  109.055000
  H    -50.037100   40.393200  111.343000
  H    -55.704000   34.956500  111.028000

 Total Charge           Charge          ....    0
 Multiplicity           Mult            ....    1
 Number of Electrons    NEL             ....  134
 Basis Dimension        Dim             ....  322

ORBITAL ENERGIES
----------------

  NO   OCC          E(Eh)            E(eV)
   0   2.0000     -88.963105     -2420.8092
   1   2.0000     -88.959630     -2420.7146
   2   2.0000     -10.336558      -281.2720
   3   2.0000     -10.336038      -281.2579
   4   2.0000     -10.311019      -280.5771
   5   2.0000     -10.308656      -280.5128
   6   2.0000     -10.308159      -280.4993
   7   2.0000     -10.303855      -280.3821
   8   2.0000     -10.299772      -280.2710
   9   2.0000     -10.292263      -280.0667
  10   2.0000     -10.292086      -280.0619
  11   2.0000     -10.291996      -280.0595
  12   2.0000     -10.290586      -280.0211
  13   2.0000     -10.290092      -280.0076
  14   2.0000     -10.284703      -279.8610
  15   2.0000     -10.280005      -279.7332
  16   2.0000      -8.078872      -219.8373
  17   2.0000      -8.074865      -219.7283
  18   2.0000      -6.037438      -164.2870
  19   2.0000      -6.033488      -164.1796
  20   2.0000      -6.033092      -164.1688
  21   2.0000      -6.029650      -164.0751
  22   2.0000      -6.029176      -164.0622
  23   2.0000      -6.025569      -163.9641
  24   2.0000      -1.008775       -27.4502
  25   2.0000      -0.985467       -26.8159
  26   2.0000      -0.918673       -24.9984
  27   2.0000      -0.908148       -24.7120
  28   2.0000      -0.878430       -23.9033
  29   2.0000      -0.850061       -23.1313
  30   2.0000      -0.844412       -22.9776
  31   2.0000      -0.819657       -22.3040
  32   2.0000      -0.782002       -21.2793
  33   2.0000      -0.771565       -20.9953
  34   2.0000      -0.714232       -19.4352
  35   2.0000      -0.701061       -19.0768
  36   2.0000      -0.692551       -18.8453
  37   2.0000      -0.658625       -17.9221
  38   2.0000      -0.637057       -17.3352
  39   2.0000      -0.622332       -16.9345
  40   2.0000      -0.596953       -16.2439
  41   2.0000      -0.580908       -15.8073
  42   2.0000      -0.570885       -15.5346
  43   2.0000      -0.554916       -15.1000
  44   2.0000      -0.538164       -14.6442
  45   2.0000      -0.529865       -14.4183
  46   2.0000      -0.519386       -14.1332
  47   2.0000      -0.511676       -13.9234
  48   2.0000      -0.510733       -13.8977
  49   2.0000      -0.504626       -13.7316
  50   2.0000      -0.489566       -13.3218
  51   2.0000      -0.486145       -13.2287
  52   2.0000      -0.464595       -12.6423
  53   2.0000      -0.462941       -12.5973
  54   2.0000      -0.461385       -12.5549
  55   2.0000      -0.457318       -12.4443
  56   2.0000      -0.441499       -12.0138
  57   2.0000      -0.436773       -11.8852
  58   2.0000      -0.433497       -11.7961
  59   2.0000      -0.430902       -11.7254
  60   2.0000      -0.412562       -11.2264
  61   2.0000      -0.410203       -11.1622
  62   2.0000      -0.402902       -10.9635
  63   2.0000      -0.363519        -9.8918
  64   2.0000      -0.329283        -8.9602
  65   2.0000      -0.319335        -8.6896
  66   2.0000      -0.282582        -7.6894
  67   0.0000       0.019645         0.5346
  68   0.0000       0.090870         2.4727
  69   0.0000       0.104769         2.8509
  70   0.0000       0.114150         3.1062
  71   0.0000       0.127566         3.4713

MULLIKEN ATOMIC CHARGES
-----------------------
   0 S :    0.088115
   1 C :   -0.106581
   2 C :   -0.083193
   3 C :   -0.014465
   4 C :   -0.085759
   5 H :    0.012795
   6 C :    0.048139
   7 H :    0.008221
   8 H :    0.041943
   9 C :   -0.109487
  10 H :    0.042301
  11 H :    0.034456
  12 C :   -0.004772
  13 H :    0.022047
  14 H :    0.034819
  15 H :    0.033792
  16 S :    0.069915
  17 C :   -0.061488
  18 C :    0.000688
  19 C :   -0.072408
  20 C :   -0.099124
  21 H :   -0.004063
  22 C :    0.035571
  23 H :    0.030164
  24 H :    0.026641
  25 C :   -0.047542
  26 H :    0.014699
  27 H :    0.019248
  28 C :   -0.068208
  29 H :    0.038369
  30 H :    0.036510
  31 H :    0.049873
  32 H :    0.031570
  33 H :    0.037213
Sum of atomic charges:    0.0000000

LOEWDIN ATOMIC CHARGES
----------------------
   0 S :    0.419148
   1 C :   -0.190864
   2 C :   -0.067845
   3 C :   -0.069816
   4 C :   -0.204010
   5 H :    0.032060
   6 C :   -0.032623
   7 H :    0.026788
   8 H :    0.036072
   9 C :   -0.042808
  10 H :    0.025712
  11 H :    0.026173
  12 C :   -0.058291
  13 H :    0.013410
  14 H :    0.035154
  15 H :    0.030453
  16 S :    0.401617
  17 C :   -0.168733
  18 C :   -0.058113
  19 C :   -0.061056
  20 C :   -0.197487
  21 H :    0.019601
  22 C :   -0.039714
  23 H :    0.033860
  24 H :    0.035262
  25 C :   -0.045776
  26 H :    0.020448
  27 H :    0.029794
  28 C :   -0.073069
  29 H :    0.023169
  30 H :    0.030570
  31 H :    0.032799
  32 H :    0.019981
  33 H :    0.018135

  Mayer bond orders larger than 0.100000
B(  0-S ,  1-C ) :   1.1478 B(  0-S ,  4-C ) :   1.1546 B(  1-C ,  2-C ) :   1.5968
B(  1-C , 32-H ) :   0.9714 B(  2-C ,  3-C ) :   1.2660 B(  2-C ,  6-C ) :   1.0319
B(  3-C ,  4-C ) :   1.5398 B(  3-C ,  5-H ) :   0.9712 B(  4-C , 20-C ) :   1.0641
B(  6-C ,  7-H ) :   0.9370 B(  6-C ,  8-H ) :   0.9354 B(  6-C ,  9-C ) :   1.0488
B(  9-C , 10-H ) :   0.9602 B(  9-C , 11-H ) :   0.9536 B(  9-C , 12-C ) :   1.0871
B( 12-C , 13-H ) :   0.9722 B( 12-C , 14-H ) :   0.9734 B( 12-C , 15-H ) :   0.9723
B( 16-S , 17-C ) :   1.1438 B( 16-S , 20-C ) :   1.1487 B( 17-C , 18-C ) :   1.6215
B( 17-C , 33-H ) :   0.9770 B( 18-C , 19-C ) :   1.2343 B( 18-C , 21-H ) :   0.9963
B( 19-C , 20-C ) :   1.5461 B( 19-C , 22-C ) :   1.0600 B( 22-C , 23-H ) :   0.9413
B( 22-C , 24-H ) :   0.9207 B( 22-C , 25-C ) :   1.0753 B( 25-C , 26-H ) :   0.9534
B( 25-C , 27-H ) :   0.9479 B( 25-C , 28-C ) :   1.0665 B( 28-C , 29-H ) :   0.9689
B( 28-C , 30-H ) :   0.9696 B( 28-C , 31-H ) :   0.9738

Dispersion correction           -0.014644163
FINAL SINGLE POINT ENERGY     -1339.855881599120

DIPOLE MOMENT
-------------
                                X             Y             Z
Electronic contribution:    -25.62629       9.92351      15.61169
Nuclear contribution   :     26.22043     -10.41264     -15.96159
                        -----------------------------------------
Total Dipole Moment    :      0.59413      -0.48913      -0.34990
                        -----------------------------------------
Magnitude (a.u.)       :      0.84538
Magnitude (Debye)      :      2.14879

Rotational constants in cm-1:     0.018955     0.009296     0.006581
Rotational constants in MHz :   568.252414   278.684186   197.296666

                             ****ORCA TERMINATED NORMALLY****
TOTAL RUN TIME: 0 days 0 hours 0 minutes 31 seconds 90 msec
