                         Program Version 4.2.1 -  RELEASE  -
|  1> ! wB97X-D3 SP def2-SVP
|  2> %pal
|  3> nprocs 16
|  4> end
|  5>
|  6> * xyz 0 1
|  7> S 	 -65.73 	 46.7667 	 124.808
|  8> C 	 -66.6054 	 45.5874 	 125.707
|  9> C 	 -67.5718 	 46.1453 	 126.56
| 10> C 	 -67.669 	 47.5426 	 126.328
| 11> C 	 -66.759 	 48.0024 	 125.457
| 12> H 	 -68.3474 	 48.2532 	 126.795
| 13> C 	 -68.4168 	 45.4036 	 127.588
| 14> H 	 -67.9397 	 45.5957 	 128.601
| 15> H 	 -68.1651 	 44.3667 	 127.45
| 16> C 	 -69.9583 	 45.691 	 127.613
| 17> H 	 -70.1027 	 46.6898 	 127.38
| 18> H 	 -70.5666 	 45.1244 	 126.858
| 19> C 	 -70.5442 	 45.5479 	 129.013
| 20> H 	 -70.3509 	 44.5401 	 129.43
| 21> H 	 -69.9946 	 46.146 	 129.764
| 22> H 	 -71.6399 	 45.7238 	 128.982
| 23> S 	 -66.6204 	 49.8185 	 123.496
| 24> C 	 -66.8043 	 51.5575 	 123.764
| 25> C 	 -66.9015 	 51.7498 	 125.094
| 26> C 	 -66.7384 	 50.6234 	 125.914
| 27> C 	 -66.6373 	 49.4272 	 125.132
| 28> H 	 -67.0294 	 52.8184 	 125.37
| 29> C 	 -66.7556 	 50.6655 	 127.451
| 30> H 	 -67.4797 	 49.9138 	 127.858
| 31> H 	 -66.9893 	 51.7123 	 127.774
| 32> C 	 -65.3367 	 50.3243 	 127.98
| 33> H 	 -64.4867 	 50.9679 	 127.702
| 34> H 	 -65.0728 	 49.3589 	 127.616
| 35> C 	 -65.3022 	 49.9582 	 129.462
| 36> H 	 -64.3078 	 49.5907 	 129.718
| 37> H 	 -66.0163 	 49.3114 	 129.932
| 38> H 	 -65.438 	 50.9029 	 129.867
| 39> H 	 -66.556 	 44.5213 	 125.48
| 40> H 	 -66.9196 	 52.2965 	 123.008
| 41> *
| 42>
| 43>                          ****END OF INPUT****

CARTESIAN COORDINATES (ANGSTROEM)
---------------------------------
  S    -65.730000   46.766700  124.808000
  C    -66.605400   45.587400  125.707000
  C    -67.571800   46.145300  126.560000
  C    -67.669000   47.542600  126.328000
  C    -66.759000   48.002400  125.457000
  H    -68.347400   48.253200  126.795000
  C    -68.416800   45.403600  127.588000
  H    -67.939700   45.595700  128.601000
  H    -68.165100   44.366700  127.450000
  C    -69.958300   45.691000  127.613000
  H    -70.102700   46.689800  127.380000
  H    -70.566600   45.124400  126.858000
  C    -70.544200   45.547900  129.013000
  H    -70.350900   44.540100  129.430000
  H    -69.994600   46.146000  129.764000
  H    -71.639900   45.723800  128.982000
  S    -66.620400   49.818500  123.496000
  C    -66.804300   51.557500  123.764000
  C    -66.901500   51.749800  125.094000
  C    -66.738400   50.623400  125.914000
  C    -66.637300   49.427200  125.132000
  H    -67.029400   52.818400  125.370000
  C    -66.755600   50.665500  127.451000
  H    -67.479700   49.913800  127.858000
  H    -66.989300   51.712300  127.774000
  C    -65.336700   50.324300  127.980000
  H    -64.486700   50.967900  127.702000
  H    -65.072800   49.358900  127.616000
  C    -65.302200   49.958200  129.462000
  H    -64.307800   49.590700  129.718000
  H    -66.016300   49.311400  129.932000
  H    -65.438000   50.902900  129.867000
  H    -66.556000   44.521300  125.480000
  H    -66.919600   52.296500  123.008000

 Total Charge           Charge          ....    0
 Multiplicity           Mult            ....    1
 Number of Electrons    NEL             ....  134
 Basis Dimension        Dim             ....  322

ORBITAL ENERGIES
----------------

  NO   OCC          E(Eh)            E(eV)
   0   2.0000     -88.969086     -2420.9719
   1   2.0000     -88.961578     -2420.7676
   2   2.0000     -10.324533      -280.9448
   3   2.0000     -10.323812      -280.9252
   4   2.0000     -10.314076      -280.6603
   5   2.0000     -10.310317      -280.5580
   6   2.0000     -10.304316      -280.3947
   7   2.0000     -10.304190      -280.3913
   8   2.0000     -10.301502      -280.3181
   9   2.0000     -10.300267      -280.2845
  10   2.0000     -10.290857      -280.0284
  11   2.0000     -10.289722      -279.9976
  12   2.0000     -10.288104      -279.9535
  13   2.0000     -10.284792      -279.8634
  14   2.0000     -10.278436      -279.6905
  15   2.0000     -10.263864      -279.2939
  16   2.0000      -8.084543      -219.9916
  17   2.0000      -8.077384      -219.7968
  18   2.0000      -6.043018      -164.4389
  19   2.0000      -6.038985      -164.3291
  20   2.0000      -6.035694      -164.2396
  21   2.0000      -6.035278      -164.2283
  22   2.0000      -6.031491      -164.1252
  23   2.0000      -6.028521      -164.0444
  24   2.0000      -1.014821       -27.6147
  25   2.0000      -0.990932       -26.9646
  26   2.0000      -0.909689       -24.7539
  27   2.0000      -0.905952       -24.6522
  28   2.0000      -0.875180       -23.8149
  29   2.0000      -0.856489       -23.3063
  30   2.0000      -0.847887       -23.0722
  31   2.0000      -0.820793       -22.3349
  32   2.0000      -0.778174       -21.1752
  33   2.0000      -0.766542       -20.8587
  34   2.0000      -0.711022       -19.3479
  35   2.0000      -0.698156       -18.9978
  36   2.0000      -0.689183       -18.7536
  37   2.0000      -0.660355       -17.9692
  38   2.0000      -0.641465       -17.4551
  39   2.0000      -0.626134       -17.0380
  40   2.0000      -0.593304       -16.1446
  41   2.0000      -0.568268       -15.4633
  42   2.0000      -0.565694       -15.3933
  43   2.0000      -0.555999       -15.1295
  44   2.0000      -0.531304       -14.4575
  45   2.0000      -0.521934       -14.2025
  46   2.0000      -0.516786       -14.0625
  47   2.0000      -0.512208       -13.9379
  48   2.0000      -0.508150       -13.8275
  49   2.0000      -0.499600       -13.5948
  50   2.0000      -0.497511       -13.5380
  51   2.0000      -0.486942       -13.2504
  52   2.0000      -0.472395       -12.8545
  53   2.0000      -0.463445       -12.6110
  54   2.0000      -0.455711       -12.4005
  55   2.0000      -0.454868       -12.3776
  56   2.0000      -0.446207       -12.1419
  57   2.0000      -0.442849       -12.0505
  58   2.0000      -0.429392       -11.6843
  59   2.0000      -0.426279       -11.5996
  60   2.0000      -0.420919       -11.4538
  61   2.0000      -0.418279       -11.3820
  62   2.0000      -0.393762       -10.7148
  63   2.0000      -0.352131        -9.5820
  64   2.0000      -0.335520        -9.1300
  65   2.0000      -0.323344        -8.7986
  66   2.0000      -0.290837        -7.9141
  67   0.0000       0.030079         0.8185
  68   0.0000       0.077036         2.0962
  69   0.0000       0.113429         3.0866
  70   0.0000       0.117563         3.1991
  71   0.0000       0.142713         3.8834

MULLIKEN ATOMIC CHARGES
-----------------------
   0 S :    0.130073
   1 C :   -0.134744
   2 C :   -0.090584
   3 C :   -0.004585
   4 C :   -0.125352
   5 H :    0.021330
   6 C :    0.062169
   7 H :    0.046408
   8 H :    0.008225
   9 C :   -0.029298
  10 H :    0.013841
  11 H :    0.044890
  12 C :   -0.089840
  13 H :    0.027607
  14 H :    0.032236
  15 H :    0.048876
  16 S :    0.101159
  17 C :   -0.091801
  18 C :   -0.057850
  19 C :   -0.021966
  20 C :   -0.164656
  21 H :    0.027626
  22 C :    0.078110
  23 H :    0.031098
  24 H :    0.026735
  25 C :   -0.091547
  26 H :    0.039624
  27 H :    0.021265
  28 C :   -0.020672
  29 H :    0.028955
  30 H :    0.028559
  31 H :    0.002718
  32 H :    0.056144
  33 H :    0.045246
Sum of atomic charges:    0.0000000

LOEWDIN ATOMIC CHARGES
----------------------
   0 S :    0.423093
   1 C :   -0.212632
   2 C :   -0.059580
   3 C :   -0.065616
   4 C :   -0.201175
   5 H :    0.033323
   6 C :   -0.033536
   7 H :    0.042823
   8 H :    0.026608
   9 C :   -0.037884
  10 H :    0.013319
  11 H :    0.034522
  12 C :   -0.071428
  13 H :    0.023640
  14 H :    0.025789
  15 H :    0.031747
  16 S :    0.432919
  17 C :   -0.185384
  18 C :   -0.079395
  19 C :   -0.065264
  20 C :   -0.215898
  21 H :    0.039330
  22 C :   -0.027767
  23 H :    0.033561
  24 H :    0.031875
  25 C :   -0.042237
  26 H :    0.031346
  27 H :    0.019094
  28 C :   -0.062261
  29 H :    0.027603
  30 H :    0.021835
  31 H :    0.012119
  32 H :    0.029377
  33 H :    0.026133

  Mayer bond orders larger than 0.100000
B(  0-S ,  1-C ) :   1.1436 B(  0-S ,  4-C ) :   1.1518 B(  1-C ,  2-C ) :   1.6057
B(  1-C , 32-H ) :   0.9613 B(  2-C ,  3-C ) :   1.2350 B(  2-C ,  6-C ) :   1.0265
B(  3-C ,  4-C ) :   1.6025 B(  3-C ,  5-H ) :   0.9899 B(  4-C , 20-C ) :   1.0107
B(  6-C ,  7-H ) :   0.9434 B(  6-C ,  8-H ) :   0.9319 B(  6-C ,  9-C ) :   1.0369
B(  9-C , 10-H ) :   0.9620 B(  9-C , 11-H ) :   0.9536 B(  9-C , 12-C ) :   1.0787
B( 12-C , 13-H ) :   0.9763 B( 12-C , 14-H ) :   0.9749 B( 12-C , 15-H ) :   0.9730
B( 16-S , 17-C ) :   1.1532 B( 16-S , 20-C ) :   1.1994 B( 17-C , 18-C ) :   1.5897
B( 17-C , 20-C ) :   0.1090 B( 17-C , 33-H ) :   0.9743 B( 18-C , 19-C ) :   1.2860
B( 18-C , 21-H ) :   0.9846 B( 19-C , 20-C ) :   1.5111 B( 19-C , 22-C ) :   1.0434
B( 22-C , 23-H ) :   0.9361 B( 22-C , 24-H ) :   0.9341 B( 22-C , 25-C ) :   1.0589
B( 25-C , 26-H ) :   0.9556 B( 25-C , 27-H ) :   0.9623 B( 25-C , 28-C ) :   1.0695
B( 28-C , 29-H ) :   0.9740 B( 28-C , 30-H ) :   0.9760 B( 28-C , 31-H ) :   0.9742

Dispersion correction           -0.014167785
FINAL SINGLE POINT ENERGY     -1339.862640811511

DIPOLE MOMENT
-------------
                                X             Y             Z
Electronic contribution:      9.95369       3.02034     -27.76320
Nuclear contribution   :    -10.29789      -2.96642      28.24738
                        -----------------------------------------
Total Dipole Moment    :     -0.34420       0.05393       0.48418
                        -----------------------------------------
Magnitude (a.u.)       :      0.59650
Magnitude (Debye)      :      1.51618

Rotational constants in cm-1:     0.016900     0.008981     0.007499
Rotational constants in MHz :   506.660155   269.254808   224.825442

                             ****ORCA TERMINATED NORMALLY****
TOTAL RUN TIME: 0 days 0 hours 0 minutes 34 seconds 795 msec
