                         Program Version 4.2.1 -  RELEASE  -
|  1> ! wB97X-D3 SP def2-SVP
|  2> %pal
|  3> nprocs 16
|  4> end
|  5>
|  6> * xyz 0 1
|  7> S 	 -21.5835 	 34.8096 	 36.4865
|  8> C 	 -22.4066 	 33.4963 	 35.6616
|  9> C 	 -21.7559 	 32.271 	 35.9097
| 10> C 	 -20.6127 	 32.4911 	 36.8038
| 11> C 	 -20.4227 	 33.7655 	 37.2344
| 12> H 	 -19.8316 	 31.7347 	 37.1167
| 13> C 	 -22.1137 	 30.932 	 35.2947
| 14> H 	 -21.919 	 31.139 	 34.2259
| 15> H 	 -23.1879 	 30.6952 	 35.3431
| 16> C 	 -21.4002 	 29.675 	 35.7389
| 17> H 	 -21.5381 	 28.8063 	 35.0436
| 18> H 	 -20.3766 	 29.8791 	 35.5495
| 19> C 	 -21.5573 	 29.3186 	 37.2185
| 20> H 	 -20.943 	 28.4281 	 37.4796
| 21> H 	 -21.4031 	 30.1551 	 37.8272
| 22> H 	 -22.5165 	 28.9933 	 37.4911
| 23> S 	 -19.1534 	 33.7051 	 39.7234
| 24> C 	 -17.6355 	 34.5543 	 39.9718
| 25> C 	 -17.4334 	 35.4 	 38.8937
| 26> C 	 -18.3838 	 35.3029 	 37.7698
| 27> C 	 -19.322 	 34.3545 	 38.0564
| 28> H 	 -16.5381 	 35.9824 	 38.8399
| 29> C 	 -18.1738 	 36.0726 	 36.4873
| 30> H 	 -17.6954 	 37.1134 	 36.5405
| 31> H 	 -19.1711 	 36.2079 	 36.1781
| 32> C 	 -17.3629 	 35.515 	 35.3105
| 33> H 	 -17.3586 	 36.299 	 34.5784
| 34> H 	 -17.8984 	 34.6739 	 34.901
| 35> C 	 -15.9396 	 35.2099 	 35.7032
| 36> H 	 -15.5106 	 34.6994 	 34.8439
| 37> H 	 -15.8081 	 34.4773 	 36.548
| 38> H 	 -15.3888 	 36.0967 	 35.9808
| 39> H 	 -23.259 	 33.5713 	 34.9193
| 40> H 	 -16.8802 	 34.4272 	 40.8112
| 41> *
| 42>
| 43>                          ****END OF INPUT****

CARTESIAN COORDINATES (ANGSTROEM)
---------------------------------
  S    -21.583500   34.809600   36.486500
  C    -22.406600   33.496300   35.661600
  C    -21.755900   32.271000   35.909700
  C    -20.612700   32.491100   36.803800
  C    -20.422700   33.765500   37.234400
  H    -19.831600   31.734700   37.116700
  C    -22.113700   30.932000   35.294700
  H    -21.919000   31.139000   34.225900
  H    -23.187900   30.695200   35.343100
  C    -21.400200   29.675000   35.738900
  H    -21.538100   28.806300   35.043600
  H    -20.376600   29.879100   35.549500
  C    -21.557300   29.318600   37.218500
  H    -20.943000   28.428100   37.479600
  H    -21.403100   30.155100   37.827200
  H    -22.516500   28.993300   37.491100
  S    -19.153400   33.705100   39.723400
  C    -17.635500   34.554300   39.971800
  C    -17.433400   35.400000   38.893700
  C    -18.383800   35.302900   37.769800
  C    -19.322000   34.354500   38.056400
  H    -16.538100   35.982400   38.839900
  C    -18.173800   36.072600   36.487300
  H    -17.695400   37.113400   36.540500
  H    -19.171100   36.207900   36.178100
  C    -17.362900   35.515000   35.310500
  H    -17.358600   36.299000   34.578400
  H    -17.898400   34.673900   34.901000
  C    -15.939600   35.209900   35.703200
  H    -15.510600   34.699400   34.843900
  H    -15.808100   34.477300   36.548000
  H    -15.388800   36.096700   35.980800
  H    -23.259000   33.571300   34.919300
  H    -16.880200   34.427200   40.811200

 Total Charge           Charge          ....    0
 Multiplicity           Mult            ....    1
 Number of Electrons    NEL             ....  134
 Basis Dimension        Dim             ....  322

ORBITAL ENERGIES
----------------

  NO   OCC          E(Eh)            E(eV)
   0   2.0000     -88.967576     -2420.9308
   1   2.0000     -88.964853     -2420.8567
   2   2.0000     -10.334392      -281.2131
   3   2.0000     -10.330173      -281.0983
   4   2.0000     -10.324526      -280.9446
   5   2.0000     -10.323350      -280.9126
   6   2.0000     -10.313143      -280.6349
   7   2.0000     -10.309222      -280.5282
   8   2.0000     -10.301150      -280.3085
   9   2.0000     -10.296260      -280.1755
  10   2.0000     -10.294933      -280.1394
  11   2.0000     -10.289496      -279.9914
  12   2.0000     -10.286672      -279.9146
  13   2.0000     -10.280943      -279.7587
  14   2.0000     -10.275645      -279.6145
  15   2.0000     -10.269540      -279.4484
  16   2.0000      -8.082030      -219.9232
  17   2.0000      -8.078750      -219.8340
  18   2.0000      -6.040606      -164.3732
  19   2.0000      -6.037527      -164.2895
  20   2.0000      -6.036430      -164.2596
  21   2.0000      -6.033373      -164.1764
  22   2.0000      -6.032872      -164.1628
  23   2.0000      -6.029262      -164.0646
  24   2.0000      -1.003718       -27.3126
  25   2.0000      -0.980260       -26.6742
  26   2.0000      -0.915446       -24.9106
  27   2.0000      -0.911608       -24.8061
  28   2.0000      -0.867286       -23.6001
  29   2.0000      -0.847728       -23.0679
  30   2.0000      -0.841269       -22.8921
  31   2.0000      -0.815125       -22.1807
  32   2.0000      -0.787294       -21.4233
  33   2.0000      -0.777653       -21.1610
  34   2.0000      -0.711234       -19.3537
  35   2.0000      -0.698779       -19.0148
  36   2.0000      -0.681480       -18.5440
  37   2.0000      -0.662324       -18.0228
  38   2.0000      -0.634567       -17.2675
  39   2.0000      -0.618075       -16.8187
  40   2.0000      -0.591944       -16.1076
  41   2.0000      -0.568371       -15.4662
  42   2.0000      -0.562062       -15.2945
  43   2.0000      -0.553526       -15.0622
  44   2.0000      -0.543878       -14.7997
  45   2.0000      -0.534499       -14.5445
  46   2.0000      -0.516052       -14.0425
  47   2.0000      -0.509308       -13.8590
  48   2.0000      -0.501102       -13.6357
  49   2.0000      -0.494697       -13.4614
  50   2.0000      -0.489565       -13.3217
  51   2.0000      -0.483346       -13.1525
  52   2.0000      -0.475619       -12.9422
  53   2.0000      -0.467560       -12.7230
  54   2.0000      -0.462411       -12.5829
  55   2.0000      -0.445001       -12.1091
  56   2.0000      -0.439861       -11.9692
  57   2.0000      -0.434812       -11.8318
  58   2.0000      -0.429193       -11.6789
  59   2.0000      -0.421902       -11.4805
  60   2.0000      -0.418623       -11.3913
  61   2.0000      -0.414484       -11.2787
  62   2.0000      -0.408708       -11.1215
  63   2.0000      -0.343385        -9.3440
  64   2.0000      -0.327447        -8.9103
  65   2.0000      -0.326093        -8.8734
  66   2.0000      -0.302792        -8.2394
  67   0.0000       0.031516         0.8576
  68   0.0000       0.071112         1.9350
  69   0.0000       0.104700         2.8490
  70   0.0000       0.115911         3.1541
  71   0.0000       0.128645         3.5006

MULLIKEN ATOMIC CHARGES
-----------------------
   0 S :    0.111188
   1 C :   -0.140229
   2 C :   -0.106589
   3 C :    0.005735
   4 C :   -0.158502
   5 H :    0.042756
   6 C :    0.038487
   7 H :    0.045309
   8 H :    0.039290
   9 C :   -0.065145
  10 H :    0.033173
  11 H :    0.011261
  12 C :   -0.011016
  13 H :    0.036703
  14 H :    0.024540
  15 H :    0.006623
  16 S :    0.100771
  17 C :   -0.114248
  18 C :   -0.036301
  19 C :   -0.000136
  20 C :   -0.174145
  21 H :    0.009376
  22 C :    0.045400
  23 H :    0.033338
  24 H :    0.002465
  25 C :   -0.026936
  26 H :    0.024563
  27 H :    0.026135
  28 C :   -0.065101
  29 H :    0.033733
  30 H :    0.044351
  31 H :    0.025432
  32 H :    0.071096
  33 H :    0.086624
Sum of atomic charges:   -0.0000000

LOEWDIN ATOMIC CHARGES
----------------------
   0 S :    0.419725
   1 C :   -0.210754
   2 C :   -0.060054
   3 C :   -0.077850
   4 C :   -0.206411
   5 H :    0.043815
   6 C :   -0.041938
   7 H :    0.042785
   8 H :    0.033708
   9 C :   -0.047424
  10 H :    0.034138
  11 H :    0.017236
  12 C :   -0.059080
  13 H :    0.034792
  14 H :    0.019509
  15 H :    0.017438
  16 S :    0.380849
  17 C :   -0.197756
  18 C :   -0.068489
  19 C :   -0.052586
  20 C :   -0.180305
  21 H :    0.023005
  22 C :   -0.041307
  23 H :    0.041547
  24 H :    0.014237
  25 C :   -0.031102
  26 H :    0.024755
  27 H :    0.021795
  28 C :   -0.070108
  29 H :    0.028226
  30 H :    0.031487
  31 H :    0.021274
  32 H :    0.044269
  33 H :    0.050576

  Mayer bond orders larger than 0.100000
B(  0-S ,  1-C ) :   1.1434 B(  0-S ,  4-C ) :   1.1528 B(  1-C ,  2-C ) :   1.6190
B(  1-C , 32-H ) :   0.9636 B(  2-C ,  3-C ) :   1.2277 B(  2-C ,  6-C ) :   0.9979
B(  3-C ,  4-C ) :   1.6171 B(  3-C ,  5-H ) :   0.9714 B(  4-C , 20-C ) :   0.9888
B(  6-C ,  7-H ) :   0.9330 B(  6-C ,  8-H ) :   0.9455 B(  6-C ,  9-C ) :   1.0944
B(  9-C , 10-H ) :   0.9502 B(  9-C , 11-H ) :   0.9434 B(  9-C , 12-C ) :   1.0764
B( 12-C , 13-H ) :   0.9722 B( 12-C , 14-H ) :   0.9733 B( 12-C , 15-H ) :   0.9703
B( 16-S , 17-C ) :   1.1263 B( 16-S , 20-C ) :   1.1292 B( 17-C , 18-C ) :   1.6479
B( 17-C , 33-H ) :   0.9586 B( 18-C , 19-C ) :   1.1922 B( 18-C , 21-H ) :   0.9868
B( 19-C , 20-C ) :   1.6355 B( 19-C , 22-C ) :   1.0390 B( 22-C , 23-H ) :   0.9423
B( 22-C , 24-H ) :   0.9156 B( 22-C , 25-C ) :   1.0857 B( 25-C , 26-H ) :   0.9517
B( 25-C , 27-H ) :   0.9525 B( 25-C , 28-C ) :   1.0838 B( 28-C , 29-H ) :   0.9720
B( 28-C , 30-H ) :   0.9723 B( 28-C , 31-H ) :   0.9725

Dispersion correction           -0.014824337
FINAL SINGLE POINT ENERGY     -1339.867725134846

DIPOLE MOMENT
-------------
                                X             Y             Z
Electronic contribution:     -7.97432      10.88278      12.97452
Nuclear contribution   :      8.30627     -11.16393     -13.51046
                        -----------------------------------------
Total Dipole Moment    :      0.33195      -0.28115      -0.53594
                        -----------------------------------------
Magnitude (a.u.)       :      0.69026
Magnitude (Debye)      :      1.75451

Rotational constants in cm-1:     0.018794     0.008556     0.007613
Rotational constants in MHz :   563.444170   256.508494   228.238568

                             ****ORCA TERMINATED NORMALLY****
TOTAL RUN TIME: 0 days 0 hours 0 minutes 31 seconds 878 msec
