                         Program Version 4.2.1 -  RELEASE  -
|  1> ! wB97X-D3 SP def2-SVP
|  2> %pal
|  3> nprocs 16
|  4> end
|  5>
|  6> * xyz 0 1
|  7> S 	 -16.7825 	 37.041 	 37.0851
|  8> C 	 -15.97 	 36.3758 	 35.6691
|  9> C 	 -14.713 	 35.7742 	 36.0457
| 10> C 	 -14.5144 	 35.8948 	 37.4476
| 11> C 	 -15.4983 	 36.5706 	 38.1151
| 12> H 	 -13.5652 	 35.7623 	 38.0737
| 13> C 	 -13.6685 	 35.0365 	 35.2046
| 14> H 	 -12.9392 	 34.4755 	 35.792
| 15> H 	 -13.0958 	 35.7293 	 34.5774
| 16> C 	 -14.086 	 34.0613 	 34.2141
| 17> H 	 -14.6212 	 34.5817 	 33.4424
| 18> H 	 -13.2416 	 33.4944 	 33.8525
| 19> C 	 -15.1377 	 33.0444 	 34.8159
| 20> H 	 -16.1771 	 33.2809 	 34.6286
| 21> H 	 -14.9316 	 32.023 	 34.4887
| 22> H 	 -14.9908 	 33.0058 	 35.882
| 23> S 	 -16.1752 	 38.3485 	 40.1221
| 24> C 	 -15.455 	 38.1264 	 41.7516
| 25> C 	 -14.9553 	 36.8524 	 41.8611
| 26> C 	 -15.0948 	 36.0972 	 40.6509
| 27> C 	 -15.55 	 36.815 	 39.56
| 28> H 	 -14.5431 	 36.3982 	 42.7441
| 29> C 	 -14.7399 	 34.6416 	 40.5258
| 30> H 	 -13.9638 	 34.4713 	 41.2727
| 31> H 	 -14.3965 	 34.4353 	 39.466
| 32> C 	 -15.788 	 33.5803 	 40.7757
| 33> H 	 -16.53 	 33.6944 	 40.0422
| 34> H 	 -16.3659 	 33.6382 	 41.7128
| 35> C 	 -15.1327 	 32.2244 	 40.5694
| 36> H 	 -15.8556 	 31.4389 	 40.7913
| 37> H 	 -14.3344 	 31.9694 	 41.3067
| 38> H 	 -14.7485 	 32.1235 	 39.5292
| 39> H 	 -16.2702 	 36.4467 	 34.621
| 40> H 	 -15.4376 	 38.8382 	 42.5913
| 41> *
| 42>
| 43>                          ****END OF INPUT****

CARTESIAN COORDINATES (ANGSTROEM)
---------------------------------
  S    -16.782500   37.041000   37.085100
  C    -15.970000   36.375800   35.669100
  C    -14.713000   35.774200   36.045700
  C    -14.514400   35.894800   37.447600
  C    -15.498300   36.570600   38.115100
  H    -13.565200   35.762300   38.073700
  C    -13.668500   35.036500   35.204600
  H    -12.939200   34.475500   35.792000
  H    -13.095800   35.729300   34.577400
  C    -14.086000   34.061300   34.214100
  H    -14.621200   34.581700   33.442400
  H    -13.241600   33.494400   33.852500
  C    -15.137700   33.044400   34.815900
  H    -16.177100   33.280900   34.628600
  H    -14.931600   32.023000   34.488700
  H    -14.990800   33.005800   35.882000
  S    -16.175200   38.348500   40.122100
  C    -15.455000   38.126400   41.751600
  C    -14.955300   36.852400   41.861100
  C    -15.094800   36.097200   40.650900
  C    -15.550000   36.815000   39.560000
  H    -14.543100   36.398200   42.744100
  C    -14.739900   34.641600   40.525800
  H    -13.963800   34.471300   41.272700
  H    -14.396500   34.435300   39.466000
  C    -15.788000   33.580300   40.775700
  H    -16.530000   33.694400   40.042200
  H    -16.365900   33.638200   41.712800
  C    -15.132700   32.224400   40.569400
  H    -15.855600   31.438900   40.791300
  H    -14.334400   31.969400   41.306700
  H    -14.748500   32.123500   39.529200
  H    -16.270200   36.446700   34.621000
  H    -15.437600   38.838200   42.591300

 Total Charge           Charge          ....    0
 Multiplicity           Mult            ....    1
 Number of Electrons    NEL             ....  134
 Basis Dimension        Dim             ....  322

ORBITAL ENERGIES
----------------

  NO   OCC          E(Eh)            E(eV)
   0   2.0000     -88.974031     -2421.1065
   1   2.0000     -88.964516     -2420.8476
   2   2.0000     -10.329177      -281.0712
   3   2.0000     -10.327200      -281.0174
   4   2.0000     -10.325675      -280.9759
   5   2.0000     -10.325466      -280.9702
   6   2.0000     -10.314067      -280.6600
   7   2.0000     -10.300288      -280.2851
   8   2.0000     -10.296671      -280.1867
   9   2.0000     -10.296531      -280.1829
  10   2.0000     -10.289952      -280.0038
  11   2.0000     -10.287705      -279.9427
  12   2.0000     -10.280339      -279.7422
  13   2.0000     -10.279952      -279.7317
  14   2.0000     -10.278026      -279.6793
  15   2.0000     -10.270304      -279.4692
  16   2.0000      -8.088785      -220.1070
  17   2.0000      -8.078815      -219.8357
  18   2.0000      -6.047247      -164.5540
  19   2.0000      -6.043238      -164.4449
  20   2.0000      -6.039640      -164.3470
  21   2.0000      -6.037510      -164.2890
  22   2.0000      -6.033409      -164.1774
  23   2.0000      -6.029375      -164.0676
  24   2.0000      -1.010147       -27.4875
  25   2.0000      -0.984271       -26.7834
  26   2.0000      -0.923404       -25.1271
  27   2.0000      -0.912226       -24.8229
  28   2.0000      -0.868688       -23.6382
  29   2.0000      -0.853879       -23.2352
  30   2.0000      -0.844233       -22.9728
  31   2.0000      -0.811852       -22.0916
  32   2.0000      -0.786088       -21.3906
  33   2.0000      -0.766528       -20.8583
  34   2.0000      -0.705832       -19.2067
  35   2.0000      -0.702385       -19.1129
  36   2.0000      -0.690453       -18.7882
  37   2.0000      -0.667517       -18.1641
  38   2.0000      -0.639590       -17.4041
  39   2.0000      -0.609530       -16.5862
  40   2.0000      -0.594911       -16.1884
  41   2.0000      -0.586423       -15.9574
  42   2.0000      -0.569625       -15.5003
  43   2.0000      -0.556939       -15.1551
  44   2.0000      -0.545333       -14.8393
  45   2.0000      -0.519912       -14.1475
  46   2.0000      -0.518350       -14.1050
  47   2.0000      -0.508823       -13.8458
  48   2.0000      -0.501640       -13.6503
  49   2.0000      -0.497072       -13.5260
  50   2.0000      -0.488472       -13.2920
  51   2.0000      -0.479840       -13.0571
  52   2.0000      -0.471003       -12.8166
  53   2.0000      -0.462277       -12.5792
  54   2.0000      -0.460920       -12.5423
  55   2.0000      -0.451877       -12.2962
  56   2.0000      -0.445656       -12.1269
  57   2.0000      -0.436595       -11.8804
  58   2.0000      -0.430681       -11.7194
  59   2.0000      -0.422673       -11.5015
  60   2.0000      -0.417466       -11.3598
  61   2.0000      -0.412950       -11.2369
  62   2.0000      -0.411095       -11.1865
  63   2.0000      -0.354153        -9.6370
  64   2.0000      -0.337181        -9.1752
  65   2.0000      -0.326347        -8.8803
  66   2.0000      -0.286129        -7.7860
  67   0.0000       0.019656         0.5349
  68   0.0000       0.070345         1.9142
  69   0.0000       0.096428         2.6239
  70   0.0000       0.110627         3.0103
  71   0.0000       0.126960         3.4548

MULLIKEN ATOMIC CHARGES
-----------------------
   0 S :    0.125662
   1 C :   -0.120449
   2 C :   -0.083229
   3 C :   -0.042873
   4 C :   -0.125443
   5 H :    0.063849
   6 C :    0.075841
   7 H :    0.023279
   8 H :    0.035220
   9 C :   -0.076575
  10 H :    0.019752
  11 H :    0.034255
  12 C :   -0.053944
  13 H :    0.036794
  14 H :    0.025619
  15 H :    0.017025
  16 S :    0.085556
  17 C :   -0.090268
  18 C :   -0.003095
  19 C :   -0.064529
  20 C :   -0.126005
  21 H :    0.014342
  22 C :    0.021099
  23 H :    0.010076
  24 H :    0.020607
  25 C :   -0.016785
  26 H :    0.013076
  27 H :    0.024833
  28 C :   -0.069122
  29 H :    0.028570
  30 H :    0.030850
  31 H :    0.042630
  32 H :    0.055492
  33 H :    0.067889
Sum of atomic charges:   -0.0000000

LOEWDIN ATOMIC CHARGES
----------------------
   0 S :    0.429456
   1 C :   -0.206861
   2 C :   -0.050475
   3 C :   -0.085396
   4 C :   -0.203622
   5 H :    0.051662
   6 C :   -0.039026
   7 H :    0.031238
   8 H :    0.038296
   9 C :   -0.038347
  10 H :    0.017386
  11 H :    0.028188
  12 C :   -0.068144
  13 H :    0.025143
  14 H :    0.023345
  15 H :    0.019882
  16 S :    0.380298
  17 C :   -0.170200
  18 C :   -0.066704
  19 C :   -0.061889
  20 C :   -0.196808
  21 H :    0.031536
  22 C :   -0.039285
  23 H :    0.024443
  24 H :    0.037620
  25 C :   -0.039096
  26 H :    0.019018
  27 H :    0.024883
  28 C :   -0.067729
  29 H :    0.025507
  30 H :    0.026215
  31 H :    0.029714
  32 H :    0.031614
  33 H :    0.038139

  Mayer bond orders larger than 0.100000
B(  0-S ,  1-C ) :   1.1454 B(  0-S ,  4-C ) :   1.1641 B(  1-C ,  2-C ) :   1.5742
B(  1-C ,  4-C ) :   0.1084 B(  1-C , 32-H ) :   0.9692 B(  2-C ,  3-C ) :   1.2689
B(  2-C ,  6-C ) :   1.0123 B(  3-C ,  4-C ) :   1.5942 B(  3-C ,  5-H ) :   0.9610
B(  4-C , 20-C ) :   1.0218 B(  6-C ,  7-H ) :   0.9502 B(  6-C ,  8-H ) :   0.9276
B(  6-C ,  9-C ) :   1.0971 B(  9-C , 10-H ) :   0.9552 B(  9-C , 11-H ) :   0.9578
B(  9-C , 12-C ) :   1.0687 B( 12-C , 13-H ) :   0.9752 B( 12-C , 14-H ) :   0.9783
B( 12-C , 15-H ) :   0.9794 B( 16-S , 17-C ) :   1.1410 B( 16-S , 20-C ) :   1.1144
B( 17-C , 18-C ) :   1.6010 B( 17-C , 33-H ) :   0.9656 B( 18-C , 19-C ) :   1.2534
B( 18-C , 21-H ) :   0.9903 B( 19-C , 20-C ) :   1.5975 B( 19-C , 22-C ) :   1.0435
B( 22-C , 23-H ) :   0.9320 B( 22-C , 24-H ) :   0.9312 B( 22-C , 25-C ) :   1.0723
B( 25-C , 26-H ) :   0.9451 B( 25-C , 27-H ) :   0.9511 B( 25-C , 28-C ) :   1.0871
B( 28-C , 29-H ) :   0.9711 B( 28-C , 30-H ) :   0.9745 B( 28-C , 31-H ) :   0.9719

Dispersion correction           -0.014439154
FINAL SINGLE POINT ENERGY     -1339.861522020340

DIPOLE MOMENT
-------------
                                X             Y             Z
Electronic contribution:     -9.76212      27.76070       6.16806
Nuclear contribution   :     10.17799     -28.23481      -6.12965
                        -----------------------------------------
Total Dipole Moment    :      0.41587      -0.47410       0.03840
                        -----------------------------------------
Magnitude (a.u.)       :      0.63182
Magnitude (Debye)      :      1.60595

Rotational constants in cm-1:     0.018812     0.009323     0.006964
Rotational constants in MHz :   563.966024   279.509327   208.765782

                             ****ORCA TERMINATED NORMALLY****
TOTAL RUN TIME: 0 days 0 hours 0 minutes 34 seconds 790 msec
