                         Program Version 4.2.1 -  RELEASE  -
|  1> ! wB97X-D3 SP def2-SVP
|  2> %pal
|  3> nprocs 16
|  4> end
|  5>
|  6> * xyz 0 1
|  7> S 	 -96.7017 	 54.1291 	 125.021
|  8> C 	 -95.4681 	 52.8666 	 125.183
|  9> C 	 -95.9756 	 51.6663 	 125.606
| 10> C 	 -97.4104 	 51.716 	 125.775
| 11> C 	 -97.948 	 52.9505 	 125.408
| 12> H 	 -98.0299 	 50.8977 	 126.019
| 13> C 	 -95.1965 	 50.4198 	 125.764
| 14> H 	 -95.9652 	 49.6375 	 126.022
| 15> H 	 -94.6081 	 50.5394 	 126.686
| 16> C 	 -94.4053 	 49.9107 	 124.443
| 17> H 	 -93.7884 	 50.6543 	 124.001
| 18> H 	 -93.8008 	 49.0648 	 124.673
| 19> C 	 -95.4775 	 49.4252 	 123.39
| 20> H 	 -96.0805 	 50.3235 	 123.07
| 21> H 	 -94.8854 	 49.2563 	 122.514
| 22> H 	 -95.9812 	 48.5287 	 123.656
| 23> S 	 -99.9917 	 54.1681 	 126.808
| 24> C 	 -101.615 	 53.7403 	 126.423
| 25> C 	 -101.71 	 52.8652 	 125.372
| 26> C 	 -100.442 	 52.5451 	 124.853
| 27> C 	 -99.3553 	 53.1815 	 125.477
| 28> H 	 -102.675 	 52.5042 	 125.075
| 29> C 	 -100.34 	 51.5108 	 123.692
| 30> H 	 -99.4374 	 51.559 	 123.206
| 31> H 	 -101.026 	 51.9141 	 122.919
| 32> C 	 -100.702 	 50.032 	 124.214
| 33> H 	 -101.835 	 49.8353 	 124.181
| 34> H 	 -100.579 	 50.0381 	 125.306
| 35> C 	 -99.8601 	 48.9411 	 123.559
| 36> H 	 -98.749 	 49.2301 	 123.44
| 37> H 	 -100.305 	 48.877 	 122.495
| 38> H 	 -99.8606 	 47.9652 	 124.008
| 39> H 	 -94.4112 	 53.032 	 125.05
| 40> H 	 -102.436 	 54.1338 	 127.035
| 41> *
| 42>
| 43>                          ****END OF INPUT****

CARTESIAN COORDINATES (ANGSTROEM)
---------------------------------
  S    -96.701700   54.129100  125.021000
  C    -95.468100   52.866600  125.183000
  C    -95.975600   51.666300  125.606000
  C    -97.410400   51.716000  125.775000
  C    -97.948000   52.950500  125.408000
  H    -98.029900   50.897700  126.019000
  C    -95.196500   50.419800  125.764000
  H    -95.965200   49.637500  126.022000
  H    -94.608100   50.539400  126.686000
  C    -94.405300   49.910700  124.443000
  H    -93.788400   50.654300  124.001000
  H    -93.800800   49.064800  124.673000
  C    -95.477500   49.425200  123.390000
  H    -96.080500   50.323500  123.070000
  H    -94.885400   49.256300  122.514000
  H    -95.981200   48.528700  123.656000
  S    -99.991700   54.168100  126.808000
  C    -101.615000   53.740300  126.423000
  C    -101.710000   52.865200  125.372000
  C    -100.442000   52.545100  124.853000
  C    -99.355300   53.181500  125.477000
  H    -102.675000   52.504200  125.075000
  C    -100.340000   51.510800  123.692000
  H    -99.437400   51.559000  123.206000
  H    -101.026000   51.914100  122.919000
  C    -100.702000   50.032000  124.214000
  H    -101.835000   49.835300  124.181000
  H    -100.579000   50.038100  125.306000
  C    -99.860100   48.941100  123.559000
  H    -98.749000   49.230100  123.440000
  H    -100.305000   48.877000  122.495000
  H    -99.860600   47.965200  124.008000
  H    -94.411200   53.032000  125.050000
  H    -102.436000   54.133800  127.035000

 Total Charge           Charge          ....    0
 Multiplicity           Mult            ....    1
 Number of Electrons    NEL             ....  134
 Basis Dimension        Dim             ....  322

ORBITAL ENERGIES
----------------

  NO   OCC          E(Eh)            E(eV)
   0   2.0000     -88.967929     -2420.9404
   1   2.0000     -88.960451     -2420.7369
   2   2.0000     -10.326655      -281.0026
   3   2.0000     -10.322479      -280.8889
   4   2.0000     -10.315678      -280.7039
   5   2.0000     -10.311419      -280.5880
   6   2.0000     -10.304706      -280.4053
   7   2.0000     -10.298666      -280.2409
   8   2.0000     -10.297584      -280.2115
   9   2.0000     -10.296781      -280.1896
  10   2.0000     -10.293731      -280.1067
  11   2.0000     -10.291721      -280.0520
  12   2.0000     -10.291672      -280.0506
  13   2.0000     -10.290313      -280.0137
  14   2.0000     -10.289064      -279.9797
  15   2.0000     -10.279203      -279.7113
  16   2.0000      -8.082011      -219.9227
  17   2.0000      -8.075741      -219.7521
  18   2.0000      -6.040623      -164.3737
  19   2.0000      -6.036638      -164.2653
  20   2.0000      -6.034102      -164.1963
  21   2.0000      -6.032681      -164.1576
  22   2.0000      -6.030121      -164.0879
  23   2.0000      -6.026685      -163.9944
  24   2.0000      -1.003673       -27.3113
  25   2.0000      -0.981493       -26.7078
  26   2.0000      -0.905554       -24.6414
  27   2.0000      -0.896825       -24.4039
  28   2.0000      -0.868513       -23.6335
  29   2.0000      -0.848767       -23.0961
  30   2.0000      -0.845791       -23.0151
  31   2.0000      -0.809758       -22.0346
  32   2.0000      -0.778294       -21.1785
  33   2.0000      -0.766666       -20.8621
  34   2.0000      -0.711256       -19.3543
  35   2.0000      -0.701610       -19.0918
  36   2.0000      -0.696764       -18.9599
  37   2.0000      -0.657837       -17.9006
  38   2.0000      -0.639499       -17.4017
  39   2.0000      -0.610116       -16.6021
  40   2.0000      -0.594429       -16.1752
  41   2.0000      -0.574107       -15.6222
  42   2.0000      -0.549541       -14.9538
  43   2.0000      -0.548178       -14.9167
  44   2.0000      -0.542522       -14.7628
  45   2.0000      -0.526894       -14.3375
  46   2.0000      -0.516519       -14.0552
  47   2.0000      -0.512564       -13.9476
  48   2.0000      -0.500079       -13.6078
  49   2.0000      -0.493416       -13.4265
  50   2.0000      -0.481556       -13.1038
  51   2.0000      -0.477734       -12.9998
  52   2.0000      -0.470183       -12.7943
  53   2.0000      -0.461591       -12.5605
  54   2.0000      -0.460453       -12.5296
  55   2.0000      -0.451972       -12.2988
  56   2.0000      -0.441482       -12.0133
  57   2.0000      -0.438752       -11.9390
  58   2.0000      -0.428900       -11.6710
  59   2.0000      -0.428434       -11.6583
  60   2.0000      -0.424629       -11.5547
  61   2.0000      -0.420316       -11.4374
  62   2.0000      -0.401284       -10.9195
  63   2.0000      -0.338640        -9.2149
  64   2.0000      -0.327935        -8.9236
  65   2.0000      -0.325638        -8.8611
  66   2.0000      -0.297177        -8.0866
  67   0.0000       0.036410         0.9908
  68   0.0000       0.061491         1.6733
  69   0.0000       0.115505         3.1430
  70   0.0000       0.123853         3.3702
  71   0.0000       0.128846         3.5061

MULLIKEN ATOMIC CHARGES
-----------------------
   0 S :    0.116697
   1 C :   -0.127180
   2 C :   -0.089189
   3 C :    0.055719
   4 C :   -0.166220
   5 H :   -0.003537
   6 C :    0.047535
   7 H :    0.019863
   8 H :    0.047395
   9 C :   -0.052693
  10 H :    0.028404
  11 H :    0.028456
  12 C :   -0.073600
  13 H :    0.059002
  14 H :    0.021232
  15 H :    0.044240
  16 S :    0.100788
  17 C :   -0.103579
  18 C :   -0.017656
  19 C :   -0.066228
  20 C :   -0.160264
  21 H :    0.012458
  22 C :    0.113700
  23 H :    0.000822
  24 H :    0.035585
  25 C :   -0.100028
  26 H :    0.041368
  27 H :    0.037448
  28 C :   -0.092390
  29 H :    0.049592
  30 H :    0.044906
  31 H :    0.040529
  32 H :    0.040980
  33 H :    0.065846
Sum of atomic charges:   -0.0000000

LOEWDIN ATOMIC CHARGES
----------------------
   0 S :    0.394623
   1 C :   -0.190321
   2 C :   -0.068567
   3 C :   -0.045024
   4 C :   -0.198991
   5 H :    0.024571
   6 C :   -0.039266
   7 H :    0.033176
   8 H :    0.034811
   9 C :   -0.022329
  10 H :    0.017637
  11 H :    0.020009
  12 C :   -0.065453
  13 H :    0.036996
  14 H :    0.023431
  15 H :    0.020074
  16 S :    0.406053
  17 C :   -0.184811
  18 C :   -0.078339
  19 C :   -0.047940
  20 C :   -0.204708
  21 H :    0.031705
  22 C :   -0.020098
  23 H :    0.014486
  24 H :    0.036940
  25 C :   -0.050636
  26 H :    0.032177
  27 H :    0.019794
  28 C :   -0.080273
  29 H :    0.035207
  30 H :    0.036712
  31 H :    0.022077
  32 H :    0.024897
  33 H :    0.031379

  Mayer bond orders larger than 0.100000
B(  0-S ,  1-C ) :   1.1251 B(  0-S ,  4-C ) :   1.1412 B(  1-C ,  2-C ) :   1.6229
B(  1-C , 32-H ) :   0.9701 B(  2-C ,  3-C ) :   1.2284 B(  2-C ,  6-C ) :   1.0185
B(  3-C ,  4-C ) :   1.5754 B(  3-C ,  5-H ) :   0.9976 B(  4-C , 20-C ) :   1.0487
B(  6-C ,  7-H ) :   0.9470 B(  6-C ,  8-H ) :   0.9337 B(  6-C ,  9-C ) :   1.0503
B(  9-C , 10-H ) :   0.9648 B(  9-C , 11-H ) :   0.9597 B(  9-C , 12-C ) :   1.0747
B( 12-C , 13-H ) :   0.9736 B( 12-C , 14-H ) :   0.9707 B( 12-C , 15-H ) :   0.9763
B( 16-S , 17-C ) :   1.1842 B( 16-S , 20-C ) :   1.1364 B( 17-C , 18-C ) :   1.5798
B( 17-C , 20-C ) :   0.1016 B( 17-C , 33-H ) :   0.9639 B( 18-C , 19-C ) :   1.2482
B( 18-C , 21-H ) :   1.0031 B( 19-C , 20-C ) :   1.5907 B( 19-C , 22-C ) :   1.0432
B( 22-C , 23-H ) :   0.9446 B( 22-C , 24-H ) :   0.9392 B( 22-C , 25-C ) :   1.0143
B( 25-C , 26-H ) :   0.9530 B( 25-C , 27-H ) :   0.9673 B( 25-C , 28-C ) :   1.0726
B( 28-C , 29-H ) :   0.9735 B( 28-C , 30-H ) :   0.9739 B( 28-C , 31-H ) :   0.9755

Dispersion correction           -0.015891302
FINAL SINGLE POINT ENERGY     -1339.868702033576

DIPOLE MOMENT
-------------
                                X             Y             Z
Electronic contribution:     -4.25088      27.99498      12.42103
Nuclear contribution   :      4.27189     -28.73512     -12.57973
                        -----------------------------------------
Total Dipole Moment    :      0.02101      -0.74015      -0.15870
                        -----------------------------------------
Magnitude (a.u.)       :      0.75726
Magnitude (Debye)      :      1.92480

Rotational constants in cm-1:     0.018241     0.010143     0.007184
Rotational constants in MHz :   546.840446   304.093456   215.383172

                             ****ORCA TERMINATED NORMALLY****
TOTAL RUN TIME: 0 days 0 hours 0 minutes 36 seconds 403 msec
