                         Program Version 4.2.1 -  RELEASE  -
|  1> ! wB97X-D3 SP def2-SVP
|  2> %pal
|  3> nprocs 16
|  4> end
|  5>
|  6> * xyz 0 1
|  7> S 	 -34.0085 	 57.782 	 100.886
|  8> C 	 -33.2005 	 56.9938 	 99.4703
|  9> C 	 -32.7879 	 55.7151 	 99.7609
| 10> C 	 -33.1427 	 55.3831 	 101.112
| 11> C 	 -33.8531 	 56.3132 	 101.836
| 12> H 	 -32.935 	 54.4271 	 101.512
| 13> C 	 -32.1759 	 54.7204 	 98.797
| 14> H 	 -31.5025 	 54.0936 	 99.3547
| 15> H 	 -31.5236 	 55.2616 	 98.1741
| 16> C 	 -33.1314 	 54.0051 	 97.7315
| 17> H 	 -33.6506 	 54.7014 	 97.1008
| 18> H 	 -32.462 	 53.4557 	 97.0674
| 19> C 	 -33.9462 	 53.0168 	 98.4014
| 20> H 	 -33.4239 	 52.2873 	 99.0297
| 21> H 	 -34.8344 	 53.4665 	 98.9362
| 22> H 	 -34.3242 	 52.3754 	 97.5999
| 23> S 	 -34.5953 	 54.4172 	 103.675
| 24> C 	 -35.3469 	 54.8726 	 105.133
| 25> C 	 -35.1466 	 56.2345 	 105.46
| 26> C 	 -34.7228 	 56.9527 	 104.289
| 27> C 	 -34.383 	 56.1513 	 103.189
| 28> H 	 -35.3383 	 56.6489 	 106.431
| 29> C 	 -34.5355 	 58.4156 	 104.376
| 30> H 	 -33.6769 	 58.6443 	 103.731
| 31> H 	 -34.3709 	 58.7237 	 105.415
| 32> C 	 -35.5894 	 59.311 	 103.808
| 33> H 	 -36.4464 	 59.165 	 104.395
| 34> H 	 -35.8025 	 59.0243 	 102.82
| 35> C 	 -35.1581 	 60.7501 	 103.885
| 36> H 	 -36.0658 	 61.4099 	 103.901
| 37> H 	 -34.4514 	 60.9574 	 103.152
| 38> H 	 -34.6963 	 60.9162 	 104.804
| 39> H 	 -32.9993 	 57.4706 	 98.5255
| 40> H 	 -35.7628 	 54.1666 	 105.857
| 41> *
| 42>
| 43>                          ****END OF INPUT****

CARTESIAN COORDINATES (ANGSTROEM)
---------------------------------
  S    -34.008500   57.782000  100.886000
  C    -33.200500   56.993800   99.470300
  C    -32.787900   55.715100   99.760900
  C    -33.142700   55.383100  101.112000
  C    -33.853100   56.313200  101.836000
  H    -32.935000   54.427100  101.512000
  C    -32.175900   54.720400   98.797000
  H    -31.502500   54.093600   99.354700
  H    -31.523600   55.261600   98.174100
  C    -33.131400   54.005100   97.731500
  H    -33.650600   54.701400   97.100800
  H    -32.462000   53.455700   97.067400
  C    -33.946200   53.016800   98.401400
  H    -33.423900   52.287300   99.029700
  H    -34.834400   53.466500   98.936200
  H    -34.324200   52.375400   97.599900
  S    -34.595300   54.417200  103.675000
  C    -35.346900   54.872600  105.133000
  C    -35.146600   56.234500  105.460000
  C    -34.722800   56.952700  104.289000
  C    -34.383000   56.151300  103.189000
  H    -35.338300   56.648900  106.431000
  C    -34.535500   58.415600  104.376000
  H    -33.676900   58.644300  103.731000
  H    -34.370900   58.723700  105.415000
  C    -35.589400   59.311000  103.808000
  H    -36.446400   59.165000  104.395000
  H    -35.802500   59.024300  102.820000
  C    -35.158100   60.750100  103.885000
  H    -36.065800   61.409900  103.901000
  H    -34.451400   60.957400  103.152000
  H    -34.696300   60.916200  104.804000
  H    -32.999300   57.470600   98.525500
  H    -35.762800   54.166600  105.857000

 Total Charge           Charge          ....    0
 Multiplicity           Mult            ....    1
 Number of Electrons    NEL             ....  134
 Basis Dimension        Dim             ....  322

ORBITAL ENERGIES
----------------

  NO   OCC          E(Eh)            E(eV)
   0   2.0000     -88.968962     -2420.9685
   1   2.0000     -88.966610     -2420.9045
   2   2.0000     -10.334986      -281.2293
   3   2.0000     -10.333743      -281.1954
   4   2.0000     -10.321325      -280.8575
   5   2.0000     -10.315300      -280.6936
   6   2.0000     -10.306628      -280.4576
   7   2.0000     -10.301364      -280.3144
   8   2.0000     -10.297837      -280.2184
   9   2.0000     -10.289249      -279.9847
  10   2.0000     -10.287701      -279.9426
  11   2.0000     -10.287409      -279.9346
  12   2.0000     -10.282608      -279.8040
  13   2.0000     -10.273350      -279.5521
  14   2.0000     -10.266818      -279.3743
  15   2.0000     -10.264965      -279.3239
  16   2.0000      -8.082025      -219.9231
  17   2.0000      -8.081175      -219.8999
  18   2.0000      -6.040771      -164.3777
  19   2.0000      -6.039694      -164.3484
  20   2.0000      -6.036843      -164.2709
  21   2.0000      -6.035801      -164.2425
  22   2.0000      -6.032582      -164.1549
  23   2.0000      -6.031856      -164.1351
  24   2.0000      -1.002477       -27.2788
  25   2.0000      -0.980216       -26.6730
  26   2.0000      -0.922797       -25.1106
  27   2.0000      -0.914640       -24.8886
  28   2.0000      -0.871361       -23.7109
  29   2.0000      -0.858472       -23.3602
  30   2.0000      -0.846967       -23.0471
  31   2.0000      -0.809236       -22.0204
  32   2.0000      -0.785573       -21.3765
  33   2.0000      -0.772455       -21.0196
  34   2.0000      -0.707802       -19.2603
  35   2.0000      -0.702757       -19.1230
  36   2.0000      -0.691632       -18.8203
  37   2.0000      -0.671248       -18.2656
  38   2.0000      -0.633627       -17.2419
  39   2.0000      -0.615955       -16.7610
  40   2.0000      -0.598331       -16.2814
  41   2.0000      -0.583189       -15.8694
  42   2.0000      -0.573894       -15.6164
  43   2.0000      -0.548797       -14.9335
  44   2.0000      -0.546122       -14.8607
  45   2.0000      -0.523236       -14.2380
  46   2.0000      -0.518409       -14.1066
  47   2.0000      -0.517601       -14.0846
  48   2.0000      -0.508705       -13.8426
  49   2.0000      -0.495297       -13.4777
  50   2.0000      -0.492327       -13.3969
  51   2.0000      -0.479396       -13.0450
  52   2.0000      -0.474619       -12.9150
  53   2.0000      -0.468603       -12.7513
  54   2.0000      -0.464011       -12.6264
  55   2.0000      -0.452138       -12.3033
  56   2.0000      -0.445713       -12.1285
  57   2.0000      -0.431253       -11.7350
  58   2.0000      -0.429600       -11.6900
  59   2.0000      -0.421283       -11.4637
  60   2.0000      -0.419064       -11.4033
  61   2.0000      -0.414992       -11.2925
  62   2.0000      -0.411444       -11.1960
  63   2.0000      -0.356872        -9.7110
  64   2.0000      -0.330715        -8.9992
  65   2.0000      -0.328079        -8.9275
  66   2.0000      -0.278442        -7.5768
  67   0.0000       0.018303         0.4980
  68   0.0000       0.070841         1.9277
  69   0.0000       0.095827         2.6076
  70   0.0000       0.113391         3.0855
  71   0.0000       0.132088         3.5943

MULLIKEN ATOMIC CHARGES
-----------------------
   0 S :    0.086629
   1 C :   -0.127666
   2 C :   -0.072221
   3 C :   -0.006910
   4 C :   -0.084808
   5 H :   -0.006865
   6 C :    0.080800
   7 H :    0.020554
   8 H :    0.001747
   9 C :   -0.035228
  10 H :    0.028959
  11 H :    0.021804
  12 C :   -0.054133
  13 H :    0.028270
  14 H :    0.056534
  15 H :    0.020615
  16 S :    0.089714
  17 C :   -0.083599
  18 C :   -0.030861
  19 C :   -0.039932
  20 C :   -0.121875
  21 H :    0.017968
  22 C :   -0.000556
  23 H :    0.019345
  24 H :    0.018995
  25 C :   -0.017424
  26 H :    0.001054
  27 H :    0.012173
  28 C :    0.012770
  29 H :    0.037924
  30 H :    0.021950
  31 H :   -0.000839
  32 H :    0.039901
  33 H :    0.065214
Sum of atomic charges:   -0.0000000

LOEWDIN ATOMIC CHARGES
----------------------
   0 S :    0.381151
   1 C :   -0.179873
   2 C :   -0.056900
   3 C :   -0.076074
   4 C :   -0.182961
   5 H :    0.014267
   6 C :   -0.027491
   7 H :    0.029613
   8 H :    0.023636
   9 C :   -0.029116
  10 H :    0.025181
  11 H :    0.026273
  12 C :   -0.074954
  13 H :    0.026162
  14 H :    0.035500
  15 H :    0.026334
  16 S :    0.410287
  17 C :   -0.191510
  18 C :   -0.069506
  19 C :   -0.049701
  20 C :   -0.176833
  21 H :    0.029873
  22 C :   -0.038432
  23 H :    0.027000
  24 H :    0.030388
  25 C :   -0.031330
  26 H :    0.014274
  27 H :    0.008929
  28 C :   -0.050007
  29 H :    0.035550
  30 H :    0.018584
  31 H :    0.014838
  32 H :    0.025220
  33 H :    0.031628

  Mayer bond orders larger than 0.100000
B(  0-S ,  1-C ) :   1.1131 B(  0-S ,  4-C ) :   1.1225 B(  1-C ,  2-C ) :   1.6295
B(  1-C , 32-H ) :   0.9669 B(  2-C ,  3-C ) :   1.2419 B(  2-C ,  6-C ) :   1.0238
B(  3-C ,  4-C ) :   1.5657 B(  3-C ,  5-H ) :   0.9871 B(  4-C , 20-C ) :   1.0874
B(  6-C ,  7-H ) :   0.9436 B(  6-C ,  8-H ) :   0.9277 B(  6-C ,  9-C ) :   1.0690
B(  9-C , 10-H ) :   0.9530 B(  9-C , 11-H ) :   0.9515 B(  9-C , 12-C ) :   1.0954
B( 12-C , 13-H ) :   0.9711 B( 12-C , 14-H ) :   0.9715 B( 12-C , 15-H ) :   0.9676
B( 16-S , 17-C ) :   1.1913 B( 16-S , 20-C ) :   1.1153 B( 17-C , 18-C ) :   1.5699
B( 17-C , 33-H ) :   0.9638 B( 18-C , 19-C ) :   1.2520 B( 18-C , 21-H ) :   0.9934
B( 19-C , 20-C ) :   1.5586 B( 19-C , 22-C ) :   1.0572 B( 22-C , 23-H ) :   0.9316
B( 22-C , 24-H ) :   0.9296 B( 22-C , 25-C ) :   1.0829 B( 25-C , 26-H ) :   0.9453
B( 25-C , 27-H ) :   0.9467 B( 25-C , 28-C ) :   1.0914 B( 28-C , 29-H ) :   0.9721
B( 28-C , 30-H ) :   0.9729 B( 28-C , 31-H ) :   0.9659

Dispersion correction           -0.014197939
FINAL SINGLE POINT ENERGY     -1339.860214493390

DIPOLE MOMENT
-------------
                                X             Y             Z
Electronic contribution:     -0.12357      -3.80738       7.69386
Nuclear contribution   :      0.24938       3.66608      -7.75091
                        -----------------------------------------
Total Dipole Moment    :      0.12580      -0.14130      -0.05706
                        -----------------------------------------
Magnitude (a.u.)       :      0.19760
Magnitude (Debye)      :      0.50227

Rotational constants in cm-1:     0.021118     0.008583     0.006398
Rotational constants in MHz :   633.092370   257.298150   191.794839

                             ****ORCA TERMINATED NORMALLY****
TOTAL RUN TIME: 0 days 0 hours 0 minutes 31 seconds 138 msec
