                         Program Version 4.2.1 -  RELEASE  -
|  1> ! wB97X-D3 SP def2-SVP
|  2> %pal
|  3> nprocs 16
|  4> end
|  5>
|  6> * xyz 0 1
|  7> S 	 -74.3396 	 50.7489 	 136.091
|  8> C 	 -74.5506 	 50.299 	 137.739
|  9> C 	 -75.9024 	 50.4541 	 138.041
| 10> C 	 -76.5711 	 51.2975 	 137.087
| 11> C 	 -75.8701 	 51.626 	 135.951
| 12> H 	 -77.5758 	 51.5659 	 137.275
| 13> C 	 -76.6192 	 49.9239 	 139.259
| 14> H 	 -77.3617 	 49.2315 	 139.057
| 15> H 	 -77.255 	 50.7487 	 139.657
| 16> C 	 -75.5954 	 49.379 	 140.263
| 17> H 	 -74.9596 	 48.6352 	 139.788
| 18> H 	 -74.9345 	 50.1162 	 140.66
| 19> C 	 -76.3154 	 48.8757 	 141.461
| 20> H 	 -75.7488 	 48.2559 	 142.179
| 21> H 	 -76.8948 	 49.6412 	 142.008
| 22> H 	 -76.9998 	 48.2332 	 141.012
| 23> S 	 -76.191 	 51.7041 	 133.208
| 24> C 	 -77.0829 	 52.9446 	 132.472
| 25> C 	 -77.5183 	 53.8767 	 133.452
| 26> C 	 -77.0456 	 53.6506 	 134.772
| 27> C 	 -76.2621 	 52.4621 	 134.818
| 28> H 	 -78.1208 	 54.6692 	 133.177
| 29> C 	 -77.4376 	 54.4824 	 135.923
| 30> H 	 -77.0255 	 54.1199 	 136.834
| 31> H 	 -78.5309 	 54.4086 	 135.982
| 32> C 	 -77.1021 	 55.9836 	 135.915
| 33> H 	 -77.5567 	 56.447 	 135.015
| 34> H 	 -76.0529 	 56.212 	 135.777
| 35> C 	 -77.5571 	 56.8064 	 137.023
| 36> H 	 -78.6088 	 56.7338 	 137.259
| 37> H 	 -77.5868 	 57.8664 	 136.743
| 38> H 	 -76.905 	 56.8709 	 137.94
| 39> H 	 -73.7961 	 49.7662 	 138.332
| 40> H 	 -77.3134 	 53.0249 	 131.442
| 41> *
| 42>
| 43>                          ****END OF INPUT****

CARTESIAN COORDINATES (ANGSTROEM)
---------------------------------
  S    -74.339600   50.748900  136.091000
  C    -74.550600   50.299000  137.739000
  C    -75.902400   50.454100  138.041000
  C    -76.571100   51.297500  137.087000
  C    -75.870100   51.626000  135.951000
  H    -77.575800   51.565900  137.275000
  C    -76.619200   49.923900  139.259000
  H    -77.361700   49.231500  139.057000
  H    -77.255000   50.748700  139.657000
  C    -75.595400   49.379000  140.263000
  H    -74.959600   48.635200  139.788000
  H    -74.934500   50.116200  140.660000
  C    -76.315400   48.875700  141.461000
  H    -75.748800   48.255900  142.179000
  H    -76.894800   49.641200  142.008000
  H    -76.999800   48.233200  141.012000
  S    -76.191000   51.704100  133.208000
  C    -77.082900   52.944600  132.472000
  C    -77.518300   53.876700  133.452000
  C    -77.045600   53.650600  134.772000
  C    -76.262100   52.462100  134.818000
  H    -78.120800   54.669200  133.177000
  C    -77.437600   54.482400  135.923000
  H    -77.025500   54.119900  136.834000
  H    -78.530900   54.408600  135.982000
  C    -77.102100   55.983600  135.915000
  H    -77.556700   56.447000  135.015000
  H    -76.052900   56.212000  135.777000
  C    -77.557100   56.806400  137.023000
  H    -78.608800   56.733800  137.259000
  H    -77.586800   57.866400  136.743000
  H    -76.905000   56.870900  137.940000
  H    -73.796100   49.766200  138.332000
  H    -77.313400   53.024900  131.442000

 Total Charge           Charge          ....    0
 Multiplicity           Mult            ....    1
 Number of Electrons    NEL             ....  134
 Basis Dimension        Dim             ....  322

ORBITAL ENERGIES
----------------

  NO   OCC          E(Eh)            E(eV)
   0   2.0000     -88.967987     -2420.9420
   1   2.0000     -88.958569     -2420.6857
   2   2.0000     -10.332385      -281.1585
   3   2.0000     -10.331114      -281.1239
   4   2.0000     -10.317377      -280.7501
   5   2.0000     -10.315109      -280.6884
   6   2.0000     -10.307709      -280.4870
   7   2.0000     -10.300139      -280.2810
   8   2.0000     -10.290647      -280.0227
   9   2.0000     -10.290294      -280.0131
  10   2.0000     -10.289064      -279.9797
  11   2.0000     -10.288784      -279.9720
  12   2.0000     -10.282687      -279.8061
  13   2.0000     -10.281560      -279.7755
  14   2.0000     -10.276280      -279.6318
  15   2.0000     -10.271422      -279.4996
  16   2.0000      -8.082996      -219.9495
  17   2.0000      -8.073831      -219.7001
  18   2.0000      -6.041379      -164.3943
  19   2.0000      -6.037279      -164.2827
  20   2.0000      -6.034051      -164.1949
  21   2.0000      -6.032493      -164.1525
  22   2.0000      -6.028235      -164.0366
  23   2.0000      -6.024398      -163.9322
  24   2.0000      -1.005174       -27.3522
  25   2.0000      -0.985754       -26.8237
  26   2.0000      -0.921749       -25.0821
  27   2.0000      -0.918720       -24.9997
  28   2.0000      -0.870771       -23.6949
  29   2.0000      -0.862624       -23.4732
  30   2.0000      -0.848893       -23.0996
  31   2.0000      -0.813062       -22.1245
  32   2.0000      -0.787248       -21.4221
  33   2.0000      -0.769071       -20.9275
  34   2.0000      -0.717045       -19.5118
  35   2.0000      -0.701885       -19.0993
  36   2.0000      -0.692065       -18.8320
  37   2.0000      -0.662356       -18.0236
  38   2.0000      -0.641295       -17.4505
  39   2.0000      -0.622044       -16.9267
  40   2.0000      -0.603965       -16.4347
  41   2.0000      -0.575137       -15.6503
  42   2.0000      -0.574215       -15.6252
  43   2.0000      -0.569654       -15.5011
  44   2.0000      -0.530325       -14.4309
  45   2.0000      -0.525681       -14.3045
  46   2.0000      -0.523144       -14.2355
  47   2.0000      -0.520957       -14.1760
  48   2.0000      -0.510704       -13.8970
  49   2.0000      -0.506500       -13.7826
  50   2.0000      -0.493749       -13.4356
  51   2.0000      -0.480978       -13.0881
  52   2.0000      -0.477721       -12.9994
  53   2.0000      -0.462097       -12.5743
  54   2.0000      -0.459790       -12.5115
  55   2.0000      -0.459516       -12.5041
  56   2.0000      -0.446853       -12.1595
  57   2.0000      -0.433939       -11.8081
  58   2.0000      -0.426765       -11.6129
  59   2.0000      -0.423944       -11.5361
  60   2.0000      -0.419540       -11.4163
  61   2.0000      -0.415351       -11.3023
  62   2.0000      -0.403945       -10.9919
  63   2.0000      -0.349880        -9.5207
  64   2.0000      -0.331203        -9.0125
  65   2.0000      -0.320060        -8.7093
  66   2.0000      -0.286010        -7.7827
  67   0.0000       0.027243         0.7413
  68   0.0000       0.066134         1.7996
  69   0.0000       0.110851         3.0164
  70   0.0000       0.125850         3.4246
  71   0.0000       0.129975         3.5368

MULLIKEN ATOMIC CHARGES
-----------------------
   0 S :    0.098531
   1 C :   -0.137300
   2 C :   -0.100801
   3 C :    0.031570
   4 C :   -0.122150
   5 H :   -0.009978
   6 C :    0.068025
   7 H :    0.017382
   8 H :    0.024815
   9 C :   -0.089147
  10 H :    0.034592
  11 H :    0.026984
  12 C :   -0.006532
  13 H :    0.032652
  14 H :    0.032885
  15 H :   -0.000799
  16 S :    0.116445
  17 C :   -0.074981
  18 C :   -0.033813
  19 C :   -0.020848
  20 C :   -0.139573
  21 H :   -0.010381
  22 C :    0.101152
  23 H :    0.015723
  24 H :    0.030131
  25 C :   -0.066474
  26 H :    0.015958
  27 H :    0.027674
  28 C :   -0.057414
  29 H :    0.016901
  30 H :    0.019798
  31 H :    0.043282
  32 H :    0.064814
  33 H :    0.050875
Sum of atomic charges:    0.0000000

LOEWDIN ATOMIC CHARGES
----------------------
   0 S :    0.401518
   1 C :   -0.208397
   2 C :   -0.063278
   3 C :   -0.062127
   4 C :   -0.191134
   5 H :    0.021321
   6 C :   -0.026700
   7 H :    0.023282
   8 H :    0.037207
   9 C :   -0.039682
  10 H :    0.024771
  11 H :    0.021387
  12 C :   -0.062753
  13 H :    0.027457
  14 H :    0.028765
  15 H :    0.014005
  16 S :    0.430354
  17 C :   -0.195868
  18 C :   -0.063804
  19 C :   -0.046285
  20 C :   -0.194213
  21 H :    0.015272
  22 C :   -0.031080
  23 H :    0.027326
  24 H :    0.038389
  25 C :   -0.046937
  26 H :    0.024918
  27 H :    0.028341
  28 C :   -0.078616
  29 H :    0.022660
  30 H :    0.033134
  31 H :    0.031116
  32 H :    0.034433
  33 H :    0.025218

  Mayer bond orders larger than 0.100000
B(  0-S ,  1-C ) :   1.1431 B(  0-S ,  4-C ) :   1.1406 B(  1-C ,  2-C ) :   1.5819
B(  1-C , 32-H ) :   0.9655 B(  2-C ,  3-C ) :   1.2635 B(  2-C ,  6-C ) :   1.0160
B(  3-C ,  4-C ) :   1.5470 B(  3-C ,  5-H ) :   1.0055 B(  4-C , 20-C ) :   1.0372
B(  6-C ,  7-H ) :   0.9312 B(  6-C ,  8-H ) :   0.9373 B(  6-C ,  9-C ) :   1.0781
B(  9-C , 10-H ) :   0.9456 B(  9-C , 11-H ) :   0.9543 B(  9-C , 12-C ) :   1.0854
B( 12-C , 13-H ) :   0.9693 B( 12-C , 14-H ) :   0.9727 B( 12-C , 15-H ) :   0.9715
B( 16-S , 17-C ) :   1.1883 B( 16-S , 20-C ) :   1.1579 B( 17-C , 18-C ) :   1.5451
B( 17-C , 20-C ) :   0.1093 B( 17-C , 33-H ) :   0.9750 B( 18-C , 19-C ) :   1.2788
B( 18-C , 21-H ) :   1.0031 B( 19-C , 20-C ) :   1.5318 B( 19-C , 22-C ) :   1.0661
B( 22-C , 23-H ) :   0.9292 B( 22-C , 24-H ) :   0.9215 B( 22-C , 25-C ) :   1.0625
B( 25-C , 26-H ) :   0.9493 B( 25-C , 27-H ) :   0.9485 B( 25-C , 28-C ) :   1.1125
B( 28-C , 29-H ) :   0.9645 B( 28-C , 30-H ) :   0.9635 B( 28-C , 31-H ) :   0.9708

Dispersion correction           -0.013025183
FINAL SINGLE POINT ENERGY     -1339.856332497593

DIPOLE MOMENT
-------------
                                X             Y             Z
Electronic contribution:      9.86754      -9.03873     -25.23009
Nuclear contribution   :    -10.46511       9.27962      25.65683
                        -----------------------------------------
Total Dipole Moment    :     -0.59757       0.24089       0.42675
                        -----------------------------------------
Magnitude (a.u.)       :      0.77281
Magnitude (Debye)      :      1.96433

Rotational constants in cm-1:     0.018611     0.007554     0.005886
Rotational constants in MHz :   557.934607   226.471603   176.455122

                             ****ORCA TERMINATED NORMALLY****
TOTAL RUN TIME: 0 days 0 hours 0 minutes 33 seconds 650 msec
