                         Program Version 4.2.1 -  RELEASE  -
|  1> ! wB97X-D3 SP def2-SVP
|  2> %pal
|  3> nprocs 16
|  4> end
|  5>
|  6> * xyz 0 1
|  7> S 	 3.5125 	 -24.1454 	 60.9654
|  8> C 	 2.23916 	 -25.3443 	 60.6422
|  9> C 	 2.74793 	 -26.636 	 60.6066
| 10> C 	 4.1962 	 -26.5763 	 60.7292
| 11> C 	 4.73465 	 -25.3534 	 60.9392
| 12> H 	 4.82205 	 -27.4751 	 60.6706
| 13> C 	 2.05289 	 -27.9396 	 60.29
| 14> H 	 2.63742 	 -28.5131 	 59.5737
| 15> H 	 1.2687 	 -27.6157 	 59.6665
| 16> C 	 1.49608 	 -28.8041 	 61.4717
| 17> H 	 2.34436 	 -29.2085 	 61.959
| 18> H 	 0.975722 	 -28.1017 	 62.1868
| 19> C 	 0.488283 	 -29.8801 	 61.0258
| 20> H 	 0.177147 	 -30.4652 	 61.8857
| 21> H 	 -0.351176 	 -29.4643 	 60.518
| 22> H 	 0.857947 	 -30.5065 	 60.2618
| 23> S 	 6.89962 	 -24.1594 	 59.7542
| 24> C 	 8.57413 	 -24.476 	 60.3427
| 25> C 	 8.48547 	 -25.3376 	 61.4494
| 26> C 	 7.18541 	 -25.6987 	 61.7526
| 27> C 	 6.17438 	 -25.0929 	 61.004
| 28> H 	 9.39983 	 -25.7714 	 61.8519
| 29> C 	 7.02452 	 -26.6595 	 62.8926
| 30> H 	 5.91351 	 -26.908 	 62.9659
| 31> H 	 7.35349 	 -26.1822 	 63.8551
| 32> C 	 7.72359 	 -28.0624 	 62.6627
| 33> H 	 7.57108 	 -28.5839 	 63.5991
| 34> H 	 8.80184 	 -27.9242 	 62.6069
| 35> C 	 7.15333 	 -28.9227 	 61.4787
| 36> H 	 7.79068 	 -29.7103 	 61.2791
| 37> H 	 7.22774 	 -28.4321 	 60.5587
| 38> H 	 6.25509 	 -29.4729 	 61.6878
| 39> H 	 1.17324 	 -25.2274 	 60.4531
| 40> H 	 9.53365 	 -24.1744 	 59.9147
| 41> *
| 42>
| 43>                          ****END OF INPUT****

CARTESIAN COORDINATES (ANGSTROEM)
---------------------------------
  S      3.512500  -24.145400   60.965400
  C      2.239160  -25.344300   60.642200
  C      2.747930  -26.636000   60.606600
  C      4.196200  -26.576300   60.729200
  C      4.734650  -25.353400   60.939200
  H      4.822050  -27.475100   60.670600
  C      2.052890  -27.939600   60.290000
  H      2.637420  -28.513100   59.573700
  H      1.268700  -27.615700   59.666500
  C      1.496080  -28.804100   61.471700
  H      2.344360  -29.208500   61.959000
  H      0.975722  -28.101700   62.186800
  C      0.488283  -29.880100   61.025800
  H      0.177147  -30.465200   61.885700
  H     -0.351176  -29.464300   60.518000
  H      0.857947  -30.506500   60.261800
  S      6.899620  -24.159400   59.754200
  C      8.574130  -24.476000   60.342700
  C      8.485470  -25.337600   61.449400
  C      7.185410  -25.698700   61.752600
  C      6.174380  -25.092900   61.004000
  H      9.399830  -25.771400   61.851900
  C      7.024520  -26.659500   62.892600
  H      5.913510  -26.908000   62.965900
  H      7.353490  -26.182200   63.855100
  C      7.723590  -28.062400   62.662700
  H      7.571080  -28.583900   63.599100
  H      8.801840  -27.924200   62.606900
  C      7.153330  -28.922700   61.478700
  H      7.790680  -29.710300   61.279100
  H      7.227740  -28.432100   60.558700
  H      6.255090  -29.472900   61.687800
  H      1.173240  -25.227400   60.453100
  H      9.533650  -24.174400   59.914700

 Total Charge           Charge          ....    0
 Multiplicity           Mult            ....    1
 Number of Electrons    NEL             ....  134
 Basis Dimension        Dim             ....  322

ORBITAL ENERGIES
----------------

  NO   OCC          E(Eh)            E(eV)
   0   2.0000     -88.967952     -2420.9411
   1   2.0000     -88.966471     -2420.9008
   2   2.0000     -10.325697      -280.9765
   3   2.0000     -10.324243      -280.9369
   4   2.0000     -10.323845      -280.9261
   5   2.0000     -10.317419      -280.7512
   6   2.0000     -10.301441      -280.3165
   7   2.0000     -10.295131      -280.1448
   8   2.0000     -10.294716      -280.1335
   9   2.0000     -10.292717      -280.0791
  10   2.0000     -10.292508      -280.0734
  11   2.0000     -10.291043      -280.0335
  12   2.0000     -10.290106      -280.0080
  13   2.0000     -10.288036      -279.9517
  14   2.0000     -10.275223      -279.6030
  15   2.0000     -10.270751      -279.4814
  16   2.0000      -8.082519      -219.9365
  17   2.0000      -8.080605      -219.8845
  18   2.0000      -6.041266      -164.3912
  19   2.0000      -6.039156      -164.3338
  20   2.0000      -6.036992      -164.2749
  21   2.0000      -6.035020      -164.2212
  22   2.0000      -6.033087      -164.1686
  23   2.0000      -6.031512      -164.1258
  24   2.0000      -1.007604       -27.4183
  25   2.0000      -0.983466       -26.7615
  26   2.0000      -0.910289       -24.7702
  27   2.0000      -0.900288       -24.4981
  28   2.0000      -0.869774       -23.6677
  29   2.0000      -0.848209       -23.0809
  30   2.0000      -0.847488       -23.0613
  31   2.0000      -0.814143       -22.1540
  32   2.0000      -0.784596       -21.3499
  33   2.0000      -0.775364       -21.0987
  34   2.0000      -0.711825       -19.3697
  35   2.0000      -0.706750       -19.2316
  36   2.0000      -0.695118       -18.9151
  37   2.0000      -0.660078       -17.9616
  38   2.0000      -0.637206       -17.3393
  39   2.0000      -0.617132       -16.7930
  40   2.0000      -0.588616       -16.0171
  41   2.0000      -0.571755       -15.5582
  42   2.0000      -0.559068       -15.2130
  43   2.0000      -0.547705       -14.9038
  44   2.0000      -0.542573       -14.7642
  45   2.0000      -0.532780       -14.4977
  46   2.0000      -0.522982       -14.2311
  47   2.0000      -0.508088       -13.8258
  48   2.0000      -0.503466       -13.7000
  49   2.0000      -0.497301       -13.5322
  50   2.0000      -0.487669       -13.2701
  51   2.0000      -0.478852       -13.0302
  52   2.0000      -0.469201       -12.7676
  53   2.0000      -0.466200       -12.6860
  54   2.0000      -0.460697       -12.5362
  55   2.0000      -0.445232       -12.1154
  56   2.0000      -0.441717       -12.0197
  57   2.0000      -0.441267       -12.0075
  58   2.0000      -0.435544       -11.8518
  59   2.0000      -0.426044       -11.5933
  60   2.0000      -0.422094       -11.4858
  61   2.0000      -0.415876       -11.3165
  62   2.0000      -0.411924       -11.2090
  63   2.0000      -0.344276        -9.3682
  64   2.0000      -0.329114        -8.9556
  65   2.0000      -0.327114        -8.9012
  66   2.0000      -0.296963        -8.0808
  67   0.0000       0.034283         0.9329
  68   0.0000       0.067928         1.8484
  69   0.0000       0.114317         3.1107
  70   0.0000       0.123323         3.3558
  71   0.0000       0.128399         3.4939

MULLIKEN ATOMIC CHARGES
-----------------------
   0 S :    0.121020
   1 C :   -0.113777
   2 C :   -0.108296
   3 C :    0.029777
   4 C :   -0.151837
   5 H :   -0.001650
   6 C :    0.064398
   7 H :    0.024526
   8 H :   -0.004503
   9 C :   -0.054833
  10 H :    0.024209
  11 H :    0.038951
  12 C :   -0.015240
  13 H :    0.043006
  14 H :    0.018177
  15 H :    0.014989
  16 S :    0.106587
  17 C :   -0.107772
  18 C :   -0.040437
  19 C :   -0.032569
  20 C :   -0.124035
  21 H :    0.026011
  22 C :    0.017993
  23 H :    0.030999
  24 H :    0.050781
  25 C :   -0.091327
  26 H :    0.027195
  27 H :    0.025862
  28 C :    0.003884
  29 H :    0.000781
  30 H :    0.035801
  31 H :    0.035797
  32 H :    0.043288
  33 H :    0.062246
Sum of atomic charges:   -0.0000000

LOEWDIN ATOMIC CHARGES
----------------------
   0 S :    0.409685
   1 C :   -0.193375
   2 C :   -0.059604
   3 C :   -0.061867
   4 C :   -0.211265
   5 H :    0.030851
   6 C :   -0.035638
   7 H :    0.031653
   8 H :    0.022924
   9 C :   -0.030462
  10 H :    0.017509
  11 H :    0.032086
  12 C :   -0.061215
  13 H :    0.030741
  14 H :    0.022903
  15 H :    0.019504
  16 S :    0.410891
  17 C :   -0.176401
  18 C :   -0.070824
  19 C :   -0.071386
  20 C :   -0.209496
  21 H :    0.034163
  22 C :   -0.038820
  23 H :    0.033507
  24 H :    0.037864
  25 C :   -0.033223
  26 H :    0.024320
  27 H :    0.017646
  28 C :   -0.064893
  29 H :    0.023477
  30 H :    0.024254
  31 H :    0.028227
  32 H :    0.032028
  33 H :    0.034237

  Mayer bond orders larger than 0.100000
B(  0-S ,  1-C ) :   1.1278 B(  0-S ,  4-C ) :   1.1366 B(  1-C ,  2-C ) :   1.6351
B(  1-C , 32-H ) :   0.9612 B(  2-C ,  3-C ) :   1.2296 B(  2-C ,  6-C ) :   1.0193
B(  3-C ,  4-C ) :   1.5995 B(  3-C ,  5-H ) :   0.9883 B(  4-C , 20-C ) :   1.0058
B(  6-C ,  7-H ) :   0.9420 B(  6-C ,  8-H ) :   0.9342 B(  6-C ,  9-C ) :   1.0467
B(  9-C , 10-H ) :   0.9579 B(  9-C , 11-H ) :   0.9588 B(  9-C , 12-C ) :   1.0805
B( 12-C , 13-H ) :   0.9744 B( 12-C , 14-H ) :   0.9730 B( 12-C , 15-H ) :   0.9731
B( 16-S , 17-C ) :   1.1651 B( 16-S , 20-C ) :   1.1568 B( 17-C , 18-C ) :   1.5710
B( 17-C , 20-C ) :   0.1120 B( 17-C , 33-H ) :   0.9672 B( 18-C , 19-C ) :   1.2810
B( 18-C , 21-H ) :   0.9886 B( 19-C , 20-C ) :   1.5580 B( 19-C , 22-C ) :   1.0462
B( 22-C , 23-H ) :   0.9352 B( 22-C , 24-H ) :   0.9427 B( 22-C , 25-C ) :   1.0617
B( 25-C , 26-H ) :   0.9568 B( 25-C , 27-H ) :   0.9604 B( 25-C , 28-C ) :   1.0790
B( 28-C , 29-H ) :   0.9588 B( 28-C , 30-H ) :   0.9658 B( 28-C , 31-H ) :   0.9689

Dispersion correction           -0.014754642
FINAL SINGLE POINT ENERGY     -1339.866375418130

DIPOLE MOMENT
-------------
                                X             Y             Z
Electronic contribution:      6.65001      29.56593      -6.62494
Nuclear contribution   :     -6.56088     -30.47073       6.66560
                        -----------------------------------------
Total Dipole Moment    :      0.08914      -0.90480       0.04066
                        -----------------------------------------
Magnitude (a.u.)       :      0.91009
Magnitude (Debye)      :      2.31325

Rotational constants in cm-1:     0.019477     0.008680     0.006565
Rotational constants in MHz :   583.891519   260.228447   196.805144

                             ****ORCA TERMINATED NORMALLY****
TOTAL RUN TIME: 0 days 0 hours 0 minutes 35 seconds 827 msec
