                         Program Version 4.2.1 -  RELEASE  -
|  1> ! wB97X-D3 SP def2-SVP
|  2> %pal
|  3> nprocs 16
|  4> end
|  5>
|  6> * xyz 0 1
|  7> S 	 12.796 	 33.1769 	 59.3909
|  8> C 	 14.1277 	 32.1896 	 59.9314
|  9> C 	 14.5727 	 32.6393 	 61.1855
| 10> C 	 13.8467 	 33.7257 	 61.7088
| 11> C 	 13.013 	 34.3508 	 60.7741
| 12> H 	 13.8801 	 34.1414 	 62.6791
| 13> C 	 15.5556 	 31.8672 	 62.0031
| 14> H 	 16.5183 	 32.4232 	 62.0766
| 15> H 	 15.8718 	 31.0101 	 61.4182
| 16> C 	 14.9795 	 31.37 	 63.3302
| 17> H 	 14.821 	 32.2898 	 63.953
| 18> H 	 14.0202 	 30.9239 	 63.1648
| 19> C 	 15.9281 	 30.3298 	 63.9216
| 20> H 	 15.4549 	 29.7392 	 64.6672
| 21> H 	 16.2352 	 29.5887 	 63.1759
| 22> H 	 16.7771 	 30.7515 	 64.4746
| 23> S 	 10.5416 	 35.5966 	 60.6677
| 24> C 	 10.4297 	 37.2289 	 61.0139
| 25> C 	 11.6693 	 37.7815 	 61.2901
| 26> C 	 12.7659 	 36.9017 	 61.346
| 27> C 	 12.3058 	 35.6535 	 60.8578
| 28> H 	 11.8259 	 38.8528 	 61.4003
| 29> C 	 14.2383 	 37.3232 	 61.6949
| 30> H 	 14.8827 	 36.5037 	 61.5232
| 31> H 	 14.2769 	 37.4799 	 62.7194
| 32> C 	 14.73 	 38.5963 	 61.005
| 33> H 	 15.7889 	 38.7309 	 61.1007
| 34> H 	 14.1631 	 39.4162 	 61.491
| 35> C 	 14.5793 	 38.6633 	 59.4274
| 36> H 	 14.9167 	 37.7448 	 58.9474
| 37> H 	 15.0624 	 39.5506 	 58.9676
| 38> H 	 13.5094 	 38.855 	 59.3115
| 39> H 	 14.501 	 31.3375 	 59.463
| 40> H 	 9.50181 	 37.7167 	 60.9982
| 41> *
| 42>
| 43>                          ****END OF INPUT****

CARTESIAN COORDINATES (ANGSTROEM)
---------------------------------
  S     12.796000   33.176900   59.390900
  C     14.127700   32.189600   59.931400
  C     14.572700   32.639300   61.185500
  C     13.846700   33.725700   61.708800
  C     13.013000   34.350800   60.774100
  H     13.880100   34.141400   62.679100
  C     15.555600   31.867200   62.003100
  H     16.518300   32.423200   62.076600
  H     15.871800   31.010100   61.418200
  C     14.979500   31.370000   63.330200
  H     14.821000   32.289800   63.953000
  H     14.020200   30.923900   63.164800
  C     15.928100   30.329800   63.921600
  H     15.454900   29.739200   64.667200
  H     16.235200   29.588700   63.175900
  H     16.777100   30.751500   64.474600
  S     10.541600   35.596600   60.667700
  C     10.429700   37.228900   61.013900
  C     11.669300   37.781500   61.290100
  C     12.765900   36.901700   61.346000
  C     12.305800   35.653500   60.857800
  H     11.825900   38.852800   61.400300
  C     14.238300   37.323200   61.694900
  H     14.882700   36.503700   61.523200
  H     14.276900   37.479900   62.719400
  C     14.730000   38.596300   61.005000
  H     15.788900   38.730900   61.100700
  H     14.163100   39.416200   61.491000
  C     14.579300   38.663300   59.427400
  H     14.916700   37.744800   58.947400
  H     15.062400   39.550600   58.967600
  H     13.509400   38.855000   59.311500
  H     14.501000   31.337500   59.463000
  H      9.501810   37.716700   60.998200

 Total Charge           Charge          ....    0
 Multiplicity           Mult            ....    1
 Number of Electrons    NEL             ....  134
 Basis Dimension        Dim             ....  322

ORBITAL ENERGIES
----------------

  NO   OCC          E(Eh)            E(eV)
   0   2.0000     -88.967815     -2420.9373
   1   2.0000     -88.962055     -2420.7806
   2   2.0000     -10.335012      -281.2300
   3   2.0000     -10.332276      -281.1555
   4   2.0000     -10.311763      -280.5973
   5   2.0000     -10.311548      -280.5915
   6   2.0000     -10.309823      -280.5446
   7   2.0000     -10.295890      -280.1654
   8   2.0000     -10.292616      -280.0763
   9   2.0000     -10.292039      -280.0606
  10   2.0000     -10.290654      -280.0229
  11   2.0000     -10.290231      -280.0114
  12   2.0000     -10.288171      -279.9554
  13   2.0000     -10.286344      -279.9057
  14   2.0000     -10.278002      -279.6786
  15   2.0000     -10.276215      -279.6300
  16   2.0000      -8.083783      -219.9709
  17   2.0000      -8.075731      -219.7518
  18   2.0000      -6.041962      -164.4102
  19   2.0000      -6.038150      -164.3064
  20   2.0000      -6.034778      -164.2147
  21   2.0000      -6.034287      -164.2013
  22   2.0000      -6.030427      -164.0963
  23   2.0000      -6.026471      -163.9886
  24   2.0000      -1.005461       -27.3600
  25   2.0000      -0.981804       -26.7162
  26   2.0000      -0.911341       -24.7989
  27   2.0000      -0.909395       -24.7459
  28   2.0000      -0.864323       -23.5194
  29   2.0000      -0.850224       -23.1358
  30   2.0000      -0.843797       -22.9609
  31   2.0000      -0.811518       -22.0825
  32   2.0000      -0.791246       -21.5309
  33   2.0000      -0.766309       -20.8523
  34   2.0000      -0.709668       -19.3111
  35   2.0000      -0.697257       -18.9733
  36   2.0000      -0.693590       -18.8735
  37   2.0000      -0.655270       -17.8308
  38   2.0000      -0.644699       -17.5432
  39   2.0000      -0.620855       -16.8943
  40   2.0000      -0.606627       -16.5072
  41   2.0000      -0.568457       -15.4685
  42   2.0000      -0.559608       -15.2277
  43   2.0000      -0.557092       -15.1592
  44   2.0000      -0.542959       -14.7747
  45   2.0000      -0.522651       -14.2220
  46   2.0000      -0.515166       -14.0184
  47   2.0000      -0.511237       -13.9115
  48   2.0000      -0.501896       -13.6573
  49   2.0000      -0.501602       -13.6493
  50   2.0000      -0.490392       -13.3442
  51   2.0000      -0.479003       -13.0343
  52   2.0000      -0.474522       -12.9124
  53   2.0000      -0.468327       -12.7438
  54   2.0000      -0.454365       -12.3639
  55   2.0000      -0.449967       -12.2442
  56   2.0000      -0.444907       -12.1065
  57   2.0000      -0.439833       -11.9685
  58   2.0000      -0.434140       -11.8136
  59   2.0000      -0.427717       -11.6388
  60   2.0000      -0.422585       -11.4991
  61   2.0000      -0.409647       -11.1471
  62   2.0000      -0.406370       -11.0579
  63   2.0000      -0.343987        -9.3604
  64   2.0000      -0.337282        -9.1779
  65   2.0000      -0.324863        -8.8400
  66   2.0000      -0.284131        -7.7316
  67   0.0000       0.024571         0.6686
  68   0.0000       0.067795         1.8448
  69   0.0000       0.112621         3.0646
  70   0.0000       0.125999         3.4286
  71   0.0000       0.132481         3.6050

MULLIKEN ATOMIC CHARGES
-----------------------
   0 S :    0.088637
   1 C :   -0.076374
   2 C :   -0.101035
   3 C :    0.040640
   4 C :   -0.156656
   5 H :    0.003838
   6 C :    0.060331
   7 H :    0.037213
   8 H :   -0.005902
   9 C :   -0.084824
  10 H :    0.042722
  11 H :    0.033711
  12 C :   -0.026069
  13 H :    0.016477
  14 H :    0.030998
  15 H :    0.035343
  16 S :    0.123243
  17 C :   -0.064691
  18 C :   -0.047894
  19 C :   -0.054559
  20 C :   -0.181886
  21 H :    0.014731
  22 C :    0.164074
  23 H :    0.013165
  24 H :    0.020936
  25 C :   -0.119716
  26 H :    0.033631
  27 H :    0.034324
  28 C :   -0.061287
  29 H :    0.049342
  30 H :    0.039352
  31 H :    0.030437
  32 H :    0.025617
  33 H :    0.042133
Sum of atomic charges:   -0.0000000

LOEWDIN ATOMIC CHARGES
----------------------
   0 S :    0.371150
   1 C :   -0.190651
   2 C :   -0.066694
   3 C :   -0.062064
   4 C :   -0.168321
   5 H :    0.025537
   6 C :   -0.037936
   7 H :    0.033781
   8 H :    0.021708
   9 C :   -0.036845
  10 H :    0.029352
  11 H :    0.025178
  12 C :   -0.065893
  13 H :    0.020785
  14 H :    0.028069
  15 H :    0.029182
  16 S :    0.439122
  17 C :   -0.199356
  18 C :   -0.078987
  19 C :   -0.042877
  20 C :   -0.197563
  21 H :    0.027658
  22 C :   -0.015794
  23 H :    0.025235
  24 H :    0.027998
  25 C :   -0.039893
  26 H :    0.023693
  27 H :    0.023651
  28 C :   -0.067984
  29 H :    0.028553
  30 H :    0.028956
  31 H :    0.024658
  32 H :    0.016727
  33 H :    0.019865

  Mayer bond orders larger than 0.100000
B(  0-S ,  1-C ) :   1.1351 B(  0-S ,  4-C ) :   1.1424 B(  1-C ,  2-C ) :   1.5914
B(  1-C ,  4-C ) :   0.1082 B(  1-C , 32-H ) :   0.9749 B(  2-C ,  3-C ) :   1.2379
B(  2-C ,  6-C ) :   1.0405 B(  3-C ,  4-C ) :   1.5561 B(  3-C ,  5-H ) :   1.0000
B(  4-C , 20-C ) :   1.0331 B(  6-C ,  7-H ) :   0.9304 B(  6-C ,  8-H ) :   0.9394
B(  6-C ,  9-C ) :   1.0569 B(  9-C , 10-H ) :   0.9505 B(  9-C , 11-H ) :   0.9581
B(  9-C , 12-C ) :   1.0876 B( 12-C , 13-H ) :   0.9729 B( 12-C , 14-H ) :   0.9729
B( 12-C , 15-H ) :   0.9738 B( 16-S , 17-C ) :   1.1850 B( 16-S , 20-C ) :   1.1711
B( 17-C , 18-C ) :   1.5560 B( 17-C , 20-C ) :   0.1051 B( 17-C , 33-H ) :   0.9779
B( 18-C , 19-C ) :   1.2808 B( 18-C , 21-H ) :   0.9854 B( 19-C , 20-C ) :   1.5581
B( 19-C , 22-C ) :   1.0175 B( 22-C , 23-H ) :   0.9300 B( 22-C , 24-H ) :   0.9288
B( 22-C , 25-C ) :   1.0742 B( 25-C , 26-H ) :   0.9591 B( 25-C , 27-H ) :   0.9566
B( 25-C , 28-C ) :   1.0670 B( 28-C , 29-H ) :   0.9770 B( 28-C , 30-H ) :   0.9768
B( 28-C , 31-H ) :   0.9744

Dispersion correction           -0.014096865
FINAL SINGLE POINT ENERGY     -1339.865306513427

DIPOLE MOMENT
-------------
                                X             Y             Z
Electronic contribution:    -21.12819      -1.06443     -11.07943
Nuclear contribution   :     21.52146       1.22874      11.58622
                        -----------------------------------------
Total Dipole Moment    :      0.39327       0.16431       0.50678
                        -----------------------------------------
Magnitude (a.u.)       :      0.66219
Magnitude (Debye)      :      1.68314

Rotational constants in cm-1:     0.019773     0.007629     0.006700
Rotational constants in MHz :   592.768345   228.712434   200.858375

                             ****ORCA TERMINATED NORMALLY****
TOTAL RUN TIME: 0 days 0 hours 0 minutes 34 seconds 365 msec
