                         Program Version 4.2.1 -  RELEASE  -
|  1> ! wB97X-D3 SP def2-SVP
|  2> %pal
|  3> nprocs 16
|  4> end
|  5>
|  6> * xyz 0 1
|  7> S 	 5.30872 	 -13.2514 	 62.1791
|  8> C 	 5.83582 	 -13.4265 	 63.8433
|  9> C 	 5.28357 	 -12.4288 	 64.637
| 10> C 	 4.41678 	 -11.516 	 63.9242
| 11> C 	 4.26141 	 -11.9108 	 62.5524
| 12> H 	 3.95838 	 -10.6262 	 64.3056
| 13> C 	 5.65885 	 -12.1903 	 66.0592
| 14> H 	 5.14168 	 -11.3022 	 66.391
| 15> H 	 6.73307 	 -11.9513 	 65.9185
| 16> C 	 5.313 	 -13.2875 	 67.0044
| 17> H 	 5.57478 	 -14.229 	 66.7136
| 18> H 	 5.85961 	 -12.9479 	 67.9383
| 19> C 	 3.7894 	 -13.2722 	 67.1905
| 20> H 	 3.69459 	 -13.8859 	 68.1395
| 21> H 	 3.27819 	 -12.3389 	 67.3415
| 22> H 	 3.28644 	 -13.8593 	 66.3496
| 23> S 	 4.26945 	 -10.6882 	 60.0696
| 24> C 	 2.72378 	 -10.3558 	 59.322
| 25> C 	 1.69312 	 -10.7485 	 60.1662
| 26> C 	 2.1051 	 -11.4704 	 61.2966
| 27> C 	 3.43494 	 -11.4078 	 61.4794
| 28> H 	 0.693156 	 -10.5952 	 59.7885
| 29> C 	 1.16419 	 -12.072 	 62.2415
| 30> H 	 0.216605 	 -12.1049 	 61.7419
| 31> H 	 0.975848 	 -11.2356 	 62.9258
| 32> C 	 1.45601 	 -13.4607 	 62.8862
| 33> H 	 2.3725 	 -13.3939 	 63.4875
| 34> H 	 1.76668 	 -14.1174 	 61.9992
| 35> C 	 0.153475 	 -14.0734 	 63.5527
| 36> H 	 0.144272 	 -15.0615 	 64.0753
| 37> H 	 -0.660728 	 -14.1908 	 62.8139
| 38> H 	 -0.358227 	 -13.3248 	 64.1343
| 39> H 	 6.59448 	 -14.1296 	 64.1407
| 40> H 	 2.50705 	 -9.74346 	 58.5001
| 41> *
| 42>
| 43>                          ****END OF INPUT****

CARTESIAN COORDINATES (ANGSTROEM)
---------------------------------
  S      5.308720  -13.251400   62.179100
  C      5.835820  -13.426500   63.843300
  C      5.283570  -12.428800   64.637000
  C      4.416780  -11.516000   63.924200
  C      4.261410  -11.910800   62.552400
  H      3.958380  -10.626200   64.305600
  C      5.658850  -12.190300   66.059200
  H      5.141680  -11.302200   66.391000
  H      6.733070  -11.951300   65.918500
  C      5.313000  -13.287500   67.004400
  H      5.574780  -14.229000   66.713600
  H      5.859610  -12.947900   67.938300
  C      3.789400  -13.272200   67.190500
  H      3.694590  -13.885900   68.139500
  H      3.278190  -12.338900   67.341500
  H      3.286440  -13.859300   66.349600
  S      4.269450  -10.688200   60.069600
  C      2.723780  -10.355800   59.322000
  C      1.693120  -10.748500   60.166200
  C      2.105100  -11.470400   61.296600
  C      3.434940  -11.407800   61.479400
  H      0.693156  -10.595200   59.788500
  C      1.164190  -12.072000   62.241500
  H      0.216605  -12.104900   61.741900
  H      0.975848  -11.235600   62.925800
  C      1.456010  -13.460700   62.886200
  H      2.372500  -13.393900   63.487500
  H      1.766680  -14.117400   61.999200
  C      0.153475  -14.073400   63.552700
  H      0.144272  -15.061500   64.075300
  H     -0.660728  -14.190800   62.813900
  H     -0.358227  -13.324800   64.134300
  H      6.594480  -14.129600   64.140700
  H      2.507050   -9.743460   58.500100

 Total Charge           Charge          ....    0
 Multiplicity           Mult            ....    1
 Number of Electrons    NEL             ....  134
 Basis Dimension        Dim             ....  322

ORBITAL ENERGIES
----------------

  NO   OCC          E(Eh)            E(eV)
   0   2.0000     -88.965104     -2420.8635
   1   2.0000     -88.963323     -2420.8151
   2   2.0000     -10.331391      -281.1314
   3   2.0000     -10.318828      -280.7896
   4   2.0000     -10.313351      -280.6405
   5   2.0000     -10.311774      -280.5976
   6   2.0000     -10.300582      -280.2931
   7   2.0000     -10.300329      -280.2862
   8   2.0000     -10.296673      -280.1867
   9   2.0000     -10.294730      -280.1338
  10   2.0000     -10.289368      -279.9879
  11   2.0000     -10.286348      -279.9058
  12   2.0000     -10.284179      -279.8467
  13   2.0000     -10.284037      -279.8429
  14   2.0000     -10.283565      -279.8300
  15   2.0000     -10.283400      -279.8255
  16   2.0000      -8.079584      -219.8567
  17   2.0000      -8.077587      -219.8023
  18   2.0000      -6.037957      -164.3012
  19   2.0000      -6.036129      -164.2514
  20   2.0000      -6.033948      -164.1921
  21   2.0000      -6.032212      -164.1448
  22   2.0000      -6.030672      -164.1029
  23   2.0000      -6.028280      -164.0379
  24   2.0000      -1.006935       -27.4001
  25   2.0000      -0.982227       -26.7278
  26   2.0000      -0.922765       -25.1097
  27   2.0000      -0.905970       -24.6527
  28   2.0000      -0.867684       -23.6109
  29   2.0000      -0.847806       -23.0700
  30   2.0000      -0.843336       -22.9483
  31   2.0000      -0.810501       -22.0548
  32   2.0000      -0.781039       -21.2531
  33   2.0000      -0.770276       -20.9603
  34   2.0000      -0.716248       -19.4901
  35   2.0000      -0.705149       -19.1881
  36   2.0000      -0.694592       -18.9008
  37   2.0000      -0.664370       -18.0784
  38   2.0000      -0.642879       -17.4936
  39   2.0000      -0.608034       -16.5454
  40   2.0000      -0.590553       -16.0698
  41   2.0000      -0.581206       -15.8154
  42   2.0000      -0.556853       -15.1528
  43   2.0000      -0.555571       -15.1178
  44   2.0000      -0.534325       -14.5397
  45   2.0000      -0.525194       -14.2912
  46   2.0000      -0.519559       -14.1379
  47   2.0000      -0.515448       -14.0261
  48   2.0000      -0.502436       -13.6720
  49   2.0000      -0.492750       -13.4084
  50   2.0000      -0.487861       -13.2754
  51   2.0000      -0.481882       -13.1127
  52   2.0000      -0.471275       -12.8240
  53   2.0000      -0.467895       -12.7321
  54   2.0000      -0.452935       -12.3250
  55   2.0000      -0.448901       -12.2152
  56   2.0000      -0.445999       -12.1363
  57   2.0000      -0.436799       -11.8859
  58   2.0000      -0.431069       -11.7300
  59   2.0000      -0.424034       -11.5385
  60   2.0000      -0.416920       -11.3450
  61   2.0000      -0.409619       -11.1463
  62   2.0000      -0.407161       -11.0794
  63   2.0000      -0.333355        -9.0710
  64   2.0000      -0.329377        -8.9628
  65   2.0000      -0.325502        -8.8574
  66   2.0000      -0.296729        -8.0744
  67   0.0000       0.033369         0.9080
  68   0.0000       0.057759         1.5717
  69   0.0000       0.113055         3.0764
  70   0.0000       0.121895         3.3169
  71   0.0000       0.128690         3.5018

MULLIKEN ATOMIC CHARGES
-----------------------
   0 S :    0.122113
   1 C :   -0.131010
   2 C :   -0.120866
   3 C :    0.065009
   4 C :   -0.209102
   5 H :    0.008338
   6 C :    0.064032
   7 H :    0.008179
   8 H :    0.046736
   9 C :   -0.019606
  10 H :    0.011281
  11 H :    0.039557
  12 C :   -0.104615
  13 H :    0.038351
  14 H :    0.034330
  15 H :    0.063134
  16 S :    0.106348
  17 C :   -0.062576
  18 C :   -0.054803
  19 C :   -0.011637
  20 C :   -0.176496
  21 H :    0.014453
  22 C :    0.081695
  23 H :   -0.006409
  24 H :    0.034769
  25 C :   -0.079806
  26 H :    0.064523
  27 H :    0.043894
  28 C :   -0.043709
  29 H :    0.053621
  30 H :    0.015543
  31 H :    0.018275
  32 H :    0.047611
  33 H :    0.038844
Sum of atomic charges:   -0.0000000

LOEWDIN ATOMIC CHARGES
----------------------
   0 S :    0.420566
   1 C :   -0.208239
   2 C :   -0.062527
   3 C :   -0.060344
   4 C :   -0.196776
   5 H :    0.028851
   6 C :   -0.038619
   7 H :    0.025613
   8 H :    0.037772
   9 C :   -0.031844
  10 H :    0.011173
  11 H :    0.033623
  12 C :   -0.069695
  13 H :    0.033702
  14 H :    0.019207
  15 H :    0.037795
  16 S :    0.387958
  17 C :   -0.174699
  18 C :   -0.069517
  19 C :   -0.057462
  20 C :   -0.199385
  21 H :    0.029674
  22 C :   -0.036938
  23 H :    0.025938
  24 H :    0.039612
  25 C :   -0.038922
  26 H :    0.027652
  27 H :    0.034848
  28 C :   -0.080153
  29 H :    0.034385
  30 H :    0.027599
  31 H :    0.021967
  32 H :    0.025470
  33 H :    0.021717

  Mayer bond orders larger than 0.100000
B(  0-S ,  1-C ) :   1.1412 B(  0-S ,  4-C ) :   1.1890 B(  1-C ,  2-C ) :   1.5812
B(  1-C ,  4-C ) :   0.1088 B(  1-C , 32-H ) :   0.9744 B(  2-C ,  3-C ) :   1.2489
B(  2-C ,  6-C ) :   1.0060 B(  3-C ,  4-C ) :   1.5335 B(  3-C ,  5-H ) :   1.0003
B(  4-C , 20-C ) :   1.0257 B(  6-C ,  7-H ) :   0.9443 B(  6-C ,  8-H ) :   0.9365
B(  6-C ,  9-C ) :   1.0719 B(  9-C , 10-H ) :   0.9580 B(  9-C , 11-H ) :   0.9570
B(  9-C , 12-C ) :   1.0636 B( 12-C , 13-H ) :   0.9743 B( 12-C , 14-H ) :   0.9788
B( 12-C , 15-H ) :   0.9715 B( 16-S , 17-C ) :   1.1504 B( 16-S , 20-C ) :   1.1200
B( 17-C , 18-C ) :   1.6367 B( 17-C , 33-H ) :   0.9662 B( 18-C , 19-C ) :   1.2244
B( 18-C , 21-H ) :   0.9852 B( 19-C , 20-C ) :   1.6171 B( 19-C , 22-C ) :   1.0454
B( 22-C , 23-H ) :   0.9222 B( 22-C , 24-H ) :   0.9127 B( 22-C , 25-C ) :   1.0360
B( 25-C , 26-H ) :   0.9527 B( 25-C , 27-H ) :   0.9618 B( 25-C , 28-C ) :   1.0605
B( 28-C , 29-H ) :   0.9780 B( 28-C , 30-H ) :   0.9693 B( 28-C , 31-H ) :   0.9736

Dispersion correction           -0.015455760
FINAL SINGLE POINT ENERGY     -1339.856725330846

DIPOLE MOMENT
-------------
                                X             Y             Z
Electronic contribution:     13.65112       8.63712     -24.10197
Nuclear contribution   :    -14.01645      -8.55787      24.59973
                        -----------------------------------------
Total Dipole Moment    :     -0.36533       0.07925       0.49776
                        -----------------------------------------
Magnitude (a.u.)       :      0.62251
Magnitude (Debye)      :      1.58228

Rotational constants in cm-1:     0.020305     0.009434     0.007371
Rotational constants in MHz :   608.714097   282.819121   220.986553

                             ****ORCA TERMINATED NORMALLY****
TOTAL RUN TIME: 0 days 0 hours 0 minutes 32 seconds 237 msec
