                         Program Version 4.2.1 -  RELEASE  -
|  1> ! wB97X-D3 SP def2-SVP
|  2> %pal
|  3> nprocs 16
|  4> end
|  5>
|  6> * xyz 0 1
|  7> S 	 -11.7676 	 41.3805 	 34.9211
|  8> C 	 -12.5884 	 40.5799 	 36.218
|  9> C 	 -13.8397 	 40.0357 	 35.8702
| 10> C 	 -13.9927 	 40.0971 	 34.4296
| 11> C 	 -13.0226 	 40.8177 	 33.7704
| 12> H 	 -14.8881 	 39.7639 	 33.9548
| 13> C 	 -14.7359 	 39.2582 	 36.7976
| 14> H 	 -14.1875 	 39.0714 	 37.6901
| 15> H 	 -14.9425 	 38.2273 	 36.4501
| 16> C 	 -16.184 	 39.9487 	 37.1146
| 17> H 	 -16.6559 	 39.8956 	 36.2134
| 18> H 	 -16.7257 	 39.458 	 37.9554
| 19> C 	 -16.2506 	 41.4176 	 37.496
| 20> H 	 -17.2137 	 41.8001 	 37.5624
| 21> H 	 -15.8219 	 41.5865 	 38.4898
| 22> H 	 -15.8072 	 42.0785 	 36.774
| 23> S 	 -13.2115 	 42.7971 	 31.9741
| 24> C 	 -13.2728 	 42.46 	 30.3346
| 25> C 	 -13.1989 	 41.1457 	 30.0658
| 26> C 	 -13.1737 	 40.377 	 31.2575
| 27> C 	 -13.0836 	 41.1397 	 32.4187
| 28> H 	 -13.0976 	 40.7037 	 29.0798
| 29> C 	 -13.2813 	 38.8352 	 31.1591
| 30> H 	 -14.0107 	 38.7225 	 30.3491
| 31> H 	 -13.6222 	 38.3376 	 32.1026
| 32> C 	 -12.0389 	 38.155 	 30.6415
| 33> H 	 -11.4346 	 38.0719 	 31.5764
| 34> H 	 -11.5655 	 38.7682 	 29.8339
| 35> C 	 -12.2755 	 36.6971 	 30.1758
| 36> H 	 -11.5226 	 36.2456 	 29.5127
| 37> H 	 -13.1327 	 36.748 	 29.4993
| 38> H 	 -12.463 	 35.9393 	 30.9724
| 39> H 	 -12.2294 	 40.5239 	 37.2368
| 40> H 	 -13.4295 	 43.2589 	 29.6188
| 41> *
| 42>
| 43>                          ****END OF INPUT****

CARTESIAN COORDINATES (ANGSTROEM)
---------------------------------
  S    -11.767600   41.380500   34.921100
  C    -12.588400   40.579900   36.218000
  C    -13.839700   40.035700   35.870200
  C    -13.992700   40.097100   34.429600
  C    -13.022600   40.817700   33.770400
  H    -14.888100   39.763900   33.954800
  C    -14.735900   39.258200   36.797600
  H    -14.187500   39.071400   37.690100
  H    -14.942500   38.227300   36.450100
  C    -16.184000   39.948700   37.114600
  H    -16.655900   39.895600   36.213400
  H    -16.725700   39.458000   37.955400
  C    -16.250600   41.417600   37.496000
  H    -17.213700   41.800100   37.562400
  H    -15.821900   41.586500   38.489800
  H    -15.807200   42.078500   36.774000
  S    -13.211500   42.797100   31.974100
  C    -13.272800   42.460000   30.334600
  C    -13.198900   41.145700   30.065800
  C    -13.173700   40.377000   31.257500
  C    -13.083600   41.139700   32.418700
  H    -13.097600   40.703700   29.079800
  C    -13.281300   38.835200   31.159100
  H    -14.010700   38.722500   30.349100
  H    -13.622200   38.337600   32.102600
  C    -12.038900   38.155000   30.641500
  H    -11.434600   38.071900   31.576400
  H    -11.565500   38.768200   29.833900
  C    -12.275500   36.697100   30.175800
  H    -11.522600   36.245600   29.512700
  H    -13.132700   36.748000   29.499300
  H    -12.463000   35.939300   30.972400
  H    -12.229400   40.523900   37.236800
  H    -13.429500   43.258900   29.618800

 Total Charge           Charge          ....    0
 Multiplicity           Mult            ....    1
 Number of Electrons    NEL             ....  134
 Basis Dimension        Dim             ....  322

ORBITAL ENERGIES
----------------

  NO   OCC          E(Eh)            E(eV)
   0   2.0000     -88.970298     -2421.0049
   1   2.0000     -88.960185     -2420.7297
   2   2.0000     -10.326327      -280.9936
   3   2.0000     -10.316684      -280.7312
   4   2.0000     -10.316593      -280.7288
   5   2.0000     -10.308960      -280.5211
   6   2.0000     -10.304338      -280.3953
   7   2.0000     -10.301772      -280.3255
   8   2.0000     -10.297901      -280.2201
   9   2.0000     -10.293335      -280.0959
  10   2.0000     -10.292376      -280.0698
  11   2.0000     -10.288985      -279.9775
  12   2.0000     -10.288544      -279.9655
  13   2.0000     -10.287044      -279.9247
  14   2.0000     -10.281144      -279.7641
  15   2.0000     -10.265389      -279.3354
  16   2.0000      -8.084496      -219.9903
  17   2.0000      -8.077472      -219.7992
  18   2.0000      -6.043054      -164.4399
  19   2.0000      -6.039161      -164.3339
  20   2.0000      -6.035762      -164.2414
  21   2.0000      -6.035156      -164.2249
  22   2.0000      -6.031547      -164.1267
  23   2.0000      -6.028365      -164.0401
  24   2.0000      -1.017498       -27.6875
  25   2.0000      -0.986015       -26.8308
  26   2.0000      -0.910210       -24.7681
  27   2.0000      -0.904304       -24.6074
  28   2.0000      -0.878649       -23.9093
  29   2.0000      -0.852220       -23.1901
  30   2.0000      -0.847991       -23.0750
  31   2.0000      -0.815310       -22.1857
  32   2.0000      -0.783301       -21.3147
  33   2.0000      -0.770896       -20.9771
  34   2.0000      -0.711542       -19.3620
  35   2.0000      -0.696942       -18.9648
  36   2.0000      -0.688085       -18.7237
  37   2.0000      -0.664599       -18.0847
  38   2.0000      -0.639839       -17.4109
  39   2.0000      -0.623463       -16.9653
  40   2.0000      -0.603232       -16.4148
  41   2.0000      -0.569569       -15.4988
  42   2.0000      -0.564962       -15.3734
  43   2.0000      -0.556575       -15.1452
  44   2.0000      -0.537881       -14.6365
  45   2.0000      -0.518116       -14.0987
  46   2.0000      -0.516172       -14.0457
  47   2.0000      -0.514309       -13.9951
  48   2.0000      -0.505442       -13.7538
  49   2.0000      -0.498238       -13.5578
  50   2.0000      -0.488024       -13.2798
  51   2.0000      -0.478818       -13.0293
  52   2.0000      -0.469201       -12.7676
  53   2.0000      -0.466508       -12.6943
  54   2.0000      -0.459521       -12.5042
  55   2.0000      -0.454368       -12.3640
  56   2.0000      -0.444074       -12.0839
  57   2.0000      -0.442371       -12.0375
  58   2.0000      -0.431094       -11.7307
  59   2.0000      -0.427918       -11.6443
  60   2.0000      -0.421827       -11.4785
  61   2.0000      -0.410162       -11.1611
  62   2.0000      -0.405068       -11.0225
  63   2.0000      -0.351048        -9.5525
  64   2.0000      -0.328883        -8.9494
  65   2.0000      -0.328494        -8.9388
  66   2.0000      -0.290805        -7.9132
  67   0.0000       0.037032         1.0077
  68   0.0000       0.064790         1.7630
  69   0.0000       0.115102         3.1321
  70   0.0000       0.119164         3.2426
  71   0.0000       0.128874         3.5068

MULLIKEN ATOMIC CHARGES
-----------------------
   0 S :    0.126733
   1 C :   -0.110907
   2 C :   -0.100216
   3 C :    0.037423
   4 C :   -0.155706
   5 H :    0.010925
   6 C :    0.067986
   7 H :    0.004670
   8 H :    0.039299
   9 C :   -0.065248
  10 H :    0.013203
  11 H :    0.042811
  12 C :   -0.034636
  13 H :    0.014011
  14 H :    0.023193
  15 H :    0.030698
  16 S :    0.116344
  17 C :   -0.082419
  18 C :   -0.032254
  19 C :   -0.033882
  20 C :   -0.175138
  21 H :    0.019152
  22 C :    0.065235
  23 H :    0.014569
  24 H :    0.035772
  25 C :   -0.095480
  26 H :    0.041652
  27 H :    0.041955
  28 C :   -0.057095
  29 H :    0.035059
  30 H :    0.013550
  31 H :    0.043246
  32 H :    0.047628
  33 H :    0.057868
Sum of atomic charges:   -0.0000000

LOEWDIN ATOMIC CHARGES
----------------------
   0 S :    0.399863
   1 C :   -0.196287
   2 C :   -0.064665
   3 C :   -0.048859
   4 C :   -0.190992
   5 H :    0.027033
   6 C :   -0.030485
   7 H :    0.022188
   8 H :    0.036925
   9 C :   -0.030217
  10 H :    0.009160
  11 H :    0.032709
  12 C :   -0.064474
  13 H :    0.019195
  14 H :    0.024154
  15 H :    0.024112
  16 S :    0.447934
  17 C :   -0.201253
  18 C :   -0.078932
  19 C :   -0.049079
  20 C :   -0.219639
  21 H :    0.033276
  22 C :   -0.033192
  23 H :    0.025814
  24 H :    0.033752
  25 C :   -0.048463
  26 H :    0.032056
  27 H :    0.029221
  28 C :   -0.076502
  29 H :    0.028710
  30 H :    0.019859
  31 H :    0.030401
  32 H :    0.026786
  33 H :    0.029887

  Mayer bond orders larger than 0.100000
B(  0-S ,  1-C ) :   1.1477 B(  0-S ,  4-C ) :   1.1140 B(  1-C ,  2-C ) :   1.6085
B(  1-C , 32-H ) :   0.9608 B(  2-C ,  3-C ) :   1.2298 B(  2-C ,  6-C ) :   1.0371
B(  3-C ,  4-C ) :   1.5898 B(  3-C ,  5-H ) :   0.9913 B(  4-C , 20-C ) :   1.0858
B(  6-C ,  7-H ) :   0.9409 B(  6-C ,  8-H ) :   0.9501 B(  6-C ,  9-C ) :   1.0336
B(  9-C , 10-H ) :   0.9614 B(  9-C , 11-H ) :   0.9621 B(  9-C , 12-C ) :   1.0925
B( 12-C , 13-H ) :   0.9699 B( 12-C , 14-H ) :   0.9760 B( 12-C , 15-H ) :   0.9689
B( 16-S , 17-C ) :   1.1867 B( 16-S , 20-C ) :   1.1495 B( 17-C , 18-C ) :   1.5747
B( 17-C , 33-H ) :   0.9674 B( 18-C , 19-C ) :   1.2674 B( 18-C , 21-H ) :   0.9922
B( 19-C , 20-C ) :   1.5801 B( 19-C , 22-C ) :   1.0303 B( 22-C , 23-H ) :   0.9323
B( 22-C , 24-H ) :   0.9406 B( 22-C , 25-C ) :   1.0659 B( 25-C , 26-H ) :   0.9557
B( 25-C , 27-H ) :   0.9572 B( 25-C , 28-C ) :   1.0702 B( 28-C , 29-H ) :   0.9755
B( 28-C , 30-H ) :   0.9740 B( 28-C , 31-H ) :   0.9754

Dispersion correction           -0.013892496
FINAL SINGLE POINT ENERGY     -1339.866007491035

DIPOLE MOMENT
-------------
                                X             Y             Z
Electronic contribution:     10.95442      18.89882      -2.92739
Nuclear contribution   :    -11.33486     -19.30045       2.86759
                        -----------------------------------------
Total Dipole Moment    :     -0.38044      -0.40163      -0.05980
                        -----------------------------------------
Magnitude (a.u.)       :      0.55644
Magnitude (Debye)      :      1.41435

Rotational constants in cm-1:     0.018259     0.008126     0.006917
Rotational constants in MHz :   547.387854   243.614644   207.372648

                             ****ORCA TERMINATED NORMALLY****
TOTAL RUN TIME: 0 days 0 hours 0 minutes 33 seconds 169 msec
