                         Program Version 4.2.1 -  RELEASE  -
|  1> ! wB97X-D3 SP def2-SVP
|  2> %pal
|  3> nprocs 16
|  4> end
|  5>
|  6> * xyz 0 1
|  7> S 	 -36.731 	 58.6563 	 112.733
|  8> C 	 -37.6327 	 60.1281 	 112.635
|  9> C 	 -37.9392 	 60.6017 	 113.918
| 10> C 	 -37.405 	 59.7242 	 114.914
| 11> C 	 -36.7437 	 58.6117 	 114.476
| 12> H 	 -37.6937 	 59.8307 	 115.929
| 13> C 	 -38.6837 	 61.8479 	 114.246
| 14> H 	 -39.6129 	 61.8912 	 113.772
| 15> H 	 -38.1215 	 62.5904 	 113.684
| 16> C 	 -38.6031 	 62.284 	 115.751
| 17> H 	 -39.1854 	 61.7121 	 116.408
| 18> H 	 -37.5096 	 62.1809 	 116.072
| 19> C 	 -38.9735 	 63.7416 	 116
| 20> H 	 -40.0726 	 63.7623 	 115.732
| 21> H 	 -39.0428 	 64.0197 	 117.048
| 22> H 	 -38.6592 	 64.5497 	 115.257
| 23> S 	 -36.1927 	 55.9864 	 114.273
| 24> C 	 -35.6139 	 55.1018 	 115.672
| 25> C 	 -35.5239 	 55.9022 	 116.785
| 26> C 	 -35.9399 	 57.2596 	 116.519
| 27> C 	 -36.2377 	 57.4621 	 115.168
| 28> H 	 -35.2152 	 55.4131 	 117.719
| 29> C 	 -36.1147 	 58.2211 	 117.696
| 30> H 	 -37.0667 	 58.0979 	 118.179
| 31> H 	 -36.0548 	 59.2679 	 117.351
| 32> C 	 -35.1608 	 58.0258 	 118.851
| 33> H 	 -34.1451 	 58.0252 	 118.425
| 34> H 	 -35.2933 	 57.0299 	 119.258
| 35> C 	 -35.3183 	 59.0745 	 119.909
| 36> H 	 -36.3662 	 59.0759 	 120.278
| 37> H 	 -35.0534 	 60.0411 	 119.514
| 38> H 	 -34.6314 	 58.9813 	 120.739
| 39> H 	 -37.8986 	 60.5742 	 111.632
| 40> H 	 -35.1855 	 54.0931 	 115.67
| 41> *
| 42>
| 43>                          ****END OF INPUT****

CARTESIAN COORDINATES (ANGSTROEM)
---------------------------------
  S    -36.731000   58.656300  112.733000
  C    -37.632700   60.128100  112.635000
  C    -37.939200   60.601700  113.918000
  C    -37.405000   59.724200  114.914000
  C    -36.743700   58.611700  114.476000
  H    -37.693700   59.830700  115.929000
  C    -38.683700   61.847900  114.246000
  H    -39.612900   61.891200  113.772000
  H    -38.121500   62.590400  113.684000
  C    -38.603100   62.284000  115.751000
  H    -39.185400   61.712100  116.408000
  H    -37.509600   62.180900  116.072000
  C    -38.973500   63.741600  116.000000
  H    -40.072600   63.762300  115.732000
  H    -39.042800   64.019700  117.048000
  H    -38.659200   64.549700  115.257000
  S    -36.192700   55.986400  114.273000
  C    -35.613900   55.101800  115.672000
  C    -35.523900   55.902200  116.785000
  C    -35.939900   57.259600  116.519000
  C    -36.237700   57.462100  115.168000
  H    -35.215200   55.413100  117.719000
  C    -36.114700   58.221100  117.696000
  H    -37.066700   58.097900  118.179000
  H    -36.054800   59.267900  117.351000
  C    -35.160800   58.025800  118.851000
  H    -34.145100   58.025200  118.425000
  H    -35.293300   57.029900  119.258000
  C    -35.318300   59.074500  119.909000
  H    -36.366200   59.075900  120.278000
  H    -35.053400   60.041100  119.514000
  H    -34.631400   58.981300  120.739000
  H    -37.898600   60.574200  111.632000
  H    -35.185500   54.093100  115.670000

 Total Charge           Charge          ....    0
 Multiplicity           Mult            ....    1
 Number of Electrons    NEL             ....  134
 Basis Dimension        Dim             ....  322

ORBITAL ENERGIES
----------------

  NO   OCC          E(Eh)            E(eV)
   0   2.0000     -88.965911     -2420.8855
   1   2.0000     -88.962142     -2420.7830
   2   2.0000     -10.327385      -281.0224
   3   2.0000     -10.325817      -280.9798
   4   2.0000     -10.316805      -280.7345
   5   2.0000     -10.315243      -280.6920
   6   2.0000     -10.307312      -280.4762
   7   2.0000     -10.302200      -280.3371
   8   2.0000     -10.295812      -280.1633
   9   2.0000     -10.295079      -280.1433
  10   2.0000     -10.290919      -280.0302
  11   2.0000     -10.290438      -280.0171
  12   2.0000     -10.287845      -279.9465
  13   2.0000     -10.286251      -279.9031
  14   2.0000     -10.281562      -279.7755
  15   2.0000     -10.277906      -279.6760
  16   2.0000      -8.081069      -219.8971
  17   2.0000      -8.077526      -219.8007
  18   2.0000      -6.039704      -164.3487
  19   2.0000      -6.036056      -164.2494
  20   2.0000      -6.035535      -164.2353
  21   2.0000      -6.031812      -164.1340
  22   2.0000      -6.031640      -164.1293
  23   2.0000      -6.028364      -164.0401
  24   2.0000      -1.011618       -27.5275
  25   2.0000      -0.985396       -26.8140
  26   2.0000      -0.918810       -25.0021
  27   2.0000      -0.913924       -24.8691
  28   2.0000      -0.873697       -23.7745
  29   2.0000      -0.854523       -23.2528
  30   2.0000      -0.845317       -23.0022
  31   2.0000      -0.818803       -22.2808
  32   2.0000      -0.783281       -21.3142
  33   2.0000      -0.771285       -20.9877
  34   2.0000      -0.716023       -19.4840
  35   2.0000      -0.700069       -19.0498
  36   2.0000      -0.689941       -18.7742
  37   2.0000      -0.656900       -17.8752
  38   2.0000      -0.636241       -17.3130
  39   2.0000      -0.626706       -17.0535
  40   2.0000      -0.600982       -16.3536
  41   2.0000      -0.576679       -15.6922
  42   2.0000      -0.571992       -15.5647
  43   2.0000      -0.563758       -15.3406
  44   2.0000      -0.532906       -14.5011
  45   2.0000      -0.523157       -14.2358
  46   2.0000      -0.512804       -13.9541
  47   2.0000      -0.508003       -13.8235
  48   2.0000      -0.504814       -13.7367
  49   2.0000      -0.499358       -13.5882
  50   2.0000      -0.494242       -13.4490
  51   2.0000      -0.482592       -13.1320
  52   2.0000      -0.476736       -12.9726
  53   2.0000      -0.472204       -12.8493
  54   2.0000      -0.461127       -12.5479
  55   2.0000      -0.454117       -12.3572
  56   2.0000      -0.448086       -12.1930
  57   2.0000      -0.436085       -11.8665
  58   2.0000      -0.431566       -11.7435
  59   2.0000      -0.424033       -11.5385
  60   2.0000      -0.421128       -11.4595
  61   2.0000      -0.413630       -11.2554
  62   2.0000      -0.407160       -11.0794
  63   2.0000      -0.361283        -9.8310
  64   2.0000      -0.333114        -9.0645
  65   2.0000      -0.324576        -8.8322
  66   2.0000      -0.280524        -7.6334
  67   0.0000       0.021423         0.5829
  68   0.0000       0.085053         2.3144
  69   0.0000       0.104938         2.8555
  70   0.0000       0.118987         3.2378
  71   0.0000       0.140384         3.8200

MULLIKEN ATOMIC CHARGES
-----------------------
   0 S :    0.092874
   1 C :   -0.153467
   2 C :   -0.104888
   3 C :   -0.024835
   4 C :   -0.096893
   5 H :    0.001793
   6 C :    0.106752
   7 H :    0.023117
   8 H :    0.027084
   9 C :   -0.097324
  10 H :    0.033758
  11 H :    0.046393
  12 C :   -0.062001
  13 H :    0.012469
  14 H :    0.041103
  15 H :    0.048606
  16 S :    0.101794
  17 C :   -0.093209
  18 C :   -0.060178
  19 C :   -0.042175
  20 C :   -0.098232
  21 H :    0.031577
  22 C :    0.046613
  23 H :    0.030221
  24 H :    0.029933
  25 C :   -0.102317
  26 H :    0.028249
  27 H :    0.026740
  28 C :   -0.007975
  29 H :    0.031555
  30 H :    0.020159
  31 H :    0.029539
  32 H :    0.070094
  33 H :    0.063071
Sum of atomic charges:   -0.0000000

LOEWDIN ATOMIC CHARGES
----------------------
   0 S :    0.411670
   1 C :   -0.216398
   2 C :   -0.060222
   3 C :   -0.072333
   4 C :   -0.190203
   5 H :    0.023117
   6 C :   -0.030351
   7 H :    0.025887
   8 H :    0.041399
   9 C :   -0.039643
  10 H :    0.017561
  11 H :    0.033216
  12 C :   -0.085047
  13 H :    0.028541
  14 H :    0.028805
  15 H :    0.035957
  16 S :    0.412653
  17 C :   -0.191002
  18 C :   -0.074020
  19 C :   -0.054186
  20 C :   -0.199458
  21 H :    0.037388
  22 C :   -0.033805
  23 H :    0.029983
  24 H :    0.030058
  25 C :   -0.046505
  26 H :    0.025294
  27 H :    0.018482
  28 C :   -0.060668
  29 H :    0.028858
  30 H :    0.023591
  31 H :    0.026767
  32 H :    0.039828
  33 H :    0.034783

  Mayer bond orders larger than 0.100000
B(  0-S ,  1-C ) :   1.1516 B(  0-S ,  4-C ) :   1.1492 B(  1-C ,  2-C ) :   1.5754
B(  1-C ,  4-C ) :   0.1007 B(  1-C , 32-H ) :   0.9683 B(  2-C ,  3-C ) :   1.2922
B(  2-C ,  6-C ) :   1.0015 B(  3-C ,  4-C ) :   1.5315 B(  3-C ,  5-H ) :   0.9900
B(  4-C , 20-C ) :   1.0848 B(  6-C ,  7-H ) :   0.9318 B(  6-C ,  8-H ) :   0.9316
B(  6-C ,  9-C ) :   1.0716 B(  9-C , 10-H ) :   0.9490 B(  9-C , 11-H ) :   0.9525
B(  9-C , 12-C ) :   1.0828 B( 12-C , 13-H ) :   0.9655 B( 12-C , 14-H ) :   0.9712
B( 12-C , 15-H ) :   0.9734 B( 16-S , 17-C ) :   1.1424 B( 16-S , 20-C ) :   1.1389
B( 17-C , 18-C ) :   1.6357 B( 17-C , 33-H ) :   0.9587 B( 18-C , 19-C ) :   1.2253
B( 18-C , 21-H ) :   0.9848 B( 19-C , 20-C ) :   1.5904 B( 19-C , 22-C ) :   1.0424
B( 22-C , 23-H ) :   0.9277 B( 22-C , 24-H ) :   0.9341 B( 22-C , 25-C ) :   1.0686
B( 25-C , 26-H ) :   0.9559 B( 25-C , 27-H ) :   0.9416 B( 25-C , 28-C ) :   1.0958
B( 28-C , 29-H ) :   0.9698 B( 28-C , 30-H ) :   0.9703 B( 28-C , 31-H ) :   0.9702

Dispersion correction           -0.013274125
FINAL SINGLE POINT ENERGY     -1339.874582418736

DIPOLE MOMENT
-------------
                                X             Y             Z
Electronic contribution:      4.49649     -21.98986     -24.26677
Nuclear contribution   :     -4.75646      22.38459      24.84973
                        -----------------------------------------
Total Dipole Moment    :     -0.25997       0.39473       0.58296
                        -----------------------------------------
Magnitude (a.u.)       :      0.75049
Magnitude (Debye)      :      1.90760

Rotational constants in cm-1:     0.015700     0.009688     0.006157
Rotational constants in MHz :   470.661183   290.435954   184.572066

                             ****ORCA TERMINATED NORMALLY****
TOTAL RUN TIME: 0 days 0 hours 0 minutes 27 seconds 742 msec
