                         Program Version 4.2.1 -  RELEASE  -
|  1> ! wB97X-D3 SP def2-SVP
|  2> %pal
|  3> nprocs 16
|  4> end
|  5>
|  6> * xyz 0 1
|  7> S 	 -3.14508 	 -16.3955 	 89.5808
|  8> C 	 -4.68103 	 -16.3619 	 90.4657
|  9> C 	 -5.75392 	 -16.065 	 89.5998
| 10> C 	 -5.2488 	 -15.6956 	 88.3196
| 11> C 	 -3.89421 	 -15.8089 	 88.1701
| 12> H 	 -5.85 	 -15.3639 	 87.5068
| 13> C 	 -7.20269 	 -15.9059 	 89.9628
| 14> H 	 -7.66912 	 -15.0986 	 89.2892
| 15> H 	 -7.22963 	 -15.6841 	 91.0801
| 16> C 	 -8.05998 	 -17.0351 	 89.668
| 17> H 	 -8.1311 	 -17.1257 	 88.5582
| 18> H 	 -7.53746 	 -18.0001 	 89.9221
| 19> C 	 -9.41654 	 -17.0241 	 90.3656
| 20> H 	 -9.9694 	 -16.1569 	 89.9984
| 21> H 	 -9.94014 	 -17.9869 	 90.009
| 22> H 	 -9.37884 	 -16.935 	 91.4295
| 23> S 	 -2.1885 	 -14.2696 	 86.7596
| 24> C 	 -1.71552 	 -14.7259 	 85.1114
| 25> C 	 -2.44436 	 -15.8371 	 84.6729
| 26> C 	 -3.23301 	 -16.4138 	 85.7678
| 27> C 	 -3.16875 	 -15.6471 	 86.9394
| 28> H 	 -2.26053 	 -16.2414 	 83.657
| 29> C 	 -4.04271 	 -17.6481 	 85.6386
| 30> H 	 -3.86125 	 -18.1519 	 86.5601
| 31> H 	 -3.59219 	 -18.2778 	 84.8814
| 32> C 	 -5.48078 	 -17.5396 	 85.4258
| 33> H 	 -5.96575 	 -17.3221 	 86.3647
| 34> H 	 -5.86549 	 -18.5245 	 85.064
| 35> C 	 -5.87356 	 -16.5787 	 84.3154
| 36> H 	 -6.88932 	 -16.5932 	 83.9859
| 37> H 	 -5.21486 	 -16.8461 	 83.4438
| 38> H 	 -5.57409 	 -15.567 	 84.5943
| 39> H 	 -4.78149 	 -16.5415 	 91.4864
| 40> H 	 -0.958077 	 -14.242 	 84.5546
| 41> *
| 42>
| 43>                          ****END OF INPUT****

CARTESIAN COORDINATES (ANGSTROEM)
---------------------------------
  S     -3.145080  -16.395500   89.580800
  C     -4.681030  -16.361900   90.465700
  C     -5.753920  -16.065000   89.599800
  C     -5.248800  -15.695600   88.319600
  C     -3.894210  -15.808900   88.170100
  H     -5.850000  -15.363900   87.506800
  C     -7.202690  -15.905900   89.962800
  H     -7.669120  -15.098600   89.289200
  H     -7.229630  -15.684100   91.080100
  C     -8.059980  -17.035100   89.668000
  H     -8.131100  -17.125700   88.558200
  H     -7.537460  -18.000100   89.922100
  C     -9.416540  -17.024100   90.365600
  H     -9.969400  -16.156900   89.998400
  H     -9.940140  -17.986900   90.009000
  H     -9.378840  -16.935000   91.429500
  S     -2.188500  -14.269600   86.759600
  C     -1.715520  -14.725900   85.111400
  C     -2.444360  -15.837100   84.672900
  C     -3.233010  -16.413800   85.767800
  C     -3.168750  -15.647100   86.939400
  H     -2.260530  -16.241400   83.657000
  C     -4.042710  -17.648100   85.638600
  H     -3.861250  -18.151900   86.560100
  H     -3.592190  -18.277800   84.881400
  C     -5.480780  -17.539600   85.425800
  H     -5.965750  -17.322100   86.364700
  H     -5.865490  -18.524500   85.064000
  C     -5.873560  -16.578700   84.315400
  H     -6.889320  -16.593200   83.985900
  H     -5.214860  -16.846100   83.443800
  H     -5.574090  -15.567000   84.594300
  H     -4.781490  -16.541500   91.486400
  H     -0.958077  -14.242000   84.554600

 Total Charge           Charge          ....    0
 Multiplicity           Mult            ....    1
 Number of Electrons    NEL             ....  134
 Basis Dimension        Dim             ....  322

ORBITAL ENERGIES
----------------

  NO   OCC          E(Eh)            E(eV)
   0   2.0000     -88.969127     -2420.9730
   1   2.0000     -88.964571     -2420.8491
   2   2.0000     -10.321753      -280.8692
   3   2.0000     -10.319285      -280.8020
   4   2.0000     -10.317988      -280.7667
   5   2.0000     -10.316259      -280.7197
   6   2.0000     -10.304638      -280.4034
   7   2.0000     -10.303960      -280.3850
   8   2.0000     -10.302431      -280.3434
   9   2.0000     -10.298496      -280.2363
  10   2.0000     -10.289834      -280.0006
  11   2.0000     -10.285652      -279.8868
  12   2.0000     -10.285286      -279.8769
  13   2.0000     -10.277534      -279.6659
  14   2.0000     -10.276432      -279.6359
  15   2.0000     -10.273178      -279.5474
  16   2.0000      -8.084182      -219.9818
  17   2.0000      -8.079788      -219.8622
  18   2.0000      -6.042559      -164.4264
  19   2.0000      -6.038603      -164.3187
  20   2.0000      -6.038226      -164.3085
  21   2.0000      -6.035092      -164.2232
  22   2.0000      -6.034084      -164.1958
  23   2.0000      -6.030741      -164.1048
  24   2.0000      -1.012169       -27.5425
  25   2.0000      -0.984009       -26.7762
  26   2.0000      -0.925558       -25.1857
  27   2.0000      -0.921259       -25.0687
  28   2.0000      -0.871854       -23.7244
  29   2.0000      -0.851703       -23.1760
  30   2.0000      -0.844802       -22.9882
  31   2.0000      -0.816048       -22.2058
  32   2.0000      -0.786050       -21.3895
  33   2.0000      -0.775013       -21.0892
  34   2.0000      -0.708385       -19.2761
  35   2.0000      -0.693606       -18.8740
  36   2.0000      -0.687864       -18.7177
  37   2.0000      -0.663642       -18.0586
  38   2.0000      -0.649108       -17.6631
  39   2.0000      -0.622189       -16.9306
  40   2.0000      -0.588376       -16.0105
  41   2.0000      -0.578384       -15.7386
  42   2.0000      -0.569763       -15.5041
  43   2.0000      -0.561240       -15.2721
  44   2.0000      -0.553270       -15.0553
  45   2.0000      -0.526491       -14.3266
  46   2.0000      -0.522354       -14.2140
  47   2.0000      -0.511019       -13.9055
  48   2.0000      -0.509805       -13.8725
  49   2.0000      -0.498049       -13.5526
  50   2.0000      -0.485050       -13.1989
  51   2.0000      -0.481644       -13.1062
  52   2.0000      -0.473676       -12.8894
  53   2.0000      -0.465817       -12.6755
  54   2.0000      -0.462091       -12.5741
  55   2.0000      -0.449229       -12.2241
  56   2.0000      -0.445011       -12.1094
  57   2.0000      -0.439621       -11.9627
  58   2.0000      -0.435979       -11.8636
  59   2.0000      -0.426310       -11.6005
  60   2.0000      -0.415364       -11.3026
  61   2.0000      -0.407650       -11.0927
  62   2.0000      -0.404848       -11.0165
  63   2.0000      -0.337849        -9.1933
  64   2.0000      -0.332243        -9.0408
  65   2.0000      -0.319803        -8.7023
  66   2.0000      -0.306675        -8.3451
  67   0.0000       0.036699         0.9986
  68   0.0000       0.061545         1.6747
  69   0.0000       0.114906         3.1267
  70   0.0000       0.121193         3.2978
  71   0.0000       0.121792         3.3141

MULLIKEN ATOMIC CHARGES
-----------------------
   0 S :    0.128812
   1 C :   -0.103329
   2 C :   -0.070231
   3 C :    0.050027
   4 C :   -0.168872
   5 H :    0.002796
   6 C :    0.041564
   7 H :    0.039779
   8 H :    0.031795
   9 C :   -0.111762
  10 H :    0.028970
  11 H :    0.024302
  12 C :   -0.033538
  13 H :    0.026069
  14 H :    0.052848
  15 H :    0.034741
  16 S :    0.116650
  17 C :   -0.094765
  18 C :   -0.040160
  19 C :   -0.075137
  20 C :   -0.172915
  21 H :    0.037545
  22 C :    0.124937
  23 H :    0.020168
  24 H :    0.011111
  25 C :   -0.058954
  26 H :    0.024631
  27 H :    0.023824
  28 C :   -0.052650
  29 H :    0.035004
  30 H :    0.018930
  31 H :    0.037646
  32 H :    0.023175
  33 H :    0.046989
Sum of atomic charges:   -0.0000000

LOEWDIN ATOMIC CHARGES
----------------------
   0 S :    0.428521
   1 C :   -0.181516
   2 C :   -0.055927
   3 C :   -0.055960
   4 C :   -0.219218
   5 H :    0.026157
   6 C :   -0.043753
   7 H :    0.042956
   8 H :    0.037154
   9 C :   -0.059778
  10 H :    0.025508
  11 H :    0.022796
  12 C :   -0.063216
  13 H :    0.023857
  14 H :    0.041448
  15 H :    0.021074
  16 S :    0.423055
  17 C :   -0.176117
  18 C :   -0.071322
  19 C :   -0.049463
  20 C :   -0.227353
  21 H :    0.038423
  22 C :   -0.038510
  23 H :    0.035813
  24 H :    0.029979
  25 C :   -0.041895
  26 H :    0.016806
  27 H :    0.029413
  28 C :   -0.064752
  29 H :    0.020927
  30 H :    0.028028
  31 H :    0.022598
  32 H :    0.013421
  33 H :    0.020846

  Mayer bond orders larger than 0.100000
B(  0-S ,  1-C ) :   1.1479 B(  0-S ,  4-C ) :   1.1683 B(  1-C ,  2-C ) :   1.5798
B(  1-C ,  4-C ) :   0.1015 B(  1-C , 32-H ) :   0.9793 B(  2-C ,  3-C ) :   1.2510
B(  2-C ,  6-C ) :   1.0322 B(  3-C ,  4-C ) :   1.5780 B(  3-C ,  5-H ) :   0.9932
B(  4-C , 20-C ) :   1.0050 B(  6-C ,  7-H ) :   0.9365 B(  6-C ,  8-H ) :   0.9382
B(  6-C ,  9-C ) :   1.0698 B(  9-C , 10-H ) :   0.9472 B(  9-C , 11-H ) :   0.9519
B(  9-C , 12-C ) :   1.0793 B( 12-C , 13-H ) :   0.9710 B( 12-C , 14-H ) :   0.9730
B( 12-C , 15-H ) :   0.9753 B( 16-S , 17-C ) :   1.1602 B( 16-S , 20-C ) :   1.1614
B( 17-C , 18-C ) :   1.6032 B( 17-C , 33-H ) :   0.9750 B( 18-C , 19-C ) :   1.2302
B( 18-C , 21-H ) :   0.9828 B( 19-C , 20-C ) :   1.5793 B( 19-C , 22-C ) :   1.0532
B( 22-C , 23-H ) :   0.9111 B( 22-C , 24-H ) :   0.9231 B( 22-C , 25-C ) :   1.0966
B( 25-C , 26-H ) :   0.9462 B( 25-C , 27-H ) :   0.9467 B( 25-C , 28-C ) :   1.0795
B( 28-C , 29-H ) :   0.9752 B( 28-C , 30-H ) :   0.9718 B( 28-C , 31-H ) :   0.9673

Dispersion correction           -0.015657521
FINAL SINGLE POINT ENERGY     -1339.875437149023

DIPOLE MOMENT
-------------
                                X             Y             Z
Electronic contribution:     27.52221      10.21908       4.56743
Nuclear contribution   :    -28.00581     -10.47307      -4.73672
                        -----------------------------------------
Total Dipole Moment    :     -0.48360      -0.25400      -0.16930
                        -----------------------------------------
Magnitude (a.u.)       :      0.57188
Magnitude (Debye)      :      1.45360

Rotational constants in cm-1:     0.021123     0.008962     0.007055
Rotational constants in MHz :   633.251278   268.666709   211.492696

                             ****ORCA TERMINATED NORMALLY****
TOTAL RUN TIME: 0 days 0 hours 0 minutes 35 seconds 375 msec
