                         Program Version 4.2.1 -  RELEASE  -
|  1> ! wB97X-D3 SP def2-SVP
|  2> %pal
|  3> nprocs 16
|  4> end
|  5>
|  6> * xyz 0 1
|  7> S 	 -11.9495 	 -5.42905 	 85.9294
|  8> C 	 -12.0708 	 -5.68784 	 87.6609
|  9> C 	 -13.2713 	 -6.15946 	 88.0382
| 10> C 	 -14.1488 	 -6.45392 	 86.8873
| 11> C 	 -13.535 	 -6.25425 	 85.6446
| 12> H 	 -15.2461 	 -6.72343 	 86.8829
| 13> C 	 -13.6712 	 -6.38299 	 89.4441
| 14> H 	 -14.4592 	 -5.71193 	 89.7625
| 15> H 	 -12.8373 	 -6.23023 	 90.091
| 16> C 	 -14.2707 	 -7.72706 	 89.8142
| 17> H 	 -14.9798 	 -7.5133 	 90.6149
| 18> H 	 -14.876 	 -8.00539 	 88.987
| 19> C 	 -13.1734 	 -8.78972 	 90.051
| 20> H 	 -13.5766 	 -9.80202 	 90.3354
| 21> H 	 -12.6248 	 -8.94147 	 89.1368
| 22> H 	 -12.4824 	 -8.45064 	 90.848
| 23> S 	 -13.8844 	 -4.81674 	 83.2218
| 24> C 	 -15.1498 	 -5.36794 	 82.2008
| 25> C 	 -15.6965 	 -6.59307 	 82.6449
| 26> C 	 -15.218 	 -7.00298 	 83.9223
| 27> C 	 -14.1933 	 -6.19882 	 84.3347
| 28> H 	 -16.427 	 -7.08048 	 82.0682
| 29> C 	 -15.5639 	 -8.39363 	 84.5488
| 30> H 	 -16.6004 	 -8.45138 	 84.7407
| 31> H 	 -15.1434 	 -8.35696 	 85.5484
| 32> C 	 -15.0763 	 -9.69604 	 83.9257
| 33> H 	 -14.0743 	 -9.48114 	 83.4901
| 34> H 	 -15.6091 	 -9.76303 	 83.0307
| 35> C 	 -15.1682 	 -10.9056 	 84.8531
| 36> H 	 -14.6484 	 -10.5813 	 85.719
| 37> H 	 -14.7262 	 -11.7937 	 84.3504
| 38> H 	 -16.2094 	 -11.1654 	 85.0211
| 39> H 	 -11.3047 	 -5.56964 	 88.4655
| 40> H 	 -15.5407 	 -4.92187 	 81.2773
| 41> *
| 42>
| 43>                          ****END OF INPUT****

CARTESIAN COORDINATES (ANGSTROEM)
---------------------------------
  S    -11.949500   -5.429050   85.929400
  C    -12.070800   -5.687840   87.660900
  C    -13.271300   -6.159460   88.038200
  C    -14.148800   -6.453920   86.887300
  C    -13.535000   -6.254250   85.644600
  H    -15.246100   -6.723430   86.882900
  C    -13.671200   -6.382990   89.444100
  H    -14.459200   -5.711930   89.762500
  H    -12.837300   -6.230230   90.091000
  C    -14.270700   -7.727060   89.814200
  H    -14.979800   -7.513300   90.614900
  H    -14.876000   -8.005390   88.987000
  C    -13.173400   -8.789720   90.051000
  H    -13.576600   -9.802020   90.335400
  H    -12.624800   -8.941470   89.136800
  H    -12.482400   -8.450640   90.848000
  S    -13.884400   -4.816740   83.221800
  C    -15.149800   -5.367940   82.200800
  C    -15.696500   -6.593070   82.644900
  C    -15.218000   -7.002980   83.922300
  C    -14.193300   -6.198820   84.334700
  H    -16.427000   -7.080480   82.068200
  C    -15.563900   -8.393630   84.548800
  H    -16.600400   -8.451380   84.740700
  H    -15.143400   -8.356960   85.548400
  C    -15.076300   -9.696040   83.925700
  H    -14.074300   -9.481140   83.490100
  H    -15.609100   -9.763030   83.030700
  C    -15.168200  -10.905600   84.853100
  H    -14.648400  -10.581300   85.719000
  H    -14.726200  -11.793700   84.350400
  H    -16.209400  -11.165400   85.021100
  H    -11.304700   -5.569640   88.465500
  H    -15.540700   -4.921870   81.277300

 Total Charge           Charge          ....    0
 Multiplicity           Mult            ....    1
 Number of Electrons    NEL             ....  134
 Basis Dimension        Dim             ....  322

ORBITAL ENERGIES
----------------

  NO   OCC          E(Eh)            E(eV)
   0   2.0000     -88.973581     -2421.0942
   1   2.0000     -88.964808     -2420.8555
   2   2.0000     -10.338187      -281.3164
   3   2.0000     -10.331432      -281.1326
   4   2.0000     -10.320883      -280.8455
   5   2.0000     -10.314776      -280.6793
   6   2.0000     -10.306039      -280.4416
   7   2.0000     -10.304683      -280.4047
   8   2.0000     -10.300190      -280.2824
   9   2.0000     -10.292723      -280.0792
  10   2.0000     -10.287238      -279.9300
  11   2.0000     -10.283455      -279.8270
  12   2.0000     -10.282753      -279.8079
  13   2.0000     -10.282216      -279.7933
  14   2.0000     -10.281168      -279.7648
  15   2.0000     -10.279735      -279.7258
  16   2.0000      -8.087713      -220.0779
  17   2.0000      -8.078701      -219.8326
  18   2.0000      -6.046254      -164.5269
  19   2.0000      -6.042391      -164.4218
  20   2.0000      -6.038377      -164.3126
  21   2.0000      -6.037536      -164.2897
  22   2.0000      -6.033511      -164.1802
  23   2.0000      -6.028976      -164.0568
  24   2.0000      -1.003293       -27.3010
  25   2.0000      -0.981444       -26.7065
  26   2.0000      -0.917750       -24.9732
  27   2.0000      -0.911219       -24.7955
  28   2.0000      -0.871262       -23.7082
  29   2.0000      -0.855526       -23.2800
  30   2.0000      -0.837384       -22.7864
  31   2.0000      -0.810955       -22.0672
  32   2.0000      -0.786656       -21.4060
  33   2.0000      -0.776686       -21.1347
  34   2.0000      -0.712743       -19.3947
  35   2.0000      -0.702747       -19.1227
  36   2.0000      -0.691875       -18.8269
  37   2.0000      -0.660722       -17.9792
  38   2.0000      -0.636915       -17.3313
  39   2.0000      -0.616435       -16.7740
  40   2.0000      -0.596857       -16.2413
  41   2.0000      -0.573233       -15.5985
  42   2.0000      -0.569719       -15.5029
  43   2.0000      -0.552190       -15.0258
  44   2.0000      -0.534610       -14.5475
  45   2.0000      -0.522448       -14.2165
  46   2.0000      -0.515687       -14.0326
  47   2.0000      -0.515436       -14.0257
  48   2.0000      -0.503335       -13.6964
  49   2.0000      -0.497869       -13.5477
  50   2.0000      -0.485945       -13.2232
  51   2.0000      -0.482745       -13.1362
  52   2.0000      -0.469280       -12.7698
  53   2.0000      -0.466238       -12.6870
  54   2.0000      -0.461298       -12.5525
  55   2.0000      -0.452806       -12.3215
  56   2.0000      -0.443963       -12.0808
  57   2.0000      -0.435569       -11.8524
  58   2.0000      -0.431261       -11.7352
  59   2.0000      -0.427630       -11.6364
  60   2.0000      -0.424139       -11.5414
  61   2.0000      -0.417180       -11.3520
  62   2.0000      -0.410969       -11.1830
  63   2.0000      -0.360680        -9.8146
  64   2.0000      -0.337355        -9.1799
  65   2.0000      -0.324565        -8.8319
  66   2.0000      -0.285822        -7.7776
  67   0.0000       0.021546         0.5863
  68   0.0000       0.070271         1.9122
  69   0.0000       0.101265         2.7556
  70   0.0000       0.115104         3.1321
  71   0.0000       0.128606         3.4995

MULLIKEN ATOMIC CHARGES
-----------------------
   0 S :    0.078265
   1 C :   -0.113981
   2 C :   -0.084935
   3 C :   -0.010091
   4 C :   -0.143700
   5 H :    0.056922
   6 C :    0.076765
   7 H :    0.032385
   8 H :   -0.003636
   9 C :   -0.060451
  10 H :    0.024488
  11 H :    0.011052
  12 C :   -0.061090
  13 H :    0.041271
  14 H :    0.038496
  15 H :    0.033718
  16 S :    0.125864
  17 C :   -0.098431
  18 C :   -0.022613
  19 C :   -0.061342
  20 C :   -0.124990
  21 H :   -0.001375
  22 C :    0.065659
  23 H :    0.011214
  24 H :   -0.011346
  25 C :   -0.039781
  26 H :    0.028957
  27 H :   -0.000567
  28 C :   -0.026681
  29 H :    0.038829
  30 H :    0.045968
  31 H :    0.033413
  32 H :    0.057511
  33 H :    0.064235
Sum of atomic charges:    0.0000000

LOEWDIN ATOMIC CHARGES
----------------------
   0 S :    0.363743
   1 C :   -0.197408
   2 C :   -0.068093
   3 C :   -0.068787
   4 C :   -0.166331
   5 H :    0.042202
   6 C :   -0.031822
   7 H :    0.036825
   8 H :    0.022021
   9 C :   -0.039179
  10 H :    0.024091
  11 H :    0.016443
  12 C :   -0.066813
  13 H :    0.030083
  14 H :    0.026750
  15 H :    0.025694
  16 S :    0.406070
  17 C :   -0.199481
  18 C :   -0.064130
  19 C :   -0.055966
  20 C :   -0.181944
  21 H :    0.020787
  22 C :   -0.029110
  23 H :    0.021017
  24 H :    0.021566
  25 C :   -0.042168
  26 H :    0.030144
  27 H :    0.010460
  28 C :   -0.054144
  29 H :    0.024817
  30 H :    0.036216
  31 H :    0.027152
  32 H :    0.042791
  33 H :    0.036504

  Mayer bond orders larger than 0.100000
B(  0-S ,  1-C ) :   1.1045 B(  0-S ,  4-C ) :   1.1176 B(  1-C ,  2-C ) :   1.6794
B(  1-C , 32-H ) :   0.9516 B(  2-C ,  3-C ) :   1.1826 B(  2-C ,  6-C ) :   1.0512
B(  3-C ,  4-C ) :   1.6041 B(  3-C ,  5-H ) :   0.9640 B(  4-C , 20-C ) :   1.0619
B(  6-C ,  7-H ) :   0.9293 B(  6-C ,  8-H ) :   0.9382 B(  6-C ,  9-C ) :   1.0702
B(  9-C , 10-H ) :   0.9580 B(  9-C , 11-H ) :   0.9538 B(  9-C , 12-C ) :   1.0664
B( 12-C , 13-H ) :   0.9758 B( 12-C , 14-H ) :   0.9764 B( 12-C , 15-H ) :   0.9766
B( 16-S , 17-C ) :   1.1571 B( 16-S , 20-C ) :   1.1227 B( 17-C , 18-C ) :   1.6049
B( 17-C , 33-H ) :   0.9638 B( 18-C , 19-C ) :   1.2415 B( 18-C , 21-H ) :   0.9981
B( 19-C , 20-C ) :   1.6098 B( 19-C , 22-C ) :   1.0412 B( 22-C , 23-H ) :   0.9265
B( 22-C , 24-H ) :   0.9294 B( 22-C , 25-C ) :   1.0577 B( 25-C , 26-H ) :   0.9530
B( 25-C , 27-H ) :   0.9478 B( 25-C , 28-C ) :   1.0717 B( 28-C , 29-H ) :   0.9786
B( 28-C , 30-H ) :   0.9718 B( 28-C , 31-H ) :   0.9754

Dispersion correction           -0.014094165
FINAL SINGLE POINT ENERGY     -1339.864089521413

DIPOLE MOMENT
-------------
                                X             Y             Z
Electronic contribution:      8.94696      24.49789     -16.75284
Nuclear contribution   :     -9.48603     -24.90325      17.01136
                        -----------------------------------------
Total Dipole Moment    :     -0.53907      -0.40536       0.25853
                        -----------------------------------------
Magnitude (a.u.)       :      0.72232
Magnitude (Debye)      :      1.83598

Rotational constants in cm-1:     0.016982     0.009647     0.006817
Rotational constants in MHz :   509.094350   289.220649   204.382483

                             ****ORCA TERMINATED NORMALLY****
TOTAL RUN TIME: 0 days 0 hours 0 minutes 35 seconds 48 msec
