                         Program Version 4.2.1 -  RELEASE  -
|  1> ! wB97X-D3 SP def2-SVP
|  2> %pal
|  3> nprocs 16
|  4> end
|  5>
|  6> * xyz 0 1
|  7> S 	 -70.1931 	 37.7895 	 143.452
|  8> C 	 -71.3805 	 36.8589 	 142.526
|  9> C 	 -71.1586 	 37.0794 	 141.159
| 10> C 	 -70.0405 	 37.9308 	 140.917
| 11> C 	 -69.3351 	 38.3099 	 142.021
| 12> H 	 -69.6349 	 38.1931 	 139.927
| 13> C 	 -71.8833 	 36.4762 	 140.031
| 14> H 	 -71.8293 	 37.1079 	 139.079
| 15> H 	 -72.9781 	 36.4215 	 140.256
| 16> C 	 -71.6295 	 34.9917 	 139.791
| 17> H 	 -70.5444 	 34.8321 	 139.624
| 18> H 	 -71.8474 	 34.33 	 140.596
| 19> C 	 -72.2816 	 34.4076 	 138.511
| 20> H 	 -72.3582 	 33.2975 	 138.638
| 21> H 	 -73.3234 	 34.6787 	 138.463
| 22> H 	 -71.6728 	 34.593 	 137.592
| 23> S 	 -66.7016 	 38.4216 	 142.739
| 24> C 	 -65.7392 	 39.8071 	 142.235
| 25> C 	 -66.5493 	 40.8205 	 141.803
| 26> C 	 -67.9065 	 40.4394 	 141.669
| 27> C 	 -68.1549 	 39.1265 	 142.052
| 28> H 	 -66.2026 	 41.8596 	 141.613
| 29> C 	 -68.9313 	 41.4863 	 141.225
| 30> H 	 -69.9473 	 41.0448 	 141.118
| 31> H 	 -68.7343 	 41.8089 	 140.212
| 32> C 	 -69.0864 	 42.7244 	 142.137
| 33> H 	 -69.9434 	 43.3365 	 141.816
| 34> H 	 -68.1582 	 43.3598 	 141.911
| 35> C 	 -69.2915 	 42.3935 	 143.608
| 36> H 	 -68.9553 	 41.4564 	 143.988
| 37> H 	 -70.3058 	 42.5578 	 143.907
| 38> H 	 -68.765 	 43.2448 	 144.059
| 39> H 	 -72.2805 	 36.3864 	 142.877
| 40> H 	 -64.6589 	 39.8202 	 142.466
| 41> *
| 42>
| 43>                          ****END OF INPUT****

CARTESIAN COORDINATES (ANGSTROEM)
---------------------------------
  S    -70.193100   37.789500  143.452000
  C    -71.380500   36.858900  142.526000
  C    -71.158600   37.079400  141.159000
  C    -70.040500   37.930800  140.917000
  C    -69.335100   38.309900  142.021000
  H    -69.634900   38.193100  139.927000
  C    -71.883300   36.476200  140.031000
  H    -71.829300   37.107900  139.079000
  H    -72.978100   36.421500  140.256000
  C    -71.629500   34.991700  139.791000
  H    -70.544400   34.832100  139.624000
  H    -71.847400   34.330000  140.596000
  C    -72.281600   34.407600  138.511000
  H    -72.358200   33.297500  138.638000
  H    -73.323400   34.678700  138.463000
  H    -71.672800   34.593000  137.592000
  S    -66.701600   38.421600  142.739000
  C    -65.739200   39.807100  142.235000
  C    -66.549300   40.820500  141.803000
  C    -67.906500   40.439400  141.669000
  C    -68.154900   39.126500  142.052000
  H    -66.202600   41.859600  141.613000
  C    -68.931300   41.486300  141.225000
  H    -69.947300   41.044800  141.118000
  H    -68.734300   41.808900  140.212000
  C    -69.086400   42.724400  142.137000
  H    -69.943400   43.336500  141.816000
  H    -68.158200   43.359800  141.911000
  C    -69.291500   42.393500  143.608000
  H    -68.955300   41.456400  143.988000
  H    -70.305800   42.557800  143.907000
  H    -68.765000   43.244800  144.059000
  H    -72.280500   36.386400  142.877000
  H    -64.658900   39.820200  142.466000

 Total Charge           Charge          ....    0
 Multiplicity           Mult            ....    1
 Number of Electrons    NEL             ....  134
 Basis Dimension        Dim             ....  322

ORBITAL ENERGIES
----------------

  NO   OCC          E(Eh)            E(eV)
   0   2.0000     -88.966890     -2420.9122
   1   2.0000     -88.963331     -2420.8153
   2   2.0000     -10.326724      -281.0045
   3   2.0000     -10.325633      -280.9748
   4   2.0000     -10.322137      -280.8796
   5   2.0000     -10.317476      -280.7528
   6   2.0000     -10.304726      -280.4058
   7   2.0000     -10.300971      -280.3037
   8   2.0000     -10.296701      -280.1875
   9   2.0000     -10.296447      -280.1806
  10   2.0000     -10.292070      -280.0615
  11   2.0000     -10.291426      -280.0439
  12   2.0000     -10.289500      -279.9915
  13   2.0000     -10.284304      -279.8501
  14   2.0000     -10.282664      -279.8055
  15   2.0000     -10.267099      -279.3820
  16   2.0000      -8.081105      -219.8980
  17   2.0000      -8.078344      -219.8229
  18   2.0000      -6.039723      -164.3492
  19   2.0000      -6.036822      -164.2703
  20   2.0000      -6.035554      -164.2358
  21   2.0000      -6.032867      -164.1627
  22   2.0000      -6.031901      -164.1364
  23   2.0000      -6.029049      -164.0588
  24   2.0000      -1.008249       -27.4358
  25   2.0000      -0.985131       -26.8068
  26   2.0000      -0.913359       -24.8538
  27   2.0000      -0.904982       -24.6258
  28   2.0000      -0.871284       -23.7088
  29   2.0000      -0.848745       -23.0955
  30   2.0000      -0.845381       -23.0040
  31   2.0000      -0.814464       -22.1627
  32   2.0000      -0.783137       -21.3102
  33   2.0000      -0.770971       -20.9792
  34   2.0000      -0.705984       -19.2108
  35   2.0000      -0.698283       -19.0013
  36   2.0000      -0.688385       -18.7319
  37   2.0000      -0.658506       -17.9189
  38   2.0000      -0.642702       -17.4888
  39   2.0000      -0.617396       -16.8002
  40   2.0000      -0.598520       -16.2866
  41   2.0000      -0.568768       -15.4770
  42   2.0000      -0.559721       -15.2308
  43   2.0000      -0.551829       -15.0160
  44   2.0000      -0.542777       -14.7697
  45   2.0000      -0.521971       -14.2035
  46   2.0000      -0.518013       -14.0958
  47   2.0000      -0.510731       -13.8977
  48   2.0000      -0.507424       -13.8077
  49   2.0000      -0.502130       -13.6636
  50   2.0000      -0.493707       -13.4345
  51   2.0000      -0.473977       -12.8976
  52   2.0000      -0.468230       -12.7412
  53   2.0000      -0.463662       -12.6169
  54   2.0000      -0.456082       -12.4106
  55   2.0000      -0.447420       -12.1749
  56   2.0000      -0.445206       -12.1147
  57   2.0000      -0.434545       -11.8246
  58   2.0000      -0.430261       -11.7080
  59   2.0000      -0.423567       -11.5258
  60   2.0000      -0.420748       -11.4491
  61   2.0000      -0.407792       -11.0966
  62   2.0000      -0.398407       -10.8412
  63   2.0000      -0.343640        -9.3509
  64   2.0000      -0.329585        -8.9685
  65   2.0000      -0.328662        -8.9434
  66   2.0000      -0.298283        -8.1167
  67   0.0000       0.034212         0.9310
  68   0.0000       0.057879         1.5750
  69   0.0000       0.110773         3.0143
  70   0.0000       0.116608         3.1731
  71   0.0000       0.132208         3.5976

MULLIKEN ATOMIC CHARGES
-----------------------
   0 S :    0.111984
   1 C :   -0.109266
   2 C :   -0.067478
   3 C :    0.033661
   4 C :   -0.150637
   5 H :    0.016999
   6 C :    0.031789
   7 H :    0.043598
   8 H :    0.021858
   9 C :   -0.077660
  10 H :    0.024588
  11 H :    0.023798
  12 C :   -0.066206
  13 H :    0.031535
  14 H :    0.024012
  15 H :    0.052193
  16 S :    0.100030
  17 C :   -0.105021
  18 C :   -0.031465
  19 C :   -0.021245
  20 C :   -0.188615
  21 H :    0.033977
  22 C :    0.072556
  23 H :    0.024000
  24 H :    0.023827
  25 C :   -0.129256
  26 H :    0.037490
  27 H :    0.034036
  28 C :   -0.011838
  29 H :    0.045582
  30 H :    0.023743
  31 H :    0.026593
  32 H :    0.046639
  33 H :    0.074198
Sum of atomic charges:    0.0000000

LOEWDIN ATOMIC CHARGES
----------------------
   0 S :    0.402718
   1 C :   -0.193197
   2 C :   -0.063646
   3 C :   -0.061865
   4 C :   -0.200422
   5 H :    0.035870
   6 C :   -0.046791
   7 H :    0.041018
   8 H :    0.034013
   9 C :   -0.043806
  10 H :    0.024838
  11 H :    0.019967
  12 C :   -0.071212
  13 H :    0.032095
  14 H :    0.018838
  15 H :    0.031731
  16 S :    0.400004
  17 C :   -0.177968
  18 C :   -0.075201
  19 C :   -0.054305
  20 C :   -0.201215
  21 H :    0.039145
  22 C :   -0.038017
  23 H :    0.031009
  24 H :    0.027295
  25 C :   -0.045005
  26 H :    0.030206
  27 H :    0.021924
  28 C :   -0.065134
  29 H :    0.023027
  30 H :    0.024531
  31 H :    0.035232
  32 H :    0.029282
  33 H :    0.035043

  Mayer bond orders larger than 0.100000
B(  0-S ,  1-C ) :   1.1324 B(  0-S ,  4-C ) :   1.1522 B(  1-C ,  2-C ) :   1.5872
B(  1-C ,  4-C ) :   0.1021 B(  1-C , 32-H ) :   0.9710 B(  2-C ,  3-C ) :   1.2434
B(  2-C ,  6-C ) :   1.0452 B(  3-C ,  4-C ) :   1.5828 B(  3-C ,  5-H ) :   0.9961
B(  4-C , 20-C ) :   1.0337 B(  6-C ,  7-H ) :   0.9471 B(  6-C ,  8-H ) :   0.9251
B(  6-C ,  9-C ) :   1.0548 B(  9-C , 10-H ) :   0.9555 B(  9-C , 11-H ) :   0.9588
B(  9-C , 12-C ) :   1.0802 B( 12-C , 13-H ) :   0.9744 B( 12-C , 14-H ) :   0.9733
B( 12-C , 15-H ) :   0.9787 B( 16-S , 17-C ) :   1.1589 B( 16-S , 20-C ) :   1.1425
B( 17-C , 18-C ) :   1.5890 B( 17-C , 20-C ) :   0.1057 B( 17-C , 33-H ) :   0.9669
B( 18-C , 19-C ) :   1.2432 B( 18-C , 21-H ) :   0.9867 B( 19-C , 20-C ) :   1.5910
B( 19-C , 22-C ) :   1.0433 B( 22-C , 23-H ) :   0.9353 B( 22-C , 24-H ) :   0.9364
B( 22-C , 25-C ) :   1.0725 B( 25-C , 26-H ) :   0.9556 B( 25-C , 27-H ) :   0.9649
B( 25-C , 28-C ) :   1.0530 B( 28-C , 29-H ) :   0.9796 B( 28-C , 30-H ) :   0.9772
B( 28-C , 31-H ) :   0.9726

Dispersion correction           -0.014415093
FINAL SINGLE POINT ENERGY     -1339.877211520338

DIPOLE MOMENT
-------------
                                X             Y             Z
Electronic contribution:     13.75070      -2.96992      13.22501
Nuclear contribution   :    -13.99624       3.25165     -13.61650
                        -----------------------------------------
Total Dipole Moment    :     -0.24554       0.28173      -0.39149
                        -----------------------------------------
Magnitude (a.u.)       :      0.54122
Magnitude (Debye)      :      1.37568

Rotational constants in cm-1:     0.022699     0.007172     0.006734
Rotational constants in MHz :   680.496695   215.006757   201.893941

                             ****ORCA TERMINATED NORMALLY****
TOTAL RUN TIME: 0 days 0 hours 0 minutes 34 seconds 166 msec
