                         Program Version 4.2.1 -  RELEASE  -
|  1> ! wB97X-D3 SP def2-SVP
|  2> %pal
|  3> nprocs 16
|  4> end
|  5>
|  6> * xyz 0 1
|  7> S 	 -26.9054 	 64.0576 	 105.283
|  8> C 	 -28.6036 	 64.2957 	 105.34
|  9> C 	 -29.1415 	 63.3419 	 106.13
| 10> C 	 -28.2206 	 62.2545 	 106.503
| 11> C 	 -26.942 	 62.5189 	 106.157
| 12> H 	 -28.4161 	 61.389 	 107.08
| 13> C 	 -30.569 	 63.3253 	 106.497
| 14> H 	 -30.8642 	 64.0872 	 107.255
| 15> H 	 -30.6885 	 62.4251 	 107.08
| 16> C 	 -31.5491 	 63.3151 	 105.324
| 17> H 	 -32.5426 	 63.3142 	 105.699
| 18> H 	 -31.4957 	 64.1842 	 104.677
| 19> C 	 -31.568 	 62.0289 	 104.444
| 20> H 	 -31.8381 	 61.1379 	 105.014
| 21> H 	 -32.2119 	 62.0454 	 103.547
| 22> H 	 -30.527 	 61.8629 	 104.071
| 23> S 	 -24.6309 	 62.33 	 107.704
| 24> C 	 -23.4948 	 60.9584 	 107.418
| 25> C 	 -24.0178 	 60.1701 	 106.42
| 26> C 	 -25.3529 	 60.5092 	 106.06
| 27> C 	 -25.7531 	 61.7502 	 106.539
| 28> H 	 -23.5397 	 59.2682 	 106.036
| 29> C 	 -26.2109 	 59.7151 	 105.021
| 30> H 	 -25.9128 	 59.9725 	 103.995
| 31> H 	 -27.1781 	 60.1258 	 105.005
| 32> C 	 -26.4335 	 58.2096 	 105.213
| 33> H 	 -25.6048 	 57.6589 	 104.776
| 34> H 	 -27.2787 	 57.8793 	 104.677
| 35> C 	 -26.6593 	 57.8183 	 106.737
| 36> H 	 -25.9039 	 58.3625 	 107.307
| 37> H 	 -26.604 	 56.7447 	 106.844
| 38> H 	 -27.6015 	 58.0795 	 107.151
| 39> H 	 -29.1752 	 65.099 	 104.796
| 40> H 	 -22.484 	 60.93 	 107.746
| 41> *
| 42>
| 43>                          ****END OF INPUT****

CARTESIAN COORDINATES (ANGSTROEM)
---------------------------------
  S    -26.905400   64.057600  105.283000
  C    -28.603600   64.295700  105.340000
  C    -29.141500   63.341900  106.130000
  C    -28.220600   62.254500  106.503000
  C    -26.942000   62.518900  106.157000
  H    -28.416100   61.389000  107.080000
  C    -30.569000   63.325300  106.497000
  H    -30.864200   64.087200  107.255000
  H    -30.688500   62.425100  107.080000
  C    -31.549100   63.315100  105.324000
  H    -32.542600   63.314200  105.699000
  H    -31.495700   64.184200  104.677000
  C    -31.568000   62.028900  104.444000
  H    -31.838100   61.137900  105.014000
  H    -32.211900   62.045400  103.547000
  H    -30.527000   61.862900  104.071000
  S    -24.630900   62.330000  107.704000
  C    -23.494800   60.958400  107.418000
  C    -24.017800   60.170100  106.420000
  C    -25.352900   60.509200  106.060000
  C    -25.753100   61.750200  106.539000
  H    -23.539700   59.268200  106.036000
  C    -26.210900   59.715100  105.021000
  H    -25.912800   59.972500  103.995000
  H    -27.178100   60.125800  105.005000
  C    -26.433500   58.209600  105.213000
  H    -25.604800   57.658900  104.776000
  H    -27.278700   57.879300  104.677000
  C    -26.659300   57.818300  106.737000
  H    -25.903900   58.362500  107.307000
  H    -26.604000   56.744700  106.844000
  H    -27.601500   58.079500  107.151000
  H    -29.175200   65.099000  104.796000
  H    -22.484000   60.930000  107.746000

 Total Charge           Charge          ....    0
 Multiplicity           Mult            ....    1
 Number of Electrons    NEL             ....  134
 Basis Dimension        Dim             ....  322

ORBITAL ENERGIES
----------------

  NO   OCC          E(Eh)            E(eV)
   0   2.0000     -88.966868     -2420.9116
   1   2.0000     -88.961618     -2420.7687
   2   2.0000     -10.329378      -281.0767
   3   2.0000     -10.327288      -281.0198
   4   2.0000     -10.321176      -280.8535
   5   2.0000     -10.314879      -280.6821
   6   2.0000     -10.304622      -280.4030
   7   2.0000     -10.297922      -280.2207
   8   2.0000     -10.297715      -280.2151
   9   2.0000     -10.294050      -280.1153
  10   2.0000     -10.289157      -279.9822
  11   2.0000     -10.285832      -279.8917
  12   2.0000     -10.285754      -279.8896
  13   2.0000     -10.284327      -279.8508
  14   2.0000     -10.280499      -279.7466
  15   2.0000     -10.272918      -279.5403
  16   2.0000      -8.081287      -219.9030
  17   2.0000      -8.076961      -219.7853
  18   2.0000      -6.039856      -164.3528
  19   2.0000      -6.035782      -164.2420
  20   2.0000      -6.035592      -164.2368
  21   2.0000      -6.032032      -164.1399
  22   2.0000      -6.031286      -164.1196
  23   2.0000      -6.027606      -164.0195
  24   2.0000      -1.009962       -27.4825
  25   2.0000      -0.988312       -26.8933
  26   2.0000      -0.913259       -24.8510
  27   2.0000      -0.900603       -24.5067
  28   2.0000      -0.874502       -23.7964
  29   2.0000      -0.845023       -22.9942
  30   2.0000      -0.840168       -22.8621
  31   2.0000      -0.821279       -22.3481
  32   2.0000      -0.782023       -21.2799
  33   2.0000      -0.772991       -21.0341
  34   2.0000      -0.708169       -19.2703
  35   2.0000      -0.704834       -19.1795
  36   2.0000      -0.698502       -19.0072
  37   2.0000      -0.659416       -17.9436
  38   2.0000      -0.646543       -17.5933
  39   2.0000      -0.609557       -16.5869
  40   2.0000      -0.595327       -16.1997
  41   2.0000      -0.580113       -15.7857
  42   2.0000      -0.551168       -14.9980
  43   2.0000      -0.549332       -14.9481
  44   2.0000      -0.545288       -14.8380
  45   2.0000      -0.536639       -14.6027
  46   2.0000      -0.521787       -14.1986
  47   2.0000      -0.515277       -14.0214
  48   2.0000      -0.504006       -13.7147
  49   2.0000      -0.496505       -13.5106
  50   2.0000      -0.487607       -13.2685
  51   2.0000      -0.473703       -12.8901
  52   2.0000      -0.471055       -12.8181
  53   2.0000      -0.466327       -12.6894
  54   2.0000      -0.465616       -12.6701
  55   2.0000      -0.448920       -12.2157
  56   2.0000      -0.444061       -12.0835
  57   2.0000      -0.435494       -11.8504
  58   2.0000      -0.433058       -11.7841
  59   2.0000      -0.418801       -11.3961
  60   2.0000      -0.417055       -11.3486
  61   2.0000      -0.412211       -11.2168
  62   2.0000      -0.408930       -11.1275
  63   2.0000      -0.347496        -9.4558
  64   2.0000      -0.332475        -9.0471
  65   2.0000      -0.323246        -8.7960
  66   2.0000      -0.303729        -8.2649
  67   0.0000       0.037567         1.0223
  68   0.0000       0.059858         1.6288
  69   0.0000       0.117346         3.1932
  70   0.0000       0.123688         3.3657
  71   0.0000       0.126921         3.4537

MULLIKEN ATOMIC CHARGES
-----------------------
   0 S :    0.107547
   1 C :   -0.140162
   2 C :   -0.103102
   3 C :    0.069859
   4 C :   -0.166077
   5 H :    0.003578
   6 C :    0.082768
   7 H :    0.047404
   8 H :   -0.000098
   9 C :   -0.053518
  10 H :    0.017364
  11 H :    0.024778
  12 C :   -0.086803
  13 H :    0.028320
  14 H :    0.040840
  15 H :    0.036822
  16 S :    0.108793
  17 C :   -0.091755
  18 C :   -0.010583
  19 C :   -0.093062
  20 C :   -0.153245
  21 H :    0.029155
  22 C :    0.101767
  23 H :    0.035526
  24 H :   -0.001984
  25 C :   -0.062236
  26 H :    0.025570
  27 H :    0.020414
  28 C :   -0.051446
  29 H :    0.045399
  30 H :    0.031415
  31 H :    0.019894
  32 H :    0.078194
  33 H :    0.058664
Sum of atomic charges:    0.0000000

LOEWDIN ATOMIC CHARGES
----------------------
   0 S :    0.405314
   1 C :   -0.206759
   2 C :   -0.072781
   3 C :   -0.053883
   4 C :   -0.185957
   5 H :    0.027974
   6 C :   -0.039098
   7 H :    0.041089
   8 H :    0.027447
   9 C :   -0.037765
  10 H :    0.020784
  11 H :    0.019900
  12 C :   -0.071785
  13 H :    0.022139
  14 H :    0.028506
  15 H :    0.026026
  16 S :    0.403539
  17 C :   -0.169967
  18 C :   -0.065108
  19 C :   -0.059747
  20 C :   -0.208952
  21 H :    0.035395
  22 C :   -0.034815
  23 H :    0.036355
  24 H :    0.022983
  25 C :   -0.034721
  26 H :    0.019436
  27 H :    0.020302
  28 C :   -0.061095
  29 H :    0.027801
  30 H :    0.024862
  31 H :    0.017817
  32 H :    0.047641
  33 H :    0.027121

  Mayer bond orders larger than 0.100000
B(  0-S ,  1-C ) :   1.1352 B(  0-S ,  4-C ) :   1.1394 B(  1-C ,  2-C ) :   1.6213
B(  1-C , 32-H ) :   0.9665 B(  2-C ,  3-C ) :   1.2048 B(  2-C ,  6-C ) :   1.0325
B(  3-C ,  4-C ) :   1.6116 B(  3-C ,  5-H ) :   0.9974 B(  4-C , 20-C ) :   1.0149
B(  6-C ,  7-H ) :   0.9326 B(  6-C ,  8-H ) :   0.9342 B(  6-C ,  9-C ) :   1.0774
B(  9-C , 10-H ) :   0.9530 B(  9-C , 11-H ) :   0.9588 B(  9-C , 12-C ) :   1.0680
B( 12-C , 13-H ) :   0.9760 B( 12-C , 14-H ) :   0.9761 B( 12-C , 15-H ) :   0.9778
B( 16-S , 17-C ) :   1.1397 B( 16-S , 20-C ) :   1.1600 B( 17-C , 18-C ) :   1.6038
B( 17-C , 20-C ) :   0.1016 B( 17-C , 33-H ) :   0.9714 B( 18-C , 19-C ) :   1.2541
B( 18-C , 21-H ) :   0.9833 B( 19-C , 20-C ) :   1.5918 B( 19-C , 22-C ) :   1.0395
B( 22-C , 23-H ) :   0.9358 B( 22-C , 24-H ) :   0.9238 B( 22-C , 25-C ) :   1.0695
B( 25-C , 26-H ) :   0.9585 B( 25-C , 27-H ) :   0.9576 B( 25-C , 28-C ) :   1.0700
B( 28-C , 29-H ) :   0.9729 B( 28-C , 30-H ) :   0.9760 B( 28-C , 31-H ) :   0.9780

Dispersion correction           -0.015067763
FINAL SINGLE POINT ENERGY     -1339.871612180355

DIPOLE MOMENT
-------------
                                X             Y             Z
Electronic contribution:     20.43830      17.20683       6.40479
Nuclear contribution   :    -20.89428     -17.58294      -6.56069
                        -----------------------------------------
Total Dipole Moment    :     -0.45598      -0.37611      -0.15589
                        -----------------------------------------
Magnitude (a.u.)       :      0.61129
Magnitude (Debye)      :      1.55377

Rotational constants in cm-1:     0.020030     0.008825     0.006864
Rotational constants in MHz :   600.497965   264.561443   205.791917

                             ****ORCA TERMINATED NORMALLY****
TOTAL RUN TIME: 0 days 0 hours 0 minutes 30 seconds 873 msec
