                         Program Version 4.2.1 -  RELEASE  -
|  1> ! wB97X-D3 SP def2-SVP
|  2> %pal
|  3> nprocs 16
|  4> end
|  5>
|  6> * xyz 0 1
|  7> S 	 -34.3854 	 46.3239 	 96.5606
|  8> C 	 -33.2205 	 45.2186 	 95.8126
|  9> C 	 -32.7227 	 45.7603 	 94.5925
| 10> C 	 -33.24 	 47.0505 	 94.3467
| 11> C 	 -34.2993 	 47.4414 	 95.2115
| 12> H 	 -32.9155 	 47.6217 	 93.5192
| 13> C 	 -31.688 	 45.0631 	 93.7302
| 14> H 	 -31.991 	 45.3193 	 92.6867
| 15> H 	 -31.6091 	 44.0219 	 93.9027
| 16> C 	 -30.2187 	 45.4681 	 94.1004
| 17> H 	 -30.2798 	 46.5552 	 94.155
| 18> H 	 -30.1054 	 45.2042 	 95.1171
| 19> C 	 -29.104 	 45.0579 	 93.1058
| 20> H 	 -28.2811 	 45.5143 	 93.4855
| 21> H 	 -29.021 	 43.9573 	 93.1483
| 22> H 	 -29.3757 	 45.4177 	 92.142
| 23> S 	 -36.9418 	 48.1475 	 95.0941
| 24> C 	 -37.3684 	 49.8042 	 94.8813
| 25> C 	 -36.239 	 50.6396 	 94.7447
| 26> C 	 -35.0411 	 49.9195 	 94.9421
| 27> C 	 -35.2384 	 48.5351 	 95.1215
| 28> H 	 -36.3973 	 51.6423 	 94.3774
| 29> C 	 -33.6612 	 50.5244 	 94.737
| 30> H 	 -33.7841 	 51.538 	 94.3999
| 31> H 	 -33.1831 	 49.9635 	 93.8625
| 32> C 	 -32.696 	 50.4967 	 95.969
| 33> H 	 -32.6548 	 49.5241 	 96.4806
| 34> H 	 -33.0683 	 51.0803 	 96.8371
| 35> C 	 -31.207 	 50.8929 	 95.8396
| 36> H 	 -30.8285 	 50.8233 	 96.8326
| 37> H 	 -31.088 	 51.8529 	 95.6189
| 38> H 	 -30.6089 	 50.2064 	 95.1868
| 39> H 	 -32.6631 	 44.3965 	 96.2339
| 40> H 	 -38.3382 	 50.2379 	 94.9416
| 41> *
| 42>
| 43>                          ****END OF INPUT****

CARTESIAN COORDINATES (ANGSTROEM)
---------------------------------
  S    -34.385400   46.323900   96.560600
  C    -33.220500   45.218600   95.812600
  C    -32.722700   45.760300   94.592500
  C    -33.240000   47.050500   94.346700
  C    -34.299300   47.441400   95.211500
  H    -32.915500   47.621700   93.519200
  C    -31.688000   45.063100   93.730200
  H    -31.991000   45.319300   92.686700
  H    -31.609100   44.021900   93.902700
  C    -30.218700   45.468100   94.100400
  H    -30.279800   46.555200   94.155000
  H    -30.105400   45.204200   95.117100
  C    -29.104000   45.057900   93.105800
  H    -28.281100   45.514300   93.485500
  H    -29.021000   43.957300   93.148300
  H    -29.375700   45.417700   92.142000
  S    -36.941800   48.147500   95.094100
  C    -37.368400   49.804200   94.881300
  C    -36.239000   50.639600   94.744700
  C    -35.041100   49.919500   94.942100
  C    -35.238400   48.535100   95.121500
  H    -36.397300   51.642300   94.377400
  C    -33.661200   50.524400   94.737000
  H    -33.784100   51.538000   94.399900
  H    -33.183100   49.963500   93.862500
  C    -32.696000   50.496700   95.969000
  H    -32.654800   49.524100   96.480600
  H    -33.068300   51.080300   96.837100
  C    -31.207000   50.892900   95.839600
  H    -30.828500   50.823300   96.832600
  H    -31.088000   51.852900   95.618900
  H    -30.608900   50.206400   95.186800
  H    -32.663100   44.396500   96.233900
  H    -38.338200   50.237900   94.941600

 Total Charge           Charge          ....    0
 Multiplicity           Mult            ....    1
 Number of Electrons    NEL             ....  134
 Basis Dimension        Dim             ....  322

ORBITAL ENERGIES
----------------

  NO   OCC          E(Eh)            E(eV)
   0   2.0000     -88.970966     -2421.0231
   1   2.0000     -88.970302     -2421.0050
   2   2.0000     -10.334785      -281.2238
   3   2.0000     -10.325508      -280.9714
   4   2.0000     -10.316005      -280.7128
   5   2.0000     -10.315182      -280.6904
   6   2.0000     -10.304795      -280.4077
   7   2.0000     -10.303411      -280.3701
   8   2.0000     -10.297790      -280.2171
   9   2.0000     -10.296387      -280.1789
  10   2.0000     -10.294770      -280.1349
  11   2.0000     -10.292855      -280.0828
  12   2.0000     -10.285247      -279.8758
  13   2.0000     -10.283953      -279.8406
  14   2.0000     -10.276341      -279.6335
  15   2.0000     -10.266785      -279.3734
  16   2.0000      -8.085081      -220.0062
  17   2.0000      -8.084597      -219.9931
  18   2.0000      -6.043429      -164.4501
  19   2.0000      -6.043076      -164.4405
  20   2.0000      -6.039439      -164.3415
  21   2.0000      -6.039088      -164.3319
  22   2.0000      -6.036140      -164.2517
  23   2.0000      -6.035620      -164.2376
  24   2.0000      -1.004790       -27.3417
  25   2.0000      -0.980054       -26.6686
  26   2.0000      -0.911701       -24.8086
  27   2.0000      -0.899627       -24.4801
  28   2.0000      -0.867981       -23.6190
  29   2.0000      -0.854515       -23.2525
  30   2.0000      -0.847991       -23.0750
  31   2.0000      -0.813238       -22.1293
  32   2.0000      -0.787569       -21.4308
  33   2.0000      -0.771149       -20.9840
  34   2.0000      -0.709037       -19.2939
  35   2.0000      -0.701290       -19.0831
  36   2.0000      -0.691264       -18.8103
  37   2.0000      -0.663003       -18.0412
  38   2.0000      -0.636988       -17.3333
  39   2.0000      -0.625454       -17.0195
  40   2.0000      -0.590286       -16.0625
  41   2.0000      -0.568724       -15.4758
  42   2.0000      -0.566010       -15.4019
  43   2.0000      -0.555038       -15.1034
  44   2.0000      -0.534795       -14.5525
  45   2.0000      -0.524504       -14.2725
  46   2.0000      -0.518532       -14.1100
  47   2.0000      -0.509215       -13.8565
  48   2.0000      -0.503751       -13.7078
  49   2.0000      -0.499407       -13.5896
  50   2.0000      -0.491476       -13.3737
  51   2.0000      -0.488609       -13.2957
  52   2.0000      -0.472370       -12.8538
  53   2.0000      -0.471940       -12.8422
  54   2.0000      -0.462147       -12.5756
  55   2.0000      -0.451557       -12.2875
  56   2.0000      -0.440496       -11.9865
  57   2.0000      -0.439798       -11.9675
  58   2.0000      -0.432638       -11.7727
  59   2.0000      -0.422907       -11.5079
  60   2.0000      -0.421671       -11.4742
  61   2.0000      -0.412881       -11.2351
  62   2.0000      -0.408399       -11.1131
  63   2.0000      -0.339777        -9.2458
  64   2.0000      -0.332193        -9.0394
  65   2.0000      -0.329357        -8.9622
  66   2.0000      -0.285976        -7.7818
  67   0.0000       0.023376         0.6361
  68   0.0000       0.061032         1.6608
  69   0.0000       0.113138         3.0786
  70   0.0000       0.115982         3.1560
  71   0.0000       0.123092         3.3495

MULLIKEN ATOMIC CHARGES
-----------------------
   0 S :    0.125508
   1 C :   -0.099366
   2 C :   -0.135875
   3 C :    0.069223
   4 C :   -0.171632
   5 H :   -0.007407
   6 C :    0.062701
   7 H :    0.035462
   8 H :    0.014566
   9 C :   -0.112084
  10 H :    0.010535
  11 H :    0.009468
  12 C :    0.045368
  13 H :    0.020595
  14 H :    0.035206
  15 H :    0.028244
  16 S :    0.139187
  17 C :   -0.091267
  18 C :   -0.061299
  19 C :   -0.006410
  20 C :   -0.169604
  21 H :    0.025405
  22 C :    0.088371
  23 H :    0.009928
  24 H :    0.038917
  25 C :   -0.116681
  26 H :    0.033409
  27 H :    0.021886
  28 C :    0.009883
  29 H :    0.017179
  30 H :   -0.000950
  31 H :    0.036400
  32 H :    0.045882
  33 H :    0.049252
Sum of atomic charges:   -0.0000000

LOEWDIN ATOMIC CHARGES
----------------------
   0 S :    0.412659
   1 C :   -0.205710
   2 C :   -0.057778
   3 C :   -0.055931
   4 C :   -0.194789
   5 H :    0.021175
   6 C :   -0.031702
   7 H :    0.033835
   8 H :    0.023592
   9 C :   -0.036403
  10 H :    0.016976
  11 H :    0.015253
  12 C :   -0.043541
  13 H :    0.016648
  14 H :    0.029880
  15 H :    0.024705
  16 S :    0.438100
  17 C :   -0.194546
  18 C :   -0.072815
  19 C :   -0.054250
  20 C :   -0.214377
  21 H :    0.033820
  22 C :   -0.032390
  23 H :    0.025044
  24 H :    0.038314
  25 C :   -0.049232
  26 H :    0.026651
  27 H :    0.027344
  28 C :   -0.052789
  29 H :    0.028882
  30 H :    0.001892
  31 H :    0.028680
  32 H :    0.028023
  33 H :    0.024780

  Mayer bond orders larger than 0.100000
B(  0-S ,  1-C ) :   1.1434 B(  0-S ,  4-C ) :   1.1695 B(  1-C ,  2-C ) :   1.5650
B(  1-C ,  4-C ) :   0.1198 B(  1-C , 32-H ) :   0.9631 B(  2-C ,  3-C ) :   1.3021
B(  2-C ,  6-C ) :   1.0382 B(  3-C ,  4-C ) :   1.5040 B(  3-C ,  5-H ) :   0.9939
B(  4-C , 20-C ) :   1.0599 B(  6-C ,  7-H ) :   0.9402 B(  6-C ,  8-H ) :   0.9435
B(  6-C ,  9-C ) :   1.0468 B(  9-C , 10-H ) :   0.9598 B(  9-C , 11-H ) :   0.9558
B(  9-C , 12-C ) :   1.0657 B( 12-C , 13-H ) :   0.9720 B( 12-C , 14-H ) :   0.9760
B( 12-C , 15-H ) :   0.9741 B( 16-S , 17-C ) :   1.1848 B( 16-S , 20-C ) :   1.1611
B( 17-C , 18-C ) :   1.5664 B( 17-C , 20-C ) :   0.1127 B( 17-C , 33-H ) :   0.9678
B( 18-C , 19-C ) :   1.2871 B( 18-C , 21-H ) :   0.9900 B( 19-C , 20-C ) :   1.5332
B( 19-C , 22-C ) :   1.0425 B( 22-C , 23-H ) :   0.9320 B( 22-C , 24-H ) :   0.9393
B( 22-C , 25-C ) :   1.0406 B( 25-C , 26-H ) :   0.9611 B( 25-C , 27-H ) :   0.9528
B( 25-C , 28-C ) :   1.0933 B( 28-C , 29-H ) :   0.9681 B( 28-C , 30-H ) :   0.9738
B( 28-C , 31-H ) :   0.9741

Dispersion correction           -0.014354596
FINAL SINGLE POINT ENERGY     -1339.851803931347

DIPOLE MOMENT
-------------
                                X             Y             Z
Electronic contribution:    -29.74887      -3.95256       7.18192
Nuclear contribution   :     30.31585       4.20402      -7.45628
                        -----------------------------------------
Total Dipole Moment    :      0.56698       0.25147      -0.27436
                        -----------------------------------------
Magnitude (a.u.)       :      0.67821
Magnitude (Debye)      :      1.72388

Rotational constants in cm-1:     0.018960     0.008498     0.006753
Rotational constants in MHz :   568.414928   254.777233   202.453646

                             ****ORCA TERMINATED NORMALLY****
TOTAL RUN TIME: 0 days 0 hours 0 minutes 30 seconds 473 msec
