                         Program Version 4.2.1 -  RELEASE  -
|  1> ! wB97X-D3 SP def2-SVP
|  2> %pal
|  3> nprocs 16
|  4> end
|  5>
|  6> * xyz 0 1
|  7> S 	 17.3488 	 1.4686 	 86.7286
|  8> C 	 18.2912 	 2.94692 	 86.703
|  9> C 	 17.8515 	 3.8596 	 87.6085
| 10> C 	 16.6832 	 3.38226 	 88.3231
| 11> C 	 16.2832 	 2.11344 	 87.962
| 12> H 	 16.2503 	 3.89623 	 89.1596
| 13> C 	 18.3399 	 5.25213 	 87.9108
| 14> H 	 18.8693 	 5.58054 	 86.9415
| 15> H 	 19.1527 	 5.35287 	 88.7092
| 16> C 	 17.2191 	 6.36851 	 88.2308
| 17> H 	 16.3746 	 6.34935 	 87.4998
| 18> H 	 16.7437 	 6.11934 	 89.2275
| 19> C 	 17.7481 	 7.76245 	 88.3947
| 20> H 	 17.0731 	 8.41722 	 88.9247
| 21> H 	 18.7369 	 7.70485 	 88.8515
| 22> H 	 17.9499 	 8.17677 	 87.4183
| 23> S 	 15.758 	 0.677401 	 90.1517
| 24> C 	 14.3502 	 -0.398121 	 90.0814
| 25> C 	 13.5831 	 -0.167312 	 88.9495
| 26> C 	 14.1817 	 0.69435 	 87.996
| 27> C 	 15.2824 	 1.30741 	 88.5717
| 28> H 	 12.7259 	 -0.810164 	 88.907
| 29> C 	 13.5484 	 0.998162 	 86.6312
| 30> H 	 12.6224 	 0.470049 	 86.4603
| 31> H 	 14.2002 	 0.578494 	 85.8438
| 32> C 	 13.2815 	 2.47201 	 86.4137
| 33> H 	 14.2238 	 3.0968 	 86.6333
| 34> H 	 12.5698 	 2.77642 	 87.2084
| 35> C 	 12.5843 	 2.70301 	 85.0085
| 36> H 	 13.3137 	 2.78817 	 84.1652
| 37> H 	 12.0223 	 3.64948 	 85.0674
| 38> H 	 11.9017 	 1.84339 	 84.8423
| 39> H 	 19.1557 	 2.96799 	 86.0092
| 40> H 	 14.0081 	 -1.02273 	 90.9108
| 41> *
| 42>
| 43>                          ****END OF INPUT****

CARTESIAN COORDINATES (ANGSTROEM)
---------------------------------
  S     17.348800    1.468600   86.728600
  C     18.291200    2.946920   86.703000
  C     17.851500    3.859600   87.608500
  C     16.683200    3.382260   88.323100
  C     16.283200    2.113440   87.962000
  H     16.250300    3.896230   89.159600
  C     18.339900    5.252130   87.910800
  H     18.869300    5.580540   86.941500
  H     19.152700    5.352870   88.709200
  C     17.219100    6.368510   88.230800
  H     16.374600    6.349350   87.499800
  H     16.743700    6.119340   89.227500
  C     17.748100    7.762450   88.394700
  H     17.073100    8.417220   88.924700
  H     18.736900    7.704850   88.851500
  H     17.949900    8.176770   87.418300
  S     15.758000    0.677401   90.151700
  C     14.350200   -0.398121   90.081400
  C     13.583100   -0.167312   88.949500
  C     14.181700    0.694350   87.996000
  C     15.282400    1.307410   88.571700
  H     12.725900   -0.810164   88.907000
  C     13.548400    0.998162   86.631200
  H     12.622400    0.470049   86.460300
  H     14.200200    0.578494   85.843800
  C     13.281500    2.472010   86.413700
  H     14.223800    3.096800   86.633300
  H     12.569800    2.776420   87.208400
  C     12.584300    2.703010   85.008500
  H     13.313700    2.788170   84.165200
  H     12.022300    3.649480   85.067400
  H     11.901700    1.843390   84.842300
  H     19.155700    2.967990   86.009200
  H     14.008100   -1.022730   90.910800

 Total Charge           Charge          ....    0
 Multiplicity           Mult            ....    1
 Number of Electrons    NEL             ....  134
 Basis Dimension        Dim             ....  322

ORBITAL ENERGIES
----------------

  NO   OCC          E(Eh)            E(eV)
   0   2.0000     -88.966684     -2420.9066
   1   2.0000     -88.961734     -2420.7718
   2   2.0000     -10.322365      -280.8858
   3   2.0000     -10.321217      -280.8546
   4   2.0000     -10.317684      -280.7584
   5   2.0000     -10.316509      -280.7265
   6   2.0000     -10.309378      -280.5324
   7   2.0000     -10.306225      -280.4466
   8   2.0000     -10.302382      -280.3421
   9   2.0000     -10.296991      -280.1954
  10   2.0000     -10.291905      -280.0570
  11   2.0000     -10.291767      -280.0532
  12   2.0000     -10.289732      -279.9978
  13   2.0000     -10.289186      -279.9830
  14   2.0000     -10.285481      -279.8822
  15   2.0000     -10.275601      -279.6133
  16   2.0000      -8.080807      -219.8899
  17   2.0000      -8.076726      -219.7789
  18   2.0000      -6.039258      -164.3366
  19   2.0000      -6.035450      -164.2330
  20   2.0000      -6.035253      -164.2276
  21   2.0000      -6.031603      -164.1283
  22   2.0000      -6.031207      -164.1175
  23   2.0000      -6.027445      -164.0151
  24   2.0000      -1.006882       -27.3986
  25   2.0000      -0.980877       -26.6910
  26   2.0000      -0.904664       -24.6172
  27   2.0000      -0.903773       -24.5929
  28   2.0000      -0.873485       -23.7687
  29   2.0000      -0.849990       -23.1294
  30   2.0000      -0.842624       -22.9290
  31   2.0000      -0.810443       -22.0533
  32   2.0000      -0.778677       -21.1889
  33   2.0000      -0.766455       -20.8563
  34   2.0000      -0.708885       -19.2898
  35   2.0000      -0.692836       -18.8530
  36   2.0000      -0.683584       -18.6013
  37   2.0000      -0.660577       -17.9752
  38   2.0000      -0.640974       -17.4418
  39   2.0000      -0.618902       -16.8412
  40   2.0000      -0.594871       -16.1873
  41   2.0000      -0.566444       -15.4137
  42   2.0000      -0.559014       -15.2115
  43   2.0000      -0.553054       -15.0494
  44   2.0000      -0.527577       -14.3561
  45   2.0000      -0.518349       -14.1050
  46   2.0000      -0.510442       -13.8898
  47   2.0000      -0.508031       -13.8242
  48   2.0000      -0.504118       -13.7177
  49   2.0000      -0.499365       -13.5884
  50   2.0000      -0.485010       -13.1978
  51   2.0000      -0.477743       -13.0001
  52   2.0000      -0.472080       -12.8459
  53   2.0000      -0.465725       -12.6730
  54   2.0000      -0.454463       -12.3666
  55   2.0000      -0.449349       -12.2274
  56   2.0000      -0.440526       -11.9873
  57   2.0000      -0.435353       -11.8466
  58   2.0000      -0.428158       -11.6508
  59   2.0000      -0.426561       -11.6073
  60   2.0000      -0.423071       -11.5124
  61   2.0000      -0.410326       -11.1655
  62   2.0000      -0.407618       -11.0919
  63   2.0000      -0.337803        -9.1921
  64   2.0000      -0.330183        -8.9847
  65   2.0000      -0.325342        -8.8530
  66   2.0000      -0.301554        -8.2057
  67   0.0000       0.037125         1.0102
  68   0.0000       0.060536         1.6473
  69   0.0000       0.106137         2.8881
  70   0.0000       0.116720         3.1761
  71   0.0000       0.129427         3.5219

MULLIKEN ATOMIC CHARGES
-----------------------
   0 S :    0.108821
   1 C :   -0.161616
   2 C :   -0.021299
   3 C :    0.022481
   4 C :   -0.154479
   5 H :    0.006415
   6 C :   -0.002949
   7 H :    0.033914
   8 H :    0.058321
   9 C :   -0.133700
  10 H :    0.043518
  11 H :    0.038736
  12 C :   -0.010902
  13 H :    0.040878
  14 H :    0.022707
  15 H :    0.022858
  16 S :    0.119345
  17 C :   -0.115954
  18 C :   -0.027471
  19 C :   -0.006378
  20 C :   -0.185578
  21 H :    0.013107
  22 C :    0.095262
  23 H :    0.008021
  24 H :    0.033138
  25 C :   -0.132670
  26 H :    0.065348
  27 H :    0.033145
  28 C :   -0.058900
  29 H :    0.048556
  30 H :    0.041573
  31 H :    0.033477
  32 H :    0.060891
  33 H :    0.061384
Sum of atomic charges:   -0.0000000

LOEWDIN ATOMIC CHARGES
----------------------
   0 S :    0.399134
   1 C :   -0.192713
   2 C :   -0.072298
   3 C :   -0.059643
   4 C :   -0.199981
   5 H :    0.027963
   6 C :   -0.043536
   7 H :    0.035980
   8 H :    0.039677
   9 C :   -0.048757
  10 H :    0.027479
  11 H :    0.024777
  12 C :   -0.064370
  13 H :    0.028321
  14 H :    0.026360
  15 H :    0.023126
  16 S :    0.399701
  17 C :   -0.181124
  18 C :   -0.069051
  19 C :   -0.046509
  20 C :   -0.199941
  21 H :    0.030120
  22 C :   -0.034747
  23 H :    0.026029
  24 H :    0.033626
  25 C :   -0.050049
  26 H :    0.036358
  27 H :    0.025288
  28 C :   -0.069913
  29 H :    0.030430
  30 H :    0.028721
  31 H :    0.026387
  32 H :    0.032850
  33 H :    0.030304

  Mayer bond orders larger than 0.100000
B(  0-S ,  1-C ) :   1.1358 B(  0-S ,  4-C ) :   1.1368 B(  1-C ,  2-C ) :   1.6264
B(  1-C , 32-H ) :   0.9679 B(  2-C ,  3-C ) :   1.2176 B(  2-C ,  6-C ) :   1.0168
B(  3-C ,  4-C ) :   1.5835 B(  3-C ,  5-H ) :   1.0005 B(  4-C , 20-C ) :   1.0534
B(  6-C ,  7-H ) :   0.9512 B(  6-C ,  8-H ) :   0.9326 B(  6-C ,  9-C ) :   1.0545
B(  9-C , 10-H ) :   0.9605 B(  9-C , 11-H ) :   0.9493 B(  9-C , 12-C ) :   1.0868
B( 12-C , 13-H ) :   0.9731 B( 12-C , 14-H ) :   0.9691 B( 12-C , 15-H ) :   0.9722
B( 16-S , 17-C ) :   1.1455 B( 16-S , 20-C ) :   1.1464 B( 17-C , 18-C ) :   1.6401
B( 17-C , 20-C ) :   0.1044 B( 17-C , 33-H ) :   0.9612 B( 18-C , 19-C ) :   1.2184
B( 18-C , 21-H ) :   0.9882 B( 19-C , 20-C ) :   1.5846 B( 19-C , 22-C ) :   1.0364
B( 22-C , 23-H ) :   0.9343 B( 22-C , 24-H ) :   0.9234 B( 22-C , 25-C ) :   1.0633
B( 25-C , 26-H ) :   0.9519 B( 25-C , 27-H ) :   0.9569 B( 25-C , 28-C ) :   1.0633
B( 28-C , 29-H ) :   0.9773 B( 28-C , 30-H ) :   0.9776 B( 28-C , 31-H ) :   0.9732

Dispersion correction           -0.014340070
FINAL SINGLE POINT ENERGY     -1339.881126013256

DIPOLE MOMENT
-------------
                                X             Y             Z
Electronic contribution:      7.16047     -22.42845       9.03895
Nuclear contribution   :     -7.36115      22.72851      -9.09339
                        -----------------------------------------
Total Dipole Moment    :     -0.20068       0.30006      -0.05444
                        -----------------------------------------
Magnitude (a.u.)       :      0.36507
Magnitude (Debye)      :      0.92793

Rotational constants in cm-1:     0.017509     0.008552     0.007416
Rotational constants in MHz :   524.899040   256.388713   222.312821

                             ****ORCA TERMINATED NORMALLY****
TOTAL RUN TIME: 0 days 0 hours 0 minutes 34 seconds 304 msec
