                         Program Version 4.2.1 -  RELEASE  -
|  1> ! wB97X-D3 SP def2-SVP
|  2> %pal
|  3> nprocs 16
|  4> end
|  5>
|  6> * xyz 0 1
|  7> S 	 8.97855 	 -10.3533 	 64.1628
|  8> C 	 8.83836 	 -8.89216 	 63.2895
|  9> C 	 7.65253 	 -8.23574 	 63.6044
| 10> C 	 6.7293 	 -9.04147 	 64.3461
| 11> C 	 7.37689 	 -10.1912 	 64.9071
| 12> H 	 5.67517 	 -8.82106 	 64.5058
| 13> C 	 7.32429 	 -6.82602 	 63.1584
| 14> H 	 6.32064 	 -6.79891 	 62.8272
| 15> H 	 7.8934 	 -6.63352 	 62.2609
| 16> C 	 7.60974 	 -5.69146 	 64.1453
| 17> H 	 8.6765 	 -5.69443 	 64.4297
| 18> H 	 7.42748 	 -4.73103 	 63.7076
| 19> C 	 6.80161 	 -5.80057 	 65.5116
| 20> H 	 5.71711 	 -5.56336 	 65.376
| 21> H 	 6.85991 	 -6.80398 	 65.9454
| 22> H 	 7.26911 	 -5.1378 	 66.3447
| 23> S 	 7.93775 	 -12.2379 	 66.7532
| 24> C 	 6.78498 	 -12.8739 	 67.7814
| 25> C 	 5.54884 	 -12.3816 	 67.3435
| 26> C 	 5.58726 	 -11.4193 	 66.2851
| 27> C 	 6.83491 	 -11.1957 	 65.8705
| 28> H 	 4.66785 	 -12.7952 	 67.865
| 29> C 	 4.30725 	 -10.818 	 65.8375
| 30> H 	 4.3654 	 -9.68323 	 65.9355
| 31> H 	 3.48753 	 -11.1911 	 66.4525
| 32> C 	 3.95129 	 -11.1397 	 64.3721
| 33> H 	 3.8321 	 -12.2075 	 64.1713
| 34> H 	 4.83998 	 -10.92 	 63.7886
| 35> C 	 2.83928 	 -10.3891 	 63.7668
| 36> H 	 1.86624 	 -10.712 	 64.2407
| 37> H 	 2.63564 	 -10.5879 	 62.7189
| 38> H 	 3.00749 	 -9.31842 	 63.9381
| 39> H 	 9.57891 	 -8.30978 	 62.7185
| 40> H 	 6.90328 	 -13.6464 	 68.5145
| 41> *
| 42>
| 43>                          ****END OF INPUT****

CARTESIAN COORDINATES (ANGSTROEM)
---------------------------------
  S      8.978550  -10.353300   64.162800
  C      8.838360   -8.892160   63.289500
  C      7.652530   -8.235740   63.604400
  C      6.729300   -9.041470   64.346100
  C      7.376890  -10.191200   64.907100
  H      5.675170   -8.821060   64.505800
  C      7.324290   -6.826020   63.158400
  H      6.320640   -6.798910   62.827200
  H      7.893400   -6.633520   62.260900
  C      7.609740   -5.691460   64.145300
  H      8.676500   -5.694430   64.429700
  H      7.427480   -4.731030   63.707600
  C      6.801610   -5.800570   65.511600
  H      5.717110   -5.563360   65.376000
  H      6.859910   -6.803980   65.945400
  H      7.269110   -5.137800   66.344700
  S      7.937750  -12.237900   66.753200
  C      6.784980  -12.873900   67.781400
  C      5.548840  -12.381600   67.343500
  C      5.587260  -11.419300   66.285100
  C      6.834910  -11.195700   65.870500
  H      4.667850  -12.795200   67.865000
  C      4.307250  -10.818000   65.837500
  H      4.365400   -9.683230   65.935500
  H      3.487530  -11.191100   66.452500
  C      3.951290  -11.139700   64.372100
  H      3.832100  -12.207500   64.171300
  H      4.839980  -10.920000   63.788600
  C      2.839280  -10.389100   63.766800
  H      1.866240  -10.712000   64.240700
  H      2.635640  -10.587900   62.718900
  H      3.007490   -9.318420   63.938100
  H      9.578910   -8.309780   62.718500
  H      6.903280  -13.646400   68.514500

 Total Charge           Charge          ....    0
 Multiplicity           Mult            ....    1
 Number of Electrons    NEL             ....  134
 Basis Dimension        Dim             ....  322

ORBITAL ENERGIES
----------------

  NO   OCC          E(Eh)            E(eV)
   0   2.0000     -88.972365     -2421.0611
   1   2.0000     -88.964807     -2420.8555
   2   2.0000     -10.343877      -281.4712
   3   2.0000     -10.329422      -281.0779
   4   2.0000     -10.314921      -280.6833
   5   2.0000     -10.313722      -280.6506
   6   2.0000     -10.303664      -280.3770
   7   2.0000     -10.301656      -280.3223
   8   2.0000     -10.299067      -280.2519
   9   2.0000     -10.298582      -280.2387
  10   2.0000     -10.294582      -280.1298
  11   2.0000     -10.290525      -280.0194
  12   2.0000     -10.288252      -279.9576
  13   2.0000     -10.286706      -279.9155
  14   2.0000     -10.278827      -279.7011
  15   2.0000     -10.278245      -279.6853
  16   2.0000      -8.086761      -220.0520
  17   2.0000      -8.081009      -219.8954
  18   2.0000      -6.045318      -164.5015
  19   2.0000      -6.041258      -164.3910
  20   2.0000      -6.039416      -164.3409
  21   2.0000      -6.037545      -164.2899
  22   2.0000      -6.035196      -164.2260
  23   2.0000      -6.031874      -164.1356
  24   2.0000      -1.015820       -27.6419
  25   2.0000      -0.990899       -26.9637
  26   2.0000      -0.919305       -25.0156
  27   2.0000      -0.908206       -24.7135
  28   2.0000      -0.871012       -23.7015
  29   2.0000      -0.856975       -23.3195
  30   2.0000      -0.842186       -22.9170
  31   2.0000      -0.813101       -22.1256
  32   2.0000      -0.784444       -21.3458
  33   2.0000      -0.774254       -21.0685
  34   2.0000      -0.706295       -19.2193
  35   2.0000      -0.700786       -19.0694
  36   2.0000      -0.691830       -18.8256
  37   2.0000      -0.669956       -18.2304
  38   2.0000      -0.635220       -17.2852
  39   2.0000      -0.619858       -16.8672
  40   2.0000      -0.598295       -16.2804
  41   2.0000      -0.575156       -15.6508
  42   2.0000      -0.567594       -15.4450
  43   2.0000      -0.544210       -14.8087
  44   2.0000      -0.540241       -14.7007
  45   2.0000      -0.529895       -14.4192
  46   2.0000      -0.523157       -14.2358
  47   2.0000      -0.513424       -13.9710
  48   2.0000      -0.507749       -13.8166
  49   2.0000      -0.502340       -13.6694
  50   2.0000      -0.492333       -13.3971
  51   2.0000      -0.484378       -13.1806
  52   2.0000      -0.474177       -12.9030
  53   2.0000      -0.466613       -12.6972
  54   2.0000      -0.463583       -12.6147
  55   2.0000      -0.447129       -12.1670
  56   2.0000      -0.440189       -11.9781
  57   2.0000      -0.435258       -11.8440
  58   2.0000      -0.432426       -11.7669
  59   2.0000      -0.424224       -11.5437
  60   2.0000      -0.421629       -11.4731
  61   2.0000      -0.413330       -11.2473
  62   2.0000      -0.406081       -11.0500
  63   2.0000      -0.363826        -9.9002
  64   2.0000      -0.331968        -9.0333
  65   2.0000      -0.328864        -8.9489
  66   2.0000      -0.284840        -7.7509
  67   0.0000       0.020171         0.5489
  68   0.0000       0.083228         2.2647
  69   0.0000       0.106949         2.9102
  70   0.0000       0.117861         3.2072
  71   0.0000       0.128769         3.5040

MULLIKEN ATOMIC CHARGES
-----------------------
   0 S :    0.120584
   1 C :   -0.093044
   2 C :   -0.144750
   3 C :    0.016813
   4 C :   -0.139698
   5 H :    0.009028
   6 C :    0.097159
   7 H :    0.012756
   8 H :    0.011233
   9 C :   -0.039633
  10 H :    0.028502
  11 H :    0.030399
  12 C :   -0.123168
  13 H :    0.038785
  14 H :    0.048489
  15 H :    0.048015
  16 S :    0.107637
  17 C :   -0.078301
  18 C :   -0.073441
  19 C :   -0.049209
  20 C :   -0.100193
  21 H :    0.023374
  22 C :    0.059390
  23 H :    0.039156
  24 H :    0.019310
  25 C :   -0.091443
  26 H :    0.023548
  27 H :    0.028155
  28 C :   -0.028841
  29 H :    0.024636
  30 H :    0.037217
  31 H :    0.024793
  32 H :    0.054911
  33 H :    0.057833
Sum of atomic charges:    0.0000000

LOEWDIN ATOMIC CHARGES
----------------------
   0 S :    0.422455
   1 C :   -0.222983
   2 C :   -0.062789
   3 C :   -0.066054
   4 C :   -0.177420
   5 H :    0.028392
   6 C :   -0.030887
   7 H :    0.024556
   8 H :    0.029672
   9 C :   -0.035317
  10 H :    0.026736
  11 H :    0.021708
  12 C :   -0.082944
  13 H :    0.024474
  14 H :    0.024752
  15 H :    0.036722
  16 S :    0.434222
  17 C :   -0.208565
  18 C :   -0.077125
  19 C :   -0.067106
  20 C :   -0.193613
  21 H :    0.031672
  22 C :   -0.027405
  23 H :    0.035850
  24 H :    0.030528
  25 C :   -0.053551
  26 H :    0.026456
  27 H :    0.023418
  28 C :   -0.066891
  29 H :    0.027380
  30 H :    0.029122
  31 H :    0.022212
  32 H :    0.039010
  33 H :    0.033314

  Mayer bond orders larger than 0.100000
B(  0-S ,  1-C ) :   1.1418 B(  0-S ,  4-C ) :   1.1665 B(  1-C ,  2-C ) :   1.6105
B(  1-C ,  4-C ) :   0.1050 B(  1-C , 32-H ) :   0.9553 B(  2-C ,  3-C ) :   1.2676
B(  2-C ,  6-C ) :   1.0296 B(  3-C ,  4-C ) :   1.5220 B(  3-C ,  5-H ) :   0.9806
B(  4-C , 20-C ) :   1.0587 B(  6-C ,  7-H ) :   0.9391 B(  6-C ,  8-H ) :   0.9338
B(  6-C ,  9-C ) :   1.0705 B(  9-C , 10-H ) :   0.9556 B(  9-C , 11-H ) :   0.9578
B(  9-C , 12-C ) :   1.0654 B( 12-C , 13-H ) :   0.9772 B( 12-C , 14-H ) :   0.9731
B( 12-C , 15-H ) :   0.9753 B( 16-S , 17-C ) :   1.1839 B( 16-S , 20-C ) :   1.1338
B( 17-C , 18-C ) :   1.5757 B( 17-C , 33-H ) :   0.9721 B( 18-C , 19-C ) :   1.2633
B( 18-C , 21-H ) :   0.9874 B( 19-C , 20-C ) :   1.5958 B( 19-C , 22-C ) :   1.0527
B( 22-C , 23-H ) :   0.9266 B( 22-C , 24-H ) :   0.9268 B( 22-C , 25-C ) :   1.0590
B( 25-C , 26-H ) :   0.9453 B( 25-C , 27-H ) :   0.9534 B( 25-C , 28-C ) :   1.0982
B( 28-C , 29-H ) :   0.9693 B( 28-C , 30-H ) :   0.9691 B( 28-C , 31-H ) :   0.9695

Dispersion correction           -0.014881958
FINAL SINGLE POINT ENERGY     -1339.878409613838

DIPOLE MOMENT
-------------
                                X             Y             Z
Electronic contribution:     19.70960     -19.08865       5.81704
Nuclear contribution   :    -20.18663      19.33346      -5.88440
                        -----------------------------------------
Total Dipole Moment    :     -0.47703       0.24481      -0.06736
                        -----------------------------------------
Magnitude (a.u.)       :      0.54040
Magnitude (Debye)      :      1.37358

Rotational constants in cm-1:     0.017371     0.009738     0.007633
Rotational constants in MHz :   520.759610   291.931683   228.818198

                             ****ORCA TERMINATED NORMALLY****
TOTAL RUN TIME: 0 days 0 hours 0 minutes 29 seconds 692 msec
