                         Program Version 4.2.1 -  RELEASE  -
|  1> ! wB97X-D3 SP def2-SVP
|  2> %pal
|  3> nprocs 16
|  4> end
|  5>
|  6> * xyz 0 1
|  7> S 	 10.0518 	 -2.64283 	 86.7778
|  8> C 	 9.76412 	 -1.2468 	 87.8798
|  9> C 	 8.428 	 -0.911378 	 87.9916
| 10> C 	 7.63074 	 -1.84317 	 87.2746
| 11> C 	 8.33201 	 -2.75151 	 86.5118
| 12> H 	 6.56051 	 -1.78558 	 87.1396
| 13> C 	 7.82071 	 0.100433 	 88.9305
| 14> H 	 7.03997 	 0.63695 	 88.3937
| 15> H 	 8.55994 	 0.856984 	 89.1224
| 16> C 	 7.21832 	 -0.61548 	 90.2163
| 17> H 	 6.58758 	 0.108388 	 90.7394
| 18> H 	 6.47641 	 -1.29005 	 89.8513
| 19> C 	 8.19457 	 -1.41097 	 91.0484
| 20> H 	 8.71195 	 -2.25214 	 90.5706
| 21> H 	 8.97661 	 -0.76999 	 91.5553
| 22> H 	 7.75608 	 -1.85676 	 91.882
| 23> S 	 8.42848 	 -4.37284 	 84.1428
| 24> C 	 7.14175 	 -5.57895 	 83.9123
| 25> C 	 6.16865 	 -5.3866 	 84.8803
| 26> C 	 6.50364 	 -4.54999 	 85.9821
| 27> C 	 7.72257 	 -3.8919 	 85.75
| 28> H 	 5.23822 	 -5.91888 	 84.7942
| 29> C 	 5.55002 	 -4.45807 	 87.1269
| 30> H 	 4.74958 	 -5.27449 	 86.988
| 31> H 	 5.07473 	 -3.50425 	 87.203
| 32> C 	 6.1828 	 -4.7991 	 88.4601
| 33> H 	 5.319 	 -4.98669 	 89.1363
| 34> H 	 6.71486 	 -3.89802 	 88.8708
| 35> C 	 7.14401 	 -6.00164 	 88.3998
| 36> H 	 6.76876 	 -6.78628 	 87.8313
| 37> H 	 7.37158 	 -6.40852 	 89.3734
| 38> H 	 8.12397 	 -5.73453 	 87.9275
| 39> H 	 10.5315 	 -0.616551 	 88.3806
| 40> H 	 6.89256 	 -6.12999 	 83.0413
| 41> *
| 42>
| 43>                          ****END OF INPUT****

CARTESIAN COORDINATES (ANGSTROEM)
---------------------------------
  S     10.051800   -2.642830   86.777800
  C      9.764120   -1.246800   87.879800
  C      8.428000   -0.911378   87.991600
  C      7.630740   -1.843170   87.274600
  C      8.332010   -2.751510   86.511800
  H      6.560510   -1.785580   87.139600
  C      7.820710    0.100433   88.930500
  H      7.039970    0.636950   88.393700
  H      8.559940    0.856984   89.122400
  C      7.218320   -0.615480   90.216300
  H      6.587580    0.108388   90.739400
  H      6.476410   -1.290050   89.851300
  C      8.194570   -1.410970   91.048400
  H      8.711950   -2.252140   90.570600
  H      8.976610   -0.769990   91.555300
  H      7.756080   -1.856760   91.882000
  S      8.428480   -4.372840   84.142800
  C      7.141750   -5.578950   83.912300
  C      6.168650   -5.386600   84.880300
  C      6.503640   -4.549990   85.982100
  C      7.722570   -3.891900   85.750000
  H      5.238220   -5.918880   84.794200
  C      5.550020   -4.458070   87.126900
  H      4.749580   -5.274490   86.988000
  H      5.074730   -3.504250   87.203000
  C      6.182800   -4.799100   88.460100
  H      5.319000   -4.986690   89.136300
  H      6.714860   -3.898020   88.870800
  C      7.144010   -6.001640   88.399800
  H      6.768760   -6.786280   87.831300
  H      7.371580   -6.408520   89.373400
  H      8.123970   -5.734530   87.927500
  H     10.531500   -0.616551   88.380600
  H      6.892560   -6.129990   83.041300

 Total Charge           Charge          ....    0
 Multiplicity           Mult            ....    1
 Number of Electrons    NEL             ....  134
 Basis Dimension        Dim             ....  322

ORBITAL ENERGIES
----------------

  NO   OCC          E(Eh)            E(eV)
   0   2.0000     -88.970278     -2421.0043
   1   2.0000     -88.968479     -2420.9554
   2   2.0000     -10.337793      -281.3056
   3   2.0000     -10.332634      -281.1653
   4   2.0000     -10.319790      -280.8158
   5   2.0000     -10.317272      -280.7472
   6   2.0000     -10.303972      -280.3853
   7   2.0000     -10.300836      -280.3000
   8   2.0000     -10.296661      -280.1864
   9   2.0000     -10.295454      -280.1535
  10   2.0000     -10.292961      -280.0857
  11   2.0000     -10.292232      -280.0659
  12   2.0000     -10.291900      -280.0568
  13   2.0000     -10.287253      -279.9304
  14   2.0000     -10.276531      -279.6386
  15   2.0000     -10.267387      -279.3898
  16   2.0000      -8.084090      -219.9793
  17   2.0000      -8.081408      -219.9063
  18   2.0000      -6.042655      -164.4290
  19   2.0000      -6.040062      -164.3585
  20   2.0000      -6.038851      -164.3255
  21   2.0000      -6.036281      -164.2555
  22   2.0000      -6.034713      -164.2129
  23   2.0000      -6.032005      -164.1392
  24   2.0000      -1.000143       -27.2153
  25   2.0000      -0.978485       -26.6259
  26   2.0000      -0.912224       -24.8229
  27   2.0000      -0.910561       -24.7776
  28   2.0000      -0.862445       -23.4683
  29   2.0000      -0.847655       -23.0659
  30   2.0000      -0.841189       -22.8899
  31   2.0000      -0.811281       -22.0761
  32   2.0000      -0.787869       -21.4390
  33   2.0000      -0.778979       -21.1971
  34   2.0000      -0.713153       -19.4059
  35   2.0000      -0.703893       -19.1539
  36   2.0000      -0.683274       -18.5928
  37   2.0000      -0.659939       -17.9579
  38   2.0000      -0.637580       -17.3494
  39   2.0000      -0.619412       -16.8551
  40   2.0000      -0.588787       -16.0217
  41   2.0000      -0.566604       -15.4181
  42   2.0000      -0.562620       -15.3097
  43   2.0000      -0.546540       -14.8721
  44   2.0000      -0.545153       -14.8344
  45   2.0000      -0.539717       -14.6864
  46   2.0000      -0.513366       -13.9694
  47   2.0000      -0.501049       -13.6342
  48   2.0000      -0.495578       -13.4854
  49   2.0000      -0.491729       -13.3806
  50   2.0000      -0.488032       -13.2800
  51   2.0000      -0.477918       -13.0048
  52   2.0000      -0.472518       -12.8579
  53   2.0000      -0.465539       -12.6680
  54   2.0000      -0.458403       -12.4738
  55   2.0000      -0.451738       -12.2924
  56   2.0000      -0.441307       -12.0086
  57   2.0000      -0.439377       -11.9560
  58   2.0000      -0.431693       -11.7470
  59   2.0000      -0.426402       -11.6030
  60   2.0000      -0.423242       -11.5170
  61   2.0000      -0.418912       -11.3992
  62   2.0000      -0.408613       -11.1189
  63   2.0000      -0.347872        -9.4661
  64   2.0000      -0.334437        -9.1005
  65   2.0000      -0.330952        -9.0057
  66   2.0000      -0.288379        -7.8472
  67   0.0000       0.019901         0.5415
  68   0.0000       0.072120         1.9625
  69   0.0000       0.097152         2.6436
  70   0.0000       0.113512         3.0888
  71   0.0000       0.126291         3.4366

MULLIKEN ATOMIC CHARGES
-----------------------
   0 S :    0.108439
   1 C :   -0.134723
   2 C :   -0.091106
   3 C :   -0.019309
   4 C :   -0.114819
   5 H :    0.008921
   6 C :    0.087272
   7 H :    0.025891
   8 H :    0.016283
   9 C :   -0.044501
  10 H :    0.028972
  11 H :    0.012637
  12 C :   -0.039990
  13 H :    0.052612
  14 H :    0.026743
  15 H :    0.013939
  16 S :    0.089722
  17 C :   -0.064921
  18 C :   -0.055779
  19 C :   -0.052693
  20 C :   -0.138055
  21 H :    0.014939
  22 C :    0.061266
  23 H :    0.031426
  24 H :    0.036516
  25 C :   -0.118940
  26 H :    0.032171
  27 H :    0.050167
  28 C :   -0.005839
  29 H :    0.006947
  30 H :    0.026741
  31 H :    0.042909
  32 H :    0.055555
  33 H :    0.050605
Sum of atomic charges:   -0.0000000

LOEWDIN ATOMIC CHARGES
----------------------
   0 S :    0.388935
   1 C :   -0.188499
   2 C :   -0.063154
   3 C :   -0.066077
   4 C :   -0.190011
   5 H :    0.029035
   6 C :   -0.024978
   7 H :    0.032499
   8 H :    0.025141
   9 C :   -0.034181
  10 H :    0.027326
  11 H :    0.020087
  12 C :   -0.070505
  13 H :    0.033150
  14 H :    0.030410
  15 H :    0.020076
  16 S :    0.367325
  17 C :   -0.178694
  18 C :   -0.065246
  19 C :   -0.057808
  20 C :   -0.174475
  21 H :    0.026957
  22 C :   -0.034289
  23 H :    0.039591
  24 H :    0.026579
  25 C :   -0.046209
  26 H :    0.025935
  27 H :    0.026551
  28 C :   -0.062071
  29 H :    0.014252
  30 H :    0.024089
  31 H :    0.035723
  32 H :    0.035122
  33 H :    0.027411

  Mayer bond orders larger than 0.100000
B(  0-S ,  1-C ) :   1.1225 B(  0-S ,  4-C ) :   1.1421 B(  1-C ,  2-C ) :   1.6314
B(  1-C , 32-H ) :   0.9567 B(  2-C ,  3-C ) :   1.2222 B(  2-C ,  6-C ) :   1.0366
B(  3-C ,  4-C ) :   1.5974 B(  3-C ,  5-H ) :   0.9896 B(  4-C , 20-C ) :   1.0295
B(  6-C ,  7-H ) :   0.9356 B(  6-C ,  8-H ) :   0.9407 B(  6-C ,  9-C ) :   1.0575
B(  9-C , 10-H ) :   0.9546 B(  9-C , 11-H ) :   0.9529 B(  9-C , 12-C ) :   1.0775
B( 12-C , 13-H ) :   0.9697 B( 12-C , 14-H ) :   0.9732 B( 12-C , 15-H ) :   0.9682
B( 16-S , 17-C ) :   1.1309 B( 16-S , 20-C ) :   1.1296 B( 17-C , 18-C ) :   1.6297
B( 17-C , 20-C ) :   0.1009 B( 17-C , 33-H ) :   0.9656 B( 18-C , 19-C ) :   1.2572
B( 18-C , 21-H ) :   0.9808 B( 19-C , 20-C ) :   1.5763 B( 19-C , 22-C ) :   1.0394
B( 22-C , 23-H ) :   0.9351 B( 22-C , 24-H ) :   0.9297 B( 22-C , 25-C ) :   1.0756
B( 25-C , 26-H ) :   0.9591 B( 25-C , 27-H ) :   0.9443 B( 25-C , 28-C ) :   1.0851
B( 28-C , 29-H ) :   0.9744 B( 28-C , 30-H ) :   0.9733 B( 28-C , 31-H ) :   0.9632

Dispersion correction           -0.016889676
FINAL SINGLE POINT ENERGY     -1339.877867489165

DIPOLE MOMENT
-------------
                                X             Y             Z
Electronic contribution:     12.50271      -1.73391     -24.40775
Nuclear contribution   :    -13.20067       1.90178      24.91481
                        -----------------------------------------
Total Dipole Moment    :     -0.69796       0.16788       0.50707
                        -----------------------------------------
Magnitude (a.u.)       :      0.87889
Magnitude (Debye)      :      2.23397

Rotational constants in cm-1:     0.021682     0.009804     0.007882
Rotational constants in MHz :   650.020518   293.905503   236.303760

                             ****ORCA TERMINATED NORMALLY****
TOTAL RUN TIME: 0 days 0 hours 0 minutes 37 seconds 774 msec
