                         Program Version 4.2.1 -  RELEASE  -
|  1> ! wB97X-D3 SP def2-SVP
|  2> %pal
|  3> nprocs 16
|  4> end
|  5>
|  6> * xyz 0 1
|  7> S 	 43.7799 	 10.2832 	 87.252
|  8> C 	 44.9443 	 9.14269 	 87.8961
|  9> C 	 45.9823 	 9.76435 	 88.5892
| 10> C 	 45.8321 	 11.1871 	 88.6981
| 11> C 	 44.7304 	 11.5884 	 88.0676
| 12> H 	 46.3795 	 11.9139 	 89.2512
| 13> C 	 47.1495 	 8.96799 	 89.2277
| 14> H 	 48.029 	 9.61406 	 89.0766
| 15> H 	 47.2445 	 8.0058 	 88.6738
| 16> C 	 46.8596 	 8.47304 	 90.6849
| 17> H 	 47.7945 	 7.99824 	 91.0529
| 18> H 	 46.5463 	 9.29074 	 91.3451
| 19> C 	 45.7103 	 7.57086 	 90.7715
| 20> H 	 45.6771 	 7.01451 	 91.6884
| 21> H 	 44.8077 	 8.16537 	 90.673
| 22> H 	 45.6454 	 6.88282 	 89.9698
| 23> S 	 43.9405 	 13.5184 	 86.197
| 24> C 	 43.5326 	 15.1387 	 86.7693
| 25> C 	 43.7842 	 15.2026 	 88.1228
| 26> C 	 44.1011 	 13.9788 	 88.7461
| 27> C 	 44.3062 	 12.9399 	 87.8685
| 28> H 	 43.6463 	 16.1757 	 88.6433
| 29> C 	 44.2043 	 13.9022 	 90.2262
| 30> H 	 44.9617 	 14.6438 	 90.632
| 31> H 	 44.7247 	 13.0298 	 90.6116
| 32> C 	 42.8968 	 13.914 	 90.9279
| 33> H 	 42.4835 	 14.8779 	 90.7956
| 34> H 	 43.1126 	 13.9047 	 91.9904
| 35> C 	 41.8904 	 12.7752 	 90.6274
| 36> H 	 42.5127 	 11.8791 	 90.7381
| 37> H 	 41.5627 	 12.8836 	 89.5574
| 38> H 	 41.0098 	 12.8555 	 91.2374
| 39> H 	 45.0146 	 8.05593 	 87.6798
| 40> H 	 43.3008 	 16.0494 	 86.1368
| 41> *
| 42>
| 43>                          ****END OF INPUT****

CARTESIAN COORDINATES (ANGSTROEM)
---------------------------------
  S     43.779900   10.283200   87.252000
  C     44.944300    9.142690   87.896100
  C     45.982300    9.764350   88.589200
  C     45.832100   11.187100   88.698100
  C     44.730400   11.588400   88.067600
  H     46.379500   11.913900   89.251200
  C     47.149500    8.967990   89.227700
  H     48.029000    9.614060   89.076600
  H     47.244500    8.005800   88.673800
  C     46.859600    8.473040   90.684900
  H     47.794500    7.998240   91.052900
  H     46.546300    9.290740   91.345100
  C     45.710300    7.570860   90.771500
  H     45.677100    7.014510   91.688400
  H     44.807700    8.165370   90.673000
  H     45.645400    6.882820   89.969800
  S     43.940500   13.518400   86.197000
  C     43.532600   15.138700   86.769300
  C     43.784200   15.202600   88.122800
  C     44.101100   13.978800   88.746100
  C     44.306200   12.939900   87.868500
  H     43.646300   16.175700   88.643300
  C     44.204300   13.902200   90.226200
  H     44.961700   14.643800   90.632000
  H     44.724700   13.029800   90.611600
  C     42.896800   13.914000   90.927900
  H     42.483500   14.877900   90.795600
  H     43.112600   13.904700   91.990400
  C     41.890400   12.775200   90.627400
  H     42.512700   11.879100   90.738100
  H     41.562700   12.883600   89.557400
  H     41.009800   12.855500   91.237400
  H     45.014600    8.055930   87.679800
  H     43.300800   16.049400   86.136800

 Total Charge           Charge          ....    0
 Multiplicity           Mult            ....    1
 Number of Electrons    NEL             ....  134
 Basis Dimension        Dim             ....  322

ORBITAL ENERGIES
----------------

  NO   OCC          E(Eh)            E(eV)
   0   2.0000     -88.968371     -2420.9525
   1   2.0000     -88.963714     -2420.8257
   2   2.0000     -10.327753      -281.0325
   3   2.0000     -10.326566      -281.0001
   4   2.0000     -10.323978      -280.9297
   5   2.0000     -10.317470      -280.7526
   6   2.0000     -10.304602      -280.4025
   7   2.0000     -10.299826      -280.2725
   8   2.0000     -10.298989      -280.2497
   9   2.0000     -10.294171      -280.1186
  10   2.0000     -10.293663      -280.1048
  11   2.0000     -10.289172      -279.9826
  12   2.0000     -10.286827      -279.9188
  13   2.0000     -10.276808      -279.6462
  14   2.0000     -10.275169      -279.6016
  15   2.0000     -10.265323      -279.3336
  16   2.0000      -8.082233      -219.9287
  17   2.0000      -8.077420      -219.7978
  18   2.0000      -6.040845      -164.3797
  19   2.0000      -6.037061      -164.2768
  20   2.0000      -6.036068      -164.2498
  21   2.0000      -6.032729      -164.1589
  22   2.0000      -6.032055      -164.1406
  23   2.0000      -6.028086      -164.0325
  24   2.0000      -1.006563       -27.3900
  25   2.0000      -0.981779       -26.7156
  26   2.0000      -0.915117       -24.9016
  27   2.0000      -0.913809       -24.8660
  28   2.0000      -0.872780       -23.7496
  29   2.0000      -0.855231       -23.2720
  30   2.0000      -0.842802       -22.9338
  31   2.0000      -0.815492       -22.1907
  32   2.0000      -0.783859       -21.3299
  33   2.0000      -0.771347       -20.9894
  34   2.0000      -0.709057       -19.2944
  35   2.0000      -0.692729       -18.8501
  36   2.0000      -0.690721       -18.7955
  37   2.0000      -0.656134       -17.8543
  38   2.0000      -0.644411       -17.5353
  39   2.0000      -0.620645       -16.8886
  40   2.0000      -0.602888       -16.4054
  41   2.0000      -0.567878       -15.4527
  42   2.0000      -0.558380       -15.1943
  43   2.0000      -0.554771       -15.0961
  44   2.0000      -0.546471       -14.8702
  45   2.0000      -0.536275       -14.5928
  46   2.0000      -0.515821       -14.0362
  47   2.0000      -0.511644       -13.9225
  48   2.0000      -0.499649       -13.5962
  49   2.0000      -0.494292       -13.4504
  50   2.0000      -0.486855       -13.2480
  51   2.0000      -0.478671       -13.0253
  52   2.0000      -0.466417       -12.6919
  53   2.0000      -0.464295       -12.6341
  54   2.0000      -0.462843       -12.5946
  55   2.0000      -0.451375       -12.2825
  56   2.0000      -0.446950       -12.1621
  57   2.0000      -0.440080       -11.9752
  58   2.0000      -0.432474       -11.7682
  59   2.0000      -0.420697       -11.4477
  60   2.0000      -0.412988       -11.2380
  61   2.0000      -0.411283       -11.1916
  62   2.0000      -0.404075       -10.9955
  63   2.0000      -0.353259        -9.6127
  64   2.0000      -0.332709        -9.0535
  65   2.0000      -0.329832        -8.9752
  66   2.0000      -0.292197        -7.9511
  67   0.0000       0.027513         0.7487
  68   0.0000       0.065981         1.7954
  69   0.0000       0.105055         2.8587
  70   0.0000       0.119609         3.2547
  71   0.0000       0.123761         3.3677

MULLIKEN ATOMIC CHARGES
-----------------------
   0 S :    0.112190
   1 C :   -0.118252
   2 C :   -0.117938
   3 C :    0.050965
   4 C :   -0.154860
   5 H :    0.012433
   6 C :    0.046980
   7 H :    0.039406
   8 H :    0.026469
   9 C :   -0.063586
  10 H :    0.038794
  11 H :    0.027274
  12 C :   -0.024110
  13 H :    0.032802
  14 H :    0.036753
  15 H :   -0.002491
  16 S :    0.090291
  17 C :   -0.115772
  18 C :   -0.051884
  19 C :   -0.013449
  20 C :   -0.151079
  21 H :    0.033145
  22 C :    0.036549
  23 H :    0.035597
  24 H :   -0.001281
  25 C :   -0.057335
  26 H :    0.004647
  27 H :    0.016969
  28 C :   -0.039442
  29 H :    0.036909
  30 H :    0.048977
  31 H :    0.041002
  32 H :    0.058509
  33 H :    0.084819
Sum of atomic charges:   -0.0000000

LOEWDIN ATOMIC CHARGES
----------------------
   0 S :    0.378033
   1 C :   -0.203428
   2 C :   -0.062379
   3 C :   -0.052221
   4 C :   -0.165054
   5 H :    0.034291
   6 C :   -0.030393
   7 H :    0.032463
   8 H :    0.031847
   9 C :   -0.043169
  10 H :    0.026219
  11 H :    0.025970
  12 C :   -0.062795
  13 H :    0.027649
  14 H :    0.029196
  15 H :    0.011116
  16 S :    0.371012
  17 C :   -0.190624
  18 C :   -0.076927
  19 C :   -0.063673
  20 C :   -0.179904
  21 H :    0.037302
  22 C :   -0.044155
  23 H :    0.041855
  24 H :    0.023282
  25 C :   -0.041946
  26 H :    0.011124
  27 H :    0.022853
  28 C :   -0.058956
  29 H :    0.028807
  30 H :    0.033624
  31 H :    0.025722
  32 H :    0.034829
  33 H :    0.048429

  Mayer bond orders larger than 0.100000
B(  0-S ,  1-C ) :   1.1167 B(  0-S ,  4-C ) :   1.1129 B(  1-C ,  2-C ) :   1.6553
B(  1-C , 32-H ) :   0.9572 B(  2-C ,  3-C ) :   1.1848 B(  2-C ,  6-C ) :   1.0193
B(  3-C ,  4-C ) :   1.6376 B(  3-C ,  5-H ) :   0.9952 B(  4-C , 20-C ) :   1.0590
B(  6-C ,  7-H ) :   0.9460 B(  6-C ,  8-H ) :   0.9436 B(  6-C ,  9-C ) :   1.0589
B(  9-C , 10-H ) :   0.9581 B(  9-C , 11-H ) :   0.9570 B(  9-C , 12-C ) :   1.0827
B( 12-C , 13-H ) :   0.9677 B( 12-C , 14-H ) :   0.9689 B( 12-C , 15-H ) :   0.9713
B( 16-S , 17-C ) :   1.1419 B( 16-S , 20-C ) :   1.1176 B( 17-C , 18-C ) :   1.6195
B( 17-C , 20-C ) :   0.1007 B( 17-C , 33-H ) :   0.9575 B( 18-C , 19-C ) :   1.2340
B( 18-C , 21-H ) :   0.9811 B( 19-C , 20-C ) :   1.5989 B( 19-C , 22-C ) :   1.0530
B( 22-C , 23-H ) :   0.9287 B( 22-C , 24-H ) :   0.9265 B( 22-C , 25-C ) :   1.0832
B( 25-C , 26-H ) :   0.9524 B( 25-C , 27-H ) :   0.9485 B( 25-C , 28-C ) :   1.0663
B( 28-C , 29-H ) :   0.9750 B( 28-C , 30-H ) :   0.9738 B( 28-C , 31-H ) :   0.9738

Dispersion correction           -0.015483899
FINAL SINGLE POINT ENERGY     -1339.874322098334

DIPOLE MOMENT
-------------
                                X             Y             Z
Electronic contribution:     -3.14268       8.00084     -23.78456
Nuclear contribution   :      3.43968      -7.88458      24.40281
                        -----------------------------------------
Total Dipole Moment    :      0.29700       0.11626       0.61825
                        -----------------------------------------
Magnitude (a.u.)       :      0.69567
Magnitude (Debye)      :      1.76826

Rotational constants in cm-1:     0.021721     0.008783     0.007411
Rotational constants in MHz :   651.183028   263.299658   222.167852

                             ****ORCA TERMINATED NORMALLY****
TOTAL RUN TIME: 0 days 0 hours 0 minutes 32 seconds 29 msec
