                         Program Version 4.2.1 -  RELEASE  -
|  1> ! wB97X-D3 SP def2-SVP
|  2> %pal
|  3> nprocs 16
|  4> end
|  5>
|  6> * xyz 0 1
|  7> S 	 46.7622 	 10.2471 	 52.813
|  8> C 	 45.1041 	 9.71959 	 52.8381
|  9> C 	 44.3052 	 10.479 	 52.0007
| 10> C 	 45.0661 	 11.4908 	 51.3302
| 11> C 	 46.4022 	 11.6326 	 51.7881
| 12> H 	 44.5608 	 12.2074 	 50.6944
| 13> C 	 42.7691 	 10.4066 	 51.848
| 14> H 	 42.5532 	 9.40316 	 52.1606
| 15> H 	 42.4144 	 10.2573 	 50.8685
| 16> C 	 41.95 	 11.5184 	 52.5605
| 17> H 	 42.2779 	 12.4519 	 52.067
| 18> H 	 40.8704 	 11.4481 	 52.2462
| 19> C 	 42.0557 	 11.6232 	 54.1003
| 20> H 	 43.0837 	 11.683 	 54.5047
| 21> H 	 41.3923 	 12.4823 	 54.3671
| 22> H 	 41.6581 	 10.7264 	 54.4974
| 23> S 	 48.9035 	 11.7295 	 50.7427
| 24> C 	 49.6312 	 13.2229 	 50.309
| 25> C 	 48.7199 	 14.2096 	 50.3753
| 26> C 	 47.4597 	 13.823 	 50.9076
| 27> C 	 47.44 	 12.466 	 51.2546
| 28> H 	 49.0268 	 15.1396 	 49.964
| 29> C 	 46.342 	 14.8211 	 51.1228
| 30> H 	 45.4217 	 14.3239 	 51.4119
| 31> H 	 46.1773 	 15.3176 	 50.1033
| 32> C 	 46.648 	 15.8764 	 52.2022
| 33> H 	 45.8267 	 16.6509 	 52.1408
| 34> H 	 47.5301 	 16.3918 	 51.9996
| 35> C 	 46.5455 	 15.2969 	 53.6481
| 36> H 	 45.5014 	 14.8226 	 53.8253
| 37> H 	 46.6843 	 16.01 	 54.3781
| 38> H 	 47.3239 	 14.5554 	 53.7727
| 39> H 	 44.6002 	 9.00804 	 53.529
| 40> H 	 50.5904 	 13.3543 	 49.8175
| 41> *
| 42>
| 43>                          ****END OF INPUT****

CARTESIAN COORDINATES (ANGSTROEM)
---------------------------------
  S     46.762200   10.247100   52.813000
  C     45.104100    9.719590   52.838100
  C     44.305200   10.479000   52.000700
  C     45.066100   11.490800   51.330200
  C     46.402200   11.632600   51.788100
  H     44.560800   12.207400   50.694400
  C     42.769100   10.406600   51.848000
  H     42.553200    9.403160   52.160600
  H     42.414400   10.257300   50.868500
  C     41.950000   11.518400   52.560500
  H     42.277900   12.451900   52.067000
  H     40.870400   11.448100   52.246200
  C     42.055700   11.623200   54.100300
  H     43.083700   11.683000   54.504700
  H     41.392300   12.482300   54.367100
  H     41.658100   10.726400   54.497400
  S     48.903500   11.729500   50.742700
  C     49.631200   13.222900   50.309000
  C     48.719900   14.209600   50.375300
  C     47.459700   13.823000   50.907600
  C     47.440000   12.466000   51.254600
  H     49.026800   15.139600   49.964000
  C     46.342000   14.821100   51.122800
  H     45.421700   14.323900   51.411900
  H     46.177300   15.317600   50.103300
  C     46.648000   15.876400   52.202200
  H     45.826700   16.650900   52.140800
  H     47.530100   16.391800   51.999600
  C     46.545500   15.296900   53.648100
  H     45.501400   14.822600   53.825300
  H     46.684300   16.010000   54.378100
  H     47.323900   14.555400   53.772700
  H     44.600200    9.008040   53.529000
  H     50.590400   13.354300   49.817500

 Total Charge           Charge          ....    0
 Multiplicity           Mult            ....    1
 Number of Electrons    NEL             ....  134
 Basis Dimension        Dim             ....  322

ORBITAL ENERGIES
----------------

  NO   OCC          E(Eh)            E(eV)
   0   2.0000     -88.970665     -2421.0149
   1   2.0000     -88.962227     -2420.7853
   2   2.0000     -10.334443      -281.2145
   3   2.0000     -10.324403      -280.9413
   4   2.0000     -10.318039      -280.7681
   5   2.0000     -10.309630      -280.5393
   6   2.0000     -10.302314      -280.3402
   7   2.0000     -10.301904      -280.3291
   8   2.0000     -10.296948      -280.1942
   9   2.0000     -10.296772      -280.1894
  10   2.0000     -10.294862      -280.1374
  11   2.0000     -10.290601      -280.0215
  12   2.0000     -10.285879      -279.8930
  13   2.0000     -10.285171      -279.8737
  14   2.0000     -10.280977      -279.7596
  15   2.0000     -10.274057      -279.5713
  16   2.0000      -8.084973      -220.0033
  17   2.0000      -8.078316      -219.8222
  18   2.0000      -6.043555      -164.4535
  19   2.0000      -6.039451      -164.3418
  20   2.0000      -6.036737      -164.2680
  21   2.0000      -6.035746      -164.2410
  22   2.0000      -6.032590      -164.1551
  23   2.0000      -6.029116      -164.0606
  24   2.0000      -1.013350       -27.5746
  25   2.0000      -0.987087       -26.8600
  26   2.0000      -0.907712       -24.7001
  27   2.0000      -0.905935       -24.6517
  28   2.0000      -0.874284       -23.7905
  29   2.0000      -0.847218       -23.0540
  30   2.0000      -0.842094       -22.9146
  31   2.0000      -0.814135       -22.1537
  32   2.0000      -0.787174       -21.4201
  33   2.0000      -0.773751       -21.0548
  34   2.0000      -0.713719       -19.4213
  35   2.0000      -0.696771       -18.9601
  36   2.0000      -0.695147       -18.9159
  37   2.0000      -0.656993       -17.8777
  38   2.0000      -0.632342       -17.2069
  39   2.0000      -0.624447       -16.9921
  40   2.0000      -0.598957       -16.2984
  41   2.0000      -0.573526       -15.6064
  42   2.0000      -0.550349       -14.9758
  43   2.0000      -0.548348       -14.9213
  44   2.0000      -0.536383       -14.5957
  45   2.0000      -0.535987       -14.5849
  46   2.0000      -0.518706       -14.1147
  47   2.0000      -0.511734       -13.9250
  48   2.0000      -0.505069       -13.7436
  49   2.0000      -0.493143       -13.4191
  50   2.0000      -0.489536       -13.3210
  51   2.0000      -0.479649       -13.0519
  52   2.0000      -0.467775       -12.7288
  53   2.0000      -0.463200       -12.6043
  54   2.0000      -0.459921       -12.5151
  55   2.0000      -0.445280       -12.1167
  56   2.0000      -0.442028       -12.0282
  57   2.0000      -0.437260       -11.8984
  58   2.0000      -0.435041       -11.8381
  59   2.0000      -0.432082       -11.7576
  60   2.0000      -0.423347       -11.5198
  61   2.0000      -0.411723       -11.2035
  62   2.0000      -0.405289       -11.0285
  63   2.0000      -0.355888        -9.6842
  64   2.0000      -0.332568        -9.0496
  65   2.0000      -0.328595        -8.9415
  66   2.0000      -0.288313        -7.8454
  67   0.0000       0.025222         0.6863
  68   0.0000       0.074831         2.0363
  69   0.0000       0.112371         3.0578
  70   0.0000       0.119163         3.2426
  71   0.0000       0.128657         3.5009

MULLIKEN ATOMIC CHARGES
-----------------------
   0 S :    0.116754
   1 C :   -0.114654
   2 C :   -0.132722
   3 C :    0.044261
   4 C :   -0.166800
   5 H :    0.016776
   6 C :    0.100604
   7 H :   -0.007095
   8 H :    0.014619
   9 C :   -0.092126
  10 H :    0.024635
  11 H :    0.035976
  12 C :   -0.040554
  13 H :    0.052983
  14 H :    0.046882
  15 H :    0.018967
  16 S :    0.107166
  17 C :   -0.089521
  18 C :   -0.033906
  19 C :   -0.043496
  20 C :   -0.130821
  21 H :    0.003363
  22 C :    0.062859
  23 H :    0.007972
  24 H :    0.043037
  25 C :   -0.065538
  26 H :    0.028537
  27 H :    0.017447
  28 C :   -0.043566
  29 H :    0.041998
  30 H :    0.019049
  31 H :    0.039742
  32 H :    0.059294
  33 H :    0.057877
Sum of atomic charges:   -0.0000000

LOEWDIN ATOMIC CHARGES
----------------------
   0 S :    0.414736
   1 C :   -0.210349
   2 C :   -0.065716
   3 C :   -0.056962
   4 C :   -0.193272
   5 H :    0.026506
   6 C :   -0.036793
   7 H :    0.023998
   8 H :    0.028885
   9 C :   -0.042848
  10 H :    0.021288
  11 H :    0.030679
  12 C :   -0.065887
  13 H :    0.032137
  14 H :    0.036079
  15 H :    0.017806
  16 S :    0.428913
  17 C :   -0.196259
  18 C :   -0.071716
  19 C :   -0.060185
  20 C :   -0.212443
  21 H :    0.027004
  22 C :   -0.033269
  23 H :    0.024058
  24 H :    0.041092
  25 C :   -0.034814
  26 H :    0.027549
  27 H :    0.011230
  28 C :   -0.059852
  29 H :    0.036898
  30 H :    0.012304
  31 H :    0.025219
  32 H :    0.039527
  33 H :    0.034456

  Mayer bond orders larger than 0.100000
B(  0-S ,  1-C ) :   1.1456 B(  0-S ,  4-C ) :   1.1518 B(  1-C ,  2-C ) :   1.6064
B(  1-C ,  4-C ) :   0.1037 B(  1-C , 32-H ) :   0.9550 B(  2-C ,  3-C ) :   1.2760
B(  2-C ,  6-C ) :   1.0183 B(  3-C ,  4-C ) :   1.5269 B(  3-C ,  5-H ) :   0.9838
B(  4-C , 20-C ) :   1.0692 B(  6-C ,  7-H ) :   0.9319 B(  6-C ,  8-H ) :   0.9372
B(  6-C ,  9-C ) :   1.0603 B(  9-C , 10-H ) :   0.9571 B(  9-C , 11-H ) :   0.9551
B(  9-C , 12-C ) :   1.0676 B( 12-C , 13-H ) :   0.9758 B( 12-C , 14-H ) :   0.9734
B( 12-C , 15-H ) :   0.9754 B( 16-S , 17-C ) :   1.1552 B( 16-S , 20-C ) :   1.1592
B( 17-C , 18-C ) :   1.6145 B( 17-C , 33-H ) :   0.9656 B( 18-C , 19-C ) :   1.2419
B( 18-C , 21-H ) :   0.9977 B( 19-C , 20-C ) :   1.5583 B( 19-C , 22-C ) :   1.0515
B( 22-C , 23-H ) :   0.9314 B( 22-C , 24-H ) :   0.9324 B( 22-C , 25-C ) :   1.0759
B( 25-C , 26-H ) :   0.9550 B( 25-C , 27-H ) :   0.9595 B( 25-C , 28-C ) :   1.0681
B( 28-C , 29-H ) :   0.9732 B( 28-C , 30-H ) :   0.9748 B( 28-C , 31-H ) :   0.9781

Dispersion correction           -0.015014273
FINAL SINGLE POINT ENERGY     -1339.876127718170

DIPOLE MOMENT
-------------
                                X             Y             Z
Electronic contribution:     22.44823     -14.67732      -8.02011
Nuclear contribution   :    -22.97898      15.09960       7.87968
                        -----------------------------------------
Total Dipole Moment    :     -0.53075       0.42228      -0.14042
                        -----------------------------------------
Magnitude (a.u.)       :      0.69263
Magnitude (Debye)      :      1.76052

Rotational constants in cm-1:     0.019763     0.009326     0.007281
Rotational constants in MHz :   592.476017   279.579326   218.275488

                             ****ORCA TERMINATED NORMALLY****
TOTAL RUN TIME: 0 days 0 hours 0 minutes 35 seconds 703 msec
