                         Program Version 4.2.1 -  RELEASE  -
|  1> ! wB97X-D3 SP def2-SVP
|  2> %pal
|  3> nprocs 16
|  4> end
|  5>
|  6> * xyz 0 1
|  7> S 	 68.3124 	 20.1268 	 72.139
|  8> C 	 67.2538 	 18.8843 	 72.7241
|  9> C 	 66.1427 	 19.3527 	 73.336
| 10> C 	 66.2305 	 20.7003 	 73.6175
| 11> C 	 67.3117 	 21.3046 	 73.0058
| 12> H 	 65.4958 	 21.3276 	 74.0351
| 13> C 	 64.8866 	 18.5105 	 73.7468
| 14> H 	 64.9744 	 17.5838 	 73.1776
| 15> H 	 64.0611 	 19.1247 	 73.2275
| 16> C 	 64.6733 	 18.2901 	 75.2493
| 17> H 	 65.5353 	 17.7656 	 75.666
| 18> H 	 64.7338 	 19.3126 	 75.7056
| 19> C 	 63.3625 	 17.6525 	 75.6432
| 20> H 	 62.4894 	 18.1635 	 75.2121
| 21> H 	 63.1838 	 16.5997 	 75.2954
| 22> H 	 63.2026 	 17.6285 	 76.7085
| 23> S 	 67.2197 	 23.6834 	 74.3872
| 24> C 	 67.988 	 25.1125 	 73.6994
| 25> C 	 68.2231 	 24.9181 	 72.3734
| 26> C 	 68.0386 	 23.5809 	 71.8792
| 27> C 	 67.5531 	 22.7459 	 72.9248
| 28> H 	 68.4853 	 25.7723 	 71.7558
| 29> C 	 68.2817 	 23.1754 	 70.4489
| 30> H 	 67.9461 	 23.9341 	 69.7782
| 31> H 	 67.5791 	 22.3763 	 70.1472
| 32> C 	 69.7492 	 22.8231 	 70.1437
| 33> H 	 69.9411 	 21.9363 	 70.8185
| 34> H 	 70.3686 	 23.6804 	 70.5224
| 35> C 	 70.1664 	 22.3031 	 68.809
| 36> H 	 71.2501 	 21.95 	 68.7367
| 37> H 	 69.84 	 22.9452 	 68.0194
| 38> H 	 69.5989 	 21.4048 	 68.6365
| 39> H 	 67.3998 	 17.8408 	 72.5776
| 40> H 	 68.0268 	 26.1617 	 74.088
| 41> *
| 42>
| 43>                          ****END OF INPUT****

CARTESIAN COORDINATES (ANGSTROEM)
---------------------------------
  S     68.312400   20.126800   72.139000
  C     67.253800   18.884300   72.724100
  C     66.142700   19.352700   73.336000
  C     66.230500   20.700300   73.617500
  C     67.311700   21.304600   73.005800
  H     65.495800   21.327600   74.035100
  C     64.886600   18.510500   73.746800
  H     64.974400   17.583800   73.177600
  H     64.061100   19.124700   73.227500
  C     64.673300   18.290100   75.249300
  H     65.535300   17.765600   75.666000
  H     64.733800   19.312600   75.705600
  C     63.362500   17.652500   75.643200
  H     62.489400   18.163500   75.212100
  H     63.183800   16.599700   75.295400
  H     63.202600   17.628500   76.708500
  S     67.219700   23.683400   74.387200
  C     67.988000   25.112500   73.699400
  C     68.223100   24.918100   72.373400
  C     68.038600   23.580900   71.879200
  C     67.553100   22.745900   72.924800
  H     68.485300   25.772300   71.755800
  C     68.281700   23.175400   70.448900
  H     67.946100   23.934100   69.778200
  H     67.579100   22.376300   70.147200
  C     69.749200   22.823100   70.143700
  H     69.941100   21.936300   70.818500
  H     70.368600   23.680400   70.522400
  C     70.166400   22.303100   68.809000
  H     71.250100   21.950000   68.736700
  H     69.840000   22.945200   68.019400
  H     69.598900   21.404800   68.636500
  H     67.399800   17.840800   72.577600
  H     68.026800   26.161700   74.088000

 Total Charge           Charge          ....    0
 Multiplicity           Mult            ....    1
 Number of Electrons    NEL             ....  134
 Basis Dimension        Dim             ....  322

ORBITAL ENERGIES
----------------

  NO   OCC          E(Eh)            E(eV)
   0   2.0000     -88.972090     -2421.0537
   1   2.0000     -88.966928     -2420.9132
   2   2.0000     -10.333297      -281.1833
   3   2.0000     -10.331823      -281.1432
   4   2.0000     -10.317418      -280.7512
   5   2.0000     -10.307296      -280.4758
   6   2.0000     -10.307129      -280.4713
   7   2.0000     -10.302544      -280.3465
   8   2.0000     -10.295899      -280.1657
   9   2.0000     -10.292977      -280.0861
  10   2.0000     -10.292175      -280.0643
  11   2.0000     -10.290785      -280.0265
  12   2.0000     -10.287119      -279.9267
  13   2.0000     -10.286723      -279.9160
  14   2.0000     -10.281732      -279.7802
  15   2.0000     -10.276231      -279.6305
  16   2.0000      -8.085984      -220.0308
  17   2.0000      -8.080941      -219.8936
  18   2.0000      -6.044517      -164.4797
  19   2.0000      -6.040724      -164.3765
  20   2.0000      -6.039642      -164.3470
  21   2.0000      -6.036687      -164.2666
  22   2.0000      -6.035660      -164.2387
  23   2.0000      -6.031440      -164.1238
  24   2.0000      -1.009295       -27.4643
  25   2.0000      -0.984864       -26.7995
  26   2.0000      -0.909440       -24.7471
  27   2.0000      -0.907319       -24.6894
  28   2.0000      -0.871491       -23.7145
  29   2.0000      -0.857295       -23.3282
  30   2.0000      -0.848877       -23.0991
  31   2.0000      -0.815092       -22.1798
  32   2.0000      -0.785482       -21.3740
  33   2.0000      -0.771230       -20.9862
  34   2.0000      -0.707673       -19.2568
  35   2.0000      -0.698158       -18.9978
  36   2.0000      -0.688967       -18.7477
  37   2.0000      -0.664183       -18.0733
  38   2.0000      -0.639818       -17.4103
  39   2.0000      -0.616783       -16.7835
  40   2.0000      -0.595277       -16.1983
  41   2.0000      -0.566250       -15.4084
  42   2.0000      -0.562611       -15.3094
  43   2.0000      -0.554440       -15.0871
  44   2.0000      -0.529848       -14.4179
  45   2.0000      -0.522897       -14.2288
  46   2.0000      -0.516871       -14.0648
  47   2.0000      -0.512686       -13.9509
  48   2.0000      -0.506859       -13.7923
  49   2.0000      -0.502967       -13.6864
  50   2.0000      -0.494449       -13.4546
  51   2.0000      -0.478850       -13.0302
  52   2.0000      -0.470042       -12.7905
  53   2.0000      -0.466493       -12.6939
  54   2.0000      -0.462673       -12.5900
  55   2.0000      -0.450069       -12.2470
  56   2.0000      -0.442504       -12.0411
  57   2.0000      -0.438971       -11.9450
  58   2.0000      -0.429996       -11.7008
  59   2.0000      -0.425020       -11.5654
  60   2.0000      -0.421005       -11.4561
  61   2.0000      -0.414856       -11.2888
  62   2.0000      -0.401828       -10.9343
  63   2.0000      -0.357856        -9.7378
  64   2.0000      -0.338449        -9.2097
  65   2.0000      -0.329686        -8.9712
  66   2.0000      -0.282978        -7.7002
  67   0.0000       0.022221         0.6047
  68   0.0000       0.077459         2.1078
  69   0.0000       0.094977         2.5845
  70   0.0000       0.119213         3.2440
  71   0.0000       0.131972         3.5911

MULLIKEN ATOMIC CHARGES
-----------------------
   0 S :    0.108230
   1 C :   -0.102695
   2 C :   -0.078818
   3 C :    0.010206
   4 C :   -0.111917
   5 H :   -0.000582
   6 C :    0.045680
   7 H :    0.016424
   8 H :    0.046508
   9 C :   -0.057762
  10 H :    0.034826
  11 H :    0.033273
  12 C :   -0.043508
  13 H :    0.024766
  14 H :    0.031106
  15 H :    0.035478
  16 S :    0.096097
  17 C :   -0.091060
  18 C :   -0.045026
  19 C :   -0.046881
  20 C :   -0.158347
  21 H :    0.020006
  22 C :    0.069341
  23 H :    0.009761
  24 H :    0.021634
  25 C :   -0.113922
  26 H :    0.027224
  27 H :    0.036591
  28 C :   -0.004603
  29 H :    0.055316
  30 H :    0.020120
  31 H :    0.012267
  32 H :    0.028369
  33 H :    0.071897
Sum of atomic charges:   -0.0000000

LOEWDIN ATOMIC CHARGES
----------------------
   0 S :    0.418363
   1 C :   -0.197207
   2 C :   -0.066306
   3 C :   -0.063566
   4 C :   -0.176331
   5 H :    0.022581
   6 C :   -0.029153
   7 H :    0.024425
   8 H :    0.041891
   9 C :   -0.047713
  10 H :    0.028778
  11 H :    0.031634
  12 C :   -0.072595
  13 H :    0.026878
  14 H :    0.029100
  15 H :    0.026442
  16 S :    0.394638
  17 C :   -0.198502
  18 C :   -0.070268
  19 C :   -0.058717
  20 C :   -0.181370
  21 H :    0.031750
  22 C :   -0.041092
  23 H :    0.025179
  24 H :    0.029493
  25 C :   -0.053469
  26 H :    0.018913
  27 H :    0.026564
  28 C :   -0.070564
  29 H :    0.042334
  30 H :    0.018046
  31 H :    0.023867
  32 H :    0.021396
  33 H :    0.044583

  Mayer bond orders larger than 0.100000
B(  0-S ,  1-C ) :   1.1319 B(  0-S ,  4-C ) :   1.1425 B(  1-C ,  2-C ) :   1.6319
B(  1-C , 32-H ) :   0.9643 B(  2-C ,  3-C ) :   1.2592 B(  2-C ,  6-C ) :   1.0034
B(  3-C ,  4-C ) :   1.5554 B(  3-C ,  5-H ) :   0.9940 B(  4-C , 20-C ) :   1.0627
B(  6-C ,  7-H ) :   0.9404 B(  6-C ,  8-H ) :   0.9418 B(  6-C ,  9-C ) :   1.0572
B(  9-C , 10-H ) :   0.9522 B(  9-C , 11-H ) :   0.9529 B(  9-C , 12-C ) :   1.0859
B( 12-C , 13-H ) :   0.9721 B( 12-C , 14-H ) :   0.9729 B( 12-C , 15-H ) :   0.9737
B( 16-S , 17-C ) :   1.1253 B( 16-S , 20-C ) :   1.1458 B( 17-C , 18-C ) :   1.6421
B( 17-C , 33-H ) :   0.9567 B( 18-C , 19-C ) :   1.2389 B( 18-C , 21-H ) :   0.9819
B( 19-C , 20-C ) :   1.5609 B( 19-C , 22-C ) :   1.0543 B( 22-C , 23-H ) :   0.9257
B( 22-C , 24-H ) :   0.9298 B( 22-C , 25-C ) :   1.0517 B( 25-C , 26-H ) :   0.9511
B( 25-C , 27-H ) :   0.9551 B( 25-C , 28-C ) :   1.0864 B( 28-C , 29-H ) :   0.9701
B( 28-C , 30-H ) :   0.9711 B( 28-C , 31-H ) :   0.9653

Dispersion correction           -0.014044199
FINAL SINGLE POINT ENERGY     -1339.877248879239

DIPOLE MOMENT
-------------
                                X             Y             Z
Electronic contribution:      6.12572      10.34283       5.95741
Nuclear contribution   :     -6.49112     -10.44357      -6.20845
                        -----------------------------------------
Total Dipole Moment    :     -0.36540      -0.10074      -0.25104
                        -----------------------------------------
Magnitude (a.u.)       :      0.45463
Magnitude (Debye)      :      1.15557

Rotational constants in cm-1:     0.021235     0.007825     0.005996
Rotational constants in MHz :   636.606592   234.600928   179.747966

                             ****ORCA TERMINATED NORMALLY****
TOTAL RUN TIME: 0 days 0 hours 0 minutes 29 seconds 206 msec
