                         Program Version 4.2.1 -  RELEASE  -
|  1> ! wB97X-D3 SP def2-SVP
|  2> %pal
|  3> nprocs 16
|  4> end
|  5>
|  6> * xyz 0 1
|  7> S 	 -50.6079 	 8.8011 	 92.7907
|  8> C 	 -50.6029 	 10.4275 	 93.2662
|  9> C 	 -50.2983 	 11.2962 	 92.2332
| 10> C 	 -49.9962 	 10.5465 	 91.0724
| 11> C 	 -50.059 	 9.17826 	 91.2331
| 12> H 	 -49.7512 	 10.8776 	 90.1117
| 13> C 	 -50.1379 	 12.781 	 92.3849
| 14> H 	 -51.0635 	 13.1967 	 92.6999
| 15> H 	 -49.8985 	 13.1452 	 91.3586
| 16> C 	 -48.9289 	 13.1758 	 93.3251
| 17> H 	 -48.76 	 14.2931 	 93.1569
| 18> H 	 -49.1299 	 13.1738 	 94.4095
| 19> C 	 -47.5987 	 12.4365 	 93.0848
| 20> H 	 -47.3875 	 11.6267 	 93.8171
| 21> H 	 -47.4595 	 11.9417 	 92.123
| 22> H 	 -46.7039 	 13.0742 	 93.2827
| 23> S 	 -49.2124 	 6.63064 	 91.0466
| 24> C 	 -49.2858 	 5.8266 	 89.4612
| 25> C 	 -49.6637 	 6.67588 	 88.4752
| 26> C 	 -49.9073 	 7.98376 	 88.9238
| 27> C 	 -49.749 	 8.0931 	 90.3261
| 28> H 	 -49.6584 	 6.23159 	 87.4949
| 29> C 	 -50.4246 	 9.03197 	 87.9221
| 30> H 	 -50.0352 	 8.8001 	 86.8909
| 31> H 	 -49.7448 	 9.84406 	 88.1391
| 32> C 	 -51.916 	 9.34051 	 87.9517
| 33> H 	 -52.2832 	 9.62271 	 88.9606
| 34> H 	 -52.3939 	 8.47126 	 87.582
| 35> C 	 -52.3391 	 10.4259 	 86.9775
| 36> H 	 -51.981 	 10.3798 	 85.9815
| 37> H 	 -52.0817 	 11.3849 	 87.4576
| 38> H 	 -53.4097 	 10.4206 	 86.9791
| 39> H 	 -50.7274 	 10.749 	 94.2374
| 40> H 	 -49.2845 	 4.80573 	 89.2034
| 41> *
| 42>
| 43>                          ****END OF INPUT****

CARTESIAN COORDINATES (ANGSTROEM)
---------------------------------
  S    -50.607900    8.801100   92.790700
  C    -50.602900   10.427500   93.266200
  C    -50.298300   11.296200   92.233200
  C    -49.996200   10.546500   91.072400
  C    -50.059000    9.178260   91.233100
  H    -49.751200   10.877600   90.111700
  C    -50.137900   12.781000   92.384900
  H    -51.063500   13.196700   92.699900
  H    -49.898500   13.145200   91.358600
  C    -48.928900   13.175800   93.325100
  H    -48.760000   14.293100   93.156900
  H    -49.129900   13.173800   94.409500
  C    -47.598700   12.436500   93.084800
  H    -47.387500   11.626700   93.817100
  H    -47.459500   11.941700   92.123000
  H    -46.703900   13.074200   93.282700
  S    -49.212400    6.630640   91.046600
  C    -49.285800    5.826600   89.461200
  C    -49.663700    6.675880   88.475200
  C    -49.907300    7.983760   88.923800
  C    -49.749000    8.093100   90.326100
  H    -49.658400    6.231590   87.494900
  C    -50.424600    9.031970   87.922100
  H    -50.035200    8.800100   86.890900
  H    -49.744800    9.844060   88.139100
  C    -51.916000    9.340510   87.951700
  H    -52.283200    9.622710   88.960600
  H    -52.393900    8.471260   87.582000
  C    -52.339100   10.425900   86.977500
  H    -51.981000   10.379800   85.981500
  H    -52.081700   11.384900   87.457600
  H    -53.409700   10.420600   86.979100
  H    -50.727400   10.749000   94.237400
  H    -49.284500    4.805730   89.203400

 Total Charge           Charge          ....    0
 Multiplicity           Mult            ....    1
 Number of Electrons    NEL             ....  134
 Basis Dimension        Dim             ....  322

ORBITAL ENERGIES
----------------

  NO   OCC          E(Eh)            E(eV)
   0   2.0000     -88.968516     -2420.9564
   1   2.0000     -88.964393     -2420.8442
   2   2.0000     -10.326769      -281.0057
   3   2.0000     -10.320873      -280.8452
   4   2.0000     -10.307329      -280.4767
   5   2.0000     -10.302330      -280.3406
   6   2.0000     -10.299515      -280.2641
   7   2.0000     -10.298721      -280.2425
   8   2.0000     -10.297049      -280.1969
   9   2.0000     -10.296300      -280.1766
  10   2.0000     -10.293729      -280.1066
  11   2.0000     -10.285483      -279.8822
  12   2.0000     -10.285406      -279.8801
  13   2.0000     -10.283485      -279.8279
  14   2.0000     -10.279129      -279.7093
  15   2.0000     -10.271471      -279.5009
  16   2.0000      -8.083181      -219.9545
  17   2.0000      -8.081163      -219.8996
  18   2.0000      -6.041665      -164.4021
  19   2.0000      -6.039396      -164.3403
  20   2.0000      -6.037760      -164.2958
  21   2.0000      -6.035251      -164.2275
  22   2.0000      -6.033898      -164.1907
  23   2.0000      -6.032232      -164.1454
  24   2.0000      -1.018244       -27.7078
  25   2.0000      -0.990030       -26.9401
  26   2.0000      -0.911248       -24.7963
  27   2.0000      -0.907576       -24.6964
  28   2.0000      -0.872145       -23.7323
  29   2.0000      -0.855418       -23.2771
  30   2.0000      -0.845957       -23.0197
  31   2.0000      -0.819346       -22.2955
  32   2.0000      -0.785047       -21.3622
  33   2.0000      -0.771778       -21.0011
  34   2.0000      -0.709020       -19.2934
  35   2.0000      -0.703790       -19.1511
  36   2.0000      -0.693971       -18.8839
  37   2.0000      -0.664945       -18.0941
  38   2.0000      -0.643527       -17.5113
  39   2.0000      -0.617647       -16.8070
  40   2.0000      -0.588690       -16.0191
  41   2.0000      -0.571212       -15.5435
  42   2.0000      -0.568956       -15.4821
  43   2.0000      -0.556532       -15.1440
  44   2.0000      -0.535606       -14.5746
  45   2.0000      -0.530458       -14.4345
  46   2.0000      -0.512713       -13.9516
  47   2.0000      -0.508020       -13.8239
  48   2.0000      -0.503665       -13.7054
  49   2.0000      -0.498530       -13.5657
  50   2.0000      -0.496455       -13.5092
  51   2.0000      -0.480059       -13.0631
  52   2.0000      -0.472042       -12.8449
  53   2.0000      -0.467378       -12.7180
  54   2.0000      -0.456897       -12.4328
  55   2.0000      -0.451018       -12.2728
  56   2.0000      -0.448278       -12.1983
  57   2.0000      -0.437450       -11.9036
  58   2.0000      -0.433291       -11.7905
  59   2.0000      -0.431220       -11.7341
  60   2.0000      -0.421643       -11.4735
  61   2.0000      -0.407678       -11.0935
  62   2.0000      -0.403412       -10.9774
  63   2.0000      -0.354640        -9.6502
  64   2.0000      -0.335625        -9.1328
  65   2.0000      -0.331706        -9.0262
  66   2.0000      -0.280951        -7.6451
  67   0.0000       0.023662         0.6439
  68   0.0000       0.082276         2.2389
  69   0.0000       0.109401         2.9769
  70   0.0000       0.121607         3.3091
  71   0.0000       0.140749         3.8300

MULLIKEN ATOMIC CHARGES
-----------------------
   0 S :    0.122601
   1 C :   -0.088394
   2 C :   -0.094627
   3 C :    0.028882
   4 C :   -0.148083
   5 H :   -0.036181
   6 C :    0.118602
   7 H :    0.032477
   8 H :    0.026706
   9 C :   -0.113359
  10 H :    0.040321
  11 H :    0.035776
  12 C :   -0.065078
  13 H :    0.032040
  14 H :    0.037915
  15 H :    0.034130
  16 S :    0.108336
  17 C :   -0.068362
  18 C :   -0.052529
  19 C :   -0.032003
  20 C :   -0.137029
  21 H :    0.014741
  22 C :    0.045273
  23 H :    0.016929
  24 H :    0.014817
  25 C :   -0.033366
  26 H :    0.047341
  27 H :    0.017823
  28 C :   -0.024742
  29 H :    0.028552
  30 H :    0.022709
  31 H :    0.024765
  32 H :    0.009031
  33 H :    0.033987
Sum of atomic charges:   -0.0000000

LOEWDIN ATOMIC CHARGES
----------------------
   0 S :    0.454199
   1 C :   -0.203809
   2 C :   -0.062738
   3 C :   -0.067280
   4 C :   -0.209519
   5 H :    0.016250
   6 C :   -0.024401
   7 H :    0.029764
   8 H :    0.035573
   9 C :   -0.048971
  10 H :    0.031316
  11 H :    0.025219
  12 C :   -0.081396
  13 H :    0.030433
  14 H :    0.026837
  15 H :    0.031703
  16 S :    0.410347
  17 C :   -0.180444
  18 C :   -0.068017
  19 C :   -0.057892
  20 C :   -0.205555
  21 H :    0.034144
  22 C :   -0.039181
  23 H :    0.034994
  24 H :    0.023802
  25 C :   -0.034575
  26 H :    0.034653
  27 H :    0.020695
  28 C :   -0.058951
  29 H :    0.018546
  30 H :    0.026029
  31 H :    0.025102
  32 H :    0.009945
  33 H :    0.023178

  Mayer bond orders larger than 0.100000
B(  0-S ,  1-C ) :   1.1674 B(  0-S ,  4-C ) :   1.1770 B(  1-C ,  2-C ) :   1.5602
B(  1-C , 32-H ) :   0.9817 B(  2-C ,  3-C ) :   1.2691 B(  2-C ,  6-C ) :   1.0251
B(  3-C ,  4-C ) :   1.5375 B(  3-C ,  5-H ) :   1.0089 B(  4-C , 20-C ) :   1.0635
B(  6-C ,  7-H ) :   0.9358 B(  6-C ,  8-H ) :   0.9425 B(  6-C ,  9-C ) :   1.0635
B(  9-C , 10-H ) :   0.9647 B(  9-C , 11-H ) :   0.9591 B(  9-C , 12-C ) :   1.0575
B( 12-C , 13-H ) :   0.9746 B( 12-C , 14-H ) :   0.9796 B( 12-C , 15-H ) :   0.9748
B( 16-S , 17-C ) :   1.1287 B( 16-S , 20-C ) :   1.1542 B( 17-C , 18-C ) :   1.6472
B( 17-C , 33-H ) :   0.9635 B( 18-C , 19-C ) :   1.2530 B( 18-C , 21-H ) :   0.9901
B( 19-C , 20-C ) :   1.5542 B( 19-C , 22-C ) :   1.0229 B( 22-C , 23-H ) :   0.9325
B( 22-C , 24-H ) :   0.9312 B( 22-C , 25-C ) :   1.0609 B( 25-C , 26-H ) :   0.9543
B( 25-C , 27-H ) :   0.9524 B( 25-C , 28-C ) :   1.0888 B( 28-C , 29-H ) :   0.9746
B( 28-C , 30-H ) :   0.9753 B( 28-C , 31-H ) :   0.9730

Dispersion correction           -0.014771289
FINAL SINGLE POINT ENERGY     -1339.867246587210

DIPOLE MOMENT
-------------
                                X             Y             Z
Electronic contribution:      1.07437     -22.32352      10.00332
Nuclear contribution   :     -1.18650      22.69831     -10.35406
                        -----------------------------------------
Total Dipole Moment    :     -0.11213       0.37479      -0.35073
                        -----------------------------------------
Magnitude (a.u.)       :      0.52540
Magnitude (Debye)      :      1.33547

Rotational constants in cm-1:     0.018343     0.009296     0.007183
Rotational constants in MHz :   549.898616   278.682312   215.349728

                             ****ORCA TERMINATED NORMALLY****
TOTAL RUN TIME: 0 days 0 hours 0 minutes 30 seconds 672 msec
