                         Program Version 4.2.1 -  RELEASE  -
|  1> ! wB97X-D3 SP def2-SVP
|  2> %pal
|  3> nprocs 16
|  4> end
|  5>
|  6> * xyz 0 1
|  7> S 	 -32.6718 	 75.0512 	 167.396
|  8> C 	 -31.9716 	 75.3602 	 165.8
|  9> C 	 -32.969 	 75.3141 	 164.802
| 10> C 	 -34.2761 	 75.076 	 165.34
| 11> C 	 -34.2752 	 74.9889 	 166.742
| 12> H 	 -35.1986 	 75.1154 	 164.828
| 13> C 	 -32.7671 	 75.4343 	 163.305
| 14> H 	 -32.0112 	 76.1423 	 163.045
| 15> H 	 -33.6216 	 75.869 	 162.804
| 16> C 	 -32.4887 	 74.0869 	 162.575
| 17> H 	 -31.6047 	 73.639 	 162.84
| 18> H 	 -33.1971 	 73.3518 	 162.803
| 19> C 	 -32.515 	 74.3754 	 161.101
| 20> H 	 -31.697 	 75.0247 	 160.81
| 21> H 	 -32.2908 	 73.4859 	 160.439
| 22> H 	 -33.4265 	 74.7445 	 160.611
| 23> S 	 -35.4122 	 76.5273 	 168.742
| 24> C 	 -37.1123 	 76.2101 	 169.035
| 25> C 	 -37.6284 	 75.1167 	 168.316
| 26> C 	 -36.6104 	 74.3438 	 167.659
| 27> C 	 -35.4144 	 75.0754 	 167.625
| 28> H 	 -38.611 	 74.7718 	 168.48
| 29> C 	 -36.9084 	 73.199 	 166.786
| 30> H 	 -36.0507 	 72.6366 	 166.405
| 31> H 	 -37.3762 	 73.5748 	 165.901
| 32> C 	 -37.8208 	 72.1508 	 167.454
| 33> H 	 -38.156 	 71.4613 	 166.661
| 34> H 	 -38.6967 	 72.5832 	 167.867
| 35> C 	 -37.047 	 71.4166 	 168.537
| 36> H 	 -37.6793 	 70.643 	 169
| 37> H 	 -36.6898 	 72.1912 	 169.281
| 38> H 	 -36.1359 	 70.901 	 168.132
| 39> H 	 -30.903 	 75.3981 	 165.595
| 40> H 	 -37.7491 	 76.7603 	 169.688
| 41> *
| 42>
| 43>                          ****END OF INPUT****

CARTESIAN COORDINATES (ANGSTROEM)
---------------------------------
  S    -32.671800   75.051200  167.396000
  C    -31.971600   75.360200  165.800000
  C    -32.969000   75.314100  164.802000
  C    -34.276100   75.076000  165.340000
  C    -34.275200   74.988900  166.742000
  H    -35.198600   75.115400  164.828000
  C    -32.767100   75.434300  163.305000
  H    -32.011200   76.142300  163.045000
  H    -33.621600   75.869000  162.804000
  C    -32.488700   74.086900  162.575000
  H    -31.604700   73.639000  162.840000
  H    -33.197100   73.351800  162.803000
  C    -32.515000   74.375400  161.101000
  H    -31.697000   75.024700  160.810000
  H    -32.290800   73.485900  160.439000
  H    -33.426500   74.744500  160.611000
  S    -35.412200   76.527300  168.742000
  C    -37.112300   76.210100  169.035000
  C    -37.628400   75.116700  168.316000
  C    -36.610400   74.343800  167.659000
  C    -35.414400   75.075400  167.625000
  H    -38.611000   74.771800  168.480000
  C    -36.908400   73.199000  166.786000
  H    -36.050700   72.636600  166.405000
  H    -37.376200   73.574800  165.901000
  C    -37.820800   72.150800  167.454000
  H    -38.156000   71.461300  166.661000
  H    -38.696700   72.583200  167.867000
  C    -37.047000   71.416600  168.537000
  H    -37.679300   70.643000  169.000000
  H    -36.689800   72.191200  169.281000
  H    -36.135900   70.901000  168.132000
  H    -30.903000   75.398100  165.595000
  H    -37.749100   76.760300  169.688000

 Total Charge           Charge          ....    0
 Multiplicity           Mult            ....    1
 Number of Electrons    NEL             ....  134
 Basis Dimension        Dim             ....  322

ORBITAL ENERGIES
----------------

  NO   OCC          E(Eh)            E(eV)
   0   2.0000     -88.967694     -2420.9340
   1   2.0000     -88.966951     -2420.9138
   2   2.0000     -10.328832      -281.0618
   3   2.0000     -10.327303      -281.0202
   4   2.0000     -10.320146      -280.8254
   5   2.0000     -10.318436      -280.7789
   6   2.0000     -10.306188      -280.4456
   7   2.0000     -10.304868      -280.4097
   8   2.0000     -10.294209      -280.1197
   9   2.0000     -10.293544      -280.1016
  10   2.0000     -10.289620      -279.9948
  11   2.0000     -10.286889      -279.9205
  12   2.0000     -10.283176      -279.8194
  13   2.0000     -10.280736      -279.7531
  14   2.0000     -10.279232      -279.7121
  15   2.0000     -10.277023      -279.6520
  16   2.0000      -8.081545      -219.9100
  17   2.0000      -8.081164      -219.8997
  18   2.0000      -6.040038      -164.3578
  19   2.0000      -6.039636      -164.3468
  20   2.0000      -6.036018      -164.2484
  21   2.0000      -6.035980      -164.2474
  22   2.0000      -6.032431      -164.1508
  23   2.0000      -6.031842      -164.1348
  24   2.0000      -1.000497       -27.2249
  25   2.0000      -0.975459       -26.5436
  26   2.0000      -0.916194       -24.9309
  27   2.0000      -0.913486       -24.8572
  28   2.0000      -0.866570       -23.5806
  29   2.0000      -0.852220       -23.1901
  30   2.0000      -0.844216       -22.9723
  31   2.0000      -0.808013       -21.9872
  32   2.0000      -0.781920       -21.2771
  33   2.0000      -0.767696       -20.8901
  34   2.0000      -0.715032       -19.4570
  35   2.0000      -0.702758       -19.1230
  36   2.0000      -0.695374       -18.9221
  37   2.0000      -0.656706       -17.8699
  38   2.0000      -0.645811       -17.5734
  39   2.0000      -0.619138       -16.8476
  40   2.0000      -0.605257       -16.4699
  41   2.0000      -0.570229       -15.5167
  42   2.0000      -0.560222       -15.2444
  43   2.0000      -0.558959       -15.2100
  44   2.0000      -0.538420       -14.6512
  45   2.0000      -0.521141       -14.1810
  46   2.0000      -0.518379       -14.1058
  47   2.0000      -0.506314       -13.7775
  48   2.0000      -0.504664       -13.7326
  49   2.0000      -0.496877       -13.5207
  50   2.0000      -0.487930       -13.2773
  51   2.0000      -0.471680       -12.8351
  52   2.0000      -0.468112       -12.7380
  53   2.0000      -0.460015       -12.5176
  54   2.0000      -0.457348       -12.4451
  55   2.0000      -0.456467       -12.4211
  56   2.0000      -0.447095       -12.1661
  57   2.0000      -0.436096       -11.8668
  58   2.0000      -0.433356       -11.7922
  59   2.0000      -0.426401       -11.6030
  60   2.0000      -0.425795       -11.5865
  61   2.0000      -0.419598       -11.4178
  62   2.0000      -0.416575       -11.3356
  63   2.0000      -0.340274        -9.2593
  64   2.0000      -0.331547        -9.0218
  65   2.0000      -0.328607        -8.9419
  66   2.0000      -0.286829        -7.8050
  67   0.0000       0.024077         0.6552
  68   0.0000       0.061881         1.6839
  69   0.0000       0.108455         2.9512
  70   0.0000       0.117279         3.1913
  71   0.0000       0.126066         3.4304

MULLIKEN ATOMIC CHARGES
-----------------------
   0 S :    0.110411
   1 C :   -0.120300
   2 C :   -0.076338
   3 C :    0.057259
   4 C :   -0.172087
   5 H :    0.000633
   6 C :    0.050851
   7 H :    0.014833
   8 H :    0.014273
   9 C :    0.027754
  10 H :    0.004582
  11 H :    0.011411
  12 C :   -0.088812
  13 H :    0.022818
  14 H :    0.026793
  15 H :    0.035295
  16 S :    0.111030
  17 C :   -0.073995
  18 C :   -0.029847
  19 C :   -0.033424
  20 C :   -0.145673
  21 H :    0.010203
  22 C :    0.053250
  23 H :    0.028988
  24 H :    0.033364
  25 C :   -0.068421
  26 H :    0.027020
  27 H :    0.018296
  28 C :   -0.080072
  29 H :    0.040443
  30 H :    0.054614
  31 H :    0.035944
  32 H :    0.053002
  33 H :    0.045903
Sum of atomic charges:    0.0000000

LOEWDIN ATOMIC CHARGES
----------------------
   0 S :    0.409296
   1 C :   -0.198937
   2 C :   -0.056766
   3 C :   -0.054209
   4 C :   -0.201882
   5 H :    0.025729
   6 C :   -0.027794
   7 H :    0.026721
   8 H :    0.030024
   9 C :   -0.024192
  10 H :    0.015596
  11 H :    0.019509
  12 C :   -0.075214
  13 H :    0.022622
  14 H :    0.030035
  15 H :    0.025505
  16 S :    0.375211
  17 C :   -0.172198
  18 C :   -0.065319
  19 C :   -0.051933
  20 C :   -0.176456
  21 H :    0.021307
  22 C :   -0.033193
  23 H :    0.034173
  24 H :    0.031506
  25 C :   -0.039422
  26 H :    0.025918
  27 H :    0.014257
  28 C :   -0.071184
  29 H :    0.025828
  30 H :    0.035337
  31 H :    0.028341
  32 H :    0.029321
  33 H :    0.022462

  Mayer bond orders larger than 0.100000
B(  0-S ,  1-C ) :   1.1338 B(  0-S ,  4-C ) :   1.1677 B(  1-C ,  2-C ) :   1.5897
B(  1-C , 32-H ) :   0.9711 B(  2-C ,  3-C ) :   1.2539 B(  2-C ,  6-C ) :   1.0316
B(  3-C ,  4-C ) :   1.5379 B(  3-C ,  5-H ) :   0.9984 B(  4-C , 20-C ) :   1.0537
B(  6-C ,  7-H ) :   0.9425 B(  6-C ,  8-H ) :   0.9456 B(  6-C ,  9-C ) :   1.0542
B(  9-C , 10-H ) :   0.9498 B(  9-C , 11-H ) :   0.9534 B(  9-C , 12-C ) :   1.0852
B( 12-C , 13-H ) :   0.9728 B( 12-C , 14-H ) :   0.9700 B( 12-C , 15-H ) :   0.9758
B( 16-S , 17-C ) :   1.1472 B( 16-S , 20-C ) :   1.1118 B( 17-C , 18-C ) :   1.6374
B( 17-C , 33-H ) :   0.9681 B( 18-C , 19-C ) :   1.2092 B( 18-C , 21-H ) :   0.9831
B( 19-C , 20-C ) :   1.5903 B( 19-C , 22-C ) :   1.0650 B( 22-C , 23-H ) :   0.9339
B( 22-C , 24-H ) :   0.9282 B( 22-C , 25-C ) :   1.0714 B( 25-C , 26-H ) :   0.9520
B( 25-C , 27-H ) :   0.9561 B( 25-C , 28-C ) :   1.0762 B( 28-C , 29-H ) :   0.9738
B( 28-C , 30-H ) :   0.9718 B( 28-C , 31-H ) :   0.9730

Dispersion correction           -0.013942833
FINAL SINGLE POINT ENERGY     -1339.872220520127

DIPOLE MOMENT
-------------
                                X             Y             Z
Electronic contribution:      4.97745      15.74461      20.46132
Nuclear contribution   :     -5.29484     -16.00249     -21.05507
                        -----------------------------------------
Total Dipole Moment    :     -0.31739      -0.25788      -0.59375
                        -----------------------------------------
Magnitude (a.u.)       :      0.72096
Magnitude (Debye)      :      1.83253

Rotational constants in cm-1:     0.019508     0.007804     0.006487
Rotational constants in MHz :   584.850066   233.946738   194.461045

                             ****ORCA TERMINATED NORMALLY****
TOTAL RUN TIME: 0 days 0 hours 0 minutes 33 seconds 613 msec
