                         Program Version 4.2.1 -  RELEASE  -
|  1> ! wB97X-D3 SP def2-SVP
|  2> %pal
|  3> nprocs 16
|  4> end
|  5>
|  6> * xyz 0 1
|  7> S 	 -0.228247 	 -24.6296 	 63.9548
|  8> C 	 -1.77898 	 -24.9709 	 64.7984
|  9> C 	 -2.57594 	 -25.8385 	 64.0986
| 10> C 	 -2.10364 	 -26.037 	 62.8329
| 11> C 	 -0.918025 	 -25.2966 	 62.4882
| 12> H 	 -2.55423 	 -26.7055 	 62.0837
| 13> C 	 -3.98885 	 -26.2401 	 64.6076
| 14> H 	 -3.94343 	 -26.618 	 65.6028
| 15> H 	 -4.38101 	 -26.9966 	 63.9636
| 16> C 	 -5.03197 	 -25.1197 	 64.5341
| 17> H 	 -4.76848 	 -24.4338 	 65.3088
| 18> H 	 -4.90003 	 -24.5842 	 63.587
| 19> C 	 -6.52174 	 -25.5473 	 64.553
| 20> H 	 -7.23369 	 -24.7187 	 64.7293
| 21> H 	 -6.80968 	 -25.8729 	 63.5717
| 22> H 	 -6.72225 	 -26.311 	 65.323
| 23> S 	 1.43841 	 -25.3616 	 61.1739
| 24> C 	 1.49952 	 -25.2686 	 59.4949
| 25> C 	 0.282644 	 -24.9841 	 58.9175
| 26> C 	 -0.757848 	 -24.9372 	 59.9415
| 27> C 	 -0.283488 	 -25.156 	 61.2063
| 28> H 	 0.253704 	 -24.9426 	 57.8832
| 29> C 	 -2.27363 	 -24.9471 	 59.5915
| 30> H 	 -2.90571 	 -24.6127 	 60.4212
| 31> H 	 -2.57582 	 -26.0012 	 59.5395
| 32> C 	 -2.73637 	 -24.2363 	 58.283
| 33> H 	 -3.71034 	 -24.8102 	 58.0138
| 34> H 	 -2.13731 	 -24.5276 	 57.3861
| 35> C 	 -2.88681 	 -22.6901 	 58.4248
| 36> H 	 -1.86036 	 -22.249 	 58.5986
| 37> H 	 -3.60738 	 -22.4638 	 59.1858
| 38> H 	 -3.37065 	 -22.2526 	 57.5188
| 39> H 	 -2.02225 	 -24.3761 	 65.7052
| 40> H 	 2.41357 	 -25.4618 	 58.9444
| 41> *
| 42>
| 43>                          ****END OF INPUT****

CARTESIAN COORDINATES (ANGSTROEM)
---------------------------------
  S     -0.228247  -24.629600   63.954800
  C     -1.778980  -24.970900   64.798400
  C     -2.575940  -25.838500   64.098600
  C     -2.103640  -26.037000   62.832900
  C     -0.918025  -25.296600   62.488200
  H     -2.554230  -26.705500   62.083700
  C     -3.988850  -26.240100   64.607600
  H     -3.943430  -26.618000   65.602800
  H     -4.381010  -26.996600   63.963600
  C     -5.031970  -25.119700   64.534100
  H     -4.768480  -24.433800   65.308800
  H     -4.900030  -24.584200   63.587000
  C     -6.521740  -25.547300   64.553000
  H     -7.233690  -24.718700   64.729300
  H     -6.809680  -25.872900   63.571700
  H     -6.722250  -26.311000   65.323000
  S      1.438410  -25.361600   61.173900
  C      1.499520  -25.268600   59.494900
  C      0.282644  -24.984100   58.917500
  C     -0.757848  -24.937200   59.941500
  C     -0.283488  -25.156000   61.206300
  H      0.253704  -24.942600   57.883200
  C     -2.273630  -24.947100   59.591500
  H     -2.905710  -24.612700   60.421200
  H     -2.575820  -26.001200   59.539500
  C     -2.736370  -24.236300   58.283000
  H     -3.710340  -24.810200   58.013800
  H     -2.137310  -24.527600   57.386100
  C     -2.886810  -22.690100   58.424800
  H     -1.860360  -22.249000   58.598600
  H     -3.607380  -22.463800   59.185800
  H     -3.370650  -22.252600   57.518800
  H     -2.022250  -24.376100   65.705200
  H      2.413570  -25.461800   58.944400

 Total Charge           Charge          ....    0
 Multiplicity           Mult            ....    1
 Number of Electrons    NEL             ....  134
 Basis Dimension        Dim             ....  322

ORBITAL ENERGIES
----------------

  NO   OCC          E(Eh)            E(eV)
   0   2.0000     -88.966836     -2420.9107
   1   2.0000     -88.961013     -2420.7522
   2   2.0000     -10.334214      -281.2082
   3   2.0000     -10.320866      -280.8450
   4   2.0000     -10.316482      -280.7258
   5   2.0000     -10.312830      -280.6264
   6   2.0000     -10.308529      -280.5093
   7   2.0000     -10.299735      -280.2701
   8   2.0000     -10.299408      -280.2611
   9   2.0000     -10.296450      -280.1806
  10   2.0000     -10.296008      -280.1686
  11   2.0000     -10.292091      -280.0620
  12   2.0000     -10.291126      -280.0358
  13   2.0000     -10.285598      -279.8854
  14   2.0000     -10.284810      -279.8639
  15   2.0000     -10.283534      -279.8292
  16   2.0000      -8.081058      -219.8968
  17   2.0000      -8.077952      -219.8123
  18   2.0000      -6.039438      -164.3415
  19   2.0000      -6.036306      -164.2562
  20   2.0000      -6.035809      -164.2427
  21   2.0000      -6.032171      -164.1437
  22   2.0000      -6.031822      -164.1342
  23   2.0000      -6.028732      -164.0501
  24   2.0000      -1.012066       -27.5397
  25   2.0000      -0.986883       -26.8545
  26   2.0000      -0.911659       -24.8075
  27   2.0000      -0.899361       -24.4728
  28   2.0000      -0.872556       -23.7435
  29   2.0000      -0.850057       -23.1312
  30   2.0000      -0.841892       -22.9090
  31   2.0000      -0.809703       -22.0331
  32   2.0000      -0.786602       -21.4045
  33   2.0000      -0.774687       -21.0803
  34   2.0000      -0.705571       -19.1996
  35   2.0000      -0.702335       -19.1115
  36   2.0000      -0.693993       -18.8845
  37   2.0000      -0.657855       -17.9011
  38   2.0000      -0.635334       -17.2883
  39   2.0000      -0.621902       -16.9228
  40   2.0000      -0.599571       -16.3152
  41   2.0000      -0.571345       -15.5471
  42   2.0000      -0.567746       -15.4492
  43   2.0000      -0.546736       -14.8775
  44   2.0000      -0.533039       -14.5047
  45   2.0000      -0.525863       -14.3095
  46   2.0000      -0.520521       -14.1641
  47   2.0000      -0.506400       -13.7798
  48   2.0000      -0.502838       -13.6829
  49   2.0000      -0.498474       -13.5642
  50   2.0000      -0.486117       -13.2279
  51   2.0000      -0.480419       -13.0729
  52   2.0000      -0.474419       -12.9096
  53   2.0000      -0.465969       -12.6797
  54   2.0000      -0.459903       -12.5146
  55   2.0000      -0.450435       -12.2569
  56   2.0000      -0.444137       -12.0856
  57   2.0000      -0.436083       -11.8664
  58   2.0000      -0.433673       -11.8009
  59   2.0000      -0.426274       -11.5995
  60   2.0000      -0.422372       -11.4933
  61   2.0000      -0.419144       -11.4055
  62   2.0000      -0.405553       -11.0357
  63   2.0000      -0.352118        -9.5816
  64   2.0000      -0.336466        -9.1557
  65   2.0000      -0.328718        -8.9449
  66   2.0000      -0.280457        -7.6316
  67   0.0000       0.021640         0.5889
  68   0.0000       0.067173         1.8279
  69   0.0000       0.102113         2.7786
  70   0.0000       0.120585         3.2813
  71   0.0000       0.138302         3.7634

MULLIKEN ATOMIC CHARGES
-----------------------
   0 S :    0.103278
   1 C :   -0.169675
   2 C :   -0.030034
   3 C :   -0.011573
   4 C :   -0.150272
   5 H :    0.019260
   6 C :    0.099233
   7 H :    0.027817
   8 H :    0.005122
   9 C :   -0.075519
  10 H :    0.020124
  11 H :    0.030080
  12 C :   -0.054233
  13 H :    0.036799
  14 H :    0.027573
  15 H :    0.037925
  16 S :    0.105602
  17 C :   -0.091770
  18 C :   -0.019441
  19 C :   -0.012735
  20 C :   -0.143038
  21 H :   -0.005474
  22 C :    0.016695
  23 H :    0.029931
  24 H :    0.042253
  25 C :   -0.115355
  26 H :    0.030176
  27 H :    0.032800
  28 C :   -0.043358
  29 H :    0.060154
  30 H :    0.029863
  31 H :    0.038330
  32 H :    0.070208
  33 H :    0.059256
Sum of atomic charges:    0.0000000

LOEWDIN ATOMIC CHARGES
----------------------
   0 S :    0.385829
   1 C :   -0.182327
   2 C :   -0.067253
   3 C :   -0.069291
   4 C :   -0.184241
   5 H :    0.033362
   6 C :   -0.017967
   7 H :    0.026997
   8 H :    0.023365
   9 C :   -0.039590
  10 H :    0.015938
  11 H :    0.026851
  12 C :   -0.068004
  13 H :    0.032480
  14 H :    0.022558
  15 H :    0.026085
  16 S :    0.430287
  17 C :   -0.195152
  18 C :   -0.069130
  19 C :   -0.051267
  20 C :   -0.210507
  21 H :    0.020372
  22 C :   -0.038857
  23 H :    0.030656
  24 H :    0.034008
  25 C :   -0.054646
  26 H :    0.031976
  27 H :    0.022912
  28 C :   -0.069932
  29 H :    0.038467
  30 H :    0.022311
  31 H :    0.030643
  32 H :    0.033031
  33 H :    0.030034

  Mayer bond orders larger than 0.100000
B(  0-S ,  1-C ) :   1.1408 B(  0-S ,  4-C ) :   1.1651 B(  1-C ,  2-C ) :   1.5636
B(  1-C ,  4-C ) :   0.1216 B(  1-C , 32-H ) :   0.9680 B(  2-C ,  3-C ) :   1.2879
B(  2-C ,  6-C ) :   1.0266 B(  3-C ,  4-C ) :   1.5053 B(  3-C ,  5-H ) :   0.9942
B(  4-C , 20-C ) :   1.0757 B(  6-C ,  7-H ) :   0.9360 B(  6-C ,  8-H ) :   0.9422
B(  6-C ,  9-C ) :   1.0624 B(  9-C , 10-H ) :   0.9580 B(  9-C , 11-H ) :   0.9585
B(  9-C , 12-C ) :   1.0778 B( 12-C , 13-H ) :   0.9734 B( 12-C , 14-H ) :   0.9755
B( 12-C , 15-H ) :   0.9773 B( 16-S , 17-C ) :   1.1816 B( 16-S , 20-C ) :   1.1309
B( 17-C , 18-C ) :   1.6109 B( 17-C , 33-H ) :   0.9649 B( 18-C , 19-C ) :   1.1999
B( 18-C , 21-H ) :   1.0097 B( 19-C , 20-C ) :   1.6167 B( 19-C , 22-C ) :   1.0315
B( 22-C , 23-H ) :   0.9352 B( 22-C , 24-H ) :   0.9390 B( 22-C , 25-C ) :   1.0685
B( 25-C , 26-H ) :   0.9547 B( 25-C , 27-H ) :   0.9540 B( 25-C , 28-C ) :   1.0653
B( 28-C , 29-H ) :   0.9750 B( 28-C , 30-H ) :   0.9749 B( 28-C , 31-H ) :   0.9745

Dispersion correction           -0.013835720
FINAL SINGLE POINT ENERGY     -1339.866016550537

DIPOLE MOMENT
-------------
                                X             Y             Z
Electronic contribution:     30.64369      -2.89991       6.24603
Nuclear contribution   :    -31.31906       2.80009      -6.56686
                        -----------------------------------------
Total Dipole Moment    :     -0.67537      -0.09981      -0.32083
                        -----------------------------------------
Magnitude (a.u.)       :      0.75433
Magnitude (Debye)      :      1.91736

Rotational constants in cm-1:     0.017590     0.008733     0.006337
Rotational constants in MHz :   527.331424   261.821496   189.977613

                             ****ORCA TERMINATED NORMALLY****
TOTAL RUN TIME: 0 days 0 hours 0 minutes 34 seconds 303 msec
