                         Program Version 4.2.1 -  RELEASE  -
|  1> ! wB97X-D3 SP def2-SVP
|  2> %pal
|  3> nprocs 16
|  4> end
|  5>
|  6> * xyz 0 1
|  7> S 	 -35.3206 	 36.3645 	 42.7607
|  8> C 	 -36.1057 	 35.6395 	 44.1714
|  9> C 	 -35.3795 	 34.6706 	 44.7824
| 10> C 	 -34.2054 	 34.4131 	 44.0647
| 11> C 	 -34.0159 	 35.2488 	 42.9724
| 12> H 	 -33.4373 	 33.6506 	 44.3082
| 13> C 	 -35.8805 	 33.965 	 46.0738
| 14> H 	 -36.5247 	 33.25 	 45.6427
| 15> H 	 -36.3497 	 34.8011 	 46.6017
| 16> C 	 -34.889 	 33.1662 	 47.0053
| 17> H 	 -34.1012 	 33.8294 	 47.3572
| 18> H 	 -35.2717 	 32.8678 	 47.9899
| 19> C 	 -34.2499 	 31.8973 	 46.4306
| 20> H 	 -33.4407 	 32.0956 	 45.6954
| 21> H 	 -33.6843 	 31.3822 	 47.1722
| 22> H 	 -34.9045 	 31.2056 	 45.8689
| 23> S 	 -32.098 	 36.5414 	 41.5187
| 24> C 	 -31.1865 	 35.543 	 40.437
| 25> C 	 -31.7768 	 34.3309 	 40.2232
| 26> C 	 -32.7924 	 33.9853 	 41.1223
| 27> C 	 -33.0498 	 35.1053 	 41.9404
| 28> H 	 -31.4839 	 33.6769 	 39.4975
| 29> C 	 -33.4017 	 32.5616 	 41.2533
| 30> H 	 -34.2387 	 32.3886 	 40.4833
| 31> H 	 -33.8729 	 32.454 	 42.217
| 32> C 	 -32.5422 	 31.3442 	 40.7938
| 33> H 	 -32.0415 	 31.5582 	 39.8196
| 34> H 	 -33.1834 	 30.4234 	 40.7558
| 35> C 	 -31.4293 	 31.2194 	 41.9216
| 36> H 	 -30.5635 	 31.7307 	 41.6915
| 37> H 	 -31.079 	 30.2087 	 41.8406
| 38> H 	 -31.7983 	 31.2957 	 42.9351
| 39> H 	 -37.0186 	 35.93 	 44.6721
| 40> H 	 -30.3142 	 35.8373 	 39.8169
| 41> *
| 42>
| 43>                          ****END OF INPUT****

CARTESIAN COORDINATES (ANGSTROEM)
---------------------------------
  S    -35.320600   36.364500   42.760700
  C    -36.105700   35.639500   44.171400
  C    -35.379500   34.670600   44.782400
  C    -34.205400   34.413100   44.064700
  C    -34.015900   35.248800   42.972400
  H    -33.437300   33.650600   44.308200
  C    -35.880500   33.965000   46.073800
  H    -36.524700   33.250000   45.642700
  H    -36.349700   34.801100   46.601700
  C    -34.889000   33.166200   47.005300
  H    -34.101200   33.829400   47.357200
  H    -35.271700   32.867800   47.989900
  C    -34.249900   31.897300   46.430600
  H    -33.440700   32.095600   45.695400
  H    -33.684300   31.382200   47.172200
  H    -34.904500   31.205600   45.868900
  S    -32.098000   36.541400   41.518700
  C    -31.186500   35.543000   40.437000
  C    -31.776800   34.330900   40.223200
  C    -32.792400   33.985300   41.122300
  C    -33.049800   35.105300   41.940400
  H    -31.483900   33.676900   39.497500
  C    -33.401700   32.561600   41.253300
  H    -34.238700   32.388600   40.483300
  H    -33.872900   32.454000   42.217000
  C    -32.542200   31.344200   40.793800
  H    -32.041500   31.558200   39.819600
  H    -33.183400   30.423400   40.755800
  C    -31.429300   31.219400   41.921600
  H    -30.563500   31.730700   41.691500
  H    -31.079000   30.208700   41.840600
  H    -31.798300   31.295700   42.935100
  H    -37.018600   35.930000   44.672100
  H    -30.314200   35.837300   39.816900

 Total Charge           Charge          ....    0
 Multiplicity           Mult            ....    1
 Number of Electrons    NEL             ....  134
 Basis Dimension        Dim             ....  322

ORBITAL ENERGIES
----------------

  NO   OCC          E(Eh)            E(eV)
   0   2.0000     -88.967736     -2420.9352
   1   2.0000     -88.965956     -2420.8867
   2   2.0000     -10.321982      -280.8754
   3   2.0000     -10.319007      -280.7945
   4   2.0000     -10.315102      -280.6882
   5   2.0000     -10.304984      -280.4129
   6   2.0000     -10.304370      -280.3962
   7   2.0000     -10.302185      -280.3367
   8   2.0000     -10.299159      -280.2544
   9   2.0000     -10.298804      -280.2447
  10   2.0000     -10.295330      -280.1502
  11   2.0000     -10.295121      -280.1445
  12   2.0000     -10.289016      -279.9784
  13   2.0000     -10.283049      -279.8160
  14   2.0000     -10.281531      -279.7747
  15   2.0000     -10.267922      -279.4044
  16   2.0000      -8.082441      -219.9344
  17   2.0000      -8.080665      -219.8861
  18   2.0000      -6.040807      -164.3787
  19   2.0000      -6.039170      -164.3342
  20   2.0000      -6.037152      -164.2793
  21   2.0000      -6.035266      -164.2279
  22   2.0000      -6.033164      -164.1707
  23   2.0000      -6.031332      -164.1209
  24   2.0000      -1.008969       -27.4554
  25   2.0000      -0.985021       -26.8038
  26   2.0000      -0.907941       -24.7063
  27   2.0000      -0.903119       -24.5751
  28   2.0000      -0.872147       -23.7323
  29   2.0000      -0.849113       -23.1055
  30   2.0000      -0.844427       -22.9780
  31   2.0000      -0.813010       -22.1231
  32   2.0000      -0.788219       -21.4485
  33   2.0000      -0.772845       -21.0302
  34   2.0000      -0.714300       -19.4371
  35   2.0000      -0.700790       -19.0695
  36   2.0000      -0.694762       -18.9054
  37   2.0000      -0.658651       -17.9228
  38   2.0000      -0.633733       -17.2448
  39   2.0000      -0.615490       -16.7483
  40   2.0000      -0.597408       -16.2563
  41   2.0000      -0.572008       -15.5651
  42   2.0000      -0.548423       -14.9233
  43   2.0000      -0.545553       -14.8452
  44   2.0000      -0.538481       -14.6528
  45   2.0000      -0.534692       -14.5497
  46   2.0000      -0.520930       -14.1752
  47   2.0000      -0.511615       -13.9218
  48   2.0000      -0.499802       -13.6003
  49   2.0000      -0.491731       -13.3807
  50   2.0000      -0.485828       -13.2200
  51   2.0000      -0.484182       -13.1753
  52   2.0000      -0.477248       -12.9866
  53   2.0000      -0.465641       -12.6707
  54   2.0000      -0.458794       -12.4844
  55   2.0000      -0.452561       -12.3148
  56   2.0000      -0.450514       -12.2591
  57   2.0000      -0.441492       -12.0136
  58   2.0000      -0.435184       -11.8419
  59   2.0000      -0.432131       -11.7589
  60   2.0000      -0.426944       -11.6177
  61   2.0000      -0.405879       -11.0445
  62   2.0000      -0.399451       -10.8696
  63   2.0000      -0.339520        -9.2388
  64   2.0000      -0.334458        -9.1011
  65   2.0000      -0.329432        -8.9643
  66   2.0000      -0.284364        -7.7379
  67   0.0000       0.033610         0.9146
  68   0.0000       0.064749         1.7619
  69   0.0000       0.108496         2.9523
  70   0.0000       0.120958         3.2914
  71   0.0000       0.129311         3.5187

MULLIKEN ATOMIC CHARGES
-----------------------
   0 S :    0.125373
   1 C :   -0.126653
   2 C :   -0.095232
   3 C :    0.001581
   4 C :   -0.142029
   5 H :    0.010373
   6 C :    0.093696
   7 H :    0.041056
   8 H :    0.043022
   9 C :   -0.061797
  10 H :    0.026425
  11 H :    0.030900
  12 C :   -0.067862
  13 H :    0.019565
  14 H :    0.026473
  15 H :    0.038515
  16 S :    0.120737
  17 C :   -0.079296
  18 C :   -0.007328
  19 C :    0.018477
  20 C :   -0.213369
  21 H :   -0.034536
  22 C :    0.046748
  23 H :    0.043729
  24 H :    0.024359
  25 C :   -0.122299
  26 H :    0.045540
  27 H :    0.050448
  28 C :   -0.008760
  29 H :    0.023972
  30 H :    0.007919
  31 H :    0.031791
  32 H :    0.025928
  33 H :    0.062532
Sum of atomic charges:    0.0000000

LOEWDIN ATOMIC CHARGES
----------------------
   0 S :    0.409946
   1 C :   -0.201354
   2 C :   -0.063274
   3 C :   -0.074046
   4 C :   -0.201237
   5 H :    0.032631
   6 C :   -0.021379
   7 H :    0.031311
   8 H :    0.037728
   9 C :   -0.046738
  10 H :    0.027387
  11 H :    0.030963
  12 C :   -0.072333
  13 H :    0.022686
  14 H :    0.025443
  15 H :    0.027470
  16 S :    0.406239
  17 C :   -0.193238
  18 C :   -0.064033
  19 C :   -0.042137
  20 C :   -0.197578
  21 H :    0.011946
  22 C :   -0.036712
  23 H :    0.041652
  24 H :    0.025146
  25 C :   -0.037311
  26 H :    0.028057
  27 H :    0.032534
  28 C :   -0.064071
  29 H :    0.017213
  30 H :    0.021985
  31 H :    0.024020
  32 H :    0.023788
  33 H :    0.037299

  Mayer bond orders larger than 0.100000
B(  0-S ,  1-C ) :   1.1258 B(  0-S ,  4-C ) :   1.1574 B(  1-C ,  2-C ) :   1.6557
B(  1-C ,  4-C ) :   0.1009 B(  1-C , 32-H ) :   0.9616 B(  2-C ,  3-C ) :   1.2430
B(  2-C ,  6-C ) :   0.9703 B(  3-C ,  4-C ) :   1.5765 B(  3-C ,  5-H ) :   0.9897
B(  4-C , 20-C ) :   1.0429 B(  6-C ,  7-H ) :   0.9441 B(  6-C ,  8-H ) :   0.9447
B(  6-C ,  9-C ) :   1.0684 B(  9-C , 10-H ) :   0.9537 B(  9-C , 11-H ) :   0.9592
B(  9-C , 12-C ) :   1.0741 B( 12-C , 13-H ) :   0.9732 B( 12-C , 14-H ) :   0.9679
B( 12-C , 15-H ) :   0.9764 B( 16-S , 17-C ) :   1.1449 B( 16-S , 20-C ) :   1.1462
B( 17-C , 18-C ) :   1.6094 B( 17-C , 20-C ) :   0.1043 B( 17-C , 33-H ) :   0.9609
B( 18-C , 19-C ) :   1.2623 B( 18-C , 21-H ) :   0.9924 B( 19-C , 20-C ) :   1.5670
B( 19-C , 22-C ) :   1.0265 B( 22-C , 23-H ) :   0.9317 B( 22-C , 24-H ) :   0.9436
B( 22-C , 25-C ) :   1.0668 B( 25-C , 26-H ) :   0.9503 B( 25-C , 27-H ) :   0.9594
B( 25-C , 28-C ) :   1.0665 B( 28-C , 29-H ) :   0.9748 B( 28-C , 30-H ) :   0.9711
B( 28-C , 31-H ) :   0.9794

Dispersion correction           -0.014863213
FINAL SINGLE POINT ENERGY     -1339.842679544928

DIPOLE MOMENT
-------------
                                X             Y             Z
Electronic contribution:     -2.10030      27.97812     -11.65538
Nuclear contribution   :      2.18323     -28.74393      11.81722
                        -----------------------------------------
Total Dipole Moment    :      0.08294      -0.76581       0.16184
                        -----------------------------------------
Magnitude (a.u.)       :      0.78711
Magnitude (Debye)      :      2.00068

Rotational constants in cm-1:     0.016797     0.010165     0.007206
Rotational constants in MHz :   503.570262   304.741783   216.023267

                             ****ORCA TERMINATED NORMALLY****
TOTAL RUN TIME: 0 days 0 hours 0 minutes 35 seconds 325 msec
