                         Program Version 4.2.1 -  RELEASE  -
|  1> ! wB97X-D3 SP def2-SVP
|  2> %pal
|  3> nprocs 16
|  4> end
|  5>
|  6> * xyz 0 1
|  7> S 	 -98.2436 	 49.8961 	 129.098
|  8> C 	 -97.2227 	 50.8892 	 128.155
|  9> C 	 -97.9484 	 51.7701 	 127.373
| 10> C 	 -99.3682 	 51.6701 	 127.689
| 11> C 	 -99.6975 	 50.8119 	 128.678
| 12> H 	 -100.189 	 52.3028 	 127.365
| 13> C 	 -97.4402 	 52.7392 	 126.355
| 14> H 	 -96.9191 	 53.4695 	 126.916
| 15> H 	 -98.2208 	 53.3211 	 125.877
| 16> C 	 -96.6745 	 52.2132 	 125.161
| 17> H 	 -95.7407 	 51.7444 	 125.438
| 18> H 	 -97.312 	 51.5537 	 124.521
| 19> C 	 -96.1472 	 53.3038 	 124.18
| 20> H 	 -95.4394 	 53.9086 	 124.803
| 21> H 	 -95.7208 	 52.8922 	 123.232
| 22> H 	 -96.8405 	 53.998 	 123.82
| 23> S 	 -101.015 	 49.6887 	 130.796
| 24> C 	 -102.762 	 49.5601 	 130.789
| 25> C 	 -103.218 	 50.0016 	 129.571
| 26> C 	 -102.263 	 50.5505 	 128.689
| 27> C 	 -100.966 	 50.4387 	 129.19
| 28> H 	 -104.275 	 50.0774 	 129.335
| 29> C 	 -102.667 	 51.0258 	 127.28
| 30> H 	 -103.358 	 50.3265 	 126.885
| 31> H 	 -101.794 	 51.0201 	 126.648
| 32> C 	 -103.18 	 52.4783 	 127.348
| 33> H 	 -102.545 	 53.1347 	 127.904
| 34> H 	 -104.143 	 52.5157 	 127.966
| 35> C 	 -103.397 	 53.1228 	 125.975
| 36> H 	 -104.06 	 52.6099 	 125.291
| 37> H 	 -102.44 	 53.2673 	 125.451
| 38> H 	 -103.91 	 54.0806 	 126.119
| 39> H 	 -96.1998 	 50.7145 	 127.933
| 40> H 	 -103.412 	 49.204 	 131.555
| 41> *
| 42>
| 43>                          ****END OF INPUT****

CARTESIAN COORDINATES (ANGSTROEM)
---------------------------------
  S    -98.243600   49.896100  129.098000
  C    -97.222700   50.889200  128.155000
  C    -97.948400   51.770100  127.373000
  C    -99.368200   51.670100  127.689000
  C    -99.697500   50.811900  128.678000
  H    -100.189000   52.302800  127.365000
  C    -97.440200   52.739200  126.355000
  H    -96.919100   53.469500  126.916000
  H    -98.220800   53.321100  125.877000
  C    -96.674500   52.213200  125.161000
  H    -95.740700   51.744400  125.438000
  H    -97.312000   51.553700  124.521000
  C    -96.147200   53.303800  124.180000
  H    -95.439400   53.908600  124.803000
  H    -95.720800   52.892200  123.232000
  H    -96.840500   53.998000  123.820000
  S    -101.015000   49.688700  130.796000
  C    -102.762000   49.560100  130.789000
  C    -103.218000   50.001600  129.571000
  C    -102.263000   50.550500  128.689000
  C    -100.966000   50.438700  129.190000
  H    -104.275000   50.077400  129.335000
  C    -102.667000   51.025800  127.280000
  H    -103.358000   50.326500  126.885000
  H    -101.794000   51.020100  126.648000
  C    -103.180000   52.478300  127.348000
  H    -102.545000   53.134700  127.904000
  H    -104.143000   52.515700  127.966000
  C    -103.397000   53.122800  125.975000
  H    -104.060000   52.609900  125.291000
  H    -102.440000   53.267300  125.451000
  H    -103.910000   54.080600  126.119000
  H    -96.199800   50.714500  127.933000
  H    -103.412000   49.204000  131.555000

 Total Charge           Charge          ....    0
 Multiplicity           Mult            ....    1
 Number of Electrons    NEL             ....  134
 Basis Dimension        Dim             ....  322

ORBITAL ENERGIES
----------------

  NO   OCC          E(Eh)            E(eV)
   0   2.0000     -88.966123     -2420.8913
   1   2.0000     -88.962624     -2420.7961
   2   2.0000     -10.329151      -281.0705
   3   2.0000     -10.325485      -280.9707
   4   2.0000     -10.317803      -280.7617
   5   2.0000     -10.309778      -280.5433
   6   2.0000     -10.304022      -280.3867
   7   2.0000     -10.303207      -280.3645
   8   2.0000     -10.293345      -280.0961
   9   2.0000     -10.292726      -280.0793
  10   2.0000     -10.291517      -280.0464
  11   2.0000     -10.291142      -280.0362
  12   2.0000     -10.290891      -280.0294
  13   2.0000     -10.288177      -279.9555
  14   2.0000     -10.281257      -279.7672
  15   2.0000     -10.280758      -279.7536
  16   2.0000      -8.080435      -219.8798
  17   2.0000      -8.078007      -219.8137
  18   2.0000      -6.039072      -164.3315
  19   2.0000      -6.036654      -164.2657
  20   2.0000      -6.034934      -164.2189
  21   2.0000      -6.032399      -164.1499
  22   2.0000      -6.031135      -164.1155
  23   2.0000      -6.028597      -164.0465
  24   2.0000      -1.011425       -27.5223
  25   2.0000      -0.986704       -26.8496
  26   2.0000      -0.916196       -24.9310
  27   2.0000      -0.910283       -24.7701
  28   2.0000      -0.877796       -23.8860
  29   2.0000      -0.854055       -23.2400
  30   2.0000      -0.845799       -23.0154
  31   2.0000      -0.818959       -22.2850
  32   2.0000      -0.784677       -21.3521
  33   2.0000      -0.774971       -21.0880
  34   2.0000      -0.710224       -19.3262
  35   2.0000      -0.704581       -19.1726
  36   2.0000      -0.699559       -19.0360
  37   2.0000      -0.669234       -18.2108
  38   2.0000      -0.643897       -17.5213
  39   2.0000      -0.615881       -16.7590
  40   2.0000      -0.598022       -16.2730
  41   2.0000      -0.579040       -15.7565
  42   2.0000      -0.566861       -15.4251
  43   2.0000      -0.563346       -15.3294
  44   2.0000      -0.531059       -14.4508
  45   2.0000      -0.524876       -14.2826
  46   2.0000      -0.520984       -14.1767
  47   2.0000      -0.519044       -14.1239
  48   2.0000      -0.507929       -13.8214
  49   2.0000      -0.506782       -13.7902
  50   2.0000      -0.496270       -13.5042
  51   2.0000      -0.484395       -13.1811
  52   2.0000      -0.473565       -12.8864
  53   2.0000      -0.464889       -12.6503
  54   2.0000      -0.461820       -12.5668
  55   2.0000      -0.449164       -12.2224
  56   2.0000      -0.447875       -12.1873
  57   2.0000      -0.439567       -11.9612
  58   2.0000      -0.429877       -11.6975
  59   2.0000      -0.422608       -11.4997
  60   2.0000      -0.421111       -11.4590
  61   2.0000      -0.415383       -11.3031
  62   2.0000      -0.409530       -11.1439
  63   2.0000      -0.366340        -9.9686
  64   2.0000      -0.333477        -9.0744
  65   2.0000      -0.327043        -8.8993
  66   2.0000      -0.284218        -7.7340
  67   0.0000       0.020938         0.5698
  68   0.0000       0.080189         2.1821
  69   0.0000       0.105887         2.8813
  70   0.0000       0.122972         3.3462
  71   0.0000       0.129448         3.5225

MULLIKEN ATOMIC CHARGES
-----------------------
   0 S :    0.097540
   1 C :   -0.081238
   2 C :   -0.081906
   3 C :   -0.025731
   4 C :   -0.101661
   5 H :    0.002920
   6 C :    0.090905
   7 H :    0.025792
   8 H :    0.010038
   9 C :   -0.082121
  10 H :    0.029440
  11 H :    0.040586
  12 C :   -0.069595
  13 H :    0.029587
  14 H :    0.046393
  15 H :    0.012434
  16 S :    0.098127
  17 C :   -0.068063
  18 C :   -0.029578
  19 C :   -0.074514
  20 C :   -0.131350
  21 H :    0.013784
  22 C :    0.102980
  23 H :    0.025234
  24 H :    0.013136
  25 C :   -0.104140
  26 H :    0.031175
  27 H :    0.030697
  28 C :   -0.033949
  29 H :    0.025365
  30 H :    0.033370
  31 H :    0.034478
  32 H :    0.037835
  33 H :    0.052029
Sum of atomic charges:   -0.0000000

LOEWDIN ATOMIC CHARGES
----------------------
   0 S :    0.406901
   1 C :   -0.202398
   2 C :   -0.056056
   3 C :   -0.072008
   4 C :   -0.182545
   5 H :    0.029861
   6 C :   -0.037576
   7 H :    0.031208
   8 H :    0.032485
   9 C :   -0.038818
  10 H :    0.020429
  11 H :    0.029615
  12 C :   -0.069233
  13 H :    0.028197
  14 H :    0.034103
  15 H :    0.010285
  16 S :    0.397888
  17 C :   -0.180598
  18 C :   -0.073346
  19 C :   -0.054095
  20 C :   -0.187924
  21 H :    0.029281
  22 C :   -0.020662
  23 H :    0.028394
  24 H :    0.025442
  25 C :   -0.043541
  26 H :    0.021354
  27 H :    0.029537
  28 C :   -0.069365
  29 H :    0.021744
  30 H :    0.025392
  31 H :    0.030140
  32 H :    0.025112
  33 H :    0.030798

  Mayer bond orders larger than 0.100000
B(  0-S ,  1-C ) :   1.1385 B(  0-S ,  4-C ) :   1.1232 B(  1-C ,  2-C ) :   1.6200
B(  1-C , 32-H ) :   0.9697 B(  2-C ,  3-C ) :   1.2223 B(  2-C ,  6-C ) :   1.0202
B(  3-C ,  4-C ) :   1.6130 B(  3-C ,  5-H ) :   0.9886 B(  4-C , 20-C ) :   1.0919
B(  6-C ,  7-H ) :   0.9314 B(  6-C ,  8-H ) :   0.9400 B(  6-C ,  9-C ) :   1.0660
B(  9-C , 10-H ) :   0.9578 B(  9-C , 11-H ) :   0.9586 B(  9-C , 12-C ) :   1.0722
B( 12-C , 13-H ) :   0.9771 B( 12-C , 14-H ) :   0.9752 B( 12-C , 15-H ) :   0.9760
B( 16-S , 17-C ) :   1.1440 B( 16-S , 20-C ) :   1.1311 B( 17-C , 18-C ) :   1.5915
B( 17-C , 20-C ) :   0.1053 B( 17-C , 33-H ) :   0.9732 B( 18-C , 19-C ) :   1.2781
B( 18-C , 21-H ) :   0.9809 B( 19-C , 20-C ) :   1.5704 B( 19-C , 22-C ) :   1.0328
B( 22-C , 23-H ) :   0.9355 B( 22-C , 24-H ) :   0.9381 B( 22-C , 25-C ) :   1.0520
B( 25-C , 26-H ) :   0.9540 B( 25-C , 27-H ) :   0.9536 B( 25-C , 28-C ) :   1.0862
B( 28-C , 29-H ) :   0.9736 B( 28-C , 30-H ) :   0.9734 B( 28-C , 31-H ) :   0.9721

Dispersion correction           -0.013719916
FINAL SINGLE POINT ENERGY     -1339.879919077856

DIPOLE MOMENT
-------------
                                X             Y             Z
Electronic contribution:      1.09477     -18.81537      26.84493
Nuclear contribution   :     -1.42898      19.23839     -27.45938
                        -----------------------------------------
Total Dipole Moment    :     -0.33422       0.42302      -0.61445
                        -----------------------------------------
Magnitude (a.u.)       :      0.81743
Magnitude (Debye)      :      2.07775

Rotational constants in cm-1:     0.018574     0.008530     0.006017
Rotational constants in MHz :   556.847456   255.717818   180.372705

                             ****ORCA TERMINATED NORMALLY****
TOTAL RUN TIME: 0 days 0 hours 0 minutes 31 seconds 971 msec
