                         Program Version 4.2.1 -  RELEASE  -
|  1> ! wB97X-D3 SP def2-SVP
|  2> %pal
|  3> nprocs 16
|  4> end
|  5>
|  6> * xyz 0 1
|  7> S 	 58.3352 	 -7.09446 	 86.8493
|  8> C 	 58.3625 	 -5.45018 	 87.302
|  9> C 	 58.2643 	 -4.56292 	 86.2665
| 10> C 	 58.1721 	 -5.29451 	 85.0456
| 11> C 	 58.1571 	 -6.68548 	 85.1979
| 12> H 	 57.9673 	 -4.8411 	 84.1205
| 13> C 	 57.9856 	 -3.03721 	 86.3605
| 14> H 	 58.8027 	 -2.5897 	 85.7038
| 15> H 	 58.2603 	 -2.88923 	 87.4009
| 16> C 	 56.6136 	 -2.3739 	 86.0649
| 17> H 	 56.724 	 -1.32933 	 86.0949
| 18> H 	 56.0786 	 -2.65656 	 85.1162
| 19> C 	 55.591 	 -2.86826 	 87.1312
| 20> H 	 54.5675 	 -2.51367 	 86.9631
| 21> H 	 55.521 	 -3.96264 	 87.1598
| 22> H 	 55.8847 	 -2.53969 	 88.1419
| 23> S 	 56.7213 	 -8.86587 	 84.4227
| 24> C 	 57.1507 	 -9.67239 	 82.89
| 25> C 	 58.1505 	 -8.99569 	 82.2277
| 26> C 	 58.5481 	 -7.83102 	 82.9279
| 27> C 	 57.9774 	 -7.70632 	 84.1419
| 28> H 	 58.3777 	 -9.35153 	 81.228
| 29> C 	 59.4737 	 -6.93983 	 82.2607
| 30> H 	 59.1256 	 -5.88945 	 82.3809
| 31> H 	 59.4095 	 -7.01927 	 81.0966
| 32> C 	 60.9238 	 -7.00306 	 82.8948
| 33> H 	 61.4474 	 -7.83166 	 82.4844
| 34> H 	 60.8613 	 -7.10198 	 83.9873
| 35> C 	 61.6841 	 -5.72587 	 82.6322
| 36> H 	 62.6686 	 -5.84736 	 83.1167
| 37> H 	 61.1571 	 -4.9229 	 83.1486
| 38> H 	 61.952 	 -5.49871 	 81.6461
| 39> H 	 58.443 	 -5.12219 	 88.3248
| 40> H 	 56.5419 	 -10.5271 	 82.4498
| 41> *
| 42>
| 43>                          ****END OF INPUT****

CARTESIAN COORDINATES (ANGSTROEM)
---------------------------------
  S     58.335200   -7.094460   86.849300
  C     58.362500   -5.450180   87.302000
  C     58.264300   -4.562920   86.266500
  C     58.172100   -5.294510   85.045600
  C     58.157100   -6.685480   85.197900
  H     57.967300   -4.841100   84.120500
  C     57.985600   -3.037210   86.360500
  H     58.802700   -2.589700   85.703800
  H     58.260300   -2.889230   87.400900
  C     56.613600   -2.373900   86.064900
  H     56.724000   -1.329330   86.094900
  H     56.078600   -2.656560   85.116200
  C     55.591000   -2.868260   87.131200
  H     54.567500   -2.513670   86.963100
  H     55.521000   -3.962640   87.159800
  H     55.884700   -2.539690   88.141900
  S     56.721300   -8.865870   84.422700
  C     57.150700   -9.672390   82.890000
  C     58.150500   -8.995690   82.227700
  C     58.548100   -7.831020   82.927900
  C     57.977400   -7.706320   84.141900
  H     58.377700   -9.351530   81.228000
  C     59.473700   -6.939830   82.260700
  H     59.125600   -5.889450   82.380900
  H     59.409500   -7.019270   81.096600
  C     60.923800   -7.003060   82.894800
  H     61.447400   -7.831660   82.484400
  H     60.861300   -7.101980   83.987300
  C     61.684100   -5.725870   82.632200
  H     62.668600   -5.847360   83.116700
  H     61.157100   -4.922900   83.148600
  H     61.952000   -5.498710   81.646100
  H     58.443000   -5.122190   88.324800
  H     56.541900  -10.527100   82.449800

 Total Charge           Charge          ....    0
 Multiplicity           Mult            ....    1
 Number of Electrons    NEL             ....  134
 Basis Dimension        Dim             ....  322

ORBITAL ENERGIES
----------------

  NO   OCC          E(Eh)            E(eV)
   0   2.0000     -88.969259     -2420.9766
   1   2.0000     -88.963546     -2420.8212
   2   2.0000     -10.327995      -281.0390
   3   2.0000     -10.321171      -280.8534
   4   2.0000     -10.321018      -280.8492
   5   2.0000     -10.308524      -280.5092
   6   2.0000     -10.303766      -280.3797
   7   2.0000     -10.299741      -280.2702
   8   2.0000     -10.295121      -280.1445
   9   2.0000     -10.293897      -280.1112
  10   2.0000     -10.292753      -280.0801
  11   2.0000     -10.291256      -280.0393
  12   2.0000     -10.288584      -279.9666
  13   2.0000     -10.281833      -279.7829
  14   2.0000     -10.278392      -279.6893
  15   2.0000     -10.267944      -279.4050
  16   2.0000      -8.085270      -220.0114
  17   2.0000      -8.078342      -219.8229
  18   2.0000      -6.043592      -164.4545
  19   2.0000      -6.039548      -164.3445
  20   2.0000      -6.036837      -164.2707
  21   2.0000      -6.036206      -164.2535
  22   2.0000      -6.032943      -164.1647
  23   2.0000      -6.029012      -164.0578
  24   2.0000      -1.013901       -27.5896
  25   2.0000      -0.991303       -26.9747
  26   2.0000      -0.908463       -24.7205
  27   2.0000      -0.906199       -24.6589
  28   2.0000      -0.868887       -23.6436
  29   2.0000      -0.854925       -23.2637
  30   2.0000      -0.849307       -23.1108
  31   2.0000      -0.813659       -22.1408
  32   2.0000      -0.779126       -21.2011
  33   2.0000      -0.767469       -20.8839
  34   2.0000      -0.709437       -19.3048
  35   2.0000      -0.700019       -19.0485
  36   2.0000      -0.688033       -18.7223
  37   2.0000      -0.664912       -18.0932
  38   2.0000      -0.641592       -17.4586
  39   2.0000      -0.620942       -16.8967
  40   2.0000      -0.593052       -16.1378
  41   2.0000      -0.568738       -15.4762
  42   2.0000      -0.562685       -15.3114
  43   2.0000      -0.549898       -14.9635
  44   2.0000      -0.543646       -14.7934
  45   2.0000      -0.523363       -14.2414
  46   2.0000      -0.520931       -14.1752
  47   2.0000      -0.505451       -13.7540
  48   2.0000      -0.499485       -13.5917
  49   2.0000      -0.492684       -13.4066
  50   2.0000      -0.488133       -13.2828
  51   2.0000      -0.483052       -13.1445
  52   2.0000      -0.470166       -12.7939
  53   2.0000      -0.460080       -12.5194
  54   2.0000      -0.453195       -12.3321
  55   2.0000      -0.449107       -12.2208
  56   2.0000      -0.444055       -12.0834
  57   2.0000      -0.440254       -11.9799
  58   2.0000      -0.431932       -11.7535
  59   2.0000      -0.425108       -11.5678
  60   2.0000      -0.421929       -11.4813
  61   2.0000      -0.418300       -11.3825
  62   2.0000      -0.411799       -11.2056
  63   2.0000      -0.348773        -9.4906
  64   2.0000      -0.333247        -9.0681
  65   2.0000      -0.328518        -8.9394
  66   2.0000      -0.291476        -7.9315
  67   0.0000       0.034870         0.9489
  68   0.0000       0.073380         1.9968
  69   0.0000       0.105725         2.8769
  70   0.0000       0.122135         3.3235
  71   0.0000       0.134488         3.6596

MULLIKEN ATOMIC CHARGES
-----------------------
   0 S :    0.136891
   1 C :   -0.124697
   2 C :   -0.107690
   3 C :    0.038839
   4 C :   -0.168634
   5 H :   -0.008445
   6 C :    0.050520
   7 H :    0.045690
   8 H :    0.013516
   9 C :   -0.019247
  10 H :    0.031455
  11 H :    0.042999
  12 C :   -0.091963
  13 H :    0.034350
  14 H :    0.046512
  15 H :    0.022201
  16 S :    0.098499
  17 C :   -0.124884
  18 C :   -0.037278
  19 C :   -0.000044
  20 C :   -0.139014
  21 H :    0.021228
  22 C :    0.007357
  23 H :    0.012756
  24 H :    0.041167
  25 C :   -0.054040
  26 H :    0.022569
  27 H :    0.047976
  28 C :   -0.031046
  29 H :    0.024187
  30 H :    0.033365
  31 H :    0.019630
  32 H :    0.037171
  33 H :    0.078109
Sum of atomic charges:    0.0000000

LOEWDIN ATOMIC CHARGES
----------------------
   0 S :    0.446059
   1 C :   -0.211589
   2 C :   -0.070575
   3 C :   -0.060422
   4 C :   -0.208996
   5 H :    0.018679
   6 C :   -0.031594
   7 H :    0.038896
   8 H :    0.028627
   9 C :   -0.035520
  10 H :    0.021438
  11 H :    0.033608
  12 C :   -0.069748
  13 H :    0.024240
  14 H :    0.028702
  15 H :    0.019891
  16 S :    0.393198
  17 C :   -0.182700
  18 C :   -0.068839
  19 C :   -0.067673
  20 C :   -0.202682
  21 H :    0.035574
  22 C :   -0.042702
  23 H :    0.027374
  24 H :    0.041538
  25 C :   -0.027642
  26 H :    0.018355
  27 H :    0.032823
  28 C :   -0.063221
  29 H :    0.029705
  30 H :    0.025878
  31 H :    0.014253
  32 H :    0.023455
  33 H :    0.041610

  Mayer bond orders larger than 0.100000
B(  0-S ,  1-C ) :   1.1588 B(  0-S ,  4-C ) :   1.1713 B(  1-C ,  2-C ) :   1.6034
B(  1-C , 32-H ) :   0.9620 B(  2-C ,  3-C ) :   1.2625 B(  2-C ,  6-C ) :   1.0134
B(  3-C ,  4-C ) :   1.5550 B(  3-C ,  5-H ) :   1.0021 B(  4-C , 20-C ) :   1.0076
B(  6-C ,  7-H ) :   0.9370 B(  6-C ,  8-H ) :   0.9412 B(  6-C ,  9-C ) :   1.0572
B(  9-C , 10-H ) :   0.9537 B(  9-C , 11-H ) :   0.9597 B(  9-C , 12-C ) :   1.0643
B( 12-C , 13-H ) :   0.9764 B( 12-C , 14-H ) :   0.9794 B( 12-C , 15-H ) :   0.9769
B( 16-S , 17-C ) :   1.1426 B( 16-S , 20-C ) :   1.1366 B( 17-C , 18-C ) :   1.6311
B( 17-C , 33-H ) :   0.9574 B( 18-C , 19-C ) :   1.2133 B( 18-C , 21-H ) :   0.9931
B( 19-C , 20-C ) :   1.6261 B( 19-C , 22-C ) :   1.0585 B( 22-C , 23-H ) :   0.9359
B( 22-C , 24-H ) :   0.9334 B( 22-C , 25-C ) :   1.0378 B( 25-C , 26-H ) :   0.9536
B( 25-C , 27-H ) :   0.9617 B( 25-C , 28-C ) :   1.0932 B( 28-C , 29-H ) :   0.9692
B( 28-C , 30-H ) :   0.9744 B( 28-C , 31-H ) :   0.9738

Dispersion correction           -0.014869888
FINAL SINGLE POINT ENERGY     -1339.872431029757

DIPOLE MOMENT
-------------
                                X             Y             Z
Electronic contribution:     -6.47761     -21.85819       5.26572
Nuclear contribution   :      6.50191      22.31499      -5.61775
                        -----------------------------------------
Total Dipole Moment    :      0.02430       0.45681      -0.35203
                        -----------------------------------------
Magnitude (a.u.)       :      0.57723
Magnitude (Debye)      :      1.46719

Rotational constants in cm-1:     0.018606     0.009012     0.007411
Rotational constants in MHz :   557.806626   270.174856   222.171258

                             ****ORCA TERMINATED NORMALLY****
TOTAL RUN TIME: 0 days 0 hours 0 minutes 30 seconds 969 msec
