                         Program Version 4.2.1 -  RELEASE  -
|  1> ! wB97X-D3 SP def2-SVP
|  2> %pal
|  3> nprocs 16
|  4> end
|  5>
|  6> * xyz 0 1
|  7> S 	 0.365515 	 75.7729 	 50.4637
|  8> C 	 -0.148416 	 77.4809 	 50.7968
|  9> C 	 -0.720843 	 78.0769 	 49.6618
| 10> C 	 -0.705628 	 77.2105 	 48.4985
| 11> C 	 -0.213941 	 75.9635 	 48.7978
| 12> H 	 -0.96139 	 77.4935 	 47.5241
| 13> C 	 -1.03692 	 79.5269 	 49.5408
| 14> H 	 -1.82325 	 79.6865 	 50.2665
| 15> H 	 -1.4762 	 79.8271 	 48.6921
| 16> C 	 0.0815823 	 80.488 	 49.7661
| 17> H 	 0.340814 	 80.2239 	 50.7745
| 18> H 	 0.974652 	 80.2592 	 49.1945
| 19> C 	 -0.335701 	 81.9537 	 49.8254
| 20> H 	 -0.856149 	 82.2216 	 50.7627
| 21> H 	 0.63985 	 82.478 	 49.8206
| 22> H 	 -0.874201 	 82.4065 	 48.9861
| 23> S 	 1.38706 	 74.0083 	 47.7026
| 24> C 	 0.848503 	 72.9715 	 46.4661
| 25> C 	 -0.487731 	 73.1606 	 46.2299
| 26> C 	 -1.10846 	 74.1361 	 47.1496
| 27> C 	 -0.183321 	 74.7595 	 47.963
| 28> H 	 -0.948768 	 72.73 	 45.3652
| 29> C 	 -2.53827 	 74.5589 	 47.0635
| 30> H 	 -2.51007 	 75.6616 	 46.9784
| 31> H 	 -2.99895 	 74.4222 	 48.0075
| 32> C 	 -3.22794 	 74.0662 	 45.7371
| 33> H 	 -3.22529 	 72.9516 	 45.8115
| 34> H 	 -2.6406 	 74.2301 	 44.8828
| 35> C 	 -4.67464 	 74.5598 	 45.3979
| 36> H 	 -4.76113 	 75.6419 	 45.2624
| 37> H 	 -5.44224 	 74.2193 	 46.0673
| 38> H 	 -4.97505 	 74.1686 	 44.3983
| 39> H 	 0.0989262 	 78.0448 	 51.7061
| 40> H 	 1.3826 	 72.26 	 45.8689
| 41> *
| 42>
| 43>                          ****END OF INPUT****

CARTESIAN COORDINATES (ANGSTROEM)
---------------------------------
  S      0.365515   75.772900   50.463700
  C     -0.148416   77.480900   50.796800
  C     -0.720843   78.076900   49.661800
  C     -0.705628   77.210500   48.498500
  C     -0.213941   75.963500   48.797800
  H     -0.961390   77.493500   47.524100
  C     -1.036920   79.526900   49.540800
  H     -1.823250   79.686500   50.266500
  H     -1.476200   79.827100   48.692100
  C      0.081582   80.488000   49.766100
  H      0.340814   80.223900   50.774500
  H      0.974652   80.259200   49.194500
  C     -0.335701   81.953700   49.825400
  H     -0.856149   82.221600   50.762700
  H      0.639850   82.478000   49.820600
  H     -0.874201   82.406500   48.986100
  S      1.387060   74.008300   47.702600
  C      0.848503   72.971500   46.466100
  C     -0.487731   73.160600   46.229900
  C     -1.108460   74.136100   47.149600
  C     -0.183321   74.759500   47.963000
  H     -0.948768   72.730000   45.365200
  C     -2.538270   74.558900   47.063500
  H     -2.510070   75.661600   46.978400
  H     -2.998950   74.422200   48.007500
  C     -3.227940   74.066200   45.737100
  H     -3.225290   72.951600   45.811500
  H     -2.640600   74.230100   44.882800
  C     -4.674640   74.559800   45.397900
  H     -4.761130   75.641900   45.262400
  H     -5.442240   74.219300   46.067300
  H     -4.975050   74.168600   44.398300
  H      0.098926   78.044800   51.706100
  H      1.382600   72.260000   45.868900

 Total Charge           Charge          ....    0
 Multiplicity           Mult            ....    1
 Number of Electrons    NEL             ....  134
 Basis Dimension        Dim             ....  322

ORBITAL ENERGIES
----------------

  NO   OCC          E(Eh)            E(eV)
   0   2.0000     -88.968367     -2420.9523
   1   2.0000     -88.960447     -2420.7368
   2   2.0000     -10.333395      -281.1860
   3   2.0000     -10.322426      -280.8875
   4   2.0000     -10.321590      -280.8648
   5   2.0000     -10.311929      -280.6019
   6   2.0000     -10.305710      -280.4326
   7   2.0000     -10.305332      -280.4224
   8   2.0000     -10.295105      -280.1441
   9   2.0000     -10.292606      -280.0760
  10   2.0000     -10.291487      -280.0456
  11   2.0000     -10.289967      -280.0042
  12   2.0000     -10.283686      -279.8333
  13   2.0000     -10.282970      -279.8138
  14   2.0000     -10.281615      -279.7770
  15   2.0000     -10.275055      -279.5985
  16   2.0000      -8.081673      -219.9135
  17   2.0000      -8.076039      -219.7602
  18   2.0000      -6.040322      -164.3655
  19   2.0000      -6.036481      -164.2610
  20   2.0000      -6.034574      -164.2091
  21   2.0000      -6.032261      -164.1462
  22   2.0000      -6.030272      -164.0921
  23   2.0000      -6.026852      -163.9990
  24   2.0000      -1.004191       -27.3254
  25   2.0000      -0.978920       -26.6378
  26   2.0000      -0.922456       -25.1013
  27   2.0000      -0.905130       -24.6299
  28   2.0000      -0.868725       -23.6392
  29   2.0000      -0.850539       -23.1443
  30   2.0000      -0.841035       -22.8857
  31   2.0000      -0.818263       -22.2661
  32   2.0000      -0.784961       -21.3599
  33   2.0000      -0.772323       -21.0160
  34   2.0000      -0.713779       -19.4229
  35   2.0000      -0.709166       -19.2974
  36   2.0000      -0.698210       -18.9993
  37   2.0000      -0.651006       -17.7148
  38   2.0000      -0.641100       -17.4452
  39   2.0000      -0.622531       -16.9399
  40   2.0000      -0.595175       -16.1955
  41   2.0000      -0.580930       -15.8079
  42   2.0000      -0.563373       -15.3302
  43   2.0000      -0.561036       -15.2666
  44   2.0000      -0.529752       -14.4153
  45   2.0000      -0.524499       -14.2723
  46   2.0000      -0.521928       -14.2024
  47   2.0000      -0.512418       -13.9436
  48   2.0000      -0.504741       -13.7347
  49   2.0000      -0.501586       -13.6488
  50   2.0000      -0.488622       -13.2961
  51   2.0000      -0.479575       -13.0499
  52   2.0000      -0.472433       -12.8555
  53   2.0000      -0.465638       -12.6707
  54   2.0000      -0.459808       -12.5120
  55   2.0000      -0.452650       -12.3172
  56   2.0000      -0.451567       -12.2878
  57   2.0000      -0.440334       -11.9821
  58   2.0000      -0.436014       -11.8645
  59   2.0000      -0.428391       -11.6571
  60   2.0000      -0.417450       -11.3594
  61   2.0000      -0.408608       -11.1188
  62   2.0000      -0.406073       -11.0498
  63   2.0000      -0.341134        -9.2827
  64   2.0000      -0.331991        -9.0339
  65   2.0000      -0.323787        -8.8107
  66   2.0000      -0.295119        -8.0306
  67   0.0000       0.030032         0.8172
  68   0.0000       0.067961         1.8493
  69   0.0000       0.101829         2.7709
  70   0.0000       0.120005         3.2655
  71   0.0000       0.135797         3.6952

MULLIKEN ATOMIC CHARGES
-----------------------
   0 S :    0.105173
   1 C :   -0.141315
   2 C :   -0.081880
   3 C :    0.049594
   4 C :   -0.141951
   5 H :    0.002246
   6 C :    0.122516
   7 H :    0.018709
   8 H :   -0.028688
   9 C :   -0.061042
  10 H :    0.002780
  11 H :    0.036010
  12 C :   -0.062993
  13 H :    0.040760
  14 H :    0.035105
  15 H :    0.037071
  16 S :    0.103088
  17 C :   -0.050807
  18 C :   -0.069587
  19 C :   -0.063692
  20 C :   -0.149299
  21 H :    0.014784
  22 C :    0.106743
  23 H :    0.018098
  24 H :    0.036141
  25 C :   -0.117370
  26 H :    0.037538
  27 H :    0.026636
  28 C :   -0.026766
  29 H :    0.032094
  30 H :    0.035019
  31 H :    0.026419
  32 H :    0.061850
  33 H :    0.047013
Sum of atomic charges:    0.0000000

LOEWDIN ATOMIC CHARGES
----------------------
   0 S :    0.375408
   1 C :   -0.186694
   2 C :   -0.048782
   3 C :   -0.051764
   4 C :   -0.176049
   5 H :    0.025099
   6 C :   -0.032839
   7 H :    0.035904
   8 H :    0.007911
   9 C :   -0.037767
  10 H :    0.021198
  11 H :    0.026631
  12 C :   -0.069934
  13 H :    0.030126
  14 H :    0.034935
  15 H :    0.023458
  16 S :    0.416959
  17 C :   -0.195920
  18 C :   -0.080003
  19 C :   -0.048605
  20 C :   -0.210409
  21 H :    0.026505
  22 C :   -0.033164
  23 H :    0.034802
  24 H :    0.033169
  25 C :   -0.040034
  26 H :    0.027072
  27 H :    0.018477
  28 C :   -0.066378
  29 H :    0.024407
  30 H :    0.022530
  31 H :    0.031257
  32 H :    0.030290
  33 H :    0.032205

  Mayer bond orders larger than 0.100000
B(  0-S ,  1-C ) :   1.1135 B(  0-S ,  4-C ) :   1.1468 B(  1-C ,  2-C ) :   1.6264
B(  1-C , 32-H ) :   0.9660 B(  2-C ,  3-C ) :   1.2119 B(  2-C ,  6-C ) :   1.0288
B(  3-C ,  4-C ) :   1.6055 B(  3-C ,  5-H ) :   1.0006 B(  4-C , 20-C ) :   1.0060
B(  6-C ,  7-H ) :   0.9250 B(  6-C ,  8-H ) :   0.9362 B(  6-C ,  9-C ) :   1.0609
B(  9-C , 10-H ) :   0.9482 B(  9-C , 11-H ) :   0.9610 B(  9-C , 12-C ) :   1.0792
B( 12-C , 13-H ) :   0.9742 B( 12-C , 14-H ) :   0.9720 B( 12-C , 15-H ) :   0.9773
B( 16-S , 17-C ) :   1.1637 B( 16-S , 20-C ) :   1.1315 B( 17-C , 18-C ) :   1.6120
B( 17-C , 33-H ) :   0.9627 B( 18-C , 19-C ) :   1.2261 B( 18-C , 21-H ) :   0.9899
B( 19-C , 20-C ) :   1.6132 B( 19-C , 22-C ) :   1.0370 B( 22-C , 23-H ) :   0.9309
B( 22-C , 24-H ) :   0.9260 B( 22-C , 25-C ) :   1.0668 B( 25-C , 26-H ) :   0.9501
B( 25-C , 27-H ) :   0.9552 B( 25-C , 28-C ) :   1.0805 B( 28-C , 29-H ) :   0.9748
B( 28-C , 30-H ) :   0.9775 B( 28-C , 31-H ) :   0.9720

Dispersion correction           -0.013302442
FINAL SINGLE POINT ENERGY     -1339.857153950026

DIPOLE MOMENT
-------------
                                X             Y             Z
Electronic contribution:     17.92310     -18.59802       8.16770
Nuclear contribution   :    -18.32358      19.09412      -8.61217
                        -----------------------------------------
Total Dipole Moment    :     -0.40048       0.49610      -0.44447
                        -----------------------------------------
Magnitude (a.u.)       :      0.77721
Magnitude (Debye)      :      1.97552

Rotational constants in cm-1:     0.018607     0.007472     0.005927
Rotational constants in MHz :   557.826095   224.008200   177.688361

                             ****ORCA TERMINATED NORMALLY****
TOTAL RUN TIME: 0 days 0 hours 0 minutes 32 seconds 250 msec
