                         Program Version 4.2.1 -  RELEASE  -
|  1> ! wB97X-D3 SP def2-SVP
|  2> %pal
|  3> nprocs 16
|  4> end
|  5>
|  6> * xyz 0 1
|  7> S 	 -17.6257 	 55.5848 	 62.9089
|  8> C 	 -16.277 	 54.5661 	 62.3485
|  9> C 	 -15.2253 	 54.4982 	 63.2159
| 10> C 	 -15.508 	 55.2885 	 64.3542
| 11> C 	 -16.6729 	 56.004 	 64.3286
| 12> H 	 -14.8794 	 55.3778 	 65.236
| 13> C 	 -13.933 	 53.6971 	 62.9383
| 14> H 	 -13.0835 	 54.3795 	 63.2699
| 15> H 	 -13.6305 	 53.5766 	 61.8618
| 16> C 	 -13.7013 	 52.3224 	 63.6698
| 17> H 	 -13.806 	 52.3644 	 64.7766
| 18> H 	 -14.5149 	 51.6707 	 63.3445
| 19> C 	 -12.2779 	 51.6725 	 63.413
| 20> H 	 -11.8987 	 51.8042 	 62.4259
| 21> H 	 -11.5741 	 52.1664 	 64.1359
| 22> H 	 -12.2289 	 50.5867 	 63.6015
| 23> S 	 -17.8018 	 58.3444 	 64.9869
| 24> C 	 -18.0846 	 58.8423 	 66.6416
| 25> C 	 -17.4475 	 57.9691 	 67.5069
| 26> C 	 -16.9274 	 56.7959 	 66.8295
| 27> C 	 -17.2067 	 56.7998 	 65.4325
| 28> H 	 -17.2366 	 58.1835 	 68.541
| 29> C 	 -16.3429 	 55.631 	 67.5836
| 30> H 	 -15.47 	 55.8544 	 68.044
| 31> H 	 -16.124 	 54.8166 	 66.8367
| 32> C 	 -17.2015 	 54.9942 	 68.7598
| 33> H 	 -18.228 	 54.7179 	 68.5481
| 34> H 	 -17.2652 	 55.6291 	 69.6261
| 35> C 	 -16.6083 	 53.6287 	 69.2399
| 36> H 	 -17.3532 	 53.0836 	 69.8683
| 37> H 	 -15.7182 	 53.7226 	 69.9386
| 38> H 	 -16.3752 	 52.8354 	 68.4287
| 39> H 	 -16.4055 	 53.9744 	 61.5141
| 40> H 	 -18.3333 	 59.8905 	 66.8721
| 41> *
| 42>
| 43>                          ****END OF INPUT****

CARTESIAN COORDINATES (ANGSTROEM)
---------------------------------
  S    -17.625700   55.584800   62.908900
  C    -16.277000   54.566100   62.348500
  C    -15.225300   54.498200   63.215900
  C    -15.508000   55.288500   64.354200
  C    -16.672900   56.004000   64.328600
  H    -14.879400   55.377800   65.236000
  C    -13.933000   53.697100   62.938300
  H    -13.083500   54.379500   63.269900
  H    -13.630500   53.576600   61.861800
  C    -13.701300   52.322400   63.669800
  H    -13.806000   52.364400   64.776600
  H    -14.514900   51.670700   63.344500
  C    -12.277900   51.672500   63.413000
  H    -11.898700   51.804200   62.425900
  H    -11.574100   52.166400   64.135900
  H    -12.228900   50.586700   63.601500
  S    -17.801800   58.344400   64.986900
  C    -18.084600   58.842300   66.641600
  C    -17.447500   57.969100   67.506900
  C    -16.927400   56.795900   66.829500
  C    -17.206700   56.799800   65.432500
  H    -17.236600   58.183500   68.541000
  C    -16.342900   55.631000   67.583600
  H    -15.470000   55.854400   68.044000
  H    -16.124000   54.816600   66.836700
  C    -17.201500   54.994200   68.759800
  H    -18.228000   54.717900   68.548100
  H    -17.265200   55.629100   69.626100
  C    -16.608300   53.628700   69.239900
  H    -17.353200   53.083600   69.868300
  H    -15.718200   53.722600   69.938600
  H    -16.375200   52.835400   68.428700
  H    -16.405500   53.974400   61.514100
  H    -18.333300   59.890500   66.872100

 Total Charge           Charge          ....    0
 Multiplicity           Mult            ....    1
 Number of Electrons    NEL             ....  134
 Basis Dimension        Dim             ....  322

ORBITAL ENERGIES
----------------

  NO   OCC          E(Eh)            E(eV)
   0   2.0000     -88.967291     -2420.9231
   1   2.0000     -88.963228     -2420.8125
   2   2.0000     -10.329867      -281.0900
   3   2.0000     -10.328561      -281.0544
   4   2.0000     -10.319809      -280.8163
   5   2.0000     -10.311370      -280.5866
   6   2.0000     -10.309568      -280.5376
   7   2.0000     -10.308601      -280.5113
   8   2.0000     -10.306407      -280.4516
   9   2.0000     -10.298581      -280.2386
  10   2.0000     -10.298469      -280.2356
  11   2.0000     -10.293115      -280.0899
  12   2.0000     -10.291969      -280.0587
  13   2.0000     -10.291060      -280.0340
  14   2.0000     -10.290898      -280.0296
  15   2.0000     -10.287515      -279.9375
  16   2.0000      -8.081620      -219.9121
  17   2.0000      -8.078796      -219.8352
  18   2.0000      -6.040092      -164.3593
  19   2.0000      -6.037221      -164.2811
  20   2.0000      -6.036353      -164.2575
  21   2.0000      -6.033133      -164.1699
  22   2.0000      -6.032271      -164.1464
  23   2.0000      -6.029637      -164.0748
  24   2.0000      -1.008628       -27.4462
  25   2.0000      -0.984832       -26.7986
  26   2.0000      -0.902459       -24.5572
  27   2.0000      -0.900225       -24.4964
  28   2.0000      -0.870138       -23.6777
  29   2.0000      -0.849846       -23.1255
  30   2.0000      -0.843184       -22.9442
  31   2.0000      -0.815311       -22.1857
  32   2.0000      -0.780625       -21.2419
  33   2.0000      -0.768875       -20.9221
  34   2.0000      -0.705491       -19.1974
  35   2.0000      -0.700299       -19.0561
  36   2.0000      -0.697144       -18.9703
  37   2.0000      -0.663082       -18.0434
  38   2.0000      -0.644794       -17.5457
  39   2.0000      -0.622766       -16.9463
  40   2.0000      -0.597834       -16.2679
  41   2.0000      -0.566351       -15.4112
  42   2.0000      -0.562150       -15.2969
  43   2.0000      -0.554165       -15.0796
  44   2.0000      -0.524547       -14.2736
  45   2.0000      -0.516862       -14.0645
  46   2.0000      -0.514656       -14.0045
  47   2.0000      -0.507292       -13.8041
  48   2.0000      -0.504956       -13.7405
  49   2.0000      -0.492752       -13.4085
  50   2.0000      -0.488336       -13.2883
  51   2.0000      -0.483988       -13.1700
  52   2.0000      -0.468211       -12.7407
  53   2.0000      -0.466328       -12.6894
  54   2.0000      -0.456685       -12.4270
  55   2.0000      -0.447766       -12.1843
  56   2.0000      -0.443382       -12.0650
  57   2.0000      -0.439007       -11.9460
  58   2.0000      -0.430227       -11.7071
  59   2.0000      -0.426947       -11.6178
  60   2.0000      -0.424635       -11.5549
  61   2.0000      -0.419324       -11.4104
  62   2.0000      -0.413152       -11.2424
  63   2.0000      -0.355079        -9.6622
  64   2.0000      -0.335868        -9.1394
  65   2.0000      -0.325218        -8.8496
  66   2.0000      -0.290163        -7.8957
  67   0.0000       0.024643         0.6706
  68   0.0000       0.070606         1.9213
  69   0.0000       0.104878         2.8539
  70   0.0000       0.112991         3.0747
  71   0.0000       0.130604         3.5539

MULLIKEN ATOMIC CHARGES
-----------------------
   0 S :    0.103720
   1 C :   -0.102216
   2 C :   -0.021019
   3 C :   -0.010416
   4 C :   -0.123768
   5 H :    0.013623
   6 C :    0.006898
   7 H :    0.033644
   8 H :    0.039362
   9 C :   -0.078007
  10 H :    0.036439
  11 H :    0.032609
  12 C :   -0.071881
  13 H :    0.028296
  14 H :    0.041847
  15 H :    0.044167
  16 S :    0.093409
  17 C :   -0.090173
  18 C :   -0.024004
  19 C :   -0.068373
  20 C :   -0.118493
  21 H :    0.020826
  22 C :    0.076594
  23 H :    0.005822
  24 H :    0.036357
  25 C :   -0.047155
  26 H :    0.034708
  27 H :    0.025280
  28 C :   -0.135208
  29 H :    0.034347
  30 H :    0.040138
  31 H :    0.048908
  32 H :    0.019963
  33 H :    0.073757
Sum of atomic charges:    0.0000000

LOEWDIN ATOMIC CHARGES
----------------------
   0 S :    0.386908
   1 C :   -0.161147
   2 C :   -0.063893
   3 C :   -0.061981
   4 C :   -0.193535
   5 H :    0.031667
   6 C :   -0.040998
   7 H :    0.036517
   8 H :    0.037187
   9 C :   -0.044116
  10 H :    0.026765
  11 H :    0.021109
  12 C :   -0.069868
  13 H :    0.017666
  14 H :    0.031984
  15 H :    0.031661
  16 S :    0.425249
  17 C :   -0.193214
  18 C :   -0.064638
  19 C :   -0.057057
  20 C :   -0.208174
  21 H :    0.030993
  22 C :   -0.030907
  23 H :    0.017012
  24 H :    0.038570
  25 C :   -0.035257
  26 H :    0.026115
  27 H :    0.020663
  28 C :   -0.086172
  29 H :    0.027785
  30 H :    0.025385
  31 H :    0.033098
  32 H :    0.009891
  33 H :    0.034733

  Mayer bond orders larger than 0.100000
B(  0-S ,  1-C ) :   1.1367 B(  0-S ,  4-C ) :   1.1313 B(  1-C ,  2-C ) :   1.6226
B(  1-C , 32-H ) :   0.9781 B(  2-C ,  3-C ) :   1.2346 B(  2-C ,  6-C ) :   1.0063
B(  3-C ,  4-C ) :   1.6069 B(  3-C ,  5-H ) :   0.9889 B(  4-C , 20-C ) :   1.0217
B(  6-C ,  7-H ) :   0.9442 B(  6-C ,  8-H ) :   0.9502 B(  6-C ,  9-C ) :   1.0466
B(  9-C , 10-H ) :   0.9621 B(  9-C , 11-H ) :   0.9606 B(  9-C , 12-C ) :   1.0618
B( 12-C , 13-H ) :   0.9796 B( 12-C , 14-H ) :   0.9790 B( 12-C , 15-H ) :   0.9766
B( 16-S , 17-C ) :   1.1635 B( 16-S , 20-C ) :   1.1681 B( 17-C , 18-C ) :   1.5763
B( 17-C , 33-H ) :   0.9646 B( 18-C , 19-C ) :   1.2691 B( 18-C , 21-H ) :   0.9918
B( 19-C , 20-C ) :   1.5510 B( 19-C , 22-C ) :   1.0549 B( 22-C , 23-H ) :   0.9221
B( 22-C , 24-H ) :   0.9429 B( 22-C , 25-C ) :   1.0506 B( 25-C , 26-H ) :   0.9634
B( 25-C , 27-H ) :   0.9521 B( 25-C , 28-C ) :   1.0745 B( 28-C , 29-H ) :   0.9765
B( 28-C , 30-H ) :   0.9768 B( 28-C , 31-H ) :   0.9742

Dispersion correction           -0.013329608
FINAL SINGLE POINT ENERGY     -1339.864171382807

DIPOLE MOMENT
-------------
                                X             Y             Z
Electronic contribution:    -18.49723      23.76819     -13.80365
Nuclear contribution   :     19.08838     -24.14171      14.22390
                        -----------------------------------------
Total Dipole Moment    :      0.59115      -0.37352       0.42025
                        -----------------------------------------
Magnitude (a.u.)       :      0.81583
Magnitude (Debye)      :      2.07369

Rotational constants in cm-1:     0.016462     0.008547     0.006175
Rotational constants in MHz :   493.518860   256.246317   185.127058

                             ****ORCA TERMINATED NORMALLY****
TOTAL RUN TIME: 0 days 0 hours 0 minutes 32 seconds 35 msec
