                         Program Version 4.2.1 -  RELEASE  -
|  1> ! wB97X-D3 SP def2-SVP
|  2> %pal
|  3> nprocs 16
|  4> end
|  5>
|  6> * xyz 0 1
|  7> S 	 17.8153 	 -8.1917 	 80.1005
|  8> C 	 16.8556 	 -8.69993 	 78.7231
|  9> C 	 15.5157 	 -8.83234 	 78.9325
| 10> C 	 15.2006 	 -8.76502 	 80.3312
| 11> C 	 16.3532 	 -8.36256 	 81.0738
| 12> H 	 14.2771 	 -8.81946 	 80.8245
| 13> C 	 14.4968 	 -9.06778 	 77.8964
| 14> H 	 14.6085 	 -8.42783 	 77.0609
| 15> H 	 13.4649 	 -8.9696 	 78.2971
| 16> C 	 14.545 	 -10.4724 	 77.2512
| 17> H 	 15.4429 	 -10.519 	 76.5409
| 18> H 	 14.6073 	 -11.2292 	 78.0267
| 19> C 	 13.274 	 -10.8653 	 76.3564
| 20> H 	 12.9311 	 -10.0137 	 75.7359
| 21> H 	 13.4493 	 -11.7113 	 75.7236
| 22> H 	 12.3612 	 -11.1575 	 76.9394
| 23> S 	 16.0935 	 -7.00669 	 83.4734
| 24> C 	 16.4903 	 -7.86003 	 84.9694
| 25> C 	 17.0729 	 -9.07444 	 84.6842
| 26> C 	 17.0901 	 -9.44516 	 83.285
| 27> C 	 16.4338 	 -8.45976 	 82.5059
| 28> H 	 17.3387 	 -9.55894 	 85.5387
| 29> C 	 17.6257 	 -10.8204 	 82.8156
| 30> H 	 18.1185 	 -11.2286 	 83.743
| 31> H 	 18.4592 	 -10.7417 	 82.02
| 32> C 	 16.5862 	 -11.8104 	 82.4213
| 33> H 	 16.1411 	 -11.5059 	 81.5187
| 34> H 	 15.868 	 -11.6973 	 83.2537
| 35> C 	 16.8881 	 -13.298 	 82.4074
| 36> H 	 17.7617 	 -13.3765 	 81.7213
| 37> H 	 15.9777 	 -13.839 	 82.0638
| 38> H 	 17.2276 	 -13.5888 	 83.4613
| 39> H 	 17.3258 	 -8.79822 	 77.758
| 40> H 	 16.5033 	 -7.3223 	 85.9049
| 41> *
| 42>
| 43>                          ****END OF INPUT****

CARTESIAN COORDINATES (ANGSTROEM)
---------------------------------
  S     17.815300   -8.191700   80.100500
  C     16.855600   -8.699930   78.723100
  C     15.515700   -8.832340   78.932500
  C     15.200600   -8.765020   80.331200
  C     16.353200   -8.362560   81.073800
  H     14.277100   -8.819460   80.824500
  C     14.496800   -9.067780   77.896400
  H     14.608500   -8.427830   77.060900
  H     13.464900   -8.969600   78.297100
  C     14.545000  -10.472400   77.251200
  H     15.442900  -10.519000   76.540900
  H     14.607300  -11.229200   78.026700
  C     13.274000  -10.865300   76.356400
  H     12.931100  -10.013700   75.735900
  H     13.449300  -11.711300   75.723600
  H     12.361200  -11.157500   76.939400
  S     16.093500   -7.006690   83.473400
  C     16.490300   -7.860030   84.969400
  C     17.072900   -9.074440   84.684200
  C     17.090100   -9.445160   83.285000
  C     16.433800   -8.459760   82.505900
  H     17.338700   -9.558940   85.538700
  C     17.625700  -10.820400   82.815600
  H     18.118500  -11.228600   83.743000
  H     18.459200  -10.741700   82.020000
  C     16.586200  -11.810400   82.421300
  H     16.141100  -11.505900   81.518700
  H     15.868000  -11.697300   83.253700
  C     16.888100  -13.298000   82.407400
  H     17.761700  -13.376500   81.721300
  H     15.977700  -13.839000   82.063800
  H     17.227600  -13.588800   83.461300
  H     17.325800   -8.798220   77.758000
  H     16.503300   -7.322300   85.904900

 Total Charge           Charge          ....    0
 Multiplicity           Mult            ....    1
 Number of Electrons    NEL             ....  134
 Basis Dimension        Dim             ....  322

ORBITAL ENERGIES
----------------

  NO   OCC          E(Eh)            E(eV)
   0   2.0000     -88.972322     -2421.0600
   1   2.0000     -88.960743     -2420.7449
   2   2.0000     -10.328530      -281.0536
   3   2.0000     -10.325983      -280.9843
   4   2.0000     -10.315751      -280.7059
   5   2.0000     -10.312787      -280.6252
   6   2.0000     -10.311713      -280.5960
   7   2.0000     -10.300714      -280.2967
   8   2.0000     -10.298751      -280.2433
   9   2.0000     -10.298707      -280.2421
  10   2.0000     -10.298675      -280.2412
  11   2.0000     -10.290916      -280.0301
  12   2.0000     -10.289442      -279.9900
  13   2.0000     -10.286354      -279.9059
  14   2.0000     -10.286198      -279.9017
  15   2.0000     -10.272122      -279.5186
  16   2.0000      -8.086472      -220.0441
  17   2.0000      -8.075063      -219.7336
  18   2.0000      -6.044797      -164.4873
  19   2.0000      -6.041227      -164.3901
  20   2.0000      -6.037290      -164.2830
  21   2.0000      -6.033486      -164.1795
  22   2.0000      -6.029664      -164.0755
  23   2.0000      -6.025920      -163.9736
  24   2.0000      -1.001430       -27.2503
  25   2.0000      -0.978011       -26.6130
  26   2.0000      -0.911788       -24.8110
  27   2.0000      -0.909278       -24.7427
  28   2.0000      -0.866705       -23.5843
  29   2.0000      -0.849625       -23.1195
  30   2.0000      -0.844109       -22.9694
  31   2.0000      -0.811743       -22.0887
  32   2.0000      -0.783447       -21.3187
  33   2.0000      -0.767977       -20.8977
  34   2.0000      -0.705441       -19.1960
  35   2.0000      -0.699254       -19.0277
  36   2.0000      -0.679332       -18.4856
  37   2.0000      -0.659512       -17.9462
  38   2.0000      -0.649069       -17.6621
  39   2.0000      -0.618520       -16.8308
  40   2.0000      -0.591534       -16.0965
  41   2.0000      -0.572109       -15.5679
  42   2.0000      -0.568798       -15.4778
  43   2.0000      -0.559622       -15.2281
  44   2.0000      -0.522917       -14.2293
  45   2.0000      -0.519785       -14.1441
  46   2.0000      -0.518111       -14.0985
  47   2.0000      -0.511560       -13.9203
  48   2.0000      -0.503195       -13.6926
  49   2.0000      -0.497834       -13.5467
  50   2.0000      -0.488903       -13.3037
  51   2.0000      -0.472871       -12.8675
  52   2.0000      -0.468871       -12.7586
  53   2.0000      -0.467137       -12.7115
  54   2.0000      -0.459749       -12.5104
  55   2.0000      -0.449982       -12.2446
  56   2.0000      -0.443972       -12.0811
  57   2.0000      -0.436945       -11.8899
  58   2.0000      -0.431297       -11.7362
  59   2.0000      -0.426452       -11.6044
  60   2.0000      -0.420523       -11.4430
  61   2.0000      -0.413598       -11.2546
  62   2.0000      -0.399799       -10.8791
  63   2.0000      -0.337342        -9.1795
  64   2.0000      -0.330853        -9.0030
  65   2.0000      -0.316350        -8.6083
  66   2.0000      -0.305673        -8.3178
  67   0.0000       0.033519         0.9121
  68   0.0000       0.050339         1.3698
  69   0.0000       0.102638         2.7929
  70   0.0000       0.113752         3.0953
  71   0.0000       0.124915         3.3991

MULLIKEN ATOMIC CHARGES
-----------------------
   0 S :    0.134648
   1 C :   -0.140635
   2 C :   -0.033498
   3 C :    0.045421
   4 C :   -0.170327
   5 H :    0.005871
   6 C :    0.096252
   7 H :    0.022061
   8 H :    0.026747
   9 C :   -0.116916
  10 H :    0.042133
  11 H :    0.035565
  12 C :   -0.075986
  13 H :    0.032069
  14 H :    0.037072
  15 H :    0.035622
  16 S :    0.087105
  17 C :   -0.104496
  18 C :   -0.007225
  19 C :   -0.011883
  20 C :   -0.185090
  21 H :   -0.014423
  22 C :    0.060240
  23 H :    0.012479
  24 H :    0.042536
  25 C :   -0.076157
  26 H :    0.026934
  27 H :    0.021076
  28 C :   -0.058098
  29 H :    0.034061
  30 H :    0.055575
  31 H :    0.037818
  32 H :    0.041275
  33 H :    0.062172
Sum of atomic charges:    0.0000000

LOEWDIN ATOMIC CHARGES
----------------------
   0 S :    0.412546
   1 C :   -0.186848
   2 C :   -0.064953
   3 C :   -0.034918
   4 C :   -0.198439
   5 H :    0.026940
   6 C :   -0.033798
   7 H :    0.028710
   8 H :    0.035233
   9 C :   -0.036013
  10 H :    0.028458
  11 H :    0.020594
  12 C :   -0.077061
  13 H :    0.025274
  14 H :    0.023491
  15 H :    0.028221
  16 S :    0.383143
  17 C :   -0.176029
  18 C :   -0.064153
  19 C :   -0.046776
  20 C :   -0.199886
  21 H :    0.016539
  22 C :   -0.037805
  23 H :    0.031105
  24 H :    0.031915
  25 C :   -0.052546
  26 H :    0.016137
  27 H :    0.026426
  28 C :   -0.066663
  29 H :    0.025717
  30 H :    0.035652
  31 H :    0.030249
  32 H :    0.021201
  33 H :    0.028334

  Mayer bond orders larger than 0.100000
B(  0-S ,  1-C ) :   1.1440 B(  0-S ,  4-C ) :   1.1552 B(  1-C ,  2-C ) :   1.6106
B(  1-C , 32-H ) :   0.9677 B(  2-C ,  3-C ) :   1.2200 B(  2-C ,  6-C ) :   1.0427
B(  3-C ,  4-C ) :   1.5716 B(  3-C ,  5-H ) :   0.9985 B(  4-C , 20-C ) :   1.0419
B(  6-C ,  7-H ) :   0.9272 B(  6-C ,  8-H ) :   0.9442 B(  6-C ,  9-C ) :   1.0565
B(  9-C , 10-H ) :   0.9587 B(  9-C , 11-H ) :   0.9615 B(  9-C , 12-C ) :   1.0695
B( 12-C , 13-H ) :   0.9762 B( 12-C , 14-H ) :   0.9777 B( 12-C , 15-H ) :   0.9765
B( 16-S , 17-C ) :   1.1502 B( 16-S , 20-C ) :   1.1499 B( 17-C , 18-C ) :   1.6217
B( 17-C , 33-H ) :   0.9668 B( 18-C , 19-C ) :   1.2218 B( 18-C , 21-H ) :   1.0041
B( 19-C , 20-C ) :   1.5713 B( 19-C , 22-C ) :   1.0423 B( 22-C , 23-H ) :   0.9320
B( 22-C , 24-H ) :   0.9251 B( 22-C , 25-C ) :   1.0694 B( 25-C , 26-H ) :   0.9503
B( 25-C , 27-H ) :   0.9517 B( 25-C , 28-C ) :   1.0863 B( 28-C , 29-H ) :   0.9748
B( 28-C , 30-H ) :   0.9712 B( 28-C , 31-H ) :   0.9727

Dispersion correction           -0.014507748
FINAL SINGLE POINT ENERGY     -1339.858259951914

DIPOLE MOMENT
-------------
                                X             Y             Z
Electronic contribution:      9.69685      24.30579      13.28072
Nuclear contribution   :     -9.85448     -24.73229     -13.48685
                        -----------------------------------------
Total Dipole Moment    :     -0.15763      -0.42650      -0.20613
                        -----------------------------------------
Magnitude (a.u.)       :      0.49923
Magnitude (Debye)      :      1.26895

Rotational constants in cm-1:     0.018827     0.008242     0.006833
Rotational constants in MHz :   564.414550   247.075468   204.852540

                             ****ORCA TERMINATED NORMALLY****
TOTAL RUN TIME: 0 days 0 hours 0 minutes 30 seconds 507 msec
