                         Program Version 4.2.1 -  RELEASE  -
|  1> ! wB97X-D3 SP def2-SVP
|  2> %pal
|  3> nprocs 16
|  4> end
|  5>
|  6> * xyz 0 1
|  7> S 	 -11.7367 	 65.4763 	 50.7148
|  8> C 	 -11.797 	 63.7817 	 50.2019
|  9> C 	 -10.9612 	 62.9735 	 51.036
| 10> C 	 -10.3786 	 63.7131 	 52.1095
| 11> C 	 -10.5293 	 65.0788 	 51.9755
| 12> H 	 -9.59034 	 63.416 	 52.8423
| 13> C 	 -10.7037 	 61.498 	 50.9161
| 14> H 	 -11.6085 	 61.173 	 50.3642
| 15> H 	 -10.8315 	 61.0322 	 51.8462
| 16> C 	 -9.55843 	 61.0254 	 50.0728
| 17> H 	 -9.4673 	 59.8754 	 50.1324
| 18> H 	 -9.65976 	 61.404 	 49.0946
| 19> C 	 -8.24207 	 61.591 	 50.6307
| 20> H 	 -7.98308 	 61.2458 	 51.6753
| 21> H 	 -7.41888 	 61.3118 	 49.9689
| 22> H 	 -8.14617 	 62.6742 	 50.508
| 23> S 	 -10.9149 	 66.6467 	 54.2147
| 24> C 	 -9.72399 	 67.7905 	 54.6722
| 25> C 	 -8.56291 	 67.7757 	 53.8909
| 26> C 	 -8.67815 	 66.7388 	 52.9045
| 27> C 	 -9.90909 	 66.1023 	 52.8807
| 28> H 	 -7.83794 	 68.5671 	 54.0353
| 29> C 	 -7.53584 	 66.4999 	 51.906
| 30> H 	 -7.25587 	 67.471 	 51.545
| 31> H 	 -7.87213 	 65.843 	 51.1061
| 32> C 	 -6.33363 	 65.8694 	 52.5532
| 33> H 	 -6.74197 	 64.9887 	 52.9969
| 34> H 	 -6.05236 	 66.6533 	 53.3156
| 35> C 	 -5.05765 	 65.6562 	 51.5539
| 36> H 	 -4.26686 	 65.047 	 52.0639
| 37> H 	 -4.73716 	 66.6596 	 51.2234
| 38> H 	 -5.48355 	 65.195 	 50.6456
| 39> H 	 -12.2928 	 63.3877 	 49.3783
| 40> H 	 -9.78607 	 68.5909 	 55.4066
| 41> *
| 42>
| 43>                          ****END OF INPUT****

CARTESIAN COORDINATES (ANGSTROEM)
---------------------------------
  S    -11.736700   65.476300   50.714800
  C    -11.797000   63.781700   50.201900
  C    -10.961200   62.973500   51.036000
  C    -10.378600   63.713100   52.109500
  C    -10.529300   65.078800   51.975500
  H     -9.590340   63.416000   52.842300
  C    -10.703700   61.498000   50.916100
  H    -11.608500   61.173000   50.364200
  H    -10.831500   61.032200   51.846200
  C     -9.558430   61.025400   50.072800
  H     -9.467300   59.875400   50.132400
  H     -9.659760   61.404000   49.094600
  C     -8.242070   61.591000   50.630700
  H     -7.983080   61.245800   51.675300
  H     -7.418880   61.311800   49.968900
  H     -8.146170   62.674200   50.508000
  S    -10.914900   66.646700   54.214700
  C     -9.723990   67.790500   54.672200
  C     -8.562910   67.775700   53.890900
  C     -8.678150   66.738800   52.904500
  C     -9.909090   66.102300   52.880700
  H     -7.837940   68.567100   54.035300
  C     -7.535840   66.499900   51.906000
  H     -7.255870   67.471000   51.545000
  H     -7.872130   65.843000   51.106100
  C     -6.333630   65.869400   52.553200
  H     -6.741970   64.988700   52.996900
  H     -6.052360   66.653300   53.315600
  C     -5.057650   65.656200   51.553900
  H     -4.266860   65.047000   52.063900
  H     -4.737160   66.659600   51.223400
  H     -5.483550   65.195000   50.645600
  H    -12.292800   63.387700   49.378300
  H     -9.786070   68.590900   55.406600

 Total Charge           Charge          ....    0
 Multiplicity           Mult            ....    1
 Number of Electrons    NEL             ....  134
 Basis Dimension        Dim             ....  322

ORBITAL ENERGIES
----------------

  NO   OCC          E(Eh)            E(eV)
   0   2.0000     -88.970688     -2421.0155
   1   2.0000     -88.966922     -2420.9130
   2   2.0000     -10.333924      -281.2004
   3   2.0000     -10.327500      -281.0256
   4   2.0000     -10.319307      -280.8026
   5   2.0000     -10.316453      -280.7250
   6   2.0000     -10.307121      -280.4710
   7   2.0000     -10.306581      -280.4563
   8   2.0000     -10.296380      -280.1787
   9   2.0000     -10.295622      -280.1581
  10   2.0000     -10.292324      -280.0684
  11   2.0000     -10.291309      -280.0408
  12   2.0000     -10.287780      -279.9447
  13   2.0000     -10.284474      -279.8548
  14   2.0000     -10.284405      -279.8529
  15   2.0000     -10.278719      -279.6982
  16   2.0000      -8.083995      -219.9767
  17   2.0000      -8.082128      -219.9259
  18   2.0000      -6.042528      -164.4255
  19   2.0000      -6.040558      -164.3719
  20   2.0000      -6.038713      -164.3217
  21   2.0000      -6.036524      -164.2622
  22   2.0000      -6.034788      -164.2149
  23   2.0000      -6.032981      -164.1658
  24   2.0000      -1.002051       -27.2672
  25   2.0000      -0.980196       -26.6725
  26   2.0000      -0.916047       -24.9269
  27   2.0000      -0.908271       -24.7153
  28   2.0000      -0.863276       -23.4909
  29   2.0000      -0.845062       -22.9953
  30   2.0000      -0.842117       -22.9152
  31   2.0000      -0.813942       -22.1485
  32   2.0000      -0.781767       -21.2730
  33   2.0000      -0.770424       -20.9643
  34   2.0000      -0.703377       -19.1399
  35   2.0000      -0.697852       -18.9895
  36   2.0000      -0.688160       -18.7258
  37   2.0000      -0.659466       -17.9450
  38   2.0000      -0.642490       -17.4830
  39   2.0000      -0.610691       -16.6177
  40   2.0000      -0.590323       -16.0635
  41   2.0000      -0.581074       -15.8118
  42   2.0000      -0.571058       -15.5393
  43   2.0000      -0.549378       -14.9493
  44   2.0000      -0.540229       -14.7004
  45   2.0000      -0.517525       -14.0826
  46   2.0000      -0.515739       -14.0340
  47   2.0000      -0.515298       -14.0220
  48   2.0000      -0.502773       -13.6811
  49   2.0000      -0.495373       -13.4798
  50   2.0000      -0.485685       -13.2162
  51   2.0000      -0.475303       -12.9337
  52   2.0000      -0.467088       -12.7101
  53   2.0000      -0.462720       -12.5912
  54   2.0000      -0.460811       -12.5393
  55   2.0000      -0.448176       -12.1955
  56   2.0000      -0.446281       -12.1439
  57   2.0000      -0.436780       -11.8854
  58   2.0000      -0.431670       -11.7463
  59   2.0000      -0.422120       -11.4865
  60   2.0000      -0.420255       -11.4357
  61   2.0000      -0.411473       -11.1968
  62   2.0000      -0.408319       -11.1109
  63   2.0000      -0.339087        -9.2270
  64   2.0000      -0.330257        -8.9868
  65   2.0000      -0.318170        -8.6578
  66   2.0000      -0.309354        -8.4179
  67   0.0000       0.039722         1.0809
  68   0.0000       0.052464         1.4276
  69   0.0000       0.113002         3.0749
  70   0.0000       0.115950         3.1552
  71   0.0000       0.121928         3.3178

MULLIKEN ATOMIC CHARGES
-----------------------
   0 S :    0.118486
   1 C :   -0.083079
   2 C :   -0.132524
   3 C :    0.049642
   4 C :   -0.183502
   5 H :    0.039757
   6 C :    0.085182
   7 H :    0.010897
   8 H :    0.020955
   9 C :   -0.024034
  10 H :    0.050028
  11 H :    0.018120
  12 C :   -0.094989
  13 H :    0.042228
  14 H :    0.022238
  15 H :    0.038778
  16 S :    0.129180
  17 C :   -0.083083
  18 C :   -0.061583
  19 C :   -0.026938
  20 C :   -0.198923
  21 H :    0.028555
  22 C :    0.097601
  23 H :    0.012887
  24 H :    0.024314
  25 C :   -0.118189
  26 H :    0.027167
  27 H :    0.033034
  28 C :   -0.046744
  29 H :    0.063819
  30 H :    0.032610
  31 H :    0.032581
  32 H :    0.023930
  33 H :    0.051596
Sum of atomic charges:   -0.0000000

LOEWDIN ATOMIC CHARGES
----------------------
   0 S :    0.389174
   1 C :   -0.184813
   2 C :   -0.057165
   3 C :   -0.063475
   4 C :   -0.190388
   5 H :    0.043515
   6 C :   -0.039399
   7 H :    0.034258
   8 H :    0.025926
   9 C :   -0.034288
  10 H :    0.038902
  11 H :    0.020896
  12 C :   -0.079759
  13 H :    0.028702
  14 H :    0.023881
  15 H :    0.025338
  16 S :    0.424552
  17 C :   -0.193269
  18 C :   -0.078051
  19 C :   -0.046324
  20 C :   -0.209992
  21 H :    0.034754
  22 C :   -0.028939
  23 H :    0.023606
  24 H :    0.025009
  25 C :   -0.040459
  26 H :    0.017447
  27 H :    0.025405
  28 C :   -0.068325
  29 H :    0.035693
  30 H :    0.026875
  31 H :    0.025497
  32 H :    0.014984
  33 H :    0.030230

  Mayer bond orders larger than 0.100000
B(  0-S ,  1-C ) :   1.1397 B(  0-S ,  4-C ) :   1.1406 B(  1-C ,  2-C ) :   1.6041
B(  1-C ,  4-C ) :   0.1042 B(  1-C , 32-H ) :   0.9736 B(  2-C ,  3-C ) :   1.2304
B(  2-C ,  6-C ) :   1.0184 B(  3-C ,  4-C ) :   1.6099 B(  3-C ,  5-H ) :   0.9750
B(  4-C , 20-C ) :   0.9996 B(  6-C ,  7-H ) :   0.9298 B(  6-C ,  8-H ) :   0.9418
B(  6-C ,  9-C ) :   1.0795 B(  9-C , 10-H ) :   0.9526 B(  9-C , 11-H ) :   0.9469
B(  9-C , 12-C ) :   1.0916 B( 12-C , 13-H ) :   0.9739 B( 12-C , 14-H ) :   0.9704
B( 12-C , 15-H ) :   0.9675 B( 16-S , 17-C ) :   1.1739 B( 16-S , 20-C ) :   1.1398
B( 17-C , 18-C ) :   1.6250 B( 17-C , 33-H ) :   0.9602 B( 18-C , 19-C ) :   1.2197
B( 18-C , 21-H ) :   0.9888 B( 19-C , 20-C ) :   1.6289 B( 19-C , 22-C ) :   1.0444
B( 22-C , 23-H ) :   0.9332 B( 22-C , 24-H ) :   0.9325 B( 22-C , 25-C ) :   1.0552
B( 25-C , 26-H ) :   0.9591 B( 25-C , 27-H ) :   0.9617 B( 25-C , 28-C ) :   1.0605
B( 28-C , 29-H ) :   0.9766 B( 28-C , 30-H ) :   0.9744 B( 28-C , 31-H ) :   0.9766

Dispersion correction           -0.014919966
FINAL SINGLE POINT ENERGY     -1339.859436794088

DIPOLE MOMENT
-------------
                                X             Y             Z
Electronic contribution:    -24.29557      14.74516       8.13593
Nuclear contribution   :     24.77681     -14.94363      -8.30183
                        -----------------------------------------
Total Dipole Moment    :      0.48124      -0.19846      -0.16590
                        -----------------------------------------
Magnitude (a.u.)       :      0.54635
Magnitude (Debye)      :      1.38872

Rotational constants in cm-1:     0.016182     0.010084     0.007115
Rotational constants in MHz :   485.125643   302.296760   213.296977

                             ****ORCA TERMINATED NORMALLY****
TOTAL RUN TIME: 0 days 0 hours 0 minutes 34 seconds 972 msec
