                         Program Version 4.2.1 -  RELEASE  -
|  1> ! wB97X-D3 SP def2-SVP
|  2> %pal
|  3> nprocs 16
|  4> end
|  5>
|  6> * xyz 0 1
|  7> S 	 -43.2756 	 16.9283 	 82.6782
|  8> C 	 -43.3604 	 15.6772 	 81.3922
|  9> C 	 -43.0379 	 16.2271 	 80.1448
| 10> C 	 -42.9595 	 17.6618 	 80.2369
| 11> C 	 -43.044 	 18.2174 	 81.4973
| 12> H 	 -42.8047 	 18.4309 	 79.4858
| 13> C 	 -42.6883 	 15.4122 	 78.9007
| 14> H 	 -41.8703 	 14.805 	 79.18
| 15> H 	 -42.3266 	 16.0415 	 78.1034
| 16> C 	 -43.8376 	 14.4987 	 78.4517
| 17> H 	 -43.6098 	 13.8288 	 77.608
| 18> H 	 -44.1057 	 13.7661 	 79.2001
| 19> C 	 -45.1127 	 15.2892 	 78.1687
| 20> H 	 -45.0335 	 15.945 	 77.3941
| 21> H 	 -45.7893 	 14.5887 	 77.7207
| 22> H 	 -45.6025 	 15.7337 	 79.0276
| 23> S 	 -42.7195 	 20.7491 	 80.5652
| 24> C 	 -43.1718 	 22.158 	 81.5421
| 25> C 	 -43.6307 	 21.8028 	 82.7742
| 26> C 	 -43.562 	 20.3737 	 82.966
| 27> C 	 -43.1008 	 19.6579 	 81.8895
| 28> H 	 -43.9531 	 22.6245 	 83.4704
| 29> C 	 -44.0354 	 19.7309 	 84.3082
| 30> H 	 -44.8198 	 18.9606 	 84.1722
| 31> H 	 -44.6246 	 20.5469 	 84.7433
| 32> C 	 -42.9121 	 19.2353 	 85.2916
| 33> H 	 -42.1266 	 18.8254 	 84.6702
| 34> H 	 -43.2777 	 18.426 	 85.9101
| 35> C 	 -42.2254 	 20.2915 	 86.2883
| 36> H 	 -43.0348 	 20.7701 	 86.8709
| 37> H 	 -41.7835 	 21.1616 	 85.7522
| 38> H 	 -41.44 	 19.899 	 86.874
| 39> H 	 -43.3476 	 14.6484 	 81.6149
| 40> H 	 -43.2155 	 23.1746 	 81.2331
| 41> *
| 42>
| 43>                          ****END OF INPUT****

CARTESIAN COORDINATES (ANGSTROEM)
---------------------------------
  S    -43.275600   16.928300   82.678200
  C    -43.360400   15.677200   81.392200
  C    -43.037900   16.227100   80.144800
  C    -42.959500   17.661800   80.236900
  C    -43.044000   18.217400   81.497300
  H    -42.804700   18.430900   79.485800
  C    -42.688300   15.412200   78.900700
  H    -41.870300   14.805000   79.180000
  H    -42.326600   16.041500   78.103400
  C    -43.837600   14.498700   78.451700
  H    -43.609800   13.828800   77.608000
  H    -44.105700   13.766100   79.200100
  C    -45.112700   15.289200   78.168700
  H    -45.033500   15.945000   77.394100
  H    -45.789300   14.588700   77.720700
  H    -45.602500   15.733700   79.027600
  S    -42.719500   20.749100   80.565200
  C    -43.171800   22.158000   81.542100
  C    -43.630700   21.802800   82.774200
  C    -43.562000   20.373700   82.966000
  C    -43.100800   19.657900   81.889500
  H    -43.953100   22.624500   83.470400
  C    -44.035400   19.730900   84.308200
  H    -44.819800   18.960600   84.172200
  H    -44.624600   20.546900   84.743300
  C    -42.912100   19.235300   85.291600
  H    -42.126600   18.825400   84.670200
  H    -43.277700   18.426000   85.910100
  C    -42.225400   20.291500   86.288300
  H    -43.034800   20.770100   86.870900
  H    -41.783500   21.161600   85.752200
  H    -41.440000   19.899000   86.874000
  H    -43.347600   14.648400   81.614900
  H    -43.215500   23.174600   81.233100

 Total Charge           Charge          ....    0
 Multiplicity           Mult            ....    1
 Number of Electrons    NEL             ....  134
 Basis Dimension        Dim             ....  322

ORBITAL ENERGIES
----------------

  NO   OCC          E(Eh)            E(eV)
   0   2.0000     -88.966378     -2420.8982
   1   2.0000     -88.966350     -2420.8975
   2   2.0000     -10.336821      -281.2792
   3   2.0000     -10.334328      -281.2113
   4   2.0000     -10.318106      -280.7699
   5   2.0000     -10.316041      -280.7137
   6   2.0000     -10.310877      -280.5732
   7   2.0000     -10.309893      -280.5464
   8   2.0000     -10.301137      -280.3082
   9   2.0000     -10.297570      -280.2111
  10   2.0000     -10.295637      -280.1585
  11   2.0000     -10.290784      -280.0265
  12   2.0000     -10.289469      -279.9907
  13   2.0000     -10.286370      -279.9064
  14   2.0000     -10.279667      -279.7240
  15   2.0000     -10.260632      -279.2060
  16   2.0000      -8.080757      -219.8886
  17   2.0000      -8.079523      -219.8550
  18   2.0000      -6.039485      -164.3427
  19   2.0000      -6.038231      -164.3086
  20   2.0000      -6.035411      -164.2319
  21   2.0000      -6.034155      -164.1977
  22   2.0000      -6.031229      -164.1181
  23   2.0000      -6.030269      -164.0920
  24   2.0000      -1.004352       -27.3298
  25   2.0000      -0.980290       -26.6750
  26   2.0000      -0.912898       -24.8412
  27   2.0000      -0.892555       -24.2877
  28   2.0000      -0.870091       -23.6764
  29   2.0000      -0.846726       -23.0406
  30   2.0000      -0.836856       -22.7720
  31   2.0000      -0.817559       -22.2469
  32   2.0000      -0.786257       -21.3951
  33   2.0000      -0.774280       -21.0692
  34   2.0000      -0.708689       -19.2844
  35   2.0000      -0.707190       -19.2436
  36   2.0000      -0.691045       -18.8043
  37   2.0000      -0.670159       -18.2359
  38   2.0000      -0.635744       -17.2995
  39   2.0000      -0.609159       -16.5760
  40   2.0000      -0.589758       -16.0481
  41   2.0000      -0.575856       -15.6698
  42   2.0000      -0.554060       -15.0768
  43   2.0000      -0.545107       -14.8331
  44   2.0000      -0.540217       -14.7000
  45   2.0000      -0.536226       -14.5915
  46   2.0000      -0.519063       -14.1244
  47   2.0000      -0.516200       -14.0465
  48   2.0000      -0.503085       -13.6897
  49   2.0000      -0.491586       -13.3767
  50   2.0000      -0.486551       -13.2397
  51   2.0000      -0.474349       -12.9077
  52   2.0000      -0.469408       -12.7733
  53   2.0000      -0.465673       -12.6716
  54   2.0000      -0.461833       -12.5671
  55   2.0000      -0.445429       -12.1207
  56   2.0000      -0.442106       -12.0303
  57   2.0000      -0.435730       -11.8568
  58   2.0000      -0.428460       -11.6590
  59   2.0000      -0.426734       -11.6120
  60   2.0000      -0.417508       -11.3610
  61   2.0000      -0.414524       -11.2798
  62   2.0000      -0.406870       -11.0715
  63   2.0000      -0.363021        -9.8783
  64   2.0000      -0.334078        -9.0907
  65   2.0000      -0.329147        -8.9565
  66   2.0000      -0.287575        -7.8253
  67   0.0000       0.019121         0.5203
  68   0.0000       0.076524         2.0823
  69   0.0000       0.107693         2.9305
  70   0.0000       0.114147         3.1061
  71   0.0000       0.129692         3.5291

MULLIKEN ATOMIC CHARGES
-----------------------
   0 S :    0.082682
   1 C :   -0.104944
   2 C :   -0.098462
   3 C :   -0.005653
   4 C :   -0.117765
   5 H :    0.017111
   6 C :    0.131878
   7 H :    0.027533
   8 H :    0.022455
   9 C :   -0.099791
  10 H :    0.027444
  11 H :    0.020410
  12 C :   -0.006340
  13 H :    0.001527
  14 H :    0.009301
  15 H :    0.051468
  16 S :    0.060692
  17 C :   -0.061027
  18 C :   -0.050722
  19 C :   -0.095296
  20 C :   -0.080601
  21 H :    0.046258
  22 C :    0.032683
  23 H :    0.048394
  24 H :    0.011474
  25 C :   -0.058795
  26 H :    0.033009
  27 H :    0.033598
  28 C :   -0.061414
  29 H :    0.030662
  30 H :    0.030052
  31 H :    0.038871
  32 H :    0.039395
  33 H :    0.043911
Sum of atomic charges:   -0.0000000

LOEWDIN ATOMIC CHARGES
----------------------
   0 S :    0.393856
   1 C :   -0.180326
   2 C :   -0.047498
   3 C :   -0.080076
   4 C :   -0.178801
   5 H :    0.021110
   6 C :   -0.023204
   7 H :    0.030515
   8 H :    0.030128
   9 C :   -0.040219
  10 H :    0.026432
  11 H :    0.021573
  12 C :   -0.059732
  13 H :    0.010307
  14 H :    0.026147
  15 H :    0.030423
  16 S :    0.391775
  17 C :   -0.168305
  18 C :   -0.077114
  19 C :   -0.061721
  20 C :   -0.182390
  21 H :    0.046931
  22 C :   -0.042280
  23 H :    0.032909
  24 H :    0.027347
  25 C :   -0.039439
  26 H :    0.017930
  27 H :    0.024140
  28 C :   -0.067502
  29 H :    0.025176
  30 H :    0.027201
  31 H :    0.021096
  32 H :    0.017143
  33 H :    0.026468

  Mayer bond orders larger than 0.100000
B(  0-S ,  1-C ) :   1.1321 B(  0-S ,  4-C ) :   1.1363 B(  1-C ,  2-C ) :   1.6077
B(  1-C , 32-H ) :   0.9724 B(  2-C ,  3-C ) :   1.2282 B(  2-C ,  6-C ) :   1.0088
B(  3-C ,  4-C ) :   1.6069 B(  3-C ,  5-H ) :   0.9710 B(  4-C , 20-C ) :   1.0440
B(  6-C ,  7-H ) :   0.9348 B(  6-C ,  8-H ) :   0.9471 B(  6-C ,  9-C ) :   1.0735
B(  9-C , 10-H ) :   0.9573 B(  9-C , 11-H ) :   0.9545 B(  9-C , 12-C ) :   1.0844
B( 12-C , 13-H ) :   0.9738 B( 12-C , 14-H ) :   0.9660 B( 12-C , 15-H ) :   0.9712
B( 16-S , 17-C ) :   1.1395 B( 16-S , 20-C ) :   1.1173 B( 17-C , 18-C ) :   1.6593
B( 17-C , 33-H ) :   0.9653 B( 18-C , 19-C ) :   1.2245 B( 18-C , 21-H ) :   0.9788
B( 19-C , 20-C ) :   1.6249 B( 19-C , 22-C ) :   1.0249 B( 22-C , 23-H ) :   0.9413
B( 22-C , 24-H ) :   0.9398 B( 22-C , 25-C ) :   1.0408 B( 25-C , 26-H ) :   0.9616
B( 25-C , 27-H ) :   0.9601 B( 25-C , 28-C ) :   1.0713 B( 28-C , 29-H ) :   0.9776
B( 28-C , 30-H ) :   0.9783 B( 28-C , 31-H ) :   0.9782

Dispersion correction           -0.014340748
FINAL SINGLE POINT ENERGY     -1339.868573195426

DIPOLE MOMENT
-------------
                                X             Y             Z
Electronic contribution:      3.76738       8.60486      -2.48999
Nuclear contribution   :     -3.86403      -8.66706       2.41583
                        -----------------------------------------
Total Dipole Moment    :     -0.09665      -0.06220      -0.07415
                        -----------------------------------------
Magnitude (a.u.)       :      0.13678
Magnitude (Debye)      :      0.34766

Rotational constants in cm-1:     0.023423     0.007871     0.006333
Rotational constants in MHz :   702.204603   235.961128   189.853637

                             ****ORCA TERMINATED NORMALLY****
TOTAL RUN TIME: 0 days 0 hours 0 minutes 29 seconds 669 msec
