                         Program Version 4.2.1 -  RELEASE  -
|  1> ! wB97X-D3 SP def2-SVP
|  2> %pal
|  3> nprocs 16
|  4> end
|  5>
|  6> * xyz 0 1
|  7> S 	 37.1627 	 3.33914 	 72.8866
|  8> C 	 36.8517 	 3.50151 	 71.1575
|  9> C 	 35.6327 	 2.91141 	 70.7971
| 10> C 	 35.1027 	 2.17939 	 71.908
| 11> C 	 35.864 	 2.23684 	 73.0457
| 12> H 	 34.227 	 1.51016 	 71.8086
| 13> C 	 34.948 	 2.92267 	 69.4831
| 14> H 	 34.7558 	 1.91598 	 69.1981
| 15> H 	 35.4833 	 3.47514 	 68.7204
| 16> C 	 33.5923 	 3.62787 	 69.2307
| 17> H 	 33.7708 	 4.69283 	 69.4722
| 18> H 	 33.4094 	 3.74326 	 68.1659
| 19> C 	 32.4767 	 3.02215 	 70.1661
| 20> H 	 31.4371 	 3.35478 	 69.8822
| 21> H 	 32.451 	 1.9607 	 70.0398
| 22> H 	 32.7022 	 3.30188 	 71.1738
| 23> S 	 36.6225 	 0.134621 	 74.6303
| 24> C 	 35.7141 	 -0.0214886 	 76.1283
| 25> C 	 34.5656 	 0.793487 	 76.1962
| 26> C 	 34.4314 	 1.61895 	 75.0492
| 27> C 	 35.5666 	 1.5508 	 74.2392
| 28> H 	 33.9347 	 0.738316 	 77.1198
| 29> C 	 33.3074 	 2.60751 	 74.83
| 30> H 	 33.3189 	 3.18642 	 73.8739
| 31> H 	 33.5556 	 3.42183 	 75.4463
| 32> C 	 31.8752 	 2.15505 	 75.1208
| 33> H 	 31.0752 	 2.87426 	 74.9447
| 34> H 	 31.9241 	 1.92194 	 76.1499
| 35> C 	 31.4873 	 0.862444 	 74.3524
| 36> H 	 30.3935 	 0.566927 	 74.3883
| 37> H 	 32.108 	 -0.00451166 	 74.6817
| 38> H 	 31.8832 	 1.05343 	 73.3249
| 39> H 	 37.4248 	 4.12617 	 70.5128
| 40> H 	 35.7942 	 -0.727578 	 76.9431
| 41> *
| 42>
| 43>                          ****END OF INPUT****

CARTESIAN COORDINATES (ANGSTROEM)
---------------------------------
  S     37.162700    3.339140   72.886600
  C     36.851700    3.501510   71.157500
  C     35.632700    2.911410   70.797100
  C     35.102700    2.179390   71.908000
  C     35.864000    2.236840   73.045700
  H     34.227000    1.510160   71.808600
  C     34.948000    2.922670   69.483100
  H     34.755800    1.915980   69.198100
  H     35.483300    3.475140   68.720400
  C     33.592300    3.627870   69.230700
  H     33.770800    4.692830   69.472200
  H     33.409400    3.743260   68.165900
  C     32.476700    3.022150   70.166100
  H     31.437100    3.354780   69.882200
  H     32.451000    1.960700   70.039800
  H     32.702200    3.301880   71.173800
  S     36.622500    0.134621   74.630300
  C     35.714100   -0.021489   76.128300
  C     34.565600    0.793487   76.196200
  C     34.431400    1.618950   75.049200
  C     35.566600    1.550800   74.239200
  H     33.934700    0.738316   77.119800
  C     33.307400    2.607510   74.830000
  H     33.318900    3.186420   73.873900
  H     33.555600    3.421830   75.446300
  C     31.875200    2.155050   75.120800
  H     31.075200    2.874260   74.944700
  H     31.924100    1.921940   76.149900
  C     31.487300    0.862444   74.352400
  H     30.393500    0.566927   74.388300
  H     32.108000   -0.004512   74.681700
  H     31.883200    1.053430   73.324900
  H     37.424800    4.126170   70.512800
  H     35.794200   -0.727578   76.943100

 Total Charge           Charge          ....    0
 Multiplicity           Mult            ....    1
 Number of Electrons    NEL             ....  134
 Basis Dimension        Dim             ....  322

ORBITAL ENERGIES
----------------

  NO   OCC          E(Eh)            E(eV)
   0   2.0000     -88.970141     -2421.0006
   1   2.0000     -88.966265     -2420.8952
   2   2.0000     -10.323458      -280.9156
   3   2.0000     -10.320315      -280.8301
   4   2.0000     -10.317686      -280.7585
   5   2.0000     -10.314987      -280.6851
   6   2.0000     -10.310075      -280.5514
   7   2.0000     -10.302252      -280.3385
   8   2.0000     -10.300460      -280.2898
   9   2.0000     -10.292498      -280.0731
  10   2.0000     -10.290905      -280.0298
  11   2.0000     -10.289424      -279.9895
  12   2.0000     -10.286823      -279.9187
  13   2.0000     -10.285348      -279.8786
  14   2.0000     -10.284382      -279.8523
  15   2.0000     -10.282213      -279.7932
  16   2.0000      -8.083607      -219.9661
  17   2.0000      -8.081504      -219.9089
  18   2.0000      -6.042132      -164.4148
  19   2.0000      -6.039883      -164.3536
  20   2.0000      -6.038524      -164.3166
  21   2.0000      -6.036017      -164.2484
  22   2.0000      -6.034189      -164.1986
  23   2.0000      -6.032291      -164.1470
  24   2.0000      -1.008322       -27.4378
  25   2.0000      -0.980160       -26.6715
  26   2.0000      -0.914858       -24.8946
  27   2.0000      -0.910046       -24.7636
  28   2.0000      -0.869667       -23.6648
  29   2.0000      -0.847831       -23.0707
  30   2.0000      -0.843571       -22.9547
  31   2.0000      -0.809882       -22.0380
  32   2.0000      -0.787862       -21.4388
  33   2.0000      -0.772991       -21.0342
  34   2.0000      -0.709403       -19.3038
  35   2.0000      -0.706953       -19.2372
  36   2.0000      -0.694483       -18.8978
  37   2.0000      -0.652784       -17.7632
  38   2.0000      -0.641073       -17.4445
  39   2.0000      -0.615894       -16.7593
  40   2.0000      -0.596548       -16.2329
  41   2.0000      -0.571846       -15.5607
  42   2.0000      -0.554909       -15.0999
  43   2.0000      -0.551186       -14.9985
  44   2.0000      -0.543619       -14.7926
  45   2.0000      -0.541587       -14.7373
  46   2.0000      -0.514450       -13.9989
  47   2.0000      -0.511918       -13.9300
  48   2.0000      -0.499851       -13.6016
  49   2.0000      -0.493383       -13.4256
  50   2.0000      -0.486463       -13.2373
  51   2.0000      -0.480961       -13.0876
  52   2.0000      -0.472238       -12.8503
  53   2.0000      -0.460785       -12.5386
  54   2.0000      -0.455969       -12.4075
  55   2.0000      -0.451038       -12.2734
  56   2.0000      -0.446468       -12.1490
  57   2.0000      -0.440302       -11.9812
  58   2.0000      -0.436984       -11.8909
  59   2.0000      -0.427434       -11.6311
  60   2.0000      -0.420614       -11.4455
  61   2.0000      -0.411196       -11.1892
  62   2.0000      -0.406427       -11.0595
  63   2.0000      -0.336296        -9.1511
  64   2.0000      -0.329510        -8.9664
  65   2.0000      -0.324463        -8.8291
  66   2.0000      -0.296635        -8.0718
  67   0.0000       0.030768         0.8372
  68   0.0000       0.059302         1.6137
  69   0.0000       0.101245         2.7550
  70   0.0000       0.114053         3.1035
  71   0.0000       0.126451         3.4409

MULLIKEN ATOMIC CHARGES
-----------------------
   0 S :    0.124357
   1 C :   -0.113149
   2 C :   -0.063107
   3 C :    0.014895
   4 C :   -0.169403
   5 H :    0.022778
   6 C :    0.057899
   7 H :    0.027162
   8 H :    0.014743
   9 C :   -0.087015
  10 H :    0.019598
  11 H :    0.032593
  12 C :   -0.054989
  13 H :    0.039271
  14 H :    0.026310
  15 H :    0.048718
  16 S :    0.121853
  17 C :   -0.070863
  18 C :   -0.090197
  19 C :    0.016873
  20 C :   -0.184731
  21 H :    0.043869
  22 C :    0.055462
  23 H :    0.029089
  24 H :    0.026327
  25 C :   -0.051776
  26 H :    0.038764
  27 H :    0.015392
  28 C :   -0.097327
  29 H :    0.055470
  30 H :    0.042646
  31 H :    0.028312
  32 H :    0.033037
  33 H :    0.047139
Sum of atomic charges:    0.0000000

LOEWDIN ATOMIC CHARGES
----------------------
   0 S :    0.421389
   1 C :   -0.187148
   2 C :   -0.059915
   3 C :   -0.060186
   4 C :   -0.221869
   5 H :    0.034736
   6 C :   -0.035617
   7 H :    0.027343
   8 H :    0.032600
   9 C :   -0.036812
  10 H :    0.023332
  11 H :    0.024507
  12 C :   -0.066405
  13 H :    0.031559
  14 H :    0.017855
  15 H :    0.023936
  16 S :    0.388083
  17 C :   -0.182662
  18 C :   -0.079786
  19 C :   -0.040995
  20 C :   -0.186788
  21 H :    0.041293
  22 C :   -0.038642
  23 H :    0.035331
  24 H :    0.033254
  25 C :   -0.038513
  26 H :    0.029623
  27 H :    0.013771
  28 C :   -0.078943
  29 H :    0.033202
  30 H :    0.028714
  31 H :    0.025727
  32 H :    0.019350
  33 H :    0.028675

  Mayer bond orders larger than 0.100000
B(  0-S ,  1-C ) :   1.1400 B(  0-S ,  4-C ) :   1.1581 B(  1-C ,  2-C ) :   1.5966
B(  1-C , 32-H ) :   0.9721 B(  2-C ,  3-C ) :   1.2422 B(  2-C ,  6-C ) :   1.0417
B(  3-C ,  4-C ) :   1.5624 B(  3-C ,  5-H ) :   0.9894 B(  4-C , 20-C ) :   1.0544
B(  6-C ,  7-H ) :   0.9388 B(  6-C ,  8-H ) :   0.9383 B(  6-C ,  9-C ) :   1.0671
B(  9-C , 10-H ) :   0.9539 B(  9-C , 11-H ) :   0.9616 B(  9-C , 12-C ) :   1.0640
B( 12-C , 13-H ) :   0.9722 B( 12-C , 14-H ) :   0.9762 B( 12-C , 15-H ) :   0.9714
B( 16-S , 17-C ) :   1.1472 B( 16-S , 20-C ) :   1.1232 B( 17-C , 18-C ) :   1.6392
B( 17-C , 20-C ) :   0.1097 B( 17-C , 33-H ) :   0.9618 B( 18-C , 19-C ) :   1.2148
B( 18-C , 21-H ) :   0.9784 B( 19-C , 20-C ) :   1.6045 B( 19-C , 22-C ) :   1.0290
B( 22-C , 23-H ) :   0.9310 B( 22-C , 24-H ) :   0.9285 B( 22-C , 25-C ) :   1.0719
B( 25-C , 26-H ) :   0.9579 B( 25-C , 27-H ) :   0.9538 B( 25-C , 28-C ) :   1.0714
B( 28-C , 29-H ) :   0.9753 B( 28-C , 30-H ) :   0.9694 B( 28-C , 31-H ) :   0.9752

Dispersion correction           -0.015939139
FINAL SINGLE POINT ENERGY     -1339.854784441523

DIPOLE MOMENT
-------------
                                X             Y             Z
Electronic contribution:     27.11322      -3.84246      10.01941
Nuclear contribution   :    -27.75461       4.00962     -10.17068
                        -----------------------------------------
Total Dipole Moment    :     -0.64140       0.16716      -0.15127
                        -----------------------------------------
Magnitude (a.u.)       :      0.67986
Magnitude (Debye)      :      1.72808

Rotational constants in cm-1:     0.017496     0.010634     0.007506
Rotational constants in MHz :   524.512685   318.812291   225.019426

                             ****ORCA TERMINATED NORMALLY****
TOTAL RUN TIME: 0 days 0 hours 0 minutes 34 seconds 154 msec
