                         Program Version 4.2.1 -  RELEASE  -
|  1> ! wB97X-D3 SP def2-SVP
|  2> %pal
|  3> nprocs 16
|  4> end
|  5>
|  6> * xyz 0 1
|  7> S 	 68.1619 	 18.6423 	 73.7341
|  8> C 	 69.5572 	 19.4009 	 72.9822
|  9> C 	 70.2804 	 20.2097 	 73.893
| 10> C 	 69.6722 	 20.1439 	 75.1961
| 11> C 	 68.7089 	 19.0983 	 75.3431
| 12> H 	 70.1763 	 20.6213 	 76.0864
| 13> C 	 71.5397 	 21.0579 	 73.5406
| 14> H 	 71.2922 	 22.0622 	 73.8796
| 15> H 	 71.6626 	 21.0461 	 72.4589
| 16> C 	 72.8155 	 20.5145 	 74.1352
| 17> H 	 72.7343 	 19.4076 	 74.0884
| 18> H 	 73.6522 	 20.6665 	 73.4543
| 19> C 	 73.269 	 20.9467 	 75.5833
| 20> H 	 73.4258 	 22.0048 	 75.6852
| 21> H 	 72.4342 	 20.7255 	 76.2285
| 22> H 	 74.1439 	 20.5421 	 76.0032
| 23> S 	 66.3309 	 18.4294 	 76.5052
| 24> C 	 66.3545 	 17.8033 	 78.0813
| 25> C 	 67.5538 	 17.9898 	 78.6903
| 26> C 	 68.5692 	 18.4691 	 77.8301
| 27> C 	 68.1266 	 18.5115 	 76.5428
| 28> H 	 67.741 	 17.611 	 79.6657
| 29> C 	 70.0201 	 18.5552 	 78.2268
| 30> H 	 70.0772 	 18.649 	 79.3396
| 31> H 	 70.4675 	 19.352 	 77.6844
| 32> C 	 70.8047 	 17.2464 	 77.8431
| 33> H 	 70.601 	 16.7698 	 76.8697
| 34> H 	 70.4919 	 16.417 	 78.5717
| 35> C 	 72.3233 	 17.407 	 78.0027
| 36> H 	 72.6159 	 17.7722 	 78.95
| 37> H 	 72.7497 	 18.1337 	 77.2641
| 38> H 	 72.7926 	 16.4369 	 77.8607
| 39> H 	 69.7518 	 19.3619 	 71.9737
| 40> H 	 65.4391 	 17.5234 	 78.6467
| 41> *
| 42>
| 43>                          ****END OF INPUT****

CARTESIAN COORDINATES (ANGSTROEM)
---------------------------------
  S     68.161900   18.642300   73.734100
  C     69.557200   19.400900   72.982200
  C     70.280400   20.209700   73.893000
  C     69.672200   20.143900   75.196100
  C     68.708900   19.098300   75.343100
  H     70.176300   20.621300   76.086400
  C     71.539700   21.057900   73.540600
  H     71.292200   22.062200   73.879600
  H     71.662600   21.046100   72.458900
  C     72.815500   20.514500   74.135200
  H     72.734300   19.407600   74.088400
  H     73.652200   20.666500   73.454300
  C     73.269000   20.946700   75.583300
  H     73.425800   22.004800   75.685200
  H     72.434200   20.725500   76.228500
  H     74.143900   20.542100   76.003200
  S     66.330900   18.429400   76.505200
  C     66.354500   17.803300   78.081300
  C     67.553800   17.989800   78.690300
  C     68.569200   18.469100   77.830100
  C     68.126600   18.511500   76.542800
  H     67.741000   17.611000   79.665700
  C     70.020100   18.555200   78.226800
  H     70.077200   18.649000   79.339600
  H     70.467500   19.352000   77.684400
  C     70.804700   17.246400   77.843100
  H     70.601000   16.769800   76.869700
  H     70.491900   16.417000   78.571700
  C     72.323300   17.407000   78.002700
  H     72.615900   17.772200   78.950000
  H     72.749700   18.133700   77.264100
  H     72.792600   16.436900   77.860700
  H     69.751800   19.361900   71.973700
  H     65.439100   17.523400   78.646700

 Total Charge           Charge          ....    0
 Multiplicity           Mult            ....    1
 Number of Electrons    NEL             ....  134
 Basis Dimension        Dim             ....  322

ORBITAL ENERGIES
----------------

  NO   OCC          E(Eh)            E(eV)
   0   2.0000     -88.966299     -2420.8961
   1   2.0000     -88.962563     -2420.7944
   2   2.0000     -10.335706      -281.2489
   3   2.0000     -10.324769      -280.9513
   4   2.0000     -10.314593      -280.6744
   5   2.0000     -10.311422      -280.5881
   6   2.0000     -10.307974      -280.4942
   7   2.0000     -10.302967      -280.3580
   8   2.0000     -10.301023      -280.3051
   9   2.0000     -10.299592      -280.2662
  10   2.0000     -10.297589      -280.2116
  11   2.0000     -10.293834      -280.1095
  12   2.0000     -10.291629      -280.0495
  13   2.0000     -10.287156      -279.9277
  14   2.0000     -10.277740      -279.6715
  15   2.0000     -10.275765      -279.6178
  16   2.0000      -8.080632      -219.8852
  17   2.0000      -8.078221      -219.8196
  18   2.0000      -6.039149      -164.3336
  19   2.0000      -6.036606      -164.2644
  20   2.0000      -6.035218      -164.2266
  21   2.0000      -6.032866      -164.1626
  22   2.0000      -6.031401      -164.1228
  23   2.0000      -6.028767      -164.0511
  24   2.0000      -1.010016       -27.4839
  25   2.0000      -0.981523       -26.7086
  26   2.0000      -0.909812       -24.7572
  27   2.0000      -0.908456       -24.7204
  28   2.0000      -0.866729       -23.5849
  29   2.0000      -0.854661       -23.2565
  30   2.0000      -0.839517       -22.8444
  31   2.0000      -0.811466       -22.0811
  32   2.0000      -0.789239       -21.4763
  33   2.0000      -0.775888       -21.1130
  34   2.0000      -0.706489       -19.2245
  35   2.0000      -0.702292       -19.1103
  36   2.0000      -0.692453       -18.8426
  37   2.0000      -0.664659       -18.0863
  38   2.0000      -0.636191       -17.3116
  39   2.0000      -0.618298       -16.8247
  40   2.0000      -0.597767       -16.2661
  41   2.0000      -0.566208       -15.4073
  42   2.0000      -0.562578       -15.3085
  43   2.0000      -0.551505       -15.0072
  44   2.0000      -0.535732       -14.5780
  45   2.0000      -0.525978       -14.3126
  46   2.0000      -0.515820       -14.0362
  47   2.0000      -0.508717       -13.8429
  48   2.0000      -0.503842       -13.7102
  49   2.0000      -0.501608       -13.6494
  50   2.0000      -0.493676       -13.4336
  51   2.0000      -0.487866       -13.2755
  52   2.0000      -0.476455       -12.9650
  53   2.0000      -0.462527       -12.5860
  54   2.0000      -0.458843       -12.4858
  55   2.0000      -0.448377       -12.2010
  56   2.0000      -0.445631       -12.1262
  57   2.0000      -0.438049       -11.9199
  58   2.0000      -0.435212       -11.8427
  59   2.0000      -0.430047       -11.7022
  60   2.0000      -0.417814       -11.3693
  61   2.0000      -0.414679       -11.2840
  62   2.0000      -0.409381       -11.1398
  63   2.0000      -0.349993        -9.5238
  64   2.0000      -0.332178        -9.0390
  65   2.0000      -0.329404        -8.9635
  66   2.0000      -0.283022        -7.7014
  67   0.0000       0.015168         0.4127
  68   0.0000       0.071105         1.9349
  69   0.0000       0.097347         2.6490
  70   0.0000       0.120019         3.2659
  71   0.0000       0.127138         3.4596

MULLIKEN ATOMIC CHARGES
-----------------------
   0 S :    0.105288
   1 C :   -0.081665
   2 C :   -0.135441
   3 C :    0.016431
   4 C :   -0.176095
   5 H :    0.037456
   6 C :    0.094664
   7 H :    0.039389
   8 H :    0.022948
   9 C :   -0.088646
  10 H :    0.032853
  11 H :    0.025822
  12 C :   -0.010254
  13 H :    0.020941
  14 H :    0.006677
  15 H :    0.028898
  16 S :    0.088226
  17 C :   -0.075727
  18 C :   -0.034359
  19 C :   -0.042818
  20 C :   -0.111896
  21 H :    0.004604
  22 C :    0.095472
  23 H :    0.036364
  24 H :    0.000878
  25 C :   -0.113891
  26 H :    0.047927
  27 H :    0.027881
  28 C :   -0.031946
  29 H :    0.014349
  30 H :    0.037133
  31 H :    0.034003
  32 H :    0.016018
  33 H :    0.068516
Sum of atomic charges:   -0.0000000

LOEWDIN ATOMIC CHARGES
----------------------
   0 S :    0.400020
   1 C :   -0.189539
   2 C :   -0.056006
   3 C :   -0.078815
   4 C :   -0.189533
   5 H :    0.032487
   6 C :   -0.024559
   7 H :    0.033711
   8 H :    0.035201
   9 C :   -0.046228
  10 H :    0.030944
  11 H :    0.022841
  12 C :   -0.062288
  13 H :    0.023649
  14 H :    0.017421
  15 H :    0.022502
  16 S :    0.401840
  17 C :   -0.194384
  18 C :   -0.074577
  19 C :   -0.050248
  20 C :   -0.182691
  21 H :    0.025756
  22 C :   -0.023887
  23 H :    0.038826
  24 H :    0.019448
  25 C :   -0.041092
  26 H :    0.029601
  27 H :    0.028015
  28 C :   -0.066909
  29 H :    0.015055
  30 H :    0.028859
  31 H :    0.028269
  32 H :    0.008001
  33 H :    0.038313

  Mayer bond orders larger than 0.100000
B(  0-S ,  1-C ) :   1.1398 B(  0-S ,  4-C ) :   1.1600 B(  1-C ,  2-C ) :   1.5940
B(  1-C ,  4-C ) :   0.1092 B(  1-C , 32-H ) :   0.9785 B(  2-C ,  3-C ) :   1.2665
B(  2-C ,  6-C ) :   1.0237 B(  3-C ,  4-C ) :   1.5313 B(  3-C ,  5-H ) :   0.9691
B(  4-C , 20-C ) :   1.0598 B(  6-C ,  7-H ) :   0.9466 B(  6-C ,  8-H ) :   0.9373
B(  6-C ,  9-C ) :   1.0571 B(  9-C , 10-H ) :   0.9550 B(  9-C , 11-H ) :   0.9596
B(  9-C , 12-C ) :   1.0676 B( 12-C , 13-H ) :   0.9717 B( 12-C , 14-H ) :   0.9756
B( 12-C , 15-H ) :   0.9731 B( 16-S , 17-C ) :   1.1646 B( 16-S , 20-C ) :   1.1244
B( 17-C , 18-C ) :   1.6148 B( 17-C , 33-H ) :   0.9593 B( 18-C , 19-C ) :   1.2320
B( 18-C , 21-H ) :   0.9943 B( 19-C , 20-C ) :   1.6076 B( 19-C , 22-C ) :   1.0625
B( 22-C , 23-H ) :   0.9325 B( 22-C , 24-H ) :   0.9289 B( 22-C , 25-C ) :   1.0526
B( 25-C , 26-H ) :   0.9615 B( 25-C , 27-H ) :   0.9546 B( 25-C , 28-C ) :   1.0830
B( 28-C , 29-H ) :   0.9727 B( 28-C , 30-H ) :   0.9728 B( 28-C , 31-H ) :   0.9715

Dispersion correction           -0.015513039
FINAL SINGLE POINT ENERGY     -1339.861027212155

DIPOLE MOMENT
-------------
                                X             Y             Z
Electronic contribution:    -31.06228      -3.52385      -7.81432
Nuclear contribution   :     31.71845       3.63483       8.15977
                        -----------------------------------------
Total Dipole Moment    :      0.65617       0.11098       0.34545
                        -----------------------------------------
Magnitude (a.u.)       :      0.74981
Magnitude (Debye)      :      1.90585

Rotational constants in cm-1:     0.017842     0.010501     0.007314
Rotational constants in MHz :   534.896349   314.803986   219.274625

                             ****ORCA TERMINATED NORMALLY****
TOTAL RUN TIME: 0 days 0 hours 0 minutes 32 seconds 185 msec
