                         Program Version 4.2.1 -  RELEASE  -
|  1> ! wB97X-D3 SP def2-SVP
|  2> %pal
|  3> nprocs 16
|  4> end
|  5>
|  6> * xyz 0 1
|  7> S 	 7.08608 	 27.5408 	 69.6387
|  8> C 	 6.08056 	 26.6247 	 68.6078
|  9> C 	 5.57052 	 27.3995 	 67.5529
| 10> C 	 6.10484 	 28.7214 	 67.4738
| 11> C 	 6.90334 	 29.0104 	 68.6289
| 12> H 	 5.986 	 29.4736 	 66.6944
| 13> C 	 4.73497 	 26.9314 	 66.3929
| 14> H 	 4.24975 	 27.8794 	 66.0861
| 15> H 	 3.89695 	 26.3364 	 66.7476
| 16> C 	 5.60825 	 26.1531 	 65.416
| 17> H 	 6.46098 	 26.75 	 65.1166
| 18> H 	 6.05082 	 25.199 	 65.7816
| 19> C 	 4.97147 	 25.7871 	 64.1465
| 20> H 	 4.01098 	 25.3055 	 64.2685
| 21> H 	 4.91993 	 26.5739 	 63.373
| 22> H 	 5.61627 	 25.0903 	 63.6096
| 23> S 	 9.32576 	 30.0154 	 68.5396
| 24> C 	 9.63765 	 31.6931 	 68.7966
| 25> C 	 8.47734 	 32.3242 	 69.2532
| 26> C 	 7.33332 	 31.4988 	 69.2847
| 27> C 	 7.65735 	 30.2134 	 68.8366
| 28> H 	 8.48609 	 33.3436 	 69.5334
| 29> C 	 6.02158 	 31.9717 	 69.7538
| 30> H 	 5.96573 	 32.3233 	 70.742
| 31> H 	 5.46819 	 31.0157 	 69.8962
| 32> C 	 5.3006 	 32.8254 	 68.6759
| 33> H 	 5.25037 	 32.3719 	 67.6967
| 34> H 	 5.91038 	 33.7439 	 68.6257
| 35> C 	 3.90442 	 33.0709 	 69.2386
| 36> H 	 3.3496 	 32.0667 	 69.1671
| 37> H 	 3.44421 	 33.7877 	 68.5183
| 38> H 	 3.87323 	 33.5428 	 70.2168
| 39> H 	 5.83472 	 25.6109 	 68.649
| 40> H 	 10.5515 	 32.1383 	 68.6588
| 41> *
| 42>
| 43>                          ****END OF INPUT****

CARTESIAN COORDINATES (ANGSTROEM)
---------------------------------
  S      7.086080   27.540800   69.638700
  C      6.080560   26.624700   68.607800
  C      5.570520   27.399500   67.552900
  C      6.104840   28.721400   67.473800
  C      6.903340   29.010400   68.628900
  H      5.986000   29.473600   66.694400
  C      4.734970   26.931400   66.392900
  H      4.249750   27.879400   66.086100
  H      3.896950   26.336400   66.747600
  C      5.608250   26.153100   65.416000
  H      6.460980   26.750000   65.116600
  H      6.050820   25.199000   65.781600
  C      4.971470   25.787100   64.146500
  H      4.010980   25.305500   64.268500
  H      4.919930   26.573900   63.373000
  H      5.616270   25.090300   63.609600
  S      9.325760   30.015400   68.539600
  C      9.637650   31.693100   68.796600
  C      8.477340   32.324200   69.253200
  C      7.333320   31.498800   69.284700
  C      7.657350   30.213400   68.836600
  H      8.486090   33.343600   69.533400
  C      6.021580   31.971700   69.753800
  H      5.965730   32.323300   70.742000
  H      5.468190   31.015700   69.896200
  C      5.300600   32.825400   68.675900
  H      5.250370   32.371900   67.696700
  H      5.910380   33.743900   68.625700
  C      3.904420   33.070900   69.238600
  H      3.349600   32.066700   69.167100
  H      3.444210   33.787700   68.518300
  H      3.873230   33.542800   70.216800
  H      5.834720   25.610900   68.649000
  H     10.551500   32.138300   68.658800

 Total Charge           Charge          ....    0
 Multiplicity           Mult            ....    1
 Number of Electrons    NEL             ....  134
 Basis Dimension        Dim             ....  322

ORBITAL ENERGIES
----------------

  NO   OCC          E(Eh)            E(eV)
   0   2.0000     -88.968865     -2420.9659
   1   2.0000     -88.961750     -2420.7723
   2   2.0000     -10.329925      -281.0916
   3   2.0000     -10.316725      -280.7324
   4   2.0000     -10.308252      -280.5018
   5   2.0000     -10.307914      -280.4926
   6   2.0000     -10.298099      -280.2255
   7   2.0000     -10.296902      -280.1930
   8   2.0000     -10.296353      -280.1780
   9   2.0000     -10.290397      -280.0159
  10   2.0000     -10.287161      -279.9279
  11   2.0000     -10.286107      -279.8992
  12   2.0000     -10.283883      -279.8387
  13   2.0000     -10.283451      -279.8269
  14   2.0000     -10.281620      -279.7771
  15   2.0000     -10.270825      -279.4834
  16   2.0000      -8.083122      -219.9529
  17   2.0000      -8.077852      -219.8095
  18   2.0000      -6.041537      -164.3986
  19   2.0000      -6.037554      -164.2902
  20   2.0000      -6.036155      -164.2521
  21   2.0000      -6.034164      -164.1979
  22   2.0000      -6.032037      -164.1401
  23   2.0000      -6.028871      -164.0539
  24   2.0000      -1.008216       -27.4350
  25   2.0000      -0.982169       -26.7262
  26   2.0000      -0.916838       -24.9484
  27   2.0000      -0.913894       -24.8683
  28   2.0000      -0.870819       -23.6962
  29   2.0000      -0.855576       -23.2814
  30   2.0000      -0.852390       -23.1947
  31   2.0000      -0.810341       -22.0505
  32   2.0000      -0.777319       -21.1519
  33   2.0000      -0.765296       -20.8248
  34   2.0000      -0.704545       -19.1716
  35   2.0000      -0.699735       -19.0408
  36   2.0000      -0.697237       -18.9728
  37   2.0000      -0.666492       -18.1362
  38   2.0000      -0.642335       -17.4788
  39   2.0000      -0.615993       -16.7620
  40   2.0000      -0.600970       -16.3532
  41   2.0000      -0.569122       -15.4866
  42   2.0000      -0.563120       -15.3233
  43   2.0000      -0.560115       -15.2415
  44   2.0000      -0.535283       -14.5658
  45   2.0000      -0.528040       -14.3687
  46   2.0000      -0.517892       -14.0926
  47   2.0000      -0.515668       -14.0320
  48   2.0000      -0.509995       -13.8777
  49   2.0000      -0.502400       -13.6710
  50   2.0000      -0.498597       -13.5675
  51   2.0000      -0.477064       -12.9816
  52   2.0000      -0.466086       -12.6828
  53   2.0000      -0.459845       -12.5130
  54   2.0000      -0.455125       -12.3846
  55   2.0000      -0.453016       -12.3272
  56   2.0000      -0.444133       -12.0855
  57   2.0000      -0.434967       -11.8361
  58   2.0000      -0.432756       -11.7759
  59   2.0000      -0.419670       -11.4198
  60   2.0000      -0.416710       -11.3393
  61   2.0000      -0.412175       -11.2159
  62   2.0000      -0.410681       -11.1752
  63   2.0000      -0.338943        -9.2231
  64   2.0000      -0.326194        -8.8762
  65   2.0000      -0.318453        -8.6655
  66   2.0000      -0.295650        -8.0450
  67   0.0000       0.038799         1.0558
  68   0.0000       0.056022         1.5244
  69   0.0000       0.121090         3.2950
  70   0.0000       0.125846         3.4245
  71   0.0000       0.129844         3.5332

MULLIKEN ATOMIC CHARGES
-----------------------
   0 S :    0.131224
   1 C :   -0.084272
   2 C :   -0.114554
   3 C :    0.031577
   4 C :   -0.182880
   5 H :    0.027162
   6 C :    0.083720
   7 H :    0.027349
   8 H :    0.019059
   9 C :   -0.059179
  10 H :    0.021881
  11 H :    0.033420
  12 C :   -0.033848
  13 H :    0.024917
  14 H :    0.025575
  15 H :    0.018608
  16 S :    0.125490
  17 C :   -0.060357
  18 C :   -0.029390
  19 C :    0.011300
  20 C :   -0.207437
  21 H :   -0.000706
  22 C :    0.053434
  23 H :    0.019847
  24 H :    0.015571
  25 C :   -0.075470
  26 H :    0.034683
  27 H :    0.029743
  28 C :   -0.054668
  29 H :    0.050801
  30 H :    0.033548
  31 H :    0.038836
  32 H :    0.022065
  33 H :    0.022953
Sum of atomic charges:   -0.0000000

LOEWDIN ATOMIC CHARGES
----------------------
   0 S :    0.417242
   1 C :   -0.209994
   2 C :   -0.063449
   3 C :   -0.055327
   4 C :   -0.198076
   5 H :    0.034981
   6 C :   -0.035307
   7 H :    0.036282
   8 H :    0.027716
   9 C :   -0.045799
  10 H :    0.028280
  11 H :    0.033294
  12 C :   -0.070517
  13 H :    0.020291
  14 H :    0.024393
  15 H :    0.026829
  16 S :    0.446327
  17 C :   -0.182063
  18 C :   -0.065312
  19 C :   -0.053305
  20 C :   -0.225398
  21 H :    0.022470
  22 C :   -0.038406
  23 H :    0.026713
  24 H :    0.034716
  25 C :   -0.032191
  26 H :    0.025683
  27 H :    0.022939
  28 C :   -0.070357
  29 H :    0.037641
  30 H :    0.026529
  31 H :    0.024249
  32 H :    0.018897
  33 H :    0.010030

  Mayer bond orders larger than 0.100000
B(  0-S ,  1-C ) :   1.1506 B(  0-S ,  4-C ) :   1.1583 B(  1-C ,  2-C ) :   1.5788
B(  1-C ,  4-C ) :   0.1065 B(  1-C , 32-H ) :   0.9729 B(  2-C ,  3-C ) :   1.2694
B(  2-C ,  6-C ) :   1.0291 B(  3-C ,  4-C ) :   1.5453 B(  3-C ,  5-H ) :   0.9860
B(  4-C , 20-C ) :   1.0339 B(  6-C ,  7-H ) :   0.9444 B(  6-C ,  8-H ) :   0.9289
B(  6-C ,  9-C ) :   1.0603 B(  9-C , 10-H ) :   0.9519 B(  9-C , 11-H ) :   0.9540
B(  9-C , 12-C ) :   1.1017 B( 12-C , 13-H ) :   0.9689 B( 12-C , 14-H ) :   0.9731
B( 12-C , 15-H ) :   0.9686 B( 16-S , 17-C ) :   1.1745 B( 16-S , 20-C ) :   1.1841
B( 17-C , 18-C ) :   1.5570 B( 17-C , 20-C ) :   0.1091 B( 17-C , 33-H ) :   0.9836
B( 18-C , 19-C ) :   1.2683 B( 18-C , 21-H ) :   0.9969 B( 19-C , 20-C ) :   1.5512
B( 19-C , 22-C ) :   1.0461 B( 22-C , 23-H ) :   0.9380 B( 22-C , 24-H ) :   0.9256
B( 22-C , 25-C ) :   1.0486 B( 25-C , 26-H ) :   0.9540 B( 25-C , 27-H ) :   0.9579
B( 25-C , 28-C ) :   1.0853 B( 28-C , 29-H ) :   0.9735 B( 28-C , 30-H ) :   0.9734
B( 28-C , 31-H ) :   0.9717

Dispersion correction           -0.013931905
FINAL SINGLE POINT ENERGY     -1339.862569947278

DIPOLE MOMENT
-------------
                                X             Y             Z
Electronic contribution:     20.37690      -3.32167      13.73230
Nuclear contribution   :    -20.65976       3.51539     -14.04616
                        -----------------------------------------
Total Dipole Moment    :     -0.28287       0.19371      -0.31386
                        -----------------------------------------
Magnitude (a.u.)       :      0.46481
Magnitude (Debye)      :      1.18145

Rotational constants in cm-1:     0.018250     0.008064     0.006820
Rotational constants in MHz :   547.120736   241.738265   204.461517

                             ****ORCA TERMINATED NORMALLY****
TOTAL RUN TIME: 0 days 0 hours 0 minutes 34 seconds 424 msec
