                         Program Version 4.2.1 -  RELEASE  -
|  1> ! wB97X-D3 SP def2-SVP
|  2> %pal
|  3> nprocs 16
|  4> end
|  5>
|  6> * xyz 0 1
|  7> S 	 48.4818 	 16.7184 	 84.7686
|  8> C 	 47.8484 	 18.217 	 85.4264
|  9> C 	 48.3069 	 19.3488 	 84.7181
| 10> C 	 49.1648 	 18.9355 	 83.5876
| 11> C 	 49.4254 	 17.5734 	 83.5896
| 12> H 	 49.6901 	 19.5721 	 82.936
| 13> C 	 47.8017 	 20.7648 	 84.8907
| 14> H 	 48.6716 	 21.454 	 84.8918
| 15> H 	 47.3542 	 20.9203 	 85.8954
| 16> C 	 46.7772 	 21.3296 	 83.8553
| 17> H 	 45.9503 	 20.6079 	 83.8293
| 18> H 	 46.3558 	 22.3176 	 84.1995
| 19> C 	 47.3178 	 21.5213 	 82.4977
| 20> H 	 47.7262 	 20.6064 	 82.1362
| 21> H 	 46.6532 	 21.951 	 81.7333
| 22> H 	 48.1078 	 22.2482 	 82.3725
| 23> S 	 49.7801 	 16.1181 	 81.3243
| 24> C 	 51.2987 	 15.3942 	 80.9775
| 25> C 	 52.2266 	 15.7352 	 81.9362
| 26> C 	 51.7256 	 16.5964 	 82.9082
| 27> C 	 50.4045 	 16.9451 	 82.7109
| 28> H 	 53.2448 	 15.3702 	 81.7943
| 29> C 	 52.5367 	 17.1424 	 84.0797
| 30> H 	 52.0535 	 17.9281 	 84.5284
| 31> H 	 53.3782 	 17.7349 	 83.7501
| 32> C 	 53.0446 	 16.1461 	 85.1344
| 33> H 	 53.7099 	 16.8311 	 85.7524
| 34> H 	 53.5738 	 15.3312 	 84.8199
| 35> C 	 51.9001 	 15.6086 	 86.0053
| 36> H 	 52.1514 	 14.7939 	 86.7432
| 37> H 	 51.1704 	 15.133 	 85.3075
| 38> H 	 51.3886 	 16.4087 	 86.5255
| 39> H 	 47.0142 	 18.2739 	 86.1158
| 40> H 	 51.5703 	 14.9527 	 80.0421
| 41> *
| 42>
| 43>                          ****END OF INPUT****

CARTESIAN COORDINATES (ANGSTROEM)
---------------------------------
  S     48.481800   16.718400   84.768600
  C     47.848400   18.217000   85.426400
  C     48.306900   19.348800   84.718100
  C     49.164800   18.935500   83.587600
  C     49.425400   17.573400   83.589600
  H     49.690100   19.572100   82.936000
  C     47.801700   20.764800   84.890700
  H     48.671600   21.454000   84.891800
  H     47.354200   20.920300   85.895400
  C     46.777200   21.329600   83.855300
  H     45.950300   20.607900   83.829300
  H     46.355800   22.317600   84.199500
  C     47.317800   21.521300   82.497700
  H     47.726200   20.606400   82.136200
  H     46.653200   21.951000   81.733300
  H     48.107800   22.248200   82.372500
  S     49.780100   16.118100   81.324300
  C     51.298700   15.394200   80.977500
  C     52.226600   15.735200   81.936200
  C     51.725600   16.596400   82.908200
  C     50.404500   16.945100   82.710900
  H     53.244800   15.370200   81.794300
  C     52.536700   17.142400   84.079700
  H     52.053500   17.928100   84.528400
  H     53.378200   17.734900   83.750100
  C     53.044600   16.146100   85.134400
  H     53.709900   16.831100   85.752400
  H     53.573800   15.331200   84.819900
  C     51.900100   15.608600   86.005300
  H     52.151400   14.793900   86.743200
  H     51.170400   15.133000   85.307500
  H     51.388600   16.408700   86.525500
  H     47.014200   18.273900   86.115800
  H     51.570300   14.952700   80.042100

 Total Charge           Charge          ....    0
 Multiplicity           Mult            ....    1
 Number of Electrons    NEL             ....  134
 Basis Dimension        Dim             ....  322

ORBITAL ENERGIES
----------------

  NO   OCC          E(Eh)            E(eV)
   0   2.0000     -88.970363     -2421.0067
   1   2.0000     -88.963367     -2420.8163
   2   2.0000     -10.328853      -281.0624
   3   2.0000     -10.320940      -280.8471
   4   2.0000     -10.319797      -280.8160
   5   2.0000     -10.312522      -280.6180
   6   2.0000     -10.311228      -280.5828
   7   2.0000     -10.300654      -280.2950
   8   2.0000     -10.298514      -280.2368
   9   2.0000     -10.296714      -280.1878
  10   2.0000     -10.291019      -280.0329
  11   2.0000     -10.290355      -280.0148
  12   2.0000     -10.281234      -279.7666
  13   2.0000     -10.280672      -279.7513
  14   2.0000     -10.272033      -279.5162
  15   2.0000     -10.268724      -279.4262
  16   2.0000      -8.084669      -219.9950
  17   2.0000      -8.079180      -219.8457
  18   2.0000      -6.043213      -164.4442
  19   2.0000      -6.039120      -164.3328
  20   2.0000      -6.037476      -164.2881
  21   2.0000      -6.035520      -164.2349
  22   2.0000      -6.033332      -164.1753
  23   2.0000      -6.030302      -164.0929
  24   2.0000      -1.011875       -27.5345
  25   2.0000      -0.984856       -26.7993
  26   2.0000      -0.911788       -24.8110
  27   2.0000      -0.907890       -24.7049
  28   2.0000      -0.871649       -23.7188
  29   2.0000      -0.848200       -23.0807
  30   2.0000      -0.846979       -23.0475
  31   2.0000      -0.816333       -22.2135
  32   2.0000      -0.784758       -21.3544
  33   2.0000      -0.772891       -21.0314
  34   2.0000      -0.701968       -19.1015
  35   2.0000      -0.699875       -19.0446
  36   2.0000      -0.696481       -18.9522
  37   2.0000      -0.656350       -17.8602
  38   2.0000      -0.646138       -17.5823
  39   2.0000      -0.618667       -16.8348
  40   2.0000      -0.605109       -16.4658
  41   2.0000      -0.573673       -15.6104
  42   2.0000      -0.551161       -14.9979
  43   2.0000      -0.545678       -14.8487
  44   2.0000      -0.542116       -14.7517
  45   2.0000      -0.535319       -14.5668
  46   2.0000      -0.522201       -14.2098
  47   2.0000      -0.508003       -13.8235
  48   2.0000      -0.505842       -13.7646
  49   2.0000      -0.495668       -13.4878
  50   2.0000      -0.489838       -13.3292
  51   2.0000      -0.480812       -13.0836
  52   2.0000      -0.471179       -12.8214
  53   2.0000      -0.466675       -12.6989
  54   2.0000      -0.454264       -12.3611
  55   2.0000      -0.446282       -12.1440
  56   2.0000      -0.440772       -11.9940
  57   2.0000      -0.435945       -11.8627
  58   2.0000      -0.428833       -11.6691
  59   2.0000      -0.425871       -11.5885
  60   2.0000      -0.422662       -11.5012
  61   2.0000      -0.412241       -11.2177
  62   2.0000      -0.404094       -10.9959
  63   2.0000      -0.337122        -9.1735
  64   2.0000      -0.330484        -8.9929
  65   2.0000      -0.321155        -8.7391
  66   2.0000      -0.313908        -8.5419
  67   0.0000       0.046344         1.2611
  68   0.0000       0.049280         1.3410
  69   0.0000       0.113014         3.0753
  70   0.0000       0.120458         3.2778
  71   0.0000       0.128662         3.5011

MULLIKEN ATOMIC CHARGES
-----------------------
   0 S :    0.134624
   1 C :   -0.113728
   2 C :   -0.092288
   3 C :    0.054564
   4 C :   -0.154128
   5 H :    0.005778
   6 C :    0.031774
   7 H :    0.028959
   8 H :    0.027308
   9 C :   -0.045198
  10 H :    0.030379
  11 H :    0.035310
  12 C :   -0.049235
  13 H :    0.025008
  14 H :    0.030346
  15 H :    0.010919
  16 S :    0.113539
  17 C :   -0.088446
  18 C :   -0.050972
  19 C :   -0.005617
  20 C :   -0.201465
  21 H :    0.021825
  22 C :    0.119253
  23 H :   -0.015573
  24 H :    0.016244
  25 C :   -0.043870
  26 H :    0.030126
  27 H :    0.014669
  28 C :   -0.077638
  29 H :    0.040040
  30 H :    0.032344
  31 H :    0.029433
  32 H :    0.052516
  33 H :    0.053198
Sum of atomic charges:   -0.0000000

LOEWDIN ATOMIC CHARGES
----------------------
   0 S :    0.424783
   1 C :   -0.197535
   2 C :   -0.059163
   3 C :   -0.052687
   4 C :   -0.205523
   5 H :    0.023510
   6 C :   -0.039749
   7 H :    0.031968
   8 H :    0.033909
   9 C :   -0.039210
  10 H :    0.026129
  11 H :    0.030615
  12 C :   -0.076225
  13 H :    0.021124
  14 H :    0.031823
  15 H :    0.021571
  16 S :    0.432530
  17 C :   -0.190626
  18 C :   -0.074798
  19 C :   -0.054235
  20 C :   -0.214308
  21 H :    0.035216
  22 C :   -0.026913
  23 H :    0.020250
  24 H :    0.034011
  25 C :   -0.030150
  26 H :    0.031166
  27 H :    0.009169
  28 C :   -0.073902
  29 H :    0.028899
  30 H :    0.023178
  31 H :    0.019839
  32 H :    0.028425
  33 H :    0.026909

  Mayer bond orders larger than 0.100000
B(  0-S ,  1-C ) :   1.1416 B(  0-S ,  4-C ) :   1.1528 B(  1-C ,  2-C ) :   1.6151
B(  1-C , 32-H ) :   0.9652 B(  2-C ,  3-C ) :   1.2186 B(  2-C ,  6-C ) :   1.0421
B(  3-C ,  4-C ) :   1.5900 B(  3-C ,  5-H ) :   0.9881 B(  4-C , 20-C ) :   1.0087
B(  6-C ,  7-H ) :   0.9371 B(  6-C ,  8-H ) :   0.9427 B(  6-C ,  9-C ) :   1.0606
B(  9-C , 10-H ) :   0.9518 B(  9-C , 11-H ) :   0.9531 B(  9-C , 12-C ) :   1.0917
B( 12-C , 13-H ) :   0.9676 B( 12-C , 14-H ) :   0.9662 B( 12-C , 15-H ) :   0.9694
B( 16-S , 17-C ) :   1.1824 B( 16-S , 20-C ) :   1.1661 B( 17-C , 18-C ) :   1.5758
B( 17-C , 20-C ) :   0.1055 B( 17-C , 33-H ) :   0.9669 B( 18-C , 19-C ) :   1.2675
B( 18-C , 21-H ) :   0.9950 B( 19-C , 20-C ) :   1.5705 B( 19-C , 22-C ) :   1.0358
B( 22-C , 23-H ) :   0.9212 B( 22-C , 24-H ) :   0.9296 B( 22-C , 25-C ) :   1.0659
B( 25-C , 26-H ) :   0.9542 B( 25-C , 27-H ) :   0.9644 B( 25-C , 28-C ) :   1.0692
B( 28-C , 29-H ) :   0.9746 B( 28-C , 30-H ) :   0.9743 B( 28-C , 31-H ) :   0.9753

Dispersion correction           -0.015617979
FINAL SINGLE POINT ENERGY     -1339.876785925923

DIPOLE MOMENT
-------------
                                X             Y             Z
Electronic contribution:     -3.55183     -14.42884      -8.32967
Nuclear contribution   :      3.76843      14.84851       8.33192
                        -----------------------------------------
Total Dipole Moment    :      0.21660       0.41967       0.00225
                        -----------------------------------------
Magnitude (a.u.)       :      0.47228
Magnitude (Debye)      :      1.20044

Rotational constants in cm-1:     0.020632     0.008850     0.007527
Rotational constants in MHz :   618.517476   265.307488   225.639096

                             ****ORCA TERMINATED NORMALLY****
TOTAL RUN TIME: 0 days 0 hours 0 minutes 29 seconds 740 msec
