                         Program Version 4.2.1 -  RELEASE  -
|  1> ! wB97X-D3 SP def2-SVP
|  2> %pal
|  3> nprocs 16
|  4> end
|  5>
|  6> * xyz 0 1
|  7> S 	 -2.77259 	 -19.9755 	 84.4492
|  8> C 	 -1.41436 	 -18.8526 	 84.1962
|  9> C 	 -1.06567 	 -18.3252 	 85.3953
| 10> C 	 -1.74641 	 -18.8482 	 86.5077
| 11> C 	 -2.8012 	 -19.6703 	 86.0985
| 12> H 	 -1.54246 	 -18.6102 	 87.5411
| 13> C 	 0.199325 	 -17.4853 	 85.5608
| 14> H 	 -0.108436 	 -16.6275 	 86.1361
| 15> H 	 0.50442 	 -17.0015 	 84.6177
| 16> C 	 1.42788 	 -18.0901 	 86.3132
| 17> H 	 2.26899 	 -17.4061 	 86.1211
| 18> H 	 1.20017 	 -18.1039 	 87.388
| 19> C 	 1.85175 	 -19.4939 	 85.9372
| 20> H 	 1.28229 	 -20.237 	 86.4055
| 21> H 	 1.94978 	 -19.6882 	 84.8946
| 22> H 	 2.81591 	 -19.6249 	 86.2304
| 23> S 	 -4.56354 	 -21.7281 	 86.7389
| 24> C 	 -5.64492 	 -21.4999 	 88.0956
| 25> C 	 -5.55241 	 -20.1788 	 88.5423
| 26> C 	 -4.5582 	 -19.4087 	 87.859
| 27> C 	 -3.92816 	 -20.0812 	 86.8891
| 28> H 	 -6.16558 	 -19.8474 	 89.4091
| 29> C 	 -4.32121 	 -17.9445 	 88.2867
| 30> H 	 -3.34129 	 -17.595 	 88.2205
| 31> H 	 -4.54254 	 -17.8376 	 89.3311
| 32> C 	 -5.28071 	 -17.0072 	 87.5641
| 33> H 	 -6.29228 	 -17.3341 	 87.8593
| 34> H 	 -5.1705 	 -16.9373 	 86.5475
| 35> C 	 -5.09019 	 -15.5904 	 88.1301
| 36> H 	 -5.3352 	 -15.5205 	 89.2181
| 37> H 	 -5.80459 	 -14.9969 	 87.6665
| 38> H 	 -4.10248 	 -15.1319 	 88.0118
| 39> H 	 -0.938115 	 -18.8682 	 83.232
| 40> H 	 -6.39905 	 -22.2065 	 88.3942
| 41> *
| 42>
| 43>                          ****END OF INPUT****

CARTESIAN COORDINATES (ANGSTROEM)
---------------------------------
  S     -2.772590  -19.975500   84.449200
  C     -1.414360  -18.852600   84.196200
  C     -1.065670  -18.325200   85.395300
  C     -1.746410  -18.848200   86.507700
  C     -2.801200  -19.670300   86.098500
  H     -1.542460  -18.610200   87.541100
  C      0.199325  -17.485300   85.560800
  H     -0.108436  -16.627500   86.136100
  H      0.504420  -17.001500   84.617700
  C      1.427880  -18.090100   86.313200
  H      2.268990  -17.406100   86.121100
  H      1.200170  -18.103900   87.388000
  C      1.851750  -19.493900   85.937200
  H      1.282290  -20.237000   86.405500
  H      1.949780  -19.688200   84.894600
  H      2.815910  -19.624900   86.230400
  S     -4.563540  -21.728100   86.738900
  C     -5.644920  -21.499900   88.095600
  C     -5.552410  -20.178800   88.542300
  C     -4.558200  -19.408700   87.859000
  C     -3.928160  -20.081200   86.889100
  H     -6.165580  -19.847400   89.409100
  C     -4.321210  -17.944500   88.286700
  H     -3.341290  -17.595000   88.220500
  H     -4.542540  -17.837600   89.331100
  C     -5.280710  -17.007200   87.564100
  H     -6.292280  -17.334100   87.859300
  H     -5.170500  -16.937300   86.547500
  C     -5.090190  -15.590400   88.130100
  H     -5.335200  -15.520500   89.218100
  H     -5.804590  -14.996900   87.666500
  H     -4.102480  -15.131900   88.011800
  H     -0.938115  -18.868200   83.232000
  H     -6.399050  -22.206500   88.394200

 Total Charge           Charge          ....    0
 Multiplicity           Mult            ....    1
 Number of Electrons    NEL             ....  134
 Basis Dimension        Dim             ....  322

ORBITAL ENERGIES
----------------

  NO   OCC          E(Eh)            E(eV)
   0   2.0000     -88.962944     -2420.8048
   1   2.0000     -88.961342     -2420.7612
   2   2.0000     -10.324332      -280.9394
   3   2.0000     -10.320414      -280.8327
   4   2.0000     -10.319996      -280.8214
   5   2.0000     -10.310752      -280.5698
   6   2.0000     -10.299134      -280.2537
   7   2.0000     -10.298376      -280.2331
   8   2.0000     -10.298055      -280.2243
   9   2.0000     -10.291455      -280.0447
  10   2.0000     -10.289424      -279.9895
  11   2.0000     -10.289390      -279.9885
  12   2.0000     -10.283217      -279.8206
  13   2.0000     -10.278030      -279.6794
  14   2.0000     -10.271892      -279.5124
  15   2.0000     -10.257006      -279.1073
  16   2.0000      -8.077653      -219.8041
  17   2.0000      -8.077536      -219.8009
  18   2.0000      -6.036204      -164.2535
  19   2.0000      -6.035783      -164.2420
  20   2.0000      -6.032189      -164.1442
  21   2.0000      -6.031807      -164.1338
  22   2.0000      -6.028517      -164.0443
  23   2.0000      -6.028349      -164.0397
  24   2.0000      -1.014238       -27.5988
  25   2.0000      -0.987264       -26.8648
  26   2.0000      -0.912837       -24.8396
  27   2.0000      -0.909502       -24.7488
  28   2.0000      -0.872300       -23.7365
  29   2.0000      -0.854642       -23.2560
  30   2.0000      -0.842946       -22.9377
  31   2.0000      -0.813063       -22.1246
  32   2.0000      -0.788214       -21.4484
  33   2.0000      -0.778843       -21.1934
  34   2.0000      -0.708278       -19.2732
  35   2.0000      -0.699602       -19.0371
  36   2.0000      -0.696347       -18.9486
  37   2.0000      -0.663656       -18.0590
  38   2.0000      -0.642593       -17.4858
  39   2.0000      -0.622951       -16.9514
  40   2.0000      -0.600125       -16.3302
  41   2.0000      -0.571912       -15.5625
  42   2.0000      -0.563195       -15.3253
  43   2.0000      -0.552338       -15.0299
  44   2.0000      -0.541904       -14.7460
  45   2.0000      -0.528266       -14.3748
  46   2.0000      -0.520193       -14.1552
  47   2.0000      -0.514928       -14.0119
  48   2.0000      -0.503468       -13.7001
  49   2.0000      -0.502628       -13.6772
  50   2.0000      -0.494535       -13.4570
  51   2.0000      -0.484244       -13.1770
  52   2.0000      -0.469044       -12.7633
  53   2.0000      -0.463009       -12.5991
  54   2.0000      -0.459582       -12.5059
  55   2.0000      -0.449243       -12.2245
  56   2.0000      -0.443827       -12.0771
  57   2.0000      -0.436858       -11.8875
  58   2.0000      -0.432496       -11.7688
  59   2.0000      -0.428482       -11.6596
  60   2.0000      -0.422083       -11.4855
  61   2.0000      -0.412009       -11.2113
  62   2.0000      -0.409689       -11.1482
  63   2.0000      -0.350250        -9.5308
  64   2.0000      -0.332229        -9.0404
  65   2.0000      -0.329851        -8.9757
  66   2.0000      -0.291806        -7.9404
  67   0.0000       0.027291         0.7426
  68   0.0000       0.078272         2.1299
  69   0.0000       0.107911         2.9364
  70   0.0000       0.121376         3.3028
  71   0.0000       0.135696         3.6925

MULLIKEN ATOMIC CHARGES
-----------------------
   0 S :    0.094646
   1 C :   -0.134375
   2 C :   -0.062916
   3 C :    0.007319
   4 C :   -0.130888
   5 H :    0.019774
   6 C :    0.064359
   7 H :    0.016029
   8 H :    0.017473
   9 C :   -0.098354
  10 H :    0.034929
  11 H :    0.030135
  12 C :    0.035545
  13 H :    0.025909
  14 H :    0.011214
  15 H :   -0.002945
  16 S :    0.092468
  17 C :   -0.089983
  18 C :   -0.053510
  19 C :   -0.039493
  20 C :   -0.124443
  21 H :    0.034257
  22 C :    0.107822
  23 H :   -0.009648
  24 H :    0.003079
  25 C :   -0.042467
  26 H :    0.024415
  27 H :    0.025368
  28 C :   -0.044615
  29 H :    0.023628
  30 H :    0.016520
  31 H :    0.034353
  32 H :    0.053183
  33 H :    0.061212
Sum of atomic charges:    0.0000000

LOEWDIN ATOMIC CHARGES
----------------------
   0 S :    0.422484
   1 C :   -0.186610
   2 C :   -0.065094
   3 C :   -0.067603
   4 C :   -0.203134
   5 H :    0.030687
   6 C :   -0.035018
   7 H :    0.028290
   8 H :    0.028230
   9 C :   -0.036526
  10 H :    0.029414
  11 H :    0.024951
  12 C :   -0.056856
  13 H :    0.022760
  14 H :    0.023190
  15 H :    0.016875
  16 S :    0.387461
  17 C :   -0.180560
  18 C :   -0.074027
  19 C :   -0.054160
  20 C :   -0.195377
  21 H :    0.036870
  22 C :   -0.019632
  23 H :    0.013942
  24 H :    0.027467
  25 C :   -0.020373
  26 H :    0.028147
  27 H :    0.015151
  28 C :   -0.063967
  29 H :    0.026148
  30 H :    0.016098
  31 H :    0.024607
  32 H :    0.026427
  33 H :    0.029738

  Mayer bond orders larger than 0.100000
B(  0-S ,  1-C ) :   1.1237 B(  0-S ,  4-C ) :   1.2005 B(  1-C ,  2-C ) :   1.5804
B(  1-C ,  4-C ) :   0.1025 B(  1-C , 32-H ) :   0.9824 B(  2-C ,  3-C ) :   1.2556
B(  2-C ,  6-C ) :   1.0270 B(  3-C ,  4-C ) :   1.5210 B(  3-C ,  5-H ) :   1.0009
B(  4-C , 20-C ) :   1.0264 B(  6-C ,  7-H ) :   0.9317 B(  6-C ,  8-H ) :   0.9467
B(  6-C ,  9-C ) :   1.0712 B(  9-C , 10-H ) :   0.9571 B(  9-C , 11-H ) :   0.9535
B(  9-C , 12-C ) :   1.0922 B( 12-C , 13-H ) :   0.9700 B( 12-C , 14-H ) :   0.9710
B( 12-C , 15-H ) :   0.9642 B( 16-S , 17-C ) :   1.1548 B( 16-S , 20-C ) :   1.1104
B( 17-C , 18-C ) :   1.6104 B( 17-C , 33-H ) :   0.9697 B( 18-C , 19-C ) :   1.2302
B( 18-C , 21-H ) :   0.9826 B( 19-C , 20-C ) :   1.6528 B( 19-C , 22-C ) :   1.0314
B( 22-C , 23-H ) :   0.9369 B( 22-C , 24-H ) :   0.9295 B( 22-C , 25-C ) :   1.0738
B( 25-C , 26-H ) :   0.9527 B( 25-C , 27-H ) :   0.9584 B( 25-C , 28-C ) :   1.0887
B( 28-C , 29-H ) :   0.9724 B( 28-C , 30-H ) :   0.9725 B( 28-C , 31-H ) :   0.9743

Dispersion correction           -0.014557212
FINAL SINGLE POINT ENERGY     -1339.871493431576

DIPOLE MOMENT
-------------
                                X             Y             Z
Electronic contribution:    -11.84082     -20.77365      -8.94863
Nuclear contribution   :     12.05671      21.28063       9.32405
                        -----------------------------------------
Total Dipole Moment    :      0.21589       0.50697       0.37542
                        -----------------------------------------
Magnitude (a.u.)       :      0.66676
Magnitude (Debye)      :      1.69477

Rotational constants in cm-1:     0.018026     0.009265     0.007319
Rotational constants in MHz :   540.391844   277.748561   219.431592

                             ****ORCA TERMINATED NORMALLY****
TOTAL RUN TIME: 0 days 0 hours 0 minutes 32 seconds 925 msec
