                         Program Version 4.2.1 -  RELEASE  -
|  1> ! wB97X-D3 SP def2-SVP
|  2> %pal
|  3> nprocs 16
|  4> end
|  5>
|  6> * xyz 0 1
|  7> S 	 -112.532 	 53.9938 	 113.975
|  8> C 	 -111.731 	 54.6477 	 112.576
|  9> C 	 -111.6 	 56.0132 	 112.694
| 10> C 	 -111.993 	 56.5055 	 113.989
| 11> C 	 -112.502 	 55.5389 	 114.845
| 12> H 	 -111.992 	 57.5646 	 114.269
| 13> C 	 -110.922 	 56.9443 	 111.68
| 14> H 	 -109.999 	 56.3957 	 111.381
| 15> H 	 -110.462 	 57.7979 	 112.223
| 16> C 	 -111.636 	 57.5697 	 110.533
| 17> H 	 -110.898 	 57.8035 	 109.794
| 18> H 	 -112.245 	 56.868 	 110.046
| 19> C 	 -112.291 	 58.9575 	 110.865
| 20> H 	 -111.452 	 59.6531 	 110.698
| 21> H 	 -113.055 	 59.1719 	 110.205
| 22> H 	 -112.592 	 59.0797 	 111.935
| 23> S 	 -114.47 	 56.7085 	 116.576
| 24> C 	 -114.415 	 56.3516 	 118.303
| 25> C 	 -113.433 	 55.4125 	 118.502
| 26> C 	 -112.673 	 55.0567 	 117.375
| 27> C 	 -112.973 	 55.7738 	 116.22
| 28> H 	 -113.354 	 55.1675 	 119.556
| 29> C 	 -111.659 	 53.9303 	 117.538
| 30> H 	 -110.859 	 54.0309 	 116.765
| 31> H 	 -112.161 	 52.9842 	 117.359
| 32> C 	 -110.895 	 53.8213 	 118.887
| 33> H 	 -111.626 	 53.6533 	 119.717
| 34> H 	 -110.49 	 54.8245 	 119.003
| 35> C 	 -109.731 	 52.8507 	 118.851
| 36> H 	 -109.088 	 52.8169 	 119.713
| 37> H 	 -109.13 	 53.0249 	 117.875
| 38> H 	 -110.113 	 51.8077 	 118.956
| 39> H 	 -111.514 	 54.1656 	 111.637
| 40> H 	 -115.017 	 56.8218 	 119.016
| 41> *
| 42>
| 43>                          ****END OF INPUT****

CARTESIAN COORDINATES (ANGSTROEM)
---------------------------------
  S    -112.532000   53.993800  113.975000
  C    -111.731000   54.647700  112.576000
  C    -111.600000   56.013200  112.694000
  C    -111.993000   56.505500  113.989000
  C    -112.502000   55.538900  114.845000
  H    -111.992000   57.564600  114.269000
  C    -110.922000   56.944300  111.680000
  H    -109.999000   56.395700  111.381000
  H    -110.462000   57.797900  112.223000
  C    -111.636000   57.569700  110.533000
  H    -110.898000   57.803500  109.794000
  H    -112.245000   56.868000  110.046000
  C    -112.291000   58.957500  110.865000
  H    -111.452000   59.653100  110.698000
  H    -113.055000   59.171900  110.205000
  H    -112.592000   59.079700  111.935000
  S    -114.470000   56.708500  116.576000
  C    -114.415000   56.351600  118.303000
  C    -113.433000   55.412500  118.502000
  C    -112.673000   55.056700  117.375000
  C    -112.973000   55.773800  116.220000
  H    -113.354000   55.167500  119.556000
  C    -111.659000   53.930300  117.538000
  H    -110.859000   54.030900  116.765000
  H    -112.161000   52.984200  117.359000
  C    -110.895000   53.821300  118.887000
  H    -111.626000   53.653300  119.717000
  H    -110.490000   54.824500  119.003000
  C    -109.731000   52.850700  118.851000
  H    -109.088000   52.816900  119.713000
  H    -109.130000   53.024900  117.875000
  H    -110.113000   51.807700  118.956000
  H    -111.514000   54.165600  111.637000
  H    -115.017000   56.821800  119.016000

 Total Charge           Charge          ....    0
 Multiplicity           Mult            ....    1
 Number of Electrons    NEL             ....  134
 Basis Dimension        Dim             ....  322

ORBITAL ENERGIES
----------------

  NO   OCC          E(Eh)            E(eV)
   0   2.0000     -88.968519     -2420.9565
   1   2.0000     -88.962356     -2420.7888
   2   2.0000     -10.332987      -281.1749
   3   2.0000     -10.332702      -281.1671
   4   2.0000     -10.317218      -280.7458
   5   2.0000     -10.315193      -280.6907
   6   2.0000     -10.305806      -280.4352
   7   2.0000     -10.300827      -280.2998
   8   2.0000     -10.295813      -280.1633
   9   2.0000     -10.292217      -280.0655
  10   2.0000     -10.291223      -280.0384
  11   2.0000     -10.290498      -280.0187
  12   2.0000     -10.287895      -279.9479
  13   2.0000     -10.285517      -279.8831
  14   2.0000     -10.278942      -279.7042
  15   2.0000     -10.278152      -279.6827
  16   2.0000      -8.082538      -219.9370
  17   2.0000      -8.076241      -219.7657
  18   2.0000      -6.041160      -164.3883
  19   2.0000      -6.037076      -164.2772
  20   2.0000      -6.034843      -164.2164
  21   2.0000      -6.033255      -164.1732
  22   2.0000      -6.030838      -164.1074
  23   2.0000      -6.026960      -164.0019
  24   2.0000      -1.001748       -27.2589
  25   2.0000      -0.983427       -26.7604
  26   2.0000      -0.911710       -24.8089
  27   2.0000      -0.905043       -24.6275
  28   2.0000      -0.871218       -23.7070
  29   2.0000      -0.847117       -23.0512
  30   2.0000      -0.843777       -22.9603
  31   2.0000      -0.815730       -22.1971
  32   2.0000      -0.781128       -21.2556
  33   2.0000      -0.771574       -20.9956
  34   2.0000      -0.707062       -19.2401
  35   2.0000      -0.705064       -19.1858
  36   2.0000      -0.696200       -18.9446
  37   2.0000      -0.653351       -17.7786
  38   2.0000      -0.636454       -17.3188
  39   2.0000      -0.613925       -16.7058
  40   2.0000      -0.598682       -16.2910
  41   2.0000      -0.579239       -15.7619
  42   2.0000      -0.568443       -15.4681
  43   2.0000      -0.552725       -15.0404
  44   2.0000      -0.543073       -14.7778
  45   2.0000      -0.528055       -14.3691
  46   2.0000      -0.513798       -13.9812
  47   2.0000      -0.507939       -13.8217
  48   2.0000      -0.505442       -13.7538
  49   2.0000      -0.499055       -13.5800
  50   2.0000      -0.481085       -13.0910
  51   2.0000      -0.476291       -12.9605
  52   2.0000      -0.475031       -12.9263
  53   2.0000      -0.467897       -12.7321
  54   2.0000      -0.459660       -12.5080
  55   2.0000      -0.448742       -12.2109
  56   2.0000      -0.443192       -12.0599
  57   2.0000      -0.436145       -11.8681
  58   2.0000      -0.424357       -11.5473
  59   2.0000      -0.416308       -11.3283
  60   2.0000      -0.414882       -11.2895
  61   2.0000      -0.409872       -11.1532
  62   2.0000      -0.408408       -11.1133
  63   2.0000      -0.342019        -9.3068
  64   2.0000      -0.331762        -9.0277
  65   2.0000      -0.325658        -8.8616
  66   2.0000      -0.302567        -8.2333
  67   0.0000       0.026825         0.7299
  68   0.0000       0.062898         1.7116
  69   0.0000       0.109562         2.9813
  70   0.0000       0.121434         3.3044
  71   0.0000       0.130260         3.5445

MULLIKEN ATOMIC CHARGES
-----------------------
   0 S :    0.123525
   1 C :   -0.111614
   2 C :   -0.073210
   3 C :    0.019059
   4 C :   -0.161898
   5 H :    0.022063
   6 C :   -0.001769
   7 H :    0.033147
   8 H :    0.014836
   9 C :   -0.009198
  10 H :    0.017644
  11 H :    0.009178
  12 C :   -0.049107
  13 H :    0.031457
  14 H :    0.027558
  15 H :    0.044786
  16 S :    0.084768
  17 C :   -0.083890
  18 C :   -0.042460
  19 C :   -0.022312
  20 C :   -0.132064
  21 H :    0.023893
  22 C :    0.049169
  23 H :    0.028843
  24 H :    0.040647
  25 C :   -0.104905
  26 H :    0.040298
  27 H :    0.030065
  28 C :   -0.048433
  29 H :    0.029390
  30 H :    0.051901
  31 H :    0.027776
  32 H :    0.047342
  33 H :    0.043517
Sum of atomic charges:    0.0000000

LOEWDIN ATOMIC CHARGES
----------------------
   0 S :    0.408597
   1 C :   -0.196935
   2 C :   -0.067867
   3 C :   -0.056970
   4 C :   -0.194208
   5 H :    0.033914
   6 C :   -0.041358
   7 H :    0.036491
   8 H :    0.032182
   9 C :   -0.038779
  10 H :    0.026446
  11 H :    0.013452
  12 C :   -0.057007
  13 H :    0.029462
  14 H :    0.015883
  15 H :    0.029392
  16 S :    0.378794
  17 C :   -0.160735
  18 C :   -0.079080
  19 C :   -0.054549
  20 C :   -0.189113
  21 H :    0.034515
  22 C :   -0.034370
  23 H :    0.030466
  24 H :    0.031242
  25 C :   -0.049058
  26 H :    0.024141
  27 H :    0.023804
  28 C :   -0.074915
  29 H :    0.024415
  30 H :    0.039789
  31 H :    0.029215
  32 H :    0.031838
  33 H :    0.020905

  Mayer bond orders larger than 0.100000
B(  0-S ,  1-C ) :   1.1454 B(  0-S ,  4-C ) :   1.1310 B(  1-C ,  2-C ) :   1.6133
B(  1-C , 32-H ) :   0.9662 B(  2-C ,  3-C ) :   1.2523 B(  2-C ,  6-C ) :   1.0123
B(  3-C ,  4-C ) :   1.5659 B(  3-C ,  5-H ) :   0.9919 B(  4-C , 20-C ) :   1.0583
B(  6-C ,  7-H ) :   0.9446 B(  6-C ,  8-H ) :   0.9444 B(  6-C ,  9-C ) :   1.0731
B(  9-C , 10-H ) :   0.9536 B(  9-C , 11-H ) :   0.9573 B(  9-C , 12-C ) :   1.0594
B( 12-C , 13-H ) :   0.9782 B( 12-C , 14-H ) :   0.9767 B( 12-C , 15-H ) :   0.9834
B( 16-S , 17-C ) :   1.1623 B( 16-S , 20-C ) :   1.1235 B( 17-C , 18-C ) :   1.5958
B( 17-C , 20-C ) :   0.1050 B( 17-C , 33-H ) :   0.9740 B( 18-C , 19-C ) :   1.2373
B( 18-C , 21-H ) :   0.9924 B( 19-C , 20-C ) :   1.5759 B( 19-C , 22-C ) :   1.0369
B( 22-C , 23-H ) :   0.9362 B( 22-C , 24-H ) :   0.9302 B( 22-C , 25-C ) :   1.0611
B( 25-C , 26-H ) :   0.9457 B( 25-C , 27-H ) :   0.9609 B( 25-C , 28-C ) :   1.0887
B( 28-C , 29-H ) :   0.9717 B( 28-C , 30-H ) :   0.9690 B( 28-C , 31-H ) :   0.9710

Dispersion correction           -0.013592166
FINAL SINGLE POINT ENERGY     -1339.864018031936

DIPOLE MOMENT
-------------
                                X             Y             Z
Electronic contribution:    -15.24182      -2.69407       3.39374
Nuclear contribution   :     15.58486       2.76559      -3.38127
                        -----------------------------------------
Total Dipole Moment    :      0.34305       0.07152       0.01247
                        -----------------------------------------
Magnitude (a.u.)       :      0.35064
Magnitude (Debye)      :      0.89126

Rotational constants in cm-1:     0.020568     0.007343     0.006057
Rotational constants in MHz :   616.623466   220.149209   181.594430

                             ****ORCA TERMINATED NORMALLY****
TOTAL RUN TIME: 0 days 0 hours 0 minutes 33 seconds 484 msec
