                         Program Version 4.2.1 -  RELEASE  -
|  1> ! wB97X-D3 SP def2-SVP
|  2> %pal
|  3> nprocs 16
|  4> end
|  5>
|  6> * xyz 0 1
|  7> S 	 -109.602 	 45.0693 	 123.555
|  8> C 	 -108.619 	 45.9537 	 124.799
|  9> C 	 -107.253 	 45.6715 	 124.795
| 10> C 	 -106.956 	 44.7726 	 123.74
| 11> C 	 -108.054 	 44.4083 	 122.948
| 12> H 	 -105.978 	 44.2186 	 123.576
| 13> C 	 -106.237 	 46.3069 	 125.7
| 14> H 	 -106.794 	 46.7813 	 126.571
| 15> H 	 -105.708 	 47.1658 	 125.306
| 16> C 	 -105.179 	 45.3804 	 126.294
| 17> H 	 -105.805 	 44.6248 	 126.818
| 18> H 	 -104.502 	 45.0934 	 125.429
| 19> C 	 -104.224 	 46.0325 	 127.384
| 20> H 	 -104.947 	 46.7375 	 127.874
| 21> H 	 -103.772 	 45.3952 	 128.197
| 22> H 	 -103.403 	 46.6619 	 126.988
| 23> S 	 -107.528 	 41.7631 	 122.062
| 24> C 	 -107.515 	 41.452 	 120.337
| 25> C 	 -107.756 	 42.5998 	 119.59
| 26> C 	 -107.925 	 43.7556 	 120.411
| 27> C 	 -107.99 	 43.4806 	 121.8
| 28> H 	 -107.858 	 42.5319 	 118.549
| 29> C 	 -108.105 	 45.2108 	 119.923
| 30> H 	 -107.657 	 45.2059 	 118.873
| 31> H 	 -107.445 	 45.9226 	 120.494
| 32> C 	 -109.515 	 45.7338 	 119.869
| 33> H 	 -109.986 	 45.902 	 120.861
| 34> H 	 -110.14 	 44.9784 	 119.406
| 35> C 	 -109.652 	 47.0389 	 119.029
| 36> H 	 -109.592 	 46.7572 	 117.97
| 37> H 	 -108.769 	 47.6941 	 119.252
| 38> H 	 -110.506 	 47.6697 	 119.309
| 39> H 	 -109.066 	 46.5431 	 125.563
| 40> H 	 -107.288 	 40.5765 	 119.78
| 41> *
| 42>
| 43>                          ****END OF INPUT****

CARTESIAN COORDINATES (ANGSTROEM)
---------------------------------
  S    -109.602000   45.069300  123.555000
  C    -108.619000   45.953700  124.799000
  C    -107.253000   45.671500  124.795000
  C    -106.956000   44.772600  123.740000
  C    -108.054000   44.408300  122.948000
  H    -105.978000   44.218600  123.576000
  C    -106.237000   46.306900  125.700000
  H    -106.794000   46.781300  126.571000
  H    -105.708000   47.165800  125.306000
  C    -105.179000   45.380400  126.294000
  H    -105.805000   44.624800  126.818000
  H    -104.502000   45.093400  125.429000
  C    -104.224000   46.032500  127.384000
  H    -104.947000   46.737500  127.874000
  H    -103.772000   45.395200  128.197000
  H    -103.403000   46.661900  126.988000
  S    -107.528000   41.763100  122.062000
  C    -107.515000   41.452000  120.337000
  C    -107.756000   42.599800  119.590000
  C    -107.925000   43.755600  120.411000
  C    -107.990000   43.480600  121.800000
  H    -107.858000   42.531900  118.549000
  C    -108.105000   45.210800  119.923000
  H    -107.657000   45.205900  118.873000
  H    -107.445000   45.922600  120.494000
  C    -109.515000   45.733800  119.869000
  H    -109.986000   45.902000  120.861000
  H    -110.140000   44.978400  119.406000
  C    -109.652000   47.038900  119.029000
  H    -109.592000   46.757200  117.970000
  H    -108.769000   47.694100  119.252000
  H    -110.506000   47.669700  119.309000
  H    -109.066000   46.543100  125.563000
  H    -107.288000   40.576500  119.780000

 Total Charge           Charge          ....    0
 Multiplicity           Mult            ....    1
 Number of Electrons    NEL             ....  134
 Basis Dimension        Dim             ....  322

ORBITAL ENERGIES
----------------

  NO   OCC          E(Eh)            E(eV)
   0   2.0000     -88.975519     -2421.1470
   1   2.0000     -88.968404     -2420.9534
   2   2.0000     -10.336740      -281.2770
   3   2.0000     -10.329386      -281.0769
   4   2.0000     -10.322176      -280.8807
   5   2.0000     -10.317508      -280.7537
   6   2.0000     -10.308392      -280.5056
   7   2.0000     -10.307731      -280.4876
   8   2.0000     -10.304049      -280.3874
   9   2.0000     -10.300990      -280.3042
  10   2.0000     -10.299414      -280.2613
  11   2.0000     -10.296697      -280.1874
  12   2.0000     -10.292813      -280.0817
  13   2.0000     -10.292367      -280.0695
  14   2.0000     -10.280389      -279.7436
  15   2.0000     -10.279495      -279.7193
  16   2.0000      -8.087886      -220.0826
  17   2.0000      -8.081842      -219.9181
  18   2.0000      -6.046352      -164.5296
  19   2.0000      -6.042921      -164.4362
  20   2.0000      -6.040421      -164.3682
  21   2.0000      -6.038610      -164.3189
  22   2.0000      -6.036455      -164.2603
  23   2.0000      -6.032674      -164.1574
  24   2.0000      -0.995695       -27.0942
  25   2.0000      -0.976126       -26.5617
  26   2.0000      -0.911741       -24.8097
  27   2.0000      -0.901494       -24.5309
  28   2.0000      -0.864011       -23.5109
  29   2.0000      -0.846117       -23.0240
  30   2.0000      -0.842332       -22.9210
  31   2.0000      -0.810719       -22.0608
  32   2.0000      -0.780330       -21.2338
  33   2.0000      -0.764865       -20.8130
  34   2.0000      -0.708598       -19.2819
  35   2.0000      -0.689108       -18.7516
  36   2.0000      -0.687250       -18.7010
  37   2.0000      -0.661448       -17.9989
  38   2.0000      -0.636029       -17.3072
  39   2.0000      -0.618152       -16.8208
  40   2.0000      -0.589954       -16.0535
  41   2.0000      -0.579083       -15.7577
  42   2.0000      -0.566363       -15.4115
  43   2.0000      -0.559467       -15.2239
  44   2.0000      -0.518569       -14.1110
  45   2.0000      -0.516290       -14.0490
  46   2.0000      -0.508694       -13.8423
  47   2.0000      -0.505344       -13.7511
  48   2.0000      -0.500846       -13.6287
  49   2.0000      -0.498589       -13.5673
  50   2.0000      -0.485991       -13.2245
  51   2.0000      -0.474595       -12.9144
  52   2.0000      -0.470508       -12.8032
  53   2.0000      -0.458916       -12.4877
  54   2.0000      -0.457374       -12.4458
  55   2.0000      -0.453673       -12.3451
  56   2.0000      -0.442785       -12.0488
  57   2.0000      -0.438258       -11.9256
  58   2.0000      -0.432839       -11.7781
  59   2.0000      -0.428584       -11.6624
  60   2.0000      -0.416806       -11.3419
  61   2.0000      -0.407152       -11.0792
  62   2.0000      -0.403305       -10.9745
  63   2.0000      -0.338809        -9.2195
  64   2.0000      -0.331700        -9.0260
  65   2.0000      -0.325391        -8.8543
  66   2.0000      -0.302148        -8.2219
  67   0.0000       0.031248         0.8503
  68   0.0000       0.048935         1.3316
  69   0.0000       0.098246         2.6734
  70   0.0000       0.108450         2.9511
  71   0.0000       0.129232         3.5166

MULLIKEN ATOMIC CHARGES
-----------------------
   0 S :    0.115380
   1 C :   -0.115215
   2 C :   -0.043051
   3 C :    0.010013
   4 C :   -0.174492
   5 H :    0.049212
   6 C :    0.042431
   7 H :    0.016750
   8 H :    0.041006
   9 C :   -0.122254
  10 H :    0.051068
  11 H :    0.055952
  12 C :   -0.085621
  13 H :    0.023035
  14 H :    0.058373
  15 H :    0.041495
  16 S :    0.110618
  17 C :   -0.073037
  18 C :   -0.025232
  19 C :   -0.025397
  20 C :   -0.166327
  21 H :    0.003616
  22 C :    0.031812
  23 H :    0.022630
  24 H :    0.045167
  25 C :   -0.061975
  26 H :    0.031320
  27 H :    0.022204
  28 C :   -0.068498
  29 H :    0.039907
  30 H :    0.027640
  31 H :    0.042536
  32 H :    0.034981
  33 H :    0.043956
Sum of atomic charges:   -0.0000000

LOEWDIN ATOMIC CHARGES
----------------------
   0 S :    0.385313
   1 C :   -0.164860
   2 C :   -0.064041
   3 C :   -0.058836
   4 C :   -0.186238
   5 H :    0.045435
   6 C :   -0.041394
   7 H :    0.031988
   8 H :    0.030726
   9 C :   -0.047912
  10 H :    0.034152
  11 H :    0.032024
  12 C :   -0.081963
  13 H :    0.026462
  14 H :    0.036058
  15 H :    0.026467
  16 S :    0.393332
  17 C :   -0.179534
  18 C :   -0.069745
  19 C :   -0.046688
  20 C :   -0.198941
  21 H :    0.024506
  22 C :   -0.040205
  23 H :    0.033345
  24 H :    0.036606
  25 C :   -0.050600
  26 H :    0.016132
  27 H :    0.021286
  28 C :   -0.070372
  29 H :    0.025861
  30 H :    0.026880
  31 H :    0.028820
  32 H :    0.018172
  33 H :    0.027765

  Mayer bond orders larger than 0.100000
B(  0-S ,  1-C ) :   1.1352 B(  0-S ,  4-C ) :   1.1330 B(  1-C ,  2-C ) :   1.6265
B(  1-C , 32-H ) :   0.9656 B(  2-C ,  3-C ) :   1.2231 B(  2-C ,  6-C ) :   1.0272
B(  3-C ,  4-C ) :   1.6110 B(  3-C ,  5-H ) :   0.9750 B(  4-C , 20-C ) :   1.0255
B(  6-C ,  7-H ) :   0.9316 B(  6-C ,  8-H ) :   0.9387 B(  6-C ,  9-C ) :   1.0590
B(  9-C , 10-H ) :   0.9619 B(  9-C , 11-H ) :   0.9512 B(  9-C , 12-C ) :   1.0627
B( 12-C , 13-H ) :   0.9746 B( 12-C , 14-H ) :   0.9783 B( 12-C , 15-H ) :   0.9762
B( 16-S , 17-C ) :   1.1632 B( 16-S , 20-C ) :   1.1228 B( 17-C , 18-C ) :   1.6062
B( 17-C , 33-H ) :   0.9647 B( 18-C , 19-C ) :   1.2576 B( 18-C , 21-H ) :   0.9952
B( 19-C , 20-C ) :   1.5794 B( 19-C , 22-C ) :   1.0376 B( 22-C , 23-H ) :   0.9391
B( 22-C , 24-H ) :   0.9245 B( 22-C , 25-C ) :   1.0699 B( 25-C , 26-H ) :   0.9461
B( 25-C , 27-H ) :   0.9564 B( 25-C , 28-C ) :   1.0742 B( 28-C , 29-H ) :   0.9780
B( 28-C , 30-H ) :   0.9751 B( 28-C , 31-H ) :   0.9753

Dispersion correction           -0.014114197
FINAL SINGLE POINT ENERGY     -1339.864285549491

DIPOLE MOMENT
-------------
                                X             Y             Z
Electronic contribution:     -9.31477     -17.48338      -2.39004
Nuclear contribution   :      9.66937      17.79914       2.40835
                        -----------------------------------------
Total Dipole Moment    :      0.35460       0.31577       0.01831
                        -----------------------------------------
Magnitude (a.u.)       :      0.47517
Magnitude (Debye)      :      1.20779

Rotational constants in cm-1:     0.018226     0.007982     0.006510
Rotational constants in MHz :   546.391256   239.302714   195.161673

                             ****ORCA TERMINATED NORMALLY****
TOTAL RUN TIME: 0 days 0 hours 0 minutes 33 seconds 373 msec
