                         Program Version 4.2.1 -  RELEASE  -
|  1> ! wB97X-D3 SP def2-SVP
|  2> %pal
|  3> nprocs 16
|  4> end
|  5>
|  6> * xyz 0 1
|  7> S 	 69.5095 	 21.8865 	 75.2614
|  8> C 	 67.9109 	 21.263 	 75.7514
|  9> C 	 66.8886 	 21.7626 	 75.0071
| 10> C 	 67.3566 	 22.8158 	 74.1591
| 11> C 	 68.71 	 23.0765 	 74.1734
| 12> H 	 66.7563 	 23.4508 	 73.51
| 13> C 	 65.3934 	 21.4167 	 75.0316
| 14> H 	 65.0609 	 21.3884 	 73.9949
| 15> H 	 64.9177 	 22.0943 	 75.651
| 16> C 	 64.9842 	 19.9825 	 75.3583
| 17> H 	 65.4233 	 19.3543 	 74.5987
| 18> H 	 65.3876 	 19.7876 	 76.2967
| 19> C 	 63.4884 	 19.6397 	 75.3233
| 20> H 	 63.3151 	 18.8155 	 75.9289
| 21> H 	 62.8224 	 20.4518 	 75.7051
| 22> H 	 63.1837 	 19.3299 	 74.2611
| 23> S 	 68.7022 	 25.7557 	 73.4077
| 24> C 	 69.918 	 26.3697 	 72.3587
| 25> C 	 70.9969 	 25.5083 	 72.2814
| 26> C 	 70.7257 	 24.2354 	 72.8953
| 27> C 	 69.4471 	 24.1898 	 73.4441
| 28> H 	 71.8455 	 25.7683 	 71.7205
| 29> C 	 71.6481 	 23.0981 	 72.7296
| 30> H 	 71.6131 	 22.511 	 73.6846
| 31> H 	 72.7102 	 23.421 	 72.604
| 32> C 	 71.4721 	 22.2548 	 71.5036
| 33> H 	 70.5227 	 21.7969 	 71.5044
| 34> H 	 72.1853 	 21.4033 	 71.4881
| 35> C 	 71.7691 	 22.9827 	 70.2287
| 36> H 	 72.8484 	 23.0897 	 70.233
| 37> H 	 71.1993 	 23.9137 	 70.1043
| 38> H 	 71.5737 	 22.3149 	 69.4101
| 39> H 	 67.7872 	 20.5087 	 76.5064
| 40> H 	 69.8343 	 27.2055 	 71.7475
| 41> *
| 42>
| 43>                          ****END OF INPUT****

CARTESIAN COORDINATES (ANGSTROEM)
---------------------------------
  S     69.509500   21.886500   75.261400
  C     67.910900   21.263000   75.751400
  C     66.888600   21.762600   75.007100
  C     67.356600   22.815800   74.159100
  C     68.710000   23.076500   74.173400
  H     66.756300   23.450800   73.510000
  C     65.393400   21.416700   75.031600
  H     65.060900   21.388400   73.994900
  H     64.917700   22.094300   75.651000
  C     64.984200   19.982500   75.358300
  H     65.423300   19.354300   74.598700
  H     65.387600   19.787600   76.296700
  C     63.488400   19.639700   75.323300
  H     63.315100   18.815500   75.928900
  H     62.822400   20.451800   75.705100
  H     63.183700   19.329900   74.261100
  S     68.702200   25.755700   73.407700
  C     69.918000   26.369700   72.358700
  C     70.996900   25.508300   72.281400
  C     70.725700   24.235400   72.895300
  C     69.447100   24.189800   73.444100
  H     71.845500   25.768300   71.720500
  C     71.648100   23.098100   72.729600
  H     71.613100   22.511000   73.684600
  H     72.710200   23.421000   72.604000
  C     71.472100   22.254800   71.503600
  H     70.522700   21.796900   71.504400
  H     72.185300   21.403300   71.488100
  C     71.769100   22.982700   70.228700
  H     72.848400   23.089700   70.233000
  H     71.199300   23.913700   70.104300
  H     71.573700   22.314900   69.410100
  H     67.787200   20.508700   76.506400
  H     69.834300   27.205500   71.747500

 Total Charge           Charge          ....    0
 Multiplicity           Mult            ....    1
 Number of Electrons    NEL             ....  134
 Basis Dimension        Dim             ....  322

ORBITAL ENERGIES
----------------

  NO   OCC          E(Eh)            E(eV)
   0   2.0000     -88.966916     -2420.9129
   1   2.0000     -88.965872     -2420.8845
   2   2.0000     -10.337763      -281.3048
   3   2.0000     -10.331383      -281.1312
   4   2.0000     -10.316467      -280.7253
   5   2.0000     -10.310096      -280.5520
   6   2.0000     -10.302961      -280.3578
   7   2.0000     -10.300929      -280.3025
   8   2.0000     -10.294799      -280.1357
   9   2.0000     -10.291063      -280.0341
  10   2.0000     -10.288325      -279.9596
  11   2.0000     -10.288237      -279.9572
  12   2.0000     -10.284103      -279.8447
  13   2.0000     -10.280149      -279.7371
  14   2.0000     -10.274589      -279.5858
  15   2.0000     -10.270071      -279.4628
  16   2.0000      -8.082293      -219.9304
  17   2.0000      -8.079078      -219.8429
  18   2.0000      -6.040803      -164.3786
  19   2.0000      -6.037841      -164.2980
  20   2.0000      -6.036689      -164.2667
  21   2.0000      -6.033925      -164.1915
  22   2.0000      -6.033038      -164.1673
  23   2.0000      -6.029558      -164.0726
  24   2.0000      -1.005445       -27.3596
  25   2.0000      -0.983922       -26.7739
  26   2.0000      -0.919952       -25.0332
  27   2.0000      -0.914377       -24.8815
  28   2.0000      -0.866443       -23.5771
  29   2.0000      -0.854136       -23.2422
  30   2.0000      -0.845715       -23.0131
  31   2.0000      -0.816007       -22.2047
  32   2.0000      -0.786108       -21.3911
  33   2.0000      -0.776414       -21.1273
  34   2.0000      -0.708555       -19.2808
  35   2.0000      -0.699515       -19.0348
  36   2.0000      -0.684473       -18.6255
  37   2.0000      -0.668821       -18.1996
  38   2.0000      -0.636916       -17.3314
  39   2.0000      -0.612994       -16.6804
  40   2.0000      -0.597239       -16.2517
  41   2.0000      -0.590198       -16.0601
  42   2.0000      -0.570374       -15.5207
  43   2.0000      -0.559913       -15.2360
  44   2.0000      -0.555262       -15.1095
  45   2.0000      -0.521430       -14.1888
  46   2.0000      -0.516342       -14.0504
  47   2.0000      -0.513803       -13.9813
  48   2.0000      -0.507129       -13.7997
  49   2.0000      -0.497307       -13.5324
  50   2.0000      -0.488056       -13.2807
  51   2.0000      -0.482506       -13.1297
  52   2.0000      -0.474624       -12.9152
  53   2.0000      -0.468005       -12.7351
  54   2.0000      -0.458961       -12.4890
  55   2.0000      -0.448583       -12.2066
  56   2.0000      -0.443011       -12.0549
  57   2.0000      -0.439318       -11.9544
  58   2.0000      -0.431776       -11.7492
  59   2.0000      -0.426224       -11.5981
  60   2.0000      -0.414823       -11.2879
  61   2.0000      -0.411997       -11.2110
  62   2.0000      -0.406327       -11.0567
  63   2.0000      -0.349734        -9.5167
  64   2.0000      -0.332428        -9.0458
  65   2.0000      -0.331107        -9.0099
  66   2.0000      -0.291138        -7.9223
  67   0.0000       0.024812         0.6752
  68   0.0000       0.079018         2.1502
  69   0.0000       0.102797         2.7972
  70   0.0000       0.108446         2.9510
  71   0.0000       0.130763         3.5582

MULLIKEN ATOMIC CHARGES
-----------------------
   0 S :    0.078409
   1 C :   -0.125355
   2 C :   -0.053447
   3 C :   -0.011982
   4 C :   -0.113123
   5 H :    0.011636
   6 C :    0.088170
   7 H :    0.031150
   8 H :    0.032134
   9 C :   -0.088775
  10 H :    0.031075
  11 H :    0.011614
  12 C :   -0.044618
  13 H :    0.022118
  14 H :    0.036653
  15 H :    0.042265
  16 S :    0.118205
  17 C :   -0.071836
  18 C :   -0.024606
  19 C :   -0.047344
  20 C :   -0.141914
  21 H :    0.004178
  22 C :    0.037496
  23 H :    0.035493
  24 H :    0.016128
  25 C :   -0.039028
  26 H :    0.015933
  27 H :    0.024329
  28 C :   -0.047002
  29 H :    0.017517
  30 H :    0.050592
  31 H :    0.025734
  32 H :    0.042559
  33 H :    0.035642
Sum of atomic charges:   -0.0000000

LOEWDIN ATOMIC CHARGES
----------------------
   0 S :    0.365992
   1 C :   -0.174226
   2 C :   -0.063516
   3 C :   -0.064508
   4 C :   -0.172992
   5 H :    0.028992
   6 C :   -0.021506
   7 H :    0.037049
   8 H :    0.022629
   9 C :   -0.038164
  10 H :    0.027393
  11 H :    0.007541
  12 C :   -0.063246
  13 H :    0.018892
  14 H :    0.029062
  15 H :    0.034517
  16 S :    0.429471
  17 C :   -0.186372
  18 C :   -0.057908
  19 C :   -0.062806
  20 C :   -0.196847
  21 H :    0.023268
  22 C :   -0.044681
  23 H :    0.026695
  24 H :    0.034247
  25 C :   -0.038158
  26 H :    0.014319
  27 H :    0.028966
  28 C :   -0.062278
  29 H :    0.023346
  30 H :    0.027167
  31 H :    0.025908
  32 H :    0.023921
  33 H :    0.017834

  Mayer bond orders larger than 0.100000
B(  0-S ,  1-C ) :   1.1202 B(  0-S ,  4-C ) :   1.1119 B(  1-C ,  2-C ) :   1.6502
B(  1-C , 32-H ) :   0.9679 B(  2-C ,  3-C ) :   1.2110 B(  2-C ,  6-C ) :   0.9986
B(  3-C ,  4-C ) :   1.6170 B(  3-C ,  5-H ) :   0.9929 B(  4-C , 20-C ) :   1.0301
B(  6-C ,  7-H ) :   0.9553 B(  6-C ,  8-H ) :   0.9371 B(  6-C ,  9-C ) :   1.0659
B(  9-C , 10-H ) :   0.9655 B(  9-C , 11-H ) :   0.9539 B(  9-C , 12-C ) :   1.0859
B( 12-C , 13-H ) :   0.9725 B( 12-C , 14-H ) :   0.9747 B( 12-C , 15-H ) :   0.9770
B( 16-S , 17-C ) :   1.1610 B( 16-S , 20-C ) :   1.1528 B( 17-C , 18-C ) :   1.5934
B( 17-C , 33-H ) :   0.9743 B( 18-C , 19-C ) :   1.2429 B( 18-C , 21-H ) :   0.9975
B( 19-C , 20-C ) :   1.5684 B( 19-C , 22-C ) :   1.0641 B( 22-C , 23-H ) :   0.9224
B( 22-C , 24-H ) :   0.9300 B( 22-C , 25-C ) :   1.0783 B( 25-C , 26-H ) :   0.9518
B( 25-C , 27-H ) :   0.9516 B( 25-C , 28-C ) :   1.0831 B( 28-C , 29-H ) :   0.9730
B( 28-C , 30-H ) :   0.9703 B( 28-C , 31-H ) :   0.9687

Dispersion correction           -0.013957378
FINAL SINGLE POINT ENERGY     -1339.864043690711

DIPOLE MOMENT
-------------
                                X             Y             Z
Electronic contribution:      7.26898      15.69299       7.89480
Nuclear contribution   :     -7.51868     -15.97846      -8.17585
                        -----------------------------------------
Total Dipole Moment    :     -0.24970      -0.28547      -0.28105
                        -----------------------------------------
Magnitude (a.u.)       :      0.47205
Magnitude (Debye)      :      1.19985

Rotational constants in cm-1:     0.023905     0.006819     0.006125
Rotational constants in MHz :   716.650232   204.428891   183.637618

                             ****ORCA TERMINATED NORMALLY****
TOTAL RUN TIME: 0 days 0 hours 0 minutes 30 seconds 185 msec
