                         Program Version 4.2.1 -  RELEASE  -
|  1> ! wB97X-D3 SP def2-SVP
|  2> %pal
|  3> nprocs 16
|  4> end
|  5>
|  6> * xyz 0 1
|  7> S 	 54.6934 	 12.909 	 51.6626
|  8> C 	 54.6053 	 13.6626 	 50.0817
|  9> C 	 53.4069 	 14.3073 	 49.9166
| 10> C 	 52.533 	 14.1366 	 51.0405
| 11> C 	 52.9983 	 13.3328 	 52.0097
| 12> H 	 51.6092 	 14.6198 	 51.1421
| 13> C 	 53.0803 	 15.1708 	 48.7468
| 14> H 	 52.0455 	 15.5166 	 48.8483
| 15> H 	 53.244 	 14.6212 	 47.7726
| 16> C 	 53.8981 	 16.3966 	 48.6726
| 17> H 	 54.9475 	 16.004 	 48.7867
| 18> H 	 53.8961 	 16.7227 	 47.6716
| 19> C 	 53.5392 	 17.4761 	 49.7046
| 20> H 	 52.4882 	 17.9098 	 49.5262
| 21> H 	 53.6405 	 17.1472 	 50.7559
| 22> H 	 54.2072 	 18.3112 	 49.6893
| 23> S 	 53.1716 	 13.0428 	 54.725
| 24> C 	 51.7483 	 12.4743 	 55.6176
| 25> C 	 50.7034 	 12.2377 	 54.7459
| 26> C 	 50.9695 	 12.6279 	 53.3741
| 27> C 	 52.3113 	 12.9193 	 53.2021
| 28> H 	 49.8278 	 11.7599 	 55.1158
| 29> C 	 49.8485 	 12.5112 	 52.378
| 30> H 	 49.3434 	 11.5628 	 52.4066
| 31> H 	 50.1919 	 12.6763 	 51.3451
| 32> C 	 48.6791 	 13.4689 	 52.6777
| 33> H 	 49.1971 	 14.4465 	 52.7632
| 34> H 	 48.235 	 13.3142 	 53.6613
| 35> C 	 47.4883 	 13.4678 	 51.7084
| 36> H 	 46.676 	 14.0428 	 52.0694
| 37> H 	 47.1318 	 12.4933 	 51.5126
| 38> H 	 47.6226 	 13.893 	 50.676
| 39> H 	 55.5573 	 13.7386 	 49.4558
| 40> H 	 51.7255 	 12.1607 	 56.6404
| 41> *
| 42>
| 43>                          ****END OF INPUT****

CARTESIAN COORDINATES (ANGSTROEM)
---------------------------------
  S     54.693400   12.909000   51.662600
  C     54.605300   13.662600   50.081700
  C     53.406900   14.307300   49.916600
  C     52.533000   14.136600   51.040500
  C     52.998300   13.332800   52.009700
  H     51.609200   14.619800   51.142100
  C     53.080300   15.170800   48.746800
  H     52.045500   15.516600   48.848300
  H     53.244000   14.621200   47.772600
  C     53.898100   16.396600   48.672600
  H     54.947500   16.004000   48.786700
  H     53.896100   16.722700   47.671600
  C     53.539200   17.476100   49.704600
  H     52.488200   17.909800   49.526200
  H     53.640500   17.147200   50.755900
  H     54.207200   18.311200   49.689300
  S     53.171600   13.042800   54.725000
  C     51.748300   12.474300   55.617600
  C     50.703400   12.237700   54.745900
  C     50.969500   12.627900   53.374100
  C     52.311300   12.919300   53.202100
  H     49.827800   11.759900   55.115800
  C     49.848500   12.511200   52.378000
  H     49.343400   11.562800   52.406600
  H     50.191900   12.676300   51.345100
  C     48.679100   13.468900   52.677700
  H     49.197100   14.446500   52.763200
  H     48.235000   13.314200   53.661300
  C     47.488300   13.467800   51.708400
  H     46.676000   14.042800   52.069400
  H     47.131800   12.493300   51.512600
  H     47.622600   13.893000   50.676000
  H     55.557300   13.738600   49.455800
  H     51.725500   12.160700   56.640400

 Total Charge           Charge          ....    0
 Multiplicity           Mult            ....    1
 Number of Electrons    NEL             ....  134
 Basis Dimension        Dim             ....  322

ORBITAL ENERGIES
----------------

  NO   OCC          E(Eh)            E(eV)
   0   2.0000     -88.965691     -2420.8795
   1   2.0000     -88.962219     -2420.7850
   2   2.0000     -10.328549      -281.0541
   3   2.0000     -10.325676      -280.9759
   4   2.0000     -10.318820      -280.7894
   5   2.0000     -10.318174      -280.7718
   6   2.0000     -10.307109      -280.4707
   7   2.0000     -10.298107      -280.2257
   8   2.0000     -10.294597      -280.1302
   9   2.0000     -10.291927      -280.0576
  10   2.0000     -10.290061      -280.0068
  11   2.0000     -10.288653      -279.9685
  12   2.0000     -10.287212      -279.9293
  13   2.0000     -10.283348      -279.8241
  14   2.0000     -10.281942      -279.7859
  15   2.0000     -10.277445      -279.6635
  16   2.0000      -8.080179      -219.8728
  17   2.0000      -8.076851      -219.7823
  18   2.0000      -6.038918      -164.3273
  19   2.0000      -6.035463      -164.2333
  20   2.0000      -6.034775      -164.2146
  21   2.0000      -6.031470      -164.1247
  22   2.0000      -6.030649      -164.1023
  23   2.0000      -6.027402      -164.0140
  24   2.0000      -1.008333       -27.4381
  25   2.0000      -0.984026       -26.7767
  26   2.0000      -0.921480       -25.0748
  27   2.0000      -0.910617       -24.7791
  28   2.0000      -0.872628       -23.7454
  29   2.0000      -0.852173       -23.1888
  30   2.0000      -0.842686       -22.9307
  31   2.0000      -0.816926       -22.2297
  32   2.0000      -0.786246       -21.3948
  33   2.0000      -0.775112       -21.0919
  34   2.0000      -0.706238       -19.2177
  35   2.0000      -0.704381       -19.1672
  36   2.0000      -0.695572       -18.9275
  37   2.0000      -0.665733       -18.1155
  38   2.0000      -0.639652       -17.4058
  39   2.0000      -0.617532       -16.8039
  40   2.0000      -0.599420       -16.3111
  41   2.0000      -0.577504       -15.7147
  42   2.0000      -0.567206       -15.4345
  43   2.0000      -0.558444       -15.1960
  44   2.0000      -0.539499       -14.6805
  45   2.0000      -0.525807       -14.3079
  46   2.0000      -0.517759       -14.0889
  47   2.0000      -0.512322       -13.9410
  48   2.0000      -0.507053       -13.7976
  49   2.0000      -0.496475       -13.5098
  50   2.0000      -0.489302       -13.3146
  51   2.0000      -0.479608       -13.0508
  52   2.0000      -0.476994       -12.9797
  53   2.0000      -0.465069       -12.6552
  54   2.0000      -0.458356       -12.4725
  55   2.0000      -0.451530       -12.2868
  56   2.0000      -0.440107       -11.9759
  57   2.0000      -0.436654       -11.8819
  58   2.0000      -0.430840       -11.7237
  59   2.0000      -0.426597       -11.6083
  60   2.0000      -0.425290       -11.5727
  61   2.0000      -0.414302       -11.2737
  62   2.0000      -0.410869       -11.1803
  63   2.0000      -0.355136        -9.6638
  64   2.0000      -0.330705        -8.9989
  65   2.0000      -0.327731        -8.9180
  66   2.0000      -0.291266        -7.9258
  67   0.0000       0.025112         0.6833
  68   0.0000       0.073876         2.0103
  69   0.0000       0.108056         2.9404
  70   0.0000       0.116234         3.1629
  71   0.0000       0.129570         3.5258

MULLIKEN ATOMIC CHARGES
-----------------------
   0 S :    0.093136
   1 C :   -0.163256
   2 C :   -0.077876
   3 C :    0.027809
   4 C :   -0.125948
   5 H :   -0.010096
   6 C :    0.061540
   7 H :    0.010329
   8 H :    0.045349
   9 C :   -0.044084
  10 H :    0.012786
  11 H :    0.013164
  12 C :   -0.065676
  13 H :    0.041274
  14 H :    0.046668
  15 H :    0.027116
  16 S :    0.097891
  17 C :   -0.082035
  18 C :   -0.031810
  19 C :   -0.031383
  20 C :   -0.126862
  21 H :    0.014319
  22 C :    0.086476
  23 H :    0.018960
  24 H :    0.028488
  25 C :   -0.118533
  26 H :    0.028323
  27 H :    0.030969
  28 C :   -0.015616
  29 H :    0.026904
  30 H :    0.014913
  31 H :    0.028135
  32 H :    0.084110
  33 H :    0.054514
Sum of atomic charges:   -0.0000000

LOEWDIN ATOMIC CHARGES
----------------------
   0 S :    0.381412
   1 C :   -0.200449
   2 C :   -0.066611
   3 C :   -0.057418
   4 C :   -0.178755
   5 H :    0.023650
   6 C :   -0.037437
   7 H :    0.026147
   8 H :    0.042773
   9 C :   -0.043482
  10 H :    0.025149
  11 H :    0.016982
  12 C :   -0.072129
  13 H :    0.033726
  14 H :    0.032812
  15 H :    0.022850
  16 S :    0.390064
  17 C :   -0.175988
  18 C :   -0.058547
  19 C :   -0.052111
  20 C :   -0.190277
  21 H :    0.026956
  22 C :   -0.031999
  23 H :    0.028267
  24 H :    0.030844
  25 C :   -0.042412
  26 H :    0.024032
  27 H :    0.023827
  28 C :   -0.066483
  29 H :    0.024660
  30 H :    0.018808
  31 H :    0.029809
  32 H :    0.043323
  33 H :    0.028008

  Mayer bond orders larger than 0.100000
B(  0-S ,  1-C ) :   1.1318 B(  0-S ,  4-C ) :   1.1295 B(  1-C ,  2-C ) :   1.6149
B(  1-C , 32-H ) :   0.9568 B(  2-C ,  3-C ) :   1.2281 B(  2-C ,  6-C ) :   1.0300
B(  3-C ,  4-C ) :   1.5899 B(  3-C ,  5-H ) :   1.0049 B(  4-C , 20-C ) :   1.0506
B(  6-C ,  7-H ) :   0.9365 B(  6-C ,  8-H ) :   0.9340 B(  6-C ,  9-C ) :   1.0844
B(  9-C , 10-H ) :   0.9503 B(  9-C , 11-H ) :   0.9523 B(  9-C , 12-C ) :   1.0708
B( 12-C , 13-H ) :   0.9719 B( 12-C , 14-H ) :   0.9739 B( 12-C , 15-H ) :   0.9729
B( 16-S , 17-C ) :   1.1270 B( 16-S , 20-C ) :   1.1310 B( 17-C , 18-C ) :   1.6499
B( 17-C , 33-H ) :   0.9675 B( 18-C , 19-C ) :   1.1926 B( 18-C , 21-H ) :   0.9907
B( 19-C , 20-C ) :   1.6143 B( 19-C , 22-C ) :   1.0653 B( 22-C , 23-H ) :   0.9291
B( 22-C , 24-H ) :   0.9377 B( 22-C , 25-C ) :   1.0452 B( 25-C , 26-H ) :   0.9562
B( 25-C , 27-H ) :   0.9553 B( 25-C , 28-C ) :   1.0820 B( 28-C , 29-H ) :   0.9740
B( 28-C , 30-H ) :   0.9702 B( 28-C , 31-H ) :   0.9732

Dispersion correction           -0.014205678
FINAL SINGLE POINT ENERGY     -1339.880094324995

DIPOLE MOMENT
-------------
                                X             Y             Z
Electronic contribution:     18.65506     -13.49018      15.65548
Nuclear contribution   :    -19.21711      13.71562     -15.95194
                        -----------------------------------------
Total Dipole Moment    :     -0.56204       0.22544      -0.29646
                        -----------------------------------------
Magnitude (a.u.)       :      0.67424
Magnitude (Debye)      :      1.71379

Rotational constants in cm-1:     0.017093     0.009216     0.006812
Rotational constants in MHz :   512.440459   276.299648   204.215559

                             ****ORCA TERMINATED NORMALLY****
TOTAL RUN TIME: 0 days 0 hours 0 minutes 30 seconds 350 msec
