                         Program Version 4.2.1 -  RELEASE  -
|  1> ! wB97X-D3 SP def2-SVP
|  2> %pal
|  3> nprocs 16
|  4> end
|  5>
|  6> * xyz 0 1
|  7> S 	 45.2071 	 18.4246 	 46.8167
|  8> C 	 44.6134 	 16.8279 	 46.9664
|  9> C 	 44.1418 	 16.2157 	 45.8003
| 10> C 	 44.2606 	 17.1329 	 44.75
| 11> C 	 44.739 	 18.4036 	 45.1043
| 12> H 	 44.1219 	 16.8989 	 43.6982
| 13> C 	 43.6802 	 14.7859 	 45.6966
| 14> H 	 43.2313 	 14.6234 	 44.7436
| 15> H 	 42.8112 	 14.6663 	 46.4383
| 16> C 	 44.6945 	 13.6413 	 46.0226
| 17> H 	 45.0517 	 13.9198 	 47.0082
| 18> H 	 44.3367 	 12.6555 	 46.0298
| 19> C 	 45.9488 	 13.7863 	 45.1811
| 20> H 	 45.5274 	 13.8569 	 44.142
| 21> H 	 46.4779 	 14.7572 	 45.3288
| 22> H 	 46.5987 	 12.9044 	 45.2359
| 23> S 	 46.783 	 19.6442 	 43.8055
| 24> C 	 46.4553 	 21.0135 	 42.8119
| 25> C 	 45.0914 	 21.2505 	 42.6273
| 26> C 	 44.3126 	 20.3787 	 43.4835
| 27> C 	 45.0861 	 19.4586 	 44.2058
| 28> H 	 44.8422 	 22.0011 	 41.8559
| 29> C 	 42.8163 	 20.4419 	 43.4448
| 30> H 	 42.3169 	 21.4151 	 43.6746
| 31> H 	 42.4299 	 19.7403 	 44.1989
| 32> C 	 42.2646 	 20.0877 	 42.0796
| 33> H 	 42.7789 	 20.6347 	 41.2998
| 34> H 	 41.1616 	 20.1863 	 42.1129
| 35> C 	 42.4979 	 18.5738 	 41.7542
| 36> H 	 43.5763 	 18.3486 	 41.5442
| 37> H 	 41.8561 	 18.2553 	 40.9862
| 38> H 	 42.157 	 18.0052 	 42.6309
| 39> H 	 44.5433 	 16.1929 	 47.8303
| 40> H 	 47.1385 	 21.3473 	 42.0432
| 41> *
| 42>
| 43>                          ****END OF INPUT****

CARTESIAN COORDINATES (ANGSTROEM)
---------------------------------
  S     45.207100   18.424600   46.816700
  C     44.613400   16.827900   46.966400
  C     44.141800   16.215700   45.800300
  C     44.260600   17.132900   44.750000
  C     44.739000   18.403600   45.104300
  H     44.121900   16.898900   43.698200
  C     43.680200   14.785900   45.696600
  H     43.231300   14.623400   44.743600
  H     42.811200   14.666300   46.438300
  C     44.694500   13.641300   46.022600
  H     45.051700   13.919800   47.008200
  H     44.336700   12.655500   46.029800
  C     45.948800   13.786300   45.181100
  H     45.527400   13.856900   44.142000
  H     46.477900   14.757200   45.328800
  H     46.598700   12.904400   45.235900
  S     46.783000   19.644200   43.805500
  C     46.455300   21.013500   42.811900
  C     45.091400   21.250500   42.627300
  C     44.312600   20.378700   43.483500
  C     45.086100   19.458600   44.205800
  H     44.842200   22.001100   41.855900
  C     42.816300   20.441900   43.444800
  H     42.316900   21.415100   43.674600
  H     42.429900   19.740300   44.198900
  C     42.264600   20.087700   42.079600
  H     42.778900   20.634700   41.299800
  H     41.161600   20.186300   42.112900
  C     42.497900   18.573800   41.754200
  H     43.576300   18.348600   41.544200
  H     41.856100   18.255300   40.986200
  H     42.157000   18.005200   42.630900
  H     44.543300   16.192900   47.830300
  H     47.138500   21.347300   42.043200

 Total Charge           Charge          ....    0
 Multiplicity           Mult            ....    1
 Number of Electrons    NEL             ....  134
 Basis Dimension        Dim             ....  322

ORBITAL ENERGIES
----------------

  NO   OCC          E(Eh)            E(eV)
   0   2.0000     -88.974985     -2421.1324
   1   2.0000     -88.964588     -2420.8495
   2   2.0000     -10.327578      -281.0277
   3   2.0000     -10.325352      -280.9671
   4   2.0000     -10.313881      -280.6550
   5   2.0000     -10.311971      -280.6030
   6   2.0000     -10.308221      -280.5009
   7   2.0000     -10.299500      -280.2636
   8   2.0000     -10.299169      -280.2546
   9   2.0000     -10.299000      -280.2500
  10   2.0000     -10.295712      -280.1606
  11   2.0000     -10.287614      -279.9402
  12   2.0000     -10.285651      -279.8868
  13   2.0000     -10.284236      -279.8483
  14   2.0000     -10.278210      -279.6843
  15   2.0000     -10.272568      -279.5308
  16   2.0000      -8.089400      -220.1238
  17   2.0000      -8.079874      -219.8646
  18   2.0000      -6.047684      -164.5658
  19   2.0000      -6.043999      -164.4656
  20   2.0000      -6.040366      -164.3667
  21   2.0000      -6.038220      -164.3083
  22   2.0000      -6.034327      -164.2024
  23   2.0000      -6.030741      -164.1048
  24   2.0000      -1.008218       -27.4350
  25   2.0000      -0.985655       -26.8210
  26   2.0000      -0.914235       -24.8776
  27   2.0000      -0.911523       -24.8038
  28   2.0000      -0.870733       -23.6939
  29   2.0000      -0.854967       -23.2648
  30   2.0000      -0.842591       -22.9281
  31   2.0000      -0.811175       -22.0732
  32   2.0000      -0.781608       -21.2686
  33   2.0000      -0.769610       -20.9422
  34   2.0000      -0.708207       -19.2713
  35   2.0000      -0.701959       -19.1013
  36   2.0000      -0.689983       -18.7754
  37   2.0000      -0.651658       -17.7325
  38   2.0000      -0.638570       -17.3764
  39   2.0000      -0.616510       -16.7761
  40   2.0000      -0.599831       -16.3222
  41   2.0000      -0.581458       -15.8223
  42   2.0000      -0.558096       -15.1866
  43   2.0000      -0.548050       -14.9132
  44   2.0000      -0.544397       -14.8138
  45   2.0000      -0.536908       -14.6100
  46   2.0000      -0.517149       -14.0723
  47   2.0000      -0.504167       -13.7191
  48   2.0000      -0.497939       -13.5496
  49   2.0000      -0.494699       -13.4614
  50   2.0000      -0.493212       -13.4210
  51   2.0000      -0.474263       -12.9053
  52   2.0000      -0.469067       -12.7640
  53   2.0000      -0.460398       -12.5281
  54   2.0000      -0.459534       -12.5046
  55   2.0000      -0.448870       -12.2144
  56   2.0000      -0.444390       -12.0925
  57   2.0000      -0.440394       -11.9837
  58   2.0000      -0.432977       -11.7819
  59   2.0000      -0.430078       -11.7030
  60   2.0000      -0.422413       -11.4944
  61   2.0000      -0.410689       -11.1754
  62   2.0000      -0.405524       -11.0349
  63   2.0000      -0.342978        -9.3329
  64   2.0000      -0.327940        -8.9237
  65   2.0000      -0.326749        -8.8913
  66   2.0000      -0.298430        -8.1207
  67   0.0000       0.035170         0.9570
  68   0.0000       0.050069         1.3625
  69   0.0000       0.112801         3.0695
  70   0.0000       0.119875         3.2620
  71   0.0000       0.122967         3.3461

MULLIKEN ATOMIC CHARGES
-----------------------
   0 S :    0.151844
   1 C :   -0.094396
   2 C :   -0.110819
   3 C :    0.047834
   4 C :   -0.200474
   5 H :    0.010817
   6 C :    0.039989
   7 H :    0.015167
   8 H :    0.047043
   9 C :   -0.023485
  10 H :    0.011770
  11 H :    0.030125
  12 C :   -0.084403
  13 H :    0.017095
  14 H :    0.058314
  15 H :    0.043583
  16 S :    0.115060
  17 C :   -0.090746
  18 C :   -0.076886
  19 C :   -0.004282
  20 C :   -0.179097
  21 H :    0.043200
  22 C :    0.064945
  23 H :    0.039539
  24 H :    0.025594
  25 C :   -0.095783
  26 H :    0.034438
  27 H :    0.036646
  28 C :   -0.066160
  29 H :    0.056035
  30 H :    0.022601
  31 H :    0.020230
  32 H :    0.032615
  33 H :    0.062047
Sum of atomic charges:   -0.0000000

LOEWDIN ATOMIC CHARGES
----------------------
   0 S :    0.432834
   1 C :   -0.203081
   2 C :   -0.072979
   3 C :   -0.047607
   4 C :   -0.207326
   5 H :    0.031912
   6 C :   -0.032513
   7 H :    0.021652
   8 H :    0.043460
   9 C :   -0.035122
  10 H :    0.019539
  11 H :    0.020133
  12 C :   -0.072571
  13 H :    0.023023
  14 H :    0.033677
  15 H :    0.026344
  16 S :    0.417721
  17 C :   -0.199096
  18 C :   -0.075325
  19 C :   -0.046803
  20 C :   -0.209779
  21 H :    0.040702
  22 C :   -0.040006
  23 H :    0.036583
  24 H :    0.029922
  25 C :   -0.036251
  26 H :    0.020449
  27 H :    0.028758
  28 C :   -0.067984
  29 H :    0.029421
  30 H :    0.016134
  31 H :    0.021854
  32 H :    0.023672
  33 H :    0.028652

  Mayer bond orders larger than 0.100000
B(  0-S ,  1-C ) :   1.1738 B(  0-S ,  4-C ) :   1.1447 B(  1-C ,  2-C ) :   1.5752
B(  1-C ,  4-C ) :   0.1057 B(  1-C , 32-H ) :   0.9583 B(  2-C ,  3-C ) :   1.2847
B(  2-C ,  6-C ) :   1.0188 B(  3-C ,  4-C ) :   1.5535 B(  3-C ,  5-H ) :   0.9858
B(  4-C , 20-C ) :   1.0519 B(  6-C ,  7-H ) :   0.9440 B(  6-C ,  8-H ) :   0.9379
B(  6-C ,  9-C ) :   1.0638 B(  9-C , 10-H ) :   0.9533 B(  9-C , 11-H ) :   0.9604
B(  9-C , 12-C ) :   1.0714 B( 12-C , 13-H ) :   0.9780 B( 12-C , 14-H ) :   0.9700
B( 12-C , 15-H ) :   0.9743 B( 16-S , 17-C ) :   1.1700 B( 16-S , 20-C ) :   1.1498
B( 17-C , 18-C ) :   1.6244 B( 17-C , 33-H ) :   0.9574 B( 18-C , 19-C ) :   1.2185
B( 18-C , 21-H ) :   0.9844 B( 19-C , 20-C ) :   1.5878 B( 19-C , 22-C ) :   1.0560
B( 22-C , 23-H ) :   0.9371 B( 22-C , 24-H ) :   0.9309 B( 22-C , 25-C ) :   1.0717
B( 25-C , 26-H ) :   0.9580 B( 25-C , 27-H ) :   0.9558 B( 25-C , 28-C ) :   1.0722
B( 28-C , 29-H ) :   0.9732 B( 28-C , 30-H ) :   0.9735 B( 28-C , 31-H ) :   0.9707

Dispersion correction           -0.015661790
FINAL SINGLE POINT ENERGY     -1339.871008037212

DIPOLE MOMENT
-------------
                                X             Y             Z
Electronic contribution:     12.97269      15.98087       9.58656
Nuclear contribution   :    -13.33506     -16.34582      -9.93969
                        -----------------------------------------
Total Dipole Moment    :     -0.36238      -0.36495      -0.35313
                        -----------------------------------------
Magnitude (a.u.)       :      0.62386
Magnitude (Debye)      :      1.58573

Rotational constants in cm-1:     0.020922     0.008631     0.007559
Rotational constants in MHz :   627.222533   258.751720   226.608407

                             ****ORCA TERMINATED NORMALLY****
TOTAL RUN TIME: 0 days 0 hours 0 minutes 36 seconds 551 msec
