                         Program Version 4.2.1 -  RELEASE  -
|  1> ! wB97X-D3 SP def2-SVP
|  2> %pal
|  3> nprocs 16
|  4> end
|  5>
|  6> * xyz 0 1
|  7> S 	 1.20289 	 -6.30961 	 77.2279
|  8> C 	 0.219682 	 -6.30206 	 78.6228
|  9> C 	 0.373489 	 -5.17906 	 79.4534
| 10> C 	 1.2958 	 -4.31806 	 78.801
| 11> C 	 1.83179 	 -4.78933 	 77.6341
| 12> H 	 1.56076 	 -3.36366 	 79.1424
| 13> C 	 -0.219434 	 -4.78957 	 80.7918
| 14> H 	 -1.07446 	 -4.08722 	 80.6181
| 15> H 	 0.485702 	 -4.29097 	 81.4483
| 16> C 	 -0.771429 	 -5.991 	 81.6584
| 17> H 	 -1.24115 	 -5.65712 	 82.6044
| 18> H 	 -1.62406 	 -6.35763 	 81.1002
| 19> C 	 0.240368 	 -7.05985 	 82.107
| 20> H 	 -0.252553 	 -7.86852 	 82.6835
| 21> H 	 0.747583 	 -7.37454 	 81.2194
| 22> H 	 0.957485 	 -6.67765 	 82.7526
| 23> S 	 4.32669 	 -5.07128 	 76.2519
| 24> C 	 4.87058 	 -3.74344 	 75.2711
| 25> C 	 4.00164 	 -2.72713 	 75.2956
| 26> C 	 2.82815 	 -2.9702 	 76.0988
| 27> C 	 2.83277 	 -4.18948 	 76.701
| 28> H 	 4.14034 	 -1.83597 	 74.7405
| 29> C 	 1.69776 	 -1.94309 	 76.1409
| 30> H 	 1.51831 	 -1.66007 	 77.1514
| 31> H 	 0.893665 	 -2.37366 	 75.6707
| 32> C 	 1.99621 	 -0.679541 	 75.3259
| 33> H 	 2.36152 	 -0.856076 	 74.3113
| 34> H 	 2.83033 	 -0.128979 	 75.7409
| 35> C 	 0.888743 	 0.367765 	 75.3768
| 36> H 	 0.759025 	 0.765604 	 76.3744
| 37> H 	 -0.0217351 	 -0.14045 	 75.0798
| 38> H 	 1.2157 	 1.16543 	 74.6983
| 39> H 	 -0.552801 	 -6.96189 	 78.8502
| 40> H 	 5.86228 	 -3.67663 	 74.7512
| 41> *
| 42>
| 43>                          ****END OF INPUT****

CARTESIAN COORDINATES (ANGSTROEM)
---------------------------------
  S      1.202890   -6.309610   77.227900
  C      0.219682   -6.302060   78.622800
  C      0.373489   -5.179060   79.453400
  C      1.295800   -4.318060   78.801000
  C      1.831790   -4.789330   77.634100
  H      1.560760   -3.363660   79.142400
  C     -0.219434   -4.789570   80.791800
  H     -1.074460   -4.087220   80.618100
  H      0.485702   -4.290970   81.448300
  C     -0.771429   -5.991000   81.658400
  H     -1.241150   -5.657120   82.604400
  H     -1.624060   -6.357630   81.100200
  C      0.240368   -7.059850   82.107000
  H     -0.252553   -7.868520   82.683500
  H      0.747583   -7.374540   81.219400
  H      0.957485   -6.677650   82.752600
  S      4.326690   -5.071280   76.251900
  C      4.870580   -3.743440   75.271100
  C      4.001640   -2.727130   75.295600
  C      2.828150   -2.970200   76.098800
  C      2.832770   -4.189480   76.701000
  H      4.140340   -1.835970   74.740500
  C      1.697760   -1.943090   76.140900
  H      1.518310   -1.660070   77.151400
  H      0.893665   -2.373660   75.670700
  C      1.996210   -0.679541   75.325900
  H      2.361520   -0.856076   74.311300
  H      2.830330   -0.128979   75.740900
  C      0.888743    0.367765   75.376800
  H      0.759025    0.765604   76.374400
  H     -0.021735   -0.140450   75.079800
  H      1.215700    1.165430   74.698300
  H     -0.552801   -6.961890   78.850200
  H      5.862280   -3.676630   74.751200

 Total Charge           Charge          ....    0
 Multiplicity           Mult            ....    1
 Number of Electrons    NEL             ....  134
 Basis Dimension        Dim             ....  322

ORBITAL ENERGIES
----------------

  NO   OCC          E(Eh)            E(eV)
   0   2.0000     -88.968343     -2420.9517
   1   2.0000     -88.961845     -2420.7749
   2   2.0000     -10.326104      -280.9876
   3   2.0000     -10.323987      -280.9300
   4   2.0000     -10.314949      -280.6840
   5   2.0000     -10.308051      -280.4963
   6   2.0000     -10.303252      -280.3657
   7   2.0000     -10.302367      -280.3417
   8   2.0000     -10.297884      -280.2197
   9   2.0000     -10.289358      -279.9877
  10   2.0000     -10.286038      -279.8973
  11   2.0000     -10.283859      -279.8380
  12   2.0000     -10.283571      -279.8302
  13   2.0000     -10.282094      -279.7900
  14   2.0000     -10.277613      -279.6681
  15   2.0000     -10.270416      -279.4722
  16   2.0000      -8.084643      -219.9943
  17   2.0000      -8.076369      -219.7692
  18   2.0000      -6.042909      -164.4359
  19   2.0000      -6.038837      -164.3251
  20   2.0000      -6.035667      -164.2388
  21   2.0000      -6.035042      -164.2218
  22   2.0000      -6.030938      -164.1102
  23   2.0000      -6.026943      -164.0014
  24   2.0000      -1.012684       -27.5565
  25   2.0000      -0.989080       -26.9142
  26   2.0000      -0.914118       -24.8744
  27   2.0000      -0.908922       -24.7330
  28   2.0000      -0.866747       -23.5854
  29   2.0000      -0.856342       -23.3023
  30   2.0000      -0.846412       -23.0320
  31   2.0000      -0.815102       -22.1800
  32   2.0000      -0.788310       -21.4510
  33   2.0000      -0.776632       -21.1332
  34   2.0000      -0.707036       -19.2394
  35   2.0000      -0.704341       -19.1661
  36   2.0000      -0.693665       -18.8756
  37   2.0000      -0.652939       -17.7674
  38   2.0000      -0.641603       -17.4589
  39   2.0000      -0.615639       -16.7524
  40   2.0000      -0.599849       -16.3227
  41   2.0000      -0.580059       -15.7842
  42   2.0000      -0.577807       -15.7229
  43   2.0000      -0.552244       -15.0273
  44   2.0000      -0.544699       -14.8220
  45   2.0000      -0.531731       -14.4691
  46   2.0000      -0.513284       -13.9672
  47   2.0000      -0.509992       -13.8776
  48   2.0000      -0.502800       -13.6819
  49   2.0000      -0.497536       -13.5386
  50   2.0000      -0.493887       -13.4393
  51   2.0000      -0.479706       -13.0535
  52   2.0000      -0.471363       -12.8264
  53   2.0000      -0.468824       -12.7574
  54   2.0000      -0.464773       -12.6471
  55   2.0000      -0.457248       -12.4424
  56   2.0000      -0.449682       -12.2365
  57   2.0000      -0.444790       -12.1033
  58   2.0000      -0.428732       -11.6664
  59   2.0000      -0.423666       -11.5285
  60   2.0000      -0.419890       -11.4258
  61   2.0000      -0.410314       -11.1652
  62   2.0000      -0.408962       -11.1284
  63   2.0000      -0.346342        -9.4244
  64   2.0000      -0.334077        -9.0907
  65   2.0000      -0.329573        -8.9681
  66   2.0000      -0.295745        -8.0476
  67   0.0000       0.041351         1.1252
  68   0.0000       0.070897         1.9292
  69   0.0000       0.119086         3.2405
  70   0.0000       0.124912         3.3990
  71   0.0000       0.133342         3.6284

MULLIKEN ATOMIC CHARGES
-----------------------
   0 S :    0.140947
   1 C :   -0.087149
   2 C :   -0.100285
   3 C :    0.042737
   4 C :   -0.172266
   5 H :   -0.021714
   6 C :    0.050054
   7 H :    0.054047
   8 H :    0.035369
   9 C :   -0.113044
  10 H :    0.024418
  11 H :    0.023579
  12 C :   -0.012762
  13 H :    0.040739
  14 H :    0.031197
  15 H :    0.014503
  16 S :    0.094734
  17 C :   -0.084907
  18 C :   -0.020298
  19 C :   -0.083536
  20 C :   -0.153361
  21 H :   -0.000241
  22 C :    0.201802
  23 H :    0.019905
  24 H :    0.017203
  25 C :   -0.180901
  26 H :    0.033918
  27 H :    0.017759
  28 C :    0.005483
  29 H :    0.029026
  30 H :    0.025042
  31 H :    0.037492
  32 H :    0.018910
  33 H :    0.071598
Sum of atomic charges:    0.0000000

LOEWDIN ATOMIC CHARGES
----------------------
   0 S :    0.457593
   1 C :   -0.207014
   2 C :   -0.060390
   3 C :   -0.055375
   4 C :   -0.209600
   5 H :    0.019159
   6 C :   -0.031153
   7 H :    0.043614
   8 H :    0.030842
   9 C :   -0.046335
  10 H :    0.025582
  11 H :    0.017285
  12 C :   -0.060007
  13 H :    0.033686
  14 H :    0.022300
  15 H :    0.016193
  16 S :    0.381330
  17 C :   -0.189761
  18 C :   -0.076582
  19 C :   -0.053757
  20 C :   -0.192447
  21 H :    0.025169
  22 C :   -0.013880
  23 H :    0.029576
  24 H :    0.025714
  25 C :   -0.050805
  26 H :    0.021157
  27 H :    0.019454
  28 C :   -0.055026
  29 H :    0.023015
  30 H :    0.021251
  31 H :    0.031728
  32 H :    0.013031
  33 H :    0.044453

  Mayer bond orders larger than 0.100000
B(  0-S ,  1-C ) :   1.1651 B(  0-S ,  4-C ) :   1.1779 B(  1-C ,  2-C ) :   1.5913
B(  1-C , 32-H ) :   0.9657 B(  2-C ,  3-C ) :   1.2643 B(  2-C ,  6-C ) :   1.0066
B(  3-C ,  4-C ) :   1.5810 B(  3-C ,  5-H ) :   1.0088 B(  4-C , 20-C ) :   0.9955
B(  6-C ,  7-H ) :   0.9343 B(  6-C ,  8-H ) :   0.9514 B(  6-C ,  9-C ) :   1.0755
B(  9-C , 10-H ) :   0.9567 B(  9-C , 11-H ) :   0.9558 B(  9-C , 12-C ) :   1.0728
B( 12-C , 13-H ) :   0.9731 B( 12-C , 14-H ) :   0.9756 B( 12-C , 15-H ) :   0.9729
B( 16-S , 17-C ) :   1.1415 B( 16-S , 20-C ) :   1.1196 B( 17-C , 18-C ) :   1.6256
B( 17-C , 33-H ) :   0.9509 B( 18-C , 19-C ) :   1.2381 B( 18-C , 21-H ) :   0.9897
B( 19-C , 20-C ) :   1.6618 B( 19-C , 22-C ) :   1.0166 B( 22-C , 23-H ) :   0.9222
B( 22-C , 24-H ) :   0.9159 B( 22-C , 25-C ) :   1.0979 B( 25-C , 26-H ) :   0.9462
B( 25-C , 27-H ) :   0.9486 B( 25-C , 28-C ) :   1.0818 B( 28-C , 29-H ) :   0.9745
B( 28-C , 30-H ) :   0.9746 B( 28-C , 31-H ) :   0.9709

Dispersion correction           -0.013600779
FINAL SINGLE POINT ENERGY     -1339.874476974014

DIPOLE MOMENT
-------------
                                X             Y             Z
Electronic contribution:     13.44408     -14.64213     -11.78625
Nuclear contribution   :    -13.74143      15.26540      11.99750
                        -----------------------------------------
Total Dipole Moment    :     -0.29734       0.62327       0.21125
                        -----------------------------------------
Magnitude (a.u.)       :      0.72215
Magnitude (Debye)      :      1.83557

Rotational constants in cm-1:     0.020755     0.007445     0.005994
Rotational constants in MHz :   622.220396   223.191418   179.692043

                             ****ORCA TERMINATED NORMALLY****
TOTAL RUN TIME: 0 days 0 hours 0 minutes 33 seconds 56 msec
