                         Program Version 4.2.1 -  RELEASE  -
|  1> ! wB97X-D3 SP def2-SVP
|  2> %pal
|  3> nprocs 16
|  4> end
|  5>
|  6> * xyz 0 1
|  7> S 	 35.5877 	 17.6146 	 65.1966
|  8> C 	 35.6542 	 18.6648 	 66.6275
|  9> C 	 36.7818 	 18.3955 	 67.3903
| 10> C 	 37.6363 	 17.4148 	 66.7515
| 11> C 	 37.0861 	 16.8002 	 65.6731
| 12> H 	 38.6876 	 17.1434 	 67.0992
| 13> C 	 37.1052 	 19.2585 	 68.673
| 14> H 	 36.3695 	 20.0836 	 68.6501
| 15> H 	 38.0962 	 19.6572 	 68.3548
| 16> C 	 37.029 	 18.652 	 70.081
| 17> H 	 36.2399 	 17.9184 	 70.2861
| 18> H 	 37.9031 	 18.0353 	 70.1128
| 19> C 	 37.2053 	 19.6065 	 71.1967
| 20> H 	 36.5491 	 20.4723 	 71.2788
| 21> H 	 37.0549 	 19.103 	 72.1541
| 22> H 	 38.2509 	 19.8795 	 71.1602
| 23> S 	 37.9412 	 16.0359 	 63.1846
| 24> C 	 38.7535 	 14.5783 	 62.9443
| 25> C 	 38.8897 	 13.9061 	 64.1255
| 26> C 	 38.417 	 14.5863 	 65.2939
| 27> C 	 37.7896 	 15.8051 	 64.9141
| 28> H 	 39.1998 	 12.8668 	 64.0801
| 29> C 	 38.3219 	 13.8931 	 66.6367
| 30> H 	 37.4254 	 14.3544 	 67.0523
| 31> H 	 39.1907 	 14.1867 	 67.213
| 32> C 	 38.3001 	 12.3382 	 66.6707
| 33> H 	 38.4051 	 11.9339 	 67.65
| 34> H 	 39.1483 	 11.841 	 66.1739
| 35> C 	 36.9911 	 11.8198 	 65.9511
| 36> H 	 37.2789 	 10.7801 	 65.6205
| 37> H 	 36.8815 	 12.5017 	 65.0651
| 38> H 	 36.1483 	 11.8305 	 66.6556
| 39> H 	 34.8831 	 19.384 	 66.8359
| 40> H 	 38.8413 	 14.0533 	 62.0068
| 41> *
| 42>
| 43>                          ****END OF INPUT****

CARTESIAN COORDINATES (ANGSTROEM)
---------------------------------
  S     35.587700   17.614600   65.196600
  C     35.654200   18.664800   66.627500
  C     36.781800   18.395500   67.390300
  C     37.636300   17.414800   66.751500
  C     37.086100   16.800200   65.673100
  H     38.687600   17.143400   67.099200
  C     37.105200   19.258500   68.673000
  H     36.369500   20.083600   68.650100
  H     38.096200   19.657200   68.354800
  C     37.029000   18.652000   70.081000
  H     36.239900   17.918400   70.286100
  H     37.903100   18.035300   70.112800
  C     37.205300   19.606500   71.196700
  H     36.549100   20.472300   71.278800
  H     37.054900   19.103000   72.154100
  H     38.250900   19.879500   71.160200
  S     37.941200   16.035900   63.184600
  C     38.753500   14.578300   62.944300
  C     38.889700   13.906100   64.125500
  C     38.417000   14.586300   65.293900
  C     37.789600   15.805100   64.914100
  H     39.199800   12.866800   64.080100
  C     38.321900   13.893100   66.636700
  H     37.425400   14.354400   67.052300
  H     39.190700   14.186700   67.213000
  C     38.300100   12.338200   66.670700
  H     38.405100   11.933900   67.650000
  H     39.148300   11.841000   66.173900
  C     36.991100   11.819800   65.951100
  H     37.278900   10.780100   65.620500
  H     36.881500   12.501700   65.065100
  H     36.148300   11.830500   66.655600
  H     34.883100   19.384000   66.835900
  H     38.841300   14.053300   62.006800

 Total Charge           Charge          ....    0
 Multiplicity           Mult            ....    1
 Number of Electrons    NEL             ....  134
 Basis Dimension        Dim             ....  322

ORBITAL ENERGIES
----------------

  NO   OCC          E(Eh)            E(eV)
   0   2.0000     -88.966522     -2420.9021
   1   2.0000     -88.963324     -2420.8151
   2   2.0000     -10.328190      -281.0443
   3   2.0000     -10.327714      -281.0314
   4   2.0000     -10.318654      -280.7849
   5   2.0000     -10.309319      -280.5308
   6   2.0000     -10.307728      -280.4875
   7   2.0000     -10.307229      -280.4740
   8   2.0000     -10.303365      -280.3688
   9   2.0000     -10.301099      -280.3072
  10   2.0000     -10.292261      -280.0666
  11   2.0000     -10.288823      -279.9731
  12   2.0000     -10.288776      -279.9718
  13   2.0000     -10.283993      -279.8417
  14   2.0000     -10.283669      -279.8329
  15   2.0000     -10.275925      -279.6221
  16   2.0000      -8.080615      -219.8847
  17   2.0000      -8.079251      -219.8476
  18   2.0000      -6.039261      -164.3367
  19   2.0000      -6.037627      -164.2922
  20   2.0000      -6.035264      -164.2279
  21   2.0000      -6.033446      -164.1784
  22   2.0000      -6.031207      -164.1175
  23   2.0000      -6.030214      -164.0905
  24   2.0000      -1.008808       -27.4511
  25   2.0000      -0.984089       -26.7784
  26   2.0000      -0.913046       -24.8452
  27   2.0000      -0.907198       -24.6861
  28   2.0000      -0.876735       -23.8572
  29   2.0000      -0.849471       -23.1153
  30   2.0000      -0.840927       -22.8828
  31   2.0000      -0.816324       -22.2133
  32   2.0000      -0.781803       -21.2740
  33   2.0000      -0.769781       -20.9468
  34   2.0000      -0.709643       -19.3104
  35   2.0000      -0.698727       -19.0133
  36   2.0000      -0.696639       -18.9565
  37   2.0000      -0.652208       -17.7475
  38   2.0000      -0.640050       -17.4167
  39   2.0000      -0.616492       -16.7756
  40   2.0000      -0.594404       -16.1745
  41   2.0000      -0.571938       -15.5632
  42   2.0000      -0.560986       -15.2652
  43   2.0000      -0.552442       -15.0327
  44   2.0000      -0.534373       -14.5410
  45   2.0000      -0.526042       -14.3143
  46   2.0000      -0.524780       -14.2800
  47   2.0000      -0.513691       -13.9782
  48   2.0000      -0.509666       -13.8687
  49   2.0000      -0.501688       -13.6516
  50   2.0000      -0.491613       -13.3775
  51   2.0000      -0.477055       -12.9813
  52   2.0000      -0.472641       -12.8612
  53   2.0000      -0.462365       -12.5816
  54   2.0000      -0.458695       -12.4817
  55   2.0000      -0.449136       -12.2216
  56   2.0000      -0.445163       -12.1135
  57   2.0000      -0.435585       -11.8529
  58   2.0000      -0.430801       -11.7227
  59   2.0000      -0.423492       -11.5238
  60   2.0000      -0.418799       -11.3961
  61   2.0000      -0.413266       -11.2455
  62   2.0000      -0.404460       -11.0059
  63   2.0000      -0.349372        -9.5069
  64   2.0000      -0.330062        -8.9814
  65   2.0000      -0.328328        -8.9343
  66   2.0000      -0.292816        -7.9679
  67   0.0000       0.025157         0.6846
  68   0.0000       0.077246         2.1020
  69   0.0000       0.115306         3.1376
  70   0.0000       0.124641         3.3916
  71   0.0000       0.130774         3.5586

MULLIKEN ATOMIC CHARGES
-----------------------
   0 S :    0.100255
   1 C :   -0.129613
   2 C :   -0.078324
   3 C :   -0.004345
   4 C :   -0.135466
   5 H :    0.043847
   6 C :    0.036018
   7 H :    0.016552
   8 H :    0.045788
   9 C :   -0.038349
  10 H :    0.034386
  11 H :    0.011225
  12 C :   -0.042405
  13 H :    0.033481
  14 H :    0.027934
  15 H :    0.027225
  16 S :    0.115371
  17 C :   -0.070910
  18 C :   -0.071325
  19 C :   -0.052573
  20 C :   -0.183277
  21 H :    0.019155
  22 C :    0.090452
  23 H :    0.039267
  24 H :    0.034306
  25 C :   -0.088586
  26 H :    0.021845
  27 H :    0.026226
  28 C :   -0.086674
  29 H :    0.038238
  30 H :    0.060129
  31 H :    0.048812
  32 H :    0.053546
  33 H :    0.057789
Sum of atomic charges:    0.0000000

LOEWDIN ATOMIC CHARGES
----------------------
   0 S :    0.379210
   1 C :   -0.181832
   2 C :   -0.062470
   3 C :   -0.065773
   4 C :   -0.198116
   5 H :    0.044519
   6 C :   -0.028043
   7 H :    0.026762
   8 H :    0.038665
   9 C :   -0.050920
  10 H :    0.028169
  11 H :    0.023987
  12 C :   -0.064730
  13 H :    0.022752
  14 H :    0.030609
  15 H :    0.027249
  16 S :    0.434290
  17 C :   -0.212500
  18 C :   -0.079872
  19 C :   -0.055119
  20 C :   -0.200873
  21 H :    0.029834
  22 C :   -0.033081
  23 H :    0.036078
  24 H :    0.032820
  25 C :   -0.043233
  26 H :    0.020491
  27 H :    0.022482
  28 C :   -0.070602
  29 H :    0.029576
  30 H :    0.033996
  31 H :    0.026359
  32 H :    0.026462
  33 H :    0.032854

  Mayer bond orders larger than 0.100000
B(  0-S ,  1-C ) :   1.1261 B(  0-S ,  4-C ) :   1.1226 B(  1-C ,  2-C ) :   1.6311
B(  1-C , 32-H ) :   0.9691 B(  2-C ,  3-C ) :   1.2190 B(  2-C ,  6-C ) :   1.0031
B(  3-C ,  4-C ) :   1.5949 B(  3-C ,  5-H ) :   0.9821 B(  4-C , 20-C ) :   1.0729
B(  6-C ,  7-H ) :   0.9497 B(  6-C ,  8-H ) :   0.9449 B(  6-C ,  9-C ) :   1.0473
B(  9-C , 10-H ) :   0.9586 B(  9-C , 11-H ) :   0.9484 B(  9-C , 12-C ) :   1.0930
B( 12-C , 13-H ) :   0.9761 B( 12-C , 14-H ) :   0.9698 B( 12-C , 15-H ) :   0.9762
B( 16-S , 17-C ) :   1.1708 B( 16-S , 20-C ) :   1.1644 B( 17-C , 18-C ) :   1.5992
B( 17-C , 33-H ) :   0.9603 B( 18-C , 19-C ) :   1.2669 B( 18-C , 21-H ) :   0.9810
B( 19-C , 20-C ) :   1.5424 B( 19-C , 22-C ) :   1.0303 B( 22-C , 23-H ) :   0.9413
B( 22-C , 24-H ) :   0.9190 B( 22-C , 25-C ) :   1.0805 B( 25-C , 26-H ) :   0.9541
B( 25-C , 27-H ) :   0.9552 B( 25-C , 28-C ) :   1.0556 B( 28-C , 29-H ) :   0.9785
B( 28-C , 30-H ) :   0.9770 B( 28-C , 31-H ) :   0.9778

Dispersion correction           -0.013780962
FINAL SINGLE POINT ENERGY     -1339.866339527052

DIPOLE MOMENT
-------------
                                X             Y             Z
Electronic contribution:     -3.59024       6.51542     -25.67568
Nuclear contribution   :      3.78895      -6.71067      26.32767
                        -----------------------------------------
Total Dipole Moment    :      0.19871      -0.19526       0.65198
                        -----------------------------------------
Magnitude (a.u.)       :      0.70901
Magnitude (Debye)      :      1.80215

Rotational constants in cm-1:     0.019751     0.007612     0.006184
Rotational constants in MHz :   592.126011   228.200342   185.396711

                             ****ORCA TERMINATED NORMALLY****
TOTAL RUN TIME: 0 days 0 hours 0 minutes 29 seconds 593 msec
