                         Program Version 4.2.1 -  RELEASE  -
|  1> ! wB97X-D3 SP def2-SVP
|  2> %pal
|  3> nprocs 16
|  4> end
|  5>
|  6> * xyz 0 1
|  7> S 	 0.153813 	 76.312 	 46.8039
|  8> C 	 -0.258399 	 76.5096 	 48.5603
|  9> C 	 -0.688131 	 75.3318 	 49.1041
| 10> C 	 -1.00775 	 74.3469 	 48.096
| 11> C 	 -0.658591 	 74.7612 	 46.7933
| 12> H 	 -1.54984 	 73.4194 	 48.2241
| 13> C 	 -1.02455 	 75.1788 	 50.5988
| 14> H 	 -2.07891 	 74.8561 	 50.5982
| 15> H 	 -0.829847 	 76.1401 	 51.1039
| 16> C 	 -0.174862 	 74.1273 	 51.3217
| 17> H 	 -0.579751 	 73.9328 	 52.3072
| 18> H 	 -0.175159 	 73.1389 	 50.8426
| 19> C 	 1.31943 	 74.5661 	 51.38
| 20> H 	 1.93473 	 74.392 	 50.4441
| 21> H 	 1.51985 	 75.553 	 51.7115
| 22> H 	 1.86327 	 73.8028 	 51.9011
| 23> S 	 -1.81571 	 75.3638 	 44.439
| 24> C 	 -2.46326 	 74.0925 	 43.4781
| 25> C 	 -2.12883 	 72.7987 	 44.0126
| 26> C 	 -1.29674 	 72.8936 	 45.1495
| 27> C 	 -1.08471 	 74.1981 	 45.5452
| 28> H 	 -2.50829 	 71.8977 	 43.4008
| 29> C 	 -0.785162 	 71.5807 	 45.7758
| 30> H 	 -1.12367 	 70.7032 	 45.2818
| 31> H 	 -1.15062 	 71.4749 	 46.8098
| 32> C 	 0.709843 	 71.4962 	 45.9415
| 33> H 	 0.986393 	 70.6154 	 46.5647
| 34> H 	 1.06671 	 72.4308 	 46.4453
| 35> C 	 1.53882 	 71.3479 	 44.6371
| 36> H 	 1.44623 	 72.1771 	 43.9648
| 37> H 	 1.25076 	 70.4299 	 44.0928
| 38> H 	 2.60835 	 71.2645 	 44.8789
| 39> H 	 -0.118766 	 77.3625 	 49.2463
| 40> H 	 -3.07174 	 74.1491 	 42.5701
| 41> *
| 42>
| 43>                          ****END OF INPUT****

CARTESIAN COORDINATES (ANGSTROEM)
---------------------------------
  S      0.153813   76.312000   46.803900
  C     -0.258399   76.509600   48.560300
  C     -0.688131   75.331800   49.104100
  C     -1.007750   74.346900   48.096000
  C     -0.658591   74.761200   46.793300
  H     -1.549840   73.419400   48.224100
  C     -1.024550   75.178800   50.598800
  H     -2.078910   74.856100   50.598200
  H     -0.829847   76.140100   51.103900
  C     -0.174862   74.127300   51.321700
  H     -0.579751   73.932800   52.307200
  H     -0.175159   73.138900   50.842600
  C      1.319430   74.566100   51.380000
  H      1.934730   74.392000   50.444100
  H      1.519850   75.553000   51.711500
  H      1.863270   73.802800   51.901100
  S     -1.815710   75.363800   44.439000
  C     -2.463260   74.092500   43.478100
  C     -2.128830   72.798700   44.012600
  C     -1.296740   72.893600   45.149500
  C     -1.084710   74.198100   45.545200
  H     -2.508290   71.897700   43.400800
  C     -0.785162   71.580700   45.775800
  H     -1.123670   70.703200   45.281800
  H     -1.150620   71.474900   46.809800
  C      0.709843   71.496200   45.941500
  H      0.986393   70.615400   46.564700
  H      1.066710   72.430800   46.445300
  C      1.538820   71.347900   44.637100
  H      1.446230   72.177100   43.964800
  H      1.250760   70.429900   44.092800
  H      2.608350   71.264500   44.878900
  H     -0.118766   77.362500   49.246300
  H     -3.071740   74.149100   42.570100

 Total Charge           Charge          ....    0
 Multiplicity           Mult            ....    1
 Number of Electrons    NEL             ....  134
 Basis Dimension        Dim             ....  322

ORBITAL ENERGIES
----------------

  NO   OCC          E(Eh)            E(eV)
   0   2.0000     -88.971992     -2421.0510
   1   2.0000     -88.966561     -2420.9032
   2   2.0000     -10.332301      -281.1562
   3   2.0000     -10.326264      -280.9919
   4   2.0000     -10.320672      -280.8398
   5   2.0000     -10.315017      -280.6859
   6   2.0000     -10.307560      -280.4830
   7   2.0000     -10.303259      -280.3659
   8   2.0000     -10.302120      -280.3349
   9   2.0000     -10.298359      -280.2326
  10   2.0000     -10.298140      -280.2266
  11   2.0000     -10.291680      -280.0508
  12   2.0000     -10.290963      -280.0313
  13   2.0000     -10.285901      -279.8936
  14   2.0000     -10.275564      -279.6123
  15   2.0000     -10.271495      -279.5016
  16   2.0000      -8.086460      -220.0438
  17   2.0000      -8.080302      -219.8762
  18   2.0000      -6.044828      -164.4881
  19   2.0000      -6.040873      -164.3805
  20   2.0000      -6.039002      -164.3296
  21   2.0000      -6.037464      -164.2877
  22   2.0000      -6.035154      -164.2249
  23   2.0000      -6.030699      -164.1037
  24   2.0000      -1.007019       -27.4024
  25   2.0000      -0.977784       -26.6069
  26   2.0000      -0.910710       -24.7817
  27   2.0000      -0.908396       -24.7187
  28   2.0000      -0.866149       -23.5691
  29   2.0000      -0.849756       -23.1230
  30   2.0000      -0.837275       -22.7834
  31   2.0000      -0.805979       -21.9318
  32   2.0000      -0.786150       -21.3922
  33   2.0000      -0.776550       -21.1310
  34   2.0000      -0.711187       -19.3524
  35   2.0000      -0.697730       -18.9862
  36   2.0000      -0.682185       -18.5632
  37   2.0000      -0.660299       -17.9677
  38   2.0000      -0.633041       -17.2259
  39   2.0000      -0.615515       -16.7490
  40   2.0000      -0.593520       -16.1505
  41   2.0000      -0.562241       -15.2994
  42   2.0000      -0.557254       -15.1636
  43   2.0000      -0.547232       -14.8909
  44   2.0000      -0.543420       -14.7872
  45   2.0000      -0.533165       -14.5081
  46   2.0000      -0.518283       -14.1032
  47   2.0000      -0.507904       -13.8208
  48   2.0000      -0.503739       -13.7074
  49   2.0000      -0.494108       -13.4454
  50   2.0000      -0.483617       -13.1599
  51   2.0000      -0.478334       -13.0161
  52   2.0000      -0.471876       -12.8404
  53   2.0000      -0.465407       -12.6644
  54   2.0000      -0.454913       -12.3788
  55   2.0000      -0.446221       -12.1423
  56   2.0000      -0.440860       -11.9964
  57   2.0000      -0.435308       -11.8453
  58   2.0000      -0.431478       -11.7411
  59   2.0000      -0.426290       -11.6000
  60   2.0000      -0.419029       -11.4024
  61   2.0000      -0.413491       -11.2517
  62   2.0000      -0.408708       -11.1215
  63   2.0000      -0.345624        -9.4049
  64   2.0000      -0.336792        -9.1646
  65   2.0000      -0.329678        -8.9710
  66   2.0000      -0.283226        -7.7070
  67   0.0000       0.019523         0.5313
  68   0.0000       0.070455         1.9172
  69   0.0000       0.100819         2.7434
  70   0.0000       0.119084         3.2404
  71   0.0000       0.127124         3.4592

MULLIKEN ATOMIC CHARGES
-----------------------
   0 S :    0.092036
   1 C :   -0.133223
   2 C :   -0.081953
   3 C :    0.031496
   4 C :   -0.155581
   5 H :    0.011515
   6 C :    0.062363
   7 H :    0.042509
   8 H :    0.025973
   9 C :   -0.062732
  10 H :    0.032642
  11 H :    0.027189
  12 C :   -0.063172
  13 H :    0.038284
  14 H :    0.031073
  15 H :    0.018338
  16 S :    0.137050
  17 C :   -0.109974
  18 C :   -0.096302
  19 C :   -0.018776
  20 C :   -0.146266
  21 H :    0.052821
  22 C :    0.123056
  23 H :    0.004537
  24 H :    0.026555
  25 C :   -0.118979
  26 H :    0.032816
  27 H :    0.046258
  28 C :   -0.054311
  29 H :    0.035590
  30 H :    0.022513
  31 H :    0.034485
  32 H :    0.049355
  33 H :    0.062815
Sum of atomic charges:   -0.0000000

LOEWDIN ATOMIC CHARGES
----------------------
   0 S :    0.369175
   1 C :   -0.188989
   2 C :   -0.058310
   3 C :   -0.063689
   4 C :   -0.186490
   5 H :    0.028774
   6 C :   -0.027725
   7 H :    0.035533
   8 H :    0.030996
   9 C :   -0.040051
  10 H :    0.023426
  11 H :    0.026615
  12 C :   -0.074936
  13 H :    0.038638
  14 H :    0.016629
  15 H :    0.025009
  16 S :    0.434036
  17 C :   -0.205739
  18 C :   -0.082325
  19 C :   -0.054172
  20 C :   -0.204952
  21 H :    0.047201
  22 C :   -0.026791
  23 H :    0.023705
  24 H :    0.034365
  25 C :   -0.045826
  26 H :    0.027091
  27 H :    0.029652
  28 C :   -0.069473
  29 H :    0.021084
  30 H :    0.022062
  31 H :    0.028104
  32 H :    0.034060
  33 H :    0.033313

  Mayer bond orders larger than 0.100000
B(  0-S ,  1-C ) :   1.0957 B(  0-S ,  4-C ) :   1.1332 B(  1-C ,  2-C ) :   1.6621
B(  1-C , 32-H ) :   0.9598 B(  2-C ,  3-C ) :   1.1972 B(  2-C ,  6-C ) :   1.0202
B(  3-C ,  4-C ) :   1.5858 B(  3-C ,  5-H ) :   0.9871 B(  4-C , 20-C ) :   1.0667
B(  6-C ,  7-H ) :   0.9404 B(  6-C ,  8-H ) :   0.9458 B(  6-C ,  9-C ) :   1.0742
B(  9-C , 10-H ) :   0.9595 B(  9-C , 11-H ) :   0.9538 B(  9-C , 12-C ) :   1.0695
B( 12-C , 13-H ) :   0.9691 B( 12-C , 14-H ) :   0.9812 B( 12-C , 15-H ) :   0.9688
B( 16-S , 17-C ) :   1.1824 B( 16-S , 20-C ) :   1.1405 B( 17-C , 18-C ) :   1.5750
B( 17-C , 20-C ) :   0.1076 B( 17-C , 33-H ) :   0.9654 B( 18-C , 19-C ) :   1.2703
B( 18-C , 21-H ) :   0.9778 B( 19-C , 20-C ) :   1.5608 B( 19-C , 22-C ) :   1.0310
B( 22-C , 23-H ) :   0.9376 B( 22-C , 24-H ) :   0.9266 B( 22-C , 25-C ) :   1.0768
B( 25-C , 26-H ) :   0.9553 B( 25-C , 27-H ) :   0.9541 B( 25-C , 28-C ) :   1.0751
B( 28-C , 29-H ) :   0.9775 B( 28-C , 30-H ) :   0.9742 B( 28-C , 31-H ) :   0.9752

Dispersion correction           -0.014793030
FINAL SINGLE POINT ENERGY     -1339.869285099973

DIPOLE MOMENT
-------------
                                X             Y             Z
Electronic contribution:     -9.84261      17.64660     -16.24572
Nuclear contribution   :      9.64453     -18.20203      16.61160
                        -----------------------------------------
Total Dipole Moment    :     -0.19808      -0.55543       0.36588
                        -----------------------------------------
Magnitude (a.u.)       :      0.69398
Magnitude (Debye)      :      1.76395

Rotational constants in cm-1:     0.019924     0.008912     0.007220
Rotational constants in MHz :   597.313340   267.186348   216.445907

                             ****ORCA TERMINATED NORMALLY****
TOTAL RUN TIME: 0 days 0 hours 0 minutes 32 seconds 708 msec
