                         Program Version 4.2.1 -  RELEASE  -
|  1> ! wB97X-D3 SP def2-SVP
|  2> %pal
|  3> nprocs 16
|  4> end
|  5>
|  6> * xyz 0 1
|  7> S 	 56.2597 	 6.30584 	 64.6643
|  8> C 	 56.3902 	 7.74763 	 65.6644
|  9> C 	 55.4442 	 8.67262 	 65.2532
| 10> C 	 54.5252 	 8.0402 	 64.3222
| 11> C 	 54.824 	 6.77847 	 63.8496
| 12> H 	 53.5786 	 8.59956 	 64.0786
| 13> C 	 55.3114 	 10.14 	 65.6807
| 14> H 	 55.3406 	 10.6852 	 64.7131
| 15> H 	 56.2563 	 10.4584 	 66.1627
| 16> C 	 54.1195 	 10.5735 	 66.5771
| 17> H 	 53.1854 	 10.2775 	 66.1683
| 18> H 	 54.1517 	 9.93641 	 67.4977
| 19> C 	 53.9951 	 12.0266 	 67.0031
| 20> H 	 54.4546 	 12.1722 	 67.9797
| 21> H 	 54.3089 	 12.6508 	 66.2002
| 22> H 	 52.9248 	 12.2836 	 67.1652
| 23> S 	 53.7787 	 4.24523 	 63.7293
| 24> C 	 52.9711 	 3.67152 	 62.3231
| 25> C 	 52.655 	 4.69995 	 61.4716
| 26> C 	 53.3196 	 5.90524 	 61.8769
| 27> C 	 53.9853 	 5.83173 	 63.1277
| 28> H 	 52.0977 	 4.58643 	 60.5519
| 29> C 	 53.2209 	 7.17914 	 60.9967
| 30> H 	 53.648 	 7.96324 	 61.6767
| 31> H 	 52.1579 	 7.43022 	 60.7415
| 32> C 	 53.9323 	 6.99536 	 59.7306
| 33> H 	 53.4736 	 6.16193 	 59.18
| 34> H 	 55.0071 	 6.66361 	 60.0275
| 35> C 	 53.9417 	 8.31658 	 58.8989
| 36> H 	 54.4649 	 8.08063 	 57.966
| 37> H 	 54.5111 	 9.07352 	 59.465
| 38> H 	 52.9832 	 8.65459 	 58.6105
| 39> H 	 57.1156 	 7.94966 	 66.3821
| 40> H 	 52.5935 	 2.66652 	 62.2192
| 41> *
| 42>
| 43>                          ****END OF INPUT****

CARTESIAN COORDINATES (ANGSTROEM)
---------------------------------
  S     56.259700    6.305840   64.664300
  C     56.390200    7.747630   65.664400
  C     55.444200    8.672620   65.253200
  C     54.525200    8.040200   64.322200
  C     54.824000    6.778470   63.849600
  H     53.578600    8.599560   64.078600
  C     55.311400   10.140000   65.680700
  H     55.340600   10.685200   64.713100
  H     56.256300   10.458400   66.162700
  C     54.119500   10.573500   66.577100
  H     53.185400   10.277500   66.168300
  H     54.151700    9.936410   67.497700
  C     53.995100   12.026600   67.003100
  H     54.454600   12.172200   67.979700
  H     54.308900   12.650800   66.200200
  H     52.924800   12.283600   67.165200
  S     53.778700    4.245230   63.729300
  C     52.971100    3.671520   62.323100
  C     52.655000    4.699950   61.471600
  C     53.319600    5.905240   61.876900
  C     53.985300    5.831730   63.127700
  H     52.097700    4.586430   60.551900
  C     53.220900    7.179140   60.996700
  H     53.648000    7.963240   61.676700
  H     52.157900    7.430220   60.741500
  C     53.932300    6.995360   59.730600
  H     53.473600    6.161930   59.180000
  H     55.007100    6.663610   60.027500
  C     53.941700    8.316580   58.898900
  H     54.464900    8.080630   57.966000
  H     54.511100    9.073520   59.465000
  H     52.983200    8.654590   58.610500
  H     57.115600    7.949660   66.382100
  H     52.593500    2.666520   62.219200

 Total Charge           Charge          ....    0
 Multiplicity           Mult            ....    1
 Number of Electrons    NEL             ....  134
 Basis Dimension        Dim             ....  322

ORBITAL ENERGIES
----------------

  NO   OCC          E(Eh)            E(eV)
   0   2.0000     -88.965158     -2420.8650
   1   2.0000     -88.964388     -2420.8441
   2   2.0000     -10.331462      -281.1334
   3   2.0000     -10.328204      -281.0447
   4   2.0000     -10.315399      -280.6963
   5   2.0000     -10.314916      -280.6831
   6   2.0000     -10.306665      -280.4586
   7   2.0000     -10.304456      -280.3985
   8   2.0000     -10.302699      -280.3507
   9   2.0000     -10.298648      -280.2405
  10   2.0000     -10.293762      -280.1075
  11   2.0000     -10.288965      -279.9770
  12   2.0000     -10.287645      -279.9410
  13   2.0000     -10.287395      -279.9342
  14   2.0000     -10.279919      -279.7308
  15   2.0000     -10.276617      -279.6410
  16   2.0000      -8.081081      -219.8974
  17   2.0000      -8.079599      -219.8571
  18   2.0000      -6.039465      -164.3422
  19   2.0000      -6.038236      -164.3088
  20   2.0000      -6.035275      -164.2282
  21   2.0000      -6.033843      -164.1892
  22   2.0000      -6.032019      -164.1396
  23   2.0000      -6.030340      -164.0939
  24   2.0000      -1.012460       -27.5504
  25   2.0000      -0.989377       -26.9223
  26   2.0000      -0.912603       -24.8332
  27   2.0000      -0.908963       -24.7341
  28   2.0000      -0.875435       -23.8218
  29   2.0000      -0.846046       -23.0221
  30   2.0000      -0.844046       -22.9677
  31   2.0000      -0.816131       -22.2080
  32   2.0000      -0.783357       -21.3162
  33   2.0000      -0.772391       -21.0178
  34   2.0000      -0.706899       -19.2357
  35   2.0000      -0.699627       -19.0378
  36   2.0000      -0.689467       -18.7614
  37   2.0000      -0.657554       -17.8929
  38   2.0000      -0.641140       -17.4463
  39   2.0000      -0.621136       -16.9020
  40   2.0000      -0.595400       -16.2017
  41   2.0000      -0.573240       -15.5987
  42   2.0000      -0.567646       -15.4464
  43   2.0000      -0.562296       -15.3009
  44   2.0000      -0.532395       -14.4872
  45   2.0000      -0.519933       -14.1481
  46   2.0000      -0.515611       -14.0305
  47   2.0000      -0.513645       -13.9770
  48   2.0000      -0.510137       -13.8815
  49   2.0000      -0.502491       -13.6735
  50   2.0000      -0.500165       -13.6102
  51   2.0000      -0.479948       -13.0600
  52   2.0000      -0.472476       -12.8567
  53   2.0000      -0.463429       -12.6106
  54   2.0000      -0.458479       -12.4759
  55   2.0000      -0.452758       -12.3202
  56   2.0000      -0.445088       -12.1115
  57   2.0000      -0.437333       -11.9004
  58   2.0000      -0.432164       -11.7598
  59   2.0000      -0.417822       -11.3695
  60   2.0000      -0.412537       -11.2257
  61   2.0000      -0.411163       -11.1883
  62   2.0000      -0.405421       -11.0321
  63   2.0000      -0.352011        -9.5787
  64   2.0000      -0.331540        -9.0217
  65   2.0000      -0.324722        -8.8361
  66   2.0000      -0.294660        -8.0181
  67   0.0000       0.028651         0.7796
  68   0.0000       0.077964         2.1215
  69   0.0000       0.110399         3.0041
  70   0.0000       0.118319         3.2196
  71   0.0000       0.139204         3.7879

MULLIKEN ATOMIC CHARGES
-----------------------
   0 S :    0.100968
   1 C :   -0.096330
   2 C :   -0.103528
   3 C :   -0.001941
   4 C :   -0.134845
   5 H :    0.035168
   6 C :    0.058139
   7 H :    0.038416
   8 H :    0.019767
   9 C :   -0.078117
  10 H :    0.014925
  11 H :    0.028434
  12 C :   -0.031389
  13 H :    0.041385
  14 H :    0.029756
  15 H :    0.031295
  16 S :    0.118212
  17 C :   -0.091453
  18 C :   -0.015967
  19 C :   -0.078523
  20 C :   -0.133581
  21 H :    0.023964
  22 C :    0.067762
  23 H :    0.022075
  24 H :    0.030001
  25 C :   -0.139322
  26 H :    0.029833
  27 H :    0.044648
  28 C :   -0.004721
  29 H :    0.032317
  30 H :    0.039207
  31 H :    0.020252
  32 H :    0.025080
  33 H :    0.058113
Sum of atomic charges:   -0.0000000

LOEWDIN ATOMIC CHARGES
----------------------
   0 S :    0.415594
   1 C :   -0.179507
   2 C :   -0.064625
   3 C :   -0.070691
   4 C :   -0.213018
   5 H :    0.034548
   6 C :   -0.036261
   7 H :    0.036401
   8 H :    0.030974
   9 C :   -0.048505
  10 H :    0.016494
  11 H :    0.030474
  12 C :   -0.063898
  13 H :    0.028790
  14 H :    0.022274
  15 H :    0.034069
  16 S :    0.442220
  17 C :   -0.190296
  18 C :   -0.072671
  19 C :   -0.050164
  20 C :   -0.222782
  21 H :    0.032493
  22 C :   -0.042646
  23 H :    0.030904
  24 H :    0.031295
  25 C :   -0.050302
  26 H :    0.020968
  27 H :    0.035523
  28 C :   -0.059648
  29 H :    0.028198
  30 H :    0.030397
  31 H :    0.016641
  32 H :    0.017679
  33 H :    0.029083

  Mayer bond orders larger than 0.100000
B(  0-S ,  1-C ) :   1.1451 B(  0-S ,  4-C ) :   1.1456 B(  1-C ,  2-C ) :   1.5943
B(  1-C , 32-H ) :   0.9778 B(  2-C ,  3-C ) :   1.2618 B(  2-C ,  6-C ) :   1.0225
B(  3-C ,  4-C ) :   1.5644 B(  3-C ,  5-H ) :   0.9756 B(  4-C , 20-C ) :   1.0412
B(  6-C ,  7-H ) :   0.9353 B(  6-C ,  8-H ) :   0.9438 B(  6-C ,  9-C ) :   1.0558
B(  9-C , 10-H ) :   0.9602 B(  9-C , 11-H ) :   0.9547 B(  9-C , 12-C ) :   1.0816
B( 12-C , 13-H ) :   0.9781 B( 12-C , 14-H ) :   0.9751 B( 12-C , 15-H ) :   0.9746
B( 16-S , 17-C ) :   1.1833 B( 16-S , 20-C ) :   1.1547 B( 17-C , 18-C ) :   1.5645
B( 17-C , 33-H ) :   0.9678 B( 18-C , 19-C ) :   1.2791 B( 18-C , 21-H ) :   0.9902
B( 19-C , 20-C ) :   1.5566 B( 19-C , 22-C ) :   1.0339 B( 22-C , 23-H ) :   0.9320
B( 22-C , 24-H ) :   0.9354 B( 22-C , 25-C ) :   1.0664 B( 25-C , 26-H ) :   0.9543
B( 25-C , 27-H ) :   0.9516 B( 25-C , 28-C ) :   1.0801 B( 28-C , 29-H ) :   0.9744
B( 28-C , 30-H ) :   0.9749 B( 28-C , 31-H ) :   0.9723

Dispersion correction           -0.013236729
FINAL SINGLE POINT ENERGY     -1339.874498761551

DIPOLE MOMENT
-------------
                                X             Y             Z
Electronic contribution:      6.01358     -26.45455       6.53062
Nuclear contribution   :     -6.35762      26.97524      -6.65657
                        -----------------------------------------
Total Dipole Moment    :     -0.34404       0.52068      -0.12595
                        -----------------------------------------
Magnitude (a.u.)       :      0.63666
Magnitude (Debye)      :      1.61827

Rotational constants in cm-1:     0.017614     0.007748     0.006282
Rotational constants in MHz :   528.052975   232.265458   188.342149

                             ****ORCA TERMINATED NORMALLY****
TOTAL RUN TIME: 0 days 0 hours 0 minutes 28 seconds 775 msec
