                         Program Version 4.2.1 -  RELEASE  -
|  1> ! wB97X-D3 SP def2-SVP
|  2> %pal
|  3> nprocs 16
|  4> end
|  5>
|  6> * xyz 0 1
|  7> S 	 -36.3732 	 59.433 	 109.153
|  8> C 	 -37.9746 	 58.7223 	 109.107
|  9> C 	 -38.1378 	 57.8265 	 108.026
| 10> C 	 -36.8692 	 57.5324 	 107.421
| 11> C 	 -35.9047 	 58.5584 	 107.659
| 12> H 	 -36.6836 	 56.7314 	 106.686
| 13> C 	 -39.4083 	 57.0444 	 107.65
| 14> H 	 -39.3932 	 56.758 	 106.588
| 15> H 	 -40.2088 	 57.846 	 107.859
| 16> C 	 -39.718 	 55.8159 	 108.53
| 17> H 	 -39.4412 	 55.9829 	 109.611
| 18> H 	 -40.7257 	 55.5027 	 108.426
| 19> C 	 -38.922 	 54.5818 	 108.146
| 20> H 	 -37.8787 	 54.9275 	 108.026
| 21> H 	 -38.8635 	 53.769 	 108.938
| 22> H 	 -39.2358 	 54.0934 	 107.201
| 23> S 	 -33.2137 	 58.8451 	 108.497
| 24> C 	 -32.093 	 59.4315 	 107.358
| 25> C 	 -32.609 	 59.3896 	 106.054
| 26> C 	 -34.0065 	 59.1144 	 105.966
| 27> C 	 -34.474 	 58.7464 	 107.188
| 28> H 	 -31.953 	 59.6648 	 105.221
| 29> C 	 -34.804 	 59.142 	 104.674
| 30> H 	 -35.6361 	 59.8936 	 104.769
| 31> H 	 -35.3489 	 58.1773 	 104.5
| 32> C 	 -34.0325 	 59.4418 	 103.328
| 33> H 	 -33.2247 	 58.7986 	 103.196
| 34> H 	 -33.6348 	 60.4192 	 103.374
| 35> C 	 -34.9807 	 59.3845 	 102.196
| 36> H 	 -35.8531 	 59.975 	 102.466
| 37> H 	 -35.3326 	 58.3791 	 101.935
| 38> H 	 -34.4517 	 59.8294 	 101.44
| 39> H 	 -38.702 	 58.9486 	 109.859
| 40> H 	 -31.0173 	 59.6647 	 107.497
| 41> *
| 42>
| 43>                          ****END OF INPUT****

CARTESIAN COORDINATES (ANGSTROEM)
---------------------------------
  S    -36.373200   59.433000  109.153000
  C    -37.974600   58.722300  109.107000
  C    -38.137800   57.826500  108.026000
  C    -36.869200   57.532400  107.421000
  C    -35.904700   58.558400  107.659000
  H    -36.683600   56.731400  106.686000
  C    -39.408300   57.044400  107.650000
  H    -39.393200   56.758000  106.588000
  H    -40.208800   57.846000  107.859000
  C    -39.718000   55.815900  108.530000
  H    -39.441200   55.982900  109.611000
  H    -40.725700   55.502700  108.426000
  C    -38.922000   54.581800  108.146000
  H    -37.878700   54.927500  108.026000
  H    -38.863500   53.769000  108.938000
  H    -39.235800   54.093400  107.201000
  S    -33.213700   58.845100  108.497000
  C    -32.093000   59.431500  107.358000
  C    -32.609000   59.389600  106.054000
  C    -34.006500   59.114400  105.966000
  C    -34.474000   58.746400  107.188000
  H    -31.953000   59.664800  105.221000
  C    -34.804000   59.142000  104.674000
  H    -35.636100   59.893600  104.769000
  H    -35.348900   58.177300  104.500000
  C    -34.032500   59.441800  103.328000
  H    -33.224700   58.798600  103.196000
  H    -33.634800   60.419200  103.374000
  C    -34.980700   59.384500  102.196000
  H    -35.853100   59.975000  102.466000
  H    -35.332600   58.379100  101.935000
  H    -34.451700   59.829400  101.440000
  H    -38.702000   58.948600  109.859000
  H    -31.017300   59.664700  107.497000

 Total Charge           Charge          ....    0
 Multiplicity           Mult            ....    1
 Number of Electrons    NEL             ....  134
 Basis Dimension        Dim             ....  322

ORBITAL ENERGIES
----------------

  NO   OCC          E(Eh)            E(eV)
   0   2.0000     -88.967149     -2420.9192
   1   2.0000     -88.966034     -2420.8889
   2   2.0000     -10.337656      -281.3019
   3   2.0000     -10.328683      -281.0578
   4   2.0000     -10.317579      -280.7556
   5   2.0000     -10.317337      -280.7490
   6   2.0000     -10.308106      -280.4978
   7   2.0000     -10.304073      -280.3881
   8   2.0000     -10.303558      -280.3741
   9   2.0000     -10.303341      -280.3681
  10   2.0000     -10.300263      -280.2844
  11   2.0000     -10.293162      -280.0912
  12   2.0000     -10.287465      -279.9362
  13   2.0000     -10.281522      -279.7744
  14   2.0000     -10.277891      -279.6756
  15   2.0000     -10.269067      -279.4355
  16   2.0000      -8.081520      -219.9093
  17   2.0000      -8.079899      -219.8652
  18   2.0000      -6.040023      -164.3574
  19   2.0000      -6.038354      -164.3120
  20   2.0000      -6.036113      -164.2510
  21   2.0000      -6.034559      -164.2087
  22   2.0000      -6.032258      -164.1461
  23   2.0000      -6.030717      -164.1042
  24   2.0000      -0.998318       -27.1656
  25   2.0000      -0.977321       -26.5943
  26   2.0000      -0.915122       -24.9017
  27   2.0000      -0.907947       -24.7065
  28   2.0000      -0.865852       -23.5610
  29   2.0000      -0.854087       -23.2409
  30   2.0000      -0.840296       -22.8656
  31   2.0000      -0.806285       -21.9401
  32   2.0000      -0.781245       -21.2588
  33   2.0000      -0.766891       -20.8682
  34   2.0000      -0.706735       -19.2312
  35   2.0000      -0.695249       -18.9187
  36   2.0000      -0.689841       -18.7715
  37   2.0000      -0.649757       -17.6808
  38   2.0000      -0.637874       -17.3574
  39   2.0000      -0.611865       -16.6497
  40   2.0000      -0.597233       -16.2515
  41   2.0000      -0.575188       -15.6517
  42   2.0000      -0.571670       -15.5559
  43   2.0000      -0.547794       -14.9062
  44   2.0000      -0.536991       -14.6123
  45   2.0000      -0.532316       -14.4851
  46   2.0000      -0.515987       -14.0407
  47   2.0000      -0.503611       -13.7039
  48   2.0000      -0.501085       -13.6352
  49   2.0000      -0.495052       -13.4711
  50   2.0000      -0.484374       -13.1805
  51   2.0000      -0.474155       -12.9024
  52   2.0000      -0.471188       -12.8217
  53   2.0000      -0.464517       -12.6401
  54   2.0000      -0.455091       -12.3836
  55   2.0000      -0.453527       -12.3411
  56   2.0000      -0.440364       -11.9829
  57   2.0000      -0.434481       -11.8228
  58   2.0000      -0.433184       -11.7875
  59   2.0000      -0.428424       -11.6580
  60   2.0000      -0.423121       -11.5137
  61   2.0000      -0.416427       -11.3316
  62   2.0000      -0.411646       -11.2014
  63   2.0000      -0.339675        -9.2430
  64   2.0000      -0.333130        -9.0649
  65   2.0000      -0.322437        -8.7739
  66   2.0000      -0.289872        -7.8878
  67   0.0000       0.024399         0.6639
  68   0.0000       0.061743         1.6801
  69   0.0000       0.103785         2.8241
  70   0.0000       0.114673         3.1204
  71   0.0000       0.130673         3.5558

MULLIKEN ATOMIC CHARGES
-----------------------
   0 S :    0.100999
   1 C :   -0.116982
   2 C :   -0.104371
   3 C :    0.014707
   4 C :   -0.151970
   5 H :    0.037540
   6 C :    0.028119
   7 H :    0.038025
   8 H :    0.048332
   9 C :   -0.031204
  10 H :    0.040738
  11 H :    0.028148
  12 C :   -0.109999
  13 H :    0.025914
  14 H :    0.045580
  15 H :    0.034896
  16 S :    0.113707
  17 C :   -0.093816
  18 C :   -0.071330
  19 C :    0.016977
  20 C :   -0.177146
  21 H :    0.022543
  22 C :    0.000171
  23 H :    0.046055
  24 H :    0.037507
  25 C :   -0.066419
  26 H :    0.019590
  27 H :    0.020814
  28 C :    0.020968
  29 H :    0.020088
  30 H :    0.032353
  31 H :    0.012729
  32 H :    0.049156
  33 H :    0.067583
Sum of atomic charges:    0.0000000

LOEWDIN ATOMIC CHARGES
----------------------
   0 S :    0.393613
   1 C :   -0.193527
   2 C :   -0.066160
   3 C :   -0.063700
   4 C :   -0.181939
   5 H :    0.033719
   6 C :   -0.035610
   7 H :    0.032725
   8 H :    0.045092
   9 C :   -0.044128
  10 H :    0.034688
  11 H :    0.018802
  12 C :   -0.078854
  13 H :    0.023734
  14 H :    0.032606
  15 H :    0.022381
  16 S :    0.397990
  17 C :   -0.206621
  18 C :   -0.080355
  19 C :   -0.055305
  20 C :   -0.186107
  21 H :    0.030091
  22 C :   -0.034865
  23 H :    0.040536
  24 H :    0.035681
  25 C :   -0.032043
  26 H :    0.014786
  27 H :    0.019786
  28 C :   -0.049620
  29 H :    0.026749
  30 H :    0.026316
  31 H :    0.017708
  32 H :    0.022306
  33 H :    0.039526

  Mayer bond orders larger than 0.100000
B(  0-S ,  1-C ) :   1.1569 B(  0-S ,  4-C ) :   1.1493 B(  1-C ,  2-C ) :   1.5769
B(  1-C ,  4-C ) :   0.1083 B(  1-C , 32-H ) :   0.9715 B(  2-C ,  3-C ) :   1.2551
B(  2-C ,  6-C ) :   1.0237 B(  3-C ,  4-C ) :   1.5681 B(  3-C ,  5-H ) :   0.9744
B(  4-C , 20-C ) :   1.0198 B(  6-C ,  7-H ) :   0.9461 B(  6-C ,  8-H ) :   0.9397
B(  6-C ,  9-C ) :   1.0602 B(  9-C , 10-H ) :   0.9562 B(  9-C , 11-H ) :   0.9575
B(  9-C , 12-C ) :   1.0705 B( 12-C , 13-H ) :   0.9748 B( 12-C , 14-H ) :   0.9741
B( 12-C , 15-H ) :   0.9757 B( 16-S , 17-C ) :   1.1631 B( 16-S , 20-C ) :   1.1273
B( 17-C , 18-C ) :   1.6101 B( 17-C , 33-H ) :   0.9557 B( 18-C , 19-C ) :   1.2476
B( 18-C , 21-H ) :   0.9792 B( 19-C , 20-C ) :   1.6316 B( 19-C , 22-C ) :   1.0209
B( 22-C , 23-H ) :   0.9238 B( 22-C , 24-H ) :   0.9450 B( 22-C , 25-C ) :   1.0809
B( 25-C , 26-H ) :   0.9482 B( 25-C , 27-H ) :   0.9480 B( 25-C , 28-C ) :   1.0963
B( 28-C , 29-H ) :   0.9696 B( 28-C , 30-H ) :   0.9728 B( 28-C , 31-H ) :   0.9671

Dispersion correction           -0.013465631
FINAL SINGLE POINT ENERGY     -1339.857111157190

DIPOLE MOMENT
-------------
                                X             Y             Z
Electronic contribution:     13.48136      11.04292      19.65216
Nuclear contribution   :    -13.66497     -11.21726     -20.20145
                        -----------------------------------------
Total Dipole Moment    :     -0.18360      -0.17434      -0.54929
                        -----------------------------------------
Magnitude (a.u.)       :      0.60483
Magnitude (Debye)      :      1.53736

Rotational constants in cm-1:     0.017564     0.008025     0.006284
Rotational constants in MHz :   526.569032   240.595108   188.396648

                             ****ORCA TERMINATED NORMALLY****
TOTAL RUN TIME: 0 days 0 hours 0 minutes 28 seconds 948 msec
