                         Program Version 4.2.1 -  RELEASE  -
|  1> ! wB97X-D3 SP def2-SVP
|  2> %pal
|  3> nprocs 16
|  4> end
|  5>
|  6> * xyz 0 1
|  7> S 	 -46.0411 	 32.1854 	 98.166
|  8> C 	 -46.2242 	 33.3257 	 96.8021
|  9> C 	 -46.5896 	 34.6281 	 97.1999
| 10> C 	 -46.9713 	 34.6411 	 98.5943
| 11> C 	 -46.6954 	 33.4169 	 99.2409
| 12> H 	 -47.405 	 35.4048 	 99.1459
| 13> C 	 -46.6829 	 35.9375 	 96.3306
| 14> H 	 -47.1958 	 36.6692 	 96.9681
| 15> H 	 -47.3962 	 35.7393 	 95.4791
| 16> C 	 -45.3523 	 36.5746 	 96.0267
| 17> H 	 -44.7275 	 36.5603 	 96.9603
| 18> H 	 -44.8864 	 35.9995 	 95.2017
| 19> C 	 -45.5348 	 38.0202 	 95.6556
| 20> H 	 -44.6599 	 38.4633 	 95.0665
| 21> H 	 -46.4637 	 38.2768 	 95.0123
| 22> H 	 -45.6528 	 38.6669 	 96.502
| 23> S 	 -48.2687 	 31.8247 	 100.877
| 24> C 	 -48.5984 	 32.3237 	 102.488
| 25> C 	 -47.7346 	 33.3842 	 102.878
| 26> C 	 -46.86 	 33.7948 	 101.813
| 27> C 	 -47.1196 	 33.152 	 100.623
| 28> H 	 -47.8285 	 33.8215 	 103.853
| 29> C 	 -45.8027 	 34.9411 	 102.084
| 30> H 	 -45.0923 	 34.923 	 101.293
| 31> H 	 -45.2634 	 34.5046 	 102.89
| 32> C 	 -46.3968 	 36.334 	 102.259
| 33> H 	 -47.1112 	 36.2695 	 103.067
| 34> H 	 -47.0213 	 36.3931 	 101.371
| 35> C 	 -45.5186 	 37.5838 	 102.408
| 36> H 	 -44.9125 	 37.6939 	 101.519
| 37> H 	 -44.8499 	 37.5695 	 103.274
| 38> H 	 -45.9949 	 38.5788 	 102.463
| 39> H 	 -45.8378 	 33.2309 	 95.8635
| 40> H 	 -49.2907 	 31.7892 	 103.182
| 41> *
| 42>
| 43>                          ****END OF INPUT****

CARTESIAN COORDINATES (ANGSTROEM)
---------------------------------
  S    -46.041100   32.185400   98.166000
  C    -46.224200   33.325700   96.802100
  C    -46.589600   34.628100   97.199900
  C    -46.971300   34.641100   98.594300
  C    -46.695400   33.416900   99.240900
  H    -47.405000   35.404800   99.145900
  C    -46.682900   35.937500   96.330600
  H    -47.195800   36.669200   96.968100
  H    -47.396200   35.739300   95.479100
  C    -45.352300   36.574600   96.026700
  H    -44.727500   36.560300   96.960300
  H    -44.886400   35.999500   95.201700
  C    -45.534800   38.020200   95.655600
  H    -44.659900   38.463300   95.066500
  H    -46.463700   38.276800   95.012300
  H    -45.652800   38.666900   96.502000
  S    -48.268700   31.824700  100.877000
  C    -48.598400   32.323700  102.488000
  C    -47.734600   33.384200  102.878000
  C    -46.860000   33.794800  101.813000
  C    -47.119600   33.152000  100.623000
  H    -47.828500   33.821500  103.853000
  C    -45.802700   34.941100  102.084000
  H    -45.092300   34.923000  101.293000
  H    -45.263400   34.504600  102.890000
  C    -46.396800   36.334000  102.259000
  H    -47.111200   36.269500  103.067000
  H    -47.021300   36.393100  101.371000
  C    -45.518600   37.583800  102.408000
  H    -44.912500   37.693900  101.519000
  H    -44.849900   37.569500  103.274000
  H    -45.994900   38.578800  102.463000
  H    -45.837800   33.230900   95.863500
  H    -49.290700   31.789200  103.182000

 Total Charge           Charge          ....    0
 Multiplicity           Mult            ....    1
 Number of Electrons    NEL             ....  134
 Basis Dimension        Dim             ....  322

ORBITAL ENERGIES
----------------

  NO   OCC          E(Eh)            E(eV)
   0   2.0000     -88.974108     -2421.1086
   1   2.0000     -88.964095     -2420.8361
   2   2.0000     -10.333430      -281.1869
   3   2.0000     -10.327101      -281.0147
   4   2.0000     -10.322885      -280.9000
   5   2.0000     -10.312702      -280.6229
   6   2.0000     -10.309578      -280.5379
   7   2.0000     -10.307504      -280.4814
   8   2.0000     -10.301794      -280.3261
   9   2.0000     -10.296547      -280.1833
  10   2.0000     -10.294610      -280.1306
  11   2.0000     -10.293922      -280.1119
  12   2.0000     -10.290158      -280.0094
  13   2.0000     -10.288478      -279.9637
  14   2.0000     -10.288147      -279.9547
  15   2.0000     -10.282998      -279.8146
  16   2.0000      -8.087497      -220.0720
  17   2.0000      -8.079128      -219.8443
  18   2.0000      -6.046117      -164.5232
  19   2.0000      -6.042257      -164.4182
  20   2.0000      -6.038167      -164.3069
  21   2.0000      -6.037509      -164.2890
  22   2.0000      -6.033552      -164.1813
  23   2.0000      -6.030036      -164.0856
  24   2.0000      -1.000189       -27.2165
  25   2.0000      -0.976030       -26.5591
  26   2.0000      -0.914992       -24.8982
  27   2.0000      -0.906603       -24.6699
  28   2.0000      -0.864070       -23.5125
  29   2.0000      -0.851346       -23.1663
  30   2.0000      -0.845187       -22.9987
  31   2.0000      -0.806640       -21.9498
  32   2.0000      -0.785923       -21.3861
  33   2.0000      -0.774006       -21.0618
  34   2.0000      -0.708749       -19.2860
  35   2.0000      -0.700500       -19.0616
  36   2.0000      -0.692286       -18.8381
  37   2.0000      -0.661401       -17.9976
  38   2.0000      -0.643574       -17.5125
  39   2.0000      -0.612589       -16.6694
  40   2.0000      -0.590344       -16.0641
  41   2.0000      -0.572683       -15.5835
  42   2.0000      -0.564682       -15.3658
  43   2.0000      -0.560934       -15.2638
  44   2.0000      -0.522711       -14.2237
  45   2.0000      -0.520555       -14.1650
  46   2.0000      -0.514871       -14.0104
  47   2.0000      -0.513523       -13.9737
  48   2.0000      -0.505282       -13.7494
  49   2.0000      -0.500424       -13.6172
  50   2.0000      -0.494476       -13.4554
  51   2.0000      -0.476927       -12.9778
  52   2.0000      -0.471720       -12.8362
  53   2.0000      -0.466118       -12.6837
  54   2.0000      -0.456005       -12.4085
  55   2.0000      -0.453833       -12.3494
  56   2.0000      -0.446753       -12.1568
  57   2.0000      -0.432746       -11.7756
  58   2.0000      -0.430538       -11.7155
  59   2.0000      -0.426085       -11.5944
  60   2.0000      -0.420088       -11.4312
  61   2.0000      -0.417690       -11.3659
  62   2.0000      -0.412077       -11.2132
  63   2.0000      -0.340532        -9.2664
  64   2.0000      -0.334790        -9.1101
  65   2.0000      -0.330235        -8.9861
  66   2.0000      -0.292686        -7.9644
  67   0.0000       0.029736         0.8091
  68   0.0000       0.062011         1.6874
  69   0.0000       0.104434         2.8418
  70   0.0000       0.123110         3.3500
  71   0.0000       0.125958         3.4275

MULLIKEN ATOMIC CHARGES
-----------------------
   0 S :    0.120886
   1 C :   -0.065526
   2 C :   -0.110612
   3 C :    0.055088
   4 C :   -0.157424
   5 H :   -0.011667
   6 C :    0.030647
   7 H :    0.014116
   8 H :    0.056236
   9 C :   -0.042882
  10 H :    0.048203
  11 H :    0.040106
  12 C :   -0.102196
  13 H :    0.045285
  14 H :    0.039716
  15 H :    0.031316
  16 S :    0.111969
  17 C :   -0.114037
  18 C :   -0.046585
  19 C :   -0.068163
  20 C :   -0.169109
  21 H :    0.019695
  22 C :    0.120713
  23 H :    0.005908
  24 H :    0.020244
  25 C :   -0.051352
  26 H :    0.017353
  27 H :    0.017190
  28 C :   -0.034320
  29 H :    0.022444
  30 H :    0.032996
  31 H :    0.036438
  32 H :    0.009788
  33 H :    0.077539
Sum of atomic charges:   -0.0000000

LOEWDIN ATOMIC CHARGES
----------------------
   0 S :    0.395467
   1 C :   -0.181467
   2 C :   -0.049764
   3 C :   -0.049822
   4 C :   -0.190648
   5 H :    0.017716
   6 C :   -0.034503
   7 H :    0.028045
   8 H :    0.039899
   9 C :   -0.048409
  10 H :    0.038347
  11 H :    0.027708
  12 C :   -0.081758
  13 H :    0.034457
  14 H :    0.032552
  15 H :    0.020262
  16 S :    0.410374
  17 C :   -0.200487
  18 C :   -0.075482
  19 C :   -0.052465
  20 C :   -0.198670
  21 H :    0.027845
  22 C :   -0.019311
  23 H :    0.022277
  24 H :    0.026150
  25 C :   -0.043005
  26 H :    0.020153
  27 H :    0.025466
  28 C :   -0.069969
  29 H :    0.023976
  30 H :    0.026336
  31 H :    0.033311
  32 H :    0.006432
  33 H :    0.038989

  Mayer bond orders larger than 0.100000
B(  0-S ,  1-C ) :   1.1246 B(  0-S ,  4-C ) :   1.1509 B(  1-C ,  2-C ) :   1.6319
B(  1-C , 32-H ) :   0.9699 B(  2-C ,  3-C ) :   1.2324 B(  2-C ,  6-C ) :   1.0075
B(  3-C ,  4-C ) :   1.5743 B(  3-C ,  5-H ) :   0.9952 B(  4-C , 20-C ) :   1.0297
B(  6-C ,  7-H ) :   0.9480 B(  6-C ,  8-H ) :   0.9399 B(  6-C ,  9-C ) :   1.0577
B(  9-C , 10-H ) :   0.9538 B(  9-C , 11-H ) :   0.9556 B(  9-C , 12-C ) :   1.0765
B( 12-C , 13-H ) :   0.9733 B( 12-C , 14-H ) :   0.9725 B( 12-C , 15-H ) :   0.9739
B( 16-S , 17-C ) :   1.1773 B( 16-S , 20-C ) :   1.1338 B( 17-C , 18-C ) :   1.5837
B( 17-C , 33-H ) :   0.9628 B( 18-C , 19-C ) :   1.2425 B( 18-C , 21-H ) :   0.9940
B( 19-C , 20-C ) :   1.6120 B( 19-C , 22-C ) :   1.0247 B( 22-C , 23-H ) :   0.9320
B( 22-C , 24-H ) :   0.9341 B( 22-C , 25-C ) :   1.0497 B( 25-C , 26-H ) :   0.9564
B( 25-C , 27-H ) :   0.9523 B( 25-C , 28-C ) :   1.0801 B( 28-C , 29-H ) :   0.9730
B( 28-C , 30-H ) :   0.9760 B( 28-C , 31-H ) :   0.9741

Dispersion correction           -0.013927871
FINAL SINGLE POINT ENERGY     -1339.862744026527

DIPOLE MOMENT
-------------
                                X             Y             Z
Electronic contribution:     -8.32748     -31.78676       2.94144
Nuclear contribution   :      8.44195      32.53795      -2.87037
                        -----------------------------------------
Total Dipole Moment    :      0.11448       0.75119       0.07107
                        -----------------------------------------
Magnitude (a.u.)       :      0.76318
Magnitude (Debye)      :      1.93985

Rotational constants in cm-1:     0.016512     0.008983     0.006308
Rotational constants in MHz :   495.020562   269.307680   189.095210

                             ****ORCA TERMINATED NORMALLY****
TOTAL RUN TIME: 0 days 0 hours 0 minutes 29 seconds 491 msec
