                         Program Version 4.2.1 -  RELEASE  -
|  1> ! wB97X-D3 SP def2-SVP
|  2> %pal
|  3> nprocs 16
|  4> end
|  5>
|  6> * xyz 0 1
|  7> S 	 -14.6499 	 -10.3105 	 85.2273
|  8> C 	 -15.8226 	 -10.4013 	 86.4937
|  9> C 	 -15.2738 	 -10.4159 	 87.7537
| 10> C 	 -13.8208 	 -10.3991 	 87.7064
| 11> C 	 -13.3325 	 -10.255 	 86.4073
| 12> H 	 -13.0619 	 -10.4073 	 88.4582
| 13> C 	 -16.02 	 -10.6374 	 89.0267
| 14> H 	 -17.0366 	 -10.8465 	 88.7307
| 15> H 	 -15.9968 	 -9.75695 	 89.5564
| 16> C 	 -15.5322 	 -11.7363 	 90.0547
| 17> H 	 -15.2247 	 -12.6778 	 89.5478
| 18> H 	 -14.6531 	 -11.4064 	 90.6513
| 19> C 	 -16.6688 	 -11.9109 	 91.1319
| 20> H 	 -17.4909 	 -12.1584 	 90.5877
| 21> H 	 -16.5807 	 -12.8349 	 91.8378
| 22> H 	 -16.8093 	 -10.9824 	 91.766
| 23> S 	 -11.6461 	 -11.7467 	 84.8929
| 24> C 	 -9.98387 	 -11.2277 	 84.7246
| 25> C 	 -9.66865 	 -10.1545 	 85.5355
| 26> C 	 -10.7577 	 -9.74191 	 86.2982
| 27> C 	 -11.9292 	 -10.3553 	 85.9383
| 28> H 	 -8.65232 	 -9.69708 	 85.5887
| 29> C 	 -10.66 	 -8.63031 	 87.2966
| 30> H 	 -10.8243 	 -9.00451 	 88.3275
| 31> H 	 -11.3851 	 -7.97306 	 87.0239
| 32> C 	 -9.31378 	 -7.82525 	 87.2903
| 33> H 	 -9.50647 	 -6.84551 	 87.7927
| 34> H 	 -8.99725 	 -7.61098 	 86.3225
| 35> C 	 -8.23047 	 -8.47754 	 88.058
| 36> H 	 -7.45514 	 -7.72092 	 88.2651
| 37> H 	 -7.71383 	 -9.30997 	 87.4969
| 38> H 	 -8.4863 	 -8.94828 	 88.9975
| 39> H 	 -16.8664 	 -10.3689 	 86.477
| 40> H 	 -9.08914 	 -11.6614 	 84.1626
| 41> *
| 42>
| 43>                          ****END OF INPUT****

CARTESIAN COORDINATES (ANGSTROEM)
---------------------------------
  S    -14.649900  -10.310500   85.227300
  C    -15.822600  -10.401300   86.493700
  C    -15.273800  -10.415900   87.753700
  C    -13.820800  -10.399100   87.706400
  C    -13.332500  -10.255000   86.407300
  H    -13.061900  -10.407300   88.458200
  C    -16.020000  -10.637400   89.026700
  H    -17.036600  -10.846500   88.730700
  H    -15.996800   -9.756950   89.556400
  C    -15.532200  -11.736300   90.054700
  H    -15.224700  -12.677800   89.547800
  H    -14.653100  -11.406400   90.651300
  C    -16.668800  -11.910900   91.131900
  H    -17.490900  -12.158400   90.587700
  H    -16.580700  -12.834900   91.837800
  H    -16.809300  -10.982400   91.766000
  S    -11.646100  -11.746700   84.892900
  C     -9.983870  -11.227700   84.724600
  C     -9.668650  -10.154500   85.535500
  C    -10.757700   -9.741910   86.298200
  C    -11.929200  -10.355300   85.938300
  H     -8.652320   -9.697080   85.588700
  C    -10.660000   -8.630310   87.296600
  H    -10.824300   -9.004510   88.327500
  H    -11.385100   -7.973060   87.023900
  C     -9.313780   -7.825250   87.290300
  H     -9.506470   -6.845510   87.792700
  H     -8.997250   -7.610980   86.322500
  C     -8.230470   -8.477540   88.058000
  H     -7.455140   -7.720920   88.265100
  H     -7.713830   -9.309970   87.496900
  H     -8.486300   -8.948280   88.997500
  H    -16.866400  -10.368900   86.477000
  H     -9.089140  -11.661400   84.162600

 Total Charge           Charge          ....    0
 Multiplicity           Mult            ....    1
 Number of Electrons    NEL             ....  134
 Basis Dimension        Dim             ....  322

ORBITAL ENERGIES
----------------

  NO   OCC          E(Eh)            E(eV)
   0   2.0000     -88.968141     -2420.9462
   1   2.0000     -88.967302     -2420.9234
   2   2.0000     -10.330575      -281.1092
   3   2.0000     -10.322878      -280.8998
   4   2.0000     -10.318524      -280.7813
   5   2.0000     -10.307211      -280.4735
   6   2.0000     -10.300203      -280.2828
   7   2.0000     -10.298896      -280.2472
   8   2.0000     -10.295498      -280.1548
   9   2.0000     -10.294742      -280.1342
  10   2.0000     -10.289895      -280.0023
  11   2.0000     -10.287523      -279.9377
  12   2.0000     -10.286589      -279.9123
  13   2.0000     -10.284757      -279.8625
  14   2.0000     -10.284637      -279.8592
  15   2.0000     -10.278778      -279.6998
  16   2.0000      -8.082325      -219.9313
  17   2.0000      -8.081765      -219.9160
  18   2.0000      -6.040861      -164.3802
  19   2.0000      -6.040367      -164.3667
  20   2.0000      -6.037010      -164.2754
  21   2.0000      -6.036266      -164.2551
  22   2.0000      -6.032965      -164.1653
  23   2.0000      -6.032508      -164.1529
  24   2.0000      -1.006783       -27.3960
  25   2.0000      -0.984838       -26.7988
  26   2.0000      -0.915769       -24.9193
  27   2.0000      -0.908058       -24.7095
  28   2.0000      -0.866991       -23.5920
  29   2.0000      -0.856075       -23.2950
  30   2.0000      -0.844989       -22.9933
  31   2.0000      -0.816863       -22.2280
  32   2.0000      -0.783275       -21.3140
  33   2.0000      -0.770462       -20.9653
  34   2.0000      -0.709799       -19.3146
  35   2.0000      -0.700419       -19.0594
  36   2.0000      -0.692976       -18.8568
  37   2.0000      -0.658441       -17.9171
  38   2.0000      -0.645186       -17.5564
  39   2.0000      -0.612455       -16.6657
  40   2.0000      -0.597373       -16.2553
  41   2.0000      -0.576233       -15.6801
  42   2.0000      -0.564073       -15.3492
  43   2.0000      -0.559617       -15.2279
  44   2.0000      -0.533293       -14.5116
  45   2.0000      -0.520552       -14.1649
  46   2.0000      -0.514151       -13.9908
  47   2.0000      -0.510208       -13.8835
  48   2.0000      -0.505837       -13.7645
  49   2.0000      -0.497332       -13.5331
  50   2.0000      -0.493457       -13.4276
  51   2.0000      -0.479212       -13.0400
  52   2.0000      -0.465446       -12.6654
  53   2.0000      -0.464300       -12.6343
  54   2.0000      -0.457006       -12.4358
  55   2.0000      -0.455285       -12.3889
  56   2.0000      -0.445819       -12.1314
  57   2.0000      -0.440232       -11.9793
  58   2.0000      -0.432650       -11.7730
  59   2.0000      -0.426871       -11.6158
  60   2.0000      -0.424356       -11.5473
  61   2.0000      -0.418285       -11.3821
  62   2.0000      -0.414263       -11.2727
  63   2.0000      -0.346183        -9.4201
  64   2.0000      -0.332531        -9.0486
  65   2.0000      -0.326263        -8.8781
  66   2.0000      -0.291346        -7.9279
  67   0.0000       0.032768         0.8917
  68   0.0000       0.067885         1.8473
  69   0.0000       0.111942         3.0461
  70   0.0000       0.127661         3.4738
  71   0.0000       0.131868         3.5883

MULLIKEN ATOMIC CHARGES
-----------------------
   0 S :    0.115768
   1 C :   -0.073729
   2 C :   -0.099643
   3 C :    0.049509
   4 C :   -0.178583
   5 H :   -0.000100
   6 C :    0.108577
   7 H :    0.005311
   8 H :    0.016608
   9 C :   -0.103429
  10 H :    0.048152
  11 H :    0.038304
  12 C :   -0.070510
  13 H :    0.012132
  14 H :    0.046215
  15 H :    0.050295
  16 S :    0.122360
  17 C :   -0.087434
  18 C :   -0.079332
  19 C :   -0.039467
  20 C :   -0.171862
  21 H :    0.032216
  22 C :    0.114974
  23 H :    0.038869
  24 H :    0.017115
  25 C :   -0.074322
  26 H :    0.033004
  27 H :    0.018338
  28 C :   -0.065864
  29 H :    0.035560
  30 H :    0.029516
  31 H :    0.026511
  32 H :    0.016123
  33 H :    0.068818
Sum of atomic charges:   -0.0000000

LOEWDIN ATOMIC CHARGES
----------------------
   0 S :    0.405697
   1 C :   -0.200074
   2 C :   -0.059661
   3 C :   -0.055141
   4 C :   -0.190477
   5 H :    0.026885
   6 C :   -0.026149
   7 H :    0.026444
   8 H :    0.024058
   9 C :   -0.038302
  10 H :    0.028315
  11 H :    0.025118
  12 C :   -0.070215
  13 H :    0.006305
  14 H :    0.037811
  15 H :    0.034356
  16 S :    0.410382
  17 C :   -0.202095
  18 C :   -0.082967
  19 C :   -0.059918
  20 C :   -0.199048
  21 H :    0.039316
  22 C :   -0.019438
  23 H :    0.035126
  24 H :    0.023124
  25 C :   -0.039330
  26 H :    0.033633
  27 H :    0.015473
  28 C :   -0.072301
  29 H :    0.029584
  30 H :    0.025011
  31 H :    0.022251
  32 H :    0.019182
  33 H :    0.047049

  Mayer bond orders larger than 0.100000
B(  0-S ,  1-C ) :   1.1261 B(  0-S ,  4-C ) :   1.1453 B(  1-C ,  2-C ) :   1.6482
B(  1-C , 32-H ) :   0.9615 B(  2-C ,  3-C ) :   1.1970 B(  2-C ,  6-C ) :   1.0356
B(  3-C ,  4-C ) :   1.6007 B(  3-C ,  5-H ) :   0.9945 B(  4-C , 20-C ) :   1.0135
B(  6-C ,  7-H ) :   0.9450 B(  6-C ,  8-H ) :   0.9205 B(  6-C ,  9-C ) :   1.0531
B(  9-C , 10-H ) :   0.9639 B(  9-C , 11-H ) :   0.9537 B(  9-C , 12-C ) :   1.0651
B( 12-C , 13-H ) :   0.9793 B( 12-C , 14-H ) :   0.9743 B( 12-C , 15-H ) :   0.9757
B( 16-S , 17-C ) :   1.1511 B( 16-S , 20-C ) :   1.1419 B( 17-C , 18-C ) :   1.6121
B( 17-C , 20-C ) :   0.1019 B( 17-C , 33-H ) :   0.9482 B( 18-C , 19-C ) :   1.2745
B( 18-C , 21-H ) :   0.9681 B( 19-C , 20-C ) :   1.6168 B( 19-C , 22-C ) :   1.0182
B( 22-C , 23-H ) :   0.9270 B( 22-C , 24-H ) :   0.9237 B( 22-C , 25-C ) :   1.0995
B( 25-C , 26-H ) :   0.9523 B( 25-C , 27-H ) :   0.9479 B( 25-C , 28-C ) :   1.0825
B( 28-C , 29-H ) :   0.9715 B( 28-C , 30-H ) :   0.9716 B( 28-C , 31-H ) :   0.9715

Dispersion correction           -0.013552615
FINAL SINGLE POINT ENERGY     -1339.851431122890

DIPOLE MOMENT
-------------
                                X             Y             Z
Electronic contribution:     -3.57504      -5.84226     -25.46978
Nuclear contribution   :      3.73317       6.05841      26.13249
                        -----------------------------------------
Total Dipole Moment    :      0.15813       0.21615       0.66270
                        -----------------------------------------
Magnitude (a.u.)       :      0.71477
Magnitude (Debye)      :      1.81681

Rotational constants in cm-1:     0.019168     0.007546     0.006212
Rotational constants in MHz :   574.645656   226.234435   186.243912

                             ****ORCA TERMINATED NORMALLY****
TOTAL RUN TIME: 0 days 0 hours 0 minutes 33 seconds 77 msec
