                         Program Version 4.2.1 -  RELEASE  -
|  1> ! wB97X-D3 SP def2-SVP
|  2> %pal
|  3> nprocs 16
|  4> end
|  5>
|  6> * xyz 0 1
|  7> S 	 -44.3371 	 29.4582 	 88.4987
|  8> C 	 -43.9303 	 29.5071 	 90.2041
|  9> C 	 -44.981 	 30.0285 	 90.9502
| 10> C 	 -46.1901 	 30.1254 	 90.1511
| 11> C 	 -46.0417 	 29.9272 	 88.7979
| 12> H 	 -47.1791 	 30.4005 	 90.5422
| 13> C 	 -45.0361 	 30.41 	 92.395
| 14> H 	 -44.0578 	 30.0481 	 92.7275
| 15> H 	 -45.8247 	 29.7993 	 92.8124
| 16> C 	 -45.3027 	 31.8717 	 92.7444
| 17> H 	 -44.3363 	 32.3928 	 92.8615
| 18> H 	 -45.7502 	 32.3314 	 91.8713
| 19> C 	 -46.2876 	 32.1884 	 93.8793
| 20> H 	 -47.1319 	 31.5347 	 93.7958
| 21> H 	 -45.8501 	 31.9919 	 94.8309
| 22> H 	 -46.6031 	 33.2577 	 93.8803
| 23> S 	 -48.3681 	 29.1697 	 87.5053
| 24> C 	 -49.1358 	 30.4331 	 86.4652
| 25> C 	 -48.4094 	 31.5722 	 86.3543
| 26> C 	 -47.2086 	 31.511 	 87.1461
| 27> C 	 -47.024 	 30.3288 	 87.8078
| 28> H 	 -48.7926 	 32.433 	 85.8384
| 29> C 	 -46.2493 	 32.7286 	 87.2313
| 30> H 	 -46.776 	 33.5685 	 86.6928
| 31> H 	 -45.2761 	 32.5654 	 86.7511
| 32> C 	 -45.9316 	 33.25 	 88.647
| 33> H 	 -45.0225 	 33.9242 	 88.5323
| 34> H 	 -45.5052 	 32.4485 	 89.2876
| 35> C 	 -47.0902 	 33.8707 	 89.323
| 36> H 	 -46.909 	 34.0578 	 90.4437
| 37> H 	 -48.0414 	 33.2937 	 89.2721
| 38> H 	 -47.3787 	 34.7215 	 88.7633
| 39> H 	 -42.9805 	 29.4329 	 90.6304
| 40> H 	 -50.0739 	 30.3407 	 85.996
| 41> *
| 42>
| 43>                          ****END OF INPUT****

CARTESIAN COORDINATES (ANGSTROEM)
---------------------------------
  S    -44.337100   29.458200   88.498700
  C    -43.930300   29.507100   90.204100
  C    -44.981000   30.028500   90.950200
  C    -46.190100   30.125400   90.151100
  C    -46.041700   29.927200   88.797900
  H    -47.179100   30.400500   90.542200
  C    -45.036100   30.410000   92.395000
  H    -44.057800   30.048100   92.727500
  H    -45.824700   29.799300   92.812400
  C    -45.302700   31.871700   92.744400
  H    -44.336300   32.392800   92.861500
  H    -45.750200   32.331400   91.871300
  C    -46.287600   32.188400   93.879300
  H    -47.131900   31.534700   93.795800
  H    -45.850100   31.991900   94.830900
  H    -46.603100   33.257700   93.880300
  S    -48.368100   29.169700   87.505300
  C    -49.135800   30.433100   86.465200
  C    -48.409400   31.572200   86.354300
  C    -47.208600   31.511000   87.146100
  C    -47.024000   30.328800   87.807800
  H    -48.792600   32.433000   85.838400
  C    -46.249300   32.728600   87.231300
  H    -46.776000   33.568500   86.692800
  H    -45.276100   32.565400   86.751100
  C    -45.931600   33.250000   88.647000
  H    -45.022500   33.924200   88.532300
  H    -45.505200   32.448500   89.287600
  C    -47.090200   33.870700   89.323000
  H    -46.909000   34.057800   90.443700
  H    -48.041400   33.293700   89.272100
  H    -47.378700   34.721500   88.763300
  H    -42.980500   29.432900   90.630400
  H    -50.073900   30.340700   85.996000

 Total Charge           Charge          ....    0
 Multiplicity           Mult            ....    1
 Number of Electrons    NEL             ....  134
 Basis Dimension        Dim             ....  322

ORBITAL ENERGIES
----------------

  NO   OCC          E(Eh)            E(eV)
   0   2.0000     -88.967858     -2420.9385
   1   2.0000     -88.966066     -2420.8897
   2   2.0000     -10.330739      -281.1137
   3   2.0000     -10.328614      -281.0559
   4   2.0000     -10.317914      -280.7647
   5   2.0000     -10.315437      -280.6973
   6   2.0000     -10.306692      -280.4594
   7   2.0000     -10.303365      -280.3688
   8   2.0000     -10.297141      -280.1995
   9   2.0000     -10.295890      -280.1654
  10   2.0000     -10.294521      -280.1282
  11   2.0000     -10.292425      -280.0711
  12   2.0000     -10.288413      -279.9620
  13   2.0000     -10.282797      -279.8091
  14   2.0000     -10.280322      -279.7418
  15   2.0000     -10.276176      -279.6290
  16   2.0000      -8.081405      -219.9062
  17   2.0000      -8.079335      -219.8499
  18   2.0000      -6.040136      -164.3605
  19   2.0000      -6.037997      -164.3022
  20   2.0000      -6.036030      -164.2487
  21   2.0000      -6.034212      -164.1992
  22   2.0000      -6.032025      -164.1398
  23   2.0000      -6.029856      -164.0807
  24   2.0000      -1.000657       -27.2293
  25   2.0000      -0.978889       -26.6369
  26   2.0000      -0.914404       -24.8822
  27   2.0000      -0.905295       -24.6343
  28   2.0000      -0.874169       -23.7873
  29   2.0000      -0.848696       -23.0942
  30   2.0000      -0.843666       -22.9573
  31   2.0000      -0.818356       -22.2686
  32   2.0000      -0.782291       -21.2872
  33   2.0000      -0.772340       -21.0164
  34   2.0000      -0.712509       -19.3884
  35   2.0000      -0.704011       -19.1571
  36   2.0000      -0.685474       -18.6527
  37   2.0000      -0.665240       -18.1021
  38   2.0000      -0.640452       -17.4276
  39   2.0000      -0.616301       -16.7704
  40   2.0000      -0.592474       -16.1220
  41   2.0000      -0.572347       -15.5743
  42   2.0000      -0.562653       -15.3106
  43   2.0000      -0.552141       -15.0245
  44   2.0000      -0.537413       -14.6238
  45   2.0000      -0.526512       -14.3271
  46   2.0000      -0.523207       -14.2372
  47   2.0000      -0.518202       -14.1010
  48   2.0000      -0.501947       -13.6587
  49   2.0000      -0.498768       -13.5722
  50   2.0000      -0.486963       -13.2509
  51   2.0000      -0.481419       -13.1001
  52   2.0000      -0.472695       -12.8627
  53   2.0000      -0.460721       -12.5369
  54   2.0000      -0.458698       -12.4818
  55   2.0000      -0.454972       -12.3804
  56   2.0000      -0.441063       -12.0019
  57   2.0000      -0.435604       -11.8534
  58   2.0000      -0.434268       -11.8170
  59   2.0000      -0.426947       -11.6178
  60   2.0000      -0.420775       -11.4499
  61   2.0000      -0.411378       -11.1942
  62   2.0000      -0.399186       -10.8624
  63   2.0000      -0.336758        -9.1637
  64   2.0000      -0.333041        -9.0625
  65   2.0000      -0.320979        -8.7343
  66   2.0000      -0.310107        -8.4384
  67   0.0000       0.038787         1.0554
  68   0.0000       0.051984         1.4146
  69   0.0000       0.101599         2.7646
  70   0.0000       0.115153         3.1335
  71   0.0000       0.123290         3.3549

MULLIKEN ATOMIC CHARGES
-----------------------
   0 S :    0.104844
   1 C :   -0.074889
   2 C :   -0.150663
   3 C :    0.028309
   4 C :   -0.159690
   5 H :    0.022125
   6 C :    0.112025
   7 H :    0.011512
   8 H :    0.029576
   9 C :   -0.075993
  10 H :    0.033511
  11 H :    0.018501
  12 C :   -0.041442
  13 H :    0.025767
  14 H :    0.026963
  15 H :    0.044762
  16 S :    0.093512
  17 C :   -0.065762
  18 C :   -0.022072
  19 C :   -0.015710
  20 C :   -0.184705
  21 H :    0.019956
  22 C :    0.052340
  23 H :    0.017180
  24 H :    0.046029
  25 C :   -0.082803
  26 H :    0.030134
  27 H :    0.046956
  28 C :   -0.051872
  29 H :    0.052762
  30 H :    0.033056
  31 H :    0.010957
  32 H :    0.027122
  33 H :    0.037702
Sum of atomic charges:    0.0000000

LOEWDIN ATOMIC CHARGES
----------------------
   0 S :    0.386829
   1 C :   -0.188847
   2 C :   -0.064302
   3 C :   -0.053835
   4 C :   -0.193651
   5 H :    0.032758
   6 C :   -0.031671
   7 H :    0.030266
   8 H :    0.034044
   9 C :   -0.045433
  10 H :    0.029168
  11 H :    0.022760
  12 C :   -0.059045
  13 H :    0.021219
  14 H :    0.019601
  15 H :    0.034982
  16 S :    0.360123
  17 C :   -0.150036
  18 C :   -0.069680
  19 C :   -0.050796
  20 C :   -0.182573
  21 H :    0.033718
  22 C :   -0.029780
  23 H :    0.029938
  24 H :    0.035778
  25 C :   -0.054646
  26 H :    0.030391
  27 H :    0.026742
  28 C :   -0.076225
  29 H :    0.034888
  30 H :    0.030284
  31 H :    0.017914
  32 H :    0.018899
  33 H :    0.020219

  Mayer bond orders larger than 0.100000
B(  0-S ,  1-C ) :   1.1325 B(  0-S ,  4-C ) :   1.1162 B(  1-C ,  2-C ) :   1.6360
B(  1-C , 32-H ) :   0.9657 B(  2-C ,  3-C ) :   1.2109 B(  2-C ,  6-C ) :   1.0333
B(  3-C ,  4-C ) :   1.6185 B(  3-C ,  5-H ) :   0.9851 B(  4-C , 20-C ) :   1.0244
B(  6-C ,  7-H ) :   0.9325 B(  6-C ,  8-H ) :   0.9386 B(  6-C ,  9-C ) :   1.0485
B(  9-C , 10-H ) :   0.9512 B(  9-C , 11-H ) :   0.9623 B(  9-C , 12-C ) :   1.0784
B( 12-C , 13-H ) :   0.9744 B( 12-C , 14-H ) :   0.9777 B( 12-C , 15-H ) :   0.9740
B( 16-S , 17-C ) :   1.1298 B( 16-S , 20-C ) :   1.1096 B( 17-C , 18-C ) :   1.6688
B( 17-C , 33-H ) :   0.9655 B( 18-C , 19-C ) :   1.2007 B( 18-C , 21-H ) :   0.9865
B( 19-C , 20-C ) :   1.6633 B( 19-C , 22-C ) :   1.0222 B( 22-C , 23-H ) :   0.9412
B( 22-C , 24-H ) :   0.9370 B( 22-C , 25-C ) :   1.0761 B( 25-C , 26-H ) :   0.9491
B( 25-C , 27-H ) :   0.9498 B( 25-C , 28-C ) :   1.0714 B( 28-C , 29-H ) :   0.9675
B( 28-C , 30-H ) :   0.9722 B( 28-C , 31-H ) :   0.9672

Dispersion correction           -0.016840661
FINAL SINGLE POINT ENERGY     -1339.873462412229

DIPOLE MOMENT
-------------
                                X             Y             Z
Electronic contribution:     -0.74230     -21.55410     -19.51476
Nuclear contribution   :      0.65132      22.21491      19.91806
                        -----------------------------------------
Total Dipole Moment    :     -0.09098       0.66081       0.40331
                        -----------------------------------------
Magnitude (a.u.)       :      0.77949
Magnitude (Debye)      :      1.98130

Rotational constants in cm-1:     0.018704     0.009688     0.008336
Rotational constants in MHz :   560.744827   290.452088   249.917854

                             ****ORCA TERMINATED NORMALLY****
TOTAL RUN TIME: 0 days 0 hours 0 minutes 31 seconds 658 msec
