                         Program Version 4.2.1 -  RELEASE  -
|  1> ! wB97X-D3 SP def2-SVP
|  2> %pal
|  3> nprocs 16
|  4> end
|  5>
|  6> * xyz 0 1
|  7> S 	 -66.7487 	 59.9791 	 127.984
|  8> C 	 -67.2129 	 60.2982 	 129.574
|  9> C 	 -67.7868 	 59.1554 	 130.116
| 10> C 	 -67.7713 	 58.0265 	 129.222
| 11> C 	 -67.3578 	 58.3329 	 127.955
| 12> H 	 -68.1294 	 57.0498 	 129.402
| 13> C 	 -68.3315 	 59.0394 	 131.514
| 14> H 	 -69.3484 	 58.5833 	 131.268
| 15> H 	 -68.6163 	 59.9798 	 131.924
| 16> C 	 -67.4082 	 58.1357 	 132.342
| 17> H 	 -67.9349 	 57.7885 	 133.301
| 18> H 	 -67.2803 	 57.168 	 131.87
| 19> C 	 -66.0875 	 58.8302 	 132.638
| 20> H 	 -65.6927 	 59.1579 	 131.636
| 21> H 	 -66.2543 	 59.7073 	 133.272
| 22> H 	 -65.3286 	 58.275 	 133.192
| 23> S 	 -66.2061 	 57.9096 	 125.549
| 24> C 	 -66.4735 	 56.3784 	 124.652
| 25> C 	 -67.5606 	 55.7147 	 125.113
| 26> C 	 -68.0789 	 56.3432 	 126.293
| 27> C 	 -67.389 	 57.4829 	 126.764
| 28> H 	 -67.8763 	 54.7504 	 124.723
| 29> C 	 -69.2093 	 55.633 	 127.035
| 30> H 	 -69.833 	 55.1951 	 126.255
| 31> H 	 -69.93 	 56.3813 	 127.41
| 32> C 	 -68.8941 	 54.5826 	 128.139
| 33> H 	 -68.0602 	 54.8425 	 128.749
| 34> H 	 -68.6269 	 53.6945 	 127.62
| 35> C 	 -70.2 	 54.4752 	 128.969
| 36> H 	 -70.1617 	 53.6884 	 129.742
| 37> H 	 -70.9781 	 54.0028 	 128.365
| 38> H 	 -70.6287 	 55.4143 	 129.38
| 39> H 	 -66.889 	 61.1502 	 130.118
| 40> H 	 -65.7377 	 55.9482 	 123.905
| 41> *
| 42>
| 43>                          ****END OF INPUT****

CARTESIAN COORDINATES (ANGSTROEM)
---------------------------------
  S    -66.748700   59.979100  127.984000
  C    -67.212900   60.298200  129.574000
  C    -67.786800   59.155400  130.116000
  C    -67.771300   58.026500  129.222000
  C    -67.357800   58.332900  127.955000
  H    -68.129400   57.049800  129.402000
  C    -68.331500   59.039400  131.514000
  H    -69.348400   58.583300  131.268000
  H    -68.616300   59.979800  131.924000
  C    -67.408200   58.135700  132.342000
  H    -67.934900   57.788500  133.301000
  H    -67.280300   57.168000  131.870000
  C    -66.087500   58.830200  132.638000
  H    -65.692700   59.157900  131.636000
  H    -66.254300   59.707300  133.272000
  H    -65.328600   58.275000  133.192000
  S    -66.206100   57.909600  125.549000
  C    -66.473500   56.378400  124.652000
  C    -67.560600   55.714700  125.113000
  C    -68.078900   56.343200  126.293000
  C    -67.389000   57.482900  126.764000
  H    -67.876300   54.750400  124.723000
  C    -69.209300   55.633000  127.035000
  H    -69.833000   55.195100  126.255000
  H    -69.930000   56.381300  127.410000
  C    -68.894100   54.582600  128.139000
  H    -68.060200   54.842500  128.749000
  H    -68.626900   53.694500  127.620000
  C    -70.200000   54.475200  128.969000
  H    -70.161700   53.688400  129.742000
  H    -70.978100   54.002800  128.365000
  H    -70.628700   55.414300  129.380000
  H    -66.889000   61.150200  130.118000
  H    -65.737700   55.948200  123.905000

 Total Charge           Charge          ....    0
 Multiplicity           Mult            ....    1
 Number of Electrons    NEL             ....  134
 Basis Dimension        Dim             ....  322

ORBITAL ENERGIES
----------------

  NO   OCC          E(Eh)            E(eV)
   0   2.0000     -88.962411     -2420.7903
   1   2.0000     -88.961956     -2420.7779
   2   2.0000     -10.334376      -281.2127
   3   2.0000     -10.332667      -281.1662
   4   2.0000     -10.325240      -280.9641
   5   2.0000     -10.309515      -280.5362
   6   2.0000     -10.308942      -280.5206
   7   2.0000     -10.301171      -280.3091
   8   2.0000     -10.297236      -280.2020
   9   2.0000     -10.293587      -280.1027
  10   2.0000     -10.292277      -280.0671
  11   2.0000     -10.291366      -280.0423
  12   2.0000     -10.290671      -280.0234
  13   2.0000     -10.290336      -280.0143
  14   2.0000     -10.286486      -279.9095
  15   2.0000     -10.278806      -279.7005
  16   2.0000      -8.077959      -219.8124
  17   2.0000      -8.077050      -219.7877
  18   2.0000      -6.036491      -164.2613
  19   2.0000      -6.035672      -164.2390
  20   2.0000      -6.032187      -164.1442
  21   2.0000      -6.031637      -164.1292
  22   2.0000      -6.028700      -164.0493
  23   2.0000      -6.027615      -164.0197
  24   2.0000      -1.011034       -27.5116
  25   2.0000      -0.987186       -26.8627
  26   2.0000      -0.914927       -24.8964
  27   2.0000      -0.907101       -24.6835
  28   2.0000      -0.876228       -23.8434
  29   2.0000      -0.851032       -23.1578
  30   2.0000      -0.841530       -22.8992
  31   2.0000      -0.820393       -22.3240
  32   2.0000      -0.776368       -21.1260
  33   2.0000      -0.766854       -20.8672
  34   2.0000      -0.716429       -19.4950
  35   2.0000      -0.704110       -19.1598
  36   2.0000      -0.692796       -18.8519
  37   2.0000      -0.665768       -18.1165
  38   2.0000      -0.646056       -17.5801
  39   2.0000      -0.624908       -17.0046
  40   2.0000      -0.593754       -16.1569
  41   2.0000      -0.572973       -15.5914
  42   2.0000      -0.565942       -15.4001
  43   2.0000      -0.554570       -15.0906
  44   2.0000      -0.532283       -14.4841
  45   2.0000      -0.520820       -14.1722
  46   2.0000      -0.519686       -14.1414
  47   2.0000      -0.516323       -14.0499
  48   2.0000      -0.507881       -13.8201
  49   2.0000      -0.499764       -13.5993
  50   2.0000      -0.489918       -13.3314
  51   2.0000      -0.479705       -13.0534
  52   2.0000      -0.476046       -12.9539
  53   2.0000      -0.468242       -12.7415
  54   2.0000      -0.455804       -12.4031
  55   2.0000      -0.447881       -12.1875
  56   2.0000      -0.444881       -12.1058
  57   2.0000      -0.440029       -11.9738
  58   2.0000      -0.434362       -11.8196
  59   2.0000      -0.427289       -11.6271
  60   2.0000      -0.420412       -11.4400
  61   2.0000      -0.411837       -11.2067
  62   2.0000      -0.399675       -10.8757
  63   2.0000      -0.365470        -9.9449
  64   2.0000      -0.334569        -9.1041
  65   2.0000      -0.320793        -8.7292
  66   2.0000      -0.284708        -7.7473
  67   0.0000       0.019328         0.5259
  68   0.0000       0.081190         2.2093
  69   0.0000       0.100060         2.7228
  70   0.0000       0.116937         3.1820
  71   0.0000       0.126525         3.4429

MULLIKEN ATOMIC CHARGES
-----------------------
   0 S :    0.100953
   1 C :   -0.087740
   2 C :   -0.138055
   3 C :    0.023018
   4 C :   -0.091068
   5 H :   -0.026177
   6 C :    0.069668
   7 H :    0.038994
   8 H :    0.013838
   9 C :   -0.066971
  10 H :    0.029976
  11 H :    0.028499
  12 C :   -0.056140
  13 H :    0.049009
  14 H :    0.024991
  15 H :    0.038471
  16 S :    0.071723
  17 C :   -0.107854
  18 C :   -0.008660
  19 C :   -0.068218
  20 C :   -0.110796
  21 H :    0.025506
  22 C :   -0.009658
  23 H :    0.016708
  24 H :    0.028788
  25 C :    0.002465
  26 H :    0.034519
  27 H :    0.019630
  28 C :   -0.078215
  29 H :    0.028188
  30 H :    0.023742
  31 H :    0.050469
  32 H :    0.047218
  33 H :    0.083178
Sum of atomic charges:   -0.0000000

LOEWDIN ATOMIC CHARGES
----------------------
   0 S :    0.419440
   1 C :   -0.215691
   2 C :   -0.063878
   3 C :   -0.064131
   4 C :   -0.186481
   5 H :    0.022609
   6 C :   -0.033528
   7 H :    0.042946
   8 H :    0.023387
   9 C :   -0.045380
  10 H :    0.026987
  11 H :    0.022631
  12 C :   -0.071311
  13 H :    0.033436
  14 H :    0.024500
  15 H :    0.026388
  16 S :    0.380345
  17 C :   -0.171837
  18 C :   -0.073176
  19 C :   -0.059138
  20 C :   -0.186669
  21 H :    0.036919
  22 C :   -0.043140
  23 H :    0.030131
  24 H :    0.030346
  25 C :   -0.029317
  26 H :    0.018284
  27 H :    0.023655
  28 C :   -0.073312
  29 H :    0.025703
  30 H :    0.027325
  31 H :    0.030029
  32 H :    0.026911
  33 H :    0.045018

  Mayer bond orders larger than 0.100000
B(  0-S ,  1-C ) :   1.1473 B(  0-S ,  4-C ) :   1.1502 B(  1-C ,  2-C ) :   1.5781
B(  1-C , 32-H ) :   0.9757 B(  2-C ,  3-C ) :   1.2413 B(  2-C ,  6-C ) :   1.0185
B(  3-C ,  4-C ) :   1.5676 B(  3-C ,  5-H ) :   1.0036 B(  4-C , 20-C ) :   1.0696
B(  6-C ,  7-H ) :   0.9369 B(  6-C ,  8-H ) :   0.9514 B(  6-C ,  9-C ) :   1.0590
B(  9-C , 10-H ) :   0.9536 B(  9-C , 11-H ) :   0.9576 B(  9-C , 12-C ) :   1.0629
B( 12-C , 13-H ) :   0.9731 B( 12-C , 14-H ) :   0.9736 B( 12-C , 15-H ) :   0.9734
B( 16-S , 17-C ) :   1.1473 B( 16-S , 20-C ) :   1.1217 B( 17-C , 18-C ) :   1.6220
B( 17-C , 33-H ) :   0.9566 B( 18-C , 19-C ) :   1.2360 B( 18-C , 21-H ) :   0.9907
B( 19-C , 20-C ) :   1.5827 B( 19-C , 22-C ) :   1.0426 B( 22-C , 23-H ) :   0.9319
B( 22-C , 24-H ) :   0.9485 B( 22-C , 25-C ) :   1.0371 B( 25-C , 26-H ) :   0.9631
B( 25-C , 27-H ) :   0.9491 B( 25-C , 28-C ) :   1.0707 B( 28-C , 29-H ) :   0.9714
B( 28-C , 30-H ) :   0.9725 B( 28-C , 31-H ) :   0.9772

Dispersion correction           -0.014787013
FINAL SINGLE POINT ENERGY     -1339.867227259322

DIPOLE MOMENT
-------------
                                X             Y             Z
Electronic contribution:     11.04270      14.20163     -22.75899
Nuclear contribution   :    -11.33437     -14.87076      23.15311
                        -----------------------------------------
Total Dipole Moment    :     -0.29167      -0.66913       0.39412
                        -----------------------------------------
Magnitude (a.u.)       :      0.82954
Magnitude (Debye)      :      2.10853

Rotational constants in cm-1:     0.017910     0.009788     0.006922
Rotational constants in MHz :   536.920305   293.436812   207.515402

                             ****ORCA TERMINATED NORMALLY****
TOTAL RUN TIME: 0 days 0 hours 0 minutes 35 seconds 24 msec
