                         Program Version 4.2.1 -  RELEASE  -
|  1> ! wB97X-D3 SP def2-SVP
|  2> %pal
|  3> nprocs 16
|  4> end
|  5>
|  6> * xyz 0 1
|  7> S 	 -16.2219 	 -8.24144 	 86.0508
|  8> C 	 -14.6447 	 -8.3206 	 85.3
|  9> C 	 -13.7196 	 -8.65602 	 86.2547
| 10> C 	 -14.2282 	 -8.71138 	 87.5973
| 11> C 	 -15.5901 	 -8.59188 	 87.6306
| 12> H 	 -13.7229 	 -9.05763 	 88.4686
| 13> C 	 -12.3007 	 -9.10712 	 85.8629
| 14> H 	 -11.558 	 -8.63929 	 86.5091
| 15> H 	 -12.0737 	 -8.75551 	 84.8819
| 16> C 	 -12.0215 	 -10.5959 	 85.7516
| 17> H 	 -12.5276 	 -11.0896 	 86.6157
| 18> H 	 -12.5934 	 -10.9881 	 84.9673
| 19> C 	 -10.5059 	 -10.8394 	 85.7619
| 20> H 	 -10.0272 	 -10.6086 	 86.7189
| 21> H 	 -10.2292 	 -11.9019 	 85.5013
| 22> H 	 -10.0103 	 -10.1639 	 85.0518
| 23> S 	 -17.7486 	 -9.86227 	 88.6629
| 24> C 	 -18.3485 	 -9.55764 	 90.2572
| 25> C 	 -17.4723 	 -8.68089 	 90.9921
| 26> C 	 -16.3607 	 -8.3148 	 90.1379
| 27> C 	 -16.5182 	 -8.73733 	 88.769
| 28> H 	 -17.679 	 -8.27485 	 91.9543
| 29> C 	 -15.3263 	 -7.23049 	 90.5057
| 30> H 	 -15.8397 	 -6.20498 	 90.495
| 31> H 	 -14.5429 	 -7.18982 	 89.7954
| 32> C 	 -14.5992 	 -7.42762 	 91.8123
| 33> H 	 -13.8948 	 -8.37766 	 91.838
| 34> H 	 -15.2933 	 -7.55139 	 92.6354
| 35> C 	 -13.647 	 -6.25683 	 91.9666
| 36> H 	 -14.1391 	 -5.36436 	 92.1795
| 37> H 	 -12.9578 	 -5.95408 	 91.1909
| 38> H 	 -12.979 	 -6.37776 	 92.8052
| 39> H 	 -14.4758 	 -8.33814 	 84.2036
| 40> H 	 -19.2784 	 -10.0351 	 90.6214
| 41> *
| 42>
| 43>                          ****END OF INPUT****

CARTESIAN COORDINATES (ANGSTROEM)
---------------------------------
  S    -16.221900   -8.241440   86.050800
  C    -14.644700   -8.320600   85.300000
  C    -13.719600   -8.656020   86.254700
  C    -14.228200   -8.711380   87.597300
  C    -15.590100   -8.591880   87.630600
  H    -13.722900   -9.057630   88.468600
  C    -12.300700   -9.107120   85.862900
  H    -11.558000   -8.639290   86.509100
  H    -12.073700   -8.755510   84.881900
  C    -12.021500  -10.595900   85.751600
  H    -12.527600  -11.089600   86.615700
  H    -12.593400  -10.988100   84.967300
  C    -10.505900  -10.839400   85.761900
  H    -10.027200  -10.608600   86.718900
  H    -10.229200  -11.901900   85.501300
  H    -10.010300  -10.163900   85.051800
  S    -17.748600   -9.862270   88.662900
  C    -18.348500   -9.557640   90.257200
  C    -17.472300   -8.680890   90.992100
  C    -16.360700   -8.314800   90.137900
  C    -16.518200   -8.737330   88.769000
  H    -17.679000   -8.274850   91.954300
  C    -15.326300   -7.230490   90.505700
  H    -15.839700   -6.204980   90.495000
  H    -14.542900   -7.189820   89.795400
  C    -14.599200   -7.427620   91.812300
  H    -13.894800   -8.377660   91.838000
  H    -15.293300   -7.551390   92.635400
  C    -13.647000   -6.256830   91.966600
  H    -14.139100   -5.364360   92.179500
  H    -12.957800   -5.954080   91.190900
  H    -12.979000   -6.377760   92.805200
  H    -14.475800   -8.338140   84.203600
  H    -19.278400  -10.035100   90.621400

 Total Charge           Charge          ....    0
 Multiplicity           Mult            ....    1
 Number of Electrons    NEL             ....  134
 Basis Dimension        Dim             ....  322

ORBITAL ENERGIES
----------------

  NO   OCC          E(Eh)            E(eV)
   0   2.0000     -88.970081     -2420.9990
   1   2.0000     -88.963875     -2420.8301
   2   2.0000     -10.331414      -281.1321
   3   2.0000     -10.326241      -280.9913
   4   2.0000     -10.325878      -280.9814
   5   2.0000     -10.315288      -280.6933
   6   2.0000     -10.309829      -280.5447
   7   2.0000     -10.305347      -280.4227
   8   2.0000     -10.303158      -280.3632
   9   2.0000     -10.293303      -280.0950
  10   2.0000     -10.292557      -280.0747
  11   2.0000     -10.289541      -279.9927
  12   2.0000     -10.286474      -279.9092
  13   2.0000     -10.286337      -279.9054
  14   2.0000     -10.282858      -279.8108
  15   2.0000     -10.267577      -279.3950
  16   2.0000      -8.086214      -220.0371
  17   2.0000      -8.079107      -219.8437
  18   2.0000      -6.044413      -164.4768
  19   2.0000      -6.040193      -164.3620
  20   2.0000      -6.037617      -164.2919
  21   2.0000      -6.037555      -164.2902
  22   2.0000      -6.033496      -164.1798
  23   2.0000      -6.029878      -164.0813
  24   2.0000      -1.011812       -27.5328
  25   2.0000      -0.987646       -26.8752
  26   2.0000      -0.913506       -24.8578
  27   2.0000      -0.912298       -24.8249
  28   2.0000      -0.868894       -23.6438
  29   2.0000      -0.852423       -23.1956
  30   2.0000      -0.844435       -22.9783
  31   2.0000      -0.815127       -22.1807
  32   2.0000      -0.780342       -21.2342
  33   2.0000      -0.768136       -20.9021
  34   2.0000      -0.707190       -19.2436
  35   2.0000      -0.700480       -19.0610
  36   2.0000      -0.692298       -18.8384
  37   2.0000      -0.660541       -17.9742
  38   2.0000      -0.644150       -17.5282
  39   2.0000      -0.622345       -16.9349
  40   2.0000      -0.599764       -16.3204
  41   2.0000      -0.570179       -15.5154
  42   2.0000      -0.564889       -15.3714
  43   2.0000      -0.557014       -15.1571
  44   2.0000      -0.525438       -14.2979
  45   2.0000      -0.520626       -14.1670
  46   2.0000      -0.513061       -13.9611
  47   2.0000      -0.511481       -13.9181
  48   2.0000      -0.509069       -13.8525
  49   2.0000      -0.499730       -13.5983
  50   2.0000      -0.491978       -13.3874
  51   2.0000      -0.485438       -13.2094
  52   2.0000      -0.471596       -12.8328
  53   2.0000      -0.466260       -12.6876
  54   2.0000      -0.462673       -12.5900
  55   2.0000      -0.452654       -12.3174
  56   2.0000      -0.448128       -12.1942
  57   2.0000      -0.441717       -12.0197
  58   2.0000      -0.437633       -11.9086
  59   2.0000      -0.422627       -11.5003
  60   2.0000      -0.415018       -11.2932
  61   2.0000      -0.411120       -11.1871
  62   2.0000      -0.405170       -11.0252
  63   2.0000      -0.350291        -9.5319
  64   2.0000      -0.330895        -9.0041
  65   2.0000      -0.329583        -8.9684
  66   2.0000      -0.291850        -7.9417
  67   0.0000       0.027848         0.7578
  68   0.0000       0.073800         2.0082
  69   0.0000       0.110163         2.9977
  70   0.0000       0.121375         3.3028
  71   0.0000       0.127312         3.4643

MULLIKEN ATOMIC CHARGES
-----------------------
   0 S :    0.100140
   1 C :   -0.123828
   2 C :   -0.100740
   3 C :    0.054706
   4 C :   -0.166964
   5 H :    0.013019
   6 C :    0.048085
   7 H :    0.020501
   8 H :    0.003828
   9 C :   -0.029104
  10 H :    0.022691
  11 H :    0.010585
  12 C :   -0.060646
  13 H :    0.036338
  14 H :    0.045310
  15 H :    0.028125
  16 S :    0.136890
  17 C :   -0.123975
  18 C :   -0.012986
  19 C :   -0.031705
  20 C :   -0.126990
  21 H :    0.021088
  22 C :    0.030858
  23 H :    0.054584
  24 H :    0.004597
  25 C :   -0.098573
  26 H :    0.042110
  27 H :    0.027820
  28 C :   -0.015976
  29 H :    0.005538
  30 H :    0.025011
  31 H :    0.016993
  32 H :    0.066819
  33 H :    0.075855
Sum of atomic charges:    0.0000000

LOEWDIN ATOMIC CHARGES
----------------------
   0 S :    0.406872
   1 C :   -0.206047
   2 C :   -0.060430
   3 C :   -0.067205
   4 C :   -0.188306
   5 H :    0.030399
   6 C :   -0.030331
   7 H :    0.026707
   8 H :    0.022528
   9 C :   -0.040702
  10 H :    0.025657
  11 H :    0.016303
  12 C :   -0.067081
  13 H :    0.027600
  14 H :    0.032857
  15 H :    0.024428
  16 S :    0.467104
  17 C :   -0.203286
  18 C :   -0.062561
  19 C :   -0.055435
  20 C :   -0.237603
  21 H :    0.028482
  22 C :   -0.037190
  23 H :    0.043282
  24 H :    0.020831
  25 C :   -0.042727
  26 H :    0.035040
  27 H :    0.018978
  28 C :   -0.068698
  29 H :    0.015875
  30 H :    0.027801
  31 H :    0.024213
  32 H :    0.038831
  33 H :    0.033816

  Mayer bond orders larger than 0.100000
B(  0-S ,  1-C ) :   1.1231 B(  0-S ,  4-C ) :   1.1681 B(  1-C ,  2-C ) :   1.6302
B(  1-C , 32-H ) :   0.9646 B(  2-C ,  3-C ) :   1.2284 B(  2-C ,  6-C ) :   1.0293
B(  3-C ,  4-C ) :   1.5875 B(  3-C ,  5-H ) :   0.9917 B(  4-C , 20-C ) :   1.0018
B(  6-C ,  7-H ) :   0.9452 B(  6-C ,  8-H ) :   0.9377 B(  6-C ,  9-C ) :   1.0545
B(  9-C , 10-H ) :   0.9574 B(  9-C , 11-H ) :   0.9539 B(  9-C , 12-C ) :   1.0663
B( 12-C , 13-H ) :   0.9750 B( 12-C , 14-H ) :   0.9739 B( 12-C , 15-H ) :   0.9745
B( 16-S , 17-C ) :   1.2032 B( 16-S , 20-C ) :   1.1953 B( 17-C , 18-C ) :   1.5192
B( 17-C , 20-C ) :   0.1122 B( 17-C , 33-H ) :   0.9675 B( 18-C , 19-C ) :   1.2932
B( 18-C , 21-H ) :   0.9962 B( 19-C , 20-C ) :   1.5106 B( 19-C , 22-C ) :   1.0415
B( 22-C , 23-H ) :   0.9439 B( 22-C , 24-H ) :   0.9404 B( 22-C , 25-C ) :   1.0535
B( 25-C , 26-H ) :   0.9562 B( 25-C , 27-H ) :   0.9554 B( 25-C , 28-C ) :   1.0797
B( 28-C , 29-H ) :   0.9689 B( 28-C , 30-H ) :   0.9725 B( 28-C , 31-H ) :   0.9703

Dispersion correction           -0.013536233
FINAL SINGLE POINT ENERGY     -1339.867933424475

DIPOLE MOMENT
-------------
                                X             Y             Z
Electronic contribution:    -27.22471      -2.45737      -8.05032
Nuclear contribution   :     27.64823       2.41686       8.30371
                        -----------------------------------------
Total Dipole Moment    :      0.42352      -0.04051       0.25339
                        -----------------------------------------
Magnitude (a.u.)       :      0.49520
Magnitude (Debye)      :      1.25869

Rotational constants in cm-1:     0.016738     0.008364     0.006564
Rotational constants in MHz :   501.800556   250.746422   196.771655

                             ****ORCA TERMINATED NORMALLY****
TOTAL RUN TIME: 0 days 0 hours 0 minutes 32 seconds 567 msec
