                         Program Version 4.2.1 -  RELEASE  -
|  1> ! wB97X-D3 SP def2-SVP
|  2> %pal
|  3> nprocs 16
|  4> end
|  5>
|  6> * xyz 0 1
|  7> S 	 -38.7584 	 50.0556 	 106.313
|  8> C 	 -37.2953 	 49.0698 	 106.074
|  9> C 	 -36.5523 	 49.5341 	 104.949
| 10> C 	 -37.2984 	 50.5486 	 104.234
| 11> C 	 -38.5412 	 50.8836 	 104.78
| 12> H 	 -36.8956 	 51.0276 	 103.389
| 13> C 	 -35.3132 	 48.9143 	 104.378
| 14> H 	 -34.8361 	 48.6355 	 105.28
| 15> H 	 -34.642 	 49.567 	 103.917
| 16> C 	 -35.6211 	 47.6102 	 103.494
| 17> H 	 -34.6483 	 47.0931 	 103.332
| 18> H 	 -36.4282 	 46.9695 	 103.971
| 19> C 	 -36.1931 	 47.9301 	 102.048
| 20> H 	 -35.3353 	 48.484 	 101.589
| 21> H 	 -36.3529 	 47.1119 	 101.297
| 22> H 	 -37.1274 	 48.5888 	 102.184
| 23> S 	 -40.3042 	 52.8208 	 105.781
| 24> C 	 -41.2897 	 53.7325 	 104.652
| 25> C 	 -40.8611 	 53.5309 	 103.346
| 26> C 	 -39.8539 	 52.4915 	 103.214
| 27> C 	 -39.3466 	 52.0245 	 104.436
| 28> H 	 -41.4432 	 53.9908 	 102.549
| 29> C 	 -39.531 	 52.0239 	 101.82
| 30> H 	 -38.4381 	 51.7907 	 101.84
| 31> H 	 -39.6623 	 52.8819 	 101.136
| 32> C 	 -40.4257 	 50.8393 	 101.382
| 33> H 	 -40.261 	 49.9143 	 101.921
| 34> H 	 -40.3161 	 50.644 	 100.293
| 35> C 	 -41.9365 	 51.1599 	 101.439
| 36> H 	 -42.2124 	 51.4606 	 102.409
| 37> H 	 -42.5435 	 50.2988 	 101.202
| 38> H 	 -42.1007 	 52.0465 	 100.77
| 39> H 	 -37.0347 	 48.2356 	 106.736
| 40> H 	 -42.0791 	 54.4651 	 104.929
| 41> *
| 42>
| 43>                          ****END OF INPUT****

CARTESIAN COORDINATES (ANGSTROEM)
---------------------------------
  S    -38.758400   50.055600  106.313000
  C    -37.295300   49.069800  106.074000
  C    -36.552300   49.534100  104.949000
  C    -37.298400   50.548600  104.234000
  C    -38.541200   50.883600  104.780000
  H    -36.895600   51.027600  103.389000
  C    -35.313200   48.914300  104.378000
  H    -34.836100   48.635500  105.280000
  H    -34.642000   49.567000  103.917000
  C    -35.621100   47.610200  103.494000
  H    -34.648300   47.093100  103.332000
  H    -36.428200   46.969500  103.971000
  C    -36.193100   47.930100  102.048000
  H    -35.335300   48.484000  101.589000
  H    -36.352900   47.111900  101.297000
  H    -37.127400   48.588800  102.184000
  S    -40.304200   52.820800  105.781000
  C    -41.289700   53.732500  104.652000
  C    -40.861100   53.530900  103.346000
  C    -39.853900   52.491500  103.214000
  C    -39.346600   52.024500  104.436000
  H    -41.443200   53.990800  102.549000
  C    -39.531000   52.023900  101.820000
  H    -38.438100   51.790700  101.840000
  H    -39.662300   52.881900  101.136000
  C    -40.425700   50.839300  101.382000
  H    -40.261000   49.914300  101.921000
  H    -40.316100   50.644000  100.293000
  C    -41.936500   51.159900  101.439000
  H    -42.212400   51.460600  102.409000
  H    -42.543500   50.298800  101.202000
  H    -42.100700   52.046500  100.770000
  H    -37.034700   48.235600  106.736000
  H    -42.079100   54.465100  104.929000

 Total Charge           Charge          ....    0
 Multiplicity           Mult            ....    1
 Number of Electrons    NEL             ....  134
 Basis Dimension        Dim             ....  322

ORBITAL ENERGIES
----------------

  NO   OCC          E(Eh)            E(eV)
   0   2.0000     -88.970662     -2421.0148
   1   2.0000     -88.964977     -2420.8601
   2   2.0000     -10.335428      -281.2413
   3   2.0000     -10.334098      -281.2051
   4   2.0000     -10.324710      -280.9496
   5   2.0000     -10.323822      -280.9255
   6   2.0000     -10.309958      -280.5482
   7   2.0000     -10.308858      -280.5183
   8   2.0000     -10.304312      -280.3946
   9   2.0000     -10.298656      -280.2407
  10   2.0000     -10.296814      -280.1905
  11   2.0000     -10.294594      -280.1301
  12   2.0000     -10.292425      -280.0711
  13   2.0000     -10.291452      -280.0446
  14   2.0000     -10.287613      -279.9402
  15   2.0000     -10.271549      -279.5031
  16   2.0000      -8.084489      -219.9901
  17   2.0000      -8.078540      -219.8283
  18   2.0000      -6.043066      -164.4402
  19   2.0000      -6.039121      -164.3328
  20   2.0000      -6.037235      -164.2815
  21   2.0000      -6.035221      -164.2267
  22   2.0000      -6.033234      -164.1727
  23   2.0000      -6.029142      -164.0613
  24   2.0000      -0.999749       -27.2046
  25   2.0000      -0.974761       -26.5246
  26   2.0000      -0.908732       -24.7279
  27   2.0000      -0.905801       -24.6481
  28   2.0000      -0.864813       -23.5328
  29   2.0000      -0.846247       -23.0276
  30   2.0000      -0.837876       -22.7998
  31   2.0000      -0.812666       -22.1138
  32   2.0000      -0.783356       -21.3162
  33   2.0000      -0.769402       -20.9365
  34   2.0000      -0.708083       -19.2679
  35   2.0000      -0.695087       -18.9143
  36   2.0000      -0.686138       -18.6708
  37   2.0000      -0.661822       -18.0091
  38   2.0000      -0.639428       -17.3997
  39   2.0000      -0.619510       -16.8577
  40   2.0000      -0.586447       -15.9580
  41   2.0000      -0.573859       -15.6155
  42   2.0000      -0.559215       -15.2170
  43   2.0000      -0.549542       -14.9538
  44   2.0000      -0.543164       -14.7803
  45   2.0000      -0.538745       -14.6600
  46   2.0000      -0.513597       -13.9757
  47   2.0000      -0.506506       -13.7827
  48   2.0000      -0.503087       -13.6897
  49   2.0000      -0.491153       -13.3649
  50   2.0000      -0.489788       -13.3278
  51   2.0000      -0.476695       -12.9715
  52   2.0000      -0.466268       -12.6878
  53   2.0000      -0.462474       -12.5846
  54   2.0000      -0.457088       -12.4380
  55   2.0000      -0.445262       -12.1162
  56   2.0000      -0.443863       -12.0781
  57   2.0000      -0.442978       -12.0540
  58   2.0000      -0.430102       -11.7037
  59   2.0000      -0.426864       -11.6156
  60   2.0000      -0.415749       -11.3131
  61   2.0000      -0.408839       -11.1251
  62   2.0000      -0.404875       -11.0172
  63   2.0000      -0.357881        -9.7384
  64   2.0000      -0.330915        -9.0047
  65   2.0000      -0.328131        -8.9289
  66   2.0000      -0.281515        -7.6604
  67   0.0000       0.014594         0.3971
  68   0.0000       0.067750         1.8436
  69   0.0000       0.097882         2.6635
  70   0.0000       0.113244         3.0815
  71   0.0000       0.126159         3.4330

MULLIKEN ATOMIC CHARGES
-----------------------
   0 S :    0.100643
   1 C :   -0.138382
   2 C :   -0.109177
   3 C :    0.019541
   4 C :   -0.102885
   5 H :   -0.000654
   6 C :    0.108796
   7 H :    0.017424
   8 H :    0.015288
   9 C :   -0.094640
  10 H :    0.045146
  11 H :    0.050421
  12 C :   -0.119351
  13 H :    0.026544
  14 H :    0.053894
  15 H :    0.062471
  16 S :    0.071983
  17 C :   -0.109717
  18 C :   -0.029524
  19 C :   -0.097115
  20 C :   -0.114616
  21 H :    0.027887
  22 C :    0.067117
  23 H :    0.032778
  24 H :    0.030813
  25 C :   -0.065557
  26 H :    0.041822
  27 H :    0.034498
  28 C :   -0.062995
  29 H :    0.033838
  30 H :    0.038159
  31 H :    0.025277
  32 H :    0.063303
  33 H :    0.076974
Sum of atomic charges:   -0.0000000

LOEWDIN ATOMIC CHARGES
----------------------
   0 S :    0.399553
   1 C :   -0.194019
   2 C :   -0.054585
   3 C :   -0.059313
   4 C :   -0.191734
   5 H :    0.019926
   6 C :   -0.027487
   7 H :    0.031480
   8 H :    0.023588
   9 C :   -0.036776
  10 H :    0.026320
  11 H :    0.030844
  12 C :   -0.090059
  13 H :    0.023622
  14 H :    0.032081
  15 H :    0.034867
  16 S :    0.362207
  17 C :   -0.185595
  18 C :   -0.077381
  19 C :   -0.054171
  20 C :   -0.173632
  21 H :    0.032523
  22 C :   -0.034810
  23 H :    0.034033
  24 H :    0.034623
  25 C :   -0.036566
  26 H :    0.024665
  27 H :    0.027987
  28 C :   -0.062619
  29 H :    0.015094
  30 H :    0.026742
  31 H :    0.025538
  32 H :    0.031978
  33 H :    0.041077

  Mayer bond orders larger than 0.100000
B(  0-S ,  1-C ) :   1.1444 B(  0-S ,  4-C ) :   1.1399 B(  1-C ,  2-C ) :   1.5678
B(  1-C , 32-H ) :   0.9688 B(  2-C ,  3-C ) :   1.2702 B(  2-C ,  6-C ) :   1.0347
B(  3-C ,  4-C ) :   1.5260 B(  3-C ,  5-H ) :   0.9960 B(  4-C , 20-C ) :   1.0953
B(  6-C ,  7-H ) :   0.9308 B(  6-C ,  8-H ) :   0.9438 B(  6-C ,  9-C ) :   1.0449
B(  9-C , 10-H ) :   0.9602 B(  9-C , 11-H ) :   0.9608 B(  9-C , 12-C ) :   1.0550
B( 12-C , 13-H ) :   0.9773 B( 12-C , 14-H ) :   0.9755 B( 12-C , 15-H ) :   0.9712
B( 16-S , 17-C ) :   1.1510 B( 16-S , 20-C ) :   1.0966 B( 17-C , 18-C ) :   1.6228
B( 17-C , 33-H ) :   0.9589 B( 18-C , 19-C ) :   1.2311 B( 18-C , 21-H ) :   0.9830
B( 19-C , 20-C ) :   1.6047 B( 19-C , 22-C ) :   1.0339 B( 22-C , 23-H ) :   0.9379
B( 22-C , 24-H ) :   0.9366 B( 22-C , 25-C ) :   1.0616 B( 25-C , 26-H ) :   0.9585
B( 25-C , 27-H ) :   0.9601 B( 25-C , 28-C ) :   1.0760 B( 28-C , 29-H ) :   0.9703
B( 28-C , 30-H ) :   0.9718 B( 28-C , 31-H ) :   0.9755

Dispersion correction           -0.015243169
FINAL SINGLE POINT ENERGY     -1339.862797701769

DIPOLE MOMENT
-------------
                                X             Y             Z
Electronic contribution:     -5.71074      11.61982      23.96677
Nuclear contribution   :      5.91843     -11.79900     -24.53759
                        -----------------------------------------
Total Dipole Moment    :      0.20770      -0.17917      -0.57082
                        -----------------------------------------
Magnitude (a.u.)       :      0.63331
Magnitude (Debye)      :      1.60974

Rotational constants in cm-1:     0.019895     0.009377     0.007050
Rotational constants in MHz :   596.432753   281.103313   211.360084

                             ****ORCA TERMINATED NORMALLY****
TOTAL RUN TIME: 0 days 0 hours 0 minutes 29 seconds 467 msec
