                         Program Version 4.2.1 -  RELEASE  -
|  1> ! wB97X-D3 SP def2-SVP
|  2> %pal
|  3> nprocs 16
|  4> end
|  5>
|  6> * xyz 0 1
|  7> S 	 8.05841 	 -14.2608 	 60.8335
|  8> C 	 8.17146 	 -12.5388 	 60.6584
|  9> C 	 7.1156 	 -11.875 	 61.1746
| 10> C 	 6.1511 	 -12.7576 	 61.8403
| 11> C 	 6.486 	 -14.1174 	 61.705
| 12> H 	 5.2499 	 -12.485 	 62.3483
| 13> C 	 6.95284 	 -10.4042 	 61.3646
| 14> H 	 5.93989 	 -10.1802 	 61.604
| 15> H 	 7.12772 	 -9.88651 	 60.3512
| 16> C 	 7.96778 	 -9.64557 	 62.349
| 17> H 	 9.00097 	 -9.81056 	 61.951
| 18> H 	 7.75867 	 -8.5968 	 62.1868
| 19> C 	 7.95837 	 -10.1174 	 63.8345
| 20> H 	 8.23276 	 -11.1752 	 63.9162
| 21> H 	 8.58207 	 -9.61151 	 64.4956
| 22> H 	 6.93842 	 -9.87453 	 64.2704
| 23> S 	 6.438 	 -16.1932 	 63.4919
| 24> C 	 5.09789 	 -17.2873 	 63.5166
| 25> C 	 4.11432 	 -16.9209 	 62.6047
| 26> C 	 4.4934 	 -15.7601 	 61.783
| 27> C 	 5.71635 	 -15.28 	 62.1577
| 28> H 	 3.27867 	 -17.5033 	 62.4598
| 29> C 	 3.54122 	 -15.2713 	 60.6198
| 30> H 	 3.57419 	 -14.2195 	 60.5817
| 31> H 	 2.54936 	 -15.4245 	 61.0926
| 32> C 	 3.66837 	 -16.0282 	 59.284
| 33> H 	 3.2146 	 -16.9467 	 59.3457
| 34> H 	 4.69886 	 -16.1251 	 59.1028
| 35> C 	 2.88054 	 -15.2308 	 58.1667
| 36> H 	 1.78559 	 -15.0078 	 58.3931
| 37> H 	 2.8469 	 -15.703 	 57.1926
| 38> H 	 3.28552 	 -14.3217 	 57.8614
| 39> H 	 9.05791 	 -12.174 	 60.1786
| 40> H 	 5.10553 	 -18.1905 	 64.1663
| 41> *
| 42>
| 43>                          ****END OF INPUT****

CARTESIAN COORDINATES (ANGSTROEM)
---------------------------------
  S      8.058410  -14.260800   60.833500
  C      8.171460  -12.538800   60.658400
  C      7.115600  -11.875000   61.174600
  C      6.151100  -12.757600   61.840300
  C      6.486000  -14.117400   61.705000
  H      5.249900  -12.485000   62.348300
  C      6.952840  -10.404200   61.364600
  H      5.939890  -10.180200   61.604000
  H      7.127720   -9.886510   60.351200
  C      7.967780   -9.645570   62.349000
  H      9.000970   -9.810560   61.951000
  H      7.758670   -8.596800   62.186800
  C      7.958370  -10.117400   63.834500
  H      8.232760  -11.175200   63.916200
  H      8.582070   -9.611510   64.495600
  H      6.938420   -9.874530   64.270400
  S      6.438000  -16.193200   63.491900
  C      5.097890  -17.287300   63.516600
  C      4.114320  -16.920900   62.604700
  C      4.493400  -15.760100   61.783000
  C      5.716350  -15.280000   62.157700
  H      3.278670  -17.503300   62.459800
  C      3.541220  -15.271300   60.619800
  H      3.574190  -14.219500   60.581700
  H      2.549360  -15.424500   61.092600
  C      3.668370  -16.028200   59.284000
  H      3.214600  -16.946700   59.345700
  H      4.698860  -16.125100   59.102800
  C      2.880540  -15.230800   58.166700
  H      1.785590  -15.007800   58.393100
  H      2.846900  -15.703000   57.192600
  H      3.285520  -14.321700   57.861400
  H      9.057910  -12.174000   60.178600
  H      5.105530  -18.190500   64.166300

 Total Charge           Charge          ....    0
 Multiplicity           Mult            ....    1
 Number of Electrons    NEL             ....  134
 Basis Dimension        Dim             ....  322

ORBITAL ENERGIES
----------------

  NO   OCC          E(Eh)            E(eV)
   0   2.0000     -88.962559     -2420.7943
   1   2.0000     -88.961795     -2420.7735
   2   2.0000     -10.332939      -281.1736
   3   2.0000     -10.324880      -280.9543
   4   2.0000     -10.320709      -280.8408
   5   2.0000     -10.311392      -280.5872
   6   2.0000     -10.308329      -280.5039
   7   2.0000     -10.300179      -280.2821
   8   2.0000     -10.298599      -280.2391
   9   2.0000     -10.296099      -280.1711
  10   2.0000     -10.295582      -280.1570
  11   2.0000     -10.293866      -280.1103
  12   2.0000     -10.291872      -280.0561
  13   2.0000     -10.284039      -279.8429
  14   2.0000     -10.277854      -279.6746
  15   2.0000     -10.277282      -279.6591
  16   2.0000      -8.077129      -219.7899
  17   2.0000      -8.076964      -219.7854
  18   2.0000      -6.035646      -164.2383
  19   2.0000      -6.035463      -164.2333
  20   2.0000      -6.031672      -164.1301
  21   2.0000      -6.031364      -164.1218
  22   2.0000      -6.027883      -164.0270
  23   2.0000      -6.027756      -164.0236
  24   2.0000      -0.999239       -27.1907
  25   2.0000      -0.979248       -26.6467
  26   2.0000      -0.902423       -24.5562
  27   2.0000      -0.899267       -24.4703
  28   2.0000      -0.865302       -23.5461
  29   2.0000      -0.845680       -23.0121
  30   2.0000      -0.841972       -22.9112
  31   2.0000      -0.810002       -22.0413
  32   2.0000      -0.781739       -21.2722
  33   2.0000      -0.772424       -21.0187
  34   2.0000      -0.715769       -19.4771
  35   2.0000      -0.703427       -19.1412
  36   2.0000      -0.691821       -18.8254
  37   2.0000      -0.664541       -18.0831
  38   2.0000      -0.648112       -17.6360
  39   2.0000      -0.604975       -16.4622
  40   2.0000      -0.590629       -16.0718
  41   2.0000      -0.570138       -15.5142
  42   2.0000      -0.564780       -15.3684
  43   2.0000      -0.539886       -14.6910
  44   2.0000      -0.537395       -14.6233
  45   2.0000      -0.517681       -14.0868
  46   2.0000      -0.514199       -13.9921
  47   2.0000      -0.512939       -13.9578
  48   2.0000      -0.500885       -13.6298
  49   2.0000      -0.493536       -13.4298
  50   2.0000      -0.487552       -13.2670
  51   2.0000      -0.475128       -12.9289
  52   2.0000      -0.469535       -12.7767
  53   2.0000      -0.463506       -12.6126
  54   2.0000      -0.461033       -12.5453
  55   2.0000      -0.447396       -12.1743
  56   2.0000      -0.441094       -12.0028
  57   2.0000      -0.438390       -11.9292
  58   2.0000      -0.431713       -11.7475
  59   2.0000      -0.425192       -11.5701
  60   2.0000      -0.420901       -11.4533
  61   2.0000      -0.416725       -11.3397
  62   2.0000      -0.412960       -11.2372
  63   2.0000      -0.335978        -9.1424
  64   2.0000      -0.331152        -9.0111
  65   2.0000      -0.324269        -8.8238
  66   2.0000      -0.304342        -8.2816
  67   0.0000       0.037842         1.0297
  68   0.0000       0.064264         1.7487
  69   0.0000       0.114805         3.1240
  70   0.0000       0.121243         3.2992
  71   0.0000       0.129202         3.5158

MULLIKEN ATOMIC CHARGES
-----------------------
   0 S :    0.095975
   1 C :   -0.134114
   2 C :   -0.046797
   3 C :    0.051787
   4 C :   -0.170197
   5 H :    0.011747
   6 C :    0.034935
   7 H :    0.013599
   8 H :    0.037511
   9 C :   -0.073638
  10 H :    0.028927
  11 H :    0.032950
  12 C :   -0.043511
  13 H :    0.053180
  14 H :    0.019346
  15 H :    0.028595
  16 S :    0.105139
  17 C :   -0.103483
  18 C :   -0.009718
  19 C :   -0.043573
  20 C :   -0.191904
  21 H :   -0.010361
  22 C :    0.078031
  23 H :    0.009758
  24 H :    0.018329
  25 C :    0.030457
  26 H :    0.015455
  27 H :    0.033651
  28 C :   -0.070905
  29 H :    0.035068
  30 H :    0.022642
  31 H :    0.017396
  32 H :    0.048206
  33 H :    0.075518
Sum of atomic charges:    0.0000000

LOEWDIN ATOMIC CHARGES
----------------------
   0 S :    0.384554
   1 C :   -0.188316
   2 C :   -0.073430
   3 C :   -0.048722
   4 C :   -0.183696
   5 H :    0.029608
   6 C :   -0.035533
   7 H :    0.020952
   8 H :    0.041010
   9 C :   -0.035371
  10 H :    0.023940
  11 H :    0.022106
  12 C :   -0.069790
  13 H :    0.033322
  14 H :    0.016104
  15 H :    0.030658
  16 S :    0.401011
  17 C :   -0.189533
  18 C :   -0.066319
  19 C :   -0.047572
  20 C :   -0.203455
  21 H :    0.015410
  22 C :   -0.022319
  23 H :    0.021375
  24 H :    0.033111
  25 C :   -0.015027
  26 H :    0.016900
  27 H :    0.024957
  28 C :   -0.071528
  29 H :    0.033202
  30 H :    0.024917
  31 H :    0.015663
  32 H :    0.024540
  33 H :    0.037273

  Mayer bond orders larger than 0.100000
B(  0-S ,  1-C ) :   1.1372 B(  0-S ,  4-C ) :   1.1383 B(  1-C ,  2-C ) :   1.6169
B(  1-C , 32-H ) :   0.9758 B(  2-C ,  3-C ) :   1.2015 B(  2-C ,  6-C ) :   1.0403
B(  3-C ,  4-C ) :   1.6070 B(  3-C ,  5-H ) :   0.9956 B(  4-C , 20-C ) :   1.0149
B(  6-C ,  7-H ) :   0.9436 B(  6-C ,  8-H ) :   0.9372 B(  6-C ,  9-C ) :   1.0588
B(  9-C , 10-H ) :   0.9587 B(  9-C , 11-H ) :   0.9590 B(  9-C , 12-C ) :   1.0676
B( 12-C , 13-H ) :   0.9743 B( 12-C , 14-H ) :   0.9752 B( 12-C , 15-H ) :   0.9754
B( 16-S , 17-C ) :   1.1553 B( 16-S , 20-C ) :   1.1377 B( 17-C , 18-C ) :   1.6188
B( 17-C , 33-H ) :   0.9628 B( 18-C , 19-C ) :   1.2110 B( 18-C , 21-H ) :   1.0000
B( 19-C , 20-C ) :   1.6482 B( 19-C , 22-C ) :   1.0223 B( 22-C , 23-H ) :   0.9416
B( 22-C , 24-H ) :   0.9316 B( 22-C , 25-C ) :   1.0549 B( 25-C , 26-H ) :   0.9535
B( 25-C , 27-H ) :   0.9609 B( 25-C , 28-C ) :   1.0717 B( 28-C , 29-H ) :   0.9762
B( 28-C , 30-H ) :   0.9746 B( 28-C , 31-H ) :   0.9777

Dispersion correction           -0.014219640
FINAL SINGLE POINT ENERGY     -1339.868281476919

DIPOLE MOMENT
-------------
                                X             Y             Z
Electronic contribution:     10.61484     -15.67812       7.58116
Nuclear contribution   :    -10.98296      15.97688      -7.73064
                        -----------------------------------------
Total Dipole Moment    :     -0.36812       0.29875      -0.14948
                        -----------------------------------------
Magnitude (a.u.)       :      0.49710
Magnitude (Debye)      :      1.26353

Rotational constants in cm-1:     0.018174     0.008302     0.006836
Rotational constants in MHz :   544.857044   248.894328   204.923306

                             ****ORCA TERMINATED NORMALLY****
TOTAL RUN TIME: 0 days 0 hours 0 minutes 29 seconds 184 msec
