                         Program Version 4.2.1 -  RELEASE  -
|  1> ! wB97X-D3 SP def2-SVP
|  2> %pal
|  3> nprocs 16
|  4> end
|  5>
|  6> * xyz 0 1
|  7> S 	 -29.187 	 65.7944 	 103.087
|  8> C 	 -28.4387 	 67.3282 	 103.176
|  9> C 	 -27.8905 	 67.7181 	 101.983
| 10> C 	 -27.8202 	 66.5941 	 101.048
| 11> C 	 -28.4448 	 65.436 	 101.51
| 12> H 	 -27.439 	 66.6252 	 100.097
| 13> C 	 -27.3664 	 69.0898 	 101.607
| 14> H 	 -28.1937 	 69.8653 	 101.806
| 15> H 	 -27.0745 	 69.1069 	 100.58
| 16> C 	 -26.0886 	 69.5837 	 102.347
| 17> H 	 -25.2967 	 68.9085 	 102.2
| 18> H 	 -25.8083 	 70.5686 	 102.032
| 19> C 	 -26.2443 	 69.8673 	 103.874
| 20> H 	 -25.2737 	 70.1504 	 104.33
| 21> H 	 -27.0383 	 70.5862 	 104.137
| 22> H 	 -26.5374 	 68.9902 	 104.398
| 23> S 	 -30.0384 	 63.449 	 100.712
| 24> C 	 -29.3553 	 62.0176 	 100.004
| 25> C 	 -28.0599 	 62.2103 	 99.7625
| 26> C 	 -27.5153 	 63.3826 	 100.317
| 27> C 	 -28.4881 	 64.1499 	 100.877
| 28> H 	 -27.4852 	 61.4615 	 99.2001
| 29> C 	 -26.0217 	 63.7019 	 100.051
| 30> H 	 -25.6965 	 64.6842 	 100.071
| 31> H 	 -25.9513 	 63.6525 	 98.9777
| 32> C 	 -24.9851 	 62.756 	 100.729
| 33> H 	 -24.0075 	 62.9763 	 100.119
| 34> H 	 -25.1921 	 61.7171 	 100.525
| 35> C 	 -24.7698 	 62.9521 	 102.267
| 36> H 	 -25.7285 	 62.653 	 102.732
| 37> H 	 -24.5772 	 63.9696 	 102.401
| 38> H 	 -23.9295 	 62.3075 	 102.748
| 39> H 	 -28.5305 	 68.002 	 104.039
| 40> H 	 -29.8831 	 61.1305 	 99.6841
| 41> *
| 42>
| 43>                          ****END OF INPUT****

CARTESIAN COORDINATES (ANGSTROEM)
---------------------------------
  S    -29.187000   65.794400  103.087000
  C    -28.438700   67.328200  103.176000
  C    -27.890500   67.718100  101.983000
  C    -27.820200   66.594100  101.048000
  C    -28.444800   65.436000  101.510000
  H    -27.439000   66.625200  100.097000
  C    -27.366400   69.089800  101.607000
  H    -28.193700   69.865300  101.806000
  H    -27.074500   69.106900  100.580000
  C    -26.088600   69.583700  102.347000
  H    -25.296700   68.908500  102.200000
  H    -25.808300   70.568600  102.032000
  C    -26.244300   69.867300  103.874000
  H    -25.273700   70.150400  104.330000
  H    -27.038300   70.586200  104.137000
  H    -26.537400   68.990200  104.398000
  S    -30.038400   63.449000  100.712000
  C    -29.355300   62.017600  100.004000
  C    -28.059900   62.210300   99.762500
  C    -27.515300   63.382600  100.317000
  C    -28.488100   64.149900  100.877000
  H    -27.485200   61.461500   99.200100
  C    -26.021700   63.701900  100.051000
  H    -25.696500   64.684200  100.071000
  H    -25.951300   63.652500   98.977700
  C    -24.985100   62.756000  100.729000
  H    -24.007500   62.976300  100.119000
  H    -25.192100   61.717100  100.525000
  C    -24.769800   62.952100  102.267000
  H    -25.728500   62.653000  102.732000
  H    -24.577200   63.969600  102.401000
  H    -23.929500   62.307500  102.748000
  H    -28.530500   68.002000  104.039000
  H    -29.883100   61.130500   99.684100

 Total Charge           Charge          ....    0
 Multiplicity           Mult            ....    1
 Number of Electrons    NEL             ....  134
 Basis Dimension        Dim             ....  322

ORBITAL ENERGIES
----------------

  NO   OCC          E(Eh)            E(eV)
   0   2.0000     -88.964372     -2420.8436
   1   2.0000     -88.961816     -2420.7741
   2   2.0000     -10.328534      -281.0537
   3   2.0000     -10.319893      -280.8186
   4   2.0000     -10.312431      -280.6155
   5   2.0000     -10.309559      -280.5374
   6   2.0000     -10.302572      -280.3472
   7   2.0000     -10.299550      -280.2650
   8   2.0000     -10.299204      -280.2556
   9   2.0000     -10.295476      -280.1541
  10   2.0000     -10.292165      -280.0640
  11   2.0000     -10.290570      -280.0206
  12   2.0000     -10.286045      -279.8975
  13   2.0000     -10.284822      -279.8642
  14   2.0000     -10.280219      -279.7390
  15   2.0000     -10.277761      -279.6721
  16   2.0000      -8.079524      -219.8550
  17   2.0000      -8.078067      -219.8154
  18   2.0000      -6.038079      -164.3045
  19   2.0000      -6.036530      -164.2623
  20   2.0000      -6.033986      -164.1931
  21   2.0000      -6.032456      -164.1515
  22   2.0000      -6.030183      -164.0896
  23   2.0000      -6.028674      -164.0485
  24   2.0000      -1.016766       -27.6676
  25   2.0000      -0.989182       -26.9170
  26   2.0000      -0.908174       -24.7127
  27   2.0000      -0.902274       -24.5521
  28   2.0000      -0.876115       -23.8403
  29   2.0000      -0.849446       -23.1146
  30   2.0000      -0.843464       -22.9518
  31   2.0000      -0.815337       -22.1865
  32   2.0000      -0.785692       -21.3798
  33   2.0000      -0.778735       -21.1904
  34   2.0000      -0.709405       -19.3039
  35   2.0000      -0.698766       -19.0144
  36   2.0000      -0.692802       -18.8521
  37   2.0000      -0.662692       -18.0328
  38   2.0000      -0.644322       -17.5329
  39   2.0000      -0.619891       -16.8681
  40   2.0000      -0.605291       -16.4708
  41   2.0000      -0.572189       -15.5701
  42   2.0000      -0.554903       -15.0997
  43   2.0000      -0.542647       -14.7662
  44   2.0000      -0.538733       -14.6597
  45   2.0000      -0.531997       -14.4764
  46   2.0000      -0.519220       -14.1287
  47   2.0000      -0.512633       -13.9495
  48   2.0000      -0.504353       -13.7241
  49   2.0000      -0.495622       -13.4866
  50   2.0000      -0.490103       -13.3364
  51   2.0000      -0.479354       -13.0439
  52   2.0000      -0.471587       -12.8325
  53   2.0000      -0.468402       -12.7459
  54   2.0000      -0.464327       -12.6350
  55   2.0000      -0.447098       -12.1662
  56   2.0000      -0.440681       -11.9915
  57   2.0000      -0.437158       -11.8957
  58   2.0000      -0.435358       -11.8467
  59   2.0000      -0.427471       -11.6321
  60   2.0000      -0.422258       -11.4902
  61   2.0000      -0.413856       -11.2616
  62   2.0000      -0.404422       -11.0049
  63   2.0000      -0.352167        -9.5829
  64   2.0000      -0.332041        -9.0353
  65   2.0000      -0.326922        -8.8960
  66   2.0000      -0.293686        -7.9916
  67   0.0000       0.033291         0.9059
  68   0.0000       0.071242         1.9386
  69   0.0000       0.107975         2.9381
  70   0.0000       0.126222         3.4347
  71   0.0000       0.134033         3.6472

MULLIKEN ATOMIC CHARGES
-----------------------
   0 S :    0.120968
   1 C :   -0.132712
   2 C :   -0.085607
   3 C :    0.052907
   4 C :   -0.139269
   5 H :   -0.022149
   6 C :    0.060206
   7 H :    0.047948
   8 H :    0.019714
   9 C :   -0.036612
  10 H :    0.022325
  11 H :    0.026026
  12 C :   -0.084154
  13 H :    0.039285
  14 H :    0.030142
  15 H :    0.017034
  16 S :    0.106177
  17 C :   -0.076786
  18 C :   -0.047203
  19 C :   -0.009341
  20 C :   -0.174431
  21 H :    0.023137
  22 C :    0.093087
  23 H :   -0.009258
  24 H :    0.019354
  25 C :   -0.111094
  26 H :    0.032012
  27 H :    0.026028
  28 C :   -0.042499
  29 H :    0.046671
  30 H :    0.024854
  31 H :    0.052774
  32 H :    0.059807
  33 H :    0.050660
Sum of atomic charges:    0.0000000

LOEWDIN ATOMIC CHARGES
----------------------
   0 S :    0.409630
   1 C :   -0.208395
   2 C :   -0.067181
   3 C :   -0.046367
   4 C :   -0.186960
   5 H :    0.013995
   6 C :   -0.032051
   7 H :    0.042137
   8 H :    0.027969
   9 C :   -0.029352
  10 H :    0.018039
  11 H :    0.023182
  12 C :   -0.072066
  13 H :    0.031102
  14 H :    0.024459
  15 H :    0.012817
  16 S :    0.420357
  17 C :   -0.186495
  18 C :   -0.072268
  19 C :   -0.061001
  20 C :   -0.208701
  21 H :    0.034606
  22 C :   -0.030593
  23 H :    0.018476
  24 H :    0.038024
  25 C :   -0.042108
  26 H :    0.030007
  27 H :    0.015294
  28 C :   -0.066595
  29 H :    0.031842
  30 H :    0.015357
  31 H :    0.038605
  32 H :    0.032331
  33 H :    0.031904

  Mayer bond orders larger than 0.100000
B(  0-S ,  1-C ) :   1.1495 B(  0-S ,  4-C ) :   1.1371 B(  1-C ,  2-C ) :   1.6134
B(  1-C , 32-H ) :   0.9587 B(  2-C ,  3-C ) :   1.2247 B(  2-C ,  6-C ) :   1.0248
B(  3-C ,  4-C ) :   1.5805 B(  3-C ,  5-H ) :   1.0079 B(  4-C , 20-C ) :   1.0427
B(  6-C ,  7-H ) :   0.9404 B(  6-C ,  8-H ) :   0.9396 B(  6-C ,  9-C ) :   1.0750
B(  9-C , 10-H ) :   0.9560 B(  9-C , 11-H ) :   0.9577 B(  9-C , 12-C ) :   1.0750
B( 12-C , 13-H ) :   0.9729 B( 12-C , 14-H ) :   0.9771 B( 12-C , 15-H ) :   0.9711
B( 16-S , 17-C ) :   1.1335 B( 16-S , 20-C ) :   1.1563 B( 17-C , 18-C ) :   1.6363
B( 17-C , 33-H ) :   0.9686 B( 18-C , 19-C ) :   1.2340 B( 18-C , 21-H ) :   0.9828
B( 19-C , 20-C ) :   1.6096 B( 19-C , 22-C ) :   1.0152 B( 22-C , 23-H ) :   0.9374
B( 22-C , 24-H ) :   0.9306 B( 22-C , 25-C ) :   1.0664 B( 25-C , 26-H ) :   0.9540
B( 25-C , 27-H ) :   0.9634 B( 25-C , 28-C ) :   1.0590 B( 28-C , 29-H ) :   0.9755
B( 28-C , 30-H ) :   0.9771 B( 28-C , 31-H ) :   0.9756

Dispersion correction           -0.014319607
FINAL SINGLE POINT ENERGY     -1339.863948914065

DIPOLE MOMENT
-------------
                                X             Y             Z
Electronic contribution:    -24.45088     -11.06567      -2.46653
Nuclear contribution   :     24.98185      11.27995       2.10201
                        -----------------------------------------
Total Dipole Moment    :      0.53098       0.21429      -0.36452
                        -----------------------------------------
Magnitude (a.u.)       :      0.67877
Magnitude (Debye)      :      1.72529

Rotational constants in cm-1:     0.020536     0.008333     0.006791
Rotational constants in MHz :   615.665097   249.818620   203.601388

                             ****ORCA TERMINATED NORMALLY****
TOTAL RUN TIME: 0 days 0 hours 0 minutes 30 seconds 284 msec
