                         Program Version 4.2.1 -  RELEASE  -
|  1> ! wB97X-D3 SP def2-SVP
|  2> %pal
|  3> nprocs 16
|  4> end
|  5>
|  6> * xyz 0 1
|  7> S 	 -9.50296 	 -11.5844 	 87.0771
|  8> C 	 -10.812 	 -11.3736 	 85.894
|  9> C 	 -11.8792 	 -10.5834 	 86.4245
| 10> C 	 -11.683 	 -10.3129 	 87.8303
| 11> C 	 -10.5009 	 -10.7478 	 88.3453
| 12> H 	 -12.4546 	 -9.99807 	 88.4796
| 13> C 	 -13.1886 	 -10.2793 	 85.8118
| 14> H 	 -13.7705 	 -9.76115 	 86.5564
| 15> H 	 -13.8868 	 -11.0755 	 85.6019
| 16> C 	 -13.1345 	 -9.20154 	 84.7093
| 17> H 	 -12.5859 	 -8.30044 	 85.0857
| 18> H 	 -12.6145 	 -9.52325 	 83.7849
| 19> C 	 -14.5596 	 -8.82372 	 84.4595
| 20> H 	 -15.0058 	 -8.33745 	 85.2447
| 21> H 	 -14.5739 	 -8.19468 	 83.5597
| 22> H 	 -15.1673 	 -9.64803 	 84.0049
| 23> S 	 -10.1072 	 -9.52283 	 90.8306
| 24> C 	 -9.89613 	 -10.542 	 92.2495
| 25> C 	 -9.8728 	 -11.9023 	 91.8758
| 26> C 	 -10.126 	 -12.1306 	 90.5027
| 27> C 	 -10.3936 	 -10.9649 	 89.7956
| 28> H 	 -9.59895 	 -12.6513 	 92.6304
| 29> C 	 -10.081 	 -13.5456 	 89.9804
| 30> H 	 -10.7326 	 -13.5143 	 89.1744
| 31> H 	 -10.4262 	 -14.2174 	 90.7206
| 32> C 	 -8.61658 	 -13.9222 	 89.4932
| 33> H 	 -8.15336 	 -13.1442 	 88.9359
| 34> H 	 -8.6506 	 -14.7751 	 88.8666
| 35> C 	 -7.65202 	 -14.3097 	 90.6376
| 36> H 	 -7.72578 	 -15.2627 	 91.1336
| 37> H 	 -7.61313 	 -13.45 	 91.3325
| 38> H 	 -6.649 	 -14.2124 	 90.1301
| 39> H 	 -10.903 	 -11.9736 	 85.0369
| 40> H 	 -9.56115 	 -10.2654 	 93.2354
| 41> *
| 42>
| 43>                          ****END OF INPUT****

CARTESIAN COORDINATES (ANGSTROEM)
---------------------------------
  S     -9.502960  -11.584400   87.077100
  C    -10.812000  -11.373600   85.894000
  C    -11.879200  -10.583400   86.424500
  C    -11.683000  -10.312900   87.830300
  C    -10.500900  -10.747800   88.345300
  H    -12.454600   -9.998070   88.479600
  C    -13.188600  -10.279300   85.811800
  H    -13.770500   -9.761150   86.556400
  H    -13.886800  -11.075500   85.601900
  C    -13.134500   -9.201540   84.709300
  H    -12.585900   -8.300440   85.085700
  H    -12.614500   -9.523250   83.784900
  C    -14.559600   -8.823720   84.459500
  H    -15.005800   -8.337450   85.244700
  H    -14.573900   -8.194680   83.559700
  H    -15.167300   -9.648030   84.004900
  S    -10.107200   -9.522830   90.830600
  C     -9.896130  -10.542000   92.249500
  C     -9.872800  -11.902300   91.875800
  C    -10.126000  -12.130600   90.502700
  C    -10.393600  -10.964900   89.795600
  H     -9.598950  -12.651300   92.630400
  C    -10.081000  -13.545600   89.980400
  H    -10.732600  -13.514300   89.174400
  H    -10.426200  -14.217400   90.720600
  C     -8.616580  -13.922200   89.493200
  H     -8.153360  -13.144200   88.935900
  H     -8.650600  -14.775100   88.866600
  C     -7.652020  -14.309700   90.637600
  H     -7.725780  -15.262700   91.133600
  H     -7.613130  -13.450000   91.332500
  H     -6.649000  -14.212400   90.130100
  H    -10.903000  -11.973600   85.036900
  H     -9.561150  -10.265400   93.235400

 Total Charge           Charge          ....    0
 Multiplicity           Mult            ....    1
 Number of Electrons    NEL             ....  134
 Basis Dimension        Dim             ....  322

ORBITAL ENERGIES
----------------

  NO   OCC          E(Eh)            E(eV)
   0   2.0000     -88.971135     -2421.0277
   1   2.0000     -88.966691     -2420.9067
   2   2.0000     -10.329706      -281.0856
   3   2.0000     -10.328065      -281.0409
   4   2.0000     -10.320634      -280.8387
   5   2.0000     -10.318490      -280.7804
   6   2.0000     -10.306716      -280.4600
   7   2.0000     -10.300079      -280.2794
   8   2.0000     -10.293086      -280.0891
   9   2.0000     -10.292378      -280.0699
  10   2.0000     -10.288782      -279.9720
  11   2.0000     -10.286083      -279.8985
  12   2.0000     -10.281647      -279.7778
  13   2.0000     -10.281179      -279.7651
  14   2.0000     -10.277435      -279.6632
  15   2.0000     -10.272450      -279.5276
  16   2.0000      -8.083675      -219.9680
  17   2.0000      -8.080198      -219.8734
  18   2.0000      -6.042390      -164.4218
  19   2.0000      -6.038766      -164.3232
  20   2.0000      -6.038475      -164.3153
  21   2.0000      -6.034917      -164.2184
  22   2.0000      -6.034357      -164.2032
  23   2.0000      -6.030929      -164.1099
  24   2.0000      -0.997191       -27.1349
  25   2.0000      -0.974571       -26.5194
  26   2.0000      -0.918506       -24.9938
  27   2.0000      -0.903482       -24.5850
  28   2.0000      -0.866394       -23.5758
  29   2.0000      -0.853140       -23.2151
  30   2.0000      -0.846062       -23.0225
  31   2.0000      -0.810559       -22.0564
  32   2.0000      -0.780593       -21.2410
  33   2.0000      -0.767978       -20.8977
  34   2.0000      -0.705788       -19.2055
  35   2.0000      -0.701789       -19.0967
  36   2.0000      -0.690455       -18.7882
  37   2.0000      -0.663938       -18.0667
  38   2.0000      -0.643914       -17.5218
  39   2.0000      -0.616631       -16.7794
  40   2.0000      -0.592012       -16.1095
  41   2.0000      -0.577304       -15.7093
  42   2.0000      -0.564491       -15.3606
  43   2.0000      -0.549129       -14.9426
  44   2.0000      -0.541578       -14.7371
  45   2.0000      -0.525672       -14.3043
  46   2.0000      -0.515924       -14.0390
  47   2.0000      -0.510906       -13.9025
  48   2.0000      -0.507817       -13.8184
  49   2.0000      -0.494723       -13.4621
  50   2.0000      -0.494286       -13.4502
  51   2.0000      -0.472879       -12.8677
  52   2.0000      -0.471324       -12.8254
  53   2.0000      -0.465116       -12.6565
  54   2.0000      -0.453424       -12.3383
  55   2.0000      -0.451402       -12.2833
  56   2.0000      -0.450034       -12.2460
  57   2.0000      -0.430481       -11.7140
  58   2.0000      -0.428350       -11.6560
  59   2.0000      -0.419795       -11.4232
  60   2.0000      -0.416471       -11.3327
  61   2.0000      -0.412566       -11.2265
  62   2.0000      -0.411661       -11.2019
  63   2.0000      -0.344600        -9.3771
  64   2.0000      -0.330839        -9.0026
  65   2.0000      -0.320901        -8.7321
  66   2.0000      -0.293338        -7.9821
  67   0.0000       0.021038         0.5725
  68   0.0000       0.058867         1.6019
  69   0.0000       0.101390         2.7590
  70   0.0000       0.110960         3.0194
  71   0.0000       0.124933         3.3996

MULLIKEN ATOMIC CHARGES
-----------------------
   0 S :    0.085090
   1 C :   -0.101261
   2 C :   -0.060938
   3 C :    0.028986
   4 C :   -0.109834
   5 H :    0.018680
   6 C :    0.053865
   7 H :   -0.003287
   8 H :    0.033253
   9 C :   -0.093451
  10 H :    0.039920
  11 H :    0.036185
  12 C :   -0.029085
  13 H :    0.028615
  14 H :    0.019846
  15 H :    0.028143
  16 S :    0.101518
  17 C :   -0.086508
  18 C :   -0.062944
  19 C :   -0.072490
  20 C :   -0.176591
  21 H :    0.030812
  22 C :    0.143159
  23 H :    0.009403
  24 H :    0.016610
  25 C :   -0.048652
  26 H :    0.023214
  27 H :    0.021572
  28 C :   -0.076400
  29 H :    0.045455
  30 H :    0.028131
  31 H :    0.030913
  32 H :    0.044395
  33 H :    0.053674
Sum of atomic charges:    0.0000000

LOEWDIN ATOMIC CHARGES
----------------------
   0 S :    0.380746
   1 C :   -0.178547
   2 C :   -0.055282
   3 C :   -0.043471
   4 C :   -0.183414
   5 H :    0.029252
   6 C :   -0.043034
   7 H :    0.029652
   8 H :    0.031625
   9 C :   -0.036499
  10 H :    0.032231
  11 H :    0.023302
  12 C :   -0.065993
  13 H :    0.013380
  14 H :    0.028653
  15 H :    0.031827
  16 S :    0.389537
  17 C :   -0.187508
  18 C :   -0.075869
  19 C :   -0.053008
  20 C :   -0.187763
  21 H :    0.033633
  22 C :   -0.017630
  23 H :    0.020396
  24 H :    0.026340
  25 C :   -0.028055
  26 H :    0.011567
  27 H :    0.018564
  28 C :   -0.073787
  29 H :    0.021134
  30 H :    0.024671
  31 H :    0.035105
  32 H :    0.019288
  33 H :    0.028954

  Mayer bond orders larger than 0.100000
B(  0-S ,  1-C ) :   1.1365 B(  0-S ,  4-C ) :   1.1129 B(  1-C ,  2-C ) :   1.5987
B(  1-C , 32-H ) :   0.9748 B(  2-C ,  3-C ) :   1.2427 B(  2-C ,  6-C ) :   1.0270
B(  3-C ,  4-C ) :   1.5987 B(  3-C ,  5-H ) :   0.9881 B(  4-C , 20-C ) :   1.0221
B(  6-C ,  7-H ) :   0.9402 B(  6-C ,  8-H ) :   0.9417 B(  6-C ,  9-C ) :   1.0499
B(  9-C , 10-H ) :   0.9540 B(  9-C , 11-H ) :   0.9583 B(  9-C , 12-C ) :   1.0936
B( 12-C , 13-H ) :   0.9756 B( 12-C , 14-H ) :   0.9664 B( 12-C , 15-H ) :   0.9667
B( 16-S , 17-C ) :   1.1611 B( 16-S , 20-C ) :   1.1259 B( 17-C , 18-C ) :   1.5941
B( 17-C , 20-C ) :   0.1024 B( 17-C , 33-H ) :   0.9652 B( 18-C , 19-C ) :   1.2602
B( 18-C , 21-H ) :   0.9809 B( 19-C , 20-C ) :   1.5870 B( 19-C , 22-C ) :   1.0369
B( 22-C , 23-H ) :   0.9217 B( 22-C , 24-H ) :   0.9407 B( 22-C , 25-C ) :   1.0602
B( 25-C , 26-H ) :   0.9561 B( 25-C , 27-H ) :   0.9580 B( 25-C , 28-C ) :   1.0768
B( 28-C , 29-H ) :   0.9785 B( 28-C , 30-H ) :   0.9711 B( 28-C , 31-H ) :   0.9719

Dispersion correction           -0.014604089
FINAL SINGLE POINT ENERGY     -1339.843002632758

DIPOLE MOMENT
-------------
                                X             Y             Z
Electronic contribution:      7.94124       6.76160       9.29168
Nuclear contribution   :     -8.31756      -7.17415      -9.43923
                        -----------------------------------------
Total Dipole Moment    :     -0.37633      -0.41255      -0.14755
                        -----------------------------------------
Magnitude (a.u.)       :      0.57757
Magnitude (Debye)      :      1.46808

Rotational constants in cm-1:     0.024287     0.007436     0.006200
Rotational constants in MHz :   728.095320   222.916162   185.885407

                             ****ORCA TERMINATED NORMALLY****
TOTAL RUN TIME: 0 days 0 hours 0 minutes 31 seconds 373 msec
