                         Program Version 4.2.1 -  RELEASE  -
|  1> ! wB97X-D3 SP def2-SVP
|  2> %pal
|  3> nprocs 16
|  4> end
|  5>
|  6> * xyz 0 1
|  7> S 	 -40.1194 	 2.68519 	 98.3492
|  8> C 	 -38.4164 	 3.11876 	 98.3209
|  9> C 	 -37.8301 	 2.79368 	 97.0916
| 10> C 	 -38.7548 	 1.94074 	 96.34
| 11> C 	 -40.0253 	 1.73813 	 96.8918
| 12> H 	 -38.4999 	 1.53055 	 95.3583
| 13> C 	 -36.421 	 3.138 	 96.6631
| 14> H 	 -36.3048 	 3.09402 	 95.5402
| 15> H 	 -35.7952 	 2.23229 	 96.9052
| 16> C 	 -35.8001 	 4.53602 	 97.1314
| 17> H 	 -35.7717 	 4.50772 	 98.2394
| 18> H 	 -34.7261 	 4.70593 	 96.716
| 19> C 	 -36.7224 	 5.69261 	 96.8255
| 20> H 	 -37.759 	 5.54603 	 97.1341
| 21> H 	 -36.3879 	 6.64328 	 97.2811
| 22> H 	 -36.8278 	 5.86743 	 95.6977
| 23> S 	 -42.3679 	 2.53893 	 95.59
| 24> C 	 -43.3299 	 1.3141 	 94.7498
| 25> C 	 -42.8541 	 0.0945591 	 95.0202
| 26> C 	 -41.7159 	 0.0816861 	 95.8615
| 27> C 	 -41.2586 	 1.29981 	 96.1851
| 28> H 	 -43.3496 	 -0.69721 	 94.4243
| 29> C 	 -41.1656 	 -1.26405 	 96.3461
| 30> H 	 -40.225 	 -1.08323 	 96.9001
| 31> H 	 -40.8996 	 -1.88056 	 95.4437
| 32> C 	 -42.2076 	 -2.08715 	 97.1437
| 33> H 	 -43.2322 	 -2.03028 	 96.8727
| 34> H 	 -42.1768 	 -1.68279 	 98.1578
| 35> C 	 -41.8281 	 -3.58473 	 97.3021
| 36> H 	 -41.9977 	 -4.26383 	 96.4931
| 37> H 	 -42.3985 	 -4.04038 	 98.1237
| 38> H 	 -40.7987 	 -3.66765 	 97.6842
| 39> H 	 -37.9097 	 3.77664 	 99.0769
| 40> H 	 -44.1386 	 1.53615 	 94.0387
| 41> *
| 42>
| 43>                          ****END OF INPUT****

CARTESIAN COORDINATES (ANGSTROEM)
---------------------------------
  S    -40.119400    2.685190   98.349200
  C    -38.416400    3.118760   98.320900
  C    -37.830100    2.793680   97.091600
  C    -38.754800    1.940740   96.340000
  C    -40.025300    1.738130   96.891800
  H    -38.499900    1.530550   95.358300
  C    -36.421000    3.138000   96.663100
  H    -36.304800    3.094020   95.540200
  H    -35.795200    2.232290   96.905200
  C    -35.800100    4.536020   97.131400
  H    -35.771700    4.507720   98.239400
  H    -34.726100    4.705930   96.716000
  C    -36.722400    5.692610   96.825500
  H    -37.759000    5.546030   97.134100
  H    -36.387900    6.643280   97.281100
  H    -36.827800    5.867430   95.697700
  S    -42.367900    2.538930   95.590000
  C    -43.329900    1.314100   94.749800
  C    -42.854100    0.094559   95.020200
  C    -41.715900    0.081686   95.861500
  C    -41.258600    1.299810   96.185100
  H    -43.349600   -0.697210   94.424300
  C    -41.165600   -1.264050   96.346100
  H    -40.225000   -1.083230   96.900100
  H    -40.899600   -1.880560   95.443700
  C    -42.207600   -2.087150   97.143700
  H    -43.232200   -2.030280   96.872700
  H    -42.176800   -1.682790   98.157800
  C    -41.828100   -3.584730   97.302100
  H    -41.997700   -4.263830   96.493100
  H    -42.398500   -4.040380   98.123700
  H    -40.798700   -3.667650   97.684200
  H    -37.909700    3.776640   99.076900
  H    -44.138600    1.536150   94.038700

 Total Charge           Charge          ....    0
 Multiplicity           Mult            ....    1
 Number of Electrons    NEL             ....  134
 Basis Dimension        Dim             ....  322

ORBITAL ENERGIES
----------------

  NO   OCC          E(Eh)            E(eV)
   0   2.0000     -88.966371     -2420.8980
   1   2.0000     -88.958896     -2420.6946
   2   2.0000     -10.333705      -281.1944
   3   2.0000     -10.326531      -280.9992
   4   2.0000     -10.322233      -280.8822
   5   2.0000     -10.315676      -280.7038
   6   2.0000     -10.311682      -280.5951
   7   2.0000     -10.307797      -280.4894
   8   2.0000     -10.306015      -280.4409
   9   2.0000     -10.303082      -280.3611
  10   2.0000     -10.298967      -280.2491
  11   2.0000     -10.296345      -280.1778
  12   2.0000     -10.288939      -279.9763
  13   2.0000     -10.284406      -279.8529
  14   2.0000     -10.281629      -279.7773
  15   2.0000     -10.275802      -279.6188
  16   2.0000      -8.080986      -219.8948
  17   2.0000      -8.073713      -219.6969
  18   2.0000      -6.039529      -164.3439
  19   2.0000      -6.035440      -164.2327
  20   2.0000      -6.032326      -164.1479
  21   2.0000      -6.031770      -164.1328
  22   2.0000      -6.028335      -164.0393
  23   2.0000      -6.024200      -163.9268
  24   2.0000      -1.007228       -27.4081
  25   2.0000      -0.984763       -26.7968
  26   2.0000      -0.906581       -24.6693
  27   2.0000      -0.901600       -24.5338
  28   2.0000      -0.867588       -23.6083
  29   2.0000      -0.846870       -23.0445
  30   2.0000      -0.843164       -22.9436
  31   2.0000      -0.814220       -22.1561
  32   2.0000      -0.779019       -21.1982
  33   2.0000      -0.771737       -21.0000
  34   2.0000      -0.702165       -19.1069
  35   2.0000      -0.698713       -19.0129
  36   2.0000      -0.695591       -18.9280
  37   2.0000      -0.656141       -17.8545
  38   2.0000      -0.635464       -17.2919
  39   2.0000      -0.610210       -16.6047
  40   2.0000      -0.594115       -16.1667
  41   2.0000      -0.576145       -15.6777
  42   2.0000      -0.555335       -15.1114
  43   2.0000      -0.547665       -14.9027
  44   2.0000      -0.539054       -14.6684
  45   2.0000      -0.525883       -14.3100
  46   2.0000      -0.515146       -14.0178
  47   2.0000      -0.507347       -13.8056
  48   2.0000      -0.500490       -13.6190
  49   2.0000      -0.494977       -13.4690
  50   2.0000      -0.488830       -13.3018
  51   2.0000      -0.475020       -12.9259
  52   2.0000      -0.469289       -12.7700
  53   2.0000      -0.465665       -12.6714
  54   2.0000      -0.457552       -12.4506
  55   2.0000      -0.445619       -12.1259
  56   2.0000      -0.438028       -11.9194
  57   2.0000      -0.435421       -11.8484
  58   2.0000      -0.432296       -11.7634
  59   2.0000      -0.425521       -11.5790
  60   2.0000      -0.418797       -11.3960
  61   2.0000      -0.413100       -11.2410
  62   2.0000      -0.409061       -11.1311
  63   2.0000      -0.342143        -9.3102
  64   2.0000      -0.327535        -8.9127
  65   2.0000      -0.323751        -8.8097
  66   2.0000      -0.307002        -8.3540
  67   0.0000       0.039914         1.0861
  68   0.0000       0.059574         1.6211
  69   0.0000       0.110456         3.0057
  70   0.0000       0.123247         3.3537
  71   0.0000       0.128171         3.4877

MULLIKEN ATOMIC CHARGES
-----------------------
   0 S :    0.103366
   1 C :   -0.137690
   2 C :   -0.106550
   3 C :    0.038427
   4 C :   -0.158617
   5 H :    0.017346
   6 C :    0.019748
   7 H :    0.032971
   8 H :    0.056774
   9 C :   -0.089062
  10 H :    0.034128
  11 H :    0.059513
  12 C :   -0.083936
  13 H :    0.044610
  14 H :    0.040403
  15 H :    0.034859
  16 S :    0.090844
  17 C :   -0.107735
  18 C :   -0.038098
  19 C :   -0.020735
  20 C :   -0.159830
  21 H :    0.032363
  22 C :    0.072185
  23 H :    0.037419
  24 H :    0.033063
  25 C :   -0.070068
  26 H :    0.031210
  27 H :    0.030849
  28 C :   -0.061360
  29 H :    0.033706
  30 H :    0.023913
  31 H :    0.028471
  32 H :    0.072513
  33 H :    0.065002
Sum of atomic charges:    0.0000000

LOEWDIN ATOMIC CHARGES
----------------------
   0 S :    0.410421
   1 C :   -0.204081
   2 C :   -0.066205
   3 C :   -0.053549
   4 C :   -0.207689
   5 H :    0.031013
   6 C :   -0.048031
   7 H :    0.035671
   8 H :    0.043992
   9 C :   -0.048264
  10 H :    0.022705
  11 H :    0.041419
  12 C :   -0.079625
  13 H :    0.026355
  14 H :    0.028127
  15 H :    0.030426
  16 S :    0.375061
  17 C :   -0.171657
  18 C :   -0.080937
  19 C :   -0.061583
  20 C :   -0.193658
  21 H :    0.041530
  22 C :   -0.028414
  23 H :    0.033340
  24 H :    0.033350
  25 C :   -0.038848
  26 H :    0.020231
  27 H :    0.030475
  28 C :   -0.070918
  29 H :    0.018778
  30 H :    0.028445
  31 H :    0.027250
  32 H :    0.038310
  33 H :    0.036559

  Mayer bond orders larger than 0.100000
B(  0-S ,  1-C ) :   1.1502 B(  0-S ,  4-C ) :   1.1508 B(  1-C ,  2-C ) :   1.5875
B(  1-C , 32-H ) :   0.9597 B(  2-C ,  3-C ) :   1.2614 B(  2-C ,  6-C ) :   1.0153
B(  3-C ,  4-C ) :   1.5760 B(  3-C ,  5-H ) :   0.9886 B(  4-C , 20-C ) :   1.0008
B(  6-C ,  7-H ) :   0.9447 B(  6-C ,  8-H ) :   0.9391 B(  6-C ,  9-C ) :   1.0519
B(  9-C , 10-H ) :   0.9543 B(  9-C , 11-H ) :   0.9565 B(  9-C , 12-C ) :   1.0752
B( 12-C , 13-H ) :   0.9693 B( 12-C , 14-H ) :   0.9739 B( 12-C , 15-H ) :   0.9737
B( 16-S , 17-C ) :   1.1314 B( 16-S , 20-C ) :   1.1178 B( 17-C , 18-C ) :   1.6746
B( 17-C , 33-H ) :   0.9619 B( 18-C , 19-C ) :   1.1854 B( 18-C , 21-H ) :   0.9852
B( 19-C , 20-C ) :   1.6834 B( 19-C , 22-C ) :   1.0396 B( 22-C , 23-H ) :   0.9321
B( 22-C , 24-H ) :   0.9427 B( 22-C , 25-C ) :   1.0472 B( 25-C , 26-H ) :   0.9641
B( 25-C , 27-H ) :   0.9522 B( 25-C , 28-C ) :   1.0851 B( 28-C , 29-H ) :   0.9777
B( 28-C , 30-H ) :   0.9732 B( 28-C , 31-H ) :   0.9731

Dispersion correction           -0.013780941
FINAL SINGLE POINT ENERGY     -1339.873038057980

DIPOLE MOMENT
-------------
                                X             Y             Z
Electronic contribution:    -13.16455       8.85318      -0.22811
Nuclear contribution   :     13.48474      -9.10155      -0.06809
                        -----------------------------------------
Total Dipole Moment    :      0.32018      -0.24837      -0.29621
                        -----------------------------------------
Magnitude (a.u.)       :      0.50194
Magnitude (Debye)      :      1.27583

Rotational constants in cm-1:     0.023314     0.006991     0.006094
Rotational constants in MHz :   698.934813   209.574631   182.680368

                             ****ORCA TERMINATED NORMALLY****
TOTAL RUN TIME: 0 days 0 hours 0 minutes 28 seconds 401 msec
