                         Program Version 4.2.1 -  RELEASE  -
|  1> ! wB97X-D3 SP def2-SVP
|  2> %pal
|  3> nprocs 16
|  4> end
|  5>
|  6> * xyz 0 1
|  7> S 	 -3.47771 	 -10.3027 	 89.4933
|  8> C 	 -3.35639 	 -10.5655 	 91.1935
|  9> C 	 -4.22816 	 -9.70764 	 91.8574
| 10> C 	 -5.01035 	 -8.90984 	 90.9586
| 11> C 	 -4.79526 	 -9.16042 	 89.6383
| 12> H 	 -5.72141 	 -8.10645 	 91.2751
| 13> C 	 -4.22374 	 -9.60698 	 93.3984
| 14> H 	 -4.5162 	 -8.62966 	 93.7533
| 15> H 	 -3.24604 	 -9.69851 	 93.8853
| 16> C 	 -5.09605 	 -10.5948 	 94.2333
| 17> H 	 -4.53245 	 -11.5733 	 94.3966
| 18> H 	 -5.28191 	 -10.2042 	 95.2906
| 19> C 	 -6.50641 	 -10.7775 	 93.7176
| 20> H 	 -7.11518 	 -9.86671 	 93.724
| 21> H 	 -6.33407 	 -11.1194 	 92.6866
| 22> H 	 -7.03228 	 -11.5154 	 94.3258
| 23> S 	 -4.58077 	 -7.21601 	 87.6604
| 24> C 	 -5.75385 	 -7.1034 	 86.4394
| 25> C 	 -6.81581 	 -7.99226 	 86.6796
| 26> C 	 -6.56741 	 -8.87762 	 87.7083
| 27> C 	 -5.44407 	 -8.53512 	 88.4698
| 28> H 	 -7.63507 	 -8.11341 	 86.0892
| 29> C 	 -7.46169 	 -10.0439 	 88.0406
| 30> H 	 -8.07965 	 -10.1337 	 87.1875
| 31> H 	 -8.0987 	 -9.80162 	 88.8746
| 32> C 	 -6.90241 	 -11.3344 	 88.3954
| 33> H 	 -6.22668 	 -11.3141 	 89.2603
| 34> H 	 -6.29096 	 -11.6891 	 87.5813
| 35> C 	 -7.99478 	 -12.3384 	 88.7121
| 36> H 	 -7.68254 	 -13.3184 	 89.1423
| 37> H 	 -8.48817 	 -12.6309 	 87.8072
| 38> H 	 -8.81056 	 -11.9123 	 89.3017
| 39> H 	 -2.7726 	 -11.37 	 91.6718
| 40> H 	 -5.81605 	 -6.35667 	 85.7171
| 41> *
| 42>
| 43>                          ****END OF INPUT****

CARTESIAN COORDINATES (ANGSTROEM)
---------------------------------
  S     -3.477710  -10.302700   89.493300
  C     -3.356390  -10.565500   91.193500
  C     -4.228160   -9.707640   91.857400
  C     -5.010350   -8.909840   90.958600
  C     -4.795260   -9.160420   89.638300
  H     -5.721410   -8.106450   91.275100
  C     -4.223740   -9.606980   93.398400
  H     -4.516200   -8.629660   93.753300
  H     -3.246040   -9.698510   93.885300
  C     -5.096050  -10.594800   94.233300
  H     -4.532450  -11.573300   94.396600
  H     -5.281910  -10.204200   95.290600
  C     -6.506410  -10.777500   93.717600
  H     -7.115180   -9.866710   93.724000
  H     -6.334070  -11.119400   92.686600
  H     -7.032280  -11.515400   94.325800
  S     -4.580770   -7.216010   87.660400
  C     -5.753850   -7.103400   86.439400
  C     -6.815810   -7.992260   86.679600
  C     -6.567410   -8.877620   87.708300
  C     -5.444070   -8.535120   88.469800
  H     -7.635070   -8.113410   86.089200
  C     -7.461690  -10.043900   88.040600
  H     -8.079650  -10.133700   87.187500
  H     -8.098700   -9.801620   88.874600
  C     -6.902410  -11.334400   88.395400
  H     -6.226680  -11.314100   89.260300
  H     -6.290960  -11.689100   87.581300
  C     -7.994780  -12.338400   88.712100
  H     -7.682540  -13.318400   89.142300
  H     -8.488170  -12.630900   87.807200
  H     -8.810560  -11.912300   89.301700
  H     -2.772600  -11.370000   91.671800
  H     -5.816050   -6.356670   85.717100

 Total Charge           Charge          ....    0
 Multiplicity           Mult            ....    1
 Number of Electrons    NEL             ....  134
 Basis Dimension        Dim             ....  322

ORBITAL ENERGIES
----------------

  NO   OCC          E(Eh)            E(eV)
   0   2.0000     -88.968150     -2420.9464
   1   2.0000     -88.965233     -2420.8671
   2   2.0000     -10.329269      -281.0737
   3   2.0000     -10.325586      -280.9735
   4   2.0000     -10.318459      -280.7795
   5   2.0000     -10.314392      -280.6689
   6   2.0000     -10.307161      -280.4721
   7   2.0000     -10.299209      -280.2557
   8   2.0000     -10.299035      -280.2510
   9   2.0000     -10.293637      -280.1041
  10   2.0000     -10.293003      -280.0869
  11   2.0000     -10.284239      -279.8484
  12   2.0000     -10.278619      -279.6954
  13   2.0000     -10.273334      -279.5516
  14   2.0000     -10.272708      -279.5346
  15   2.0000     -10.272298      -279.5234
  16   2.0000      -8.083213      -219.9554
  17   2.0000      -8.080164      -219.8724
  18   2.0000      -6.041453      -164.3963
  19   2.0000      -6.038577      -164.3180
  20   2.0000      -6.037412      -164.2863
  21   2.0000      -6.034514      -164.2075
  22   2.0000      -6.034487      -164.2067
  23   2.0000      -6.031125      -164.1153
  24   2.0000      -1.010059       -27.4851
  25   2.0000      -0.990863       -26.9627
  26   2.0000      -0.923094       -25.1187
  27   2.0000      -0.905227       -24.6325
  28   2.0000      -0.868207       -23.6251
  29   2.0000      -0.858426       -23.3590
  30   2.0000      -0.844414       -22.9777
  31   2.0000      -0.814880       -22.1740
  32   2.0000      -0.784840       -21.3566
  33   2.0000      -0.773434       -21.0462
  34   2.0000      -0.709134       -19.2965
  35   2.0000      -0.691062       -18.8048
  36   2.0000      -0.686037       -18.6680
  37   2.0000      -0.670346       -18.2411
  38   2.0000      -0.641516       -17.4565
  39   2.0000      -0.614970       -16.7342
  40   2.0000      -0.605131       -16.4665
  41   2.0000      -0.576451       -15.6860
  42   2.0000      -0.573717       -15.6116
  43   2.0000      -0.546455       -14.8698
  44   2.0000      -0.544131       -14.8066
  45   2.0000      -0.523543       -14.2463
  46   2.0000      -0.518621       -14.1124
  47   2.0000      -0.509085       -13.8529
  48   2.0000      -0.502462       -13.6727
  49   2.0000      -0.499838       -13.6013
  50   2.0000      -0.497017       -13.5245
  51   2.0000      -0.479040       -13.0353
  52   2.0000      -0.475028       -12.9262
  53   2.0000      -0.467706       -12.7269
  54   2.0000      -0.461723       -12.5641
  55   2.0000      -0.446990       -12.1632
  56   2.0000      -0.440284       -11.9807
  57   2.0000      -0.436538       -11.8788
  58   2.0000      -0.428239       -11.6530
  59   2.0000      -0.424873       -11.5614
  60   2.0000      -0.422364       -11.4931
  61   2.0000      -0.407599       -11.0913
  62   2.0000      -0.400567       -10.9000
  63   2.0000      -0.338917        -9.2224
  64   2.0000      -0.333457        -9.0738
  65   2.0000      -0.320034        -8.7086
  66   2.0000      -0.309250        -8.4151
  67   0.0000       0.042880         1.1668
  68   0.0000       0.047514         1.2929
  69   0.0000       0.115150         3.1334
  70   0.0000       0.126724         3.4483
  71   0.0000       0.129221         3.5163

MULLIKEN ATOMIC CHARGES
-----------------------
   0 S :    0.123289
   1 C :   -0.129688
   2 C :   -0.088941
   3 C :    0.047169
   4 C :   -0.188552
   5 H :    0.031462
   6 C :    0.077086
   7 H :    0.014174
   8 H :    0.030767
   9 C :   -0.141822
  10 H :    0.036822
  11 H :    0.032183
  12 C :   -0.052068
  13 H :    0.032205
  14 H :    0.044944
  15 H :    0.035686
  16 S :    0.128774
  17 C :   -0.050961
  18 C :   -0.007802
  19 C :   -0.019756
  20 C :   -0.194507
  21 H :   -0.026822
  22 C :    0.116544
  23 H :   -0.008054
  24 H :    0.025551
  25 C :   -0.071236
  26 H :    0.049530
  27 H :    0.019108
  28 C :   -0.038316
  29 H :    0.037423
  30 H :    0.009214
  31 H :    0.021201
  32 H :    0.068756
  33 H :    0.036640
Sum of atomic charges:    0.0000000

LOEWDIN ATOMIC CHARGES
----------------------
   0 S :    0.422620
   1 C :   -0.201669
   2 C :   -0.072032
   3 C :   -0.062795
   4 C :   -0.206017
   5 H :    0.042545
   6 C :   -0.038537
   7 H :    0.027919
   8 H :    0.035017
   9 C :   -0.053196
  10 H :    0.024238
  11 H :    0.027763
  12 C :   -0.072077
  13 H :    0.024644
  14 H :    0.026414
  15 H :    0.026559
  16 S :    0.437760
  17 C :   -0.185688
  18 C :   -0.064175
  19 C :   -0.044573
  20 C :   -0.206848
  21 H :    0.013876
  22 C :   -0.028768
  23 H :    0.023759
  24 H :    0.034965
  25 C :   -0.044861
  26 H :    0.025438
  27 H :    0.022470
  28 C :   -0.064723
  29 H :    0.031113
  30 H :    0.019064
  31 H :    0.023474
  32 H :    0.038861
  33 H :    0.017460

  Mayer bond orders larger than 0.100000
B(  0-S ,  1-C ) :   1.1603 B(  0-S ,  4-C ) :   1.1528 B(  1-C ,  2-C ) :   1.5818
B(  1-C , 32-H ) :   0.9681 B(  2-C ,  3-C ) :   1.2463 B(  2-C ,  6-C ) :   1.0145
B(  3-C ,  4-C ) :   1.5960 B(  3-C ,  5-H ) :   0.9877 B(  4-C , 20-C ) :   1.0040
B(  6-C ,  7-H ) :   0.9436 B(  6-C ,  8-H ) :   0.9503 B(  6-C ,  9-C ) :   1.0642
B(  9-C , 10-H ) :   0.9596 B(  9-C , 11-H ) :   0.9565 B(  9-C , 12-C ) :   1.0777
B( 12-C , 13-H ) :   0.9746 B( 12-C , 14-H ) :   0.9701 B( 12-C , 15-H ) :   0.9724
B( 16-S , 17-C ) :   1.2040 B( 16-S , 20-C ) :   1.1650 B( 17-C , 18-C ) :   1.5272
B( 17-C , 20-C ) :   0.1146 B( 17-C , 33-H ) :   0.9716 B( 18-C , 19-C ) :   1.3269
B( 18-C , 21-H ) :   0.9956 B( 19-C , 20-C ) :   1.5383 B( 19-C , 22-C ) :   1.0293
B( 22-C , 23-H ) :   0.9244 B( 22-C , 24-H ) :   0.9210 B( 22-C , 25-C ) :   1.0794
B( 25-C , 26-H ) :   0.9444 B( 25-C , 27-H ) :   0.9510 B( 25-C , 28-C ) :   1.0868
B( 28-C , 29-H ) :   0.9728 B( 28-C , 30-H ) :   0.9703 B( 28-C , 31-H ) :   0.9709

Dispersion correction           -0.015109121
FINAL SINGLE POINT ENERGY     -1339.873898413569

DIPOLE MOMENT
-------------
                                X             Y             Z
Electronic contribution:     16.27077      15.30550     -16.83904
Nuclear contribution   :    -16.65351     -15.41282      17.08452
                        -----------------------------------------
Total Dipole Moment    :     -0.38274      -0.10732       0.24548
                        -----------------------------------------
Magnitude (a.u.)       :      0.46719
Magnitude (Debye)      :      1.18750

Rotational constants in cm-1:     0.019380     0.009193     0.007523
Rotational constants in MHz :   581.011442   275.606767   225.545350

                             ****ORCA TERMINATED NORMALLY****
TOTAL RUN TIME: 0 days 0 hours 0 minutes 32 seconds 801 msec
