                         Program Version 4.2.1 -  RELEASE  -
|  1> ! wB97X-D3 SP def2-SVP
|  2> %pal
|  3> nprocs 16
|  4> end
|  5>
|  6> * xyz 0 1
|  7> S 	 44.2409 	 10.9788 	 80.7785
|  8> C 	 43.1909 	 9.81298 	 80.068
|  9> C 	 42.1198 	 9.3235 	 80.8421
| 10> C 	 42.2039 	 10.0484 	 82.107
| 11> C 	 43.2494 	 10.9506 	 82.2338
| 12> H 	 41.5204 	 9.91188 	 82.9182
| 13> C 	 41.1177 	 8.28737 	 80.387
| 14> H 	 41.6233 	 7.35603 	 80.6316
| 15> H 	 40.9145 	 8.41195 	 79.3124
| 16> C 	 39.8023 	 8.18112 	 81.162
| 17> H 	 40.0504 	 7.84987 	 82.0933
| 18> H 	 39.343 	 9.20006 	 81.2798
| 19> C 	 38.8016 	 7.2202 	 80.507
| 20> H 	 39.2243 	 6.36906 	 80.1123
| 21> H 	 38.0121 	 6.91174 	 81.2083
| 22> H 	 38.3317 	 7.72981 	 79.6861
| 23> S 	 45.2994 	 11.3698 	 84.0979
| 24> C 	 45.0584 	 12.2786 	 85.5995
| 25> C 	 43.8103 	 12.8348 	 85.5224
| 26> C 	 43.0582 	 12.5924 	 84.3036
| 27> C 	 43.6447 	 11.6153 	 83.4764
| 28> H 	 43.4103 	 13.498 	 86.2868
| 29> C 	 41.6764 	 13.1571 	 84.0553
| 30> H 	 41.1176 	 13.1135 	 85.0505
| 31> H 	 41.1258 	 12.4548 	 83.3506
| 32> C 	 41.6257 	 14.5726 	 83.644
| 33> H 	 42.143 	 15.2359 	 84.3578
| 34> H 	 40.6374 	 14.8734 	 83.6801
| 35> C 	 42.2046 	 14.8238 	 82.2064
| 36> H 	 41.6826 	 15.7515 	 81.9708
| 37> H 	 41.7419 	 14.0791 	 81.4802
| 38> H 	 43.2529 	 14.8709 	 82.2364
| 39> H 	 43.1912 	 9.64706 	 78.9929
| 40> H 	 45.8161 	 12.5205 	 86.3461
| 41> *
| 42>
| 43>                          ****END OF INPUT****

CARTESIAN COORDINATES (ANGSTROEM)
---------------------------------
  S     44.240900   10.978800   80.778500
  C     43.190900    9.812980   80.068000
  C     42.119800    9.323500   80.842100
  C     42.203900   10.048400   82.107000
  C     43.249400   10.950600   82.233800
  H     41.520400    9.911880   82.918200
  C     41.117700    8.287370   80.387000
  H     41.623300    7.356030   80.631600
  H     40.914500    8.411950   79.312400
  C     39.802300    8.181120   81.162000
  H     40.050400    7.849870   82.093300
  H     39.343000    9.200060   81.279800
  C     38.801600    7.220200   80.507000
  H     39.224300    6.369060   80.112300
  H     38.012100    6.911740   81.208300
  H     38.331700    7.729810   79.686100
  S     45.299400   11.369800   84.097900
  C     45.058400   12.278600   85.599500
  C     43.810300   12.834800   85.522400
  C     43.058200   12.592400   84.303600
  C     43.644700   11.615300   83.476400
  H     43.410300   13.498000   86.286800
  C     41.676400   13.157100   84.055300
  H     41.117600   13.113500   85.050500
  H     41.125800   12.454800   83.350600
  C     41.625700   14.572600   83.644000
  H     42.143000   15.235900   84.357800
  H     40.637400   14.873400   83.680100
  C     42.204600   14.823800   82.206400
  H     41.682600   15.751500   81.970800
  H     41.741900   14.079100   81.480200
  H     43.252900   14.870900   82.236400
  H     43.191200    9.647060   78.992900
  H     45.816100   12.520500   86.346100

 Total Charge           Charge          ....    0
 Multiplicity           Mult            ....    1
 Number of Electrons    NEL             ....  134
 Basis Dimension        Dim             ....  322

ORBITAL ENERGIES
----------------

  NO   OCC          E(Eh)            E(eV)
   0   2.0000     -88.971209     -2421.0297
   1   2.0000     -88.957674     -2420.6614
   2   2.0000     -10.331738      -281.1409
   3   2.0000     -10.331095      -281.1234
   4   2.0000     -10.319959      -280.8204
   5   2.0000     -10.314133      -280.6618
   6   2.0000     -10.309645      -280.5397
   7   2.0000     -10.303380      -280.3692
   8   2.0000     -10.299614      -280.2667
   9   2.0000     -10.298861      -280.2462
  10   2.0000     -10.294237      -280.1204
  11   2.0000     -10.291513      -280.0463
  12   2.0000     -10.285929      -279.8943
  13   2.0000     -10.275385      -279.6075
  14   2.0000     -10.275276      -279.6045
  15   2.0000     -10.272675      -279.5337
  16   2.0000      -8.085965      -220.0303
  17   2.0000      -8.071827      -219.6456
  18   2.0000      -6.044350      -164.4751
  19   2.0000      -6.040545      -164.3716
  20   2.0000      -6.036778      -164.2691
  21   2.0000      -6.030553      -164.0997
  22   2.0000      -6.026326      -163.9847
  23   2.0000      -6.022452      -163.8792
  24   2.0000      -1.001253       -27.2455
  25   2.0000      -0.978576       -26.6284
  26   2.0000      -0.918401       -24.9910
  27   2.0000      -0.909379       -24.7455
  28   2.0000      -0.869628       -23.6638
  29   2.0000      -0.852914       -23.2090
  30   2.0000      -0.836399       -22.7596
  31   2.0000      -0.815448       -22.1895
  32   2.0000      -0.783327       -21.3154
  33   2.0000      -0.770551       -20.9678
  34   2.0000      -0.715874       -19.4799
  35   2.0000      -0.693836       -18.8802
  36   2.0000      -0.688774       -18.7425
  37   2.0000      -0.651329       -17.7236
  38   2.0000      -0.642327       -17.4786
  39   2.0000      -0.618867       -16.8402
  40   2.0000      -0.593265       -16.1436
  41   2.0000      -0.583682       -15.8828
  42   2.0000      -0.564966       -15.3735
  43   2.0000      -0.555253       -15.1092
  44   2.0000      -0.537618       -14.6293
  45   2.0000      -0.525216       -14.2919
  46   2.0000      -0.514852       -14.0098
  47   2.0000      -0.513295       -13.9675
  48   2.0000      -0.506536       -13.7836
  49   2.0000      -0.495700       -13.4887
  50   2.0000      -0.488179       -13.2840
  51   2.0000      -0.485195       -13.2028
  52   2.0000      -0.469483       -12.7753
  53   2.0000      -0.467291       -12.7156
  54   2.0000      -0.457925       -12.4608
  55   2.0000      -0.450242       -12.2517
  56   2.0000      -0.439853       -11.9690
  57   2.0000      -0.436749       -11.8846
  58   2.0000      -0.431023       -11.7287
  59   2.0000      -0.428491       -11.6598
  60   2.0000      -0.427831       -11.6419
  61   2.0000      -0.406092       -11.0503
  62   2.0000      -0.403568       -10.9816
  63   2.0000      -0.346596        -9.4314
  64   2.0000      -0.329966        -8.9788
  65   2.0000      -0.321584        -8.7507
  66   2.0000      -0.292124        -7.9491
  67   0.0000       0.032492         0.8841
  68   0.0000       0.060875         1.6565
  69   0.0000       0.116041         3.1576
  70   0.0000       0.120100         3.2681
  71   0.0000       0.124534         3.3887

MULLIKEN ATOMIC CHARGES
-----------------------
   0 S :    0.137167
   1 C :   -0.130765
   2 C :   -0.097692
   3 C :    0.029813
   4 C :   -0.157113
   5 H :    0.009632
   6 C :    0.061767
   7 H :    0.047743
   8 H :    0.038175
   9 C :   -0.085275
  10 H :    0.011466
  11 H :    0.037107
  12 C :   -0.004914
  13 H :    0.010421
  14 H :    0.037336
  15 H :    0.026153
  16 S :    0.071745
  17 C :   -0.087450
  18 C :   -0.026207
  19 C :   -0.041686
  20 C :   -0.155079
  21 H :    0.018831
  22 C :    0.014285
  23 H :    0.029713
  24 H :    0.034725
  25 C :   -0.048609
  26 H :    0.023071
  27 H :    0.007338
  28 C :   -0.047841
  29 H :    0.027455
  30 H :    0.040099
  31 H :    0.048761
  32 H :    0.049433
  33 H :    0.070396
Sum of atomic charges:   -0.0000000

LOEWDIN ATOMIC CHARGES
----------------------
   0 S :    0.421380
   1 C :   -0.205174
   2 C :   -0.058194
   3 C :   -0.051611
   4 C :   -0.202082
   5 H :    0.025480
   6 C :   -0.031873
   7 H :    0.042545
   8 H :    0.034167
   9 C :   -0.035628
  10 H :    0.008796
  11 H :    0.028512
  12 C :   -0.053781
  13 H :    0.013409
  14 H :    0.032792
  15 H :    0.025794
  16 S :    0.372198
  17 C :   -0.181576
  18 C :   -0.075426
  19 C :   -0.061364
  20 C :   -0.186392
  21 H :    0.028989
  22 C :   -0.043454
  23 H :    0.035624
  24 H :    0.034737
  25 C :   -0.040962
  26 H :    0.025487
  27 H :    0.013266
  28 C :   -0.059965
  29 H :    0.027494
  30 H :    0.033717
  31 H :    0.019990
  32 H :    0.024008
  33 H :    0.039096

  Mayer bond orders larger than 0.100000
B(  0-S ,  1-C ) :   1.1622 B(  0-S ,  4-C ) :   1.1397 B(  1-C ,  2-C ) :   1.6087
B(  1-C , 32-H ) :   0.9597 B(  2-C ,  3-C ) :   1.2488 B(  2-C ,  6-C ) :   1.0108
B(  3-C ,  4-C ) :   1.5737 B(  3-C ,  5-H ) :   0.9897 B(  4-C , 20-C ) :   1.0461
B(  6-C ,  7-H ) :   0.9238 B(  6-C ,  8-H ) :   0.9486 B(  6-C ,  9-C ) :   1.0812
B(  9-C , 10-H ) :   0.9455 B(  9-C , 11-H ) :   0.9614 B(  9-C , 12-C ) :   1.0876
B( 12-C , 13-H ) :   0.9730 B( 12-C , 14-H ) :   0.9733 B( 12-C , 15-H ) :   0.9750
B( 16-S , 17-C ) :   1.1388 B( 16-S , 20-C ) :   1.1238 B( 17-C , 18-C ) :   1.6067
B( 17-C , 33-H ) :   0.9687 B( 18-C , 19-C ) :   1.2477 B( 18-C , 21-H ) :   0.9817
B( 19-C , 20-C ) :   1.5796 B( 19-C , 22-C ) :   1.0384 B( 22-C , 23-H ) :   0.9342
B( 22-C , 24-H ) :   0.9384 B( 22-C , 25-C ) :   1.0908 B( 25-C , 26-H ) :   0.9498
B( 25-C , 27-H ) :   0.9527 B( 25-C , 28-C ) :   1.0648 B( 28-C , 29-H ) :   0.9766
B( 28-C , 30-H ) :   0.9751 B( 28-C , 31-H ) :   0.9796

Dispersion correction           -0.014251348
FINAL SINGLE POINT ENERGY     -1339.865632672644

DIPOLE MOMENT
-------------
                                X             Y             Z
Electronic contribution:     25.40795       0.53935       4.11504
Nuclear contribution   :    -26.16928      -0.57864      -4.11652
                        -----------------------------------------
Total Dipole Moment    :     -0.76133      -0.03929      -0.00148
                        -----------------------------------------
Magnitude (a.u.)       :      0.76235
Magnitude (Debye)      :      1.93773

Rotational constants in cm-1:     0.019436     0.007725     0.006984
Rotational constants in MHz :   582.663731   231.576976   209.389937

                             ****ORCA TERMINATED NORMALLY****
TOTAL RUN TIME: 0 days 0 hours 0 minutes 29 seconds 754 msec
