                         Program Version 4.2.1 -  RELEASE  -
|  1> ! wB97X-D3 SP def2-SVP
|  2> %pal
|  3> nprocs 16
|  4> end
|  5>
|  6> * xyz 0 1
|  7> S 	 8.58259 	 -24.3903 	 82.6906
|  8> C 	 8.16797 	 -22.8019 	 83.2013
|  9> C 	 8.80828 	 -21.875 	 82.4195
| 10> C 	 9.60505 	 -22.3857 	 81.3875
| 11> C 	 9.55825 	 -23.7848 	 81.3707
| 12> H 	 10.0599 	 -21.7524 	 80.5791
| 13> C 	 8.52084 	 -20.4184 	 82.5593
| 14> H 	 9.52489 	 -19.8957 	 82.8294
| 15> H 	 8.05048 	 -20.328 	 83.503
| 16> C 	 7.72639 	 -19.7383 	 81.4385
| 17> H 	 7.89618 	 -20.0011 	 80.3831
| 18> H 	 6.64852 	 -20.0241 	 81.5526
| 19> C 	 7.86245 	 -18.2289 	 81.371
| 20> H 	 7.67992 	 -17.7786 	 80.3943
| 21> H 	 7.08745 	 -17.8869 	 82.0261
| 22> H 	 8.84641 	 -17.951 	 81.7942
| 23> S 	 9.41703 	 -25.1005 	 78.9881
| 24> C 	 10.8439 	 -25.9211 	 78.3451
| 25> C 	 11.8431 	 -25.8815 	 79.2456
| 26> C 	 11.616 	 -25.0855 	 80.413
| 27> C 	 10.2969 	 -24.6626 	 80.4666
| 28> H 	 12.6765 	 -26.4593 	 79.0405
| 29> C 	 12.7107 	 -24.9107 	 81.3827
| 30> H 	 13.5727 	 -25.4261 	 80.9913
| 31> H 	 12.3837 	 -25.5356 	 82.2854
| 32> C 	 13.1426 	 -23.4321 	 81.6353
| 33> H 	 12.3412 	 -22.9363 	 82.2922
| 34> H 	 13.0925 	 -22.8545 	 80.6979
| 35> C 	 14.5545 	 -23.4762 	 82.3367
| 36> H 	 15.2513 	 -23.4457 	 81.4544
| 37> H 	 14.8652 	 -24.2947 	 82.978
| 38> H 	 14.6418 	 -22.558 	 82.9196
| 39> H 	 7.38345 	 -22.6897 	 83.979
| 40> H 	 10.9605 	 -26.386 	 77.3799
| 41> *
| 42>
| 43>                          ****END OF INPUT****

CARTESIAN COORDINATES (ANGSTROEM)
---------------------------------
  S      8.582590  -24.390300   82.690600
  C      8.167970  -22.801900   83.201300
  C      8.808280  -21.875000   82.419500
  C      9.605050  -22.385700   81.387500
  C      9.558250  -23.784800   81.370700
  H     10.059900  -21.752400   80.579100
  C      8.520840  -20.418400   82.559300
  H      9.524890  -19.895700   82.829400
  H      8.050480  -20.328000   83.503000
  C      7.726390  -19.738300   81.438500
  H      7.896180  -20.001100   80.383100
  H      6.648520  -20.024100   81.552600
  C      7.862450  -18.228900   81.371000
  H      7.679920  -17.778600   80.394300
  H      7.087450  -17.886900   82.026100
  H      8.846410  -17.951000   81.794200
  S      9.417030  -25.100500   78.988100
  C     10.843900  -25.921100   78.345100
  C     11.843100  -25.881500   79.245600
  C     11.616000  -25.085500   80.413000
  C     10.296900  -24.662600   80.466600
  H     12.676500  -26.459300   79.040500
  C     12.710700  -24.910700   81.382700
  H     13.572700  -25.426100   80.991300
  H     12.383700  -25.535600   82.285400
  C     13.142600  -23.432100   81.635300
  H     12.341200  -22.936300   82.292200
  H     13.092500  -22.854500   80.697900
  C     14.554500  -23.476200   82.336700
  H     15.251300  -23.445700   81.454400
  H     14.865200  -24.294700   82.978000
  H     14.641800  -22.558000   82.919600
  H      7.383450  -22.689700   83.979000
  H     10.960500  -26.386000   77.379900

 Total Charge           Charge          ....    0
 Multiplicity           Mult            ....    1
 Number of Electrons    NEL             ....  134
 Basis Dimension        Dim             ....  322

ORBITAL ENERGIES
----------------

  NO   OCC          E(Eh)            E(eV)
   0   2.0000     -88.964193     -2420.8388
   1   2.0000     -88.959154     -2420.7017
   2   2.0000     -10.328431      -281.0509
   3   2.0000     -10.322800      -280.8977
   4   2.0000     -10.313256      -280.6379
   5   2.0000     -10.311363      -280.5864
   6   2.0000     -10.298426      -280.2344
   7   2.0000     -10.296324      -280.1772
   8   2.0000     -10.296202      -280.1739
   9   2.0000     -10.294188      -280.1191
  10   2.0000     -10.293039      -280.0878
  11   2.0000     -10.290848      -280.0282
  12   2.0000     -10.287627      -279.9406
  13   2.0000     -10.283209      -279.8203
  14   2.0000     -10.280396      -279.7438
  15   2.0000     -10.274420      -279.5812
  16   2.0000      -8.079602      -219.8571
  17   2.0000      -8.073506      -219.6913
  18   2.0000      -6.037885      -164.2992
  19   2.0000      -6.033864      -164.1898
  20   2.0000      -6.032140      -164.1429
  21   2.0000      -6.030723      -164.1043
  22   2.0000      -6.028060      -164.0319
  23   2.0000      -6.024171      -163.9260
  24   2.0000      -1.006555       -27.3897
  25   2.0000      -0.985408       -26.8143
  26   2.0000      -0.911588       -24.8056
  27   2.0000      -0.903031       -24.5727
  28   2.0000      -0.870846       -23.6969
  29   2.0000      -0.853327       -23.2202
  30   2.0000      -0.843848       -22.9623
  31   2.0000      -0.816837       -22.2273
  32   2.0000      -0.778325       -21.1793
  33   2.0000      -0.763679       -20.7808
  34   2.0000      -0.709441       -19.3049
  35   2.0000      -0.697128       -18.9698
  36   2.0000      -0.687607       -18.7108
  37   2.0000      -0.659725       -17.9520
  38   2.0000      -0.642214       -17.4755
  39   2.0000      -0.621031       -16.8991
  40   2.0000      -0.589274       -16.0349
  41   2.0000      -0.568993       -15.4831
  42   2.0000      -0.557434       -15.1686
  43   2.0000      -0.553276       -15.0554
  44   2.0000      -0.533664       -14.5217
  45   2.0000      -0.517485       -14.0815
  46   2.0000      -0.514974       -14.0132
  47   2.0000      -0.512807       -13.9542
  48   2.0000      -0.509066       -13.8524
  49   2.0000      -0.505937       -13.7672
  50   2.0000      -0.492012       -13.3883
  51   2.0000      -0.475837       -12.9482
  52   2.0000      -0.470550       -12.8043
  53   2.0000      -0.464078       -12.6282
  54   2.0000      -0.459320       -12.4987
  55   2.0000      -0.450311       -12.2536
  56   2.0000      -0.446753       -12.1568
  57   2.0000      -0.437781       -11.9126
  58   2.0000      -0.428548       -11.6614
  59   2.0000      -0.416311       -11.3284
  60   2.0000      -0.411056       -11.1854
  61   2.0000      -0.407213       -11.0808
  62   2.0000      -0.401686       -10.9304
  63   2.0000      -0.335492        -9.1292
  64   2.0000      -0.327339        -8.9074
  65   2.0000      -0.315236        -8.5780
  66   2.0000      -0.310978        -8.4621
  67   0.0000       0.048033         1.3070
  68   0.0000       0.053911         1.4670
  69   0.0000       0.119199         3.2436
  70   0.0000       0.122633         3.3370
  71   0.0000       0.129446         3.5224

MULLIKEN ATOMIC CHARGES
-----------------------
   0 S :    0.117543
   1 C :   -0.144582
   2 C :   -0.092916
   3 C :    0.044915
   4 C :   -0.182209
   5 H :    0.041319
   6 C :    0.076929
   7 H :    0.035552
   8 H :   -0.001274
   9 C :   -0.086227
  10 H :    0.031366
  11 H :    0.031883
  12 C :   -0.042834
  13 H :    0.038658
  14 H :    0.023823
  15 H :    0.033114
  16 S :    0.093414
  17 C :   -0.079830
  18 C :   -0.022274
  19 C :   -0.016391
  20 C :   -0.190520
  21 H :   -0.010105
  22 C :    0.073627
  23 H :    0.003351
  24 H :    0.058311
  25 C :   -0.118374
  26 H :    0.059505
  27 H :    0.043211
  28 C :   -0.059372
  29 H :    0.041124
  30 H :    0.045987
  31 H :    0.036403
  32 H :    0.066323
  33 H :    0.050546
Sum of atomic charges:   -0.0000000

LOEWDIN ATOMIC CHARGES
----------------------
   0 S :    0.423703
   1 C :   -0.211900
   2 C :   -0.075581
   3 C :   -0.058833
   4 C :   -0.203894
   5 H :    0.045917
   6 C :   -0.036684
   7 H :    0.038907
   8 H :    0.023641
   9 C :   -0.051472
  10 H :    0.026094
  11 H :    0.029822
  12 C :   -0.065402
  13 H :    0.027103
  14 H :    0.022570
  15 H :    0.026656
  16 S :    0.384287
  17 C :   -0.173957
  18 C :   -0.070387
  19 C :   -0.053817
  20 C :   -0.199114
  21 H :    0.019342
  22 C :   -0.038821
  23 H :    0.023710
  24 H :    0.048201
  25 C :   -0.040867
  26 H :    0.031371
  27 H :    0.027922
  28 C :   -0.072213
  29 H :    0.032961
  30 H :    0.026892
  31 H :    0.026605
  32 H :    0.036002
  33 H :    0.031237

  Mayer bond orders larger than 0.100000
B(  0-S ,  1-C ) :   1.1520 B(  0-S ,  4-C ) :   1.1867 B(  1-C ,  2-C ) :   1.5764
B(  1-C ,  4-C ) :   0.1016 B(  1-C , 32-H ) :   0.9668 B(  2-C ,  3-C ) :   1.2738
B(  2-C ,  6-C ) :   1.0395 B(  3-C ,  4-C ) :   1.5410 B(  3-C ,  5-H ) :   0.9891
B(  4-C , 20-C ) :   1.0011 B(  6-C ,  7-H ) :   0.9343 B(  6-C ,  8-H ) :   0.9309
B(  6-C ,  9-C ) :   1.0397 B(  9-C , 10-H ) :   0.9703 B(  9-C , 11-H ) :   0.9566
B(  9-C , 12-C ) :   1.0617 B( 12-C , 13-H ) :   0.9784 B( 12-C , 14-H ) :   0.9790
B( 12-C , 15-H ) :   0.9774 B( 16-S , 17-C ) :   1.1378 B( 16-S , 20-C ) :   1.1361
B( 17-C , 18-C ) :   1.6498 B( 17-C , 33-H ) :   0.9645 B( 18-C , 19-C ) :   1.2157
B( 18-C , 21-H ) :   0.9954 B( 19-C , 20-C ) :   1.6158 B( 19-C , 22-C ) :   1.0485
B( 22-C , 23-H ) :   0.9348 B( 22-C , 24-H ) :   0.9234 B( 22-C , 25-C ) :   1.0426
B( 25-C , 26-H ) :   0.9563 B( 25-C , 27-H ) :   0.9633 B( 25-C , 28-C ) :   1.0528
B( 28-C , 29-H ) :   0.9780 B( 28-C , 30-H ) :   0.9785 B( 28-C , 31-H ) :   0.9774

Dispersion correction           -0.014352513
FINAL SINGLE POINT ENERGY     -1339.862487037818

DIPOLE MOMENT
-------------
                                X             Y             Z
Electronic contribution:    -11.08527     -21.50615      -5.67068
Nuclear contribution   :     11.40761      21.85841       5.72116
                        -----------------------------------------
Total Dipole Moment    :      0.32234       0.35226       0.05048
                        -----------------------------------------
Magnitude (a.u.)       :      0.48015
Magnitude (Debye)      :      1.22044

Rotational constants in cm-1:     0.017344     0.008268     0.007202
Rotational constants in MHz :   519.972246   247.862971   215.905524

                             ****ORCA TERMINATED NORMALLY****
TOTAL RUN TIME: 0 days 0 hours 0 minutes 33 seconds 901 msec
