                         Program Version 4.2.1 -  RELEASE  -
|  1> ! wB97X-D3 SP def2-SVP
|  2> %pal
|  3> nprocs 16
|  4> end
|  5>
|  6> * xyz 0 1
|  7> S 	 -37.4295 	 55.272 	 114.857
|  8> C 	 -38.614 	 56.5479 	 114.815
|  9> C 	 -39.8363 	 56.1104 	 115.274
| 10> C 	 -39.8963 	 54.7294 	 115.571
| 11> C 	 -38.6689 	 54.1242 	 115.459
| 12> H 	 -40.8206 	 54.2244 	 115.898
| 13> C 	 -41.0506 	 57.0573 	 115.539
| 14> H 	 -40.7026 	 57.9305 	 116.034
| 15> H 	 -41.8197 	 56.5852 	 116.214
| 16> C 	 -41.9464 	 57.2561 	 114.287
| 17> H 	 -42.3342 	 56.3088 	 113.962
| 18> H 	 -42.8661 	 57.7438 	 114.64
| 19> C 	 -41.3342 	 58.0591 	 113.101
| 20> H 	 -40.8676 	 58.9917 	 113.416
| 21> H 	 -40.5921 	 57.3899 	 112.713
| 22> H 	 -42.0809 	 58.2563 	 112.336
| 23> S 	 -37.2466 	 52.375 	 117.143
| 24> C 	 -37.764 	 50.7165 	 117.256
| 25> C 	 -38.4503 	 50.4197 	 116.084
| 26> C 	 -38.7978 	 51.5693 	 115.294
| 27> C 	 -38.4252 	 52.718 	 115.903
| 28> H 	 -38.6468 	 49.3236 	 115.847
| 29> C 	 -39.6449 	 51.5088 	 114.057
| 30> H 	 -39.2832 	 50.6404 	 113.458
| 31> H 	 -39.525 	 52.434 	 113.55
| 32> C 	 -41.1477 	 51.2879 	 114.36
| 33> H 	 -41.4383 	 52.1787 	 114.94
| 34> H 	 -41.2797 	 50.4576 	 114.999
| 35> C 	 -42.0033 	 51.0598 	 113.174
| 36> H 	 -41.5458 	 50.56 	 112.319
| 37> H 	 -42.4871 	 51.9462 	 112.782
| 38> H 	 -42.834 	 50.4506 	 113.496
| 39> H 	 -38.3619 	 57.6013 	 114.434
| 40> H 	 -37.3702 	 50.0063 	 117.936
| 41> *
| 42>
| 43>                          ****END OF INPUT****

CARTESIAN COORDINATES (ANGSTROEM)
---------------------------------
  S    -37.429500   55.272000  114.857000
  C    -38.614000   56.547900  114.815000
  C    -39.836300   56.110400  115.274000
  C    -39.896300   54.729400  115.571000
  C    -38.668900   54.124200  115.459000
  H    -40.820600   54.224400  115.898000
  C    -41.050600   57.057300  115.539000
  H    -40.702600   57.930500  116.034000
  H    -41.819700   56.585200  116.214000
  C    -41.946400   57.256100  114.287000
  H    -42.334200   56.308800  113.962000
  H    -42.866100   57.743800  114.640000
  C    -41.334200   58.059100  113.101000
  H    -40.867600   58.991700  113.416000
  H    -40.592100   57.389900  112.713000
  H    -42.080900   58.256300  112.336000
  S    -37.246600   52.375000  117.143000
  C    -37.764000   50.716500  117.256000
  C    -38.450300   50.419700  116.084000
  C    -38.797800   51.569300  115.294000
  C    -38.425200   52.718000  115.903000
  H    -38.646800   49.323600  115.847000
  C    -39.644900   51.508800  114.057000
  H    -39.283200   50.640400  113.458000
  H    -39.525000   52.434000  113.550000
  C    -41.147700   51.287900  114.360000
  H    -41.438300   52.178700  114.940000
  H    -41.279700   50.457600  114.999000
  C    -42.003300   51.059800  113.174000
  H    -41.545800   50.560000  112.319000
  H    -42.487100   51.946200  112.782000
  H    -42.834000   50.450600  113.496000
  H    -38.361900   57.601300  114.434000
  H    -37.370200   50.006300  117.936000

 Total Charge           Charge          ....    0
 Multiplicity           Mult            ....    1
 Number of Electrons    NEL             ....  134
 Basis Dimension        Dim             ....  322

ORBITAL ENERGIES
----------------

  NO   OCC          E(Eh)            E(eV)
   0   2.0000     -88.970200     -2421.0022
   1   2.0000     -88.959089     -2420.6999
   2   2.0000     -10.334678      -281.2209
   3   2.0000     -10.322492      -280.8893
   4   2.0000     -10.321017      -280.8491
   5   2.0000     -10.315007      -280.6856
   6   2.0000     -10.301583      -280.3203
   7   2.0000     -10.299391      -280.2607
   8   2.0000     -10.297639      -280.2130
   9   2.0000     -10.297181      -280.2005
  10   2.0000     -10.296853      -280.1916
  11   2.0000     -10.287407      -279.9346
  12   2.0000     -10.286534      -279.9108
  13   2.0000     -10.279387      -279.7164
  14   2.0000     -10.275140      -279.6008
  15   2.0000     -10.270805      -279.4828
  16   2.0000      -8.084190      -219.9820
  17   2.0000      -8.074529      -219.7191
  18   2.0000      -6.042799      -164.4329
  19   2.0000      -6.038784      -164.3237
  20   2.0000      -6.034919      -164.2185
  21   2.0000      -6.033047      -164.1675
  22   2.0000      -6.029213      -164.0632
  23   2.0000      -6.024949      -163.9472
  24   2.0000      -1.007630       -27.4190
  25   2.0000      -0.986917       -26.8554
  26   2.0000      -0.913091       -24.8465
  27   2.0000      -0.903366       -24.5818
  28   2.0000      -0.867044       -23.5935
  29   2.0000      -0.851053       -23.1583
  30   2.0000      -0.847400       -23.0589
  31   2.0000      -0.812019       -22.0962
  32   2.0000      -0.782632       -21.2965
  33   2.0000      -0.774839       -21.0844
  34   2.0000      -0.702695       -19.1213
  35   2.0000      -0.698435       -19.0054
  36   2.0000      -0.692907       -18.8550
  37   2.0000      -0.658265       -17.9123
  38   2.0000      -0.637813       -17.3558
  39   2.0000      -0.618777       -16.8378
  40   2.0000      -0.595440       -16.2028
  41   2.0000      -0.568124       -15.4594
  42   2.0000      -0.565548       -15.3893
  43   2.0000      -0.538473       -14.6526
  44   2.0000      -0.535763       -14.5788
  45   2.0000      -0.530587       -14.4380
  46   2.0000      -0.519222       -14.1287
  47   2.0000      -0.514812       -14.0087
  48   2.0000      -0.511508       -13.9188
  49   2.0000      -0.496617       -13.5136
  50   2.0000      -0.488368       -13.2892
  51   2.0000      -0.480421       -13.0729
  52   2.0000      -0.476027       -12.9534
  53   2.0000      -0.466946       -12.7062
  54   2.0000      -0.460635       -12.5345
  55   2.0000      -0.447403       -12.1744
  56   2.0000      -0.444511       -12.0958
  57   2.0000      -0.440545       -11.9878
  58   2.0000      -0.429637       -11.6910
  59   2.0000      -0.422879       -11.5071
  60   2.0000      -0.418348       -11.3838
  61   2.0000      -0.415164       -11.2972
  62   2.0000      -0.408616       -11.1190
  63   2.0000      -0.344574        -9.3763
  64   2.0000      -0.331381        -9.0173
  65   2.0000      -0.322199        -8.7675
  66   2.0000      -0.299848        -8.1593
  67   0.0000       0.037320         1.0155
  68   0.0000       0.055703         1.5157
  69   0.0000       0.110784         3.0146
  70   0.0000       0.115036         3.1303
  71   0.0000       0.128068         3.4849

MULLIKEN ATOMIC CHARGES
-----------------------
   0 S :    0.118309
   1 C :   -0.166341
   2 C :   -0.070865
   3 C :    0.017242
   4 C :   -0.154720
   5 H :    0.034038
   6 C :    0.050492
   7 H :    0.031686
   8 H :    0.029881
   9 C :   -0.080422
  10 H :    0.015352
  11 H :    0.022674
  12 C :   -0.037982
  13 H :    0.029561
  14 H :    0.035132
  15 H :    0.037836
  16 S :    0.097242
  17 C :   -0.081019
  18 C :   -0.064553
  19 C :   -0.029522
  20 C :   -0.177443
  21 H :    0.041498
  22 C :    0.087110
  23 H :    0.026272
  24 H :    0.026450
  25 C :   -0.060546
  26 H :    0.013919
  27 H :    0.013643
  28 C :   -0.012189
  29 H :    0.028903
  30 H :    0.024670
  31 H :    0.022118
  32 H :    0.082949
  33 H :    0.048626
Sum of atomic charges:    0.0000000

LOEWDIN ATOMIC CHARGES
----------------------
   0 S :    0.393018
   1 C :   -0.212903
   2 C :   -0.068755
   3 C :   -0.060287
   4 C :   -0.179229
   5 H :    0.038261
   6 C :   -0.026364
   7 H :    0.024305
   8 H :    0.038374
   9 C :   -0.039588
  10 H :    0.019724
  11 H :    0.020146
  12 C :   -0.065776
  13 H :    0.022699
  14 H :    0.023480
  15 H :    0.027518
  16 S :    0.399538
  17 C :   -0.181182
  18 C :   -0.077634
  19 C :   -0.059518
  20 C :   -0.197775
  21 H :    0.040217
  22 C :   -0.024786
  23 H :    0.033952
  24 H :    0.025723
  25 C :   -0.038534
  26 H :    0.025052
  27 H :    0.017711
  28 C :   -0.067676
  29 H :    0.026618
  30 H :    0.025086
  31 H :    0.028140
  32 H :    0.046692
  33 H :    0.023750

  Mayer bond orders larger than 0.100000
B(  0-S ,  1-C ) :   1.1342 B(  0-S ,  4-C ) :   1.1440 B(  1-C ,  2-C ) :   1.6146
B(  1-C , 32-H ) :   0.9561 B(  2-C ,  3-C ) :   1.2602 B(  2-C ,  6-C ) :   1.0065
B(  3-C ,  4-C ) :   1.5800 B(  3-C ,  5-H ) :   0.9817 B(  4-C , 20-C ) :   1.0270
B(  6-C ,  7-H ) :   0.9520 B(  6-C ,  8-H ) :   0.9472 B(  6-C ,  9-C ) :   1.0662
B(  9-C , 10-H ) :   0.9549 B(  9-C , 11-H ) :   0.9589 B(  9-C , 12-C ) :   1.0728
B( 12-C , 13-H ) :   0.9774 B( 12-C , 14-H ) :   0.9746 B( 12-C , 15-H ) :   0.9743
B( 16-S , 17-C ) :   1.1530 B( 16-S , 20-C ) :   1.1309 B( 17-C , 18-C ) :   1.6127
B( 17-C , 33-H ) :   0.9758 B( 18-C , 19-C ) :   1.2170 B( 18-C , 21-H ) :   0.9799
B( 19-C , 20-C ) :   1.6118 B( 19-C , 22-C ) :   1.0669 B( 22-C , 23-H ) :   0.9261
B( 22-C , 24-H ) :   0.9221 B( 22-C , 25-C ) :   1.0759 B( 25-C , 26-H ) :   0.9461
B( 25-C , 27-H ) :   0.9609 B( 25-C , 28-C ) :   1.0865 B( 28-C , 29-H ) :   0.9722
B( 28-C , 30-H ) :   0.9718 B( 28-C , 31-H ) :   0.9729

Dispersion correction           -0.014686011
FINAL SINGLE POINT ENERGY     -1339.873262058050

DIPOLE MOMENT
-------------
                                X             Y             Z
Electronic contribution:     25.89205      -4.04162      13.89379
Nuclear contribution   :    -26.50940       3.95561     -14.10492
                        -----------------------------------------
Total Dipole Moment    :     -0.61735      -0.08601      -0.21114
                        -----------------------------------------
Magnitude (a.u.)       :      0.65810
Magnitude (Debye)      :      1.67276

Rotational constants in cm-1:     0.018575     0.008975     0.006759
Rotational constants in MHz :   556.870744   269.066641   202.641531

                             ****ORCA TERMINATED NORMALLY****
TOTAL RUN TIME: 0 days 0 hours 0 minutes 29 seconds 365 msec
