                         Program Version 4.2.1 -  RELEASE  -
|  1> ! wB97X-D3 SP def2-SVP
|  2> %pal
|  3> nprocs 16
|  4> end
|  5>
|  6> * xyz 0 1
|  7> S 	 -20.7976 	 -2.87096 	 89.2392
|  8> C 	 -22.0568 	 -2.90127 	 90.4339
|  9> C 	 -23.2195 	 -2.2934 	 89.9674
| 10> C 	 -22.9861 	 -1.7013 	 88.6525
| 11> C 	 -21.7699 	 -2.00274 	 88.062
| 12> H 	 -23.7528 	 -1.12968 	 88.0973
| 13> C 	 -24.5474 	 -2.09402 	 90.7134
| 14> H 	 -25.123 	 -1.39481 	 90.1453
| 15> H 	 -24.4424 	 -1.53717 	 91.597
| 16> C 	 -25.2797 	 -3.44998 	 90.9274
| 17> H 	 -24.7282 	 -4.154 	 91.5522
| 18> H 	 -26.2273 	 -3.21106 	 91.5713
| 19> C 	 -25.7152 	 -4.11864 	 89.6621
| 20> H 	 -26.3492 	 -3.56294 	 89.033
| 21> H 	 -24.8355 	 -4.39284 	 89.0311
| 22> H 	 -26.2494 	 -5.0429 	 89.907
| 23> S 	 -20.1304 	 -0.408133 	 86.3851
| 24> C 	 -20.5021 	 -0.342261 	 84.6619
| 25> C 	 -21.3366 	 -1.39104 	 84.3669
| 26> C 	 -21.8746 	 -2.04849 	 85.4665
| 27> C 	 -21.412 	 -1.60589 	 86.6851
| 28> H 	 -21.5671 	 -1.52544 	 83.3066
| 29> C 	 -23.0557 	 -2.97294 	 85.2459
| 30> H 	 -23.035 	 -3.72374 	 86.0657
| 31> H 	 -22.8756 	 -3.63712 	 84.3864
| 32> C 	 -24.4765 	 -2.31587 	 85.2647
| 33> H 	 -24.481 	 -1.50519 	 84.5906
| 34> H 	 -24.7119 	 -1.87687 	 86.2369
| 35> C 	 -25.5924 	 -3.26435 	 84.8386
| 36> H 	 -25.7288 	 -3.98677 	 85.6345
| 37> H 	 -25.3517 	 -3.96357 	 84.0647
| 38> H 	 -26.5968 	 -2.76886 	 84.6184
| 39> H 	 -21.7715 	 -3.09482 	 91.4173
| 40> H 	 -20.0914 	 0.211491 	 83.875
| 41> *
| 42>
| 43>                          ****END OF INPUT****

CARTESIAN COORDINATES (ANGSTROEM)
---------------------------------
  S    -20.797600   -2.870960   89.239200
  C    -22.056800   -2.901270   90.433900
  C    -23.219500   -2.293400   89.967400
  C    -22.986100   -1.701300   88.652500
  C    -21.769900   -2.002740   88.062000
  H    -23.752800   -1.129680   88.097300
  C    -24.547400   -2.094020   90.713400
  H    -25.123000   -1.394810   90.145300
  H    -24.442400   -1.537170   91.597000
  C    -25.279700   -3.449980   90.927400
  H    -24.728200   -4.154000   91.552200
  H    -26.227300   -3.211060   91.571300
  C    -25.715200   -4.118640   89.662100
  H    -26.349200   -3.562940   89.033000
  H    -24.835500   -4.392840   89.031100
  H    -26.249400   -5.042900   89.907000
  S    -20.130400   -0.408133   86.385100
  C    -20.502100   -0.342261   84.661900
  C    -21.336600   -1.391040   84.366900
  C    -21.874600   -2.048490   85.466500
  C    -21.412000   -1.605890   86.685100
  H    -21.567100   -1.525440   83.306600
  C    -23.055700   -2.972940   85.245900
  H    -23.035000   -3.723740   86.065700
  H    -22.875600   -3.637120   84.386400
  C    -24.476500   -2.315870   85.264700
  H    -24.481000   -1.505190   84.590600
  H    -24.711900   -1.876870   86.236900
  C    -25.592400   -3.264350   84.838600
  H    -25.728800   -3.986770   85.634500
  H    -25.351700   -3.963570   84.064700
  H    -26.596800   -2.768860   84.618400
  H    -21.771500   -3.094820   91.417300
  H    -20.091400    0.211491   83.875000

 Total Charge           Charge          ....    0
 Multiplicity           Mult            ....    1
 Number of Electrons    NEL             ....  134
 Basis Dimension        Dim             ....  322

ORBITAL ENERGIES
----------------

  NO   OCC          E(Eh)            E(eV)
   0   2.0000     -88.965735     -2420.8807
   1   2.0000     -88.965286     -2420.8685
   2   2.0000     -10.332969      -281.1744
   3   2.0000     -10.330716      -281.1131
   4   2.0000     -10.314988      -280.6851
   5   2.0000     -10.313965      -280.6573
   6   2.0000     -10.308162      -280.4994
   7   2.0000     -10.300231      -280.2835
   8   2.0000     -10.299680      -280.2685
   9   2.0000     -10.295305      -280.1495
  10   2.0000     -10.294012      -280.1143
  11   2.0000     -10.291060      -280.0340
  12   2.0000     -10.288274      -279.9582
  13   2.0000     -10.285856      -279.8924
  14   2.0000     -10.278760      -279.6993
  15   2.0000     -10.272652      -279.5331
  16   2.0000      -8.080627      -219.8850
  17   2.0000      -8.079275      -219.8482
  18   2.0000      -6.039186      -164.3346
  19   2.0000      -6.037844      -164.2981
  20   2.0000      -6.034883      -164.2175
  21   2.0000      -6.033884      -164.1903
  22   2.0000      -6.031557      -164.1270
  23   2.0000      -6.029988      -164.0843
  24   2.0000      -1.005084       -27.3497
  25   2.0000      -0.985738       -26.8233
  26   2.0000      -0.910460       -24.7749
  27   2.0000      -0.904129       -24.6026
  28   2.0000      -0.870329       -23.6829
  29   2.0000      -0.850878       -23.1536
  30   2.0000      -0.845374       -23.0038
  31   2.0000      -0.816902       -22.2290
  32   2.0000      -0.784185       -21.3387
  33   2.0000      -0.771612       -20.9966
  34   2.0000      -0.710116       -19.3232
  35   2.0000      -0.702466       -19.1151
  36   2.0000      -0.697093       -18.9689
  37   2.0000      -0.659642       -17.9498
  38   2.0000      -0.650724       -17.7071
  39   2.0000      -0.613135       -16.6842
  40   2.0000      -0.593668       -16.1545
  41   2.0000      -0.574491       -15.6327
  42   2.0000      -0.556908       -15.1542
  43   2.0000      -0.552630       -15.0378
  44   2.0000      -0.538902       -14.6643
  45   2.0000      -0.524953       -14.2847
  46   2.0000      -0.520149       -14.1540
  47   2.0000      -0.515799       -14.0356
  48   2.0000      -0.508903       -13.8480
  49   2.0000      -0.505547       -13.7566
  50   2.0000      -0.487573       -13.2675
  51   2.0000      -0.478749       -13.0274
  52   2.0000      -0.469798       -12.7839
  53   2.0000      -0.464033       -12.6270
  54   2.0000      -0.453799       -12.3485
  55   2.0000      -0.446274       -12.1437
  56   2.0000      -0.441045       -12.0014
  57   2.0000      -0.438669       -11.9368
  58   2.0000      -0.435817       -11.8592
  59   2.0000      -0.429726       -11.6934
  60   2.0000      -0.418381       -11.3847
  61   2.0000      -0.411292       -11.1918
  62   2.0000      -0.406958       -11.0739
  63   2.0000      -0.338479        -9.2105
  64   2.0000      -0.329189        -8.9577
  65   2.0000      -0.327712        -8.9175
  66   2.0000      -0.307067        -8.3557
  67   0.0000       0.032985         0.8976
  68   0.0000       0.056485         1.5370
  69   0.0000       0.118107         3.2139
  70   0.0000       0.121114         3.2957
  71   0.0000       0.123711         3.3663

MULLIKEN ATOMIC CHARGES
-----------------------
   0 S :    0.111844
   1 C :   -0.111113
   2 C :   -0.107705
   3 C :    0.016268
   4 C :   -0.153366
   5 H :    0.031234
   6 C :    0.128638
   7 H :    0.001813
   8 H :    0.020934
   9 C :   -0.104657
  10 H :    0.035547
  11 H :    0.034359
  12 C :   -0.039737
  13 H :    0.017581
  14 H :    0.045633
  15 H :    0.032970
  16 S :    0.103022
  17 C :   -0.064370
  18 C :   -0.056317
  19 C :    0.004623
  20 C :   -0.181017
  21 H :    0.022890
  22 C :    0.036310
  23 H :    0.023702
  24 H :    0.024216
  25 C :   -0.011000
  26 H :    0.012442
  27 H :    0.017289
  28 C :   -0.055737
  29 H :    0.017334
  30 H :    0.018653
  31 H :    0.050921
  32 H :    0.040993
  33 H :    0.035807
Sum of atomic charges:    0.0000000

LOEWDIN ATOMIC CHARGES
----------------------
   0 S :    0.411577
   1 C :   -0.188928
   2 C :   -0.059245
   3 C :   -0.060096
   4 C :   -0.202736
   5 H :    0.032206
   6 C :   -0.026613
   7 H :    0.026564
   8 H :    0.026388
   9 C :   -0.042024
  10 H :    0.023841
  11 H :    0.030736
  12 C :   -0.067484
  13 H :    0.015617
  14 H :    0.031978
  15 H :    0.029812
  16 S :    0.391008
  17 C :   -0.169408
  18 C :   -0.074552
  19 C :   -0.059102
  20 C :   -0.188629
  21 H :    0.034621
  22 C :   -0.033048
  23 H :    0.031091
  24 H :    0.031639
  25 C :   -0.031853
  26 H :    0.014966
  27 H :    0.023159
  28 C :   -0.073110
  29 H :    0.023712
  30 H :    0.021129
  31 H :    0.036701
  32 H :    0.016563
  33 H :    0.023523

  Mayer bond orders larger than 0.100000
B(  0-S ,  1-C ) :   1.1597 B(  0-S ,  4-C ) :   1.1450 B(  1-C ,  2-C ) :   1.5780
B(  1-C , 32-H ) :   0.9779 B(  2-C ,  3-C ) :   1.2573 B(  2-C ,  6-C ) :   1.0122
B(  3-C ,  4-C ) :   1.5768 B(  3-C ,  5-H ) :   0.9786 B(  4-C , 20-C ) :   1.0368
B(  6-C ,  7-H ) :   0.9399 B(  6-C ,  8-H ) :   0.9392 B(  6-C ,  9-C ) :   1.0608
B(  9-C , 10-H ) :   0.9602 B(  9-C , 11-H ) :   0.9542 B(  9-C , 12-C ) :   1.0826
B( 12-C , 13-H ) :   0.9751 B( 12-C , 14-H ) :   0.9696 B( 12-C , 15-H ) :   0.9701
B( 16-S , 17-C ) :   1.1539 B( 16-S , 20-C ) :   1.1296 B( 17-C , 18-C ) :   1.6192
B( 17-C , 20-C ) :   0.1049 B( 17-C , 33-H ) :   0.9699 B( 18-C , 19-C ) :   1.2473
B( 18-C , 21-H ) :   0.9876 B( 19-C , 20-C ) :   1.5953 B( 19-C , 22-C ) :   1.0577
B( 22-C , 23-H ) :   0.9242 B( 22-C , 24-H ) :   0.9389 B( 22-C , 25-C ) :   1.0530
B( 25-C , 26-H ) :   0.9586 B( 25-C , 27-H ) :   0.9481 B( 25-C , 28-C ) :   1.0802
B( 28-C , 29-H ) :   0.9719 B( 28-C , 30-H ) :   0.9728 B( 28-C , 31-H ) :   0.9737

Dispersion correction           -0.015398165
FINAL SINGLE POINT ENERGY     -1339.872878724288

DIPOLE MOMENT
-------------
                                X             Y             Z
Electronic contribution:     29.76871      10.32897       1.09577
Nuclear contribution   :    -30.42171     -10.38395      -1.20803
                        -----------------------------------------
Total Dipole Moment    :     -0.65300      -0.05498      -0.11226
                        -----------------------------------------
Magnitude (a.u.)       :      0.66486
Magnitude (Debye)      :      1.68993

Rotational constants in cm-1:     0.017940     0.009917     0.007014
Rotational constants in MHz :   537.814480   297.302229   210.263079

                             ****ORCA TERMINATED NORMALLY****
TOTAL RUN TIME: 0 days 0 hours 0 minutes 35 seconds 725 msec
