                         Program Version 4.2.1 -  RELEASE  -
|  1> ! wB97X-D3 SP def2-SVP
|  2> %pal
|  3> nprocs 16
|  4> end
|  5>
|  6> * xyz 0 1
|  7> S 	 17.0326 	 -6.85753 	 80.4944
|  8> C 	 15.5419 	 -6.00456 	 80.916
|  9> C 	 14.5978 	 -6.05285 	 79.8381
| 10> C 	 15.1376 	 -6.90706 	 78.7428
| 11> C 	 16.3563 	 -7.49875 	 79.0555
| 12> H 	 14.6372 	 -7.18995 	 77.8439
| 13> C 	 13.27 	 -5.32074 	 79.7823
| 14> H 	 13.3034 	 -4.69554 	 78.8946
| 15> H 	 13.3556 	 -4.60611 	 80.6225
| 16> C 	 12.0126 	 -6.24242 	 79.9364
| 17> H 	 12.0809 	 -7.19682 	 79.3884
| 18> H 	 11.9154 	 -6.64071 	 80.9622
| 19> C 	 10.6473 	 -5.52 	 79.6247
| 20> H 	 9.70366 	 -6.10472 	 79.6834
| 21> H 	 10.5101 	 -4.51979 	 80.1588
| 22> H 	 10.6719 	 -5.32249 	 78.5772
| 23> S 	 17.1646 	 -10.0025 	 78.09
| 24> C 	 17.9515 	 -10.0935 	 76.5426
| 25> C 	 18.1086 	 -8.82103 	 76.0591
| 26> C 	 17.6204 	 -7.78714 	 76.8775
| 27> C 	 17.1476 	 -8.23615 	 78.1021
| 28> H 	 18.5859 	 -8.69546 	 75.0674
| 29> C 	 17.6757 	 -6.32296 	 76.3562
| 30> H 	 17.0165 	 -5.64285 	 76.8646
| 31> H 	 17.2593 	 -6.28383 	 75.314
| 32> C 	 19.0741 	 -5.60898 	 76.3976
| 33> H 	 19.9372 	 -6.29712 	 76.1765
| 34> H 	 19.231 	 -5.18118 	 77.4471
| 35> C 	 19.2003 	 -4.48821 	 75.3747
| 36> H 	 18.387 	 -3.77992 	 75.3865
| 37> H 	 19.2444 	 -4.90728 	 74.3457
| 38> H 	 20.0975 	 -3.84059 	 75.5954
| 39> H 	 15.3253 	 -5.46259 	 81.8285
| 40> H 	 18.3139 	 -11.0079 	 76.049
| 41> *
| 42>
| 43>                          ****END OF INPUT****

CARTESIAN COORDINATES (ANGSTROEM)
---------------------------------
  S     17.032600   -6.857530   80.494400
  C     15.541900   -6.004560   80.916000
  C     14.597800   -6.052850   79.838100
  C     15.137600   -6.907060   78.742800
  C     16.356300   -7.498750   79.055500
  H     14.637200   -7.189950   77.843900
  C     13.270000   -5.320740   79.782300
  H     13.303400   -4.695540   78.894600
  H     13.355600   -4.606110   80.622500
  C     12.012600   -6.242420   79.936400
  H     12.080900   -7.196820   79.388400
  H     11.915400   -6.640710   80.962200
  C     10.647300   -5.520000   79.624700
  H      9.703660   -6.104720   79.683400
  H     10.510100   -4.519790   80.158800
  H     10.671900   -5.322490   78.577200
  S     17.164600  -10.002500   78.090000
  C     17.951500  -10.093500   76.542600
  C     18.108600   -8.821030   76.059100
  C     17.620400   -7.787140   76.877500
  C     17.147600   -8.236150   78.102100
  H     18.585900   -8.695460   75.067400
  C     17.675700   -6.322960   76.356200
  H     17.016500   -5.642850   76.864600
  H     17.259300   -6.283830   75.314000
  C     19.074100   -5.608980   76.397600
  H     19.937200   -6.297120   76.176500
  H     19.231000   -5.181180   77.447100
  C     19.200300   -4.488210   75.374700
  H     18.387000   -3.779920   75.386500
  H     19.244400   -4.907280   74.345700
  H     20.097500   -3.840590   75.595400
  H     15.325300   -5.462590   81.828500
  H     18.313900  -11.007900   76.049000

 Total Charge           Charge          ....    0
 Multiplicity           Mult            ....    1
 Number of Electrons    NEL             ....  134
 Basis Dimension        Dim             ....  322

ORBITAL ENERGIES
----------------

  NO   OCC          E(Eh)            E(eV)
   0   2.0000     -88.967795     -2420.9368
   1   2.0000     -88.963523     -2420.8205
   2   2.0000     -10.325236      -280.9640
   3   2.0000     -10.324820      -280.9526
   4   2.0000     -10.321548      -280.8636
   5   2.0000     -10.319270      -280.8016
   6   2.0000     -10.313468      -280.6437
   7   2.0000     -10.305010      -280.4136
   8   2.0000     -10.302159      -280.3360
   9   2.0000     -10.298085      -280.2251
  10   2.0000     -10.297667      -280.2138
  11   2.0000     -10.296431      -280.1801
  12   2.0000     -10.294397      -280.1248
  13   2.0000     -10.291540      -280.0470
  14   2.0000     -10.285945      -279.8948
  15   2.0000     -10.281052      -279.7617
  16   2.0000      -8.082564      -219.9377
  17   2.0000      -8.078322      -219.8223
  18   2.0000      -6.041047      -164.3853
  19   2.0000      -6.037008      -164.2753
  20   2.0000      -6.036838      -164.2707
  21   2.0000      -6.033397      -164.1771
  22   2.0000      -6.032702      -164.1582
  23   2.0000      -6.029168      -164.0620
  24   2.0000      -1.006340       -27.3839
  25   2.0000      -0.980608       -26.6837
  26   2.0000      -0.905317       -24.6349
  27   2.0000      -0.899076       -24.4651
  28   2.0000      -0.867816       -23.6145
  29   2.0000      -0.847455       -23.0604
  30   2.0000      -0.842643       -22.9295
  31   2.0000      -0.810843       -22.0642
  32   2.0000      -0.780109       -21.2278
  33   2.0000      -0.768945       -20.9241
  34   2.0000      -0.708601       -19.2820
  35   2.0000      -0.698491       -19.0069
  36   2.0000      -0.687279       -18.7018
  37   2.0000      -0.654417       -17.8076
  38   2.0000      -0.642818       -17.4920
  39   2.0000      -0.615041       -16.7361
  40   2.0000      -0.597864       -16.2687
  41   2.0000      -0.566358       -15.4114
  42   2.0000      -0.554316       -15.0837
  43   2.0000      -0.550575       -14.9819
  44   2.0000      -0.525562       -14.3013
  45   2.0000      -0.518221       -14.1015
  46   2.0000      -0.517873       -14.0920
  47   2.0000      -0.508639       -13.8408
  48   2.0000      -0.503461       -13.6999
  49   2.0000      -0.499118       -13.5817
  50   2.0000      -0.498595       -13.5674
  51   2.0000      -0.472188       -12.8489
  52   2.0000      -0.465370       -12.6634
  53   2.0000      -0.462651       -12.5894
  54   2.0000      -0.457352       -12.4452
  55   2.0000      -0.448945       -12.2164
  56   2.0000      -0.443664       -12.0727
  57   2.0000      -0.436959       -11.8903
  58   2.0000      -0.428394       -11.6572
  59   2.0000      -0.426514       -11.6060
  60   2.0000      -0.417512       -11.3611
  61   2.0000      -0.413591       -11.2544
  62   2.0000      -0.412486       -11.2243
  63   2.0000      -0.334904        -9.1132
  64   2.0000      -0.327053        -8.8996
  65   2.0000      -0.322304        -8.7703
  66   2.0000      -0.311634        -8.4800
  67   0.0000       0.040071         1.0904
  68   0.0000       0.056898         1.5483
  69   0.0000       0.107784         2.9329
  70   0.0000       0.121046         3.2938
  71   0.0000       0.132305         3.6002

MULLIKEN ATOMIC CHARGES
-----------------------
   0 S :    0.120648
   1 C :   -0.112728
   2 C :   -0.137203
   3 C :    0.048521
   4 C :   -0.157173
   5 H :    0.011805
   6 C :    0.083494
   7 H :    0.038026
   8 H :    0.020119
   9 C :   -0.076295
  10 H :    0.038417
  11 H :    0.032638
  12 C :   -0.077640
  13 H :    0.042471
  14 H :    0.046787
  15 H :    0.020457
  16 S :    0.101229
  17 C :   -0.102393
  18 C :   -0.046253
  19 C :   -0.000817
  20 C :   -0.168216
  21 H :    0.028181
  22 C :    0.053328
  23 H :    0.020483
  24 H :    0.031276
  25 C :   -0.094163
  26 H :    0.040164
  27 H :    0.045897
  28 C :   -0.073120
  29 H :    0.021815
  30 H :    0.038433
  31 H :    0.042626
  32 H :    0.049191
  33 H :    0.069993
Sum of atomic charges:   -0.0000000

LOEWDIN ATOMIC CHARGES
----------------------
   0 S :    0.421433
   1 C :   -0.201371
   2 C :   -0.054477
   3 C :   -0.051869
   4 C :   -0.214449
   5 H :    0.027418
   6 C :   -0.033588
   7 H :    0.034351
   8 H :    0.034307
   9 C :   -0.043843
  10 H :    0.028245
  11 H :    0.027963
  12 C :   -0.080135
  13 H :    0.031622
  14 H :    0.033417
  15 H :    0.018211
  16 S :    0.406883
  17 C :   -0.189707
  18 C :   -0.081077
  19 C :   -0.051543
  20 C :   -0.208427
  21 H :    0.036118
  22 C :   -0.033922
  23 H :    0.026639
  24 H :    0.034060
  25 C :   -0.047001
  26 H :    0.027252
  27 H :    0.032109
  28 C :   -0.074575
  29 H :    0.017306
  30 H :    0.027102
  31 H :    0.034138
  32 H :    0.028150
  33 H :    0.039258

  Mayer bond orders larger than 0.100000
B(  0-S ,  1-C ) :   1.1437 B(  0-S ,  4-C ) :   1.1575 B(  1-C ,  2-C ) :   1.6076
B(  1-C , 32-H ) :   0.9675 B(  2-C ,  3-C ) :   1.2194 B(  2-C ,  6-C ) :   1.0296
B(  3-C ,  4-C ) :   1.5866 B(  3-C ,  5-H ) :   0.9993 B(  4-C , 20-C ) :   1.0042
B(  6-C ,  7-H ) :   0.9452 B(  6-C ,  8-H ) :   0.9365 B(  6-C ,  9-C ) :   1.0377
B(  9-C , 10-H ) :   0.9645 B(  9-C , 11-H ) :   0.9566 B(  9-C , 12-C ) :   1.0655
B( 12-C , 13-H ) :   0.9758 B( 12-C , 14-H ) :   0.9759 B( 12-C , 15-H ) :   0.9772
B( 16-S , 17-C ) :   1.1684 B( 16-S , 20-C ) :   1.1388 B( 17-C , 18-C ) :   1.5911
B( 17-C , 20-C ) :   0.1008 B( 17-C , 33-H ) :   0.9659 B( 18-C , 19-C ) :   1.2636
B( 18-C , 21-H ) :   0.9865 B( 19-C , 20-C ) :   1.5868 B( 19-C , 22-C ) :   1.0334
B( 22-C , 23-H ) :   0.9318 B( 22-C , 24-H ) :   0.9489 B( 22-C , 25-C ) :   1.0425
B( 25-C , 26-H ) :   0.9638 B( 25-C , 27-H ) :   0.9567 B( 25-C , 28-C ) :   1.0753
B( 28-C , 29-H ) :   0.9753 B( 28-C , 30-H ) :   0.9756 B( 28-C , 31-H ) :   0.9721

Dispersion correction           -0.013959173
FINAL SINGLE POINT ENERGY     -1339.877594206303

DIPOLE MOMENT
-------------
                                X             Y             Z
Electronic contribution:     12.08981     -19.53050       9.77052
Nuclear contribution   :    -12.40588      19.95814     -10.24185
                        -----------------------------------------
Total Dipole Moment    :     -0.31607       0.42764      -0.47132
                        -----------------------------------------
Magnitude (a.u.)       :      0.71058
Magnitude (Debye)      :      1.80615

Rotational constants in cm-1:     0.017235     0.007601     0.006681
Rotational constants in MHz :   516.693391   227.862847   200.288160

                             ****ORCA TERMINATED NORMALLY****
TOTAL RUN TIME: 0 days 0 hours 0 minutes 28 seconds 498 msec
