                         Program Version 4.2.1 -  RELEASE  -
|  1> ! wB97X-D3 SP def2-SVP
|  2> %pal
|  3> nprocs 16
|  4> end
|  5>
|  6> * xyz 0 1
|  7> S 	 -22.4624 	 35.5325 	 35.106
|  8> C 	 -22.3042 	 35.7007 	 33.4341
|  9> C 	 -21.145 	 35.0714 	 32.9416
| 10> C 	 -20.3941 	 34.4286 	 33.9696
| 11> C 	 -21.0988 	 34.4646 	 35.1924
| 12> H 	 -19.4199 	 33.9173 	 33.8982
| 13> C 	 -20.6809 	 35.2644 	 31.518
| 14> H 	 -21.5182 	 35.4429 	 30.9176
| 15> H 	 -20.4394 	 34.3409 	 31.117
| 16> C 	 -19.5564 	 36.3277 	 31.2436
| 17> H 	 -19.9031 	 36.7587 	 30.312
| 18> H 	 -19.6448 	 37.2043 	 31.9001
| 19> C 	 -18.1774 	 35.7363 	 31.0719
| 20> H 	 -18.1282 	 34.7212 	 30.521
| 21> H 	 -17.5698 	 36.4468 	 30.5694
| 22> H 	 -17.7048 	 35.6566 	 32.0459
| 23> S 	 -21.6497 	 32.8719 	 37.3908
| 24> C 	 -20.4562 	 32.7276 	 38.6853
| 25> C 	 -19.3188 	 33.437 	 38.316
| 26> C 	 -19.3416 	 34.0561 	 37.0241
| 27> C 	 -20.6118 	 33.9036 	 36.4637
| 28> H 	 -18.4454 	 33.5167 	 39.0271
| 29> C 	 -18.1926 	 34.9016 	 36.528
| 30> H 	 -17.8232 	 35.4655 	 37.3994
| 31> H 	 -18.6733 	 35.6459 	 35.946
| 32> C 	 -17.089 	 34.1366 	 35.8095
| 33> H 	 -16.5181 	 35.0089 	 35.4516
| 34> H 	 -17.53 	 33.6709 	 34.9072
| 35> C 	 -16.3447 	 33.1993 	 36.776
| 36> H 	 -15.3009 	 33.1106 	 36.4432
| 37> H 	 -16.8541 	 32.2454 	 36.6866
| 38> H 	 -16.4186 	 33.4767 	 37.8246
| 39> H 	 -22.9318 	 36.2955 	 32.7976
| 40> H 	 -20.5408 	 32.1566 	 39.5551
| 41> *
| 42>
| 43>                          ****END OF INPUT****

CARTESIAN COORDINATES (ANGSTROEM)
---------------------------------
  S    -22.462400   35.532500   35.106000
  C    -22.304200   35.700700   33.434100
  C    -21.145000   35.071400   32.941600
  C    -20.394100   34.428600   33.969600
  C    -21.098800   34.464600   35.192400
  H    -19.419900   33.917300   33.898200
  C    -20.680900   35.264400   31.518000
  H    -21.518200   35.442900   30.917600
  H    -20.439400   34.340900   31.117000
  C    -19.556400   36.327700   31.243600
  H    -19.903100   36.758700   30.312000
  H    -19.644800   37.204300   31.900100
  C    -18.177400   35.736300   31.071900
  H    -18.128200   34.721200   30.521000
  H    -17.569800   36.446800   30.569400
  H    -17.704800   35.656600   32.045900
  S    -21.649700   32.871900   37.390800
  C    -20.456200   32.727600   38.685300
  C    -19.318800   33.437000   38.316000
  C    -19.341600   34.056100   37.024100
  C    -20.611800   33.903600   36.463700
  H    -18.445400   33.516700   39.027100
  C    -18.192600   34.901600   36.528000
  H    -17.823200   35.465500   37.399400
  H    -18.673300   35.645900   35.946000
  C    -17.089000   34.136600   35.809500
  H    -16.518100   35.008900   35.451600
  H    -17.530000   33.670900   34.907200
  C    -16.344700   33.199300   36.776000
  H    -15.300900   33.110600   36.443200
  H    -16.854100   32.245400   36.686600
  H    -16.418600   33.476700   37.824600
  H    -22.931800   36.295500   32.797600
  H    -20.540800   32.156600   39.555100

 Total Charge           Charge          ....    0
 Multiplicity           Mult            ....    1
 Number of Electrons    NEL             ....  134
 Basis Dimension        Dim             ....  322

ORBITAL ENERGIES
----------------

  NO   OCC          E(Eh)            E(eV)
   0   2.0000     -88.968505     -2420.9561
   1   2.0000     -88.964318     -2420.8422
   2   2.0000     -10.327409      -281.0231
   3   2.0000     -10.324669      -280.9485
   4   2.0000     -10.313504      -280.6447
   5   2.0000     -10.308039      -280.4960
   6   2.0000     -10.299061      -280.2517
   7   2.0000     -10.298049      -280.2242
   8   2.0000     -10.297432      -280.2074
   9   2.0000     -10.296043      -280.1696
  10   2.0000     -10.290933      -280.0305
  11   2.0000     -10.287816      -279.9457
  12   2.0000     -10.285391      -279.8797
  13   2.0000     -10.282160      -279.7918
  14   2.0000     -10.280718      -279.7526
  15   2.0000     -10.279221      -279.7118
  16   2.0000      -8.084231      -219.9831
  17   2.0000      -8.078984      -219.8403
  18   2.0000      -6.042470      -164.4240
  19   2.0000      -6.038519      -164.3164
  20   2.0000      -6.037454      -164.2875
  21   2.0000      -6.035315      -164.2293
  22   2.0000      -6.033424      -164.1778
  23   2.0000      -6.029875      -164.0812
  24   2.0000      -1.006712       -27.3940
  25   2.0000      -0.983982       -26.7755
  26   2.0000      -0.913447       -24.8562
  27   2.0000      -0.909440       -24.7471
  28   2.0000      -0.865675       -23.5562
  29   2.0000      -0.852588       -23.2001
  30   2.0000      -0.844220       -22.9724
  31   2.0000      -0.813999       -22.1500
  32   2.0000      -0.786453       -21.4005
  33   2.0000      -0.772764       -21.0280
  34   2.0000      -0.707441       -19.2504
  35   2.0000      -0.703823       -19.1520
  36   2.0000      -0.691799       -18.8248
  37   2.0000      -0.659691       -17.9511
  38   2.0000      -0.641511       -17.4564
  39   2.0000      -0.614736       -16.7278
  40   2.0000      -0.593150       -16.1404
  41   2.0000      -0.569177       -15.4881
  42   2.0000      -0.556154       -15.1337
  43   2.0000      -0.546556       -14.8726
  44   2.0000      -0.544081       -14.8052
  45   2.0000      -0.533519       -14.5178
  46   2.0000      -0.518297       -14.1036
  47   2.0000      -0.510025       -13.8785
  48   2.0000      -0.501218       -13.6388
  49   2.0000      -0.497492       -13.5375
  50   2.0000      -0.491033       -13.3617
  51   2.0000      -0.483301       -13.1513
  52   2.0000      -0.476332       -12.9617
  53   2.0000      -0.469917       -12.7871
  54   2.0000      -0.459661       -12.5080
  55   2.0000      -0.449383       -12.2283
  56   2.0000      -0.441815       -12.0224
  57   2.0000      -0.439828       -11.9683
  58   2.0000      -0.434575       -11.8254
  59   2.0000      -0.425211       -11.5706
  60   2.0000      -0.420801       -11.4506
  61   2.0000      -0.412196       -11.2164
  62   2.0000      -0.409277       -11.1370
  63   2.0000      -0.343222        -9.3395
  64   2.0000      -0.329366        -8.9625
  65   2.0000      -0.328043        -8.9265
  66   2.0000      -0.289406        -7.8751
  67   0.0000       0.033288         0.9058
  68   0.0000       0.072163         1.9637
  69   0.0000       0.116240         3.1631
  70   0.0000       0.124545         3.3890
  71   0.0000       0.125423         3.4129

MULLIKEN ATOMIC CHARGES
-----------------------
   0 S :    0.141100
   1 C :   -0.104893
   2 C :   -0.111994
   3 C :    0.020028
   4 C :   -0.165543
   5 H :    0.012871
   6 C :    0.125655
   7 H :   -0.011348
   8 H :   -0.007139
   9 C :   -0.059853
  10 H :    0.016296
  11 H :    0.032261
  12 C :   -0.043521
  13 H :    0.050746
  14 H :    0.025141
  15 H :    0.029945
  16 S :    0.114494
  17 C :   -0.077002
  18 C :   -0.062176
  19 C :   -0.031372
  20 C :   -0.178882
  21 H :    0.033397
  22 C :    0.034291
  23 H :    0.029894
  24 H :    0.018414
  25 C :   -0.057070
  26 H :    0.034220
  27 H :    0.033318
  28 C :   -0.037373
  29 H :    0.045740
  30 H :    0.044416
  31 H :    0.031499
  32 H :    0.038448
  33 H :    0.035992
Sum of atomic charges:    0.0000000

LOEWDIN ATOMIC CHARGES
----------------------
   0 S :    0.449842
   1 C :   -0.221863
   2 C :   -0.061452
   3 C :   -0.063189
   4 C :   -0.205493
   5 H :    0.034208
   6 C :   -0.028181
   7 H :    0.023620
   8 H :    0.020792
   9 C :   -0.039887
  10 H :    0.023481
  11 H :    0.029624
  12 C :   -0.069371
  13 H :    0.038260
  14 H :    0.022324
  15 H :    0.024762
  16 S :    0.408760
  17 C :   -0.182714
  18 C :   -0.074293
  19 C :   -0.060776
  20 C :   -0.208962
  21 H :    0.034825
  22 C :   -0.033659
  23 H :    0.033423
  24 H :    0.025146
  25 C :   -0.038940
  26 H :    0.027370
  27 H :    0.023681
  28 C :   -0.063427
  29 H :    0.031706
  30 H :    0.033188
  31 H :    0.023397
  32 H :    0.024456
  33 H :    0.019343

  Mayer bond orders larger than 0.100000
B(  0-S ,  1-C ) :   1.1637 B(  0-S ,  4-C ) :   1.1904 B(  1-C ,  2-C ) :   1.5624
B(  1-C ,  4-C ) :   0.1009 B(  1-C , 32-H ) :   0.9700 B(  2-C ,  3-C ) :   1.2765
B(  2-C ,  6-C ) :   1.0428 B(  3-C ,  4-C ) :   1.5186 B(  3-C ,  5-H ) :   0.9952
B(  4-C , 20-C ) :   1.0220 B(  6-C ,  7-H ) :   0.9306 B(  6-C ,  8-H ) :   0.9267
B(  6-C ,  9-C ) :   1.0443 B(  9-C , 10-H ) :   0.9586 B(  9-C , 11-H ) :   0.9579
B(  9-C , 12-C ) :   1.0772 B( 12-C , 13-H ) :   0.9747 B( 12-C , 14-H ) :   0.9700
B( 12-C , 15-H ) :   0.9744 B( 16-S , 17-C ) :   1.1420 B( 16-S , 20-C ) :   1.1615
B( 17-C , 18-C ) :   1.6031 B( 17-C , 20-C ) :   0.1015 B( 17-C , 33-H ) :   0.9783
B( 18-C , 19-C ) :   1.2554 B( 18-C , 21-H ) :   0.9732 B( 19-C , 20-C ) :   1.5758
B( 19-C , 22-C ) :   1.0234 B( 22-C , 23-H ) :   0.9420 B( 22-C , 24-H ) :   0.9270
B( 22-C , 25-C ) :   1.0724 B( 25-C , 26-H ) :   0.9565 B( 25-C , 27-H ) :   0.9522
B( 25-C , 28-C ) :   1.0561 B( 28-C , 29-H ) :   0.9731 B( 28-C , 30-H ) :   0.9715
B( 28-C , 31-H ) :   0.9776

Dispersion correction           -0.015222056
FINAL SINGLE POINT ENERGY     -1339.873529837224

DIPOLE MOMENT
-------------
                                X             Y             Z
Electronic contribution:    -25.53117      -4.30774      15.32608
Nuclear contribution   :     26.15372       4.56614     -15.66095
                        -----------------------------------------
Total Dipole Moment    :      0.62255       0.25840      -0.33488
                        -----------------------------------------
Magnitude (a.u.)       :      0.75265
Magnitude (Debye)      :      1.91308

Rotational constants in cm-1:     0.018289     0.009830     0.006848
Rotational constants in MHz :   548.275679   294.682473   205.306839

                             ****ORCA TERMINATED NORMALLY****
TOTAL RUN TIME: 0 days 0 hours 0 minutes 35 seconds 675 msec
