                         Program Version 4.2.1 -  RELEASE  -
|  1> ! wB97X-D3 SP def2-SVP
|  2> %pal
|  3> nprocs 16
|  4> end
|  5>
|  6> * xyz 0 1
|  7> S 	 33.7634 	 20.1564 	 61.8264
|  8> C 	 33.1698 	 21.5625 	 62.778
|  9> C 	 34.1017 	 21.8471 	 63.7911
| 10> C 	 35.259 	 21.0117 	 63.7462
| 11> C 	 35.2569 	 20.0326 	 62.7788
| 12> H 	 36.0476 	 21.1445 	 64.4198
| 13> C 	 33.9806 	 23.0193 	 64.6951
| 14> H 	 33.9091 	 23.83 	 64.0164
| 15> H 	 34.8654 	 23.1157 	 65.3027
| 16> C 	 32.6088 	 23.0658 	 65.5002
| 17> H 	 31.8799 	 23.4746 	 64.7844
| 18> H 	 32.2969 	 21.9659 	 65.7285
| 19> C 	 32.757 	 23.8396 	 66.8481
| 20> H 	 32.0753 	 24.6301 	 67.0358
| 21> H 	 32.5684 	 23.0418 	 67.5535
| 22> H 	 33.7883 	 24.1055 	 67.0662
| 23> S 	 36.6324 	 18.4449 	 60.9308
| 24> C 	 37.7718 	 17.2742 	 61.451
| 25> C 	 37.9798 	 17.3647 	 62.8184
| 26> C 	 37.1168 	 18.3522 	 63.4715
| 27> C 	 36.2435 	 18.9576 	 62.6035
| 28> H 	 38.685 	 16.7024 	 63.3038
| 29> C 	 37.1058 	 18.4898 	 64.9808
| 30> H 	 36.3153 	 19.1729 	 65.2509
| 31> H 	 38.0026 	 18.9418 	 65.2653
| 32> C 	 36.6131 	 17.2228 	 65.7065
| 33> H 	 36.474 	 17.4694 	 66.7989
| 34> H 	 37.3985 	 16.4814 	 65.6067
| 35> C 	 35.2778 	 16.7563 	 65.2183
| 36> H 	 35.2571 	 16.3486 	 64.1939
| 37> H 	 34.4543 	 17.5507 	 65.4091
| 38> H 	 34.8989 	 15.9386 	 65.9088
| 39> H 	 32.3075 	 22.0828 	 62.5512
| 40> H 	 38.4058 	 16.6636 	 60.8123
| 41> *
| 42>
| 43>                          ****END OF INPUT****

CARTESIAN COORDINATES (ANGSTROEM)
---------------------------------
  S     33.763400   20.156400   61.826400
  C     33.169800   21.562500   62.778000
  C     34.101700   21.847100   63.791100
  C     35.259000   21.011700   63.746200
  C     35.256900   20.032600   62.778800
  H     36.047600   21.144500   64.419800
  C     33.980600   23.019300   64.695100
  H     33.909100   23.830000   64.016400
  H     34.865400   23.115700   65.302700
  C     32.608800   23.065800   65.500200
  H     31.879900   23.474600   64.784400
  H     32.296900   21.965900   65.728500
  C     32.757000   23.839600   66.848100
  H     32.075300   24.630100   67.035800
  H     32.568400   23.041800   67.553500
  H     33.788300   24.105500   67.066200
  S     36.632400   18.444900   60.930800
  C     37.771800   17.274200   61.451000
  C     37.979800   17.364700   62.818400
  C     37.116800   18.352200   63.471500
  C     36.243500   18.957600   62.603500
  H     38.685000   16.702400   63.303800
  C     37.105800   18.489800   64.980800
  H     36.315300   19.172900   65.250900
  H     38.002600   18.941800   65.265300
  C     36.613100   17.222800   65.706500
  H     36.474000   17.469400   66.798900
  H     37.398500   16.481400   65.606700
  C     35.277800   16.756300   65.218300
  H     35.257100   16.348600   64.193900
  H     34.454300   17.550700   65.409100
  H     34.898900   15.938600   65.908800
  H     32.307500   22.082800   62.551200
  H     38.405800   16.663600   60.812300

 Total Charge           Charge          ....    0
 Multiplicity           Mult            ....    1
 Number of Electrons    NEL             ....  134
 Basis Dimension        Dim             ....  322

ORBITAL ENERGIES
----------------

  NO   OCC          E(Eh)            E(eV)
   0   2.0000     -88.965346     -2420.8701
   1   2.0000     -88.962814     -2420.8013
   2   2.0000     -10.334504      -281.2162
   3   2.0000     -10.331111      -281.1238
   4   2.0000     -10.318900      -280.7915
   5   2.0000     -10.313562      -280.6463
   6   2.0000     -10.305889      -280.4375
   7   2.0000     -10.301097      -280.3071
   8   2.0000     -10.301086      -280.3068
   9   2.0000     -10.296775      -280.1895
  10   2.0000     -10.289385      -279.9884
  11   2.0000     -10.288802      -279.9725
  12   2.0000     -10.287725      -279.9432
  13   2.0000     -10.283557      -279.8298
  14   2.0000     -10.283280      -279.8223
  15   2.0000     -10.277608      -279.6679
  16   2.0000      -8.078760      -219.8342
  17   2.0000      -8.077785      -219.8077
  18   2.0000      -6.037458      -164.2876
  19   2.0000      -6.036333      -164.2570
  20   2.0000      -6.033361      -164.1761
  21   2.0000      -6.032268      -164.1464
  22   2.0000      -6.029492      -164.0708
  23   2.0000      -6.028463      -164.0428
  24   2.0000      -1.001857       -27.2619
  25   2.0000      -0.979416       -26.6513
  26   2.0000      -0.913708       -24.8632
  27   2.0000      -0.908275       -24.7154
  28   2.0000      -0.865989       -23.5648
  29   2.0000      -0.849599       -23.1188
  30   2.0000      -0.840206       -22.8632
  31   2.0000      -0.816301       -22.2127
  32   2.0000      -0.783286       -21.3143
  33   2.0000      -0.771580       -20.9958
  34   2.0000      -0.709301       -19.3011
  35   2.0000      -0.699333       -19.0298
  36   2.0000      -0.689826       -18.7711
  37   2.0000      -0.657497       -17.8914
  38   2.0000      -0.643177       -17.5017
  39   2.0000      -0.621815       -16.9204
  40   2.0000      -0.596480       -16.2310
  41   2.0000      -0.569037       -15.4843
  42   2.0000      -0.563754       -15.3405
  43   2.0000      -0.560895       -15.2627
  44   2.0000      -0.547330       -14.8936
  45   2.0000      -0.525650       -14.3037
  46   2.0000      -0.517937       -14.0938
  47   2.0000      -0.511279       -13.9126
  48   2.0000      -0.506636       -13.7863
  49   2.0000      -0.493126       -13.4186
  50   2.0000      -0.491520       -13.3749
  51   2.0000      -0.477868       -13.0035
  52   2.0000      -0.472855       -12.8670
  53   2.0000      -0.461314       -12.5530
  54   2.0000      -0.456348       -12.4179
  55   2.0000      -0.450485       -12.2583
  56   2.0000      -0.447168       -12.1681
  57   2.0000      -0.437931       -11.9167
  58   2.0000      -0.430284       -11.7086
  59   2.0000      -0.417983       -11.3739
  60   2.0000      -0.414385       -11.2760
  61   2.0000      -0.411320       -11.1926
  62   2.0000      -0.406003       -11.0479
  63   2.0000      -0.354681        -9.6514
  64   2.0000      -0.328237        -8.9318
  65   2.0000      -0.327665        -8.9162
  66   2.0000      -0.287918        -7.8346
  67   0.0000       0.022683         0.6172
  68   0.0000       0.076664         2.0861
  69   0.0000       0.107541         2.9263
  70   0.0000       0.120893         3.2897
  71   0.0000       0.131572         3.5803

MULLIKEN ATOMIC CHARGES
-----------------------
   0 S :    0.094781
   1 C :   -0.104554
   2 C :   -0.096755
   3 C :    0.017645
   4 C :   -0.105490
   5 H :   -0.006995
   6 C :    0.091672
   7 H :    0.036286
   8 H :    0.016091
   9 C :   -0.153610
  10 H :    0.039647
  11 H :    0.056774
  12 C :   -0.013466
  13 H :    0.039808
  14 H :    0.026270
  15 H :    0.028307
  16 S :    0.092935
  17 C :   -0.075312
  18 C :   -0.049563
  19 C :   -0.086801
  20 C :   -0.126884
  21 H :    0.019515
  22 C :    0.104826
  23 H :    0.004656
  24 H :    0.023214
  25 C :   -0.073735
  26 H :    0.038947
  27 H :    0.027437
  28 C :   -0.094430
  29 H :    0.062294
  30 H :    0.044583
  31 H :    0.035903
  32 H :    0.023357
  33 H :    0.062646
Sum of atomic charges:   -0.0000000

LOEWDIN ATOMIC CHARGES
----------------------
   0 S :    0.378563
   1 C :   -0.175229
   2 C :   -0.054442
   3 C :   -0.065528
   4 C :   -0.177747
   5 H :    0.020188
   6 C :   -0.030631
   7 H :    0.034484
   8 H :    0.023132
   9 C :   -0.040657
  10 H :    0.022501
  11 H :    0.032208
  12 C :   -0.067302
  13 H :    0.022536
  14 H :    0.032150
  15 H :    0.025749
  16 S :    0.395986
  17 C :   -0.190521
  18 C :   -0.075533
  19 C :   -0.051299
  20 C :   -0.183220
  21 H :    0.029328
  22 C :   -0.031294
  23 H :    0.027036
  24 H :    0.023409
  25 C :   -0.041954
  26 H :    0.032934
  27 H :    0.016846
  28 C :   -0.077351
  29 H :    0.030890
  30 H :    0.036853
  31 H :    0.032032
  32 H :    0.011500
  33 H :    0.034382

  Mayer bond orders larger than 0.100000
B(  0-S ,  1-C ) :   1.1248 B(  0-S ,  4-C ) :   1.1493 B(  1-C ,  2-C ) :   1.5703
B(  1-C ,  4-C ) :   0.1056 B(  1-C , 32-H ) :   0.9871 B(  2-C ,  3-C ) :   1.2662
B(  2-C ,  6-C ) :   1.0290 B(  3-C ,  4-C ) :   1.5511 B(  3-C ,  5-H ) :   0.9982
B(  4-C , 20-C ) :   1.0478 B(  6-C ,  7-H ) :   0.9350 B(  6-C ,  8-H ) :   0.9499
B(  6-C ,  9-C ) :   1.0330 B(  9-C , 10-H ) :   0.9591 B(  9-C , 11-H ) :   0.9797
B(  9-C , 12-C ) :   1.0452 B( 12-C , 13-H ) :   0.9791 B( 12-C , 14-H ) :   0.9797
B( 12-C , 15-H ) :   0.9804 B( 16-S , 17-C ) :   1.1574 B( 16-S , 20-C ) :   1.1193
B( 17-C , 18-C ) :   1.6190 B( 17-C , 33-H ) :   0.9656 B( 18-C , 19-C ) :   1.2097
B( 18-C , 21-H ) :   0.9925 B( 19-C , 20-C ) :   1.6259 B( 19-C , 22-C ) :   1.0423
B( 22-C , 23-H ) :   0.9323 B( 22-C , 24-H ) :   0.9307 B( 22-C , 25-C ) :   1.0594
B( 25-C , 26-H ) :   0.9567 B( 25-C , 27-H ) :   0.9555 B( 25-C , 28-C ) :   1.0835
B( 28-C , 29-H ) :   0.9693 B( 28-C , 30-H ) :   0.9693 B( 28-C , 31-H ) :   0.9705

Dispersion correction           -0.014533317
FINAL SINGLE POINT ENERGY     -1339.867853275829

DIPOLE MOMENT
-------------
                                X             Y             Z
Electronic contribution:      5.59321      -6.13811     -26.94699
Nuclear contribution   :     -5.41804       6.34143      27.68042
                        -----------------------------------------
Total Dipole Moment    :      0.17517       0.20332       0.73344
                        -----------------------------------------
Magnitude (a.u.)       :      0.78099
Magnitude (Debye)      :      1.98513

Rotational constants in cm-1:     0.021589     0.008034     0.006543
Rotational constants in MHz :   647.220621   240.866750   196.152506

                             ****ORCA TERMINATED NORMALLY****
TOTAL RUN TIME: 0 days 0 hours 0 minutes 30 seconds 311 msec
