                         Program Version 4.2.1 -  RELEASE  -
|  1> ! wB97X-D3 SP def2-SVP
|  2> %pal
|  3> nprocs 16
|  4> end
|  5>
|  6> * xyz 0 1
|  7> S 	 12.4454 	 13.7625 	 82.9056
|  8> C 	 13.0847 	 14.7143 	 81.6169
|  9> C 	 13.4233 	 14.0502 	 80.5213
| 10> C 	 13.0583 	 12.663 	 80.6446
| 11> C 	 12.3956 	 12.3454 	 81.8187
| 12> H 	 12.9776 	 11.9269 	 79.8109
| 13> C 	 13.8631 	 14.7377 	 79.2183
| 14> H 	 14.5648 	 14.1505 	 78.6949
| 15> H 	 14.4177 	 15.6311 	 79.3457
| 16> C 	 12.6837 	 15.1106 	 78.2774
| 17> H 	 11.8659 	 15.564 	 78.785
| 18> H 	 13.0688 	 15.8218 	 77.5022
| 19> C 	 12.3169 	 13.8277 	 77.4405
| 20> H 	 11.4039 	 13.8733 	 76.8689
| 21> H 	 13.1338 	 13.4409 	 76.9211
| 22> H 	 12.0896 	 13.0295 	 78.0923
| 23> S 	 10.1831 	 11.5329 	 83.1059
| 24> C 	 9.78126 	 9.81408 	 83.196
| 25> C 	 10.6261 	 8.98245 	 82.4191
| 26> C 	 11.6385 	 9.84546 	 81.7774
| 27> C 	 11.5813 	 11.1952 	 82.1364
| 28> H 	 10.5007 	 7.87576 	 82.2764
| 29> C 	 12.7335 	 9.19748 	 80.9194
| 30> H 	 13.2382 	 8.47859 	 81.5792
| 31> H 	 13.4609 	 9.98259 	 80.7051
| 32> C 	 12.2482 	 8.56506 	 79.6006
| 33> H 	 11.7749 	 7.57581 	 79.7651
| 34> H 	 13.0433 	 8.35095 	 78.9133
| 35> C 	 11.39 	 9.45394 	 78.7871
| 36> H 	 10.4871 	 9.82806 	 79.2574
| 37> H 	 10.9586 	 8.93013 	 77.9458
| 38> H 	 11.9706 	 10.281 	 78.2997
| 39> H 	 13.2081 	 15.7849 	 81.7348
| 40> H 	 8.88276 	 9.38452 	 83.6993
| 41> *
| 42>
| 43>                          ****END OF INPUT****

CARTESIAN COORDINATES (ANGSTROEM)
---------------------------------
  S     12.445400   13.762500   82.905600
  C     13.084700   14.714300   81.616900
  C     13.423300   14.050200   80.521300
  C     13.058300   12.663000   80.644600
  C     12.395600   12.345400   81.818700
  H     12.977600   11.926900   79.810900
  C     13.863100   14.737700   79.218300
  H     14.564800   14.150500   78.694900
  H     14.417700   15.631100   79.345700
  C     12.683700   15.110600   78.277400
  H     11.865900   15.564000   78.785000
  H     13.068800   15.821800   77.502200
  C     12.316900   13.827700   77.440500
  H     11.403900   13.873300   76.868900
  H     13.133800   13.440900   76.921100
  H     12.089600   13.029500   78.092300
  S     10.183100   11.532900   83.105900
  C      9.781260    9.814080   83.196000
  C     10.626100    8.982450   82.419100
  C     11.638500    9.845460   81.777400
  C     11.581300   11.195200   82.136400
  H     10.500700    7.875760   82.276400
  C     12.733500    9.197480   80.919400
  H     13.238200    8.478590   81.579200
  H     13.460900    9.982590   80.705100
  C     12.248200    8.565060   79.600600
  H     11.774900    7.575810   79.765100
  H     13.043300    8.350950   78.913300
  C     11.390000    9.453940   78.787100
  H     10.487100    9.828060   79.257400
  H     10.958600    8.930130   77.945800
  H     11.970600   10.281000   78.299700
  H     13.208100   15.784900   81.734800
  H      8.882760    9.384520   83.699300

 Total Charge           Charge          ....    0
 Multiplicity           Mult            ....    1
 Number of Electrons    NEL             ....  134
 Basis Dimension        Dim             ....  322

ORBITAL ENERGIES
----------------

  NO   OCC          E(Eh)            E(eV)
   0   2.0000     -88.969280     -2420.9772
   1   2.0000     -88.964591     -2420.8496
   2   2.0000     -10.332788      -281.1695
   3   2.0000     -10.327805      -281.0339
   4   2.0000     -10.326633      -281.0020
   5   2.0000     -10.308943      -280.5206
   6   2.0000     -10.308322      -280.5037
   7   2.0000     -10.306359      -280.4503
   8   2.0000     -10.299295      -280.2581
   9   2.0000     -10.298601      -280.2392
  10   2.0000     -10.292042      -280.0607
  11   2.0000     -10.291112      -280.0354
  12   2.0000     -10.289302      -279.9861
  13   2.0000     -10.285634      -279.8863
  14   2.0000     -10.273452      -279.5548
  15   2.0000     -10.267155      -279.3835
  16   2.0000      -8.083708      -219.9689
  17   2.0000      -8.079606      -219.8573
  18   2.0000      -6.042300      -164.4193
  19   2.0000      -6.038281      -164.3100
  20   2.0000      -6.038170      -164.3070
  21   2.0000      -6.034352      -164.2031
  22   2.0000      -6.034215      -164.1993
  23   2.0000      -6.030150      -164.0887
  24   2.0000      -1.008298       -27.4372
  25   2.0000      -0.982242       -26.7282
  26   2.0000      -0.912653       -24.8345
  27   2.0000      -0.908544       -24.7227
  28   2.0000      -0.870288       -23.6817
  29   2.0000      -0.851657       -23.1748
  30   2.0000      -0.840828       -22.8801
  31   2.0000      -0.815319       -22.1860
  32   2.0000      -0.785439       -21.3729
  33   2.0000      -0.773251       -21.0412
  34   2.0000      -0.708406       -19.2767
  35   2.0000      -0.705589       -19.2000
  36   2.0000      -0.689949       -18.7745
  37   2.0000      -0.663889       -18.0653
  38   2.0000      -0.639497       -17.4016
  39   2.0000      -0.618159       -16.8210
  40   2.0000      -0.587618       -15.9899
  41   2.0000      -0.573362       -15.6020
  42   2.0000      -0.557877       -15.1806
  43   2.0000      -0.551800       -15.0152
  44   2.0000      -0.542604       -14.7650
  45   2.0000      -0.534657       -14.5488
  46   2.0000      -0.516098       -14.0437
  47   2.0000      -0.514268       -13.9940
  48   2.0000      -0.498300       -13.5594
  49   2.0000      -0.493922       -13.4403
  50   2.0000      -0.493063       -13.4169
  51   2.0000      -0.480806       -13.0834
  52   2.0000      -0.467590       -12.7238
  53   2.0000      -0.464535       -12.6406
  54   2.0000      -0.455983       -12.4079
  55   2.0000      -0.452095       -12.3021
  56   2.0000      -0.449923       -12.2430
  57   2.0000      -0.440993       -12.0000
  58   2.0000      -0.431864       -11.7516
  59   2.0000      -0.423487       -11.5237
  60   2.0000      -0.417469       -11.3599
  61   2.0000      -0.415742       -11.3129
  62   2.0000      -0.410354       -11.1663
  63   2.0000      -0.359173        -9.7736
  64   2.0000      -0.332908        -9.0589
  65   2.0000      -0.330426        -8.9914
  66   2.0000      -0.284731        -7.7479
  67   0.0000       0.022854         0.6219
  68   0.0000       0.075928         2.0661
  69   0.0000       0.100474         2.7340
  70   0.0000       0.116801         3.1783
  71   0.0000       0.130532         3.5520

MULLIKEN ATOMIC CHARGES
-----------------------
   0 S :    0.101099
   1 C :   -0.131012
   2 C :   -0.047834
   3 C :    0.010612
   4 C :   -0.153350
   5 H :    0.018582
   6 C :    0.088844
   7 H :    0.005766
   8 H :    0.007875
   9 C :   -0.062839
  10 H :    0.032474
  11 H :    0.037285
  12 C :   -0.015662
  13 H :    0.030675
  14 H :    0.011467
  15 H :   -0.003169
  16 S :    0.109137
  17 C :   -0.108849
  18 C :   -0.042742
  19 C :   -0.093564
  20 C :   -0.119172
  21 H :    0.049925
  22 C :    0.069959
  23 H :    0.040310
  24 H :    0.016374
  25 C :   -0.053384
  26 H :    0.028116
  27 H :    0.024429
  28 C :   -0.067876
  29 H :    0.042345
  30 H :    0.018368
  31 H :    0.038269
  32 H :    0.044685
  33 H :    0.072854
Sum of atomic charges:    0.0000000

LOEWDIN ATOMIC CHARGES
----------------------
   0 S :    0.386465
   1 C :   -0.190747
   2 C :   -0.065570
   3 C :   -0.067945
   4 C :   -0.176668
   5 H :    0.031168
   6 C :   -0.022131
   7 H :    0.023651
   8 H :    0.025860
   9 C :   -0.025389
  10 H :    0.020535
  11 H :    0.028654
  12 C :   -0.064695
  13 H :    0.025822
  14 H :    0.016867
  15 H :    0.016821
  16 S :    0.409153
  17 C :   -0.188780
  18 C :   -0.073488
  19 C :   -0.054455
  20 C :   -0.207194
  21 H :    0.044435
  22 C :   -0.033564
  23 H :    0.035668
  24 H :    0.027577
  25 C :   -0.046358
  26 H :    0.024673
  27 H :    0.027299
  28 C :   -0.071124
  29 H :    0.025543
  30 H :    0.026583
  31 H :    0.027416
  32 H :    0.027396
  33 H :    0.036522

  Mayer bond orders larger than 0.100000
B(  0-S ,  1-C ) :   1.1234 B(  0-S ,  4-C ) :   1.1269 B(  1-C ,  2-C ) :   1.6644
B(  1-C , 32-H ) :   0.9624 B(  2-C ,  3-C ) :   1.2149 B(  2-C ,  6-C ) :   1.0339
B(  3-C ,  4-C ) :   1.6059 B(  3-C ,  5-H ) :   0.9673 B(  4-C , 20-C ) :   1.0787
B(  6-C ,  7-H ) :   0.9377 B(  6-C ,  8-H ) :   0.9386 B(  6-C ,  9-C ) :   1.0613
B(  9-C , 10-H ) :   0.9604 B(  9-C , 11-H ) :   0.9590 B(  9-C , 12-C ) :   1.0711
B( 12-C , 13-H ) :   0.9690 B( 12-C , 14-H ) :   0.9746 B( 12-C , 15-H ) :   0.9721
B( 16-S , 17-C ) :   1.1524 B( 16-S , 20-C ) :   1.1258 B( 17-C , 18-C ) :   1.6108
B( 17-C , 33-H ) :   0.9616 B( 18-C , 19-C ) :   1.2233 B( 18-C , 21-H ) :   0.9816
B( 19-C , 20-C ) :   1.5943 B( 19-C , 22-C ) :   1.0397 B( 22-C , 23-H ) :   0.9396
B( 22-C , 24-H ) :   0.9333 B( 22-C , 25-C ) :   1.0672 B( 25-C , 26-H ) :   0.9529
B( 25-C , 27-H ) :   0.9531 B( 25-C , 28-C ) :   1.0926 B( 28-C , 29-H ) :   0.9686
B( 28-C , 30-H ) :   0.9643 B( 28-C , 31-H ) :   0.9682

Dispersion correction           -0.015650207
FINAL SINGLE POINT ENERGY     -1339.870124227447

DIPOLE MOMENT
-------------
                                X             Y             Z
Electronic contribution:     -5.08555       5.07059      27.77706
Nuclear contribution   :      5.10813      -5.30611     -28.41831
                        -----------------------------------------
Total Dipole Moment    :      0.02258      -0.23552      -0.64124
                        -----------------------------------------
Magnitude (a.u.)       :      0.68350
Magnitude (Debye)      :      1.73732

Rotational constants in cm-1:     0.018168     0.010397     0.007539
Rotational constants in MHz :   544.651429   311.682746   226.003676

                             ****ORCA TERMINATED NORMALLY****
TOTAL RUN TIME: 0 days 0 hours 0 minutes 37 seconds 946 msec
