                         Program Version 4.2.1 -  RELEASE  -
|  1> ! wB97X-D3 SP def2-SVP
|  2> %pal
|  3> nprocs 16
|  4> end
|  5>
|  6> * xyz 0 1
|  7> S 	 -64.3125 	 39.8789 	 132.76
|  8> C 	 -63.9276 	 39.044 	 134.238
|  9> C 	 -63.0622 	 37.9695 	 133.983
| 10> C 	 -62.4922 	 37.9999 	 132.644
| 11> C 	 -63.1451 	 38.9455 	 131.867
| 12> H 	 -61.7908 	 37.2557 	 132.223
| 13> C 	 -62.4713 	 36.9517 	 135.004
| 14> H 	 -62.9642 	 37.2479 	 135.961
| 15> H 	 -61.4074 	 37.0099 	 135.168
| 16> C 	 -62.7428 	 35.4554 	 134.654
| 17> H 	 -61.9088 	 35.182 	 133.965
| 18> H 	 -62.4884 	 34.8267 	 135.513
| 19> C 	 -64.2629 	 35.1685 	 134.266
| 20> H 	 -64.5066 	 34.1598 	 133.939
| 21> H 	 -64.9286 	 35.3417 	 135.065
| 22> H 	 -64.5525 	 35.7633 	 133.389
| 23> S 	 -64.4372 	 39.1106 	 129.333
| 24> C 	 -63.464 	 39.3277 	 127.97
| 25> C 	 -62.0964 	 39.3103 	 128.319
| 26> C 	 -61.8504 	 39.1402 	 129.718
| 27> C 	 -63.0319 	 39.0599 	 130.422
| 28> H 	 -61.3702 	 39.3412 	 127.514
| 29> C 	 -60.5207 	 39.1455 	 130.299
| 30> H 	 -60.3288 	 38.0625 	 130.493
| 31> H 	 -60.5153 	 39.6335 	 131.301
| 32> C 	 -59.2922 	 39.6994 	 129.501
| 33> H 	 -59.2857 	 39.2306 	 128.486
| 34> H 	 -58.3767 	 39.397 	 129.952
| 35> C 	 -59.1593 	 41.2485 	 129.247
| 36> H 	 -59.2105 	 41.743 	 130.168
| 37> H 	 -60.0286 	 41.5299 	 128.633
| 38> H 	 -58.27 	 41.4681 	 128.601
| 39> H 	 -64.2686 	 39.2938 	 135.277
| 40> H 	 -63.8741 	 39.5424 	 126.999
| 41> *
| 42>
| 43>                          ****END OF INPUT****

CARTESIAN COORDINATES (ANGSTROEM)
---------------------------------
  S    -64.312500   39.878900  132.760000
  C    -63.927600   39.044000  134.238000
  C    -63.062200   37.969500  133.983000
  C    -62.492200   37.999900  132.644000
  C    -63.145100   38.945500  131.867000
  H    -61.790800   37.255700  132.223000
  C    -62.471300   36.951700  135.004000
  H    -62.964200   37.247900  135.961000
  H    -61.407400   37.009900  135.168000
  C    -62.742800   35.455400  134.654000
  H    -61.908800   35.182000  133.965000
  H    -62.488400   34.826700  135.513000
  C    -64.262900   35.168500  134.266000
  H    -64.506600   34.159800  133.939000
  H    -64.928600   35.341700  135.065000
  H    -64.552500   35.763300  133.389000
  S    -64.437200   39.110600  129.333000
  C    -63.464000   39.327700  127.970000
  C    -62.096400   39.310300  128.319000
  C    -61.850400   39.140200  129.718000
  C    -63.031900   39.059900  130.422000
  H    -61.370200   39.341200  127.514000
  C    -60.520700   39.145500  130.299000
  H    -60.328800   38.062500  130.493000
  H    -60.515300   39.633500  131.301000
  C    -59.292200   39.699400  129.501000
  H    -59.285700   39.230600  128.486000
  H    -58.376700   39.397000  129.952000
  C    -59.159300   41.248500  129.247000
  H    -59.210500   41.743000  130.168000
  H    -60.028600   41.529900  128.633000
  H    -58.270000   41.468100  128.601000
  H    -64.268600   39.293800  135.277000
  H    -63.874100   39.542400  126.999000

 Total Charge           Charge          ....    0
 Multiplicity           Mult            ....    1
 Number of Electrons    NEL             ....  134
 Basis Dimension        Dim             ....  322

ORBITAL ENERGIES
----------------

  NO   OCC          E(Eh)            E(eV)
   0   2.0000     -88.969609     -2420.9861
   1   2.0000     -88.966283     -2420.8956
   2   2.0000     -10.329250      -281.0732
   3   2.0000     -10.321971      -280.8751
   4   2.0000     -10.321130      -280.8522
   5   2.0000     -10.314995      -280.6853
   6   2.0000     -10.307853      -280.4910
   7   2.0000     -10.298957      -280.2489
   8   2.0000     -10.298444      -280.2349
   9   2.0000     -10.296954      -280.1944
  10   2.0000     -10.296422      -280.1799
  11   2.0000     -10.295343      -280.1505
  12   2.0000     -10.294283      -280.1217
  13   2.0000     -10.290414      -280.0164
  14   2.0000     -10.277945      -279.6771
  15   2.0000     -10.275983      -279.6237
  16   2.0000      -8.084380      -219.9872
  17   2.0000      -8.081535      -219.9097
  18   2.0000      -6.042915      -164.4361
  19   2.0000      -6.039985      -164.3564
  20   2.0000      -6.038842      -164.3252
  21   2.0000      -6.035856      -164.2440
  22   2.0000      -6.035144      -164.2246
  23   2.0000      -6.032457      -164.1515
  24   2.0000      -1.007860       -27.4253
  25   2.0000      -0.984185       -26.7810
  26   2.0000      -0.909561       -24.7504
  27   2.0000      -0.900358       -24.5000
  28   2.0000      -0.867733       -23.6122
  29   2.0000      -0.847601       -23.0644
  30   2.0000      -0.839244       -22.8370
  31   2.0000      -0.806886       -21.9565
  32   2.0000      -0.785882       -21.3849
  33   2.0000      -0.774746       -21.0819
  34   2.0000      -0.708177       -19.2705
  35   2.0000      -0.699437       -19.0326
  36   2.0000      -0.693908       -18.8822
  37   2.0000      -0.652509       -17.7557
  38   2.0000      -0.634084       -17.2543
  39   2.0000      -0.616828       -16.7848
  40   2.0000      -0.598831       -16.2950
  41   2.0000      -0.560911       -15.2632
  42   2.0000      -0.552806       -15.0426
  43   2.0000      -0.546077       -14.8595
  44   2.0000      -0.536805       -14.6072
  45   2.0000      -0.534058       -14.5325
  46   2.0000      -0.525957       -14.3120
  47   2.0000      -0.506371       -13.7791
  48   2.0000      -0.501274       -13.6404
  49   2.0000      -0.496835       -13.5196
  50   2.0000      -0.485946       -13.2233
  51   2.0000      -0.478182       -13.0120
  52   2.0000      -0.476850       -12.9758
  53   2.0000      -0.462373       -12.5818
  54   2.0000      -0.458196       -12.4682
  55   2.0000      -0.446583       -12.1521
  56   2.0000      -0.442762       -12.0482
  57   2.0000      -0.436974       -11.8907
  58   2.0000      -0.430335       -11.7100
  59   2.0000      -0.425548       -11.5797
  60   2.0000      -0.420271       -11.4362
  61   2.0000      -0.416582       -11.3358
  62   2.0000      -0.407438       -11.0869
  63   2.0000      -0.349275        -9.5042
  64   2.0000      -0.331443        -9.0190
  65   2.0000      -0.327089        -8.9005
  66   2.0000      -0.286974        -7.8090
  67   0.0000       0.029798         0.8109
  68   0.0000       0.071504         1.9457
  69   0.0000       0.116342         3.1658
  70   0.0000       0.120224         3.2715
  71   0.0000       0.127720         3.4754

MULLIKEN ATOMIC CHARGES
-----------------------
   0 S :    0.123745
   1 C :   -0.128237
   2 C :   -0.107464
   3 C :    0.010213
   4 C :   -0.169283
   5 H :    0.032410
   6 C :    0.058000
   7 H :    0.013698
   8 H :    0.036815
   9 C :   -0.100369
  10 H :    0.032715
  11 H :    0.031511
  12 C :   -0.038061
  13 H :    0.026200
  14 H :    0.026853
  15 H :    0.048752
  16 S :    0.123911
  17 C :   -0.099099
  18 C :   -0.048945
  19 C :   -0.013686
  20 C :   -0.151316
  21 H :    0.015784
  22 C :    0.021083
  23 H :    0.047873
  24 H :    0.048857
  25 C :   -0.076647
  26 H :    0.022571
  27 H :    0.020963
  28 C :   -0.042183
  29 H :    0.030794
  30 H :    0.030548
  31 H :    0.046896
  32 H :    0.067175
  33 H :    0.057921
Sum of atomic charges:   -0.0000000

LOEWDIN ATOMIC CHARGES
----------------------
   0 S :    0.417669
   1 C :   -0.215262
   2 C :   -0.060549
   3 C :   -0.063363
   4 C :   -0.192336
   5 H :    0.037516
   6 C :   -0.032817
   7 H :    0.026017
   8 H :    0.029415
   9 C :   -0.045639
  10 H :    0.025444
  11 H :    0.025368
  12 C :   -0.065473
  13 H :    0.025742
  14 H :    0.021226
  15 H :    0.031497
  16 S :    0.421331
  17 C :   -0.203743
  18 C :   -0.075420
  19 C :   -0.058812
  20 C :   -0.202305
  21 H :    0.027610
  22 C :   -0.041784
  23 H :    0.043701
  24 H :    0.039364
  25 C :   -0.039843
  26 H :    0.022658
  27 H :    0.019178
  28 C :   -0.063148
  29 H :    0.016252
  30 H :    0.026151
  31 H :    0.034796
  32 H :    0.041270
  33 H :    0.028289

  Mayer bond orders larger than 0.100000
B(  0-S ,  1-C ) :   1.1322 B(  0-S ,  4-C ) :   1.1547 B(  1-C ,  2-C ) :   1.6213
B(  1-C , 32-H ) :   0.9580 B(  2-C ,  3-C ) :   1.2245 B(  2-C ,  6-C ) :   1.0209
B(  3-C ,  4-C ) :   1.5587 B(  3-C ,  5-H ) :   0.9859 B(  4-C , 20-C ) :   1.0633
B(  6-C ,  7-H ) :   0.9428 B(  6-C ,  8-H ) :   0.9522 B(  6-C ,  9-C ) :   1.0631
B(  9-C , 10-H ) :   0.9602 B(  9-C , 11-H ) :   0.9587 B(  9-C , 12-C ) :   1.0567
B( 12-C , 13-H ) :   0.9771 B( 12-C , 14-H ) :   0.9776 B( 12-C , 15-H ) :   0.9739
B( 16-S , 17-C ) :   1.1833 B( 16-S , 20-C ) :   1.1349 B( 17-C , 18-C ) :   1.5680
B( 17-C , 33-H ) :   0.9688 B( 18-C , 19-C ) :   1.2601 B( 18-C , 21-H ) :   0.9885
B( 19-C , 20-C ) :   1.5693 B( 19-C , 22-C ) :   1.0550 B( 22-C , 23-H ) :   0.9131
B( 22-C , 24-H ) :   0.9271 B( 22-C , 25-C ) :   1.0799 B( 25-C , 26-H ) :   0.9490
B( 25-C , 27-H ) :   0.9541 B( 25-C , 28-C ) :   1.0751 B( 28-C , 29-H ) :   0.9764
B( 28-C , 30-H ) :   0.9765 B( 28-C , 31-H ) :   0.9740

Dispersion correction           -0.014610682
FINAL SINGLE POINT ENERGY     -1339.876753362662

DIPOLE MOMENT
-------------
                                X             Y             Z
Electronic contribution:    -17.86378       9.67862      -5.87288
Nuclear contribution   :     18.36828      -9.98089       5.98206
                        -----------------------------------------
Total Dipole Moment    :      0.50449      -0.30227       0.10918
                        -----------------------------------------
Magnitude (a.u.)       :      0.59817
Magnitude (Debye)      :      1.52042

Rotational constants in cm-1:     0.019583     0.008180     0.007146
Rotational constants in MHz :   587.082062   245.222341   214.238221

                             ****ORCA TERMINATED NORMALLY****
TOTAL RUN TIME: 0 days 0 hours 0 minutes 34 seconds 873 msec
