                         Program Version 4.2.1 -  RELEASE  -
|  1> ! wB97X-D3 SP def2-SVP
|  2> %pal
|  3> nprocs 16
|  4> end
|  5>
|  6> * xyz 0 1
|  7> S 	 -100.462 	 54.263 	 121.153
|  8> C 	 -100.271 	 52.8969 	 120.123
|  9> C 	 -101.232 	 52.9251 	 119.09
| 10> C 	 -102.193 	 53.9201 	 119.303
| 11> C 	 -102.048 	 54.6142 	 120.46
| 12> H 	 -103.079 	 54.1676 	 118.633
| 13> C 	 -101.196 	 52.0123 	 117.852
| 14> H 	 -100.976 	 51.1016 	 118.352
| 15> H 	 -100.441 	 52.3341 	 117.169
| 16> C 	 -102.443 	 51.9608 	 116.973
| 17> H 	 -103.253 	 51.3602 	 117.518
| 18> H 	 -102.864 	 52.8739 	 116.653
| 19> C 	 -102.128 	 50.9772 	 115.788
| 20> H 	 -102.984 	 50.779 	 115.196
| 21> H 	 -101.505 	 51.3031 	 114.964
| 22> H 	 -101.659 	 50.066 	 116.215
| 23> S 	 -102.395 	 57.1324 	 121.635
| 24> C 	 -103.911 	 57.5981 	 122.14
| 25> C 	 -104.886 	 56.6464 	 121.853
| 26> C 	 -104.305 	 55.5093 	 121.208
| 27> C 	 -102.952 	 55.5726 	 121.04
| 28> H 	 -105.974 	 56.8361 	 122.082
| 29> C 	 -105.212 	 54.3374 	 120.776
| 30> H 	 -104.907 	 54.1437 	 119.711
| 31> H 	 -106.267 	 54.6189 	 120.678
| 32> C 	 -105.172 	 53.0564 	 121.673
| 33> H 	 -104.19 	 52.7463 	 121.905
| 34> H 	 -105.623 	 52.2306 	 121.131
| 35> C 	 -105.911 	 53.1941 	 123.067
| 36> H 	 -105.774 	 52.337 	 123.763
| 37> H 	 -106.967 	 53.4965 	 122.96
| 38> H 	 -105.44 	 54.0652 	 123.529
| 39> H 	 -99.4453 	 52.1697 	 120.208
| 40> H 	 -104.08 	 58.4794 	 122.738
| 41> *
| 42>
| 43>                          ****END OF INPUT****

CARTESIAN COORDINATES (ANGSTROEM)
---------------------------------
  S    -100.462000   54.263000  121.153000
  C    -100.271000   52.896900  120.123000
  C    -101.232000   52.925100  119.090000
  C    -102.193000   53.920100  119.303000
  C    -102.048000   54.614200  120.460000
  H    -103.079000   54.167600  118.633000
  C    -101.196000   52.012300  117.852000
  H    -100.976000   51.101600  118.352000
  H    -100.441000   52.334100  117.169000
  C    -102.443000   51.960800  116.973000
  H    -103.253000   51.360200  117.518000
  H    -102.864000   52.873900  116.653000
  C    -102.128000   50.977200  115.788000
  H    -102.984000   50.779000  115.196000
  H    -101.505000   51.303100  114.964000
  H    -101.659000   50.066000  116.215000
  S    -102.395000   57.132400  121.635000
  C    -103.911000   57.598100  122.140000
  C    -104.886000   56.646400  121.853000
  C    -104.305000   55.509300  121.208000
  C    -102.952000   55.572600  121.040000
  H    -105.974000   56.836100  122.082000
  C    -105.212000   54.337400  120.776000
  H    -104.907000   54.143700  119.711000
  H    -106.267000   54.618900  120.678000
  C    -105.172000   53.056400  121.673000
  H    -104.190000   52.746300  121.905000
  H    -105.623000   52.230600  121.131000
  C    -105.911000   53.194100  123.067000
  H    -105.774000   52.337000  123.763000
  H    -106.967000   53.496500  122.960000
  H    -105.440000   54.065200  123.529000
  H    -99.445300   52.169700  120.208000
  H    -104.080000   58.479400  122.738000

 Total Charge           Charge          ....    0
 Multiplicity           Mult            ....    1
 Number of Electrons    NEL             ....  134
 Basis Dimension        Dim             ....  322

ORBITAL ENERGIES
----------------

  NO   OCC          E(Eh)            E(eV)
   0   2.0000     -88.965974     -2420.8872
   1   2.0000     -88.964134     -2420.8372
   2   2.0000     -10.325553      -280.9726
   3   2.0000     -10.322296      -280.8839
   4   2.0000     -10.316763      -280.7334
   5   2.0000     -10.312344      -280.6132
   6   2.0000     -10.301740      -280.3246
   7   2.0000     -10.301694      -280.3233
   8   2.0000     -10.297199      -280.2010
   9   2.0000     -10.296499      -280.1820
  10   2.0000     -10.294944      -280.1397
  11   2.0000     -10.293402      -280.0977
  12   2.0000     -10.290145      -280.0091
  13   2.0000     -10.283012      -279.8150
  14   2.0000     -10.278960      -279.7047
  15   2.0000     -10.278434      -279.6904
  16   2.0000      -8.080998      -219.8951
  17   2.0000      -8.080569      -219.8835
  18   2.0000      -6.039398      -164.3404
  19   2.0000      -6.038875      -164.3262
  20   2.0000      -6.035569      -164.2362
  21   2.0000      -6.034711      -164.2128
  22   2.0000      -6.031758      -164.1325
  23   2.0000      -6.031576      -164.1275
  24   2.0000      -1.013790       -27.5866
  25   2.0000      -0.991822       -26.9889
  26   2.0000      -0.912824       -24.8392
  27   2.0000      -0.899840       -24.4859
  28   2.0000      -0.871235       -23.7075
  29   2.0000      -0.850184       -23.1347
  30   2.0000      -0.842802       -22.9338
  31   2.0000      -0.813971       -22.1493
  32   2.0000      -0.780717       -21.2444
  33   2.0000      -0.770143       -20.9567
  34   2.0000      -0.714538       -19.4436
  35   2.0000      -0.698790       -19.0150
  36   2.0000      -0.688612       -18.7381
  37   2.0000      -0.660130       -17.9631
  38   2.0000      -0.639868       -17.4117
  39   2.0000      -0.620265       -16.8783
  40   2.0000      -0.592778       -16.1303
  41   2.0000      -0.578721       -15.7478
  42   2.0000      -0.568056       -15.4576
  43   2.0000      -0.544396       -14.8138
  44   2.0000      -0.538193       -14.6450
  45   2.0000      -0.528962       -14.3938
  46   2.0000      -0.514590       -14.0027
  47   2.0000      -0.508083       -13.8256
  48   2.0000      -0.501558       -13.6481
  49   2.0000      -0.493647       -13.4328
  50   2.0000      -0.488414       -13.2904
  51   2.0000      -0.477290       -12.9877
  52   2.0000      -0.472498       -12.8573
  53   2.0000      -0.463851       -12.6220
  54   2.0000      -0.458461       -12.4754
  55   2.0000      -0.450597       -12.2614
  56   2.0000      -0.446888       -12.1604
  57   2.0000      -0.442415       -12.0387
  58   2.0000      -0.434229       -11.8160
  59   2.0000      -0.421238       -11.4625
  60   2.0000      -0.417138       -11.3509
  61   2.0000      -0.416009       -11.3202
  62   2.0000      -0.405764       -11.0414
  63   2.0000      -0.352729        -9.5982
  64   2.0000      -0.331692        -9.0258
  65   2.0000      -0.331103        -9.0098
  66   2.0000      -0.285065        -7.7570
  67   0.0000       0.026544         0.7223
  68   0.0000       0.069826         1.9001
  69   0.0000       0.111372         3.0306
  70   0.0000       0.126075         3.4307
  71   0.0000       0.138048         3.7565

MULLIKEN ATOMIC CHARGES
-----------------------
   0 S :    0.117934
   1 C :   -0.141677
   2 C :   -0.093224
   3 C :   -0.014054
   4 C :   -0.148399
   5 H :    0.046514
   6 C :    0.095327
   7 H :    0.027455
   8 H :    0.042750
   9 C :   -0.103138
  10 H :    0.040192
  11 H :    0.035605
  12 C :   -0.048052
  13 H :    0.018699
  14 H :    0.024369
  15 H :    0.036485
  16 S :    0.118751
  17 C :   -0.092107
  18 C :   -0.060509
  19 C :   -0.049533
  20 C :   -0.148582
  21 H :    0.040726
  22 C :    0.050086
  23 H :    0.022672
  24 H :    0.019390
  25 C :   -0.031096
  26 H :    0.027153
  27 H :    0.025713
  28 C :   -0.085384
  29 H :    0.050304
  30 H :    0.028097
  31 H :    0.030402
  32 H :    0.057704
  33 H :    0.059430
Sum of atomic charges:   -0.0000000

LOEWDIN ATOMIC CHARGES
----------------------
   0 S :    0.412547
   1 C :   -0.212298
   2 C :   -0.064284
   3 C :   -0.073716
   4 C :   -0.188460
   5 H :    0.043871
   6 C :   -0.027758
   7 H :    0.032636
   8 H :    0.032958
   9 C :   -0.037589
  10 H :    0.034664
  11 H :    0.015867
  12 C :   -0.069181
  13 H :    0.020640
  14 H :    0.021728
  15 H :    0.030740
  16 S :    0.436546
  17 C :   -0.208932
  18 C :   -0.085365
  19 C :   -0.058821
  20 C :   -0.204907
  21 H :    0.042222
  22 C :   -0.032054
  23 H :    0.032466
  24 H :    0.028795
  25 C :   -0.031040
  26 H :    0.019541
  27 H :    0.021441
  28 C :   -0.073942
  29 H :    0.031579
  30 H :    0.021996
  31 H :    0.025256
  32 H :    0.033217
  33 H :    0.029637

  Mayer bond orders larger than 0.100000
B(  0-S ,  1-C ) :   1.1574 B(  0-S ,  4-C ) :   1.1469 B(  1-C ,  2-C ) :   1.5747
B(  1-C ,  4-C ) :   0.1123 B(  1-C , 32-H ) :   0.9727 B(  2-C ,  3-C ) :   1.2813
B(  2-C ,  6-C ) :   0.9856 B(  3-C ,  4-C ) :   1.5583 B(  3-C ,  5-H ) :   0.9734
B(  4-C , 20-C ) :   1.0598 B(  6-C ,  7-H ) :   0.9360 B(  6-C ,  8-H ) :   0.9427
B(  6-C ,  9-C ) :   1.0872 B(  9-C , 10-H ) :   0.9562 B(  9-C , 11-H ) :   0.9520
B(  9-C , 12-C ) :   1.0741 B( 12-C , 13-H ) :   0.9723 B( 12-C , 14-H ) :   0.9742
B( 12-C , 15-H ) :   0.9749 B( 16-S , 17-C ) :   1.1967 B( 16-S , 20-C ) :   1.1352
B( 17-C , 18-C ) :   1.5666 B( 17-C , 33-H ) :   0.9667 B( 18-C , 19-C ) :   1.2633
B( 18-C , 21-H ) :   0.9871 B( 19-C , 20-C ) :   1.5982 B( 19-C , 22-C ) :   1.0300
B( 22-C , 23-H ) :   0.9359 B( 22-C , 24-H ) :   0.9413 B( 22-C , 25-C ) :   1.0621
B( 25-C , 26-H ) :   0.9613 B( 25-C , 27-H ) :   0.9578 B( 25-C , 28-C ) :   1.0638
B( 28-C , 29-H ) :   0.9761 B( 28-C , 30-H ) :   0.9764 B( 28-C , 31-H ) :   0.9780

Dispersion correction           -0.014505852
FINAL SINGLE POINT ENERGY     -1339.869072362448

DIPOLE MOMENT
-------------
                                X             Y             Z
Electronic contribution:     14.97701      21.15251      12.52546
Nuclear contribution   :    -15.30904     -21.48767     -12.91469
                        -----------------------------------------
Total Dipole Moment    :     -0.33203      -0.33516      -0.38923
                        -----------------------------------------
Magnitude (a.u.)       :      0.61162
Magnitude (Debye)      :      1.55462

Rotational constants in cm-1:     0.018754     0.008544     0.007051
Rotational constants in MHz :   562.231196   256.135454   211.390512

                             ****ORCA TERMINATED NORMALLY****
TOTAL RUN TIME: 0 days 0 hours 0 minutes 35 seconds 151 msec
