                         Program Version 4.2.1 -  RELEASE  -
|  1> ! wB97X-D3 SP def2-SVP
|  2> %pal
|  3> nprocs 16
|  4> end
|  5>
|  6> * xyz 0 1
|  7> S 	 11.3827 	 23.381 	 68.9416
|  8> C 	 10.2422 	 22.2697 	 68.3276
|  9> C 	 9.34121 	 22.9356 	 67.6047
| 10> C 	 9.55136 	 24.355 	 67.5534
| 11> C 	 10.7419 	 24.7813 	 68.0705
| 12> H 	 8.75716 	 25.07 	 67.1686
| 13> C 	 8.02082 	 22.2547 	 66.9745
| 14> H 	 8.23441 	 21.2557 	 66.5135
| 15> H 	 7.67929 	 22.9231 	 66.1352
| 16> C 	 6.87381 	 21.902 	 67.8923
| 17> H 	 6.14303 	 21.3615 	 67.2375
| 18> H 	 7.31876 	 21.2795 	 68.6163
| 19> C 	 6.21631 	 23.1604 	 68.3992
| 20> H 	 6.92919 	 23.6367 	 69.0922
| 21> H 	 5.82809 	 23.7387 	 67.4863
| 22> H 	 5.35349 	 22.9332 	 68.9806
| 23> S 	 11.2509 	 26.8577 	 69.862
| 24> C 	 11.8081 	 28.3633 	 69.2457
| 25> C 	 12.0262 	 28.3644 	 67.871
| 26> C 	 11.5628 	 27.1624 	 67.2923
| 27> C 	 11.2058 	 26.1821 	 68.2326
| 28> H 	 12.3513 	 29.2864 	 67.4488
| 29> C 	 11.4469 	 26.8967 	 65.8175
| 30> H 	 11.252 	 27.8561 	 65.3573
| 31> H 	 10.5033 	 26.4297 	 65.6439
| 32> C 	 12.5956 	 26.1267 	 65.1865
| 33> H 	 12.1075 	 25.6899 	 64.3074
| 34> H 	 12.8817 	 25.3517 	 65.9075
| 35> C 	 13.7668 	 26.8926 	 64.7396
| 36> H 	 13.3492 	 27.6077 	 64.0494
| 37> H 	 14.4896 	 26.2309 	 64.2739
| 38> H 	 14.2455 	 27.4975 	 65.4778
| 39> H 	 10.334 	 21.221 	 68.406
| 40> H 	 12.0296 	 29.1904 	 69.841
| 41> *
| 42>
| 43>                          ****END OF INPUT****

CARTESIAN COORDINATES (ANGSTROEM)
---------------------------------
  S     11.382700   23.381000   68.941600
  C     10.242200   22.269700   68.327600
  C      9.341210   22.935600   67.604700
  C      9.551360   24.355000   67.553400
  C     10.741900   24.781300   68.070500
  H      8.757160   25.070000   67.168600
  C      8.020820   22.254700   66.974500
  H      8.234410   21.255700   66.513500
  H      7.679290   22.923100   66.135200
  C      6.873810   21.902000   67.892300
  H      6.143030   21.361500   67.237500
  H      7.318760   21.279500   68.616300
  C      6.216310   23.160400   68.399200
  H      6.929190   23.636700   69.092200
  H      5.828090   23.738700   67.486300
  H      5.353490   22.933200   68.980600
  S     11.250900   26.857700   69.862000
  C     11.808100   28.363300   69.245700
  C     12.026200   28.364400   67.871000
  C     11.562800   27.162400   67.292300
  C     11.205800   26.182100   68.232600
  H     12.351300   29.286400   67.448800
  C     11.446900   26.896700   65.817500
  H     11.252000   27.856100   65.357300
  H     10.503300   26.429700   65.643900
  C     12.595600   26.126700   65.186500
  H     12.107500   25.689900   64.307400
  H     12.881700   25.351700   65.907500
  C     13.766800   26.892600   64.739600
  H     13.349200   27.607700   64.049400
  H     14.489600   26.230900   64.273900
  H     14.245500   27.497500   65.477800
  H     10.334000   21.221000   68.406000
  H     12.029600   29.190400   69.841000

 Total Charge           Charge          ....    0
 Multiplicity           Mult            ....    1
 Number of Electrons    NEL             ....  134
 Basis Dimension        Dim             ....  322

ORBITAL ENERGIES
----------------

  NO   OCC          E(Eh)            E(eV)
   0   2.0000     -88.967255     -2420.9221
   1   2.0000     -88.961664     -2420.7699
   2   2.0000     -10.333008      -281.1754
   3   2.0000     -10.328244      -281.0458
   4   2.0000     -10.312290      -280.6117
   5   2.0000     -10.308335      -280.5041
   6   2.0000     -10.303385      -280.3694
   7   2.0000     -10.300408      -280.2884
   8   2.0000     -10.298293      -280.2308
   9   2.0000     -10.297788      -280.2171
  10   2.0000     -10.292266      -280.0668
  11   2.0000     -10.281538      -279.7749
  12   2.0000     -10.280323      -279.7418
  13   2.0000     -10.277436      -279.6632
  14   2.0000     -10.276299      -279.6323
  15   2.0000     -10.266062      -279.3537
  16   2.0000      -8.082164      -219.9269
  17   2.0000      -8.077237      -219.7928
  18   2.0000      -6.040469      -164.3695
  19   2.0000      -6.036600      -164.2642
  20   2.0000      -6.035841      -164.2436
  21   2.0000      -6.033186      -164.1713
  22   2.0000      -6.031562      -164.1271
  23   2.0000      -6.027864      -164.0265
  24   2.0000      -1.010366       -27.4935
  25   2.0000      -0.990659       -26.9572
  26   2.0000      -0.915713       -24.9178
  27   2.0000      -0.911615       -24.8063
  28   2.0000      -0.873190       -23.7607
  29   2.0000      -0.856200       -23.2984
  30   2.0000      -0.839026       -22.8311
  31   2.0000      -0.818809       -22.2809
  32   2.0000      -0.784285       -21.3415
  33   2.0000      -0.773878       -21.0583
  34   2.0000      -0.707806       -19.2604
  35   2.0000      -0.691499       -18.8166
  36   2.0000      -0.685958       -18.6659
  37   2.0000      -0.662687       -18.0326
  38   2.0000      -0.643116       -17.5001
  39   2.0000      -0.614858       -16.7311
  40   2.0000      -0.598559       -16.2876
  41   2.0000      -0.582432       -15.8488
  42   2.0000      -0.556691       -15.1483
  43   2.0000      -0.548236       -14.9183
  44   2.0000      -0.546427       -14.8690
  45   2.0000      -0.543023       -14.7764
  46   2.0000      -0.525481       -14.2991
  47   2.0000      -0.513158       -13.9637
  48   2.0000      -0.504203       -13.7201
  49   2.0000      -0.492324       -13.3968
  50   2.0000      -0.487604       -13.2684
  51   2.0000      -0.479736       -13.0543
  52   2.0000      -0.473751       -12.8914
  53   2.0000      -0.469214       -12.7680
  54   2.0000      -0.464869       -12.6497
  55   2.0000      -0.446342       -12.1456
  56   2.0000      -0.440948       -11.9988
  57   2.0000      -0.432283       -11.7630
  58   2.0000      -0.425435       -11.5767
  59   2.0000      -0.419451       -11.4138
  60   2.0000      -0.416569       -11.3354
  61   2.0000      -0.411458       -11.1963
  62   2.0000      -0.404185       -10.9984
  63   2.0000      -0.347352        -9.4519
  64   2.0000      -0.333685        -9.0800
  65   2.0000      -0.325852        -8.8669
  66   2.0000      -0.298271        -8.1164
  67   0.0000       0.034707         0.9444
  68   0.0000       0.061029         1.6607
  69   0.0000       0.118440         3.2229
  70   0.0000       0.124881         3.3982
  71   0.0000       0.131950         3.5905

MULLIKEN ATOMIC CHARGES
-----------------------
   0 S :    0.094980
   1 C :   -0.103589
   2 C :   -0.080629
   3 C :    0.012850
   4 C :   -0.146512
   5 H :    0.045858
   6 C :    0.004511
   7 H :    0.029239
   8 H :    0.024200
   9 C :   -0.046857
  10 H :    0.034370
  11 H :    0.018556
  12 C :   -0.054460
  13 H :    0.050033
  14 H :    0.037558
  15 H :    0.023678
  16 S :    0.122914
  17 C :   -0.079819
  18 C :   -0.029342
  19 C :   -0.053882
  20 C :   -0.170187
  21 H :    0.010218
  22 C :    0.098541
  23 H :   -0.000200
  24 H :    0.006018
  25 C :   -0.053324
  26 H :    0.026152
  27 H :    0.035300
  28 C :   -0.001939
  29 H :    0.009620
  30 H :    0.039263
  31 H :    0.020558
  32 H :    0.041624
  33 H :    0.034700
Sum of atomic charges:    0.0000000

LOEWDIN ATOMIC CHARGES
----------------------
   0 S :    0.408173
   1 C :   -0.195166
   2 C :   -0.075650
   3 C :   -0.070021
   4 C :   -0.194997
   5 H :    0.042273
   6 C :   -0.034450
   7 H :    0.031510
   8 H :    0.025685
   9 C :   -0.043249
  10 H :    0.029803
  11 H :    0.016662
  12 C :   -0.070142
  13 H :    0.032445
  14 H :    0.035340
  15 H :    0.017842
  16 S :    0.421133
  17 C :   -0.179819
  18 C :   -0.071985
  19 C :   -0.048100
  20 C :   -0.202739
  21 H :    0.030216
  22 C :   -0.033250
  23 H :    0.025737
  24 H :    0.028297
  25 C :   -0.037737
  26 H :    0.028933
  27 H :    0.026924
  28 C :   -0.059905
  29 H :    0.022994
  30 H :    0.030143
  31 H :    0.020151
  32 H :    0.027041
  33 H :    0.015907

  Mayer bond orders larger than 0.100000
B(  0-S ,  1-C ) :   1.1442 B(  0-S ,  4-C ) :   1.1425 B(  1-C ,  2-C ) :   1.6208
B(  1-C , 32-H ) :   0.9761 B(  2-C ,  3-C ) :   1.2537 B(  2-C ,  6-C ) :   0.9992
B(  3-C ,  4-C ) :   1.5854 B(  3-C ,  5-H ) :   0.9748 B(  4-C , 20-C ) :   1.0219
B(  6-C ,  7-H ) :   0.9492 B(  6-C ,  8-H ) :   0.9473 B(  6-C ,  9-C ) :   1.0705
B(  9-C , 10-H ) :   0.9515 B(  9-C , 11-H ) :   0.9524 B(  9-C , 12-C ) :   1.0883
B( 12-C , 13-H ) :   0.9728 B( 12-C , 14-H ) :   0.9711 B( 12-C , 15-H ) :   0.9728
B( 16-S , 17-C ) :   1.1840 B( 16-S , 20-C ) :   1.1508 B( 17-C , 18-C ) :   1.5880
B( 17-C , 20-C ) :   0.1059 B( 17-C , 33-H ) :   0.9705 B( 18-C , 19-C ) :   1.2542
B( 18-C , 21-H ) :   0.9986 B( 19-C , 20-C ) :   1.5826 B( 19-C , 22-C ) :   1.0459
B( 22-C , 23-H ) :   0.9227 B( 22-C , 24-H ) :   0.9242 B( 22-C , 25-C ) :   1.0635
B( 25-C , 26-H ) :   0.9513 B( 25-C , 27-H ) :   0.9541 B( 25-C , 28-C ) :   1.0941
B( 28-C , 29-H ) :   0.9696 B( 28-C , 30-H ) :   0.9694 B( 28-C , 31-H ) :   0.9725

Dispersion correction           -0.014547700
FINAL SINGLE POINT ENERGY     -1339.864006323958

DIPOLE MOMENT
-------------
                                X             Y             Z
Electronic contribution:      9.91604       3.16947      17.82546
Nuclear contribution   :    -10.29456      -3.10427     -18.22339
                        -----------------------------------------
Total Dipole Moment    :     -0.37851       0.06521      -0.39793
                        -----------------------------------------
Magnitude (a.u.)       :      0.55306
Magnitude (Debye)      :      1.40576

Rotational constants in cm-1:     0.020232     0.008054     0.007148
Rotational constants in MHz :   606.542085   241.455805   214.282422

                             ****ORCA TERMINATED NORMALLY****
TOTAL RUN TIME: 0 days 0 hours 0 minutes 35 seconds 525 msec
