                         Program Version 4.2.1 -  RELEASE  -
|  1> ! wB97X-D3 SP def2-SVP
|  2> %pal
|  3> nprocs 16
|  4> end
|  5>
|  6> * xyz 0 1
|  7> S 	 -34.8146 	 53.4365 	 102.121
|  8> C 	 -35.8482 	 52.1382 	 101.392
|  9> C 	 -37.053 	 52.6678 	 100.922
| 10> C 	 -37.1618 	 54.0876 	 101.236
| 11> C 	 -36.1055 	 54.5891 	 101.981
| 12> H 	 -38.0822 	 54.6056 	 101.205
| 13> C 	 -38.144 	 51.8713 	 100.256
| 14> H 	 -38.9616 	 52.4737 	 99.9772
| 15> H 	 -38.5228 	 51.1651 	 100.995
| 16> C 	 -37.7742 	 51.118 	 98.9175
| 17> H 	 -37.4624 	 51.7863 	 98.1502
| 18> H 	 -36.8912 	 50.5344 	 99.1896
| 19> C 	 -38.8977 	 50.1796 	 98.4498
| 20> H 	 -38.5673 	 49.574 	 97.6389
| 21> H 	 -39.2421 	 49.541 	 99.2113
| 22> H 	 -39.746 	 50.7827 	 98.043
| 23> S 	 -36.1874 	 55.5823 	 104.507
| 24> C 	 -36.6413 	 57.2667 	 104.762
| 25> C 	 -36.6542 	 57.9775 	 103.574
| 26> C 	 -36.4665 	 57.2033 	 102.381
| 27> C 	 -36.1568 	 55.8741 	 102.774
| 28> H 	 -37.0213 	 58.9696 	 103.624
| 29> C 	 -36.6225 	 57.85 	 100.971
| 30> H 	 -36.1639 	 58.8473 	 101.099
| 31> H 	 -37.632 	 57.9564 	 100.709
| 32> C 	 -35.7574 	 57.1828 	 99.8917
| 33> H 	 -36.1647 	 56.2179 	 99.4568
| 34> H 	 -34.773 	 56.9836 	 100.4
| 35> C 	 -35.4583 	 58.1224 	 98.7677
| 36> H 	 -36.3904 	 58.5007 	 98.2777
| 37> H 	 -34.8687 	 57.7067 	 97.9616
| 38> H 	 -34.8829 	 58.9655 	 99.1211
| 39> H 	 -35.7358 	 51.1034 	 101.475
| 40> H 	 -36.8196 	 57.6913 	 105.733
| 41> *
| 42>
| 43>                          ****END OF INPUT****

CARTESIAN COORDINATES (ANGSTROEM)
---------------------------------
  S    -34.814600   53.436500  102.121000
  C    -35.848200   52.138200  101.392000
  C    -37.053000   52.667800  100.922000
  C    -37.161800   54.087600  101.236000
  C    -36.105500   54.589100  101.981000
  H    -38.082200   54.605600  101.205000
  C    -38.144000   51.871300  100.256000
  H    -38.961600   52.473700   99.977200
  H    -38.522800   51.165100  100.995000
  C    -37.774200   51.118000   98.917500
  H    -37.462400   51.786300   98.150200
  H    -36.891200   50.534400   99.189600
  C    -38.897700   50.179600   98.449800
  H    -38.567300   49.574000   97.638900
  H    -39.242100   49.541000   99.211300
  H    -39.746000   50.782700   98.043000
  S    -36.187400   55.582300  104.507000
  C    -36.641300   57.266700  104.762000
  C    -36.654200   57.977500  103.574000
  C    -36.466500   57.203300  102.381000
  C    -36.156800   55.874100  102.774000
  H    -37.021300   58.969600  103.624000
  C    -36.622500   57.850000  100.971000
  H    -36.163900   58.847300  101.099000
  H    -37.632000   57.956400  100.709000
  C    -35.757400   57.182800   99.891700
  H    -36.164700   56.217900   99.456800
  H    -34.773000   56.983600  100.400000
  C    -35.458300   58.122400   98.767700
  H    -36.390400   58.500700   98.277700
  H    -34.868700   57.706700   97.961600
  H    -34.882900   58.965500   99.121100
  H    -35.735800   51.103400  101.475000
  H    -36.819600   57.691300  105.733000

 Total Charge           Charge          ....    0
 Multiplicity           Mult            ....    1
 Number of Electrons    NEL             ....  134
 Basis Dimension        Dim             ....  322

ORBITAL ENERGIES
----------------

  NO   OCC          E(Eh)            E(eV)
   0   2.0000     -88.967717     -2420.9347
   1   2.0000     -88.966264     -2420.8951
   2   2.0000     -10.333824      -281.1976
   3   2.0000     -10.330749      -281.1140
   4   2.0000     -10.317291      -280.7478
   5   2.0000     -10.312430      -280.6155
   6   2.0000     -10.311832      -280.5992
   7   2.0000     -10.304595      -280.4023
   8   2.0000     -10.296964      -280.1946
   9   2.0000     -10.291676      -280.0507
  10   2.0000     -10.289655      -279.9958
  11   2.0000     -10.289642      -279.9954
  12   2.0000     -10.286585      -279.9122
  13   2.0000     -10.286110      -279.8993
  14   2.0000     -10.276395      -279.6349
  15   2.0000     -10.272609      -279.5319
  16   2.0000      -8.082024      -219.9231
  17   2.0000      -8.080041      -219.8691
  18   2.0000      -6.040448      -164.3689
  19   2.0000      -6.038713      -164.3217
  20   2.0000      -6.036647      -164.2655
  21   2.0000      -6.034661      -164.2115
  22   2.0000      -6.032825      -164.1615
  23   2.0000      -6.030715      -164.1041
  24   2.0000      -0.997780       -27.1510
  25   2.0000      -0.974926       -26.5291
  26   2.0000      -0.909687       -24.7538
  27   2.0000      -0.907578       -24.6965
  28   2.0000      -0.862711       -23.4756
  29   2.0000      -0.849900       -23.1270
  30   2.0000      -0.843147       -22.9432
  31   2.0000      -0.810684       -22.0598
  32   2.0000      -0.782549       -21.2942
  33   2.0000      -0.772290       -21.0151
  34   2.0000      -0.707649       -19.2561
  35   2.0000      -0.700825       -19.0704
  36   2.0000      -0.682679       -18.5766
  37   2.0000      -0.657591       -17.8940
  38   2.0000      -0.638065       -17.3626
  39   2.0000      -0.613055       -16.6821
  40   2.0000      -0.594685       -16.1822
  41   2.0000      -0.574529       -15.6337
  42   2.0000      -0.572393       -15.5756
  43   2.0000      -0.558773       -15.2050
  44   2.0000      -0.521043       -14.1783
  45   2.0000      -0.520751       -14.1704
  46   2.0000      -0.518299       -14.1036
  47   2.0000      -0.509529       -13.8650
  48   2.0000      -0.505738       -13.7618
  49   2.0000      -0.495685       -13.4883
  50   2.0000      -0.486911       -13.2495
  51   2.0000      -0.484157       -13.1746
  52   2.0000      -0.471311       -12.8250
  53   2.0000      -0.459148       -12.4941
  54   2.0000      -0.457615       -12.4523
  55   2.0000      -0.447921       -12.1886
  56   2.0000      -0.445335       -12.1182
  57   2.0000      -0.439804       -11.9677
  58   2.0000      -0.428810       -11.6685
  59   2.0000      -0.424940       -11.5632
  60   2.0000      -0.420689       -11.4475
  61   2.0000      -0.417553       -11.3622
  62   2.0000      -0.411917       -11.2088
  63   2.0000      -0.340574        -9.2675
  64   2.0000      -0.326916        -8.8958
  65   2.0000      -0.326199        -8.8763
  66   2.0000      -0.295258        -8.0344
  67   0.0000       0.031141         0.8474
  68   0.0000       0.062653         1.7049
  69   0.0000       0.111936         3.0459
  70   0.0000       0.116599         3.1728
  71   0.0000       0.126035         3.4296

MULLIKEN ATOMIC CHARGES
-----------------------
   0 S :    0.101808
   1 C :   -0.103532
   2 C :   -0.110267
   3 C :    0.072622
   4 C :   -0.159543
   5 H :    0.002994
   6 C :    0.066166
   7 H :    0.003920
   8 H :    0.037305
   9 C :   -0.079567
  10 H :    0.031319
  11 H :    0.021437
  12 C :   -0.028118
  13 H :    0.029613
  14 H :    0.023194
  15 H :    0.033924
  16 S :    0.116510
  17 C :   -0.097896
  18 C :   -0.022533
  19 C :   -0.038536
  20 C :   -0.175901
  21 H :    0.008985
  22 C :    0.095173
  23 H :    0.027508
  24 H :    0.034933
  25 C :   -0.109246
  26 H :    0.055170
  27 H :    0.039790
  28 C :   -0.041320
  29 H :    0.025514
  30 H :    0.030522
  31 H :    0.023472
  32 H :    0.031259
  33 H :    0.053320
Sum of atomic charges:    0.0000000

LOEWDIN ATOMIC CHARGES
----------------------
   0 S :    0.383928
   1 C :   -0.181709
   2 C :   -0.050175
   3 C :   -0.065402
   4 C :   -0.196343
   5 H :    0.023967
   6 C :   -0.032039
   7 H :    0.020795
   8 H :    0.035568
   9 C :   -0.030867
  10 H :    0.021765
  11 H :    0.019700
  12 C :   -0.060592
  13 H :    0.024723
  14 H :    0.018654
  15 H :    0.030165
  16 S :    0.407532
  17 C :   -0.179036
  18 C :   -0.070505
  19 C :   -0.050932
  20 C :   -0.196396
  21 H :    0.025536
  22 C :   -0.019934
  23 H :    0.038894
  24 H :    0.025087
  25 C :   -0.051381
  26 H :    0.031908
  27 H :    0.033505
  28 C :   -0.069654
  29 H :    0.025253
  30 H :    0.025157
  31 H :    0.020494
  32 H :    0.016518
  33 H :    0.025817

  Mayer bond orders larger than 0.100000
B(  0-S ,  1-C ) :   1.1087 B(  0-S ,  4-C ) :   1.1543 B(  1-C ,  2-C ) :   1.6351
B(  1-C , 32-H ) :   0.9727 B(  2-C ,  3-C ) :   1.2333 B(  2-C ,  6-C ) :   1.0288
B(  3-C ,  4-C ) :   1.5936 B(  3-C ,  5-H ) :   0.9884 B(  4-C , 20-C ) :   0.9958
B(  6-C ,  7-H ) :   0.9435 B(  6-C ,  8-H ) :   0.9375 B(  6-C ,  9-C ) :   1.0535
B(  9-C , 10-H ) :   0.9594 B(  9-C , 11-H ) :   0.9588 B(  9-C , 12-C ) :   1.0844
B( 12-C , 13-H ) :   0.9728 B( 12-C , 14-H ) :   0.9752 B( 12-C , 15-H ) :   0.9746
B( 16-S , 17-C ) :   1.1485 B( 16-S , 20-C ) :   1.1619 B( 17-C , 18-C ) :   1.6233
B( 17-C , 33-H ) :   0.9689 B( 18-C , 19-C ) :   1.2437 B( 18-C , 21-H ) :   0.9868
B( 19-C , 20-C ) :   1.5929 B( 19-C , 22-C ) :   1.0141 B( 22-C , 23-H ) :   0.9429
B( 22-C , 24-H ) :   0.9307 B( 22-C , 25-C ) :   1.0626 B( 25-C , 26-H ) :   0.9476
B( 25-C , 27-H ) :   0.9573 B( 25-C , 28-C ) :   1.0962 B( 28-C , 29-H ) :   0.9698
B( 28-C , 30-H ) :   0.9719 B( 28-C , 31-H ) :   0.9720

Dispersion correction           -0.013927685
FINAL SINGLE POINT ENERGY     -1339.868713948673

DIPOLE MOMENT
-------------
                                X             Y             Z
Electronic contribution:     10.24255       2.20115      25.33769
Nuclear contribution   :    -10.85467      -2.08711     -25.63652
                        -----------------------------------------
Total Dipole Moment    :     -0.61212       0.11404      -0.29883
                        -----------------------------------------
Magnitude (a.u.)       :      0.69065
Magnitude (Debye)      :      1.75549

Rotational constants in cm-1:     0.018581     0.007877     0.006474
Rotational constants in MHz :   557.059044   236.156238   194.080288

                             ****ORCA TERMINATED NORMALLY****
TOTAL RUN TIME: 0 days 0 hours 0 minutes 29 seconds 114 msec
