                         Program Version 4.2.1 -  RELEASE  -
|  1> ! wB97X-D3 SP def2-SVP
|  2> %pal
|  3> nprocs 16
|  4> end
|  5>
|  6> * xyz 0 1
|  7> S 	 -56.9381 	 51.5725 	 138.343
|  8> C 	 -57.1519 	 53.2553 	 138.007
|  9> C 	 -57.9672 	 53.8392 	 138.97
| 10> C 	 -58.2798 	 52.8812 	 140.019
| 11> C 	 -57.7988 	 51.5971 	 139.765
| 12> H 	 -58.8597 	 53.0945 	 140.961
| 13> C 	 -58.4006 	 55.2907 	 138.901
| 14> H 	 -58.0847 	 55.6497 	 137.906
| 15> H 	 -57.8442 	 55.8771 	 139.595
| 16> C 	 -59.8765 	 55.5447 	 139.097
| 17> H 	 -60.3297 	 55.3985 	 138.153
| 18> H 	 -60.2408 	 54.9553 	 139.919
| 19> C 	 -60.1383 	 57.0278 	 139.585
| 20> H 	 -59.4543 	 57.764 	 139.282
| 21> H 	 -61.1391 	 57.3176 	 139.386
| 22> H 	 -60.0768 	 56.9702 	 140.681
| 23> S 	 -56.8048 	 49.4791 	 141.216
| 24> C 	 -58.014 	 48.511 	 142.046
| 25> C 	 -59.3276 	 48.8611 	 141.694
| 26> C 	 -59.3983 	 49.9459 	 140.805
| 27> C 	 -58.1227 	 50.3794 	 140.466
| 28> H 	 -60.1294 	 48.3233 	 142.078
| 29> C 	 -60.6917 	 50.6151 	 140.575
| 30> H 	 -60.5378 	 51.3694 	 139.883
| 31> H 	 -60.9991 	 50.9912 	 141.546
| 32> C 	 -61.5899 	 49.6324 	 139.822
| 33> H 	 -61.7725 	 48.663 	 140.28
| 34> H 	 -60.9541 	 49.2765 	 138.986
| 35> C 	 -62.9305 	 50.2919 	 139.482
| 36> H 	 -62.7001 	 51.0974 	 138.801
| 37> H 	 -63.5658 	 50.6066 	 140.303
| 38> H 	 -63.5756 	 49.6017 	 138.86
| 39> H 	 -56.6165 	 53.7411 	 137.242
| 40> H 	 -57.7237 	 47.5446 	 142.498
| 41> *
| 42>
| 43>                          ****END OF INPUT****

CARTESIAN COORDINATES (ANGSTROEM)
---------------------------------
  S    -56.938100   51.572500  138.343000
  C    -57.151900   53.255300  138.007000
  C    -57.967200   53.839200  138.970000
  C    -58.279800   52.881200  140.019000
  C    -57.798800   51.597100  139.765000
  H    -58.859700   53.094500  140.961000
  C    -58.400600   55.290700  138.901000
  H    -58.084700   55.649700  137.906000
  H    -57.844200   55.877100  139.595000
  C    -59.876500   55.544700  139.097000
  H    -60.329700   55.398500  138.153000
  H    -60.240800   54.955300  139.919000
  C    -60.138300   57.027800  139.585000
  H    -59.454300   57.764000  139.282000
  H    -61.139100   57.317600  139.386000
  H    -60.076800   56.970200  140.681000
  S    -56.804800   49.479100  141.216000
  C    -58.014000   48.511000  142.046000
  C    -59.327600   48.861100  141.694000
  C    -59.398300   49.945900  140.805000
  C    -58.122700   50.379400  140.466000
  H    -60.129400   48.323300  142.078000
  C    -60.691700   50.615100  140.575000
  H    -60.537800   51.369400  139.883000
  H    -60.999100   50.991200  141.546000
  C    -61.589900   49.632400  139.822000
  H    -61.772500   48.663000  140.280000
  H    -60.954100   49.276500  138.986000
  C    -62.930500   50.291900  139.482000
  H    -62.700100   51.097400  138.801000
  H    -63.565800   50.606600  140.303000
  H    -63.575600   49.601700  138.860000
  H    -56.616500   53.741100  137.242000
  H    -57.723700   47.544600  142.498000

 Total Charge           Charge          ....    0
 Multiplicity           Mult            ....    1
 Number of Electrons    NEL             ....  134
 Basis Dimension        Dim             ....  322

ORBITAL ENERGIES
----------------

  NO   OCC          E(Eh)            E(eV)
   0   2.0000     -88.967200     -2420.9206
   1   2.0000     -88.959978     -2420.7241
   2   2.0000     -10.322379      -280.8862
   3   2.0000     -10.320269      -280.8288
   4   2.0000     -10.318340      -280.7763
   5   2.0000     -10.307304      -280.4760
   6   2.0000     -10.303129      -280.3624
   7   2.0000     -10.297533      -280.2101
   8   2.0000     -10.296584      -280.1843
   9   2.0000     -10.288510      -279.9646
  10   2.0000     -10.288157      -279.9550
  11   2.0000     -10.287438      -279.9354
  12   2.0000     -10.283218      -279.8206
  13   2.0000     -10.282196      -279.7928
  14   2.0000     -10.280226      -279.7392
  15   2.0000     -10.273943      -279.5682
  16   2.0000      -8.081670      -219.9134
  17   2.0000      -8.077066      -219.7881
  18   2.0000      -6.039996      -164.3567
  19   2.0000      -6.036332      -164.2569
  20   2.0000      -6.035308      -164.2291
  21   2.0000      -6.032533      -164.1536
  22   2.0000      -6.031033      -164.1127
  23   2.0000      -6.028175      -164.0350
  24   2.0000      -1.012649       -27.5556
  25   2.0000      -0.986334       -26.8395
  26   2.0000      -0.919125       -25.0107
  27   2.0000      -0.914845       -24.8942
  28   2.0000      -0.869535       -23.6612
  29   2.0000      -0.853712       -23.2307
  30   2.0000      -0.842709       -22.9313
  31   2.0000      -0.810307       -22.0496
  32   2.0000      -0.786547       -21.4030
  33   2.0000      -0.772523       -21.0214
  34   2.0000      -0.710431       -19.3318
  35   2.0000      -0.703422       -19.1411
  36   2.0000      -0.691516       -18.8171
  37   2.0000      -0.662338       -18.0231
  38   2.0000      -0.645032       -17.5522
  39   2.0000      -0.618462       -16.8292
  40   2.0000      -0.599701       -16.3187
  41   2.0000      -0.573302       -15.6003
  42   2.0000      -0.572819       -15.5872
  43   2.0000      -0.564253       -15.3541
  44   2.0000      -0.530973       -14.4485
  45   2.0000      -0.522666       -14.2225
  46   2.0000      -0.521418       -14.1885
  47   2.0000      -0.513980       -13.9861
  48   2.0000      -0.504765       -13.7353
  49   2.0000      -0.499288       -13.5863
  50   2.0000      -0.493898       -13.4397
  51   2.0000      -0.485427       -13.2091
  52   2.0000      -0.467503       -12.7214
  53   2.0000      -0.463658       -12.6168
  54   2.0000      -0.453837       -12.3495
  55   2.0000      -0.451646       -12.2899
  56   2.0000      -0.446015       -12.1367
  57   2.0000      -0.441613       -12.0169
  58   2.0000      -0.436670       -11.8824
  59   2.0000      -0.426098       -11.5947
  60   2.0000      -0.421340       -11.4653
  61   2.0000      -0.414801       -11.2873
  62   2.0000      -0.413304       -11.2466
  63   2.0000      -0.337361        -9.1801
  64   2.0000      -0.330963        -9.0060
  65   2.0000      -0.325317        -8.8523
  66   2.0000      -0.297334        -8.0909
  67   0.0000       0.034727         0.9450
  68   0.0000       0.070651         1.9225
  69   0.0000       0.114562         3.1174
  70   0.0000       0.120848         3.2884
  71   0.0000       0.126993         3.4557

MULLIKEN ATOMIC CHARGES
-----------------------
   0 S :    0.117064
   1 C :   -0.116775
   2 C :   -0.103297
   3 C :    0.002730
   4 C :   -0.166503
   5 H :    0.031995
   6 C :    0.092371
   7 H :    0.012968
   8 H :    0.024452
   9 C :   -0.068665
  10 H :    0.032888
  11 H :    0.032713
  12 C :   -0.046293
  13 H :    0.028663
  14 H :    0.025834
  15 H :    0.024793
  16 S :    0.115500
  17 C :   -0.104903
  18 C :   -0.022860
  19 C :   -0.051983
  20 C :   -0.173191
  21 H :   -0.003018
  22 C :    0.164504
  23 H :    0.003089
  24 H :    0.041358
  25 C :   -0.135739
  26 H :    0.024343
  27 H :    0.036330
  28 C :   -0.023118
  29 H :    0.027667
  30 H :    0.040781
  31 H :    0.031160
  32 H :    0.034401
  33 H :    0.070740
Sum of atomic charges:   -0.0000000

LOEWDIN ATOMIC CHARGES
----------------------
   0 S :    0.452570
   1 C :   -0.204374
   2 C :   -0.059427
   3 C :   -0.076720
   4 C :   -0.231966
   5 H :    0.036977
   6 C :   -0.030332
   7 H :    0.031606
   8 H :    0.025684
   9 C :   -0.028381
  10 H :    0.020918
  11 H :    0.023305
  12 C :   -0.058506
  13 H :    0.016034
  14 H :    0.020971
  15 H :    0.027812
  16 S :    0.401446
  17 C :   -0.185912
  18 C :   -0.058088
  19 C :   -0.049407
  20 C :   -0.204354
  21 H :    0.020151
  22 C :   -0.020226
  23 H :    0.022131
  24 H :    0.034724
  25 C :   -0.042561
  26 H :    0.017590
  27 H :    0.035094
  28 C :   -0.068517
  29 H :    0.024262
  30 H :    0.026955
  31 H :    0.030728
  32 H :    0.018359
  33 H :    0.031455

  Mayer bond orders larger than 0.100000
B(  0-S ,  1-C ) :   1.1577 B(  0-S ,  4-C ) :   1.2032 B(  1-C ,  2-C ) :   1.5799
B(  1-C , 32-H ) :   0.9793 B(  2-C ,  3-C ) :   1.2532 B(  2-C ,  6-C ) :   1.0217
B(  3-C ,  4-C ) :   1.5412 B(  3-C ,  5-H ) :   0.9895 B(  4-C , 20-C ) :   1.0010
B(  6-C ,  7-H ) :   0.9364 B(  6-C ,  8-H ) :   0.9408 B(  6-C ,  9-C ) :   1.0610
B(  9-C , 10-H ) :   0.9623 B(  9-C , 11-H ) :   0.9659 B(  9-C , 12-C ) :   1.0697
B( 12-C , 13-H ) :   0.9798 B( 12-C , 14-H ) :   0.9764 B( 12-C , 15-H ) :   0.9801
B( 16-S , 17-C ) :   1.1572 B( 16-S , 20-C ) :   1.1525 B( 17-C , 18-C ) :   1.5958
B( 17-C , 20-C ) :   0.1074 B( 17-C , 33-H ) :   0.9605 B( 18-C , 19-C ) :   1.2405
B( 18-C , 21-H ) :   1.0004 B( 19-C , 20-C ) :   1.5762 B( 19-C , 22-C ) :   1.0504
B( 22-C , 23-H ) :   0.9118 B( 22-C , 24-H ) :   0.9353 B( 22-C , 25-C ) :   1.0405
B( 25-C , 26-H ) :   0.9621 B( 25-C , 27-H ) :   0.9525 B( 25-C , 28-C ) :   1.0784
B( 28-C , 29-H ) :   0.9731 B( 28-C , 30-H ) :   0.9734 B( 28-C , 31-H ) :   0.9722

Dispersion correction           -0.013998796
FINAL SINGLE POINT ENERGY     -1339.866710162294

DIPOLE MOMENT
-------------
                                X             Y             Z
Electronic contribution:     25.40708     -17.05838       1.66396
Nuclear contribution   :    -25.99395      17.35764      -1.58713
                        -----------------------------------------
Total Dipole Moment    :     -0.58686       0.29926       0.07683
                        -----------------------------------------
Magnitude (a.u.)       :      0.66323
Magnitude (Debye)      :      1.68579

Rotational constants in cm-1:     0.016931     0.009035     0.006831
Rotational constants in MHz :   507.563979   270.849586   204.796457

                             ****ORCA TERMINATED NORMALLY****
TOTAL RUN TIME: 0 days 0 hours 0 minutes 34 seconds 972 msec
