                         Program Version 4.2.1 -  RELEASE  -
|  1> ! wB97X-D3 SP def2-SVP
|  2> %pal
|  3> nprocs 16
|  4> end
|  5>
|  6> * xyz 0 1
|  7> S 	 -37.4111 	 75.3448 	 152.702
|  8> C 	 -36.0942 	 76.3318 	 152.663
|  9> C 	 -35.0643 	 75.6798 	 152.077
| 10> C 	 -35.3224 	 74.2864 	 151.677
| 11> C 	 -36.618 	 73.976 	 151.981
| 12> H 	 -34.6695 	 73.5798 	 151.29
| 13> C 	 -33.7428 	 76.3103 	 151.828
| 14> H 	 -33.8917 	 77.2178 	 151.278
| 15> H 	 -33.237 	 75.6044 	 151.07
| 16> C 	 -32.8738 	 76.56 	 153.082
| 17> H 	 -33.3053 	 77.4805 	 153.464
| 18> H 	 -33.1598 	 75.747 	 153.81
| 19> C 	 -31.4134 	 76.6221 	 152.8
| 20> H 	 -31.0777 	 77.6091 	 152.467
| 21> H 	 -30.9283 	 76.3963 	 153.728
| 22> H 	 -30.9213 	 75.8308 	 152.177
| 23> S 	 -38.8905 	 72.5753 	 151.133
| 24> C 	 -38.917 	 70.8413 	 151.266
| 25> C 	 -37.6951 	 70.4187 	 151.798
| 26> C 	 -36.8112 	 71.4253 	 152.245
| 27> C 	 -37.2406 	 72.6813 	 151.829
| 28> H 	 -37.7264 	 69.3406 	 151.93
| 29> C 	 -35.5241 	 71.0612 	 152.834
| 30> H 	 -35.0392 	 71.8847 	 153.399
| 31> H 	 -34.9025 	 70.789 	 152.012
| 32> C 	 -35.4175 	 69.9161 	 153.883
| 33> H 	 -34.4138 	 69.5959 	 154.013
| 34> H 	 -36.0254 	 69.017 	 153.576
| 35> C 	 -35.895 	 70.4399 	 155.196
| 36> H 	 -35.4099 	 71.2873 	 155.527
| 37> H 	 -35.9115 	 69.6755 	 155.986
| 38> H 	 -36.9572 	 70.8309 	 155.262
| 39> H 	 -36.0845 	 77.3496 	 152.979
| 40> H 	 -39.7696 	 70.1631 	 151.028
| 41> *
| 42>
| 43>                          ****END OF INPUT****

CARTESIAN COORDINATES (ANGSTROEM)
---------------------------------
  S    -37.411100   75.344800  152.702000
  C    -36.094200   76.331800  152.663000
  C    -35.064300   75.679800  152.077000
  C    -35.322400   74.286400  151.677000
  C    -36.618000   73.976000  151.981000
  H    -34.669500   73.579800  151.290000
  C    -33.742800   76.310300  151.828000
  H    -33.891700   77.217800  151.278000
  H    -33.237000   75.604400  151.070000
  C    -32.873800   76.560000  153.082000
  H    -33.305300   77.480500  153.464000
  H    -33.159800   75.747000  153.810000
  C    -31.413400   76.622100  152.800000
  H    -31.077700   77.609100  152.467000
  H    -30.928300   76.396300  153.728000
  H    -30.921300   75.830800  152.177000
  S    -38.890500   72.575300  151.133000
  C    -38.917000   70.841300  151.266000
  C    -37.695100   70.418700  151.798000
  C    -36.811200   71.425300  152.245000
  C    -37.240600   72.681300  151.829000
  H    -37.726400   69.340600  151.930000
  C    -35.524100   71.061200  152.834000
  H    -35.039200   71.884700  153.399000
  H    -34.902500   70.789000  152.012000
  C    -35.417500   69.916100  153.883000
  H    -34.413800   69.595900  154.013000
  H    -36.025400   69.017000  153.576000
  C    -35.895000   70.439900  155.196000
  H    -35.409900   71.287300  155.527000
  H    -35.911500   69.675500  155.986000
  H    -36.957200   70.830900  155.262000
  H    -36.084500   77.349600  152.979000
  H    -39.769600   70.163100  151.028000

 Total Charge           Charge          ....    0
 Multiplicity           Mult            ....    1
 Number of Electrons    NEL             ....  134
 Basis Dimension        Dim             ....  322

ORBITAL ENERGIES
----------------

  NO   OCC          E(Eh)            E(eV)
   0   2.0000     -88.963689     -2420.8250
   1   2.0000     -88.959228     -2420.7037
   2   2.0000     -10.328114      -281.0423
   3   2.0000     -10.323688      -280.9218
   4   2.0000     -10.320579      -280.8372
   5   2.0000     -10.304708      -280.4054
   6   2.0000     -10.301220      -280.3104
   7   2.0000     -10.293431      -280.0985
   8   2.0000     -10.291327      -280.0413
   9   2.0000     -10.290602      -280.0215
  10   2.0000     -10.289027      -279.9787
  11   2.0000     -10.288171      -279.9554
  12   2.0000     -10.287872      -279.9472
  13   2.0000     -10.283838      -279.8375
  14   2.0000     -10.278057      -279.6802
  15   2.0000     -10.269465      -279.4464
  16   2.0000      -8.077912      -219.8112
  17   2.0000      -8.076553      -219.7742
  18   2.0000      -6.036427      -164.2595
  19   2.0000      -6.034896      -164.2179
  20   2.0000      -6.032421      -164.1505
  21   2.0000      -6.030570      -164.1001
  22   2.0000      -6.028767      -164.0511
  23   2.0000      -6.027422      -164.0145
  24   2.0000      -1.014944       -27.6180
  25   2.0000      -0.989074       -26.9141
  26   2.0000      -0.916509       -24.9395
  27   2.0000      -0.912039       -24.8179
  28   2.0000      -0.877871       -23.8881
  29   2.0000      -0.855514       -23.2797
  30   2.0000      -0.850589       -23.1457
  31   2.0000      -0.817342       -22.2410
  32   2.0000      -0.782239       -21.2858
  33   2.0000      -0.768557       -20.9135
  34   2.0000      -0.710359       -19.3298
  35   2.0000      -0.701604       -19.0916
  36   2.0000      -0.696222       -18.9452
  37   2.0000      -0.661650       -18.0044
  38   2.0000      -0.645660       -17.5693
  39   2.0000      -0.617548       -16.8043
  40   2.0000      -0.600236       -16.3333
  41   2.0000      -0.569353       -15.4929
  42   2.0000      -0.563121       -15.3233
  43   2.0000      -0.560560       -15.2536
  44   2.0000      -0.535685       -14.5767
  45   2.0000      -0.528123       -14.3709
  46   2.0000      -0.522398       -14.2152
  47   2.0000      -0.520536       -14.1645
  48   2.0000      -0.509827       -13.8731
  49   2.0000      -0.505978       -13.7684
  50   2.0000      -0.496253       -13.5037
  51   2.0000      -0.482015       -13.1163
  52   2.0000      -0.473000       -12.8710
  53   2.0000      -0.468112       -12.7380
  54   2.0000      -0.458091       -12.4653
  55   2.0000      -0.451527       -12.2867
  56   2.0000      -0.442052       -12.0288
  57   2.0000      -0.429864       -11.6972
  58   2.0000      -0.421940       -11.4816
  59   2.0000      -0.418782       -11.3956
  60   2.0000      -0.416409       -11.3311
  61   2.0000      -0.411619       -11.2007
  62   2.0000      -0.409250       -11.1363
  63   2.0000      -0.352535        -9.5930
  64   2.0000      -0.329105        -8.9554
  65   2.0000      -0.322810        -8.7841
  66   2.0000      -0.291518        -7.9326
  67   0.0000       0.031911         0.8683
  68   0.0000       0.078064         2.1242
  69   0.0000       0.122025         3.3205
  70   0.0000       0.127107         3.4587
  71   0.0000       0.129157         3.5145

MULLIKEN ATOMIC CHARGES
-----------------------
   0 S :    0.121924
   1 C :   -0.098012
   2 C :   -0.113209
   3 C :    0.048661
   4 C :   -0.134986
   5 H :   -0.009096
   6 C :    0.030770
   7 H :    0.026157
   8 H :    0.020487
   9 C :   -0.070733
  10 H :    0.026297
  11 H :    0.040607
  12 C :   -0.030446
  13 H :    0.037215
  14 H :    0.020782
  15 H :    0.035140
  16 S :    0.103328
  17 C :   -0.125012
  18 C :   -0.055438
  19 C :    0.031304
  20 C :   -0.170587
  21 H :    0.021724
  22 C :    0.014165
  23 H :    0.031702
  24 H :    0.040052
  25 C :   -0.033066
  26 H :    0.023629
  27 H :    0.032828
  28 C :   -0.056122
  29 H :    0.008407
  30 H :    0.029375
  31 H :    0.032858
  32 H :    0.040843
  33 H :    0.078451
Sum of atomic charges:   -0.0000000

LOEWDIN ATOMIC CHARGES
----------------------
   0 S :    0.447870
   1 C :   -0.225667
   2 C :   -0.069398
   3 C :   -0.050079
   4 C :   -0.197552
   5 H :    0.022412
   6 C :   -0.042662
   7 H :    0.024301
   8 H :    0.031016
   9 C :   -0.043584
  10 H :    0.025580
  11 H :    0.030359
  12 C :   -0.072853
  13 H :    0.028293
  14 H :    0.027000
  15 H :    0.032840
  16 S :    0.391713
  17 C :   -0.195246
  18 C :   -0.079298
  19 C :   -0.053921
  20 C :   -0.186058
  21 H :    0.031367
  22 C :   -0.034758
  23 H :    0.036003
  24 H :    0.032877
  25 C :   -0.034346
  26 H :    0.023622
  27 H :    0.027117
  28 C :   -0.072277
  29 H :    0.012309
  30 H :    0.025600
  31 H :    0.035115
  32 H :    0.029589
  33 H :    0.042716

  Mayer bond orders larger than 0.100000
B(  0-S ,  1-C ) :   1.1500 B(  0-S ,  4-C ) :   1.1673 B(  1-C ,  2-C ) :   1.5930
B(  1-C , 32-H ) :   0.9791 B(  2-C ,  3-C ) :   1.2236 B(  2-C ,  6-C ) :   1.0364
B(  3-C ,  4-C ) :   1.5551 B(  3-C ,  5-H ) :   1.0144 B(  4-C , 20-C ) :   1.0579
B(  6-C ,  7-H ) :   0.9389 B(  6-C ,  8-H ) :   0.9500 B(  6-C ,  9-C ) :   1.0372
B(  9-C , 10-H ) :   0.9497 B(  9-C , 11-H ) :   0.9648 B(  9-C , 12-C ) :   1.0888
B( 12-C , 13-H ) :   0.9726 B( 12-C , 14-H ) :   0.9701 B( 12-C , 15-H ) :   0.9729
B( 16-S , 17-C ) :   1.1586 B( 16-S , 20-C ) :   1.1352 B( 17-C , 18-C ) :   1.6136
B( 17-C , 20-C ) :   0.1065 B( 17-C , 33-H ) :   0.9618 B( 18-C , 19-C ) :   1.2190
B( 18-C , 21-H ) :   0.9863 B( 19-C , 20-C ) :   1.5633 B( 19-C , 22-C ) :   1.0596
B( 22-C , 23-H ) :   0.9317 B( 22-C , 24-H ) :   0.9282 B( 22-C , 25-C ) :   1.0791
B( 25-C , 26-H ) :   0.9489 B( 25-C , 27-H ) :   0.9514 B( 25-C , 28-C ) :   1.0806
B( 28-C , 29-H ) :   0.9707 B( 28-C , 30-H ) :   0.9722 B( 28-C , 31-H ) :   0.9723

Dispersion correction           -0.013948928
FINAL SINGLE POINT ENERGY     -1339.862329199645

DIPOLE MOMENT
-------------
                                X             Y             Z
Electronic contribution:    -25.82189       2.94972     -10.90110
Nuclear contribution   :     26.44360      -3.16577      11.11633
                        -----------------------------------------
Total Dipole Moment    :      0.62171      -0.21605       0.21523
                        -----------------------------------------
Magnitude (a.u.)       :      0.69247
Magnitude (Debye)      :      1.76013

Rotational constants in cm-1:     0.019528     0.008238     0.006498
Rotational constants in MHz :   585.433448   246.959653   194.800457

                             ****ORCA TERMINATED NORMALLY****
TOTAL RUN TIME: 0 days 0 hours 0 minutes 32 seconds 176 msec
