                         Program Version 4.2.1 -  RELEASE  -
|  1> ! wB97X-D3 SP def2-SVP
|  2> %pal
|  3> nprocs 16
|  4> end
|  5>
|  6> * xyz 0 1
|  7> S 	 -95.6888 	 49.0804 	 125.17
|  8> C 	 -96.6159 	 48.8263 	 123.765
|  9> C 	 -96.0525 	 49.2928 	 122.612
| 10> C 	 -94.7884 	 49.8766 	 122.96
| 11> C 	 -94.5712 	 50.009 	 124.265
| 12> H 	 -94.0937 	 50.286 	 122.28
| 13> C 	 -96.594 	 49.3613 	 121.177
| 14> H 	 -96.1943 	 50.2613 	 120.809
| 15> H 	 -97.6037 	 49.6074 	 121.334
| 16> C 	 -96.4903 	 48.1323 	 120.261
| 17> H 	 -96.8806 	 48.3978 	 119.335
| 18> H 	 -95.4115 	 48.0413 	 120.004
| 19> C 	 -97.117 	 46.8359 	 120.793
| 20> H 	 -96.7803 	 45.986 	 120.284
| 21> H 	 -96.8736 	 46.6619 	 121.849
| 22> H 	 -98.2503 	 46.7787 	 120.858
| 23> S 	 -93.0322 	 52.2722 	 124.737
| 24> C 	 -91.46 	 51.9824 	 125.464
| 25> C 	 -91.103 	 50.6818 	 125.467
| 26> C 	 -92.171 	 49.8291 	 125.181
| 27> C 	 -93.3194 	 50.5751 	 124.753
| 28> H 	 -90.0962 	 50.2751 	 125.653
| 29> C 	 -92.1103 	 48.3037 	 125.159
| 30> H 	 -92.9619 	 47.9951 	 125.731
| 31> H 	 -91.3519 	 47.8412 	 125.769
| 32> C 	 -92.098 	 47.6088 	 123.797
| 33> H 	 -91.246 	 47.9725 	 123.218
| 34> H 	 -93.0128 	 47.7469 	 123.145
| 35> C 	 -92.0383 	 46.1016 	 123.89
| 36> H 	 -92.9956 	 45.8425 	 124.365
| 37> H 	 -91.2453 	 45.7795 	 124.586
| 38> H 	 -91.9377 	 45.5336 	 122.958
| 39> H 	 -97.6594 	 48.4167 	 123.747
| 40> H 	 -90.7505 	 52.8131 	 125.676
| 41> *
| 42>
| 43>                          ****END OF INPUT****

CARTESIAN COORDINATES (ANGSTROEM)
---------------------------------
  S    -95.688800   49.080400  125.170000
  C    -96.615900   48.826300  123.765000
  C    -96.052500   49.292800  122.612000
  C    -94.788400   49.876600  122.960000
  C    -94.571200   50.009000  124.265000
  H    -94.093700   50.286000  122.280000
  C    -96.594000   49.361300  121.177000
  H    -96.194300   50.261300  120.809000
  H    -97.603700   49.607400  121.334000
  C    -96.490300   48.132300  120.261000
  H    -96.880600   48.397800  119.335000
  H    -95.411500   48.041300  120.004000
  C    -97.117000   46.835900  120.793000
  H    -96.780300   45.986000  120.284000
  H    -96.873600   46.661900  121.849000
  H    -98.250300   46.778700  120.858000
  S    -93.032200   52.272200  124.737000
  C    -91.460000   51.982400  125.464000
  C    -91.103000   50.681800  125.467000
  C    -92.171000   49.829100  125.181000
  C    -93.319400   50.575100  124.753000
  H    -90.096200   50.275100  125.653000
  C    -92.110300   48.303700  125.159000
  H    -92.961900   47.995100  125.731000
  H    -91.351900   47.841200  125.769000
  C    -92.098000   47.608800  123.797000
  H    -91.246000   47.972500  123.218000
  H    -93.012800   47.746900  123.145000
  C    -92.038300   46.101600  123.890000
  H    -92.995600   45.842500  124.365000
  H    -91.245300   45.779500  124.586000
  H    -91.937700   45.533600  122.958000
  H    -97.659400   48.416700  123.747000
  H    -90.750500   52.813100  125.676000

 Total Charge           Charge          ....    0
 Multiplicity           Mult            ....    1
 Number of Electrons    NEL             ....  134
 Basis Dimension        Dim             ....  322

ORBITAL ENERGIES
----------------

  NO   OCC          E(Eh)            E(eV)
   0   2.0000     -88.969727     -2420.9893
   1   2.0000     -88.965828     -2420.8833
   2   2.0000     -10.322393      -280.8866
   3   2.0000     -10.313775      -280.6521
   4   2.0000     -10.313502      -280.6447
   5   2.0000     -10.310338      -280.5586
   6   2.0000     -10.300261      -280.2843
   7   2.0000     -10.295910      -280.1660
   8   2.0000     -10.289099      -279.9806
   9   2.0000     -10.289050      -279.9793
  10   2.0000     -10.286831      -279.9189
  11   2.0000     -10.286715      -279.9157
  12   2.0000     -10.282284      -279.7952
  13   2.0000     -10.280238      -279.7395
  14   2.0000     -10.279467      -279.7185
  15   2.0000     -10.274345      -279.5791
  16   2.0000      -8.084543      -219.9916
  17   2.0000      -8.081874      -219.9190
  18   2.0000      -6.042858      -164.4345
  19   2.0000      -6.040326      -164.3656
  20   2.0000      -6.039140      -164.3333
  21   2.0000      -6.036276      -164.2554
  22   2.0000      -6.035427      -164.2323
  23   2.0000      -6.032542      -164.1538
  24   2.0000      -1.016562       -27.6621
  25   2.0000      -0.991452       -26.9788
  26   2.0000      -0.912362       -24.8266
  27   2.0000      -0.907284       -24.6885
  28   2.0000      -0.872688       -23.7470
  29   2.0000      -0.853792       -23.2329
  30   2.0000      -0.850572       -23.1452
  31   2.0000      -0.814084       -22.1523
  32   2.0000      -0.789785       -21.4911
  33   2.0000      -0.768985       -20.9252
  34   2.0000      -0.713279       -19.4093
  35   2.0000      -0.697481       -18.9794
  36   2.0000      -0.686473       -18.6799
  37   2.0000      -0.657968       -17.9042
  38   2.0000      -0.643493       -17.5103
  39   2.0000      -0.617431       -16.8012
  40   2.0000      -0.600255       -16.3338
  41   2.0000      -0.566873       -15.4254
  42   2.0000      -0.562589       -15.3088
  43   2.0000      -0.549689       -14.9578
  44   2.0000      -0.543621       -14.7927
  45   2.0000      -0.524750       -14.2792
  46   2.0000      -0.516074       -14.0431
  47   2.0000      -0.512537       -13.9468
  48   2.0000      -0.499929       -13.6038
  49   2.0000      -0.494945       -13.4681
  50   2.0000      -0.482636       -13.1332
  51   2.0000      -0.480889       -13.0857
  52   2.0000      -0.468435       -12.7468
  53   2.0000      -0.466230       -12.6868
  54   2.0000      -0.454323       -12.3628
  55   2.0000      -0.449307       -12.2263
  56   2.0000      -0.447471       -12.1763
  57   2.0000      -0.444991       -12.1088
  58   2.0000      -0.437106       -11.8943
  59   2.0000      -0.430534       -11.7154
  60   2.0000      -0.421911       -11.4808
  61   2.0000      -0.413383       -11.2487
  62   2.0000      -0.408563       -11.1176
  63   2.0000      -0.341645        -9.2966
  64   2.0000      -0.334270        -9.0960
  65   2.0000      -0.324546        -8.8313
  66   2.0000      -0.297025        -8.0825
  67   0.0000       0.044220         1.2033
  68   0.0000       0.062174         1.6919
  69   0.0000       0.111076         3.0225
  70   0.0000       0.125271         3.4088
  71   0.0000       0.133347         3.6286

MULLIKEN ATOMIC CHARGES
-----------------------
   0 S :    0.130321
   1 C :   -0.146426
   2 C :   -0.098473
   3 C :    0.017845
   4 C :   -0.147490
   5 H :   -0.005099
   6 C :    0.116372
   7 H :    0.007641
   8 H :    0.005007
   9 C :   -0.006860
  10 H :    0.013851
  11 H :    0.024982
  12 C :   -0.052686
  13 H :    0.026532
  14 H :    0.028164
  15 H :    0.033606
  16 S :    0.130202
  17 C :   -0.107026
  18 C :   -0.026804
  19 C :   -0.031974
  20 C :   -0.197185
  21 H :    0.024237
  22 C :    0.106336
  23 H :    0.003618
  24 H :    0.004048
  25 C :   -0.080863
  26 H :    0.023513
  27 H :    0.049488
  28 C :   -0.055862
  29 H :    0.026330
  30 H :    0.020869
  31 H :    0.041999
  32 H :    0.055824
  33 H :    0.065962
Sum of atomic charges:   -0.0000000

LOEWDIN ATOMIC CHARGES
----------------------
   0 S :    0.437711
   1 C :   -0.217683
   2 C :   -0.064367
   3 C :   -0.055267
   4 C :   -0.214273
   5 H :    0.022500
   6 C :   -0.023217
   7 H :    0.027214
   8 H :    0.025758
   9 C :   -0.032511
  10 H :    0.017590
  11 H :    0.030138
  12 C :   -0.069301
  13 H :    0.020490
  14 H :    0.027377
  15 H :    0.032372
  16 S :    0.427597
  17 C :   -0.194881
  18 C :   -0.073133
  19 C :   -0.053023
  20 C :   -0.207800
  21 H :    0.038796
  22 C :   -0.036772
  23 H :    0.024650
  24 H :    0.028130
  25 C :   -0.045998
  26 H :    0.018817
  27 H :    0.034671
  28 C :   -0.068852
  29 H :    0.026583
  30 H :    0.019224
  31 H :    0.028104
  32 H :    0.035363
  33 H :    0.033993

  Mayer bond orders larger than 0.100000
B(  0-S ,  1-C ) :   1.1522 B(  0-S ,  4-C ) :   1.1370 B(  1-C ,  2-C ) :   1.6266
B(  1-C , 32-H ) :   0.9531 B(  2-C ,  3-C ) :   1.2283 B(  2-C ,  6-C ) :   0.9955
B(  3-C ,  4-C ) :   1.6160 B(  3-C ,  5-H ) :   0.9983 B(  4-C , 20-C ) :   1.0136
B(  6-C ,  7-H ) :   0.9381 B(  6-C ,  8-H ) :   0.9319 B(  6-C ,  9-C ) :   1.0742
B(  9-C , 10-H ) :   0.9506 B(  9-C , 11-H ) :   0.9532 B(  9-C , 12-C ) :   1.0701
B( 12-C , 13-H ) :   0.9740 B( 12-C , 14-H ) :   0.9726 B( 12-C , 15-H ) :   0.9742
B( 16-S , 17-C ) :   1.1551 B( 16-S , 20-C ) :   1.1788 B( 17-C , 18-C ) :   1.5832
B( 17-C , 20-C ) :   0.1037 B( 17-C , 33-H ) :   0.9610 B( 18-C , 19-C ) :   1.2989
B( 18-C , 21-H ) :   0.9841 B( 19-C , 20-C ) :   1.5419 B( 19-C , 22-C ) :   1.0381
B( 22-C , 23-H ) :   0.9150 B( 22-C , 24-H ) :   0.9324 B( 22-C , 25-C ) :   1.0574
B( 25-C , 26-H ) :   0.9560 B( 25-C , 27-H ) :   0.9518 B( 25-C , 28-C ) :   1.0779
B( 28-C , 29-H ) :   0.9763 B( 28-C , 30-H ) :   0.9724 B( 28-C , 31-H ) :   0.9737

Dispersion correction           -0.015600483
FINAL SINGLE POINT ENERGY     -1339.866772945008

DIPOLE MOMENT
-------------
                                X             Y             Z
Electronic contribution:      0.99862      21.90322      16.20523
Nuclear contribution   :     -0.91029     -22.18507     -16.70872
                        -----------------------------------------
Total Dipole Moment    :      0.08833      -0.28184      -0.50349
                        -----------------------------------------
Magnitude (a.u.)       :      0.58373
Magnitude (Debye)      :      1.48373

Rotational constants in cm-1:     0.020047     0.009023     0.007557
Rotational constants in MHz :   601.002566   270.515454   226.556638

                             ****ORCA TERMINATED NORMALLY****
TOTAL RUN TIME: 0 days 0 hours 0 minutes 35 seconds 952 msec
