                         Program Version 4.2.1 -  RELEASE  -
|  1> ! wB97X-D3 SP def2-SVP
|  2> %pal
|  3> nprocs 16
|  4> end
|  5>
|  6> * xyz 0 1
|  7> S 	 37.5182 	 32.072 	 53.6962
|  8> C 	 35.9132 	 31.905 	 52.9909
|  9> C 	 34.9063 	 31.7755 	 53.9302
| 10> C 	 35.4363 	 31.501 	 55.2061
| 11> C 	 36.8002 	 31.6808 	 55.2829
| 12> H 	 34.9757 	 31.3638 	 56.187
| 13> C 	 33.4025 	 31.9109 	 53.6997
| 14> H 	 33.1735 	 32.1882 	 52.6161
| 15> H 	 33.0928 	 32.7667 	 54.3153
| 16> C 	 32.5156 	 30.6936 	 53.9572
| 17> H 	 32.7708 	 29.9792 	 53.1326
| 18> H 	 32.7379 	 30.2497 	 54.9755
| 19> C 	 31.054 	 31.0165 	 53.9988
| 20> H 	 30.9236 	 31.7748 	 54.7796
| 21> H 	 30.6214 	 31.3995 	 53.0506
| 22> H 	 30.5233 	 30.1504 	 54.2097
| 23> S 	 39.2768 	 32.113 	 56.4834
| 24> C 	 39.4764 	 31.7261 	 58.1565
| 25> C 	 38.4244 	 30.9223 	 58.6693
| 26> C 	 37.3322 	 30.9998 	 57.7229
| 27> C 	 37.6335 	 31.5958 	 56.5016
| 28> H 	 38.4312 	 30.5189 	 59.6567
| 29> C 	 35.9836 	 30.6238 	 58.2917
| 30> H 	 36.2076 	 29.992 	 59.1321
| 31> H 	 35.4895 	 29.9758 	 57.5834
| 32> C 	 34.9625 	 31.7841 	 58.6971
| 33> H 	 34.6058 	 32.3326 	 57.8677
| 34> H 	 35.3991 	 32.5519 	 59.3454
| 35> C 	 33.6513 	 31.2427 	 59.2944
| 36> H 	 32.9806 	 32.0237 	 59.6425
| 37> H 	 33.949 	 30.7309 	 60.1688
| 38> H 	 33.1259 	 30.6338 	 58.6295
| 39> H 	 35.7563 	 32.0439 	 51.9518
| 40> H 	 40.3129 	 31.9933 	 58.79
| 41> *
| 42>
| 43>                          ****END OF INPUT****

CARTESIAN COORDINATES (ANGSTROEM)
---------------------------------
  S     37.518200   32.072000   53.696200
  C     35.913200   31.905000   52.990900
  C     34.906300   31.775500   53.930200
  C     35.436300   31.501000   55.206100
  C     36.800200   31.680800   55.282900
  H     34.975700   31.363800   56.187000
  C     33.402500   31.910900   53.699700
  H     33.173500   32.188200   52.616100
  H     33.092800   32.766700   54.315300
  C     32.515600   30.693600   53.957200
  H     32.770800   29.979200   53.132600
  H     32.737900   30.249700   54.975500
  C     31.054000   31.016500   53.998800
  H     30.923600   31.774800   54.779600
  H     30.621400   31.399500   53.050600
  H     30.523300   30.150400   54.209700
  S     39.276800   32.113000   56.483400
  C     39.476400   31.726100   58.156500
  C     38.424400   30.922300   58.669300
  C     37.332200   30.999800   57.722900
  C     37.633500   31.595800   56.501600
  H     38.431200   30.518900   59.656700
  C     35.983600   30.623800   58.291700
  H     36.207600   29.992000   59.132100
  H     35.489500   29.975800   57.583400
  C     34.962500   31.784100   58.697100
  H     34.605800   32.332600   57.867700
  H     35.399100   32.551900   59.345400
  C     33.651300   31.242700   59.294400
  H     32.980600   32.023700   59.642500
  H     33.949000   30.730900   60.168800
  H     33.125900   30.633800   58.629500
  H     35.756300   32.043900   51.951800
  H     40.312900   31.993300   58.790000

 Total Charge           Charge          ....    0
 Multiplicity           Mult            ....    1
 Number of Electrons    NEL             ....  134
 Basis Dimension        Dim             ....  322

ORBITAL ENERGIES
----------------

  NO   OCC          E(Eh)            E(eV)
   0   2.0000     -88.970320     -2421.0055
   1   2.0000     -88.966843     -2420.9109
   2   2.0000     -10.332823      -281.1704
   3   2.0000     -10.326736      -281.0048
   4   2.0000     -10.320550      -280.8365
   5   2.0000     -10.310943      -280.5750
   6   2.0000     -10.304049      -280.3874
   7   2.0000     -10.302782      -280.3530
   8   2.0000     -10.299040      -280.2511
   9   2.0000     -10.298319      -280.2315
  10   2.0000     -10.295352      -280.1508
  11   2.0000     -10.291678      -280.0508
  12   2.0000     -10.290309      -280.0136
  13   2.0000     -10.289005      -279.9781
  14   2.0000     -10.275545      -279.6118
  15   2.0000     -10.272329      -279.5243
  16   2.0000      -8.085594      -220.0202
  17   2.0000      -8.080883      -219.8920
  18   2.0000      -6.044057      -164.4671
  19   2.0000      -6.040093      -164.3593
  20   2.0000      -6.039459      -164.3420
  21   2.0000      -6.036328      -164.2568
  22   2.0000      -6.035760      -164.2414
  23   2.0000      -6.031392      -164.1225
  24   2.0000      -1.007286       -27.4096
  25   2.0000      -0.983899       -26.7733
  26   2.0000      -0.912930       -24.8421
  27   2.0000      -0.907944       -24.7064
  28   2.0000      -0.868678       -23.6379
  29   2.0000      -0.860001       -23.4018
  30   2.0000      -0.850168       -23.1342
  31   2.0000      -0.814273       -22.1575
  32   2.0000      -0.783626       -21.3235
  33   2.0000      -0.771509       -20.9938
  34   2.0000      -0.711828       -19.3698
  35   2.0000      -0.694212       -18.8905
  36   2.0000      -0.691573       -18.8187
  37   2.0000      -0.670149       -18.2357
  38   2.0000      -0.641510       -17.4564
  39   2.0000      -0.621324       -16.9071
  40   2.0000      -0.591738       -16.1020
  41   2.0000      -0.574829       -15.6419
  42   2.0000      -0.568489       -15.4694
  43   2.0000      -0.563249       -15.3268
  44   2.0000      -0.531236       -14.4557
  45   2.0000      -0.524904       -14.2834
  46   2.0000      -0.519484       -14.1359
  47   2.0000      -0.514562       -14.0019
  48   2.0000      -0.501284       -13.6406
  49   2.0000      -0.498354       -13.5609
  50   2.0000      -0.494229       -13.4487
  51   2.0000      -0.484924       -13.1955
  52   2.0000      -0.477123       -12.9832
  53   2.0000      -0.465351       -12.6629
  54   2.0000      -0.462894       -12.5960
  55   2.0000      -0.454403       -12.3649
  56   2.0000      -0.440112       -11.9760
  57   2.0000      -0.437206       -11.8970
  58   2.0000      -0.429829       -11.6962
  59   2.0000      -0.428705       -11.6657
  60   2.0000      -0.424273       -11.5451
  61   2.0000      -0.419820       -11.4239
  62   2.0000      -0.415339       -11.3020
  63   2.0000      -0.358973        -9.7681
  64   2.0000      -0.335964        -9.1421
  65   2.0000      -0.327754        -8.9186
  66   2.0000      -0.276668        -7.5285
  67   0.0000       0.021649         0.5891
  68   0.0000       0.074105         2.0165
  69   0.0000       0.099443         2.7060
  70   0.0000       0.115023         3.1299
  71   0.0000       0.125440         3.4134

MULLIKEN ATOMIC CHARGES
-----------------------
   0 S :    0.092490
   1 C :   -0.111731
   2 C :   -0.033659
   3 C :   -0.006941
   4 C :   -0.110697
   5 H :   -0.014924
   6 C :    0.035236
   7 H :    0.024635
   8 H :    0.034968
   9 C :   -0.112032
  10 H :    0.041529
  11 H :    0.036515
  12 C :   -0.010883
  13 H :    0.026586
  14 H :    0.028717
  15 H :    0.023811
  16 S :    0.118224
  17 C :   -0.098948
  18 C :   -0.017378
  19 C :   -0.091360
  20 C :   -0.096487
  21 H :    0.020891
  22 C :    0.051915
  23 H :    0.008693
  24 H :    0.023625
  25 C :   -0.060293
  26 H :    0.021937
  27 H :    0.031137
  28 C :   -0.016668
  29 H :    0.032780
  30 H :    0.018031
  31 H :    0.019426
  32 H :    0.032531
  33 H :    0.058324
Sum of atomic charges:   -0.0000000

LOEWDIN ATOMIC CHARGES
----------------------
   0 S :    0.373493
   1 C :   -0.185935
   2 C :   -0.058586
   3 C :   -0.074189
   4 C :   -0.161931
   5 H :    0.034383
   6 C :   -0.036577
   7 H :    0.034846
   8 H :    0.031587
   9 C :   -0.048260
  10 H :    0.030168
  11 H :    0.027095
  12 C :   -0.060522
  13 H :    0.026799
  14 H :    0.026303
  15 H :    0.019035
  16 S :    0.427480
  17 C :   -0.189154
  18 C :   -0.061781
  19 C :   -0.058965
  20 C :   -0.211193
  21 H :    0.030056
  22 C :   -0.032729
  23 H :    0.027746
  24 H :    0.025459
  25 C :   -0.034213
  26 H :    0.014814
  27 H :    0.027649
  28 C :   -0.054053
  29 H :    0.029915
  30 H :    0.018827
  31 H :    0.015545
  32 H :    0.018179
  33 H :    0.028710

  Mayer bond orders larger than 0.100000
B(  0-S ,  1-C ) :   1.1238 B(  0-S ,  4-C ) :   1.1276 B(  1-C ,  2-C ) :   1.6269
B(  1-C , 32-H ) :   0.9698 B(  2-C ,  3-C ) :   1.2102 B(  2-C ,  6-C ) :   1.0232
B(  3-C ,  4-C ) :   1.6098 B(  3-C ,  5-H ) :   0.9783 B(  4-C , 20-C ) :   1.0828
B(  6-C ,  7-H ) :   0.9425 B(  6-C ,  8-H ) :   0.9384 B(  6-C ,  9-C ) :   1.0612
B(  9-C , 10-H ) :   0.9532 B(  9-C , 11-H ) :   0.9545 B(  9-C , 12-C ) :   1.0875
B( 12-C , 13-H ) :   0.9721 B( 12-C , 14-H ) :   0.9718 B( 12-C , 15-H ) :   0.9709
B( 16-S , 17-C ) :   1.1778 B( 16-S , 20-C ) :   1.1278 B( 17-C , 18-C ) :   1.5834
B( 17-C , 33-H ) :   0.9671 B( 18-C , 19-C ) :   1.2645 B( 18-C , 21-H ) :   0.9909
B( 19-C , 20-C ) :   1.5639 B( 19-C , 22-C ) :   1.0569 B( 22-C , 23-H ) :   0.9333
B( 22-C , 24-H ) :   0.9232 B( 22-C , 25-C ) :   1.0454 B( 25-C , 26-H ) :   0.9529
B( 25-C , 27-H ) :   0.9540 B( 25-C , 28-C ) :   1.0795 B( 28-C , 29-H ) :   0.9721
B( 28-C , 30-H ) :   0.9778 B( 28-C , 31-H ) :   0.9757

Dispersion correction           -0.014107984
FINAL SINGLE POINT ENERGY     -1339.866072626619

DIPOLE MOMENT
-------------
                                X             Y             Z
Electronic contribution:     33.24175       5.01158      -8.55399
Nuclear contribution   :    -33.87420      -5.04790       9.03153
                        -----------------------------------------
Total Dipole Moment    :     -0.63244      -0.03631       0.47753
                        -----------------------------------------
Magnitude (a.u.)       :      0.79331
Magnitude (Debye)      :      2.01643

Rotational constants in cm-1:     0.017749     0.009575     0.006431
Rotational constants in MHz :   532.087909   287.047006   192.789213

                             ****ORCA TERMINATED NORMALLY****
TOTAL RUN TIME: 0 days 0 hours 0 minutes 33 seconds 634 msec
