                         Program Version 4.2.1 -  RELEASE  -
|  1> ! wB97X-D3 SP def2-SVP
|  2> %pal
|  3> nprocs 16
|  4> end
|  5>
|  6> * xyz 0 1
|  7> S 	 -54.4369 	 32.4987 	 91.3469
|  8> C 	 -56.1683 	 32.3561 	 91.3273
|  9> C 	 -56.7913 	 32.9849 	 92.39
| 10> C 	 -55.8564 	 33.7958 	 93.0694
| 11> C 	 -54.5413 	 33.7378 	 92.6027
| 12> H 	 -56.1264 	 34.4688 	 93.8501
| 13> C 	 -58.275 	 33.0041 	 92.6418
| 14> H 	 -58.6445 	 33.1447 	 91.5859
| 15> H 	 -58.6408 	 33.962 	 93.0387
| 16> C 	 -58.9494 	 31.8467 	 93.3073
| 17> H 	 -58.2526 	 31.1045 	 93.602
| 18> H 	 -59.3202 	 32.1972 	 94.2705
| 19> C 	 -59.8798 	 31.212 	 92.2838
| 20> H 	 -60.1511 	 30.3004 	 92.8418
| 21> H 	 -60.8019 	 31.7852 	 92.0964
| 22> H 	 -59.3795 	 30.7627 	 91.3774
| 23> S 	 -51.9079 	 33.5289 	 93.5681
| 24> C 	 -51.182 	 34.9165 	 94.3907
| 25> C 	 -51.9634 	 36.0472 	 94.3297
| 26> C 	 -53.1981 	 35.7869 	 93.6854
| 27> C 	 -53.357 	 34.4881 	 93.1679
| 28> H 	 -51.7061 	 37.005 	 94.7666
| 29> C 	 -54.1625 	 36.913 	 93.5317
| 30> H 	 -53.9222 	 37.7353 	 94.2423
| 31> H 	 -55.2146 	 36.597 	 93.6363
| 32> C 	 -54.0642 	 37.637 	 92.126
| 33> H 	 -54.5802 	 36.9782 	 91.4167
| 34> H 	 -53.0012 	 37.593 	 91.858
| 35> C 	 -54.6628 	 39.0261 	 92.0564
| 36> H 	 -54.2813 	 39.4139 	 91.1054
| 37> H 	 -54.255 	 39.638 	 92.8923
| 38> H 	 -55.7354 	 39.1275 	 92.0347
| 39> H 	 -56.6608 	 31.5947 	 90.7194
| 40> H 	 -50.2302 	 34.9563 	 94.9292
| 41> *
| 42>
| 43>                          ****END OF INPUT****

CARTESIAN COORDINATES (ANGSTROEM)
---------------------------------
  S    -54.436900   32.498700   91.346900
  C    -56.168300   32.356100   91.327300
  C    -56.791300   32.984900   92.390000
  C    -55.856400   33.795800   93.069400
  C    -54.541300   33.737800   92.602700
  H    -56.126400   34.468800   93.850100
  C    -58.275000   33.004100   92.641800
  H    -58.644500   33.144700   91.585900
  H    -58.640800   33.962000   93.038700
  C    -58.949400   31.846700   93.307300
  H    -58.252600   31.104500   93.602000
  H    -59.320200   32.197200   94.270500
  C    -59.879800   31.212000   92.283800
  H    -60.151100   30.300400   92.841800
  H    -60.801900   31.785200   92.096400
  H    -59.379500   30.762700   91.377400
  S    -51.907900   33.528900   93.568100
  C    -51.182000   34.916500   94.390700
  C    -51.963400   36.047200   94.329700
  C    -53.198100   35.786900   93.685400
  C    -53.357000   34.488100   93.167900
  H    -51.706100   37.005000   94.766600
  C    -54.162500   36.913000   93.531700
  H    -53.922200   37.735300   94.242300
  H    -55.214600   36.597000   93.636300
  C    -54.064200   37.637000   92.126000
  H    -54.580200   36.978200   91.416700
  H    -53.001200   37.593000   91.858000
  C    -54.662800   39.026100   92.056400
  H    -54.281300   39.413900   91.105400
  H    -54.255000   39.638000   92.892300
  H    -55.735400   39.127500   92.034700
  H    -56.660800   31.594700   90.719400
  H    -50.230200   34.956300   94.929200

 Total Charge           Charge          ....    0
 Multiplicity           Mult            ....    1
 Number of Electrons    NEL             ....  134
 Basis Dimension        Dim             ....  322

ORBITAL ENERGIES
----------------

  NO   OCC          E(Eh)            E(eV)
   0   2.0000     -88.968601     -2420.9587
   1   2.0000     -88.967623     -2420.9321
   2   2.0000     -10.336080      -281.2590
   3   2.0000     -10.334811      -281.2245
   4   2.0000     -10.320390      -280.8321
   5   2.0000     -10.312688      -280.6225
   6   2.0000     -10.302531      -280.3461
   7   2.0000     -10.298946      -280.2486
   8   2.0000     -10.293116      -280.0899
   9   2.0000     -10.290504      -280.0189
  10   2.0000     -10.290228      -280.0113
  11   2.0000     -10.288685      -279.9694
  12   2.0000     -10.286330      -279.9053
  13   2.0000     -10.283041      -279.8158
  14   2.0000     -10.281897      -279.7846
  15   2.0000     -10.278648      -279.6962
  16   2.0000      -8.083114      -219.9527
  17   2.0000      -8.081427      -219.9068
  18   2.0000      -6.041587      -164.3999
  19   2.0000      -6.040078      -164.3589
  20   2.0000      -6.037694      -164.2940
  21   2.0000      -6.036041      -164.2490
  22   2.0000      -6.033910      -164.1910
  23   2.0000      -6.032125      -164.1425
  24   2.0000      -1.001304       -27.2469
  25   2.0000      -0.983145       -26.7527
  26   2.0000      -0.918690       -24.9988
  27   2.0000      -0.903374       -24.5821
  28   2.0000      -0.865590       -23.5539
  29   2.0000      -0.851971       -23.1833
  30   2.0000      -0.849012       -23.1028
  31   2.0000      -0.812834       -22.1183
  32   2.0000      -0.779652       -21.2154
  33   2.0000      -0.767116       -20.8743
  34   2.0000      -0.706968       -19.2376
  35   2.0000      -0.699872       -19.0445
  36   2.0000      -0.684777       -18.6337
  37   2.0000      -0.664013       -18.0687
  38   2.0000      -0.640108       -17.4182
  39   2.0000      -0.620820       -16.8934
  40   2.0000      -0.593438       -16.1483
  41   2.0000      -0.579624       -15.7724
  42   2.0000      -0.562554       -15.3079
  43   2.0000      -0.548677       -14.9303
  44   2.0000      -0.530013       -14.4224
  45   2.0000      -0.518417       -14.1068
  46   2.0000      -0.517053       -14.0697
  47   2.0000      -0.509234       -13.8570
  48   2.0000      -0.507034       -13.7971
  49   2.0000      -0.494005       -13.4426
  50   2.0000      -0.490601       -13.3499
  51   2.0000      -0.481954       -13.1146
  52   2.0000      -0.479087       -13.0366
  53   2.0000      -0.465862       -12.6767
  54   2.0000      -0.461470       -12.5572
  55   2.0000      -0.452546       -12.3144
  56   2.0000      -0.444554       -12.0969
  57   2.0000      -0.439464       -11.9584
  58   2.0000      -0.425293       -11.5728
  59   2.0000      -0.418972       -11.4008
  60   2.0000      -0.417361       -11.3570
  61   2.0000      -0.413879       -11.2622
  62   2.0000      -0.398691       -10.8489
  63   2.0000      -0.349935        -9.5222
  64   2.0000      -0.333945        -9.0871
  65   2.0000      -0.328258        -8.9324
  66   2.0000      -0.285901        -7.7798
  67   0.0000       0.026162         0.7119
  68   0.0000       0.065975         1.7953
  69   0.0000       0.105191         2.8624
  70   0.0000       0.119994         3.2652
  71   0.0000       0.136543         3.7155

MULLIKEN ATOMIC CHARGES
-----------------------
   0 S :    0.111919
   1 C :   -0.124113
   2 C :   -0.066206
   3 C :    0.022949
   4 C :   -0.138959
   5 H :   -0.001267
   6 C :    0.003322
   7 H :    0.040189
   8 H :    0.019750
   9 C :   -0.016407
  10 H :    0.022557
  11 H :    0.031361
  12 C :   -0.083722
  13 H :    0.022636
  14 H :    0.052273
  15 H :    0.049194
  16 S :    0.095267
  17 C :   -0.085949
  18 C :   -0.027525
  19 C :   -0.058942
  20 C :   -0.121659
  21 H :    0.020512
  22 C :    0.040733
  23 H :    0.013677
  24 H :    0.026038
  25 C :   -0.091746
  26 H :    0.034399
  27 H :    0.031773
  28 C :   -0.037497
  29 H :    0.036215
  30 H :    0.030179
  31 H :    0.037229
  32 H :    0.050997
  33 H :    0.060826
Sum of atomic charges:   -0.0000000

LOEWDIN ATOMIC CHARGES
----------------------
   0 S :    0.405226
   1 C :   -0.201565
   2 C :   -0.064343
   3 C :   -0.059634
   4 C :   -0.190808
   5 H :    0.024334
   6 C :   -0.042899
   7 H :    0.042236
   8 H :    0.029740
   9 C :   -0.044678
  10 H :    0.023376
  11 H :    0.030026
  12 C :   -0.068991
  13 H :    0.026417
  14 H :    0.028835
  15 H :    0.034866
  16 S :    0.387262
  17 C :   -0.177793
  18 C :   -0.071406
  19 C :   -0.060009
  20 C :   -0.188316
  21 H :    0.034483
  22 C :   -0.037825
  23 H :    0.027077
  24 H :    0.027709
  25 C :   -0.039908
  26 H :    0.025731
  27 H :    0.024566
  28 C :   -0.067704
  29 H :    0.032980
  30 H :    0.026119
  31 H :    0.023812
  32 H :    0.026236
  33 H :    0.034850

  Mayer bond orders larger than 0.100000
B(  0-S ,  1-C ) :   1.1513 B(  0-S ,  4-C ) :   1.1534 B(  1-C ,  2-C ) :   1.5956
B(  1-C ,  4-C ) :   0.1024 B(  1-C , 32-H ) :   0.9615 B(  2-C ,  3-C ) :   1.2686
B(  2-C ,  6-C ) :   1.0142 B(  3-C ,  4-C ) :   1.5518 B(  3-C ,  5-H ) :   0.9986
B(  4-C , 20-C ) :   1.0252 B(  6-C ,  7-H ) :   0.9538 B(  6-C ,  8-H ) :   0.9444
B(  6-C ,  9-C ) :   1.0261 B(  9-C , 10-H ) :   0.9645 B(  9-C , 11-H ) :   0.9541
B(  9-C , 12-C ) :   1.0787 B( 12-C , 13-H ) :   0.9734 B( 12-C , 14-H ) :   0.9763
B( 12-C , 15-H ) :   0.9716 B( 16-S , 17-C ) :   1.1568 B( 16-S , 20-C ) :   1.1236
B( 17-C , 18-C ) :   1.6042 B( 17-C , 33-H ) :   0.9609 B( 18-C , 19-C ) :   1.2561
B( 18-C , 21-H ) :   0.9880 B( 19-C , 20-C ) :   1.5891 B( 19-C , 22-C ) :   1.0686
B( 22-C , 23-H ) :   0.9363 B( 22-C , 24-H ) :   0.9331 B( 22-C , 25-C ) :   1.0508
B( 25-C , 26-H ) :   0.9530 B( 25-C , 27-H ) :   0.9598 B( 25-C , 28-C ) :   1.0814
B( 28-C , 29-H ) :   0.9722 B( 28-C , 30-H ) :   0.9728 B( 28-C , 31-H ) :   0.9755

Dispersion correction           -0.013698144
FINAL SINGLE POINT ENERGY     -1339.865195446474

DIPOLE MOMENT
-------------
                                X             Y             Z
Electronic contribution:     23.18040     -11.95811       0.25288
Nuclear contribution   :    -23.71364      12.29339      -0.00331
                        -----------------------------------------
Total Dipole Moment    :     -0.53324       0.33528       0.24957
                        -----------------------------------------
Magnitude (a.u.)       :      0.67753
Magnitude (Debye)      :      1.72214

Rotational constants in cm-1:     0.019333     0.007593     0.006212
Rotational constants in MHz :   579.592285   227.624768   186.228401

                             ****ORCA TERMINATED NORMALLY****
TOTAL RUN TIME: 0 days 0 hours 0 minutes 30 seconds 987 msec
