                         Program Version 4.2.1 -  RELEASE  -
|  1> ! wB97X-D3 SP def2-SVP
|  2> %pal
|  3> nprocs 16
|  4> end
|  5>
|  6> * xyz 0 1
|  7> S 	 29.8821 	 -8.50063 	 81.7867
|  8> C 	 30.2355 	 -7.00467 	 80.9242
|  9> C 	 29.1259 	 -6.56078 	 80.1434
| 10> C 	 27.9752 	 -7.38267 	 80.3808
| 11> C 	 28.203 	 -8.41574 	 81.2495
| 12> H 	 26.9488 	 -7.2078 	 79.9503
| 13> C 	 28.9532 	 -5.33587 	 79.2503
| 14> H 	 28.5089 	 -5.65181 	 78.2991
| 15> H 	 29.9627 	 -5.03074 	 79.1245
| 16> C 	 28.1 	 -4.17947 	 79.8847
| 17> H 	 28.2329 	 -4.22142 	 80.9207
| 18> H 	 28.515 	 -3.22978 	 79.5045
| 19> C 	 26.5565 	 -4.20627 	 79.5654
| 20> H 	 26.3489 	 -3.93904 	 78.5484
| 21> H 	 26.1838 	 -5.22245 	 79.7166
| 22> H 	 25.9499 	 -3.4893 	 80.1285
| 23> S 	 27.7156 	 -11.0859 	 81.6008
| 24> C 	 26.1427 	 -11.5996 	 82.1299
| 25> C 	 25.3868 	 -10.5477 	 82.5608
| 26> C 	 25.9845 	 -9.26848 	 82.2469
| 27> C 	 27.2409 	 -9.3879 	 81.7184
| 28> H 	 24.4131 	 -10.8265 	 82.9327
| 29> C 	 25.299 	 -7.94871 	 82.5998
| 30> H 	 24.2156 	 -8.06778 	 82.5199
| 31> H 	 25.6401 	 -7.2963 	 81.8975
| 32> C 	 25.5593 	 -7.49028 	 84.0669
| 33> H 	 24.6926 	 -6.82354 	 84.4285
| 34> H 	 26.4035 	 -6.77645 	 84.1598
| 35> C 	 25.725 	 -8.63877 	 85.11
| 36> H 	 24.8328 	 -9.17604 	 85.2068
| 37> H 	 26.0021 	 -8.19922 	 86.0591
| 38> H 	 26.581 	 -9.37549 	 85.0416
| 39> H 	 31.1694 	 -6.50454 	 80.7908
| 40> H 	 25.8655 	 -12.6475 	 82.2604
| 41> *
| 42>
| 43>                          ****END OF INPUT****

CARTESIAN COORDINATES (ANGSTROEM)
---------------------------------
  S     29.882100   -8.500630   81.786700
  C     30.235500   -7.004670   80.924200
  C     29.125900   -6.560780   80.143400
  C     27.975200   -7.382670   80.380800
  C     28.203000   -8.415740   81.249500
  H     26.948800   -7.207800   79.950300
  C     28.953200   -5.335870   79.250300
  H     28.508900   -5.651810   78.299100
  H     29.962700   -5.030740   79.124500
  C     28.100000   -4.179470   79.884700
  H     28.232900   -4.221420   80.920700
  H     28.515000   -3.229780   79.504500
  C     26.556500   -4.206270   79.565400
  H     26.348900   -3.939040   78.548400
  H     26.183800   -5.222450   79.716600
  H     25.949900   -3.489300   80.128500
  S     27.715600  -11.085900   81.600800
  C     26.142700  -11.599600   82.129900
  C     25.386800  -10.547700   82.560800
  C     25.984500   -9.268480   82.246900
  C     27.240900   -9.387900   81.718400
  H     24.413100  -10.826500   82.932700
  C     25.299000   -7.948710   82.599800
  H     24.215600   -8.067780   82.519900
  H     25.640100   -7.296300   81.897500
  C     25.559300   -7.490280   84.066900
  H     24.692600   -6.823540   84.428500
  H     26.403500   -6.776450   84.159800
  C     25.725000   -8.638770   85.110000
  H     24.832800   -9.176040   85.206800
  H     26.002100   -8.199220   86.059100
  H     26.581000   -9.375490   85.041600
  H     31.169400   -6.504540   80.790800
  H     25.865500  -12.647500   82.260400

 Total Charge           Charge          ....    0
 Multiplicity           Mult            ....    1
 Number of Electrons    NEL             ....  134
 Basis Dimension        Dim             ....  322

ORBITAL ENERGIES
----------------

  NO   OCC          E(Eh)            E(eV)
   0   2.0000     -88.971723     -2421.0437
   1   2.0000     -88.960805     -2420.7466
   2   2.0000     -10.328505      -281.0529
   3   2.0000     -10.323203      -280.9086
   4   2.0000     -10.318188      -280.7722
   5   2.0000     -10.314198      -280.6636
   6   2.0000     -10.305104      -280.4161
   7   2.0000     -10.303721      -280.3785
   8   2.0000     -10.295418      -280.1526
   9   2.0000     -10.294852      -280.1372
  10   2.0000     -10.294838      -280.1368
  11   2.0000     -10.292124      -280.0629
  12   2.0000     -10.290530      -280.0196
  13   2.0000     -10.286062      -279.8980
  14   2.0000     -10.282380      -279.7978
  15   2.0000     -10.273048      -279.5438
  16   2.0000      -8.085548      -220.0189
  17   2.0000      -8.075929      -219.7572
  18   2.0000      -6.044182      -164.4706
  19   2.0000      -6.040264      -164.3639
  20   2.0000      -6.036158      -164.2522
  21   2.0000      -6.034463      -164.2061
  22   2.0000      -6.030456      -164.0970
  23   2.0000      -6.026578      -163.9915
  24   2.0000      -1.006018       -27.3751
  25   2.0000      -0.980529       -26.6815
  26   2.0000      -0.907088       -24.6831
  27   2.0000      -0.902364       -24.5546
  28   2.0000      -0.868018       -23.6200
  29   2.0000      -0.846950       -23.0467
  30   2.0000      -0.838377       -22.8134
  31   2.0000      -0.815411       -22.1885
  32   2.0000      -0.787330       -21.4243
  33   2.0000      -0.774382       -21.0720
  34   2.0000      -0.708164       -19.2701
  35   2.0000      -0.705301       -19.1922
  36   2.0000      -0.689790       -18.7701
  37   2.0000      -0.660964       -17.9858
  38   2.0000      -0.636641       -17.3239
  39   2.0000      -0.618962       -16.8428
  40   2.0000      -0.585177       -15.9235
  41   2.0000      -0.569449       -15.4955
  42   2.0000      -0.562510       -15.3067
  43   2.0000      -0.547220       -14.8906
  44   2.0000      -0.539386       -14.6774
  45   2.0000      -0.532658       -14.4944
  46   2.0000      -0.514103       -13.9895
  47   2.0000      -0.509531       -13.8650
  48   2.0000      -0.502354       -13.6697
  49   2.0000      -0.495755       -13.4902
  50   2.0000      -0.487535       -13.2665
  51   2.0000      -0.480058       -13.0631
  52   2.0000      -0.476033       -12.9535
  53   2.0000      -0.459818       -12.5123
  54   2.0000      -0.458744       -12.4831
  55   2.0000      -0.446626       -12.1533
  56   2.0000      -0.442529       -12.0418
  57   2.0000      -0.435383       -11.8474
  58   2.0000      -0.431701       -11.7472
  59   2.0000      -0.427350       -11.6288
  60   2.0000      -0.423763       -11.5312
  61   2.0000      -0.416526       -11.3342
  62   2.0000      -0.408089       -11.1047
  63   2.0000      -0.349295        -9.5048
  64   2.0000      -0.331708        -9.0262
  65   2.0000      -0.328685        -8.9440
  66   2.0000      -0.290359        -7.9011
  67   0.0000       0.032511         0.8847
  68   0.0000       0.066801         1.8178
  69   0.0000       0.108315         2.9474
  70   0.0000       0.119976         3.2647
  71   0.0000       0.130656         3.5553

MULLIKEN ATOMIC CHARGES
-----------------------
   0 S :    0.122716
   1 C :   -0.099876
   2 C :   -0.137579
   3 C :    0.006481
   4 C :   -0.147166
   5 H :    0.038463
   6 C :    0.084118
   7 H :    0.040171
   8 H :    0.008919
   9 C :   -0.050496
  10 H :    0.027922
  11 H :    0.035004
  12 C :   -0.051329
  13 H :    0.024784
  14 H :    0.020330
  15 H :    0.037936
  16 S :    0.090229
  17 C :   -0.096696
  18 C :   -0.038288
  19 C :   -0.085279
  20 C :   -0.147689
  21 H :    0.017708
  22 C :    0.196606
  23 H :    0.021496
  24 H :   -0.021810
  25 C :   -0.120778
  26 H :    0.037131
  27 H :    0.037679
  28 C :   -0.042149
  29 H :    0.020510
  30 H :    0.023417
  31 H :    0.050092
  32 H :    0.036427
  33 H :    0.060995
Sum of atomic charges:   -0.0000000

LOEWDIN ATOMIC CHARGES
----------------------
   0 S :    0.400945
   1 C :   -0.203260
   2 C :   -0.056963
   3 C :   -0.072149
   4 C :   -0.186625
   5 H :    0.039165
   6 C :   -0.026425
   7 H :    0.034961
   8 H :    0.025258
   9 C :   -0.028818
  10 H :    0.017810
  11 H :    0.027842
  12 C :   -0.065473
  13 H :    0.021148
  14 H :    0.019493
  15 H :    0.029596
  16 S :    0.390269
  17 C :   -0.183971
  18 C :   -0.072155
  19 C :   -0.050189
  20 C :   -0.194232
  21 H :    0.031624
  22 C :   -0.021150
  23 H :    0.033174
  24 H :    0.013428
  25 C :   -0.042043
  26 H :    0.032383
  27 H :    0.025749
  28 C :   -0.071185
  29 H :    0.013481
  30 H :    0.026217
  31 H :    0.037021
  32 H :    0.023204
  33 H :    0.031872

  Mayer bond orders larger than 0.100000
B(  0-S ,  1-C ) :   1.1257 B(  0-S ,  4-C ) :   1.1396 B(  1-C ,  2-C ) :   1.6205
B(  1-C ,  4-C ) :   0.1019 B(  1-C , 32-H ) :   0.9650 B(  2-C ,  3-C ) :   1.2209
B(  2-C ,  6-C ) :   1.0348 B(  3-C ,  4-C ) :   1.6090 B(  3-C ,  5-H ) :   0.9758
B(  4-C , 20-C ) :   1.0369 B(  6-C ,  7-H ) :   0.9455 B(  6-C ,  8-H ) :   0.9335
B(  6-C ,  9-C ) :   1.0481 B(  9-C , 10-H ) :   0.9622 B(  9-C , 11-H ) :   0.9609
B(  9-C , 12-C ) :   1.0676 B( 12-C , 13-H ) :   0.9748 B( 12-C , 14-H ) :   0.9781
B( 12-C , 15-H ) :   0.9741 B( 16-S , 17-C ) :   1.1473 B( 16-S , 20-C ) :   1.1237
B( 17-C , 18-C ) :   1.6485 B( 17-C , 33-H ) :   0.9638 B( 18-C , 19-C ) :   1.1875
B( 18-C , 21-H ) :   0.9924 B( 19-C , 20-C ) :   1.6290 B( 19-C , 22-C ) :   1.0540
B( 22-C , 23-H ) :   0.9286 B( 22-C , 24-H ) :   0.9216 B( 22-C , 25-C ) :   1.0542
B( 25-C , 26-H ) :   0.9588 B( 25-C , 27-H ) :   0.9597 B( 25-C , 28-C ) :   1.0861
B( 28-C , 29-H ) :   0.9765 B( 28-C , 30-H ) :   0.9714 B( 28-C , 31-H ) :   0.9666

Dispersion correction           -0.015387692
FINAL SINGLE POINT ENERGY     -1339.871702018206

DIPOLE MOMENT
-------------
                                X             Y             Z
Electronic contribution:     14.22852     -21.76695      -2.39615
Nuclear contribution   :    -14.68006      22.25807       2.39109
                        -----------------------------------------
Total Dipole Moment    :     -0.45154       0.49112      -0.00506
                        -----------------------------------------
Magnitude (a.u.)       :      0.66717
Magnitude (Debye)      :      1.69580

Rotational constants in cm-1:     0.019044     0.009472     0.007653
Rotational constants in MHz :   570.925696   283.953988   229.428638

                             ****ORCA TERMINATED NORMALLY****
TOTAL RUN TIME: 0 days 0 hours 0 minutes 30 seconds 316 msec
