                         Program Version 4.2.1 -  RELEASE  -
|  1> ! wB97X-D3 SP def2-SVP
|  2> %pal
|  3> nprocs 16
|  4> end
|  5>
|  6> * xyz 0 1
|  7> S 	 46.0458 	 22.3337 	 101.561
|  8> C 	 45.3936 	 23.9037 	 101.192
|  9> C 	 44.0373 	 23.7693 	 100.757
| 10> C 	 43.6484 	 22.3578 	 100.756
| 11> C 	 44.5389 	 21.5761 	 101.377
| 12> H 	 42.6786 	 21.8818 	 100.593
| 13> C 	 43.2461 	 24.8461 	 100.057
| 14> H 	 43.3414 	 25.8491 	 100.536
| 15> H 	 42.1769 	 24.5943 	 100.184
| 16> C 	 43.6143 	 24.9204 	 98.537
| 17> H 	 44.6734 	 24.9636 	 98.3356
| 18> H 	 43.4513 	 23.9308 	 98.0956
| 19> C 	 42.7955 	 26.0363 	 97.7903
| 20> H 	 43.1117 	 26.9821 	 98.1299
| 21> H 	 43.0108 	 26.0103 	 96.737
| 22> H 	 41.7354 	 26.0095 	 97.9326
| 23> S 	 43.4542 	 19.4301 	 102.937
| 24> C 	 43.9548 	 17.7914 	 102.498
| 25> C 	 44.8212 	 17.7933 	 101.459
| 26> C 	 45.0293 	 19.0782 	 100.889
| 27> C 	 44.3752 	 20.1357 	 101.583
| 28> H 	 45.3263 	 16.9167 	 101.161
| 29> C 	 45.9714 	 19.2338 	 99.7074
| 30> H 	 46.1393 	 20.2854 	 99.4832
| 31> H 	 45.4581 	 18.8292 	 98.8474
| 32> C 	 47.4219 	 18.6562 	 99.9338
| 33> H 	 47.9339 	 18.9105 	 99.0183
| 34> H 	 47.3444 	 17.5323 	 99.938
| 35> C 	 48.1333 	 19.2977 	 101.151
| 36> H 	 48.117 	 20.3656 	 101.023
| 37> H 	 49.2225 	 19.0209 	 101.192
| 38> H 	 47.6076 	 19.0637 	 102.103
| 39> H 	 45.8776 	 24.844 	 101.188
| 40> H 	 43.8699 	 16.914 	 103.106
| 41> *
| 42>
| 43>                          ****END OF INPUT****

CARTESIAN COORDINATES (ANGSTROEM)
---------------------------------
  S     46.045800   22.333700  101.561000
  C     45.393600   23.903700  101.192000
  C     44.037300   23.769300  100.757000
  C     43.648400   22.357800  100.756000
  C     44.538900   21.576100  101.377000
  H     42.678600   21.881800  100.593000
  C     43.246100   24.846100  100.057000
  H     43.341400   25.849100  100.536000
  H     42.176900   24.594300  100.184000
  C     43.614300   24.920400   98.537000
  H     44.673400   24.963600   98.335600
  H     43.451300   23.930800   98.095600
  C     42.795500   26.036300   97.790300
  H     43.111700   26.982100   98.129900
  H     43.010800   26.010300   96.737000
  H     41.735400   26.009500   97.932600
  S     43.454200   19.430100  102.937000
  C     43.954800   17.791400  102.498000
  C     44.821200   17.793300  101.459000
  C     45.029300   19.078200  100.889000
  C     44.375200   20.135700  101.583000
  H     45.326300   16.916700  101.161000
  C     45.971400   19.233800   99.707400
  H     46.139300   20.285400   99.483200
  H     45.458100   18.829200   98.847400
  C     47.421900   18.656200   99.933800
  H     47.933900   18.910500   99.018300
  H     47.344400   17.532300   99.938000
  C     48.133300   19.297700  101.151000
  H     48.117000   20.365600  101.023000
  H     49.222500   19.020900  101.192000
  H     47.607600   19.063700  102.103000
  H     45.877600   24.844000  101.188000
  H     43.869900   16.914000  103.106000

 Total Charge           Charge          ....    0
 Multiplicity           Mult            ....    1
 Number of Electrons    NEL             ....  134
 Basis Dimension        Dim             ....  322

ORBITAL ENERGIES
----------------

  NO   OCC          E(Eh)            E(eV)
   0   2.0000     -88.968153     -2420.9465
   1   2.0000     -88.966982     -2420.9147
   2   2.0000     -10.329576      -281.0821
   3   2.0000     -10.319992      -280.8212
   4   2.0000     -10.315555      -280.7005
   5   2.0000     -10.314691      -280.6770
   6   2.0000     -10.309129      -280.5257
   7   2.0000     -10.303253      -280.3658
   8   2.0000     -10.298420      -280.2343
   9   2.0000     -10.292227      -280.0657
  10   2.0000     -10.291591      -280.0484
  11   2.0000     -10.290091      -280.0076
  12   2.0000     -10.287777      -279.9447
  13   2.0000     -10.286468      -279.9090
  14   2.0000     -10.279976      -279.7324
  15   2.0000     -10.274333      -279.5788
  16   2.0000      -8.083291      -219.9575
  17   2.0000      -8.080566      -219.8834
  18   2.0000      -6.041775      -164.4051
  19   2.0000      -6.039217      -164.3355
  20   2.0000      -6.037716      -164.2946
  21   2.0000      -6.035195      -164.2260
  22   2.0000      -6.034067      -164.1953
  23   2.0000      -6.031288      -164.1197
  24   2.0000      -1.009053       -27.4577
  25   2.0000      -0.982315       -26.7302
  26   2.0000      -0.906448       -24.6657
  27   2.0000      -0.901022       -24.5180
  28   2.0000      -0.869034       -23.6476
  29   2.0000      -0.847362       -23.0579
  30   2.0000      -0.840364       -22.8675
  31   2.0000      -0.818111       -22.2619
  32   2.0000      -0.781843       -21.2750
  33   2.0000      -0.767310       -20.8796
  34   2.0000      -0.710408       -19.3312
  35   2.0000      -0.704572       -19.1724
  36   2.0000      -0.691682       -18.8216
  37   2.0000      -0.658271       -17.9125
  38   2.0000      -0.643108       -17.4999
  39   2.0000      -0.613892       -16.7049
  40   2.0000      -0.594460       -16.1761
  41   2.0000      -0.571055       -15.5392
  42   2.0000      -0.550692       -14.9851
  43   2.0000      -0.549605       -14.9555
  44   2.0000      -0.538034       -14.6407
  45   2.0000      -0.523259       -14.2386
  46   2.0000      -0.517406       -14.0793
  47   2.0000      -0.513648       -13.9771
  48   2.0000      -0.501552       -13.6479
  49   2.0000      -0.497829       -13.5466
  50   2.0000      -0.486803       -13.2466
  51   2.0000      -0.475596       -12.9416
  52   2.0000      -0.467002       -12.7078
  53   2.0000      -0.462864       -12.5952
  54   2.0000      -0.456509       -12.4223
  55   2.0000      -0.452638       -12.3169
  56   2.0000      -0.448348       -12.2002
  57   2.0000      -0.444081       -12.0841
  58   2.0000      -0.438279       -11.9262
  59   2.0000      -0.425994       -11.5919
  60   2.0000      -0.416308       -11.3283
  61   2.0000      -0.414241       -11.2721
  62   2.0000      -0.408920       -11.1273
  63   2.0000      -0.338665        -9.2155
  64   2.0000      -0.334139        -9.0924
  65   2.0000      -0.320001        -8.7077
  66   2.0000      -0.303317        -8.2537
  67   0.0000       0.041465         1.1283
  68   0.0000       0.053772         1.4632
  69   0.0000       0.106809         2.9064
  70   0.0000       0.119360         3.2479
  71   0.0000       0.132465         3.6045

MULLIKEN ATOMIC CHARGES
-----------------------
   0 S :    0.123190
   1 C :   -0.095179
   2 C :   -0.095883
   3 C :    0.030682
   4 C :   -0.166293
   5 H :    0.024191
   6 C :    0.039681
   7 H :    0.032769
   8 H :    0.030180
   9 C :   -0.072366
  10 H :    0.019503
  11 H :    0.019160
  12 C :   -0.003326
  13 H :    0.014653
  14 H :    0.030669
  15 H :    0.028420
  16 S :    0.104198
  17 C :   -0.075329
  18 C :   -0.016906
  19 C :   -0.052061
  20 C :   -0.172300
  21 H :    0.004284
  22 C :    0.062177
  23 H :    0.016493
  24 H :    0.036827
  25 C :   -0.089746
  26 H :    0.029285
  27 H :    0.035335
  28 C :   -0.058661
  29 H :    0.026142
  30 H :    0.045289
  31 H :    0.054574
  32 H :    0.036951
  33 H :    0.053397
Sum of atomic charges:   -0.0000000

LOEWDIN ATOMIC CHARGES
----------------------
   0 S :    0.448639
   1 C :   -0.199882
   2 C :   -0.054886
   3 C :   -0.064028
   4 C :   -0.213850
   5 H :    0.037589
   6 C :   -0.039210
   7 H :    0.032155
   8 H :    0.033043
   9 C :   -0.037758
  10 H :    0.022471
  11 H :    0.024371
  12 C :   -0.058081
  13 H :    0.018096
  14 H :    0.026666
  15 H :    0.023331
  16 S :    0.386961
  17 C :   -0.175256
  18 C :   -0.067307
  19 C :   -0.052885
  20 C :   -0.200506
  21 H :    0.026140
  22 C :   -0.035398
  23 H :    0.021236
  24 H :    0.032523
  25 C :   -0.039685
  26 H :    0.023152
  27 H :    0.021156
  28 C :   -0.071649
  29 H :    0.014602
  30 H :    0.033541
  31 H :    0.032237
  32 H :    0.022332
  33 H :    0.030141

  Mayer bond orders larger than 0.100000
B(  0-S ,  1-C ) :   1.1464 B(  0-S ,  4-C ) :   1.1539 B(  1-C ,  2-C ) :   1.5864
B(  1-C , 32-H ) :   0.9773 B(  2-C ,  3-C ) :   1.2226 B(  2-C ,  6-C ) :   1.0485
B(  3-C ,  4-C ) :   1.6222 B(  3-C ,  5-H ) :   0.9805 B(  4-C , 20-C ) :   1.0125
B(  6-C ,  7-H ) :   0.9445 B(  6-C ,  8-H ) :   0.9394 B(  6-C ,  9-C ) :   1.0447
B(  9-C , 10-H ) :   0.9590 B(  9-C , 11-H ) :   0.9551 B(  9-C , 12-C ) :   1.0685
B( 12-C , 13-H ) :   0.9754 B( 12-C , 14-H ) :   0.9745 B( 12-C , 15-H ) :   0.9774
B( 16-S , 17-C ) :   1.1489 B( 16-S , 20-C ) :   1.1335 B( 17-C , 18-C ) :   1.6245
B( 17-C , 33-H ) :   0.9621 B( 18-C , 19-C ) :   1.2454 B( 18-C , 21-H ) :   0.9940
B( 19-C , 20-C ) :   1.5800 B( 19-C , 22-C ) :   1.0457 B( 22-C , 23-H ) :   0.9326
B( 22-C , 24-H ) :   0.9344 B( 22-C , 25-C ) :   1.0656 B( 25-C , 26-H ) :   0.9570
B( 25-C , 27-H ) :   0.9564 B( 25-C , 28-C ) :   1.0630 B( 28-C , 29-H ) :   0.9707
B( 28-C , 30-H ) :   0.9731 B( 28-C , 31-H ) :   0.9740

Dispersion correction           -0.015299172
FINAL SINGLE POINT ENERGY     -1339.877296766637

DIPOLE MOMENT
-------------
                                X             Y             Z
Electronic contribution:     -4.30278      -9.04852      17.60585
Nuclear contribution   :      4.46520       9.13289     -18.11276
                        -----------------------------------------
Total Dipole Moment    :      0.16243       0.08437      -0.50691
                        -----------------------------------------
Magnitude (a.u.)       :      0.53894
Magnitude (Debye)      :      1.36988

Rotational constants in cm-1:     0.022487     0.007676     0.006810
Rotational constants in MHz :   674.135483   230.112720   204.154179

                             ****ORCA TERMINATED NORMALLY****
TOTAL RUN TIME: 0 days 0 hours 0 minutes 28 seconds 892 msec
