                         Program Version 4.2.1 -  RELEASE  -
|  1> ! wB97X-D3 SP def2-SVP
|  2> %pal
|  3> nprocs 16
|  4> end
|  5>
|  6> * xyz 0 1
|  7> S 	 0.165527 	 -9.28866 	 90.8653
|  8> C 	 -1.56244 	 -9.45935 	 90.8736
|  9> C 	 -2.00136 	 -10.7203 	 90.4075
| 10> C 	 -0.894487 	 -11.4447 	 89.8218
| 11> C 	 0.361886 	 -10.8265 	 89.9672
| 12> H 	 -1.0486 	 -12.3393 	 89.2283
| 13> C 	 -3.45526 	 -11.1269 	 90.5773
| 14> H 	 -3.72323 	 -11.7256 	 89.7742
| 15> H 	 -4.02013 	 -10.2282 	 90.5438
| 16> C 	 -3.69254 	 -12.0139 	 91.8129
| 17> H 	 -3.12766 	 -12.9703 	 91.7038
| 18> H 	 -3.27909 	 -11.4614 	 92.6887
| 19> C 	 -5.15265 	 -12.3321 	 92.0858
| 20> H 	 -5.77753 	 -11.4156 	 92.367
| 21> H 	 -5.67026 	 -12.9364 	 91.2286
| 22> H 	 -5.17192 	 -12.9736 	 92.9945
| 23> S 	 2.91497 	 -10.0182 	 89.2189
| 24> C 	 4.03906 	 -11.2778 	 88.7227
| 25> C 	 3.55904 	 -12.5109 	 89.0867
| 26> C 	 2.18151 	 -12.5356 	 89.3829
| 27> C 	 1.69324 	 -11.2652 	 89.5224
| 28> H 	 4.1661 	 -13.3092 	 89.0268
| 29> C 	 1.49187 	 -13.9168 	 89.7044
| 30> H 	 0.393142 	 -13.6959 	 89.9117
| 31> H 	 1.90493 	 -14.335 	 90.5883
| 32> C 	 1.67321 	 -14.9707 	 88.6458
| 33> H 	 2.69943 	 -15.1259 	 88.4796
| 34> H 	 1.26114 	 -14.7199 	 87.6836
| 35> C 	 1.31309 	 -16.3644 	 89.1415
| 36> H 	 1.44529 	 -17.157 	 88.4305
| 37> H 	 0.271269 	 -16.4032 	 89.5631
| 38> H 	 1.86528 	 -16.5737 	 90.0584
| 39> H 	 -2.23094 	 -8.71521 	 91.2982
| 40> H 	 5.06689 	 -11.0148 	 88.5652
| 41> *
| 42>
| 43>                          ****END OF INPUT****

CARTESIAN COORDINATES (ANGSTROEM)
---------------------------------
  S      0.165527   -9.288660   90.865300
  C     -1.562440   -9.459350   90.873600
  C     -2.001360  -10.720300   90.407500
  C     -0.894487  -11.444700   89.821800
  C      0.361886  -10.826500   89.967200
  H     -1.048600  -12.339300   89.228300
  C     -3.455260  -11.126900   90.577300
  H     -3.723230  -11.725600   89.774200
  H     -4.020130  -10.228200   90.543800
  C     -3.692540  -12.013900   91.812900
  H     -3.127660  -12.970300   91.703800
  H     -3.279090  -11.461400   92.688700
  C     -5.152650  -12.332100   92.085800
  H     -5.777530  -11.415600   92.367000
  H     -5.670260  -12.936400   91.228600
  H     -5.171920  -12.973600   92.994500
  S      2.914970  -10.018200   89.218900
  C      4.039060  -11.277800   88.722700
  C      3.559040  -12.510900   89.086700
  C      2.181510  -12.535600   89.382900
  C      1.693240  -11.265200   89.522400
  H      4.166100  -13.309200   89.026800
  C      1.491870  -13.916800   89.704400
  H      0.393142  -13.695900   89.911700
  H      1.904930  -14.335000   90.588300
  C      1.673210  -14.970700   88.645800
  H      2.699430  -15.125900   88.479600
  H      1.261140  -14.719900   87.683600
  C      1.313090  -16.364400   89.141500
  H      1.445290  -17.157000   88.430500
  H      0.271269  -16.403200   89.563100
  H      1.865280  -16.573700   90.058400
  H     -2.230940   -8.715210   91.298200
  H      5.066890  -11.014800   88.565200

 Total Charge           Charge          ....    0
 Multiplicity           Mult            ....    1
 Number of Electrons    NEL             ....  134
 Basis Dimension        Dim             ....  322

ORBITAL ENERGIES
----------------

  NO   OCC          E(Eh)            E(eV)
   0   2.0000     -88.967072     -2420.9171
   1   2.0000     -88.964961     -2420.8597
   2   2.0000     -10.336539      -281.2715
   3   2.0000     -10.330587      -281.1096
   4   2.0000     -10.315652      -280.7032
   5   2.0000     -10.314125      -280.6616
   6   2.0000     -10.304831      -280.4087
   7   2.0000     -10.303812      -280.3810
   8   2.0000     -10.300076      -280.2793
   9   2.0000     -10.298762      -280.2436
  10   2.0000     -10.294185      -280.1190
  11   2.0000     -10.292174      -280.0643
  12   2.0000     -10.285919      -279.8941
  13   2.0000     -10.285515      -279.8831
  14   2.0000     -10.280858      -279.7564
  15   2.0000     -10.280545      -279.7478
  16   2.0000      -8.081205      -219.9008
  17   2.0000      -8.079587      -219.8567
  18   2.0000      -6.039738      -164.3496
  19   2.0000      -6.038123      -164.3057
  20   2.0000      -6.035830      -164.2433
  21   2.0000      -6.034337      -164.2027
  22   2.0000      -6.031963      -164.1380
  23   2.0000      -6.030085      -164.0870
  24   2.0000      -1.004225       -27.3263
  25   2.0000      -0.979474       -26.6528
  26   2.0000      -0.916230       -24.9319
  27   2.0000      -0.911585       -24.8055
  28   2.0000      -0.867120       -23.5955
  29   2.0000      -0.855456       -23.2781
  30   2.0000      -0.843606       -22.9557
  31   2.0000      -0.814066       -22.1519
  32   2.0000      -0.783944       -21.3322
  33   2.0000      -0.770025       -20.9535
  34   2.0000      -0.706149       -19.2153
  35   2.0000      -0.698945       -19.0193
  36   2.0000      -0.690053       -18.7773
  37   2.0000      -0.668522       -18.1914
  38   2.0000      -0.638384       -17.3713
  39   2.0000      -0.620670       -16.8893
  40   2.0000      -0.601808       -16.3760
  41   2.0000      -0.575745       -15.6668
  42   2.0000      -0.571851       -15.5609
  43   2.0000      -0.556784       -15.1509
  44   2.0000      -0.531376       -14.4595
  45   2.0000      -0.524046       -14.2600
  46   2.0000      -0.519202       -14.1282
  47   2.0000      -0.513081       -13.9616
  48   2.0000      -0.506184       -13.7740
  49   2.0000      -0.490874       -13.3574
  50   2.0000      -0.490305       -13.3419
  51   2.0000      -0.480600       -13.0778
  52   2.0000      -0.470331       -12.7984
  53   2.0000      -0.462610       -12.5883
  54   2.0000      -0.455515       -12.3952
  55   2.0000      -0.452235       -12.3059
  56   2.0000      -0.448295       -12.1987
  57   2.0000      -0.443101       -12.0574
  58   2.0000      -0.433389       -11.7931
  59   2.0000      -0.428455       -11.6588
  60   2.0000      -0.422360       -11.4930
  61   2.0000      -0.418301       -11.3826
  62   2.0000      -0.410311       -11.1651
  63   2.0000      -0.356437        -9.6991
  64   2.0000      -0.335085        -9.1181
  65   2.0000      -0.327674        -8.9165
  66   2.0000      -0.281987        -7.6733
  67   0.0000       0.019728         0.5368
  68   0.0000       0.073765         2.0072
  69   0.0000       0.099916         2.7188
  70   0.0000       0.120098         3.2680
  71   0.0000       0.132064         3.5937

MULLIKEN ATOMIC CHARGES
-----------------------
   0 S :    0.101235
   1 C :   -0.124334
   2 C :   -0.123995
   3 C :    0.010110
   4 C :   -0.138120
   5 H :    0.023443
   6 C :    0.137406
   7 H :   -0.003547
   8 H :    0.015469
   9 C :   -0.095417
  10 H :    0.037434
  11 H :    0.033376
  12 C :   -0.089211
  13 H :    0.045767
  14 H :    0.048160
  15 H :    0.041732
  16 S :    0.092062
  17 C :   -0.081977
  18 C :    0.011285
  19 C :   -0.039249
  20 C :   -0.129829
  21 H :   -0.025029
  22 C :    0.081947
  23 H :    0.023785
  24 H :    0.018985
  25 C :   -0.053460
  26 H :    0.015132
  27 H :    0.028808
  28 C :   -0.053427
  29 H :    0.041326
  30 H :    0.020653
  31 H :    0.020130
  32 H :    0.052336
  33 H :    0.057017
Sum of atomic charges:   -0.0000000

LOEWDIN ATOMIC CHARGES
----------------------
   0 S :    0.391612
   1 C :   -0.205238
   2 C :   -0.055150
   3 C :   -0.071378
   4 C :   -0.173455
   5 H :    0.029772
   6 C :   -0.024192
   7 H :    0.019253
   8 H :    0.027891
   9 C :   -0.045414
  10 H :    0.029930
  11 H :    0.027567
  12 C :   -0.082664
  13 H :    0.031720
  14 H :    0.033669
  15 H :    0.030052
  16 S :    0.386129
  17 C :   -0.172541
  18 C :   -0.049325
  19 C :   -0.054457
  20 C :   -0.185948
  21 H :    0.010112
  22 C :   -0.021073
  23 H :    0.034510
  24 H :    0.027659
  25 C :   -0.041698
  26 H :    0.019521
  27 H :    0.023264
  28 C :   -0.064387
  29 H :    0.024666
  30 H :    0.024760
  31 H :    0.023982
  32 H :    0.026725
  33 H :    0.024127

  Mayer bond orders larger than 0.100000
B(  0-S ,  1-C ) :   1.1451 B(  0-S ,  4-C ) :   1.1419 B(  1-C ,  2-C ) :   1.5955
B(  1-C ,  4-C ) :   0.1012 B(  1-C , 32-H ) :   0.9662 B(  2-C ,  3-C ) :   1.2577
B(  2-C ,  6-C ) :   1.0368 B(  3-C ,  4-C ) :   1.5646 B(  3-C ,  5-H ) :   0.9796
B(  4-C , 20-C ) :   1.0680 B(  6-C ,  7-H ) :   0.9270 B(  6-C ,  8-H ) :   0.9391
B(  6-C ,  9-C ) :   1.0592 B(  9-C , 10-H ) :   0.9532 B(  9-C , 11-H ) :   0.9551
B(  9-C , 12-C ) :   1.0865 B( 12-C , 13-H ) :   0.9722 B( 12-C , 14-H ) :   0.9705
B( 12-C , 15-H ) :   0.9726 B( 16-S , 17-C ) :   1.1395 B( 16-S , 20-C ) :   1.1362
B( 17-C , 18-C ) :   1.6197 B( 17-C , 33-H ) :   0.9677 B( 18-C , 19-C ) :   1.2316
B( 18-C , 21-H ) :   1.0015 B( 19-C , 20-C ) :   1.6144 B( 19-C , 22-C ) :   1.0203
B( 22-C , 23-H ) :   0.9328 B( 22-C , 24-H ) :   0.9365 B( 22-C , 25-C ) :   1.0661
B( 25-C , 26-H ) :   0.9502 B( 25-C , 27-H ) :   0.9551 B( 25-C , 28-C ) :   1.0799
B( 28-C , 29-H ) :   0.9747 B( 28-C , 30-H ) :   0.9725 B( 28-C , 31-H ) :   0.9709

Dispersion correction           -0.013220563
FINAL SINGLE POINT ENERGY     -1339.869994490752

DIPOLE MOMENT
-------------
                                X             Y             Z
Electronic contribution:     19.20722      25.70196      -3.49094
Nuclear contribution   :    -19.40202     -26.38195       3.61456
                        -----------------------------------------
Total Dipole Moment    :     -0.19480      -0.67999       0.12362
                        -----------------------------------------
Magnitude (a.u.)       :      0.71806
Magnitude (Debye)      :      1.82517

Rotational constants in cm-1:     0.016912     0.008553     0.005856
Rotational constants in MHz :   506.999531   256.421269   175.562499

                             ****ORCA TERMINATED NORMALLY****
TOTAL RUN TIME: 0 days 0 hours 0 minutes 34 seconds 41 msec
