                         Program Version 4.2.1 -  RELEASE  -
|  1> ! wB97X-D3 SP def2-SVP
|  2> %pal
|  3> nprocs 16
|  4> end
|  5>
|  6> * xyz 0 1
|  7> S 	 18.2225 	 20.1011 	 39.9995
|  8> C 	 18.1122 	 20.1351 	 38.2822
|  9> C 	 16.8 	 19.9402 	 37.8006
| 10> C 	 15.9288 	 19.5789 	 38.8372
| 11> C 	 16.5377 	 19.5521 	 40.0854
| 12> H 	 14.8629 	 19.3427 	 38.7012
| 13> C 	 16.277 	 20.0281 	 36.3649
| 14> H 	 15.6166 	 19.2091 	 36.2196
| 15> H 	 17.1452 	 19.8529 	 35.8115
| 16> C 	 15.4942 	 21.3292 	 36.024
| 17> H 	 14.9628 	 21.2568 	 35.0866
| 18> H 	 14.6842 	 21.501 	 36.7123
| 19> C 	 16.3886 	 22.6277 	 36.1285
| 20> H 	 16.8481 	 22.7055 	 37.1459
| 21> H 	 17.189 	 22.6286 	 35.3973
| 22> H 	 15.8411 	 23.5608 	 36.1247
| 23> S 	 16.5642 	 17.8151 	 42.1474
| 24> C 	 15.3863 	 17.868 	 43.3918
| 25> C 	 14.4516 	 18.8587 	 43.1202
| 26> C 	 14.6923 	 19.548 	 41.8901
| 27> C 	 15.902 	 19.2158 	 41.3373
| 28> H 	 13.6075 	 19.0298 	 43.7974
| 29> C 	 13.775 	 20.6538 	 41.3338
| 30> H 	 12.7138 	 20.5617 	 41.6933
| 31> H 	 13.7084 	 20.3354 	 40.2334
| 32> C 	 14.4975 	 22.0713 	 41.3417
| 33> H 	 13.8538 	 22.8077 	 40.8479
| 34> H 	 15.4641 	 21.9934 	 40.7693
| 35> C 	 14.9602 	 22.6064 	 42.6898
| 36> H 	 15.7207 	 21.9557 	 43.1044
| 37> H 	 14.0304 	 22.5143 	 43.2787
| 38> H 	 15.3061 	 23.7293 	 42.5638
| 39> H 	 18.906 	 20.4413 	 37.6448
| 40> H 	 15.3057 	 17.0776 	 44.1523
| 41> *
| 42>
| 43>                          ****END OF INPUT****

CARTESIAN COORDINATES (ANGSTROEM)
---------------------------------
  S     18.222500   20.101100   39.999500
  C     18.112200   20.135100   38.282200
  C     16.800000   19.940200   37.800600
  C     15.928800   19.578900   38.837200
  C     16.537700   19.552100   40.085400
  H     14.862900   19.342700   38.701200
  C     16.277000   20.028100   36.364900
  H     15.616600   19.209100   36.219600
  H     17.145200   19.852900   35.811500
  C     15.494200   21.329200   36.024000
  H     14.962800   21.256800   35.086600
  H     14.684200   21.501000   36.712300
  C     16.388600   22.627700   36.128500
  H     16.848100   22.705500   37.145900
  H     17.189000   22.628600   35.397300
  H     15.841100   23.560800   36.124700
  S     16.564200   17.815100   42.147400
  C     15.386300   17.868000   43.391800
  C     14.451600   18.858700   43.120200
  C     14.692300   19.548000   41.890100
  C     15.902000   19.215800   41.337300
  H     13.607500   19.029800   43.797400
  C     13.775000   20.653800   41.333800
  H     12.713800   20.561700   41.693300
  H     13.708400   20.335400   40.233400
  C     14.497500   22.071300   41.341700
  H     13.853800   22.807700   40.847900
  H     15.464100   21.993400   40.769300
  C     14.960200   22.606400   42.689800
  H     15.720700   21.955700   43.104400
  H     14.030400   22.514300   43.278700
  H     15.306100   23.729300   42.563800
  H     18.906000   20.441300   37.644800
  H     15.305700   17.077600   44.152300

 Total Charge           Charge          ....    0
 Multiplicity           Mult            ....    1
 Number of Electrons    NEL             ....  134
 Basis Dimension        Dim             ....  322

ORBITAL ENERGIES
----------------

  NO   OCC          E(Eh)            E(eV)
   0   2.0000     -88.972381     -2421.0616
   1   2.0000     -88.961583     -2420.7678
   2   2.0000     -10.329065      -281.0682
   3   2.0000     -10.320230      -280.8277
   4   2.0000     -10.317079      -280.7420
   5   2.0000     -10.313310      -280.6394
   6   2.0000     -10.306001      -280.4405
   7   2.0000     -10.304123      -280.3894
   8   2.0000     -10.300513      -280.2912
   9   2.0000     -10.295075      -280.1432
  10   2.0000     -10.293183      -280.0917
  11   2.0000     -10.291636      -280.0497
  12   2.0000     -10.289542      -279.9927
  13   2.0000     -10.288761      -279.9714
  14   2.0000     -10.280131      -279.7366
  15   2.0000     -10.278935      -279.7040
  16   2.0000      -8.086759      -220.0519
  17   2.0000      -8.077277      -219.7939
  18   2.0000      -6.045098      -164.4955
  19   2.0000      -6.041402      -164.3949
  20   2.0000      -6.037651      -164.2928
  21   2.0000      -6.035661      -164.2387
  22   2.0000      -6.031484      -164.1250
  23   2.0000      -6.028274      -164.0377
  24   2.0000      -1.010110       -27.4865
  25   2.0000      -0.986682       -26.8490
  26   2.0000      -0.907753       -24.7012
  27   2.0000      -0.900445       -24.5024
  28   2.0000      -0.867417       -23.6036
  29   2.0000      -0.850532       -23.1441
  30   2.0000      -0.844513       -22.9804
  31   2.0000      -0.809169       -22.0186
  32   2.0000      -0.782066       -21.2811
  33   2.0000      -0.770165       -20.9573
  34   2.0000      -0.711068       -19.3491
  35   2.0000      -0.699653       -19.0385
  36   2.0000      -0.679425       -18.4881
  37   2.0000      -0.663418       -18.0525
  38   2.0000      -0.640511       -17.4292
  39   2.0000      -0.620817       -16.8933
  40   2.0000      -0.587447       -15.9853
  41   2.0000      -0.563780       -15.3412
  42   2.0000      -0.552530       -15.0351
  43   2.0000      -0.548245       -14.9185
  44   2.0000      -0.539513       -14.6809
  45   2.0000      -0.536120       -14.5886
  46   2.0000      -0.522366       -14.2143
  47   2.0000      -0.510651       -13.8955
  48   2.0000      -0.497808       -13.5460
  49   2.0000      -0.491654       -13.3786
  50   2.0000      -0.484615       -13.1870
  51   2.0000      -0.479738       -13.0543
  52   2.0000      -0.471624       -12.8335
  53   2.0000      -0.464862       -12.6495
  54   2.0000      -0.454715       -12.3734
  55   2.0000      -0.450330       -12.2541
  56   2.0000      -0.441535       -12.0148
  57   2.0000      -0.434814       -11.8319
  58   2.0000      -0.432071       -11.7573
  59   2.0000      -0.430699       -11.7199
  60   2.0000      -0.419533       -11.4161
  61   2.0000      -0.416546       -11.3348
  62   2.0000      -0.403123       -10.9695
  63   2.0000      -0.345492        -9.4013
  64   2.0000      -0.331972        -9.0334
  65   2.0000      -0.328455        -8.9377
  66   2.0000      -0.291521        -7.9327
  67   0.0000       0.029471         0.8020
  68   0.0000       0.065637         1.7861
  69   0.0000       0.111627         3.0375
  70   0.0000       0.117487         3.1970
  71   0.0000       0.129498         3.5238

MULLIKEN ATOMIC CHARGES
-----------------------
   0 S :    0.133199
   1 C :   -0.106795
   2 C :   -0.129407
   3 C :    0.027842
   4 C :   -0.180084
   5 H :    0.027314
   6 C :    0.126250
   7 H :    0.019174
   8 H :    0.007928
   9 C :   -0.048053
  10 H :    0.031306
  11 H :    0.018364
  12 C :   -0.075273
  13 H :    0.039556
  14 H :    0.032424
  15 H :    0.030198
  16 S :    0.108614
  17 C :   -0.097336
  18 C :   -0.050159
  19 C :   -0.039647
  20 C :   -0.163710
  21 H :    0.022317
  22 C :    0.042119
  23 H :    0.038554
  24 H :    0.028520
  25 C :   -0.092924
  26 H :    0.032851
  27 H :    0.048460
  28 C :   -0.072591
  29 H :    0.050730
  30 H :    0.027270
  31 H :    0.057983
  32 H :    0.035475
  33 H :    0.069532
Sum of atomic charges:   -0.0000000

LOEWDIN ATOMIC CHARGES
----------------------
   0 S :    0.418882
   1 C :   -0.206311
   2 C :   -0.059839
   3 C :   -0.059370
   4 C :   -0.195031
   5 H :    0.035088
   6 C :   -0.018919
   7 H :    0.028810
   8 H :    0.022695
   9 C :   -0.034310
  10 H :    0.023379
  11 H :    0.022188
  12 C :   -0.071452
  13 H :    0.032010
  14 H :    0.019932
  15 H :    0.024318
  16 S :    0.426210
  17 C :   -0.198943
  18 C :   -0.079850
  19 C :   -0.058519
  20 C :   -0.211174
  21 H :    0.032948
  22 C :   -0.040914
  23 H :    0.034052
  24 H :    0.039529
  25 C :   -0.046886
  26 H :    0.021424
  27 H :    0.030291
  28 C :   -0.075011
  29 H :    0.024876
  30 H :    0.022782
  31 H :    0.042724
  32 H :    0.019755
  33 H :    0.034635

  Mayer bond orders larger than 0.100000
B(  0-S ,  1-C ) :   1.1533 B(  0-S ,  4-C ) :   1.1563 B(  1-C ,  2-C ) :   1.5782
B(  1-C ,  4-C ) :   0.1064 B(  1-C , 32-H ) :   0.9681 B(  2-C ,  3-C ) :   1.2769
B(  2-C ,  6-C ) :   1.0142 B(  3-C ,  4-C ) :   1.5567 B(  3-C ,  5-H ) :   0.9831
B(  4-C , 20-C ) :   1.0301 B(  6-C ,  7-H ) :   0.9388 B(  6-C ,  8-H ) :   0.9407
B(  6-C ,  9-C ) :   1.0624 B(  9-C , 10-H ) :   0.9597 B(  9-C , 11-H ) :   0.9563
B(  9-C , 12-C ) :   1.0656 B( 12-C , 13-H ) :   0.9738 B( 12-C , 14-H ) :   0.9806
B( 12-C , 15-H ) :   0.9757 B( 16-S , 17-C ) :   1.1780 B( 16-S , 20-C ) :   1.1586
B( 17-C , 18-C ) :   1.5713 B( 17-C , 20-C ) :   0.1056 B( 17-C , 33-H ) :   0.9669
B( 18-C , 19-C ) :   1.2521 B( 18-C , 21-H ) :   0.9926 B( 19-C , 20-C ) :   1.5801
B( 19-C , 22-C ) :   1.0318 B( 22-C , 23-H ) :   0.9425 B( 22-C , 24-H ) :   0.9317
B( 22-C , 25-C ) :   1.0568 B( 25-C , 26-H ) :   0.9592 B( 25-C , 27-H ) :   0.9538
B( 25-C , 28-C ) :   1.0674 B( 28-C , 29-H ) :   0.9727 B( 28-C , 30-H ) :   0.9781
B( 28-C , 31-H ) :   0.9708

Dispersion correction           -0.015936653
FINAL SINGLE POINT ENERGY     -1339.877073184218

DIPOLE MOMENT
-------------
                                X             Y             Z
Electronic contribution:     12.32663     -18.98453      12.56306
Nuclear contribution   :    -12.86160      19.15756     -12.90717
                        -----------------------------------------
Total Dipole Moment    :     -0.53496       0.17303      -0.34411
                        -----------------------------------------
Magnitude (a.u.)       :      0.65919
Magnitude (Debye)      :      1.67554

Rotational constants in cm-1:     0.020993     0.009177     0.007733
Rotational constants in MHz :   629.361674   275.108108   231.834311

                             ****ORCA TERMINATED NORMALLY****
TOTAL RUN TIME: 0 days 0 hours 0 minutes 34 seconds 595 msec
