                         Program Version 4.2.1 -  RELEASE  -
|  1> ! wB97X-D3 SP def2-SVP
|  2> %pal
|  3> nprocs 16
|  4> end
|  5>
|  6> * xyz 0 1
|  7> S 	 -98.349 	 38.8941 	 125.587
|  8> C 	 -98.5962 	 38.2715 	 127.208
|  9> C 	 -97.8278 	 39.0054 	 128.102
| 10> C 	 -97.1921 	 40.1597 	 127.417
| 11> C 	 -97.4867 	 40.2505 	 126.066
| 12> H 	 -96.5871 	 40.9295 	 127.895
| 13> C 	 -97.6945 	 38.8342 	 129.611
| 14> H 	 -98.0402 	 39.7376 	 130.096
| 15> H 	 -96.6665 	 38.8004 	 129.863
| 16> C 	 -98.2844 	 37.594 	 130.3
| 17> H 	 -99.3898 	 37.6983 	 130.173
| 18> H 	 -97.8937 	 36.6791 	 129.794
| 19> C 	 -97.9014 	 37.4167 	 131.782
| 20> H 	 -98.2921 	 38.1748 	 132.448
| 21> H 	 -98.2874 	 36.465 	 132.198
| 22> H 	 -96.8353 	 37.2727 	 131.963
| 23> S 	 -95.9549 	 40.6055 	 123.836
| 24> C 	 -95.7777 	 42.1705 	 123.037
| 25> C 	 -96.5794 	 43.0819 	 123.599
| 26> C 	 -97.2325 	 42.5615 	 124.769
| 27> C 	 -97.0081 	 41.194 	 125.068
| 28> H 	 -96.7337 	 44.0369 	 123.148
| 29> C 	 -98.289 	 43.4171 	 125.557
| 30> H 	 -97.7314 	 44.2249 	 126.027
| 31> H 	 -98.5904 	 42.8857 	 126.495
| 32> C 	 -99.4353 	 43.8907 	 124.76
| 33> H 	 -99.1323 	 44.629 	 124.068
| 34> H 	 -100.062 	 44.4819 	 125.454
| 35> C 	 -100.33 	 42.7843 	 124.079
| 36> H 	 -99.7937 	 42.2781 	 123.332
| 37> H 	 -101.155 	 43.2122 	 123.572
| 38> H 	 -100.68 	 42.1756 	 124.9
| 39> H 	 -99.1775 	 37.3604 	 127.421
| 40> H 	 -95.1081 	 42.4598 	 122.164
| 41> *
| 42>
| 43>                          ****END OF INPUT****

CARTESIAN COORDINATES (ANGSTROEM)
---------------------------------
  S    -98.349000   38.894100  125.587000
  C    -98.596200   38.271500  127.208000
  C    -97.827800   39.005400  128.102000
  C    -97.192100   40.159700  127.417000
  C    -97.486700   40.250500  126.066000
  H    -96.587100   40.929500  127.895000
  C    -97.694500   38.834200  129.611000
  H    -98.040200   39.737600  130.096000
  H    -96.666500   38.800400  129.863000
  C    -98.284400   37.594000  130.300000
  H    -99.389800   37.698300  130.173000
  H    -97.893700   36.679100  129.794000
  C    -97.901400   37.416700  131.782000
  H    -98.292100   38.174800  132.448000
  H    -98.287400   36.465000  132.198000
  H    -96.835300   37.272700  131.963000
  S    -95.954900   40.605500  123.836000
  C    -95.777700   42.170500  123.037000
  C    -96.579400   43.081900  123.599000
  C    -97.232500   42.561500  124.769000
  C    -97.008100   41.194000  125.068000
  H    -96.733700   44.036900  123.148000
  C    -98.289000   43.417100  125.557000
  H    -97.731400   44.224900  126.027000
  H    -98.590400   42.885700  126.495000
  C    -99.435300   43.890700  124.760000
  H    -99.132300   44.629000  124.068000
  H    -100.062000   44.481900  125.454000
  C    -100.330000   42.784300  124.079000
  H    -99.793700   42.278100  123.332000
  H    -101.155000   43.212200  123.572000
  H    -100.680000   42.175600  124.900000
  H    -99.177500   37.360400  127.421000
  H    -95.108100   42.459800  122.164000

 Total Charge           Charge          ....    0
 Multiplicity           Mult            ....    1
 Number of Electrons    NEL             ....  134
 Basis Dimension        Dim             ....  322

ORBITAL ENERGIES
----------------

  NO   OCC          E(Eh)            E(eV)
   0   2.0000     -88.962453     -2420.7914
   1   2.0000     -88.962413     -2420.7903
   2   2.0000     -10.328511      -281.0531
   3   2.0000     -10.327978      -281.0386
   4   2.0000     -10.319965      -280.8205
   5   2.0000     -10.318328      -280.7760
   6   2.0000     -10.311414      -280.5878
   7   2.0000     -10.307261      -280.4748
   8   2.0000     -10.298536      -280.2374
   9   2.0000     -10.296544      -280.1832
  10   2.0000     -10.290187      -280.0102
  11   2.0000     -10.290183      -280.0101
  12   2.0000     -10.287224      -279.9296
  13   2.0000     -10.283459      -279.8272
  14   2.0000     -10.279178      -279.7106
  15   2.0000     -10.265538      -279.3395
  16   2.0000      -8.078651      -219.8313
  17   2.0000      -8.077444      -219.7984
  18   2.0000      -6.037143      -164.2790
  19   2.0000      -6.036046      -164.2491
  20   2.0000      -6.032805      -164.1610
  21   2.0000      -6.031784      -164.1332
  22   2.0000      -6.029448      -164.0696
  23   2.0000      -6.028174      -164.0350
  24   2.0000      -1.011376       -27.5209
  25   2.0000      -0.986734       -26.8504
  26   2.0000      -0.912843       -24.8397
  27   2.0000      -0.904510       -24.6130
  28   2.0000      -0.874898       -23.8072
  29   2.0000      -0.845421       -23.0051
  30   2.0000      -0.836572       -22.7643
  31   2.0000      -0.816343       -22.2138
  32   2.0000      -0.786379       -21.3984
  33   2.0000      -0.775354       -21.0984
  34   2.0000      -0.708640       -19.2831
  35   2.0000      -0.701868       -19.0988
  36   2.0000      -0.688547       -18.7363
  37   2.0000      -0.654352       -17.8058
  38   2.0000      -0.642305       -17.4780
  39   2.0000      -0.609709       -16.5910
  40   2.0000      -0.591451       -16.0942
  41   2.0000      -0.575368       -15.6566
  42   2.0000      -0.574647       -15.6370
  43   2.0000      -0.552749       -15.0411
  44   2.0000      -0.540049       -14.6955
  45   2.0000      -0.520354       -14.1595
  46   2.0000      -0.516121       -14.0444
  47   2.0000      -0.513851       -13.9826
  48   2.0000      -0.508928       -13.8486
  49   2.0000      -0.500704       -13.6249
  50   2.0000      -0.484038       -13.1713
  51   2.0000      -0.476923       -12.9777
  52   2.0000      -0.472237       -12.8502
  53   2.0000      -0.466942       -12.7061
  54   2.0000      -0.461121       -12.5477
  55   2.0000      -0.453626       -12.3438
  56   2.0000      -0.446653       -12.1540
  57   2.0000      -0.438627       -11.9356
  58   2.0000      -0.431757       -11.7487
  59   2.0000      -0.421619       -11.4728
  60   2.0000      -0.415306       -11.3010
  61   2.0000      -0.411033       -11.1848
  62   2.0000      -0.399422       -10.8688
  63   2.0000      -0.347608        -9.4589
  64   2.0000      -0.328273        -8.9328
  65   2.0000      -0.322398        -8.7729
  66   2.0000      -0.301672        -8.2089
  67   0.0000       0.043288         1.1779
  68   0.0000       0.065051         1.7701
  69   0.0000       0.114563         3.1174
  70   0.0000       0.124338         3.3834
  71   0.0000       0.137294         3.7360

MULLIKEN ATOMIC CHARGES
-----------------------
   0 S :    0.113194
   1 C :   -0.143843
   2 C :   -0.078904
   3 C :    0.033998
   4 C :   -0.150554
   5 H :    0.014397
   6 C :    0.075537
   7 H :    0.030896
   8 H :    0.016408
   9 C :   -0.109645
  10 H :    0.042951
  11 H :    0.040420
  12 C :   -0.051708
  13 H :    0.034298
  14 H :    0.029962
  15 H :    0.032069
  16 S :    0.100674
  17 C :   -0.106876
  18 C :   -0.022383
  19 C :   -0.064277
  20 C :   -0.149317
  21 H :    0.016424
  22 C :    0.068844
  23 H :    0.021715
  24 H :    0.020543
  25 C :   -0.075959
  26 H :    0.011359
  27 H :    0.021871
  28 C :   -0.004022
  29 H :    0.032628
  30 H :    0.019816
  31 H :    0.034620
  32 H :    0.065825
  33 H :    0.079040
Sum of atomic charges:    0.0000000

LOEWDIN ATOMIC CHARGES
----------------------
   0 S :    0.435771
   1 C :   -0.206801
   2 C :   -0.055308
   3 C :   -0.063733
   4 C :   -0.221385
   5 H :    0.031287
   6 C :   -0.036898
   7 H :    0.032785
   8 H :    0.027825
   9 C :   -0.046136
  10 H :    0.027924
  11 H :    0.030076
  12 C :   -0.070087
  13 H :    0.023158
  14 H :    0.031888
  15 H :    0.026328
  16 S :    0.409519
  17 C :   -0.187524
  18 C :   -0.078184
  19 C :   -0.052544
  20 C :   -0.215409
  21 H :    0.031952
  22 C :   -0.039657
  23 H :    0.030576
  24 H :    0.031151
  25 C :   -0.043371
  26 H :    0.013044
  27 H :    0.028213
  28 C :   -0.049592
  29 H :    0.020191
  30 H :    0.021269
  31 H :    0.028303
  32 H :    0.035801
  33 H :    0.049566

  Mayer bond orders larger than 0.100000
B(  0-S ,  1-C ) :   1.1340 B(  0-S ,  4-C ) :   1.1774 B(  1-C ,  2-C ) :   1.6110
B(  1-C , 32-H ) :   0.9674 B(  2-C ,  3-C ) :   1.2261 B(  2-C ,  6-C ) :   1.0158
B(  3-C ,  4-C ) :   1.5793 B(  3-C ,  5-H ) :   0.9980 B(  4-C , 20-C ) :   1.0067
B(  6-C ,  7-H ) :   0.9384 B(  6-C ,  8-H ) :   0.9352 B(  6-C ,  9-C ) :   1.0719
B(  9-C , 10-H ) :   0.9523 B(  9-C , 11-H ) :   0.9548 B(  9-C , 12-C ) :   1.0896
B( 12-C , 13-H ) :   0.9760 B( 12-C , 14-H ) :   0.9721 B( 12-C , 15-H ) :   0.9729
B( 16-S , 17-C ) :   1.1532 B( 16-S , 20-C ) :   1.1457 B( 17-C , 18-C ) :   1.6214
B( 17-C , 33-H ) :   0.9551 B( 18-C , 19-C ) :   1.2419 B( 18-C , 21-H ) :   0.9959
B( 19-C , 20-C ) :   1.5920 B( 19-C , 22-C ) :   1.0272 B( 22-C , 23-H ) :   0.9303
B( 22-C , 24-H ) :   0.9368 B( 22-C , 25-C ) :   1.0893 B( 25-C , 26-H ) :   0.9516
B( 25-C , 27-H ) :   0.9490 B( 25-C , 28-C ) :   1.0675 B( 28-C , 29-H ) :   0.9765
B( 28-C , 30-H ) :   0.9739 B( 28-C , 31-H ) :   0.9775

Dispersion correction           -0.014205484
FINAL SINGLE POINT ENERGY     -1339.875486816381

DIPOLE MOMENT
-------------
                                X             Y             Z
Electronic contribution:     10.87504      -3.93339     -19.25802
Nuclear contribution   :    -10.97099       4.26304      19.71960
                        -----------------------------------------
Total Dipole Moment    :     -0.09595       0.32965       0.46158
                        -----------------------------------------
Magnitude (a.u.)       :      0.57527
Magnitude (Debye)      :      1.46221

Rotational constants in cm-1:     0.024633     0.006793     0.006211
Rotational constants in MHz :   738.473120   203.647344   186.204962

                             ****ORCA TERMINATED NORMALLY****
TOTAL RUN TIME: 0 days 0 hours 0 minutes 32 seconds 658 msec
