                         Program Version 4.2.1 -  RELEASE  -
|  1> ! wB97X-D3 SP def2-SVP
|  2> %pal
|  3> nprocs 16
|  4> end
|  5>
|  6> * xyz 0 1
|  7> S 	 -7.45222 	 34.8072 	 55.0795
|  8> C 	 -6.08584 	 34.2179 	 55.9359
|  9> C 	 -5.33351 	 33.4075 	 55.0681
| 10> C 	 -5.8253 	 33.4437 	 53.7293
| 11> C 	 -6.92918 	 34.2279 	 53.5134
| 12> H 	 -5.30912 	 33.016 	 52.8776
| 13> C 	 -3.97568 	 32.8589 	 55.47
| 14> H 	 -4.01405 	 31.7976 	 55.3787
| 15> H 	 -3.75821 	 33.0619 	 56.5365
| 16> C 	 -2.79053 	 33.5124 	 54.7664
| 17> H 	 -1.9279 	 33.0548 	 55.1286
| 18> H 	 -2.84845 	 33.1949 	 53.7416
| 19> C 	 -2.55686 	 35.0394 	 54.9777
| 20> H 	 -2.64354 	 35.4003 	 55.9577
| 21> H 	 -1.43027 	 35.2458 	 54.7599
| 22> H 	 -3.28437 	 35.5957 	 54.4014
| 23> S 	 -8.65268 	 35.9104 	 52.1285
| 24> C 	 -8.87044 	 35.5861 	 50.4289
| 25> C 	 -8.433 	 34.3453 	 50.0633
| 26> C 	 -7.86007 	 33.6381 	 51.132
| 27> C 	 -7.7369 	 34.4343 	 52.3021
| 28> H 	 -8.51822 	 34.0916 	 49.0212
| 29> C 	 -7.38071 	 32.1868 	 50.9146
| 30> H 	 -8.0808 	 31.6064 	 51.5353
| 31> H 	 -6.45652 	 32.2033 	 51.4574
| 32> C 	 -7.1139 	 31.7178 	 49.4078
| 33> H 	 -6.25866 	 32.2349 	 48.9524
| 34> H 	 -7.93922 	 31.8875 	 48.7773
| 35> C 	 -6.71082 	 30.2113 	 49.3444
| 36> H 	 -5.72352 	 30.0909 	 49.823
| 37> H 	 -6.5388 	 29.8783 	 48.2985
| 38> H 	 -7.43027 	 29.5257 	 49.7481
| 39> H 	 -5.96323 	 34.3779 	 56.9764
| 40> H 	 -9.28873 	 36.287 	 49.7668
| 41> *
| 42>
| 43>                          ****END OF INPUT****

CARTESIAN COORDINATES (ANGSTROEM)
---------------------------------
  S     -7.452220   34.807200   55.079500
  C     -6.085840   34.217900   55.935900
  C     -5.333510   33.407500   55.068100
  C     -5.825300   33.443700   53.729300
  C     -6.929180   34.227900   53.513400
  H     -5.309120   33.016000   52.877600
  C     -3.975680   32.858900   55.470000
  H     -4.014050   31.797600   55.378700
  H     -3.758210   33.061900   56.536500
  C     -2.790530   33.512400   54.766400
  H     -1.927900   33.054800   55.128600
  H     -2.848450   33.194900   53.741600
  C     -2.556860   35.039400   54.977700
  H     -2.643540   35.400300   55.957700
  H     -1.430270   35.245800   54.759900
  H     -3.284370   35.595700   54.401400
  S     -8.652680   35.910400   52.128500
  C     -8.870440   35.586100   50.428900
  C     -8.433000   34.345300   50.063300
  C     -7.860070   33.638100   51.132000
  C     -7.736900   34.434300   52.302100
  H     -8.518220   34.091600   49.021200
  C     -7.380710   32.186800   50.914600
  H     -8.080800   31.606400   51.535300
  H     -6.456520   32.203300   51.457400
  C     -7.113900   31.717800   49.407800
  H     -6.258660   32.234900   48.952400
  H     -7.939220   31.887500   48.777300
  C     -6.710820   30.211300   49.344400
  H     -5.723520   30.090900   49.823000
  H     -6.538800   29.878300   48.298500
  H     -7.430270   29.525700   49.748100
  H     -5.963230   34.377900   56.976400
  H     -9.288730   36.287000   49.766800

 Total Charge           Charge          ....    0
 Multiplicity           Mult            ....    1
 Number of Electrons    NEL             ....  134
 Basis Dimension        Dim             ....  322

ORBITAL ENERGIES
----------------

  NO   OCC          E(Eh)            E(eV)
   0   2.0000     -88.966751     -2420.9084
   1   2.0000     -88.959978     -2420.7241
   2   2.0000     -10.331051      -281.1222
   3   2.0000     -10.330520      -281.1077
   4   2.0000     -10.311882      -280.6006
   5   2.0000     -10.311350      -280.5861
   6   2.0000     -10.307827      -280.4902
   7   2.0000     -10.301339      -280.3137
   8   2.0000     -10.298723      -280.2425
   9   2.0000     -10.297112      -280.1987
  10   2.0000     -10.291902      -280.0569
  11   2.0000     -10.288777      -279.9719
  12   2.0000     -10.288046      -279.9520
  13   2.0000     -10.283767      -279.8355
  14   2.0000     -10.279350      -279.7153
  15   2.0000     -10.278878      -279.7025
  16   2.0000      -8.081724      -219.9149
  17   2.0000      -8.075622      -219.7488
  18   2.0000      -6.040121      -164.3600
  19   2.0000      -6.036266      -164.2551
  20   2.0000      -6.034120      -164.1967
  21   2.0000      -6.032527      -164.1534
  22   2.0000      -6.029822      -164.0798
  23   2.0000      -6.026531      -163.9902
  24   2.0000      -1.008330       -27.4381
  25   2.0000      -0.987730       -26.8775
  26   2.0000      -0.910108       -24.7653
  27   2.0000      -0.901734       -24.5374
  28   2.0000      -0.869622       -23.6636
  29   2.0000      -0.853540       -23.2260
  30   2.0000      -0.840905       -22.8822
  31   2.0000      -0.818232       -22.2652
  32   2.0000      -0.783179       -21.3114
  33   2.0000      -0.770892       -20.9770
  34   2.0000      -0.714666       -19.4470
  35   2.0000      -0.706207       -19.2169
  36   2.0000      -0.694966       -18.9110
  37   2.0000      -0.654362       -17.8061
  38   2.0000      -0.642860       -17.4931
  39   2.0000      -0.625405       -17.0181
  40   2.0000      -0.594773       -16.1846
  41   2.0000      -0.569179       -15.4881
  42   2.0000      -0.567721       -15.4485
  43   2.0000      -0.549450       -14.9513
  44   2.0000      -0.544284       -14.8107
  45   2.0000      -0.529001       -14.3948
  46   2.0000      -0.520539       -14.1646
  47   2.0000      -0.509725       -13.8703
  48   2.0000      -0.503202       -13.6928
  49   2.0000      -0.497420       -13.5355
  50   2.0000      -0.490620       -13.3504
  51   2.0000      -0.482641       -13.1333
  52   2.0000      -0.470495       -12.8028
  53   2.0000      -0.464009       -12.6263
  54   2.0000      -0.462568       -12.5871
  55   2.0000      -0.451635       -12.2896
  56   2.0000      -0.440806       -11.9949
  57   2.0000      -0.440340       -11.9822
  58   2.0000      -0.437232       -11.8977
  59   2.0000      -0.425656       -11.5827
  60   2.0000      -0.420462       -11.4414
  61   2.0000      -0.413916       -11.2632
  62   2.0000      -0.405530       -11.0350
  63   2.0000      -0.357820        -9.7368
  64   2.0000      -0.335710        -9.1351
  65   2.0000      -0.325635        -8.8610
  66   2.0000      -0.280710        -7.6385
  67   0.0000       0.020439         0.5562
  68   0.0000       0.081863         2.2276
  69   0.0000       0.108458         2.9513
  70   0.0000       0.125607         3.4179
  71   0.0000       0.135058         3.6751

MULLIKEN ATOMIC CHARGES
-----------------------
   0 S :    0.089065
   1 C :   -0.112939
   2 C :   -0.084467
   3 C :   -0.027237
   4 C :   -0.108969
   5 H :    0.026778
   6 C :    0.060843
   7 H :    0.027969
   8 H :    0.014558
   9 C :   -0.041473
  10 H :    0.008409
  11 H :    0.018041
  12 C :   -0.053910
  13 H :    0.013858
  14 H :    0.043618
  15 H :    0.049897
  16 S :    0.111704
  17 C :   -0.069720
  18 C :   -0.046384
  19 C :   -0.068037
  20 C :   -0.145270
  21 H :    0.018776
  22 C :    0.105324
  23 H :    0.052065
  24 H :   -0.004139
  25 C :   -0.076465
  26 H :    0.038669
  27 H :    0.033388
  28 C :   -0.059027
  29 H :    0.033104
  30 H :    0.032338
  31 H :    0.036985
  32 H :    0.045684
  33 H :    0.036964
Sum of atomic charges:    0.0000000

LOEWDIN ATOMIC CHARGES
----------------------
   0 S :    0.410394
   1 C :   -0.201121
   2 C :   -0.064449
   3 C :   -0.078893
   4 C :   -0.186040
   5 H :    0.028148
   6 C :   -0.031326
   7 H :    0.027407
   8 H :    0.029881
   9 C :   -0.036365
  10 H :    0.016177
  11 H :    0.018661
  12 C :   -0.063342
  13 H :    0.015271
  14 H :    0.041131
  15 H :    0.028625
  16 S :    0.412216
  17 C :   -0.171473
  18 C :   -0.076265
  19 C :   -0.048304
  20 C :   -0.209875
  21 H :    0.033682
  22 C :   -0.028852
  23 H :    0.042738
  24 H :    0.025644
  25 C :   -0.032849
  26 H :    0.031855
  27 H :    0.014242
  28 C :   -0.065793
  29 H :    0.027060
  30 H :    0.028940
  31 H :    0.020965
  32 H :    0.023353
  33 H :    0.018557

  Mayer bond orders larger than 0.100000
B(  0-S ,  1-C ) :   1.1571 B(  0-S ,  4-C ) :   1.1572 B(  1-C ,  2-C ) :   1.5601
B(  1-C ,  4-C ) :   0.1045 B(  1-C , 32-H ) :   0.9798 B(  2-C ,  3-C ) :   1.2633
B(  2-C ,  6-C ) :   1.0334 B(  3-C ,  4-C ) :   1.5741 B(  3-C ,  5-H ) :   0.9826
B(  4-C , 20-C ) :   1.0612 B(  6-C ,  7-H ) :   0.9340 B(  6-C ,  8-H ) :   0.9464
B(  6-C ,  9-C ) :   1.0808 B(  9-C , 10-H ) :   0.9536 B(  9-C , 11-H ) :   0.9550
B(  9-C , 12-C ) :   1.0627 B( 12-C , 13-H ) :   0.9753 B( 12-C , 14-H ) :   0.9759
B( 12-C , 15-H ) :   0.9770 B( 16-S , 17-C ) :   1.1649 B( 16-S , 20-C ) :   1.1441
B( 17-C , 18-C ) :   1.5955 B( 17-C , 20-C ) :   0.1034 B( 17-C , 33-H ) :   0.9690
B( 18-C , 19-C ) :   1.2645 B( 18-C , 21-H ) :   0.9948 B( 19-C , 20-C ) :   1.5546
B( 19-C , 22-C ) :   1.0040 B( 22-C , 23-H ) :   0.9298 B( 22-C , 24-H ) :   0.9315
B( 22-C , 25-C ) :   1.0624 B( 25-C , 26-H ) :   0.9581 B( 25-C , 27-H ) :   0.9539
B( 25-C , 28-C ) :   1.0848 B( 28-C , 29-H ) :   0.9764 B( 28-C , 30-H ) :   0.9740
B( 28-C , 31-H ) :   0.9786

Dispersion correction           -0.013897256
FINAL SINGLE POINT ENERGY     -1339.866970426135

DIPOLE MOMENT
-------------
                                X             Y             Z
Electronic contribution:    -20.63853      16.62629       7.69814
Nuclear contribution   :     21.08582     -17.07378      -8.09954
                        -----------------------------------------
Total Dipole Moment    :      0.44730      -0.44749      -0.40141
                        -----------------------------------------
Magnitude (a.u.)       :      0.74930
Magnitude (Debye)      :      1.90456

Rotational constants in cm-1:     0.016633     0.008866     0.006619
Rotational constants in MHz :   498.633019   265.802073   198.428240

                             ****ORCA TERMINATED NORMALLY****
TOTAL RUN TIME: 0 days 0 hours 0 minutes 36 seconds 587 msec
