                         Program Version 4.2.1 -  RELEASE  -
|  1> ! wB97X-D3 SP def2-SVP
|  2> %pal
|  3> nprocs 16
|  4> end
|  5>
|  6> * xyz 0 1
|  7> S 	 -2.34725 	 -14.1727 	 87.5106
|  8> C 	 -1.33647 	 -15.5978 	 87.6116
|  9> C 	 -1.73897 	 -16.6017 	 86.7771
| 10> C 	 -2.99237 	 -16.3472 	 86.2069
| 11> C 	 -3.54756 	 -15.0892 	 86.5205
| 12> H 	 -3.51476 	 -16.9965 	 85.6087
| 13> C 	 -1.04811 	 -17.8614 	 86.4172
| 14> H 	 0.0276527 	 -17.7113 	 86.5617
| 15> H 	 -1.05557 	 -17.8437 	 85.3252
| 16> C 	 -1.57124 	 -19.2654 	 86.9654
| 17> H 	 -1.08106 	 -19.399 	 87.9069
| 18> H 	 -2.6177 	 -19.0885 	 87.1586
| 19> C 	 -1.19575 	 -20.4735 	 86.0708
| 20> H 	 -1.61767 	 -21.3462 	 86.5518
| 21> H 	 -1.70009 	 -20.4035 	 85.1293
| 22> H 	 -0.222714 	 -20.644 	 85.8392
| 23> S 	 -4.88327 	 -12.696 	 86.2464
| 24> C 	 -6.38543 	 -12.6251 	 85.3966
| 25> C 	 -6.78864 	 -13.881 	 84.9966
| 26> C 	 -5.95972 	 -14.9482 	 85.5076
| 27> C 	 -4.75266 	 -14.4752 	 86.008
| 28> H 	 -7.72078 	 -14.0077 	 84.4632
| 29> C 	 -6.46731 	 -16.3974 	 85.4623
| 30> H 	 -6.48785 	 -16.6861 	 86.4952
| 31> H 	 -5.74536 	 -16.9977 	 84.9976
| 32> C 	 -7.91757 	 -16.7398 	 84.9565
| 33> H 	 -7.85501 	 -16.3362 	 83.9903
| 34> H 	 -8.52378 	 -16.2763 	 85.5963
| 35> C 	 -8.12878 	 -18.2779 	 84.8391
| 36> H 	 -8.15224 	 -18.8294 	 85.8166
| 37> H 	 -7.45349 	 -18.7385 	 84.1758
| 38> H 	 -9.1477 	 -18.4606 	 84.4693
| 39> H 	 -0.585606 	 -15.7792 	 88.3376
| 40> H 	 -6.84856 	 -11.6783 	 85.1269
| 41> *
| 42>
| 43>                          ****END OF INPUT****

CARTESIAN COORDINATES (ANGSTROEM)
---------------------------------
  S     -2.347250  -14.172700   87.510600
  C     -1.336470  -15.597800   87.611600
  C     -1.738970  -16.601700   86.777100
  C     -2.992370  -16.347200   86.206900
  C     -3.547560  -15.089200   86.520500
  H     -3.514760  -16.996500   85.608700
  C     -1.048110  -17.861400   86.417200
  H      0.027653  -17.711300   86.561700
  H     -1.055570  -17.843700   85.325200
  C     -1.571240  -19.265400   86.965400
  H     -1.081060  -19.399000   87.906900
  H     -2.617700  -19.088500   87.158600
  C     -1.195750  -20.473500   86.070800
  H     -1.617670  -21.346200   86.551800
  H     -1.700090  -20.403500   85.129300
  H     -0.222714  -20.644000   85.839200
  S     -4.883270  -12.696000   86.246400
  C     -6.385430  -12.625100   85.396600
  C     -6.788640  -13.881000   84.996600
  C     -5.959720  -14.948200   85.507600
  C     -4.752660  -14.475200   86.008000
  H     -7.720780  -14.007700   84.463200
  C     -6.467310  -16.397400   85.462300
  H     -6.487850  -16.686100   86.495200
  H     -5.745360  -16.997700   84.997600
  C     -7.917570  -16.739800   84.956500
  H     -7.855010  -16.336200   83.990300
  H     -8.523780  -16.276300   85.596300
  C     -8.128780  -18.277900   84.839100
  H     -8.152240  -18.829400   85.816600
  H     -7.453490  -18.738500   84.175800
  H     -9.147700  -18.460600   84.469300
  H     -0.585606  -15.779200   88.337600
  H     -6.848560  -11.678300   85.126900

 Total Charge           Charge          ....    0
 Multiplicity           Mult            ....    1
 Number of Electrons    NEL             ....  134
 Basis Dimension        Dim             ....  322

ORBITAL ENERGIES
----------------

  NO   OCC          E(Eh)            E(eV)
   0   2.0000     -88.966216     -2420.8938
   1   2.0000     -88.962003     -2420.7792
   2   2.0000     -10.335500      -281.2432
   3   2.0000     -10.330905      -281.1182
   4   2.0000     -10.316605      -280.7291
   5   2.0000     -10.309034      -280.5231
   6   2.0000     -10.307755      -280.4883
   7   2.0000     -10.293328      -280.0957
   8   2.0000     -10.293216      -280.0926
   9   2.0000     -10.291786      -280.0537
  10   2.0000     -10.289558      -279.9931
  11   2.0000     -10.287920      -279.9485
  12   2.0000     -10.286188      -279.9014
  13   2.0000     -10.285513      -279.8830
  14   2.0000     -10.283319      -279.8233
  15   2.0000     -10.272847      -279.5384
  16   2.0000      -8.079956      -219.8668
  17   2.0000      -8.076773      -219.7802
  18   2.0000      -6.038694      -164.3212
  19   2.0000      -6.035416      -164.2320
  20   2.0000      -6.034698      -164.2125
  21   2.0000      -6.031372      -164.1220
  22   2.0000      -6.030453      -164.0970
  23   2.0000      -6.027309      -164.0114
  24   2.0000      -1.002237       -27.2722
  25   2.0000      -0.981662       -26.7124
  26   2.0000      -0.911015       -24.7900
  27   2.0000      -0.906175       -24.6583
  28   2.0000      -0.870434       -23.6857
  29   2.0000      -0.856011       -23.2933
  30   2.0000      -0.845166       -22.9981
  31   2.0000      -0.813632       -22.1401
  32   2.0000      -0.784878       -21.3576
  33   2.0000      -0.775367       -21.0988
  34   2.0000      -0.720493       -19.6056
  35   2.0000      -0.712780       -19.3957
  36   2.0000      -0.703134       -19.1332
  37   2.0000      -0.657055       -17.8794
  38   2.0000      -0.638065       -17.3626
  39   2.0000      -0.623690       -16.9715
  40   2.0000      -0.596863       -16.2415
  41   2.0000      -0.589412       -16.0387
  42   2.0000      -0.561387       -15.2761
  43   2.0000      -0.557267       -15.1640
  44   2.0000      -0.531904       -14.4738
  45   2.0000      -0.522275       -14.2118
  46   2.0000      -0.516389       -14.0516
  47   2.0000      -0.514387       -13.9972
  48   2.0000      -0.505295       -13.7498
  49   2.0000      -0.504139       -13.7183
  50   2.0000      -0.487643       -13.2694
  51   2.0000      -0.483978       -13.1697
  52   2.0000      -0.477915       -13.0047
  53   2.0000      -0.468641       -12.7524
  54   2.0000      -0.464218       -12.6320
  55   2.0000      -0.454976       -12.3805
  56   2.0000      -0.451573       -12.2879
  57   2.0000      -0.444932       -12.1072
  58   2.0000      -0.434643       -11.8272
  59   2.0000      -0.428925       -11.6716
  60   2.0000      -0.421400       -11.4669
  61   2.0000      -0.410101       -11.1594
  62   2.0000      -0.407949       -11.1009
  63   2.0000      -0.361383        -9.8337
  64   2.0000      -0.333717        -9.0809
  65   2.0000      -0.324741        -8.8366
  66   2.0000      -0.273924        -7.4538
  67   0.0000       0.015033         0.4091
  68   0.0000       0.078465         2.1351
  69   0.0000       0.095038         2.5861
  70   0.0000       0.119958         3.2642
  71   0.0000       0.139403         3.7934

MULLIKEN ATOMIC CHARGES
-----------------------
   0 S :    0.093401
   1 C :   -0.099070
   2 C :   -0.074883
   3 C :    0.022507
   4 C :   -0.107944
   5 H :   -0.037333
   6 C :    0.033928
   7 H :    0.012593
   8 H :    0.024472
   9 C :   -0.041271
  10 H :    0.028260
  11 H :    0.030375
  12 C :   -0.006472
  13 H :    0.030384
  14 H :    0.019336
  15 H :    0.019134
  16 S :    0.076102
  17 C :   -0.077193
  18 C :   -0.046580
  19 C :   -0.063230
  20 C :   -0.118793
  21 H :    0.022675
  22 C :    0.025351
  23 H :    0.029382
  24 H :    0.022724
  25 C :   -0.016756
  26 H :    0.030697
  27 H :    0.014606
  28 C :   -0.043691
  29 H :    0.037412
  30 H :    0.029389
  31 H :    0.032810
  32 H :    0.034006
  33 H :    0.063671
Sum of atomic charges:    0.0000000

LOEWDIN ATOMIC CHARGES
----------------------
   0 S :    0.376965
   1 C :   -0.189785
   2 C :   -0.068878
   3 C :   -0.053224
   4 C :   -0.165575
   5 H :    0.012444
   6 C :   -0.041280
   7 H :    0.028288
   8 H :    0.033952
   9 C :   -0.027398
  10 H :    0.023078
  11 H :    0.024388
  12 C :   -0.052951
  13 H :    0.030882
  14 H :    0.023625
  15 H :    0.013510
  16 S :    0.385012
  17 C :   -0.186306
  18 C :   -0.079099
  19 C :   -0.051955
  20 C :   -0.180067
  21 H :    0.030493
  22 C :   -0.027738
  23 H :    0.033461
  24 H :    0.017409
  25 C :   -0.016108
  26 H :    0.020953
  27 H :    0.008216
  28 C :   -0.059286
  29 H :    0.031495
  30 H :    0.019424
  31 H :    0.030148
  32 H :    0.024017
  33 H :    0.031889

  Mayer bond orders larger than 0.100000
B(  0-S ,  1-C ) :   1.1260 B(  0-S ,  4-C ) :   1.1267 B(  1-C ,  2-C ) :   1.6159
B(  1-C , 32-H ) :   0.9654 B(  2-C ,  3-C ) :   1.2483 B(  2-C ,  6-C ) :   1.0284
B(  3-C ,  4-C ) :   1.5443 B(  3-C ,  5-H ) :   1.0088 B(  4-C , 20-C ) :   1.1204
B(  6-C ,  7-H ) :   0.9359 B(  6-C ,  8-H ) :   0.9422 B(  6-C ,  9-C ) :   1.0318
B(  9-C , 10-H ) :   0.9572 B(  9-C , 11-H ) :   0.9640 B(  9-C , 12-C ) :   1.0766
B( 12-C , 13-H ) :   0.9727 B( 12-C , 14-H ) :   0.9743 B( 12-C , 15-H ) :   0.9784
B( 16-S , 17-C ) :   1.1597 B( 16-S , 20-C ) :   1.1116 B( 17-C , 18-C ) :   1.6064
B( 17-C , 33-H ) :   0.9645 B( 18-C , 19-C ) :   1.2378 B( 18-C , 21-H ) :   0.9835
B( 19-C , 20-C ) :   1.6010 B( 19-C , 22-C ) :   1.0140 B( 22-C , 23-H ) :   0.9312
B( 22-C , 24-H ) :   0.9360 B( 22-C , 25-C ) :   1.0728 B( 25-C , 26-H ) :   0.9497
B( 25-C , 27-H ) :   0.9562 B( 25-C , 28-C ) :   1.0902 B( 28-C , 29-H ) :   0.9752
B( 28-C , 30-H ) :   0.9752 B( 28-C , 31-H ) :   0.9727

Dispersion correction           -0.013139327
FINAL SINGLE POINT ENERGY     -1339.844390280100

DIPOLE MOMENT
-------------
                                X             Y             Z
Electronic contribution:      5.50082      32.11409       7.22835
Nuclear contribution   :     -5.81475     -32.94319      -7.49679
                        -----------------------------------------
Total Dipole Moment    :     -0.31393      -0.82910      -0.26844
                        -----------------------------------------
Magnitude (a.u.)       :      0.92629
Magnitude (Debye)      :      2.35445

Rotational constants in cm-1:     0.015311     0.009068     0.005851
Rotational constants in MHz :   459.024796   271.863816   175.400452

                             ****ORCA TERMINATED NORMALLY****
TOTAL RUN TIME: 0 days 0 hours 0 minutes 30 seconds 870 msec
