                         Program Version 4.2.1 -  RELEASE  -
|  1> ! wB97X-D3 SP def2-SVP
|  2> %pal
|  3> nprocs 16
|  4> end
|  5>
|  6> * xyz 0 1
|  7> S 	 -59.4571 	 36.7312 	 91.153
|  8> C 	 -60.2751 	 35.5666 	 90.1254
|  9> C 	 -59.764 	 35.4677 	 88.8859
| 10> C 	 -58.7075 	 36.4019 	 88.7782
| 11> C 	 -58.3463 	 37.1259 	 89.8792
| 12> H 	 -58.1421 	 36.6026 	 87.9124
| 13> C 	 -60.2244 	 34.4948 	 87.8458
| 14> H 	 -59.6654 	 34.6103 	 86.8832
| 15> H 	 -61.2422 	 34.6716 	 87.4733
| 16> C 	 -60.2433 	 33.0259 	 88.2433
| 17> H 	 -60.9138 	 32.916 	 89.0488
| 18> H 	 -60.7279 	 32.4697 	 87.4753
| 19> C 	 -58.8514 	 32.4804 	 88.5124
| 20> H 	 -58.6432 	 31.5043 	 88.0152
| 21> H 	 -58.0891 	 33.1982 	 88.2298
| 22> H 	 -58.801 	 32.3748 	 89.5865
| 23> S 	 -58.2566 	 39.8533 	 90.6478
| 24> C 	 -56.8725 	 40.79 	 90.2159
| 25> C 	 -56.1415 	 40.1079 	 89.2308
| 26> C 	 -56.4152 	 38.707 	 89.1007
| 27> C 	 -57.575 	 38.3414 	 89.8205
| 28> H 	 -55.2756 	 40.5899 	 88.7374
| 29> C 	 -55.4544 	 37.7785 	 88.4099
| 30> H 	 -54.5428 	 38.2909 	 87.9503
| 31> H 	 -56.0708 	 37.4593 	 87.5471
| 32> C 	 -54.9345 	 36.59 	 89.1572
| 33> H 	 -54.3462 	 35.9929 	 88.4583
| 34> H 	 -55.7268 	 35.9766 	 89.6076
| 35> C 	 -53.9159 	 36.9418 	 90.2417
| 36> H 	 -54.3227 	 37.4569 	 91.1073
| 37> H 	 -53.132 	 37.4611 	 89.7211
| 38> H 	 -53.5103 	 36.0315 	 90.6375
| 39> H 	 -61.1815 	 35.0955 	 90.5334
| 40> H 	 -56.7421 	 41.8415 	 90.4657
| 41> *
| 42>
| 43>                          ****END OF INPUT****

CARTESIAN COORDINATES (ANGSTROEM)
---------------------------------
  S    -59.457100   36.731200   91.153000
  C    -60.275100   35.566600   90.125400
  C    -59.764000   35.467700   88.885900
  C    -58.707500   36.401900   88.778200
  C    -58.346300   37.125900   89.879200
  H    -58.142100   36.602600   87.912400
  C    -60.224400   34.494800   87.845800
  H    -59.665400   34.610300   86.883200
  H    -61.242200   34.671600   87.473300
  C    -60.243300   33.025900   88.243300
  H    -60.913800   32.916000   89.048800
  H    -60.727900   32.469700   87.475300
  C    -58.851400   32.480400   88.512400
  H    -58.643200   31.504300   88.015200
  H    -58.089100   33.198200   88.229800
  H    -58.801000   32.374800   89.586500
  S    -58.256600   39.853300   90.647800
  C    -56.872500   40.790000   90.215900
  C    -56.141500   40.107900   89.230800
  C    -56.415200   38.707000   89.100700
  C    -57.575000   38.341400   89.820500
  H    -55.275600   40.589900   88.737400
  C    -55.454400   37.778500   88.409900
  H    -54.542800   38.290900   87.950300
  H    -56.070800   37.459300   87.547100
  C    -54.934500   36.590000   89.157200
  H    -54.346200   35.992900   88.458300
  H    -55.726800   35.976600   89.607600
  C    -53.915900   36.941800   90.241700
  H    -54.322700   37.456900   91.107300
  H    -53.132000   37.461100   89.721100
  H    -53.510300   36.031500   90.637500
  H    -61.181500   35.095500   90.533400
  H    -56.742100   41.841500   90.465700

 Total Charge           Charge          ....    0
 Multiplicity           Mult            ....    1
 Number of Electrons    NEL             ....  134
 Basis Dimension        Dim             ....  322

ORBITAL ENERGIES
----------------

  NO   OCC          E(Eh)            E(eV)
   0   2.0000     -88.965357     -2420.8704
   1   2.0000     -88.963685     -2420.8249
   2   2.0000     -10.334939      -281.2280
   3   2.0000     -10.324884      -280.9544
   4   2.0000     -10.318415      -280.7784
   5   2.0000     -10.316028      -280.7134
   6   2.0000     -10.307138      -280.4715
   7   2.0000     -10.300908      -280.3020
   8   2.0000     -10.297604      -280.2120
   9   2.0000     -10.296372      -280.1785
  10   2.0000     -10.295436      -280.1531
  11   2.0000     -10.289983      -280.0047
  12   2.0000     -10.281829      -279.7828
  13   2.0000     -10.278327      -279.6875
  14   2.0000     -10.273731      -279.5624
  15   2.0000     -10.267399      -279.3901
  16   2.0000      -8.080616      -219.8847
  17   2.0000      -8.077311      -219.7948
  18   2.0000      -6.039032      -164.3304
  19   2.0000      -6.035928      -164.2459
  20   2.0000      -6.035062      -164.2224
  21   2.0000      -6.032039      -164.1401
  22   2.0000      -6.031416      -164.1232
  23   2.0000      -6.027941      -164.0286
  24   2.0000      -1.011098       -27.5134
  25   2.0000      -0.979835       -26.6627
  26   2.0000      -0.919811       -25.0293
  27   2.0000      -0.913532       -24.8585
  28   2.0000      -0.872000       -23.7283
  29   2.0000      -0.854228       -23.2447
  30   2.0000      -0.844570       -22.9819
  31   2.0000      -0.808080       -21.9890
  32   2.0000      -0.786213       -21.3939
  33   2.0000      -0.776476       -21.1290
  34   2.0000      -0.709896       -19.3172
  35   2.0000      -0.706588       -19.2272
  36   2.0000      -0.683366       -18.5953
  37   2.0000      -0.663000       -18.0411
  38   2.0000      -0.643330       -17.5059
  39   2.0000      -0.613946       -16.7063
  40   2.0000      -0.593484       -16.1495
  41   2.0000      -0.579439       -15.7673
  42   2.0000      -0.558925       -15.2091
  43   2.0000      -0.553733       -15.0679
  44   2.0000      -0.552073       -15.0227
  45   2.0000      -0.538121       -14.6430
  46   2.0000      -0.515766       -14.0347
  47   2.0000      -0.506583       -13.7848
  48   2.0000      -0.500843       -13.6286
  49   2.0000      -0.498239       -13.5578
  50   2.0000      -0.492243       -13.3946
  51   2.0000      -0.479272       -13.0416
  52   2.0000      -0.475493       -12.9388
  53   2.0000      -0.466213       -12.6863
  54   2.0000      -0.459534       -12.5046
  55   2.0000      -0.442050       -12.0288
  56   2.0000      -0.437754       -11.9119
  57   2.0000      -0.435927       -11.8622
  58   2.0000      -0.433546       -11.7974
  59   2.0000      -0.426067       -11.5939
  60   2.0000      -0.420011       -11.4291
  61   2.0000      -0.414222       -11.2715
  62   2.0000      -0.410975       -11.1832
  63   2.0000      -0.353264        -9.6128
  64   2.0000      -0.334586        -9.1045
  65   2.0000      -0.325270        -8.8511
  66   2.0000      -0.283819        -7.7231
  67   0.0000       0.017538         0.4772
  68   0.0000       0.073699         2.0055
  69   0.0000       0.102347         2.7850
  70   0.0000       0.120234         3.2717
  71   0.0000       0.127669         3.4741

MULLIKEN ATOMIC CHARGES
-----------------------
   0 S :    0.095630
   1 C :   -0.163650
   2 C :   -0.002910
   3 C :    0.019983
   4 C :   -0.134498
   5 H :   -0.022207
   6 C :    0.035780
   7 H :    0.023802
   8 H :    0.030602
   9 C :   -0.052029
  10 H :    0.013348
  11 H :    0.014691
  12 C :   -0.039187
  13 H :    0.042297
  14 H :    0.030942
  15 H :    0.032749
  16 S :    0.089044
  17 C :   -0.097460
  18 C :   -0.049320
  19 C :   -0.038268
  20 C :   -0.139518
  21 H :    0.026896
  22 C :    0.036703
  23 H :    0.027536
  24 H :    0.039171
  25 C :   -0.073342
  26 H :    0.023924
  27 H :    0.042947
  28 C :   -0.024289
  29 H :    0.044033
  30 H :    0.014971
  31 H :    0.021601
  32 H :    0.060943
  33 H :    0.069087
Sum of atomic charges:    0.0000000

LOEWDIN ATOMIC CHARGES
----------------------
   0 S :    0.405948
   1 C :   -0.176390
   2 C :   -0.071676
   3 C :   -0.046265
   4 C :   -0.210496
   5 H :    0.019839
   6 C :   -0.034819
   7 H :    0.032261
   8 H :    0.035289
   9 C :   -0.037938
  10 H :    0.015295
  11 H :    0.021303
  12 C :   -0.065909
  13 H :    0.031702
  14 H :    0.024979
  15 H :    0.029495
  16 S :    0.372075
  17 C :   -0.194946
  18 C :   -0.076456
  19 C :   -0.057950
  20 C :   -0.165491
  21 H :    0.031808
  22 C :   -0.040793
  23 H :    0.037540
  24 H :    0.035159
  25 C :   -0.041944
  26 H :    0.027179
  27 H :    0.025865
  28 C :   -0.057554
  29 H :    0.026969
  30 H :    0.019531
  31 H :    0.023109
  32 H :    0.029657
  33 H :    0.033627

  Mayer bond orders larger than 0.100000
B(  0-S ,  1-C ) :   1.1588 B(  0-S ,  4-C ) :   1.1311 B(  1-C ,  2-C ) :   1.5838
B(  1-C , 32-H ) :   0.9650 B(  2-C ,  3-C ) :   1.2560 B(  2-C ,  6-C ) :   1.0174
B(  3-C ,  4-C ) :   1.5527 B(  3-C ,  5-H ) :   0.9982 B(  4-C , 20-C ) :   1.0924
B(  6-C ,  7-H ) :   0.9439 B(  6-C ,  8-H ) :   0.9323 B(  6-C ,  9-C ) :   1.0989
B(  9-C , 10-H ) :   0.9585 B(  9-C , 11-H ) :   0.9530 B(  9-C , 12-C ) :   1.0524
B( 12-C , 13-H ) :   0.9779 B( 12-C , 14-H ) :   0.9828 B( 12-C , 15-H ) :   0.9758
B( 16-S , 17-C ) :   1.1554 B( 16-S , 20-C ) :   1.1160 B( 17-C , 18-C ) :   1.5972
B( 17-C , 20-C ) :   0.1034 B( 17-C , 33-H ) :   0.9668 B( 18-C , 19-C ) :   1.2598
B( 18-C , 21-H ) :   0.9797 B( 19-C , 20-C ) :   1.5696 B( 19-C , 22-C ) :   1.0279
B( 22-C , 23-H ) :   0.9385 B( 22-C , 24-H ) :   0.9188 B( 22-C , 25-C ) :   1.0939
B( 25-C , 26-H ) :   0.9503 B( 25-C , 27-H ) :   0.9494 B( 25-C , 28-C ) :   1.0806
B( 28-C , 29-H ) :   0.9767 B( 28-C , 30-H ) :   0.9733 B( 28-C , 31-H ) :   0.9726

Dispersion correction           -0.014769118
FINAL SINGLE POINT ENERGY     -1339.869958872205

DIPOLE MOMENT
-------------
                                X             Y             Z
Electronic contribution:    -11.44322      20.55230      11.97943
Nuclear contribution   :     11.53785     -20.94548     -12.54596
                        -----------------------------------------
Total Dipole Moment    :      0.09463      -0.39319      -0.56653
                        -----------------------------------------
Magnitude (a.u.)       :      0.69606
Magnitude (Debye)      :      1.76925

Rotational constants in cm-1:     0.020754     0.008846     0.007074
Rotational constants in MHz :   622.203570   265.193692   212.082027

                             ****ORCA TERMINATED NORMALLY****
TOTAL RUN TIME: 0 days 0 hours 0 minutes 32 seconds 726 msec
