                         Program Version 4.2.1 -  RELEASE  -
|  1> ! wB97X-D3 SP def2-SVP
|  2> %pal
|  3> nprocs 16
|  4> end
|  5>
|  6> * xyz 0 1
|  7> S 	 -9.14017 	 30.3168 	 55.6144
|  8> C 	 -8.31877 	 28.8944 	 56.1441
|  9> C 	 -6.97208 	 28.861 	 55.7203
| 10> C 	 -6.71234 	 29.9992 	 54.8432
| 11> C 	 -7.79993 	 30.8161 	 54.6792
| 12> H 	 -5.79743 	 30.2727 	 54.4162
| 13> C 	 -5.86258 	 27.8952 	 55.8196
| 14> H 	 -5.8156 	 27.4378 	 54.8754
| 15> H 	 -6.21688 	 27.1889 	 56.5708
| 16> C 	 -4.5362 	 28.3295 	 56.5267
| 17> H 	 -3.75221 	 27.5069 	 56.5168
| 18> H 	 -4.02489 	 29.0462 	 55.8899
| 19> C 	 -4.67942 	 28.827 	 58.0159
| 20> H 	 -5.31744 	 29.7396 	 57.9792
| 21> H 	 -5.15264 	 27.9955 	 58.6312
| 22> H 	 -3.72709 	 29.0604 	 58.4892
| 23> S 	 -7.91144 	 33.6932 	 54.3534
| 24> C 	 -7.63699 	 34.4356 	 52.8287
| 25> C 	 -7.42785 	 33.4097 	 51.8631
| 26> C 	 -7.53431 	 32.0844 	 52.3971
| 27> C 	 -7.79417 	 31.9943 	 53.7307
| 28> H 	 -7.37105 	 33.7198 	 50.8622
| 29> C 	 -7.32692 	 30.9201 	 51.4489
| 30> H 	 -6.59912 	 30.1489 	 51.7691
| 31> H 	 -6.88911 	 31.2541 	 50.4972
| 32> C 	 -8.67517 	 30.1461 	 51.2401
| 33> H 	 -9.6102 	 30.7028 	 51.1779
| 34> H 	 -8.81067 	 29.4305 	 52.0196
| 35> C 	 -8.68808 	 29.2427 	 50.0107
| 36> H 	 -7.64282 	 28.8414 	 49.8793
| 37> H 	 -8.9418 	 29.8843 	 49.1254
| 38> H 	 -9.48812 	 28.4998 	 50.0792
| 39> H 	 -8.68745 	 28.1548 	 56.8389
| 40> H 	 -7.741 	 35.4372 	 52.6787
| 41> *
| 42>
| 43>                          ****END OF INPUT****

CARTESIAN COORDINATES (ANGSTROEM)
---------------------------------
  S     -9.140170   30.316800   55.614400
  C     -8.318770   28.894400   56.144100
  C     -6.972080   28.861000   55.720300
  C     -6.712340   29.999200   54.843200
  C     -7.799930   30.816100   54.679200
  H     -5.797430   30.272700   54.416200
  C     -5.862580   27.895200   55.819600
  H     -5.815600   27.437800   54.875400
  H     -6.216880   27.188900   56.570800
  C     -4.536200   28.329500   56.526700
  H     -3.752210   27.506900   56.516800
  H     -4.024890   29.046200   55.889900
  C     -4.679420   28.827000   58.015900
  H     -5.317440   29.739600   57.979200
  H     -5.152640   27.995500   58.631200
  H     -3.727090   29.060400   58.489200
  S     -7.911440   33.693200   54.353400
  C     -7.636990   34.435600   52.828700
  C     -7.427850   33.409700   51.863100
  C     -7.534310   32.084400   52.397100
  C     -7.794170   31.994300   53.730700
  H     -7.371050   33.719800   50.862200
  C     -7.326920   30.920100   51.448900
  H     -6.599120   30.148900   51.769100
  H     -6.889110   31.254100   50.497200
  C     -8.675170   30.146100   51.240100
  H     -9.610200   30.702800   51.177900
  H     -8.810670   29.430500   52.019600
  C     -8.688080   29.242700   50.010700
  H     -7.642820   28.841400   49.879300
  H     -8.941800   29.884300   49.125400
  H     -9.488120   28.499800   50.079200
  H     -8.687450   28.154800   56.838900
  H     -7.741000   35.437200   52.678700

 Total Charge           Charge          ....    0
 Multiplicity           Mult            ....    1
 Number of Electrons    NEL             ....  134
 Basis Dimension        Dim             ....  322

ORBITAL ENERGIES
----------------

  NO   OCC          E(Eh)            E(eV)
   0   2.0000     -88.971079     -2421.0261
   1   2.0000     -88.961085     -2420.7542
   2   2.0000     -10.331081      -281.1230
   3   2.0000     -10.328971      -281.0656
   4   2.0000     -10.318712      -280.7864
   5   2.0000     -10.316030      -280.7135
   6   2.0000     -10.304763      -280.4069
   7   2.0000     -10.304140      -280.3899
   8   2.0000     -10.299238      -280.2565
   9   2.0000     -10.296128      -280.1719
  10   2.0000     -10.293480      -280.0998
  11   2.0000     -10.291417      -280.0437
  12   2.0000     -10.290312      -280.0136
  13   2.0000     -10.287467      -279.9362
  14   2.0000     -10.279109      -279.7088
  15   2.0000     -10.277022      -279.6520
  16   2.0000      -8.086548      -220.0461
  17   2.0000      -8.075609      -219.7485
  18   2.0000      -6.045011      -164.4931
  19   2.0000      -6.040913      -164.3816
  20   2.0000      -6.037351      -164.2847
  21   2.0000      -6.034137      -164.1972
  22   2.0000      -6.029900      -164.0819
  23   2.0000      -6.026614      -163.9925
  24   2.0000      -1.005816       -27.3696
  25   2.0000      -0.984237       -26.7824
  26   2.0000      -0.912480       -24.8298
  27   2.0000      -0.904366       -24.6091
  28   2.0000      -0.864394       -23.5214
  29   2.0000      -0.849085       -23.1048
  30   2.0000      -0.846192       -23.0260
  31   2.0000      -0.811457       -22.0809
  32   2.0000      -0.781125       -21.2555
  33   2.0000      -0.771960       -21.0061
  34   2.0000      -0.706117       -19.2144
  35   2.0000      -0.698654       -19.0113
  36   2.0000      -0.685946       -18.6655
  37   2.0000      -0.666229       -18.1290
  38   2.0000      -0.643980       -17.5236
  39   2.0000      -0.621180       -16.9032
  40   2.0000      -0.599632       -16.3168
  41   2.0000      -0.570051       -15.5119
  42   2.0000      -0.564866       -15.3708
  43   2.0000      -0.553589       -15.0639
  44   2.0000      -0.536741       -14.6055
  45   2.0000      -0.526771       -14.3342
  46   2.0000      -0.524789       -14.2802
  47   2.0000      -0.507508       -13.8100
  48   2.0000      -0.502065       -13.6619
  49   2.0000      -0.497435       -13.5359
  50   2.0000      -0.491335       -13.3699
  51   2.0000      -0.482547       -13.1308
  52   2.0000      -0.471846       -12.8396
  53   2.0000      -0.460337       -12.5264
  54   2.0000      -0.456087       -12.4107
  55   2.0000      -0.452244       -12.3062
  56   2.0000      -0.445076       -12.1111
  57   2.0000      -0.435416       -11.8483
  58   2.0000      -0.430115       -11.7040
  59   2.0000      -0.424567       -11.5531
  60   2.0000      -0.413584       -11.2542
  61   2.0000      -0.407196       -11.0804
  62   2.0000      -0.403279       -10.9738
  63   2.0000      -0.338517        -9.2115
  64   2.0000      -0.330603        -8.9962
  65   2.0000      -0.325939        -8.8692
  66   2.0000      -0.303711        -8.2644
  67   0.0000       0.037012         1.0071
  68   0.0000       0.063464         1.7269
  69   0.0000       0.114040         3.1032
  70   0.0000       0.125173         3.4061
  71   0.0000       0.126842         3.4515

MULLIKEN ATOMIC CHARGES
-----------------------
   0 S :    0.138811
   1 C :   -0.111629
   2 C :   -0.120078
   3 C :    0.041540
   4 C :   -0.155463
   5 H :   -0.003314
   6 C :    0.098691
   7 H :    0.044168
   8 H :    0.005887
   9 C :   -0.099194
  10 H :    0.034909
  11 H :    0.023758
  12 C :   -0.083145
  13 H :    0.060407
  14 H :    0.043068
  15 H :    0.044815
  16 S :    0.085363
  17 C :   -0.065855
  18 C :   -0.029759
  19 C :   -0.009913
  20 C :   -0.148825
  21 H :    0.006565
  22 C :    0.063733
  23 H :    0.030406
  24 H :    0.019283
  25 C :   -0.076397
  26 H :    0.032811
  27 H :    0.029462
  28 C :   -0.082217
  29 H :    0.034709
  30 H :    0.031867
  31 H :    0.039221
  32 H :    0.044564
  33 H :    0.031749
Sum of atomic charges:    0.0000000

LOEWDIN ATOMIC CHARGES
----------------------
   0 S :    0.440501
   1 C :   -0.209522
   2 C :   -0.060432
   3 C :   -0.051640
   4 C :   -0.208923
   5 H :    0.022091
   6 C :   -0.035338
   7 H :    0.033964
   8 H :    0.029686
   9 C :   -0.043797
  10 H :    0.030177
  11 H :    0.015063
  12 C :   -0.069158
  13 H :    0.033858
  14 H :    0.031757
  15 H :    0.027885
  16 S :    0.392796
  17 C :   -0.171199
  18 C :   -0.069947
  19 C :   -0.056319
  20 C :   -0.183893
  21 H :    0.022303
  22 C :   -0.029675
  23 H :    0.034004
  24 H :    0.027404
  25 C :   -0.042715
  26 H :    0.024779
  27 H :    0.021330
  28 C :   -0.070150
  29 H :    0.026412
  30 H :    0.024081
  31 H :    0.025654
  32 H :    0.028151
  33 H :    0.010814

  Mayer bond orders larger than 0.100000
B(  0-S ,  1-C ) :   1.1463 B(  0-S ,  4-C ) :   1.1637 B(  1-C ,  2-C ) :   1.6047
B(  1-C , 32-H ) :   0.9658 B(  2-C ,  3-C ) :   1.2148 B(  2-C ,  6-C ) :   1.0240
B(  3-C ,  4-C ) :   1.5938 B(  3-C ,  5-H ) :   1.0031 B(  4-C , 20-C ) :   0.9947
B(  6-C ,  7-H ) :   0.9436 B(  6-C ,  8-H ) :   0.9324 B(  6-C ,  9-C ) :   1.0522
B(  9-C , 10-H ) :   0.9581 B(  9-C , 11-H ) :   0.9585 B(  9-C , 12-C ) :   1.0636
B( 12-C , 13-H ) :   0.9754 B( 12-C , 14-H ) :   0.9744 B( 12-C , 15-H ) :   0.9757
B( 16-S , 17-C ) :   1.1920 B( 16-S , 20-C ) :   1.1220 B( 17-C , 18-C ) :   1.5585
B( 17-C , 20-C ) :   0.1027 B( 17-C , 33-H ) :   0.9828 B( 18-C , 19-C ) :   1.2516
B( 18-C , 21-H ) :   1.0022 B( 19-C , 20-C ) :   1.6104 B( 19-C , 22-C ) :   1.0486
B( 22-C , 23-H ) :   0.9280 B( 22-C , 24-H ) :   0.9468 B( 22-C , 25-C ) :   1.0455
B( 25-C , 26-H ) :   0.9644 B( 25-C , 27-H ) :   0.9562 B( 25-C , 28-C ) :   1.0838
B( 28-C , 29-H ) :   0.9716 B( 28-C , 30-H ) :   0.9793 B( 28-C , 31-H ) :   0.9759

Dispersion correction           -0.014660463
FINAL SINGLE POINT ENERGY     -1339.860319596834

DIPOLE MOMENT
-------------
                                X             Y             Z
Electronic contribution:    -11.72390      18.05468       6.69899
Nuclear contribution   :     12.09179     -18.42502      -6.93004
                        -----------------------------------------
Total Dipole Moment    :      0.36789      -0.37034      -0.23105
                        -----------------------------------------
Magnitude (a.u.)       :      0.57086
Magnitude (Debye)      :      1.45101

Rotational constants in cm-1:     0.017621     0.008644     0.007370
Rotational constants in MHz :   528.267482   259.127698   220.956890

                             ****ORCA TERMINATED NORMALLY****
TOTAL RUN TIME: 0 days 0 hours 0 minutes 35 seconds 464 msec
