                         Program Version 4.2.1 -  RELEASE  -
|  1> ! wB97X-D3 SP def2-SVP
|  2> %pal
|  3> nprocs 16
|  4> end
|  5>
|  6> * xyz 0 1
|  7> S 	 -69.5446 	 33.9782 	 120.714
|  8> C 	 -68.5287 	 34.8059 	 121.912
|  9> C 	 -68.9049 	 36.1533 	 122
| 10> C 	 -70.2267 	 36.3441 	 121.47
| 11> C 	 -70.6903 	 35.2308 	 120.786
| 12> H 	 -70.8378 	 37.2723 	 121.348
| 13> C 	 -68.1127 	 37.3458 	 122.56
| 14> H 	 -67.3581 	 37.0429 	 123.266
| 15> H 	 -68.8221 	 38.0062 	 123.071
| 16> C 	 -67.6706 	 38.4796 	 121.613
| 17> H 	 -67.5378 	 39.4541 	 122.173
| 18> H 	 -66.6587 	 38.2723 	 121.21
| 19> C 	 -68.5827 	 38.9176 	 120.483
| 20> H 	 -68.7418 	 38.1428 	 119.722
| 21> H 	 -69.5468 	 39.2869 	 120.764
| 22> H 	 -68.0762 	 39.7238 	 119.856
| 23> S 	 -71.8685 	 36.3677 	 118.67
| 24> C 	 -73.2266 	 35.5146 	 117.858
| 25> C 	 -73.7166 	 34.4845 	 118.574
| 26> C 	 -72.8825 	 34.2571 	 119.751
| 27> C 	 -71.8942 	 35.1589 	 119.924
| 28> H 	 -74.4811 	 33.8296 	 118.102
| 29> C 	 -73.1444 	 33.0612 	 120.596
| 30> H 	 -74.2371 	 32.9706 	 120.73
| 31> H 	 -72.5993 	 33.1874 	 121.527
| 32> C 	 -72.5038 	 31.7947 	 120.049
| 33> H 	 -71.4628 	 32.0793 	 119.838
| 34> H 	 -72.867 	 31.5433 	 119.043
| 35> C 	 -72.5465 	 30.6084 	 120.965
| 36> H 	 -72.3599 	 29.6738 	 120.383
| 37> H 	 -73.5242 	 30.512 	 121.436
| 38> H 	 -71.7427 	 30.5923 	 121.72
| 39> H 	 -67.6331 	 34.4893 	 122.386
| 40> H 	 -73.9411 	 35.8197 	 117.07
| 41> *
| 42>
| 43>                          ****END OF INPUT****

CARTESIAN COORDINATES (ANGSTROEM)
---------------------------------
  S    -69.544600   33.978200  120.714000
  C    -68.528700   34.805900  121.912000
  C    -68.904900   36.153300  122.000000
  C    -70.226700   36.344100  121.470000
  C    -70.690300   35.230800  120.786000
  H    -70.837800   37.272300  121.348000
  C    -68.112700   37.345800  122.560000
  H    -67.358100   37.042900  123.266000
  H    -68.822100   38.006200  123.071000
  C    -67.670600   38.479600  121.613000
  H    -67.537800   39.454100  122.173000
  H    -66.658700   38.272300  121.210000
  C    -68.582700   38.917600  120.483000
  H    -68.741800   38.142800  119.722000
  H    -69.546800   39.286900  120.764000
  H    -68.076200   39.723800  119.856000
  S    -71.868500   36.367700  118.670000
  C    -73.226600   35.514600  117.858000
  C    -73.716600   34.484500  118.574000
  C    -72.882500   34.257100  119.751000
  C    -71.894200   35.158900  119.924000
  H    -74.481100   33.829600  118.102000
  C    -73.144400   33.061200  120.596000
  H    -74.237100   32.970600  120.730000
  H    -72.599300   33.187400  121.527000
  C    -72.503800   31.794700  120.049000
  H    -71.462800   32.079300  119.838000
  H    -72.867000   31.543300  119.043000
  C    -72.546500   30.608400  120.965000
  H    -72.359900   29.673800  120.383000
  H    -73.524200   30.512000  121.436000
  H    -71.742700   30.592300  121.720000
  H    -67.633100   34.489300  122.386000
  H    -73.941100   35.819700  117.070000

 Total Charge           Charge          ....    0
 Multiplicity           Mult            ....    1
 Number of Electrons    NEL             ....  134
 Basis Dimension        Dim             ....  322

ORBITAL ENERGIES
----------------

  NO   OCC          E(Eh)            E(eV)
   0   2.0000     -88.971550     -2421.0390
   1   2.0000     -88.965038     -2420.8618
   2   2.0000     -10.328311      -281.0476
   3   2.0000     -10.323477      -280.9161
   4   2.0000     -10.316998      -280.7398
   5   2.0000     -10.315899      -280.7099
   6   2.0000     -10.309869      -280.5458
   7   2.0000     -10.300443      -280.2893
   8   2.0000     -10.296579      -280.1842
   9   2.0000     -10.296167      -280.1729
  10   2.0000     -10.295383      -280.1516
  11   2.0000     -10.295001      -280.1412
  12   2.0000     -10.284605      -279.8583
  13   2.0000     -10.280285      -279.7408
  14   2.0000     -10.279298      -279.7139
  15   2.0000     -10.276475      -279.6371
  16   2.0000      -8.085985      -220.0308
  17   2.0000      -8.079178      -219.8456
  18   2.0000      -6.044501      -164.4792
  19   2.0000      -6.040594      -164.3729
  20   2.0000      -6.038003      -164.3024
  21   2.0000      -6.036697      -164.2669
  22   2.0000      -6.033826      -164.1887
  23   2.0000      -6.029567      -164.0729
  24   2.0000      -1.011312       -27.5192
  25   2.0000      -0.985543       -26.8180
  26   2.0000      -0.912407       -24.8279
  27   2.0000      -0.911655       -24.8074
  28   2.0000      -0.872417       -23.7397
  29   2.0000      -0.850339       -23.1389
  30   2.0000      -0.843899       -22.9636
  31   2.0000      -0.817992       -22.2587
  32   2.0000      -0.789559       -21.4850
  33   2.0000      -0.769825       -20.9480
  34   2.0000      -0.702162       -19.1068
  35   2.0000      -0.696401       -18.9500
  36   2.0000      -0.688192       -18.7267
  37   2.0000      -0.663841       -18.0640
  38   2.0000      -0.636739       -17.3265
  39   2.0000      -0.610851       -16.6221
  40   2.0000      -0.590426       -16.0663
  41   2.0000      -0.573207       -15.5978
  42   2.0000      -0.565839       -15.3973
  43   2.0000      -0.559566       -15.2266
  44   2.0000      -0.538626       -14.6568
  45   2.0000      -0.523726       -14.2513
  46   2.0000      -0.517140       -14.0721
  47   2.0000      -0.506835       -13.7917
  48   2.0000      -0.502141       -13.6639
  49   2.0000      -0.495905       -13.4943
  50   2.0000      -0.490697       -13.3526
  51   2.0000      -0.476369       -12.9627
  52   2.0000      -0.473078       -12.8731
  53   2.0000      -0.471485       -12.8297
  54   2.0000      -0.456843       -12.4313
  55   2.0000      -0.447720       -12.1831
  56   2.0000      -0.444605       -12.0983
  57   2.0000      -0.439651       -11.9635
  58   2.0000      -0.427800       -11.6410
  59   2.0000      -0.420668       -11.4470
  60   2.0000      -0.419686       -11.4202
  61   2.0000      -0.407930       -11.1003
  62   2.0000      -0.406517       -11.0619
  63   2.0000      -0.342891        -9.3305
  64   2.0000      -0.330639        -8.9971
  65   2.0000      -0.322773        -8.7831
  66   2.0000      -0.303681        -8.2636
  67   0.0000       0.032758         0.8914
  68   0.0000       0.067061         1.8248
  69   0.0000       0.095788         2.6065
  70   0.0000       0.108529         2.9532
  71   0.0000       0.122212         3.3256

MULLIKEN ATOMIC CHARGES
-----------------------
   0 S :    0.125398
   1 C :   -0.093476
   2 C :   -0.094465
   3 C :   -0.001182
   4 C :   -0.137009
   5 H :    0.030748
   6 C :    0.094968
   7 H :    0.025577
   8 H :    0.024062
   9 C :   -0.101647
  10 H :    0.038503
  11 H :    0.029332
  12 C :   -0.074083
  13 H :    0.041127
  14 H :    0.028198
  15 H :    0.040432
  16 S :    0.095099
  17 C :   -0.078732
  18 C :   -0.063779
  19 C :   -0.069421
  20 C :   -0.144114
  21 H :    0.046452
  22 C :    0.077764
  23 H :    0.031753
  24 H :    0.019726
  25 C :   -0.086230
  26 H :    0.016209
  27 H :    0.015501
  28 C :   -0.027471
  29 H :    0.032097
  30 H :    0.029691
  31 H :    0.037315
  32 H :    0.031084
  33 H :    0.060573
Sum of atomic charges:    0.0000000

LOEWDIN ATOMIC CHARGES
----------------------
   0 S :    0.434742
   1 C :   -0.194842
   2 C :   -0.051223
   3 C :   -0.075873
   4 C :   -0.210144
   5 H :    0.037624
   6 C :   -0.037268
   7 H :    0.029630
   8 H :    0.038489
   9 C :   -0.044206
  10 H :    0.032517
  11 H :    0.021208
  12 C :   -0.073091
  13 H :    0.025254
  14 H :    0.016316
  15 H :    0.038534
  16 S :    0.385012
  17 C :   -0.178020
  18 C :   -0.074764
  19 C :   -0.054987
  20 C :   -0.201474
  21 H :    0.043722
  22 C :   -0.034201
  23 H :    0.032438
  24 H :    0.030644
  25 C :   -0.048925
  26 H :    0.015460
  27 H :    0.018635
  28 C :   -0.068083
  29 H :    0.032585
  30 H :    0.024193
  31 H :    0.028177
  32 H :    0.021652
  33 H :    0.040271

  Mayer bond orders larger than 0.100000
B(  0-S ,  1-C ) :   1.1280 B(  0-S ,  4-C ) :   1.1743 B(  1-C ,  2-C ) :   1.6129
B(  1-C , 32-H ) :   0.9731 B(  2-C ,  3-C ) :   1.2173 B(  2-C ,  6-C ) :   1.0360
B(  3-C ,  4-C ) :   1.5749 B(  3-C ,  5-H ) :   0.9852 B(  4-C , 20-C ) :   1.0029
B(  6-C ,  7-H ) :   0.9459 B(  6-C ,  8-H ) :   0.9392 B(  6-C ,  9-C ) :   1.0436
B(  9-C , 10-H ) :   0.9630 B(  9-C , 11-H ) :   0.9527 B(  9-C , 12-C ) :   1.0908
B( 12-C , 13-H ) :   0.9648 B( 12-C , 14-H ) :   0.9727 B( 12-C , 15-H ) :   0.9681
B( 16-S , 17-C ) :   1.1214 B( 16-S , 20-C ) :   1.1044 B( 17-C , 18-C ) :   1.7062
B( 17-C , 33-H ) :   0.9482 B( 18-C , 19-C ) :   1.1732 B( 18-C , 21-H ) :   0.9780
B( 19-C , 20-C ) :   1.6799 B( 19-C , 22-C ) :   1.0712 B( 22-C , 23-H ) :   0.9266
B( 22-C , 24-H ) :   0.9272 B( 22-C , 25-C ) :   1.0644 B( 25-C , 26-H ) :   0.9437
B( 25-C , 27-H ) :   0.9538 B( 25-C , 28-C ) :   1.0900 B( 28-C , 29-H ) :   0.9716
B( 28-C , 30-H ) :   0.9723 B( 28-C , 31-H ) :   0.9728

Dispersion correction           -0.015199559
FINAL SINGLE POINT ENERGY     -1339.855137417338

DIPOLE MOMENT
-------------
                                X             Y             Z
Electronic contribution:     -2.46574       0.88801      -6.30037
Nuclear contribution   :      2.46400      -0.84340       6.32787
                        -----------------------------------------
Total Dipole Moment    :     -0.00174       0.04461       0.02750
                        -----------------------------------------
Magnitude (a.u.)       :      0.05244
Magnitude (Debye)      :      0.13328

Rotational constants in cm-1:     0.021939     0.009227     0.006904
Rotational constants in MHz :   657.713624   276.632714   206.976806

                             ****ORCA TERMINATED NORMALLY****
TOTAL RUN TIME: 0 days 0 hours 0 minutes 35 seconds 17 msec
