                         Program Version 4.2.1 -  RELEASE  -
|  1> ! wB97X-D3 SP def2-SVP
|  2> %pal
|  3> nprocs 16
|  4> end
|  5>
|  6> * xyz 0 1
|  7> S 	 37.3578 	 25.2824 	 46.3767
|  8> C 	 37.6077 	 26.6699 	 47.5105
|  9> C 	 38.2407 	 26.2779 	 48.6774
| 10> C 	 38.3062 	 24.8373 	 48.7228
| 11> C 	 37.8911 	 24.1773 	 47.6231
| 12> H 	 38.7327 	 24.2981 	 49.5073
| 13> C 	 38.6024 	 27.1719 	 49.8528
| 14> H 	 38.838 	 26.5147 	 50.647
| 15> H 	 37.872 	 27.8997 	 50.1431
| 16> C 	 39.8341 	 28.042 	 49.4356
| 17> H 	 40.5287 	 27.2826 	 49.2726
| 18> H 	 39.748 	 28.7727 	 48.5653
| 19> C 	 40.5463 	 28.7678 	 50.561
| 20> H 	 39.992 	 29.6446 	 50.8612
| 21> H 	 40.7214 	 28.1479 	 51.3997
| 22> H 	 41.536 	 29.1783 	 50.2675
| 23> S 	 38.264 	 22.108 	 45.9169
| 24> C 	 38.3784 	 20.4401 	 46.4586
| 25> C 	 37.8028 	 20.3506 	 47.7033
| 26> C 	 37.3884 	 21.6379 	 48.2529
| 27> C 	 37.7817 	 22.7045 	 47.4271
| 28> H 	 37.5779 	 19.3702 	 48.1076
| 29> C 	 36.6648 	 21.8144 	 49.603
| 30> H 	 37.1819 	 22.6911 	 50.0008
| 31> H 	 36.7751 	 20.9448 	 50.2805
| 32> C 	 35.1511 	 22.0265 	 49.4877
| 33> H 	 34.7312 	 22.0197 	 50.4738
| 34> H 	 34.6226 	 21.2148 	 48.9532
| 35> C 	 34.7037 	 23.2916 	 48.7919
| 36> H 	 34.8625 	 24.0862 	 49.4629
| 37> H 	 33.6057 	 23.088 	 48.6696
| 38> H 	 35.1301 	 23.4785 	 47.8041
| 39> H 	 37.3812 	 27.7076 	 47.2945
| 40> H 	 38.8223 	 19.5082 	 45.9649
| 41> *
| 42>
| 43>                          ****END OF INPUT****

CARTESIAN COORDINATES (ANGSTROEM)
---------------------------------
  S     37.357800   25.282400   46.376700
  C     37.607700   26.669900   47.510500
  C     38.240700   26.277900   48.677400
  C     38.306200   24.837300   48.722800
  C     37.891100   24.177300   47.623100
  H     38.732700   24.298100   49.507300
  C     38.602400   27.171900   49.852800
  H     38.838000   26.514700   50.647000
  H     37.872000   27.899700   50.143100
  C     39.834100   28.042000   49.435600
  H     40.528700   27.282600   49.272600
  H     39.748000   28.772700   48.565300
  C     40.546300   28.767800   50.561000
  H     39.992000   29.644600   50.861200
  H     40.721400   28.147900   51.399700
  H     41.536000   29.178300   50.267500
  S     38.264000   22.108000   45.916900
  C     38.378400   20.440100   46.458600
  C     37.802800   20.350600   47.703300
  C     37.388400   21.637900   48.252900
  C     37.781700   22.704500   47.427100
  H     37.577900   19.370200   48.107600
  C     36.664800   21.814400   49.603000
  H     37.181900   22.691100   50.000800
  H     36.775100   20.944800   50.280500
  C     35.151100   22.026500   49.487700
  H     34.731200   22.019700   50.473800
  H     34.622600   21.214800   48.953200
  C     34.703700   23.291600   48.791900
  H     34.862500   24.086200   49.462900
  H     33.605700   23.088000   48.669600
  H     35.130100   23.478500   47.804100
  H     37.381200   27.707600   47.294500
  H     38.822300   19.508200   45.964900

 Total Charge           Charge          ....    0
 Multiplicity           Mult            ....    1
 Number of Electrons    NEL             ....  134
 Basis Dimension        Dim             ....  322

ORBITAL ENERGIES
----------------

  NO   OCC          E(Eh)            E(eV)
   0   2.0000     -88.968515     -2420.9564
   1   2.0000     -88.963795     -2420.8279
   2   2.0000     -10.332811      -281.1701
   3   2.0000     -10.328680      -281.0577
   4   2.0000     -10.322355      -280.8856
   5   2.0000     -10.319350      -280.8038
   6   2.0000     -10.308517      -280.5090
   7   2.0000     -10.306077      -280.4426
   8   2.0000     -10.295681      -280.1597
   9   2.0000     -10.295652      -280.1589
  10   2.0000     -10.292513      -280.0735
  11   2.0000     -10.290098      -280.0078
  12   2.0000     -10.286000      -279.8963
  13   2.0000     -10.278431      -279.6903
  14   2.0000     -10.273622      -279.5595
  15   2.0000     -10.264177      -279.3025
  16   2.0000      -8.082279      -219.9300
  17   2.0000      -8.079552      -219.8558
  18   2.0000      -6.041039      -164.3850
  19   2.0000      -6.038145      -164.3063
  20   2.0000      -6.037024      -164.2758
  21   2.0000      -6.033853      -164.1895
  22   2.0000      -6.032723      -164.1587
  23   2.0000      -6.030211      -164.0904
  24   2.0000      -1.009335       -27.4654
  25   2.0000      -0.984409       -26.7871
  26   2.0000      -0.916033       -24.9265
  27   2.0000      -0.906051       -24.6549
  28   2.0000      -0.870058       -23.6755
  29   2.0000      -0.849797       -23.1241
  30   2.0000      -0.843288       -22.9470
  31   2.0000      -0.820203       -22.3189
  32   2.0000      -0.785016       -21.3614
  33   2.0000      -0.771504       -20.9937
  34   2.0000      -0.702458       -19.1148
  35   2.0000      -0.697519       -18.9805
  36   2.0000      -0.685683       -18.6584
  37   2.0000      -0.657864       -17.9014
  38   2.0000      -0.641721       -17.4621
  39   2.0000      -0.626246       -17.0410
  40   2.0000      -0.586955       -15.9719
  41   2.0000      -0.578205       -15.7337
  42   2.0000      -0.567062       -15.4306
  43   2.0000      -0.547172       -14.8893
  44   2.0000      -0.542659       -14.7665
  45   2.0000      -0.526729       -14.3330
  46   2.0000      -0.518826       -14.1180
  47   2.0000      -0.512926       -13.9574
  48   2.0000      -0.508942       -13.8490
  49   2.0000      -0.501768       -13.6538
  50   2.0000      -0.499374       -13.5887
  51   2.0000      -0.475944       -12.9511
  52   2.0000      -0.472346       -12.8532
  53   2.0000      -0.461977       -12.5710
  54   2.0000      -0.458510       -12.4767
  55   2.0000      -0.446694       -12.1552
  56   2.0000      -0.444426       -12.0934
  57   2.0000      -0.443206       -12.0603
  58   2.0000      -0.425848       -11.5879
  59   2.0000      -0.422533       -11.4977
  60   2.0000      -0.416538       -11.3346
  61   2.0000      -0.408513       -11.1162
  62   2.0000      -0.406924       -11.0730
  63   2.0000      -0.352236        -9.5848
  64   2.0000      -0.334633        -9.1058
  65   2.0000      -0.323634        -8.8065
  66   2.0000      -0.290675        -7.9097
  67   0.0000       0.028469         0.7747
  68   0.0000       0.066970         1.8224
  69   0.0000       0.094541         2.5726
  70   0.0000       0.118400         3.2218
  71   0.0000       0.134617         3.6631

MULLIKEN ATOMIC CHARGES
-----------------------
   0 S :    0.095971
   1 C :   -0.118224
   2 C :   -0.081728
   3 C :    0.013995
   4 C :   -0.095741
   5 H :   -0.003304
   6 C :    0.116882
   7 H :    0.009061
   8 H :    0.034042
   9 C :   -0.110480
  10 H :    0.017765
  11 H :    0.053848
  12 C :   -0.031634
  13 H :    0.018443
  14 H :    0.017091
  15 H :    0.033158
  16 S :    0.102236
  17 C :   -0.116623
  18 C :   -0.038308
  19 C :   -0.066697
  20 C :   -0.160408
  21 H :    0.022050
  22 C :    0.092321
  23 H :    0.011902
  24 H :    0.024308
  25 C :   -0.073798
  26 H :    0.020941
  27 H :    0.022840
  28 C :   -0.042414
  29 H :    0.023218
  30 H :    0.031406
  31 H :    0.047016
  32 H :    0.044552
  33 H :    0.086312
Sum of atomic charges:    0.0000000

LOEWDIN ATOMIC CHARGES
----------------------
   0 S :    0.376930
   1 C :   -0.171539
   2 C :   -0.052348
   3 C :   -0.065787
   4 C :   -0.181458
   5 H :    0.020676
   6 C :   -0.016974
   7 H :    0.026206
   8 H :    0.029384
   9 C :   -0.043550
  10 H :    0.018557
  11 H :    0.035504
  12 C :   -0.065323
  13 H :    0.017422
  14 H :    0.016962
  15 H :    0.030893
  16 S :    0.423022
  17 C :   -0.203257
  18 C :   -0.074990
  19 C :   -0.056910
  20 C :   -0.217303
  21 H :    0.031677
  22 C :   -0.034185
  23 H :    0.029174
  24 H :    0.032569
  25 C :   -0.042459
  26 H :    0.021273
  27 H :    0.024408
  28 C :   -0.061835
  29 H :    0.016464
  30 H :    0.033102
  31 H :    0.023461
  32 H :    0.026810
  33 H :    0.053424

  Mayer bond orders larger than 0.100000
B(  0-S ,  1-C ) :   1.1157 B(  0-S ,  4-C ) :   1.1296 B(  1-C ,  2-C ) :   1.6434
B(  1-C , 32-H ) :   0.9679 B(  2-C ,  3-C ) :   1.2061 B(  2-C ,  6-C ) :   1.0267
B(  3-C ,  4-C ) :   1.6372 B(  3-C ,  5-H ) :   0.9960 B(  4-C , 20-C ) :   1.0049
B(  6-C ,  7-H ) :   0.9377 B(  6-C ,  8-H ) :   0.9452 B(  6-C ,  9-C ) :   1.0472
B(  9-C , 10-H ) :   0.9568 B(  9-C , 11-H ) :   0.9609 B(  9-C , 12-C ) :   1.0924
B( 12-C , 13-H ) :   0.9721 B( 12-C , 14-H ) :   0.9722 B( 12-C , 15-H ) :   0.9732
B( 16-S , 17-C ) :   1.1477 B( 16-S , 20-C ) :   1.1536 B( 17-C , 18-C ) :   1.6165
B( 17-C , 33-H ) :   0.9582 B( 18-C , 19-C ) :   1.2503 B( 18-C , 21-H ) :   0.9886
B( 19-C , 20-C ) :   1.5694 B( 19-C , 22-C ) :   1.0287 B( 22-C , 23-H ) :   0.9345
B( 22-C , 24-H ) :   0.9356 B( 22-C , 25-C ) :   1.0750 B( 25-C , 26-H ) :   0.9529
B( 25-C , 27-H ) :   0.9579 B( 25-C , 28-C ) :   1.0831 B( 28-C , 29-H ) :   0.9771
B( 28-C , 30-H ) :   0.9741 B( 28-C , 31-H ) :   0.9695

Dispersion correction           -0.014956081
FINAL SINGLE POINT ENERGY     -1339.856122181987

DIPOLE MOMENT
-------------
                                X             Y             Z
Electronic contribution:      1.37157     -11.57601     -21.46513
Nuclear contribution   :     -1.32012      11.60093      22.15659
                        -----------------------------------------
Total Dipole Moment    :      0.05145       0.02492       0.69146
                        -----------------------------------------
Magnitude (a.u.)       :      0.69382
Magnitude (Debye)      :      1.76356

Rotational constants in cm-1:     0.021999     0.007727     0.007061
Rotational constants in MHz :   659.519809   231.651449   211.695704

                             ****ORCA TERMINATED NORMALLY****
TOTAL RUN TIME: 0 days 0 hours 0 minutes 35 seconds 515 msec
