                         Program Version 4.2.1 -  RELEASE  -
|  1> ! wB97X-D3 SP def2-SVP
|  2> %pal
|  3> nprocs 16
|  4> end
|  5>
|  6> * xyz 0 1
|  7> S 	 44.7013 	 10.5738 	 86.2015
|  8> C 	 45.6323 	 9.13697 	 86.3408
|  9> C 	 46.7127 	 9.36704 	 87.1338
| 10> C 	 46.7922 	 10.7291 	 87.6825
| 11> C 	 45.7623 	 11.5273 	 87.2016
| 12> H 	 47.5348 	 11.143 	 88.3933
| 13> C 	 47.7256 	 8.32974 	 87.5905
| 14> H 	 47.2496 	 7.33347 	 87.4221
| 15> H 	 47.9768 	 8.38706 	 88.6487
| 16> C 	 49.0663 	 8.23408 	 86.7675
| 17> H 	 49.5603 	 7.29994 	 87.0203
| 18> H 	 48.8462 	 8.07165 	 85.7451
| 19> C 	 49.8911 	 9.52038 	 86.9071
| 20> H 	 50.8325 	 9.44116 	 86.3537
| 21> H 	 49.3323 	 10.3534 	 86.5141
| 22> H 	 50.1144 	 9.63389 	 87.962
| 23> S 	 46.5219 	 13.7041 	 85.947
| 24> C 	 46.1955 	 15.2497 	 86.6568
| 25> C 	 45.7068 	 15.1315 	 87.9202
| 26> C 	 45.3791 	 13.7851 	 88.2958
| 27> C 	 45.6864 	 12.9605 	 87.2572
| 28> H 	 45.4413 	 15.9442 	 88.5487
| 29> C 	 44.7517 	 13.3269 	 89.6131
| 30> H 	 45.3691 	 12.4787 	 90.0812
| 31> H 	 43.7586 	 12.8607 	 89.2998
| 32> C 	 44.4531 	 14.4656 	 90.6496
| 33> H 	 43.8379 	 15.2066 	 90.2421
| 34> H 	 45.4267 	 14.9444 	 90.9314
| 35> C 	 43.5757 	 13.9272 	 91.8001
| 36> H 	 42.7393 	 13.4576 	 91.3867
| 37> H 	 43.3834 	 14.8373 	 92.4263
| 38> H 	 44.1648 	 13.1714 	 92.4288
| 39> H 	 45.4286 	 8.22321 	 85.8492
| 40> H 	 46.6718 	 16.141 	 86.2131
| 41> *
| 42>
| 43>                          ****END OF INPUT****

CARTESIAN COORDINATES (ANGSTROEM)
---------------------------------
  S     44.701300   10.573800   86.201500
  C     45.632300    9.136970   86.340800
  C     46.712700    9.367040   87.133800
  C     46.792200   10.729100   87.682500
  C     45.762300   11.527300   87.201600
  H     47.534800   11.143000   88.393300
  C     47.725600    8.329740   87.590500
  H     47.249600    7.333470   87.422100
  H     47.976800    8.387060   88.648700
  C     49.066300    8.234080   86.767500
  H     49.560300    7.299940   87.020300
  H     48.846200    8.071650   85.745100
  C     49.891100    9.520380   86.907100
  H     50.832500    9.441160   86.353700
  H     49.332300   10.353400   86.514100
  H     50.114400    9.633890   87.962000
  S     46.521900   13.704100   85.947000
  C     46.195500   15.249700   86.656800
  C     45.706800   15.131500   87.920200
  C     45.379100   13.785100   88.295800
  C     45.686400   12.960500   87.257200
  H     45.441300   15.944200   88.548700
  C     44.751700   13.326900   89.613100
  H     45.369100   12.478700   90.081200
  H     43.758600   12.860700   89.299800
  C     44.453100   14.465600   90.649600
  H     43.837900   15.206600   90.242100
  H     45.426700   14.944400   90.931400
  C     43.575700   13.927200   91.800100
  H     42.739300   13.457600   91.386700
  H     43.383400   14.837300   92.426300
  H     44.164800   13.171400   92.428800
  H     45.428600    8.223210   85.849200
  H     46.671800   16.141000   86.213100

 Total Charge           Charge          ....    0
 Multiplicity           Mult            ....    1
 Number of Electrons    NEL             ....  134
 Basis Dimension        Dim             ....  322

ORBITAL ENERGIES
----------------

  NO   OCC          E(Eh)            E(eV)
   0   2.0000     -88.962144     -2420.7830
   1   2.0000     -88.960276     -2420.7322
   2   2.0000     -10.323087      -280.9055
   3   2.0000     -10.314108      -280.6611
   4   2.0000     -10.313937      -280.6565
   5   2.0000     -10.308180      -280.4998
   6   2.0000     -10.306461      -280.4531
   7   2.0000     -10.300891      -280.3015
   8   2.0000     -10.300276      -280.2848
   9   2.0000     -10.297360      -280.2054
  10   2.0000     -10.291864      -280.0559
  11   2.0000     -10.290625      -280.0221
  12   2.0000     -10.290091      -280.0076
  13   2.0000     -10.285677      -279.8875
  14   2.0000     -10.280279      -279.7406
  15   2.0000     -10.271828      -279.5106
  16   2.0000      -8.078175      -219.8183
  17   2.0000      -8.075990      -219.7589
  18   2.0000      -6.036532      -164.2624
  19   2.0000      -6.034465      -164.2061
  20   2.0000      -6.032625      -164.1561
  21   2.0000      -6.030220      -164.0906
  22   2.0000      -6.028878      -164.0541
  23   2.0000      -6.026858      -163.9991
  24   2.0000      -1.013630       -27.5823
  25   2.0000      -0.987569       -26.8731
  26   2.0000      -0.906830       -24.6761
  27   2.0000      -0.904620       -24.6160
  28   2.0000      -0.873999       -23.7827
  29   2.0000      -0.854129       -23.2420
  30   2.0000      -0.839835       -22.8531
  31   2.0000      -0.813569       -22.1383
  32   2.0000      -0.778176       -21.1753
  33   2.0000      -0.768270       -20.9057
  34   2.0000      -0.704648       -19.1745
  35   2.0000      -0.699664       -19.0388
  36   2.0000      -0.696073       -18.9411
  37   2.0000      -0.656352       -17.8602
  38   2.0000      -0.645261       -17.5584
  39   2.0000      -0.608007       -16.5447
  40   2.0000      -0.597899       -16.2697
  41   2.0000      -0.571031       -15.5385
  42   2.0000      -0.570108       -15.5134
  43   2.0000      -0.541221       -14.7274
  44   2.0000      -0.540123       -14.6975
  45   2.0000      -0.530372       -14.4322
  46   2.0000      -0.514204       -13.9922
  47   2.0000      -0.510368       -13.8878
  48   2.0000      -0.506427       -13.7806
  49   2.0000      -0.496919       -13.5218
  50   2.0000      -0.484124       -13.1737
  51   2.0000      -0.481844       -13.1117
  52   2.0000      -0.471516       -12.8306
  53   2.0000      -0.464900       -12.6506
  54   2.0000      -0.463999       -12.6261
  55   2.0000      -0.451075       -12.2744
  56   2.0000      -0.435225       -11.8431
  57   2.0000      -0.433924       -11.8077
  58   2.0000      -0.429824       -11.6961
  59   2.0000      -0.426587       -11.6080
  60   2.0000      -0.421045       -11.4572
  61   2.0000      -0.416796       -11.3416
  62   2.0000      -0.413010       -11.2386
  63   2.0000      -0.339202        -9.2302
  64   2.0000      -0.324573        -8.8321
  65   2.0000      -0.318991        -8.6802
  66   2.0000      -0.311027        -8.4635
  67   0.0000       0.046254         1.2586
  68   0.0000       0.059318         1.6141
  69   0.0000       0.115545         3.1441
  70   0.0000       0.118047         3.2122
  71   0.0000       0.137890         3.7522

MULLIKEN ATOMIC CHARGES
-----------------------
   0 S :    0.108463
   1 C :   -0.092770
   2 C :   -0.085843
   3 C :    0.036605
   4 C :   -0.198300
   5 H :    0.032181
   6 C :    0.018036
   7 H :    0.019766
   8 H :    0.034724
   9 C :   -0.051236
  10 H :    0.023818
  11 H :    0.008202
  12 C :   -0.042769
  13 H :    0.034446
  14 H :    0.045039
  15 H :    0.022998
  16 S :    0.121945
  17 C :   -0.080123
  18 C :   -0.032552
  19 C :   -0.020425
  20 C :   -0.175288
  21 H :    0.004144
  22 C :    0.021196
  23 H :    0.053187
  24 H :    0.046374
  25 C :   -0.102224
  26 H :    0.025685
  27 H :    0.043975
  28 C :   -0.036221
  29 H :    0.030126
  30 H :    0.047178
  31 H :    0.038846
  32 H :    0.033884
  33 H :    0.066932
Sum of atomic charges:   -0.0000000

LOEWDIN ATOMIC CHARGES
----------------------
   0 S :    0.417185
   1 C :   -0.199825
   2 C :   -0.067386
   3 C :   -0.064754
   4 C :   -0.208906
   5 H :    0.038389
   6 C :   -0.034108
   7 H :    0.031341
   8 H :    0.028167
   9 C :   -0.037249
  10 H :    0.021559
  11 H :    0.015100
  12 C :   -0.063268
  13 H :    0.027069
  14 H :    0.026633
  15 H :    0.021152
  16 S :    0.430727
  17 C :   -0.191371
  18 C :   -0.069822
  19 C :   -0.055914
  20 C :   -0.215519
  21 H :    0.024336
  22 C :   -0.039485
  23 H :    0.042065
  24 H :    0.042524
  25 C :   -0.045151
  26 H :    0.016295
  27 H :    0.028260
  28 C :   -0.058384
  29 H :    0.017238
  30 H :    0.034565
  31 H :    0.030621
  32 H :    0.025045
  33 H :    0.032870

  Mayer bond orders larger than 0.100000
B(  0-S ,  1-C ) :   1.1359 B(  0-S ,  4-C ) :   1.1613 B(  1-C ,  2-C ) :   1.6308
B(  1-C , 32-H ) :   0.9739 B(  2-C ,  3-C ) :   1.2111 B(  2-C ,  6-C ) :   1.0222
B(  3-C ,  4-C ) :   1.5914 B(  3-C ,  5-H ) :   0.9897 B(  4-C , 20-C ) :   1.0005
B(  6-C ,  7-H ) :   0.9423 B(  6-C ,  8-H ) :   0.9519 B(  6-C ,  9-C ) :   1.0709
B(  9-C , 10-H ) :   0.9574 B(  9-C , 11-H ) :   0.9529 B(  9-C , 12-C ) :   1.0777
B( 12-C , 13-H ) :   0.9725 B( 12-C , 14-H ) :   0.9708 B( 12-C , 15-H ) :   0.9772
B( 16-S , 17-C ) :   1.1559 B( 16-S , 20-C ) :   1.1685 B( 17-C , 18-C ) :   1.6017
B( 17-C , 33-H ) :   0.9618 B( 18-C , 19-C ) :   1.2499 B( 18-C , 21-H ) :   0.9915
B( 19-C , 20-C ) :   1.6244 B( 19-C , 22-C ) :   1.0222 B( 22-C , 23-H ) :   0.9323
B( 22-C , 24-H ) :   0.9354 B( 22-C , 25-C ) :   1.0776 B( 25-C , 26-H ) :   0.9515
B( 25-C , 27-H ) :   0.9531 B( 25-C , 28-C ) :   1.0756 B( 28-C , 29-H ) :   0.9743
B( 28-C , 30-H ) :   0.9748 B( 28-C , 31-H ) :   0.9763

Dispersion correction           -0.014157943
FINAL SINGLE POINT ENERGY     -1339.878381480947

DIPOLE MOMENT
-------------
                                X             Y             Z
Electronic contribution:     -7.18358       4.90388     -18.07884
Nuclear contribution   :      7.42326      -4.89819      18.53884
                        -----------------------------------------
Total Dipole Moment    :      0.23968       0.00569       0.46000
                        -----------------------------------------
Magnitude (a.u.)       :      0.51873
Magnitude (Debye)      :      1.31851

Rotational constants in cm-1:     0.018989     0.007894     0.007134
Rotational constants in MHz :   569.286492   236.649327   213.869746

                             ****ORCA TERMINATED NORMALLY****
TOTAL RUN TIME: 0 days 0 hours 0 minutes 29 seconds 160 msec
