                         Program Version 4.2.1 -  RELEASE  -
|  1> ! wB97X-D3 SP def2-SVP
|  2> %pal
|  3> nprocs 16
|  4> end
|  5>
|  6> * xyz 0 1
|  7> S 	 7.83728 	 -11.4283 	 64.471
|  8> C 	 7.96765 	 -10.0062 	 63.5987
|  9> C 	 8.17385 	 -8.8581 	 64.3617
| 10> C 	 8.08392 	 -9.19579 	 65.7408
| 11> C 	 7.94146 	 -10.5446 	 65.988
| 12> H 	 8.11091 	 -8.44732 	 66.5722
| 13> C 	 8.12239 	 -7.43729 	 63.8493
| 14> H 	 7.6078 	 -6.89074 	 64.6142
| 15> H 	 7.39916 	 -7.43528 	 63.0151
| 16> C 	 9.40404 	 -6.65798 	 63.5892
| 17> H 	 9.92403 	 -7.219 	 62.8804
| 18> H 	 8.94954 	 -5.76251 	 63.1897
| 19> C 	 10.3049 	 -6.39545 	 64.8344
| 20> H 	 10.9418 	 -5.53164 	 64.6703
| 21> H 	 9.80315 	 -6.12298 	 65.8052
| 22> H 	 10.9193 	 -7.25311 	 65.1381
| 23> S 	 6.47229 	 -10.7152 	 68.3664
| 24> C 	 6.76794 	 -11.9291 	 69.5217
| 25> C 	 7.91955 	 -12.5881 	 69.1677
| 26> C 	 8.55721 	 -12.1786 	 67.9175
| 27> C 	 7.84363 	 -11.1504 	 67.337
| 28> H 	 8.17368 	 -13.3311 	 69.8684
| 29> C 	 9.64754 	 -12.9636 	 67.3089
| 30> H 	 9.1741 	 -13.5504 	 66.4552
| 31> H 	 9.97352 	 -13.7604 	 67.9797
| 32> C 	 10.8352 	 -12.1446 	 66.751
| 33> H 	 11.0809 	 -11.443 	 67.5153
| 34> H 	 10.3877 	 -11.5125 	 65.9528
| 35> C 	 12.0692 	 -12.8858 	 66.2114
| 36> H 	 12.5881 	 -13.2617 	 67.0629
| 37> H 	 12.7253 	 -12.2953 	 65.5373
| 38> H 	 11.7072 	 -13.7813 	 65.6738
| 39> H 	 7.59664 	 -9.83798 	 62.5509
| 40> H 	 6.31828 	 -12.0719 	 70.5139
| 41> *
| 42>
| 43>                          ****END OF INPUT****

CARTESIAN COORDINATES (ANGSTROEM)
---------------------------------
  S      7.837280  -11.428300   64.471000
  C      7.967650  -10.006200   63.598700
  C      8.173850   -8.858100   64.361700
  C      8.083920   -9.195790   65.740800
  C      7.941460  -10.544600   65.988000
  H      8.110910   -8.447320   66.572200
  C      8.122390   -7.437290   63.849300
  H      7.607800   -6.890740   64.614200
  H      7.399160   -7.435280   63.015100
  C      9.404040   -6.657980   63.589200
  H      9.924030   -7.219000   62.880400
  H      8.949540   -5.762510   63.189700
  C     10.304900   -6.395450   64.834400
  H     10.941800   -5.531640   64.670300
  H      9.803150   -6.122980   65.805200
  H     10.919300   -7.253110   65.138100
  S      6.472290  -10.715200   68.366400
  C      6.767940  -11.929100   69.521700
  C      7.919550  -12.588100   69.167700
  C      8.557210  -12.178600   67.917500
  C      7.843630  -11.150400   67.337000
  H      8.173680  -13.331100   69.868400
  C      9.647540  -12.963600   67.308900
  H      9.174100  -13.550400   66.455200
  H      9.973520  -13.760400   67.979700
  C     10.835200  -12.144600   66.751000
  H     11.080900  -11.443000   67.515300
  H     10.387700  -11.512500   65.952800
  C     12.069200  -12.885800   66.211400
  H     12.588100  -13.261700   67.062900
  H     12.725300  -12.295300   65.537300
  H     11.707200  -13.781300   65.673800
  H      7.596640   -9.837980   62.550900
  H      6.318280  -12.071900   70.513900

 Total Charge           Charge          ....    0
 Multiplicity           Mult            ....    1
 Number of Electrons    NEL             ....  134
 Basis Dimension        Dim             ....  322

ORBITAL ENERGIES
----------------

  NO   OCC          E(Eh)            E(eV)
   0   2.0000     -88.971841     -2421.0469
   1   2.0000     -88.960792     -2420.7462
   2   2.0000     -10.329509      -281.0802
   3   2.0000     -10.326801      -281.0066
   4   2.0000     -10.312972      -280.6302
   5   2.0000     -10.312786      -280.6252
   6   2.0000     -10.303560      -280.3741
   7   2.0000     -10.297648      -280.2132
   8   2.0000     -10.296610      -280.1850
   9   2.0000     -10.292491      -280.0729
  10   2.0000     -10.289218      -279.9838
  11   2.0000     -10.287869      -279.9471
  12   2.0000     -10.285993      -279.8961
  13   2.0000     -10.284451      -279.8541
  14   2.0000     -10.278235      -279.6850
  15   2.0000     -10.277087      -279.6538
  16   2.0000      -8.087128      -220.0619
  17   2.0000      -8.076109      -219.7621
  18   2.0000      -6.045532      -164.5073
  19   2.0000      -6.041517      -164.3980
  20   2.0000      -6.037998      -164.3023
  21   2.0000      -6.034650      -164.2112
  22   2.0000      -6.030404      -164.0956
  23   2.0000      -6.026907      -164.0005
  24   2.0000      -1.010167       -27.4880
  25   2.0000      -0.990162       -26.9437
  26   2.0000      -0.914155       -24.8754
  27   2.0000      -0.906770       -24.6745
  28   2.0000      -0.868409       -23.6306
  29   2.0000      -0.852045       -23.1853
  30   2.0000      -0.846782       -23.0421
  31   2.0000      -0.813641       -22.1403
  32   2.0000      -0.784316       -21.3423
  33   2.0000      -0.772329       -21.0161
  34   2.0000      -0.708931       -19.2910
  35   2.0000      -0.704105       -19.1597
  36   2.0000      -0.686522       -18.6812
  37   2.0000      -0.658347       -17.9145
  38   2.0000      -0.636528       -17.3208
  39   2.0000      -0.615488       -16.7483
  40   2.0000      -0.590281       -16.0624
  41   2.0000      -0.579333       -15.7644
  42   2.0000      -0.559390       -15.2218
  43   2.0000      -0.547632       -14.9018
  44   2.0000      -0.541054       -14.7228
  45   2.0000      -0.518941       -14.1211
  46   2.0000      -0.516165       -14.0456
  47   2.0000      -0.510718       -13.8973
  48   2.0000      -0.506162       -13.7734
  49   2.0000      -0.496065       -13.4986
  50   2.0000      -0.490585       -13.3495
  51   2.0000      -0.483159       -13.1474
  52   2.0000      -0.473541       -12.8857
  53   2.0000      -0.464010       -12.6263
  54   2.0000      -0.460553       -12.5323
  55   2.0000      -0.449541       -12.2326
  56   2.0000      -0.441657       -12.0181
  57   2.0000      -0.435625       -11.8540
  58   2.0000      -0.425932       -11.5902
  59   2.0000      -0.423848       -11.5335
  60   2.0000      -0.422329       -11.4922
  61   2.0000      -0.416949       -11.3458
  62   2.0000      -0.407076       -11.0771
  63   2.0000      -0.346084        -9.4174
  64   2.0000      -0.331546        -9.0218
  65   2.0000      -0.323734        -8.8092
  66   2.0000      -0.296118        -8.0578
  67   0.0000       0.037388         1.0174
  68   0.0000       0.061411         1.6711
  69   0.0000       0.110972         3.0197
  70   0.0000       0.120473         3.2782
  71   0.0000       0.126054         3.4301

MULLIKEN ATOMIC CHARGES
-----------------------
   0 S :    0.141500
   1 C :   -0.130012
   2 C :   -0.095780
   3 C :    0.012635
   4 C :   -0.177875
   5 H :    0.030521
   6 C :    0.018066
   7 H :    0.010923
   8 H :    0.025135
   9 C :    0.014407
  10 H :    0.020608
  11 H :    0.032177
  12 C :   -0.087997
  13 H :    0.037577
  14 H :    0.027224
  15 H :    0.047960
  16 S :    0.107063
  17 C :   -0.100207
  18 C :   -0.048391
  19 C :   -0.014419
  20 C :   -0.153028
  21 H :   -0.000395
  22 C :    0.045458
  23 H :    0.042062
  24 H :    0.013665
  25 C :   -0.103217
  26 H :    0.022231
  27 H :    0.042558
  28 C :   -0.016384
  29 H :    0.024075
  30 H :    0.049611
  31 H :    0.025297
  32 H :    0.067927
  33 H :    0.069024
Sum of atomic charges:   -0.0000000

LOEWDIN ATOMIC CHARGES
----------------------
   0 S :    0.443738
   1 C :   -0.231044
   2 C :   -0.072439
   3 C :   -0.058698
   4 C :   -0.202848
   5 H :    0.038381
   6 C :   -0.035345
   7 H :    0.026284
   8 H :    0.032622
   9 C :   -0.026999
  10 H :    0.018218
  11 H :    0.029816
  12 C :   -0.075423
  13 H :    0.028096
  14 H :    0.028193
  15 H :    0.031108
  16 S :    0.415057
  17 C :   -0.207860
  18 C :   -0.072899
  19 C :   -0.059126
  20 C :   -0.192260
  21 H :    0.021506
  22 C :   -0.040523
  23 H :    0.038529
  24 H :    0.026969
  25 C :   -0.046544
  26 H :    0.018153
  27 H :    0.024344
  28 C :   -0.063952
  29 H :    0.020666
  30 H :    0.033839
  31 H :    0.027578
  32 H :    0.041304
  33 H :    0.041561

  Mayer bond orders larger than 0.100000
B(  0-S ,  1-C ) :   1.1718 B(  0-S ,  4-C ) :   1.1467 B(  1-C ,  2-C ) :   1.5908
B(  1-C , 32-H ) :   0.9493 B(  2-C ,  3-C ) :   1.2727 B(  2-C ,  6-C ) :   1.0125
B(  3-C ,  4-C ) :   1.5678 B(  3-C ,  5-H ) :   0.9859 B(  4-C , 20-C ) :   1.0198
B(  6-C ,  7-H ) :   0.9425 B(  6-C ,  8-H ) :   0.9454 B(  6-C ,  9-C ) :   1.0619
B(  9-C , 10-H ) :   0.9561 B(  9-C , 11-H ) :   0.9542 B(  9-C , 12-C ) :   1.0685
B( 12-C , 13-H ) :   0.9758 B( 12-C , 14-H ) :   0.9765 B( 12-C , 15-H ) :   0.9747
B( 16-S , 17-C ) :   1.1555 B( 16-S , 20-C ) :   1.1444 B( 17-C , 18-C ) :   1.6320
B( 17-C , 33-H ) :   0.9599 B( 18-C , 19-C ) :   1.2112 B( 18-C , 21-H ) :   0.9966
B( 19-C , 20-C ) :   1.5810 B( 19-C , 22-C ) :   1.0643 B( 22-C , 23-H ) :   0.9231
B( 22-C , 24-H ) :   0.9329 B( 22-C , 25-C ) :   1.0459 B( 25-C , 26-H ) :   0.9637
B( 25-C , 27-H ) :   0.9495 B( 25-C , 28-C ) :   1.0796 B( 28-C , 29-H ) :   0.9741
B( 28-C , 30-H ) :   0.9751 B( 28-C , 31-H ) :   0.9725

Dispersion correction           -0.014800710
FINAL SINGLE POINT ENERGY     -1339.873245269602

DIPOLE MOMENT
-------------
                                X             Y             Z
Electronic contribution:    -19.70094      -8.87992       6.15499
Nuclear contribution   :     19.87089       9.09252      -6.20131
                        -----------------------------------------
Total Dipole Moment    :      0.16995       0.21260      -0.04631
                        -----------------------------------------
Magnitude (a.u.)       :      0.27609
Magnitude (Debye)      :      0.70177

Rotational constants in cm-1:     0.017889     0.008882     0.007503
Rotational constants in MHz :   536.298769   266.262990   224.936710

                             ****ORCA TERMINATED NORMALLY****
TOTAL RUN TIME: 0 days 0 hours 0 minutes 30 seconds 305 msec
