                         Program Version 4.2.1 -  RELEASE  -
|  1> ! wB97X-D3 SP def2-SVP
|  2> %pal
|  3> nprocs 16
|  4> end
|  5>
|  6> * xyz 0 1
|  7> S 	 -3.16779 	 61.1097 	 47.7012
|  8> C 	 -4.09378 	 61.7705 	 48.9893
|  9> C 	 -5.14479 	 60.9809 	 49.3816
| 10> C 	 -5.18785 	 59.7828 	 48.675
| 11> C 	 -4.22261 	 59.7211 	 47.7124
| 12> H 	 -5.95419 	 59.0131 	 48.7387
| 13> C 	 -6.0587 	 61.2715 	 50.5
| 14> H 	 -7.09469 	 61.5856 	 50.086
| 15> H 	 -5.72658 	 62.2054 	 50.9879
| 16> C 	 -6.38483 	 60.1269 	 51.4428
| 17> H 	 -6.90021 	 59.3279 	 50.9357
| 18> H 	 -5.46531 	 59.724 	 51.8291
| 19> C 	 -7.2329 	 60.5625 	 52.6927
| 20> H 	 -8.21469 	 60.9226 	 52.4576
| 21> H 	 -7.3338 	 59.7081 	 53.4113
| 22> H 	 -6.75939 	 61.3654 	 53.3066
| 23> S 	 -4.33809 	 59.267 	 45.0554
| 24> C 	 -4.27162 	 57.6525 	 44.3849
| 25> C 	 -3.92825 	 56.7484 	 45.3257
| 26> C 	 -3.84814 	 57.3331 	 46.6392
| 27> C 	 -4.11287 	 58.6999 	 46.6398
| 28> H 	 -3.79572 	 55.7448 	 45.0086
| 29> C 	 -3.40655 	 56.5739 	 47.8391
| 30> H 	 -4.11611 	 55.6709 	 47.7608
| 31> H 	 -3.68359 	 57.0353 	 48.8321
| 32> C 	 -2.00784 	 56.2518 	 47.9332
| 33> H 	 -1.78429 	 55.6224 	 47.0457
| 34> H 	 -1.85195 	 55.7071 	 48.8804
| 35> C 	 -1.03494 	 57.4363 	 48.0153
| 36> H 	 -1.24689 	 58.069 	 48.8757
| 37> H 	 -1.23252 	 58.0902 	 47.1798
| 38> H 	 -0.00507353 	 56.9975 	 48.1434
| 39> H 	 -3.83501 	 62.6406 	 49.557
| 40> H 	 -4.4772 	 57.2713 	 43.3756
| 41> *
| 42>
| 43>                          ****END OF INPUT****

CARTESIAN COORDINATES (ANGSTROEM)
---------------------------------
  S     -3.167790   61.109700   47.701200
  C     -4.093780   61.770500   48.989300
  C     -5.144790   60.980900   49.381600
  C     -5.187850   59.782800   48.675000
  C     -4.222610   59.721100   47.712400
  H     -5.954190   59.013100   48.738700
  C     -6.058700   61.271500   50.500000
  H     -7.094690   61.585600   50.086000
  H     -5.726580   62.205400   50.987900
  C     -6.384830   60.126900   51.442800
  H     -6.900210   59.327900   50.935700
  H     -5.465310   59.724000   51.829100
  C     -7.232900   60.562500   52.692700
  H     -8.214690   60.922600   52.457600
  H     -7.333800   59.708100   53.411300
  H     -6.759390   61.365400   53.306600
  S     -4.338090   59.267000   45.055400
  C     -4.271620   57.652500   44.384900
  C     -3.928250   56.748400   45.325700
  C     -3.848140   57.333100   46.639200
  C     -4.112870   58.699900   46.639800
  H     -3.795720   55.744800   45.008600
  C     -3.406550   56.573900   47.839100
  H     -4.116110   55.670900   47.760800
  H     -3.683590   57.035300   48.832100
  C     -2.007840   56.251800   47.933200
  H     -1.784290   55.622400   47.045700
  H     -1.851950   55.707100   48.880400
  C     -1.034940   57.436300   48.015300
  H     -1.246890   58.069000   48.875700
  H     -1.232520   58.090200   47.179800
  H     -0.005074   56.997500   48.143400
  H     -3.835010   62.640600   49.557000
  H     -4.477200   57.271300   43.375600

 Total Charge           Charge          ....    0
 Multiplicity           Mult            ....    1
 Number of Electrons    NEL             ....  134
 Basis Dimension        Dim             ....  322

ORBITAL ENERGIES
----------------

  NO   OCC          E(Eh)            E(eV)
   0   2.0000     -88.970639     -2421.0142
   1   2.0000     -88.962716     -2420.7986
   2   2.0000     -10.328558      -281.0544
   3   2.0000     -10.321992      -280.8757
   4   2.0000     -10.312843      -280.6267
   5   2.0000     -10.307220      -280.4737
   6   2.0000     -10.300037      -280.2782
   7   2.0000     -10.295998      -280.1683
   8   2.0000     -10.293073      -280.0888
   9   2.0000     -10.289552      -279.9929
  10   2.0000     -10.289490      -279.9912
  11   2.0000     -10.288631      -279.9679
  12   2.0000     -10.286550      -279.9112
  13   2.0000     -10.285941      -279.8947
  14   2.0000     -10.278257      -279.6856
  15   2.0000     -10.272733      -279.5353
  16   2.0000      -8.085832      -220.0267
  17   2.0000      -8.078487      -219.8268
  18   2.0000      -6.044133      -164.4692
  19   2.0000      -6.040362      -164.3666
  20   2.0000      -6.037014      -164.2755
  21   2.0000      -6.036706      -164.2671
  22   2.0000      -6.032807      -164.1610
  23   2.0000      -6.029186      -164.0625
  24   2.0000      -1.015948       -27.6453
  25   2.0000      -0.994388       -27.0587
  26   2.0000      -0.919432       -25.0190
  27   2.0000      -0.914932       -24.8966
  28   2.0000      -0.872534       -23.7429
  29   2.0000      -0.854648       -23.2562
  30   2.0000      -0.843897       -22.9636
  31   2.0000      -0.821100       -22.3433
  32   2.0000      -0.781242       -21.2587
  33   2.0000      -0.770930       -20.9781
  34   2.0000      -0.714309       -19.4373
  35   2.0000      -0.694781       -18.9060
  36   2.0000      -0.684112       -18.6156
  37   2.0000      -0.656528       -17.8650
  38   2.0000      -0.644094       -17.5267
  39   2.0000      -0.628330       -17.0977
  40   2.0000      -0.597724       -16.2649
  41   2.0000      -0.575729       -15.6664
  42   2.0000      -0.562714       -15.3122
  43   2.0000      -0.558154       -15.1881
  44   2.0000      -0.542451       -14.7608
  45   2.0000      -0.524707       -14.2780
  46   2.0000      -0.511973       -13.9315
  47   2.0000      -0.507154       -13.8003
  48   2.0000      -0.500765       -13.6265
  49   2.0000      -0.498426       -13.5629
  50   2.0000      -0.488718       -13.2987
  51   2.0000      -0.478889       -13.0312
  52   2.0000      -0.472205       -12.8494
  53   2.0000      -0.467941       -12.7333
  54   2.0000      -0.459138       -12.4938
  55   2.0000      -0.451437       -12.2842
  56   2.0000      -0.448866       -12.2143
  57   2.0000      -0.438458       -11.9311
  58   2.0000      -0.435083       -11.8392
  59   2.0000      -0.431748       -11.7484
  60   2.0000      -0.422480       -11.4963
  61   2.0000      -0.409896       -11.1538
  62   2.0000      -0.397331       -10.8119
  63   2.0000      -0.350257        -9.5310
  64   2.0000      -0.333399        -9.0722
  65   2.0000      -0.325431        -8.8554
  66   2.0000      -0.295937        -8.0528
  67   0.0000       0.043565         1.1855
  68   0.0000       0.064887         1.7657
  69   0.0000       0.116200         3.1620
  70   0.0000       0.124561         3.3895
  71   0.0000       0.126775         3.4497

MULLIKEN ATOMIC CHARGES
-----------------------
   0 S :    0.131033
   1 C :   -0.115260
   2 C :   -0.054501
   3 C :    0.037605
   4 C :   -0.160958
   5 H :    0.016878
   6 C :    0.047057
   7 H :    0.039822
   8 H :    0.011917
   9 C :   -0.065834
  10 H :    0.035137
  11 H :    0.027932
  12 C :   -0.070202
  13 H :    0.028677
  14 H :    0.040045
  15 H :    0.033691
  16 S :    0.114571
  17 C :   -0.088170
  18 C :   -0.037010
  19 C :   -0.041355
  20 C :   -0.170320
  21 H :    0.007646
  22 C :    0.031716
  23 H :    0.034352
  24 H :    0.021884
  25 C :   -0.059091
  26 H :    0.024778
  27 H :    0.030727
  28 C :   -0.047402
  29 H :    0.021537
  30 H :    0.036560
  31 H :    0.048899
  32 H :    0.032219
  33 H :    0.055422
Sum of atomic charges:    0.0000000

LOEWDIN ATOMIC CHARGES
----------------------
   0 S :    0.425436
   1 C :   -0.204977
   2 C :   -0.069080
   3 C :   -0.057575
   4 C :   -0.191648
   5 H :    0.036020
   6 C :   -0.040347
   7 H :    0.041531
   8 H :    0.029128
   9 C :   -0.036934
  10 H :    0.023415
  11 H :    0.022491
  12 C :   -0.067928
  13 H :    0.018451
  14 H :    0.031741
  15 H :    0.028023
  16 S :    0.425095
  17 C :   -0.190252
  18 C :   -0.070499
  19 C :   -0.064124
  20 C :   -0.218600
  21 H :    0.028565
  22 C :   -0.050128
  23 H :    0.039490
  24 H :    0.032034
  25 C :   -0.049404
  26 H :    0.023483
  27 H :    0.028773
  28 C :   -0.064330
  29 H :    0.023050
  30 H :    0.022382
  31 H :    0.035918
  32 H :    0.022829
  33 H :    0.037970

  Mayer bond orders larger than 0.100000
B(  0-S ,  1-C ) :   1.1366 B(  0-S ,  4-C ) :   1.1692 B(  1-C ,  2-C ) :   1.6135
B(  1-C , 32-H ) :   0.9634 B(  2-C ,  3-C ) :   1.2425 B(  2-C ,  6-C ) :   1.0426
B(  3-C ,  4-C ) :   1.5899 B(  3-C ,  5-H ) :   0.9934 B(  4-C , 20-C ) :   0.9864
B(  6-C ,  7-H ) :   0.9220 B(  6-C ,  8-H ) :   0.9406 B(  6-C ,  9-C ) :   1.0638
B(  9-C , 10-H ) :   0.9454 B(  9-C , 11-H ) :   0.9596 B(  9-C , 12-C ) :   1.0818
B( 12-C , 13-H ) :   0.9767 B( 12-C , 14-H ) :   0.9760 B( 12-C , 15-H ) :   0.9765
B( 16-S , 17-C ) :   1.1441 B( 16-S , 20-C ) :   1.1569 B( 17-C , 18-C ) :   1.6422
B( 17-C , 33-H ) :   0.9614 B( 18-C , 19-C ) :   1.2148 B( 18-C , 21-H ) :   0.9972
B( 19-C , 20-C ) :   1.6036 B( 19-C , 22-C ) :   1.0409 B( 22-C , 23-H ) :   0.9253
B( 22-C , 24-H ) :   0.9322 B( 22-C , 25-C ) :   1.0961 B( 25-C , 26-H ) :   0.9496
B( 25-C , 27-H ) :   0.9486 B( 25-C , 28-C ) :   1.0761 B( 28-C , 29-H ) :   0.9701
B( 28-C , 30-H ) :   0.9743 B( 28-C , 31-H ) :   0.9728

Dispersion correction           -0.014857109
FINAL SINGLE POINT ENERGY     -1339.880650956372

DIPOLE MOMENT
-------------
                                X             Y             Z
Electronic contribution:      3.36614       8.60526     -22.78979
Nuclear contribution   :     -3.60329      -8.92371      23.22342
                        -----------------------------------------
Total Dipole Moment    :     -0.23716      -0.31845       0.43364
                        -----------------------------------------
Magnitude (a.u.)       :      0.58796
Magnitude (Debye)      :      1.49447

Rotational constants in cm-1:     0.020507     0.008081     0.007389
Rotational constants in MHz :   614.779399   242.251912   221.513596

                             ****ORCA TERMINATED NORMALLY****
TOTAL RUN TIME: 0 days 0 hours 0 minutes 34 seconds 668 msec
