                         Program Version 4.2.1 -  RELEASE  -
|  1> ! wB97X-D3 SP def2-SVP
|  2> %pal
|  3> nprocs 16
|  4> end
|  5>
|  6> * xyz 0 1
|  7> S 	 -10.256 	 -11.3727 	 86.1479
|  8> C 	 -11.3277 	 -10.9589 	 84.8942
|  9> C 	 -12.446 	 -11.7393 	 84.8841
| 10> C 	 -12.4171 	 -12.6103 	 86.0363
| 11> C 	 -11.2849 	 -12.537 	 86.7815
| 12> H 	 -13.2468 	 -13.2712 	 86.35
| 13> C 	 -13.6097 	 -11.5569 	 83.9638
| 14> H 	 -13.7268 	 -12.3521 	 83.1982
| 15> H 	 -13.4101 	 -10.6784 	 83.2774
| 16> C 	 -14.9996 	 -11.3222 	 84.6304
| 17> H 	 -15.0236 	 -11.8715 	 85.5622
| 18> H 	 -14.9828 	 -10.278 	 84.9967
| 19> C 	 -16.3292 	 -11.6362 	 83.8006
| 20> H 	 -16.5869 	 -10.8957 	 83.0435
| 21> H 	 -16.2138 	 -12.5685 	 83.351
| 22> H 	 -17.1698 	 -11.727 	 84.5253
| 23> S 	 -10.7442 	 -11.8927 	 89.4359
| 24> C 	 -10.6984 	 -13.2844 	 90.498
| 25> C 	 -10.8887 	 -14.5261 	 89.9123
| 26> C 	 -11.0925 	 -14.3883 	 88.5215
| 27> C 	 -11.0643 	 -13.0723 	 88.1155
| 28> H 	 -10.8548 	 -15.4522 	 90.4663
| 29> C 	 -11.1692 	 -15.6411 	 87.703
| 30> H 	 -12.2302 	 -15.6548 	 87.4533
| 31> H 	 -11.1915 	 -16.4501 	 88.3774
| 32> C 	 -10.1563 	 -15.9989 	 86.6015
| 33> H 	 -10.4108 	 -15.5794 	 85.6372
| 34> H 	 -10.167 	 -17.0365 	 86.3355
| 35> C 	 -8.77653 	 -15.5122 	 87.0061
| 36> H 	 -8.66802 	 -15.5915 	 88.0905
| 37> H 	 -8.62114 	 -14.4743 	 86.6565
| 38> H 	 -8.06032 	 -16.1279 	 86.4533
| 39> H 	 -11.0806 	 -10.2122 	 84.0608
| 40> H 	 -10.4921 	 -13.1889 	 91.5566
| 41> *
| 42>
| 43>                          ****END OF INPUT****

CARTESIAN COORDINATES (ANGSTROEM)
---------------------------------
  S    -10.256000  -11.372700   86.147900
  C    -11.327700  -10.958900   84.894200
  C    -12.446000  -11.739300   84.884100
  C    -12.417100  -12.610300   86.036300
  C    -11.284900  -12.537000   86.781500
  H    -13.246800  -13.271200   86.350000
  C    -13.609700  -11.556900   83.963800
  H    -13.726800  -12.352100   83.198200
  H    -13.410100  -10.678400   83.277400
  C    -14.999600  -11.322200   84.630400
  H    -15.023600  -11.871500   85.562200
  H    -14.982800  -10.278000   84.996700
  C    -16.329200  -11.636200   83.800600
  H    -16.586900  -10.895700   83.043500
  H    -16.213800  -12.568500   83.351000
  H    -17.169800  -11.727000   84.525300
  S    -10.744200  -11.892700   89.435900
  C    -10.698400  -13.284400   90.498000
  C    -10.888700  -14.526100   89.912300
  C    -11.092500  -14.388300   88.521500
  C    -11.064300  -13.072300   88.115500
  H    -10.854800  -15.452200   90.466300
  C    -11.169200  -15.641100   87.703000
  H    -12.230200  -15.654800   87.453300
  H    -11.191500  -16.450100   88.377400
  C    -10.156300  -15.998900   86.601500
  H    -10.410800  -15.579400   85.637200
  H    -10.167000  -17.036500   86.335500
  C     -8.776530  -15.512200   87.006100
  H     -8.668020  -15.591500   88.090500
  H     -8.621140  -14.474300   86.656500
  H     -8.060320  -16.127900   86.453300
  H    -11.080600  -10.212200   84.060800
  H    -10.492100  -13.188900   91.556600

 Total Charge           Charge          ....    0
 Multiplicity           Mult            ....    1
 Number of Electrons    NEL             ....  134
 Basis Dimension        Dim             ....  322

ORBITAL ENERGIES
----------------

  NO   OCC          E(Eh)            E(eV)
   0   2.0000     -88.970475     -2421.0097
   1   2.0000     -88.962551     -2420.7941
   2   2.0000     -10.324435      -280.9422
   3   2.0000     -10.317155      -280.7441
   4   2.0000     -10.316585      -280.7285
   5   2.0000     -10.312836      -280.6265
   6   2.0000     -10.299658      -280.2679
   7   2.0000     -10.299202      -280.2555
   8   2.0000     -10.297682      -280.2142
   9   2.0000     -10.291498      -280.0459
  10   2.0000     -10.291356      -280.0420
  11   2.0000     -10.290566      -280.0205
  12   2.0000     -10.284220      -279.8479
  13   2.0000     -10.282562      -279.8027
  14   2.0000     -10.278703      -279.6977
  15   2.0000     -10.270911      -279.4857
  16   2.0000      -8.084329      -219.9858
  17   2.0000      -8.079744      -219.8610
  18   2.0000      -6.042768      -164.4321
  19   2.0000      -6.039219      -164.3355
  20   2.0000      -6.038038      -164.3034
  21   2.0000      -6.034956      -164.2195
  22   2.0000      -6.033818      -164.1885
  23   2.0000      -6.030654      -164.1024
  24   2.0000      -1.017895       -27.6983
  25   2.0000      -0.987569       -26.8731
  26   2.0000      -0.910673       -24.7807
  27   2.0000      -0.905819       -24.6486
  28   2.0000      -0.867262       -23.5994
  29   2.0000      -0.854269       -23.2458
  30   2.0000      -0.844323       -22.9752
  31   2.0000      -0.811725       -22.0881
  32   2.0000      -0.786363       -21.3980
  33   2.0000      -0.773558       -21.0496
  34   2.0000      -0.711418       -19.3587
  35   2.0000      -0.701117       -19.0784
  36   2.0000      -0.682866       -18.5817
  37   2.0000      -0.663788       -18.0626
  38   2.0000      -0.641945       -17.4682
  39   2.0000      -0.619809       -16.8659
  40   2.0000      -0.587371       -15.9832
  41   2.0000      -0.566510       -15.4155
  42   2.0000      -0.562449       -15.3050
  43   2.0000      -0.549620       -14.9559
  44   2.0000      -0.547161       -14.8890
  45   2.0000      -0.520086       -14.1523
  46   2.0000      -0.515333       -14.0229
  47   2.0000      -0.504179       -13.7194
  48   2.0000      -0.498434       -13.5631
  49   2.0000      -0.491352       -13.3704
  50   2.0000      -0.488909       -13.3039
  51   2.0000      -0.477550       -12.9948
  52   2.0000      -0.471619       -12.8334
  53   2.0000      -0.463402       -12.6098
  54   2.0000      -0.462032       -12.5725
  55   2.0000      -0.455125       -12.3846
  56   2.0000      -0.448429       -12.2024
  57   2.0000      -0.434215       -11.8156
  58   2.0000      -0.431839       -11.7509
  59   2.0000      -0.425380       -11.5752
  60   2.0000      -0.424548       -11.5525
  61   2.0000      -0.411520       -11.1980
  62   2.0000      -0.404769       -11.0143
  63   2.0000      -0.346142        -9.4190
  64   2.0000      -0.335864        -9.1393
  65   2.0000      -0.327648        -8.9158
  66   2.0000      -0.292912        -7.9705
  67   0.0000       0.035651         0.9701
  68   0.0000       0.069408         1.8887
  69   0.0000       0.109633         2.9833
  70   0.0000       0.123235         3.3534
  71   0.0000       0.135178         3.6784

MULLIKEN ATOMIC CHARGES
-----------------------
   0 S :    0.115913
   1 C :   -0.154629
   2 C :   -0.067852
   3 C :    0.013324
   4 C :   -0.165383
   5 H :    0.023098
   6 C :    0.053849
   7 H :    0.030802
   8 H :    0.021415
   9 C :   -0.112355
  10 H :    0.025827
  11 H :    0.033445
  12 C :   -0.035623
  13 H :    0.044042
  14 H :    0.021032
  15 H :    0.039891
  16 S :    0.122047
  17 C :   -0.088102
  18 C :   -0.029472
  19 C :   -0.064313
  20 C :   -0.165550
  21 H :    0.019071
  22 C :    0.112755
  23 H :    0.019513
  24 H :   -0.011066
  25 C :   -0.023790
  26 H :    0.018790
  27 H :    0.018468
  28 C :   -0.041459
  29 H :    0.036497
  30 H :    0.037857
  31 H :    0.027868
  32 H :    0.074102
  33 H :    0.049988
Sum of atomic charges:   -0.0000000

LOEWDIN ATOMIC CHARGES
----------------------
   0 S :    0.448710
   1 C :   -0.219561
   2 C :   -0.072051
   3 C :   -0.064429
   4 C :   -0.224063
   5 H :    0.033761
   6 C :   -0.042439
   7 H :    0.030409
   8 H :    0.033863
   9 C :   -0.043821
  10 H :    0.019994
  11 H :    0.027817
  12 C :   -0.059634
  13 H :    0.026610
  14 H :    0.015092
  15 H :    0.034469
  16 S :    0.389166
  17 C :   -0.176180
  18 C :   -0.070251
  19 C :   -0.052495
  20 C :   -0.187601
  21 H :    0.033051
  22 C :   -0.035791
  23 H :    0.036803
  24 H :    0.023910
  25 C :   -0.038653
  26 H :    0.022896
  27 H :    0.022118
  28 C :   -0.061535
  29 H :    0.025907
  30 H :    0.029977
  31 H :    0.025572
  32 H :    0.044619
  33 H :    0.023759

  Mayer bond orders larger than 0.100000
B(  0-S ,  1-C ) :   1.1553 B(  0-S ,  4-C ) :   1.1664 B(  1-C ,  2-C ) :   1.6110
B(  1-C , 32-H ) :   0.9529 B(  2-C ,  3-C ) :   1.2388 B(  2-C ,  6-C ) :   1.0376
B(  3-C ,  4-C ) :   1.5904 B(  3-C ,  5-H ) :   0.9863 B(  4-C , 20-C ) :   1.0264
B(  6-C ,  7-H ) :   0.9349 B(  6-C ,  8-H ) :   0.9443 B(  6-C ,  9-C ) :   1.0412
B(  9-C , 10-H ) :   0.9657 B(  9-C , 11-H ) :   0.9563 B(  9-C , 12-C ) :   1.0672
B( 12-C , 13-H ) :   0.9801 B( 12-C , 14-H ) :   0.9765 B( 12-C , 15-H ) :   0.9766
B( 16-S , 17-C ) :   1.1512 B( 16-S , 20-C ) :   1.1224 B( 17-C , 18-C ) :   1.6232
B( 17-C , 33-H ) :   0.9630 B( 18-C , 19-C ) :   1.2373 B( 18-C , 21-H ) :   0.9879
B( 19-C , 20-C ) :   1.6256 B( 19-C , 22-C ) :   1.0379 B( 22-C , 23-H ) :   0.9106
B( 22-C , 24-H ) :   0.9244 B( 22-C , 25-C ) :   1.0559 B( 25-C , 26-H ) :   0.9496
B( 25-C , 27-H ) :   0.9591 B( 25-C , 28-C ) :   1.0860 B( 28-C , 29-H ) :   0.9786
B( 28-C , 30-H ) :   0.9679 B( 28-C , 31-H ) :   0.9733

Dispersion correction           -0.014931655
FINAL SINGLE POINT ENERGY     -1339.873430753984

DIPOLE MOMENT
-------------
                                X             Y             Z
Electronic contribution:     12.92885      11.52440      13.98292
Nuclear contribution   :    -13.29650     -11.91473     -14.16028
                        -----------------------------------------
Total Dipole Moment    :     -0.36766      -0.39033      -0.17736
                        -----------------------------------------
Magnitude (a.u.)       :      0.56479
Magnitude (Debye)      :      1.43558

Rotational constants in cm-1:     0.020007     0.008001     0.007593
Rotational constants in MHz :   599.793087   239.854603   227.628955

                             ****ORCA TERMINATED NORMALLY****
TOTAL RUN TIME: 0 days 0 hours 0 minutes 32 seconds 412 msec
