                         Program Version 4.2.1 -  RELEASE  -
|  1> ! wB97X-D3 SP def2-SVP
|  2> %pal
|  3> nprocs 16
|  4> end
|  5>
|  6> * xyz 0 1
|  7> S 	 -8.43562 	 77.0017 	 52.7999
|  8> C 	 -6.70364 	 77.3864 	 52.7883
|  9> C 	 -5.98424 	 76.4401 	 52.174
| 10> C 	 -6.80861 	 75.3617 	 51.7474
| 11> C 	 -8.18017 	 75.4717 	 52.0174
| 12> H 	 -6.48703 	 74.4912 	 51.1638
| 13> C 	 -4.47948 	 76.4606 	 51.9802
| 14> H 	 -4.00124 	 75.4953 	 52.0044
| 15> H 	 -4.12565 	 76.9904 	 52.9192
| 16> C 	 -4.02293 	 76.8847 	 50.5505
| 17> H 	 -4.58681 	 76.4638 	 49.6819
| 18> H 	 -4.07095 	 77.9363 	 50.3168
| 19> C 	 -2.51488 	 76.538 	 50.3787
| 20> H 	 -2.08144 	 76.9971 	 49.4741
| 21> H 	 -1.84437 	 77.0012 	 51.1087
| 22> H 	 -2.24341 	 75.5224 	 50.3383
| 23> S 	 -10.6004 	 74.6378 	 52.9634
| 24> C 	 -11.5458 	 73.4301 	 52.1693
| 25> C 	 -10.9953 	 73.1123 	 50.9832
| 26> C 	 -9.66573 	 73.6744 	 50.7577
| 27> C 	 -9.33255 	 74.5566 	 51.7281
| 28> H 	 -11.613 	 72.4985 	 50.3164
| 29> C 	 -8.78919 	 73.3632 	 49.5422
| 30> H 	 -7.73166 	 72.984 	 49.7754
| 31> H 	 -8.56594 	 74.323 	 49.0177
| 32> C 	 -9.48742 	 72.4297 	 48.4713
| 33> H 	 -9.0077 	 72.7476 	 47.5316
| 34> H 	 -10.5285 	 72.6046 	 48.3276
| 35> C 	 -9.2594 	 70.9276 	 48.8336
| 36> H 	 -9.74322 	 70.3895 	 48.0176
| 37> H 	 -9.76888 	 70.5851 	 49.7312
| 38> H 	 -8.19316 	 70.5369 	 48.9034
| 39> H 	 -6.25294 	 78.3137 	 53.1145
| 40> H 	 -12.6218 	 73.1604 	 52.2925
| 41> *
| 42>
| 43>                          ****END OF INPUT****

CARTESIAN COORDINATES (ANGSTROEM)
---------------------------------
  S     -8.435620   77.001700   52.799900
  C     -6.703640   77.386400   52.788300
  C     -5.984240   76.440100   52.174000
  C     -6.808610   75.361700   51.747400
  C     -8.180170   75.471700   52.017400
  H     -6.487030   74.491200   51.163800
  C     -4.479480   76.460600   51.980200
  H     -4.001240   75.495300   52.004400
  H     -4.125650   76.990400   52.919200
  C     -4.022930   76.884700   50.550500
  H     -4.586810   76.463800   49.681900
  H     -4.070950   77.936300   50.316800
  C     -2.514880   76.538000   50.378700
  H     -2.081440   76.997100   49.474100
  H     -1.844370   77.001200   51.108700
  H     -2.243410   75.522400   50.338300
  S    -10.600400   74.637800   52.963400
  C    -11.545800   73.430100   52.169300
  C    -10.995300   73.112300   50.983200
  C     -9.665730   73.674400   50.757700
  C     -9.332550   74.556600   51.728100
  H    -11.613000   72.498500   50.316400
  C     -8.789190   73.363200   49.542200
  H     -7.731660   72.984000   49.775400
  H     -8.565940   74.323000   49.017700
  C     -9.487420   72.429700   48.471300
  H     -9.007700   72.747600   47.531600
  H    -10.528500   72.604600   48.327600
  C     -9.259400   70.927600   48.833600
  H     -9.743220   70.389500   48.017600
  H     -9.768880   70.585100   49.731200
  H     -8.193160   70.536900   48.903400
  H     -6.252940   78.313700   53.114500
  H    -12.621800   73.160400   52.292500

 Total Charge           Charge          ....    0
 Multiplicity           Mult            ....    1
 Number of Electrons    NEL             ....  134
 Basis Dimension        Dim             ....  322

ORBITAL ENERGIES
----------------

  NO   OCC          E(Eh)            E(eV)
   0   2.0000     -88.965731     -2420.8806
   1   2.0000     -88.961347     -2420.7613
   2   2.0000     -10.335439      -281.2416
   3   2.0000     -10.330881      -281.1176
   4   2.0000     -10.313482      -280.6441
   5   2.0000     -10.311273      -280.5840
   6   2.0000     -10.307501      -280.4814
   7   2.0000     -10.304572      -280.4017
   8   2.0000     -10.301279      -280.3121
   9   2.0000     -10.297212      -280.2014
  10   2.0000     -10.296527      -280.1827
  11   2.0000     -10.294732      -280.1339
  12   2.0000     -10.294670      -280.1322
  13   2.0000     -10.294388      -280.1245
  14   2.0000     -10.284023      -279.8425
  15   2.0000     -10.277048      -279.6527
  16   2.0000      -8.080224      -219.8741
  17   2.0000      -8.076421      -219.7706
  18   2.0000      -6.038877      -164.3262
  19   2.0000      -6.035151      -164.2248
  20   2.0000      -6.034757      -164.2141
  21   2.0000      -6.030851      -164.1078
  22   2.0000      -6.030841      -164.1075
  23   2.0000      -6.026940      -164.0014
  24   2.0000      -1.008559       -27.4443
  25   2.0000      -0.988447       -26.8970
  26   2.0000      -0.910317       -24.7710
  27   2.0000      -0.901588       -24.5334
  28   2.0000      -0.872371       -23.7384
  29   2.0000      -0.849062       -23.1042
  30   2.0000      -0.837488       -22.7892
  31   2.0000      -0.817941       -22.2573
  32   2.0000      -0.781799       -21.2738
  33   2.0000      -0.774875       -21.0854
  34   2.0000      -0.712259       -19.3816
  35   2.0000      -0.704622       -19.1738
  36   2.0000      -0.697414       -18.9776
  37   2.0000      -0.654436       -17.8081
  38   2.0000      -0.638235       -17.3673
  39   2.0000      -0.617863       -16.8129
  40   2.0000      -0.598648       -16.2900
  41   2.0000      -0.579637       -15.7727
  42   2.0000      -0.555275       -15.1098
  43   2.0000      -0.542105       -14.7514
  44   2.0000      -0.526565       -14.3285
  45   2.0000      -0.523428       -14.2432
  46   2.0000      -0.517495       -14.0818
  47   2.0000      -0.509004       -13.8507
  48   2.0000      -0.501556       -13.6480
  49   2.0000      -0.500065       -13.6075
  50   2.0000      -0.492829       -13.4106
  51   2.0000      -0.479612       -13.0509
  52   2.0000      -0.472552       -12.8588
  53   2.0000      -0.465974       -12.6798
  54   2.0000      -0.463147       -12.6029
  55   2.0000      -0.450228       -12.2513
  56   2.0000      -0.444548       -12.0968
  57   2.0000      -0.439380       -11.9561
  58   2.0000      -0.434532       -11.8242
  59   2.0000      -0.424380       -11.5480
  60   2.0000      -0.419712       -11.4210
  61   2.0000      -0.415687       -11.3114
  62   2.0000      -0.403771       -10.9872
  63   2.0000      -0.358210        -9.7474
  64   2.0000      -0.330918        -9.0047
  65   2.0000      -0.326912        -8.8957
  66   2.0000      -0.294551        -8.0152
  67   0.0000       0.028046         0.7632
  68   0.0000       0.079108         2.1526
  69   0.0000       0.111471         3.0333
  70   0.0000       0.125141         3.4053
  71   0.0000       0.132401         3.6028

MULLIKEN ATOMIC CHARGES
-----------------------
   0 S :    0.099256
   1 C :   -0.123387
   2 C :   -0.059099
   3 C :    0.007571
   4 C :   -0.127561
   5 H :    0.001111
   6 C :    0.063127
   7 H :    0.020840
   8 H :    0.045875
   9 C :   -0.058669
  10 H :    0.044154
  11 H :    0.024881
  12 C :   -0.073021
  13 H :    0.023814
  14 H :    0.026238
  15 H :    0.029050
  16 S :    0.083913
  17 C :   -0.072255
  18 C :   -0.077060
  19 C :   -0.018049
  20 C :   -0.120705
  21 H :    0.024983
  22 C :   -0.015551
  23 H :    0.056006
  24 H :    0.043504
  25 C :   -0.057177
  26 H :    0.031461
  27 H :    0.026492
  28 C :   -0.074120
  29 H :    0.030620
  30 H :    0.038700
  31 H :    0.045608
  32 H :    0.039969
  33 H :    0.069480
Sum of atomic charges:   -0.0000000

LOEWDIN ATOMIC CHARGES
----------------------
   0 S :    0.398165
   1 C :   -0.186241
   2 C :   -0.071142
   3 C :   -0.070431
   4 C :   -0.192749
   5 H :    0.027852
   6 C :   -0.032845
   7 H :    0.031409
   8 H :    0.044156
   9 C :   -0.037931
  10 H :    0.035000
  11 H :    0.022028
  12 C :   -0.074715
  13 H :    0.028804
  14 H :    0.026689
  15 H :    0.014901
  16 S :    0.393959
  17 C :   -0.202901
  18 C :   -0.077708
  19 C :   -0.061536
  20 C :   -0.178617
  21 H :    0.033078
  22 C :   -0.040673
  23 H :    0.038644
  24 H :    0.036029
  25 C :   -0.036125
  26 H :    0.029170
  27 H :    0.020297
  28 C :   -0.074803
  29 H :    0.025226
  30 H :    0.024549
  31 H :    0.032596
  32 H :    0.029782
  33 H :    0.046080

  Mayer bond orders larger than 0.100000
B(  0-S ,  1-C ) :   1.1233 B(  0-S ,  4-C ) :   1.1543 B(  1-C ,  2-C ) :   1.6424
B(  1-C , 32-H ) :   0.9647 B(  2-C ,  3-C ) :   1.2348 B(  2-C ,  6-C ) :   1.0182
B(  3-C ,  4-C ) :   1.5802 B(  3-C ,  5-H ) :   0.9931 B(  4-C , 20-C ) :   1.0193
B(  6-C ,  7-H ) :   0.9486 B(  6-C ,  8-H ) :   0.9437 B(  6-C ,  9-C ) :   1.0300
B(  9-C , 10-H ) :   0.9598 B(  9-C , 11-H ) :   0.9569 B(  9-C , 12-C ) :   1.0781
B( 12-C , 13-H ) :   0.9734 B( 12-C , 14-H ) :   0.9736 B( 12-C , 15-H ) :   0.9781
B( 16-S , 17-C ) :   1.1373 B( 16-S , 20-C ) :   1.1238 B( 17-C , 18-C ) :   1.6783
B( 17-C , 33-H ) :   0.9482 B( 18-C , 19-C ) :   1.1941 B( 18-C , 21-H ) :   0.9786
B( 19-C , 20-C ) :   1.6605 B( 19-C , 22-C ) :   1.0258 B( 22-C , 23-H ) :   0.9374
B( 22-C , 24-H ) :   0.9402 B( 22-C , 25-C ) :   1.0743 B( 25-C , 26-H ) :   0.9574
B( 25-C , 27-H ) :   0.9550 B( 25-C , 28-C ) :   1.0686 B( 28-C , 29-H ) :   0.9753
B( 28-C , 30-H ) :   0.9769 B( 28-C , 31-H ) :   0.9760

Dispersion correction           -0.013401992
FINAL SINGLE POINT ENERGY     -1339.863464666715

DIPOLE MOMENT
-------------
                                X             Y             Z
Electronic contribution:    -20.69802       9.72831      19.77713
Nuclear contribution   :     21.08629      -9.92015     -20.47121
                        -----------------------------------------
Total Dipole Moment    :      0.38827      -0.19185      -0.69408
                        -----------------------------------------
Magnitude (a.u.)       :      0.81811
Magnitude (Debye)      :      2.07948

Rotational constants in cm-1:     0.018544     0.008002     0.005807
Rotational constants in MHz :   555.922558   239.880480   174.082798

                             ****ORCA TERMINATED NORMALLY****
TOTAL RUN TIME: 0 days 0 hours 0 minutes 32 seconds 385 msec
