                         Program Version 4.2.1 -  RELEASE  -
|  1> ! wB97X-D3 SP def2-SVP
|  2> %pal
|  3> nprocs 16
|  4> end
|  5>
|  6> * xyz 0 1
|  7> S 	 -21.1159 	 -6.60878 	 82.0496
|  8> C 	 -20.3077 	 -7.7318 	 80.9344
|  9> C 	 -19.7378 	 -8.81798 	 81.5797
| 10> C 	 -19.8795 	 -8.66667 	 82.9776
| 11> C 	 -20.4717 	 -7.50307 	 83.4392
| 12> H 	 -19.4689 	 -9.29479 	 83.8413
| 13> C 	 -19.1436 	 -9.99267 	 80.9427
| 14> H 	 -18.3972 	 -10.3937 	 81.6176
| 15> H 	 -18.7056 	 -9.66473 	 80.0883
| 16> C 	 -20.0072 	 -11.2362 	 80.6993
| 17> H 	 -20.3306 	 -11.5638 	 81.7407
| 18> H 	 -20.943 	 -11.0926 	 80.1283
| 19> C 	 -19.1111 	 -12.3761 	 80.092
| 20> H 	 -19.0052 	 -12.1396 	 79.0799
| 21> H 	 -18.1305 	 -12.5001 	 80.4512
| 22> H 	 -19.6016 	 -13.3942 	 80.0787
| 23> S 	 -22.02 	 -6.23737 	 85.2757
| 24> C 	 -21.5078 	 -5.97808 	 86.9425
| 25> C 	 -20.3044 	 -6.58372 	 87.1281
| 26> C 	 -19.7073 	 -7.1655 	 85.9469
| 27> C 	 -20.5053 	 -7.02789 	 84.8259
| 28> H 	 -19.7897 	 -6.6081 	 88.1032
| 29> C 	 -18.3164 	 -7.72013 	 85.9718
| 30> H 	 -17.9975 	 -7.77025 	 85.0032
| 31> H 	 -18.2023 	 -8.70304 	 86.3803
| 32> C 	 -17.2169 	 -6.97761 	 86.7063
| 33> H 	 -17.5467 	 -6.81151 	 87.7632
| 34> H 	 -17.1881 	 -5.97223 	 86.312
| 35> C 	 -15.8815 	 -7.61914 	 86.6649
| 36> H 	 -15.138 	 -7.2111 	 87.3298
| 37> H 	 -15.462 	 -7.67367 	 85.6833
| 38> H 	 -16.1258 	 -8.70545 	 87.0265
| 39> H 	 -20.4756 	 -7.71413 	 79.8529
| 40> H 	 -22.0527 	 -5.51282 	 87.7231
| 41> *
| 42>
| 43>                          ****END OF INPUT****

CARTESIAN COORDINATES (ANGSTROEM)
---------------------------------
  S    -21.115900   -6.608780   82.049600
  C    -20.307700   -7.731800   80.934400
  C    -19.737800   -8.817980   81.579700
  C    -19.879500   -8.666670   82.977600
  C    -20.471700   -7.503070   83.439200
  H    -19.468900   -9.294790   83.841300
  C    -19.143600   -9.992670   80.942700
  H    -18.397200  -10.393700   81.617600
  H    -18.705600   -9.664730   80.088300
  C    -20.007200  -11.236200   80.699300
  H    -20.330600  -11.563800   81.740700
  H    -20.943000  -11.092600   80.128300
  C    -19.111100  -12.376100   80.092000
  H    -19.005200  -12.139600   79.079900
  H    -18.130500  -12.500100   80.451200
  H    -19.601600  -13.394200   80.078700
  S    -22.020000   -6.237370   85.275700
  C    -21.507800   -5.978080   86.942500
  C    -20.304400   -6.583720   87.128100
  C    -19.707300   -7.165500   85.946900
  C    -20.505300   -7.027890   84.825900
  H    -19.789700   -6.608100   88.103200
  C    -18.316400   -7.720130   85.971800
  H    -17.997500   -7.770250   85.003200
  H    -18.202300   -8.703040   86.380300
  C    -17.216900   -6.977610   86.706300
  H    -17.546700   -6.811510   87.763200
  H    -17.188100   -5.972230   86.312000
  C    -15.881500   -7.619140   86.664900
  H    -15.138000   -7.211100   87.329800
  H    -15.462000   -7.673670   85.683300
  H    -16.125800   -8.705450   87.026500
  H    -20.475600   -7.714130   79.852900
  H    -22.052700   -5.512820   87.723100

 Total Charge           Charge          ....    0
 Multiplicity           Mult            ....    1
 Number of Electrons    NEL             ....  134
 Basis Dimension        Dim             ....  322

ORBITAL ENERGIES
----------------

  NO   OCC          E(Eh)            E(eV)
   0   2.0000     -88.968441     -2420.9544
   1   2.0000     -88.962219     -2420.7850
   2   2.0000     -10.333200      -281.1807
   3   2.0000     -10.332955      -281.1740
   4   2.0000     -10.319304      -280.8025
   5   2.0000     -10.317050      -280.7412
   6   2.0000     -10.306599      -280.4568
   7   2.0000     -10.301557      -280.3196
   8   2.0000     -10.298418      -280.2342
   9   2.0000     -10.298265      -280.2300
  10   2.0000     -10.295542      -280.1559
  11   2.0000     -10.283211      -279.8204
  12   2.0000     -10.283007      -279.8148
  13   2.0000     -10.282087      -279.7898
  14   2.0000     -10.279820      -279.7281
  15   2.0000     -10.277843      -279.6743
  16   2.0000      -8.082249      -219.9292
  17   2.0000      -8.076896      -219.7835
  18   2.0000      -6.040910      -164.3815
  19   2.0000      -6.036928      -164.2732
  20   2.0000      -6.035552      -164.2357
  21   2.0000      -6.032855      -164.1623
  22   2.0000      -6.031409      -164.1230
  23   2.0000      -6.027498      -164.0166
  24   2.0000      -1.005770       -27.3684
  25   2.0000      -0.984592       -26.7921
  26   2.0000      -0.921081       -25.0639
  27   2.0000      -0.917657       -24.9707
  28   2.0000      -0.871541       -23.7158
  29   2.0000      -0.855299       -23.2739
  30   2.0000      -0.845312       -23.0021
  31   2.0000      -0.817515       -22.2457
  32   2.0000      -0.785114       -21.3640
  33   2.0000      -0.776979       -21.1427
  34   2.0000      -0.709962       -19.3190
  35   2.0000      -0.702990       -19.1293
  36   2.0000      -0.700885       -19.0721
  37   2.0000      -0.659251       -17.9391
  38   2.0000      -0.642943       -17.4954
  39   2.0000      -0.618420       -16.8281
  40   2.0000      -0.606245       -16.4968
  41   2.0000      -0.578736       -15.7482
  42   2.0000      -0.577794       -15.7226
  43   2.0000      -0.559762       -15.2319
  44   2.0000      -0.530886       -14.4461
  45   2.0000      -0.522333       -14.2134
  46   2.0000      -0.520340       -14.1592
  47   2.0000      -0.508494       -13.8368
  48   2.0000      -0.504699       -13.7336
  49   2.0000      -0.502855       -13.6834
  50   2.0000      -0.494572       -13.4580
  51   2.0000      -0.479702       -13.0534
  52   2.0000      -0.473922       -12.8961
  53   2.0000      -0.470915       -12.8142
  54   2.0000      -0.460901       -12.5418
  55   2.0000      -0.458876       -12.4866
  56   2.0000      -0.444179       -12.0867
  57   2.0000      -0.441187       -12.0053
  58   2.0000      -0.430761       -11.7216
  59   2.0000      -0.420356       -11.4385
  60   2.0000      -0.418986       -11.4012
  61   2.0000      -0.416085       -11.3222
  62   2.0000      -0.413641       -11.2557
  63   2.0000      -0.355794        -9.6817
  64   2.0000      -0.333191        -9.0666
  65   2.0000      -0.328225        -8.9314
  66   2.0000      -0.290633        -7.9085
  67   0.0000       0.021369         0.5815
  68   0.0000       0.075292         2.0488
  69   0.0000       0.101637         2.7657
  70   0.0000       0.119928         3.2634
  71   0.0000       0.138441         3.7672

MULLIKEN ATOMIC CHARGES
-----------------------
   0 S :    0.107297
   1 C :   -0.121315
   2 C :   -0.072445
   3 C :   -0.016586
   4 C :   -0.137512
   5 H :    0.037245
   6 C :    0.113666
   7 H :    0.017013
   8 H :   -0.004335
   9 C :   -0.089606
  10 H :    0.032440
  11 H :    0.040305
  12 C :   -0.034688
  13 H :    0.014526
  14 H :    0.022310
  15 H :    0.043317
  16 S :    0.076110
  17 C :   -0.059929
  18 C :   -0.043867
  19 C :   -0.040308
  20 C :   -0.134196
  21 H :    0.027610
  22 C :    0.101729
  23 H :   -0.003093
  24 H :    0.014445
  25 C :   -0.095480
  26 H :    0.022867
  27 H :    0.022085
  28 C :   -0.041993
  29 H :    0.041036
  30 H :    0.033990
  31 H :    0.026081
  32 H :    0.053861
  33 H :    0.047422
Sum of atomic charges:   -0.0000000

LOEWDIN ATOMIC CHARGES
----------------------
   0 S :    0.384954
   1 C :   -0.184368
   2 C :   -0.064235
   3 C :   -0.070916
   4 C :   -0.192244
   5 H :    0.044001
   6 C :   -0.028581
   7 H :    0.036489
   8 H :    0.016340
   9 C :   -0.032656
  10 H :    0.027384
  11 H :    0.025737
  12 C :   -0.065877
  13 H :    0.017953
  14 H :    0.018490
  15 H :    0.035554
  16 S :    0.386142
  17 C :   -0.172024
  18 C :   -0.070692
  19 C :   -0.056330
  20 C :   -0.179820
  21 H :    0.034459
  22 C :   -0.031695
  23 H :    0.018506
  24 H :    0.026726
  25 C :   -0.045588
  26 H :    0.021669
  27 H :    0.019965
  28 C :   -0.062160
  29 H :    0.028227
  30 H :    0.022511
  31 H :    0.033916
  32 H :    0.030469
  33 H :    0.027697

  Mayer bond orders larger than 0.100000
B(  0-S ,  1-C ) :   1.1338 B(  0-S ,  4-C ) :   1.1328 B(  1-C ,  2-C ) :   1.6053
B(  1-C ,  4-C ) :   0.1009 B(  1-C , 32-H ) :   0.9635 B(  2-C ,  3-C ) :   1.2336
B(  2-C ,  6-C ) :   1.0396 B(  3-C ,  4-C ) :   1.5894 B(  3-C ,  5-H ) :   0.9781
B(  4-C , 20-C ) :   1.0391 B(  6-C ,  7-H ) :   0.9322 B(  6-C ,  8-H ) :   0.9309
B(  6-C ,  9-C ) :   1.0568 B(  9-C , 10-H ) :   0.9577 B(  9-C , 11-H ) :   0.9594
B(  9-C , 12-C ) :   1.0647 B( 12-C , 13-H ) :   0.9751 B( 12-C , 14-H ) :   0.9760
B( 12-C , 15-H ) :   0.9754 B( 16-S , 17-C ) :   1.1340 B( 16-S , 20-C ) :   1.1272
B( 17-C , 18-C ) :   1.6289 B( 17-C , 33-H ) :   0.9728 B( 18-C , 19-C ) :   1.2262
B( 18-C , 21-H ) :   0.9823 B( 19-C , 20-C ) :   1.6128 B( 19-C , 22-C ) :   1.0510
B( 22-C , 23-H ) :   0.9304 B( 22-C , 24-H ) :   0.9173 B( 22-C , 25-C ) :   1.0670
B( 25-C , 26-H ) :   0.9472 B( 25-C , 27-H ) :   0.9480 B( 25-C , 28-C ) :   1.0944
B( 28-C , 29-H ) :   0.9708 B( 28-C , 30-H ) :   0.9739 B( 28-C , 31-H ) :   0.9677

Dispersion correction           -0.013151908
FINAL SINGLE POINT ENERGY     -1339.863947000636

DIPOLE MOMENT
-------------
                                X             Y             Z
Electronic contribution:    -22.04711      19.95506       0.98128
Nuclear contribution   :     22.61201     -20.44444      -0.90415
                        -----------------------------------------
Total Dipole Moment    :      0.56490      -0.48938       0.07714
                        -----------------------------------------
Magnitude (a.u.)       :      0.75137
Magnitude (Debye)      :      1.90984

Rotational constants in cm-1:     0.017204     0.007979     0.006084
Rotational constants in MHz :   515.761672   239.203037   182.401642

                             ****ORCA TERMINATED NORMALLY****
TOTAL RUN TIME: 0 days 0 hours 0 minutes 32 seconds 562 msec
