                         Program Version 4.2.1 -  RELEASE  -
|  1> ! wB97X-D3 SP def2-SVP
|  2> %pal
|  3> nprocs 16
|  4> end
|  5>
|  6> * xyz 0 1
|  7> S 	 -47.0448 	 61.6084 	 136.986
|  8> C 	 -46.0634 	 60.2516 	 137.468
|  9> C 	 -46.5621 	 59.64 	 138.604
| 10> C 	 -47.7038 	 60.3406 	 139.104
| 11> C 	 -48.0904 	 61.3792 	 138.336
| 12> H 	 -48.2141 	 60.0435 	 139.961
| 13> C 	 -46.0219 	 58.3137 	 139.144
| 14> H 	 -46.2483 	 58.3639 	 140.232
| 15> H 	 -44.9939 	 58.3438 	 138.979
| 16> C 	 -46.5556 	 57.0592 	 138.415
| 17> H 	 -47.66 	 57.0847 	 138.551
| 18> H 	 -46.2885 	 57.2015 	 137.379
| 19> C 	 -46.1175 	 55.6712 	 138.908
| 20> H 	 -45.0223 	 55.6521 	 138.829
| 21> H 	 -46.421 	 55.5615 	 139.969
| 22> H 	 -46.5316 	 54.923 	 138.297
| 23> S 	 -49.5093 	 63.3583 	 139.784
| 24> C 	 -51.1439 	 63.7621 	 139.349
| 25> C 	 -51.4964 	 63.1269 	 138.201
| 26> C 	 -50.5148 	 62.1605 	 137.709
| 27> C 	 -49.2905 	 62.1578 	 138.451
| 28> H 	 -52.4943 	 63.2526 	 137.819
| 29> C 	 -50.7257 	 61.2775 	 136.568
| 30> H 	 -51.606 	 60.6111 	 136.861
| 31> H 	 -49.8147 	 60.5779 	 136.505
| 32> C 	 -50.9788 	 61.9242 	 135.223
| 33> H 	 -50.0958 	 62.544 	 134.884
| 34> H 	 -51.8773 	 62.6308 	 135.254
| 35> C 	 -51.3117 	 60.7833 	 134.227
| 36> H 	 -52.3542 	 60.3539 	 134.331
| 37> H 	 -50.6213 	 59.8873 	 134.292
| 38> H 	 -51.0635 	 61.2067 	 133.181
| 39> H 	 -45.3083 	 59.9605 	 136.841
| 40> H 	 -51.512 	 64.7014 	 139.595
| 41> *
| 42>
| 43>                          ****END OF INPUT****

CARTESIAN COORDINATES (ANGSTROEM)
---------------------------------
  S    -47.044800   61.608400  136.986000
  C    -46.063400   60.251600  137.468000
  C    -46.562100   59.640000  138.604000
  C    -47.703800   60.340600  139.104000
  C    -48.090400   61.379200  138.336000
  H    -48.214100   60.043500  139.961000
  C    -46.021900   58.313700  139.144000
  H    -46.248300   58.363900  140.232000
  H    -44.993900   58.343800  138.979000
  C    -46.555600   57.059200  138.415000
  H    -47.660000   57.084700  138.551000
  H    -46.288500   57.201500  137.379000
  C    -46.117500   55.671200  138.908000
  H    -45.022300   55.652100  138.829000
  H    -46.421000   55.561500  139.969000
  H    -46.531600   54.923000  138.297000
  S    -49.509300   63.358300  139.784000
  C    -51.143900   63.762100  139.349000
  C    -51.496400   63.126900  138.201000
  C    -50.514800   62.160500  137.709000
  C    -49.290500   62.157800  138.451000
  H    -52.494300   63.252600  137.819000
  C    -50.725700   61.277500  136.568000
  H    -51.606000   60.611100  136.861000
  H    -49.814700   60.577900  136.505000
  C    -50.978800   61.924200  135.223000
  H    -50.095800   62.544000  134.884000
  H    -51.877300   62.630800  135.254000
  C    -51.311700   60.783300  134.227000
  H    -52.354200   60.353900  134.331000
  H    -50.621300   59.887300  134.292000
  H    -51.063500   61.206700  133.181000
  H    -45.308300   59.960500  136.841000
  H    -51.512000   64.701400  139.595000

 Total Charge           Charge          ....    0
 Multiplicity           Mult            ....    1
 Number of Electrons    NEL             ....  134
 Basis Dimension        Dim             ....  322

ORBITAL ENERGIES
----------------

  NO   OCC          E(Eh)            E(eV)
   0   2.0000     -88.966286     -2420.8957
   1   2.0000     -88.957376     -2420.6533
   2   2.0000     -10.330713      -281.1130
   3   2.0000     -10.324425      -280.9419
   4   2.0000     -10.309411      -280.5333
   5   2.0000     -10.309279      -280.5298
   6   2.0000     -10.306082      -280.4427
   7   2.0000     -10.302960      -280.3578
   8   2.0000     -10.296921      -280.1935
   9   2.0000     -10.294257      -280.1210
  10   2.0000     -10.292828      -280.0821
  11   2.0000     -10.292221      -280.0656
  12   2.0000     -10.291867      -280.0559
  13   2.0000     -10.289387      -279.9884
  14   2.0000     -10.288911      -279.9755
  15   2.0000     -10.280496      -279.7465
  16   2.0000      -8.081716      -219.9147
  17   2.0000      -8.071817      -219.6453
  18   2.0000      -6.040044      -164.3580
  19   2.0000      -6.036089      -164.2503
  20   2.0000      -6.032659      -164.1570
  21   2.0000      -6.030332      -164.0937
  22   2.0000      -6.026202      -163.9813
  23   2.0000      -6.022738      -163.8870
  24   2.0000      -1.010026       -27.4842
  25   2.0000      -0.981220       -26.7003
  26   2.0000      -0.913078       -24.8461
  27   2.0000      -0.908989       -24.7348
  28   2.0000      -0.874054       -23.7842
  29   2.0000      -0.854049       -23.2398
  30   2.0000      -0.841495       -22.8982
  31   2.0000      -0.819788       -22.3076
  32   2.0000      -0.784606       -21.3502
  33   2.0000      -0.761187       -20.7130
  34   2.0000      -0.705861       -19.2074
  35   2.0000      -0.698460       -19.0061
  36   2.0000      -0.692335       -18.8394
  37   2.0000      -0.661102       -17.9895
  38   2.0000      -0.650023       -17.6880
  39   2.0000      -0.622513       -16.9394
  40   2.0000      -0.594642       -16.1810
  41   2.0000      -0.573402       -15.6031
  42   2.0000      -0.566027       -15.4024
  43   2.0000      -0.559393       -15.2218
  44   2.0000      -0.530106       -14.4249
  45   2.0000      -0.528210       -14.3733
  46   2.0000      -0.519662       -14.1407
  47   2.0000      -0.515229       -14.0201
  48   2.0000      -0.506361       -13.7788
  49   2.0000      -0.501489       -13.6462
  50   2.0000      -0.499085       -13.5808
  51   2.0000      -0.474076       -12.9003
  52   2.0000      -0.471369       -12.8266
  53   2.0000      -0.460471       -12.5300
  54   2.0000      -0.458050       -12.4642
  55   2.0000      -0.447699       -12.1825
  56   2.0000      -0.443439       -12.0666
  57   2.0000      -0.438343       -11.9279
  58   2.0000      -0.431774       -11.7492
  59   2.0000      -0.424245       -11.5443
  60   2.0000      -0.415919       -11.3177
  61   2.0000      -0.413928       -11.2635
  62   2.0000      -0.404815       -11.0156
  63   2.0000      -0.341628        -9.2962
  64   2.0000      -0.331916        -9.0319
  65   2.0000      -0.321901        -8.7594
  66   2.0000      -0.302046        -8.2191
  67   0.0000       0.036979         1.0063
  68   0.0000       0.056738         1.5439
  69   0.0000       0.110282         3.0009
  70   0.0000       0.118823         3.2333
  71   0.0000       0.128690         3.5018

MULLIKEN ATOMIC CHARGES
-----------------------
   0 S :    0.117866
   1 C :   -0.105187
   2 C :   -0.099650
   3 C :    0.079314
   4 C :   -0.187848
   5 H :   -0.015218
   6 C :    0.098281
   7 H :    0.028886
   8 H :    0.007673
   9 C :   -0.100247
  10 H :    0.030534
  11 H :    0.023995
  12 C :   -0.013444
  13 H :    0.026986
  14 H :    0.037560
  15 H :    0.035576
  16 S :    0.075149
  17 C :   -0.054637
  18 C :   -0.039974
  19 C :   -0.011376
  20 C :   -0.147509
  21 H :    0.021380
  22 C :   -0.009059
  23 H :    0.042606
  24 H :    0.045819
  25 C :   -0.088032
  26 H :    0.046653
  27 H :    0.043242
  28 C :   -0.093153
  29 H :    0.051731
  30 H :    0.036022
  31 H :    0.044743
  32 H :    0.017431
  33 H :    0.053886
Sum of atomic charges:   -0.0000000

LOEWDIN ATOMIC CHARGES
----------------------
   0 S :    0.426797
   1 C :   -0.180675
   2 C :   -0.055854
   3 C :   -0.046419
   4 C :   -0.208689
   5 H :    0.023862
   6 C :   -0.027184
   7 H :    0.032763
   8 H :    0.020307
   9 C :   -0.040992
  10 H :    0.025522
  11 H :    0.020683
  12 C :   -0.058671
  13 H :    0.024602
  14 H :    0.030227
  15 H :    0.022525
  16 S :    0.379522
  17 C :   -0.182360
  18 C :   -0.068708
  19 C :   -0.053351
  20 C :   -0.189204
  21 H :    0.029762
  22 C :   -0.055743
  23 H :    0.041355
  24 H :    0.037009
  25 C :   -0.048725
  26 H :    0.032144
  27 H :    0.030610
  28 C :   -0.082847
  29 H :    0.032028
  30 H :    0.027522
  31 H :    0.034255
  32 H :    0.006507
  33 H :    0.021422

  Mayer bond orders larger than 0.100000
B(  0-S ,  1-C ) :   1.1509 B(  0-S ,  4-C ) :   1.1591 B(  1-C ,  2-C ) :   1.5895
B(  1-C , 32-H ) :   0.9857 B(  2-C ,  3-C ) :   1.2469 B(  2-C ,  6-C ) :   1.0236
B(  3-C ,  4-C ) :   1.5802 B(  3-C ,  5-H ) :   1.0103 B(  4-C , 20-C ) :   1.0186
B(  6-C ,  7-H ) :   0.9390 B(  6-C ,  8-H ) :   0.9320 B(  6-C ,  9-C ) :   1.0627
B(  9-C , 10-H ) :   0.9585 B(  9-C , 11-H ) :   0.9547 B(  9-C , 12-C ) :   1.0859
B( 12-C , 13-H ) :   0.9746 B( 12-C , 14-H ) :   0.9745 B( 12-C , 15-H ) :   0.9733
B( 16-S , 17-C ) :   1.1614 B( 16-S , 20-C ) :   1.1272 B( 17-C , 18-C ) :   1.6224
B( 17-C , 33-H ) :   0.9597 B( 18-C , 19-C ) :   1.2302 B( 18-C , 21-H ) :   0.9877
B( 19-C , 20-C ) :   1.5756 B( 19-C , 22-C ) :   1.0670 B( 22-C , 23-H ) :   0.9282
B( 22-C , 24-H ) :   0.9274 B( 22-C , 25-C ) :   1.0604 B( 25-C , 26-H ) :   0.9537
B( 25-C , 27-H ) :   0.9530 B( 25-C , 28-C ) :   1.0660 B( 28-C , 29-H ) :   0.9743
B( 28-C , 30-H ) :   0.9732 B( 28-C , 31-H ) :   0.9755

Dispersion correction           -0.014034986
FINAL SINGLE POINT ENERGY     -1339.871285377769

DIPOLE MOMENT
-------------
                                X             Y             Z
Electronic contribution:      2.44708      22.81751      10.19062
Nuclear contribution   :     -2.54950     -23.35958     -10.48453
                        -----------------------------------------
Total Dipole Moment    :     -0.10242      -0.54207      -0.29391
                        -----------------------------------------
Magnitude (a.u.)       :      0.62507
Magnitude (Debye)      :      1.58880

Rotational constants in cm-1:     0.018434     0.007861     0.006606
Rotational constants in MHz :   552.650717   235.675403   198.035976

                             ****ORCA TERMINATED NORMALLY****
TOTAL RUN TIME: 0 days 0 hours 0 minutes 33 seconds 926 msec
