                         Program Version 4.2.1 -  RELEASE  -
|  1> ! wB97X-D3 SP def2-SVP
|  2> %pal
|  3> nprocs 16
|  4> end
|  5>
|  6> * xyz 0 1
|  7> S 	 16.8303 	 22.3268 	 39.7309
|  8> C 	 17.4363 	 21.4346 	 38.2761
|  9> C 	 16.5024 	 20.5734 	 37.6991
| 10> C 	 15.2492 	 20.7584 	 38.3552
| 11> C 	 15.2036 	 21.5678 	 39.5117
| 12> H 	 14.3566 	 20.2986 	 38.0439
| 13> C 	 16.7262 	 19.6068 	 36.5287
| 14> H 	 16.2079 	 18.6756 	 36.7361
| 15> H 	 17.7774 	 19.461 	 36.2408
| 16> C 	 16.1771 	 20.0573 	 35.1438
| 17> H 	 16.0215 	 19.1814 	 34.5253
| 18> H 	 15.2326 	 20.5263 	 35.3728
| 19> C 	 17.1142 	 21.01 	 34.3437
| 20> H 	 17.4448 	 21.8628 	 34.98
| 21> H 	 17.9817 	 20.5639 	 33.9643
| 22> H 	 16.741 	 21.2839 	 33.3832
| 23> S 	 14.3667 	 21.0822 	 42.083
| 24> C 	 12.8319 	 21.6411 	 42.5809
| 25> C 	 12.0826 	 22.1625 	 41.5828
| 26> C 	 12.789 	 22.1891 	 40.4015
| 27> C 	 14.1267 	 21.7816 	 40.4724
| 28> H 	 11.0763 	 22.4501 	 41.7021
| 29> C 	 12.0481 	 22.6597 	 39.1297
| 30> H 	 10.9559 	 22.6416 	 39.1111
| 31> H 	 12.4001 	 21.8874 	 38.4001
| 32> C 	 12.414 	 24.0271 	 38.5066
| 33> H 	 12.9434 	 24.0731 	 37.5666
| 34> H 	 13.1913 	 24.4198 	 39.187
| 35> C 	 11.0875 	 24.9467 	 38.538
| 36> H 	 10.7064 	 24.9641 	 39.567
| 37> H 	 10.414 	 24.6017 	 37.6906
| 38> H 	 11.2734 	 25.9001 	 38.1339
| 39> H 	 18.4515 	 21.4683 	 37.9392
| 40> H 	 12.5008 	 21.587 	 43.6023
| 41> *
| 42>
| 43>                          ****END OF INPUT****

CARTESIAN COORDINATES (ANGSTROEM)
---------------------------------
  S     16.830300   22.326800   39.730900
  C     17.436300   21.434600   38.276100
  C     16.502400   20.573400   37.699100
  C     15.249200   20.758400   38.355200
  C     15.203600   21.567800   39.511700
  H     14.356600   20.298600   38.043900
  C     16.726200   19.606800   36.528700
  H     16.207900   18.675600   36.736100
  H     17.777400   19.461000   36.240800
  C     16.177100   20.057300   35.143800
  H     16.021500   19.181400   34.525300
  H     15.232600   20.526300   35.372800
  C     17.114200   21.010000   34.343700
  H     17.444800   21.862800   34.980000
  H     17.981700   20.563900   33.964300
  H     16.741000   21.283900   33.383200
  S     14.366700   21.082200   42.083000
  C     12.831900   21.641100   42.580900
  C     12.082600   22.162500   41.582800
  C     12.789000   22.189100   40.401500
  C     14.126700   21.781600   40.472400
  H     11.076300   22.450100   41.702100
  C     12.048100   22.659700   39.129700
  H     10.955900   22.641600   39.111100
  H     12.400100   21.887400   38.400100
  C     12.414000   24.027100   38.506600
  H     12.943400   24.073100   37.566600
  H     13.191300   24.419800   39.187000
  C     11.087500   24.946700   38.538000
  H     10.706400   24.964100   39.567000
  H     10.414000   24.601700   37.690600
  H     11.273400   25.900100   38.133900
  H     18.451500   21.468300   37.939200
  H     12.500800   21.587000   43.602300

 Total Charge           Charge          ....    0
 Multiplicity           Mult            ....    1
 Number of Electrons    NEL             ....  134
 Basis Dimension        Dim             ....  322

ORBITAL ENERGIES
----------------

  NO   OCC          E(Eh)            E(eV)
   0   2.0000     -88.968920     -2420.9674
   1   2.0000     -88.965834     -2420.8834
   2   2.0000     -10.338570      -281.3268
   3   2.0000     -10.328270      -281.0465
   4   2.0000     -10.321336      -280.8578
   5   2.0000     -10.311946      -280.6023
   6   2.0000     -10.308856      -280.5182
   7   2.0000     -10.304307      -280.3945
   8   2.0000     -10.299476      -280.2630
   9   2.0000     -10.297797      -280.2173
  10   2.0000     -10.291402      -280.0433
  11   2.0000     -10.289227      -279.9841
  12   2.0000     -10.284969      -279.8682
  13   2.0000     -10.283416      -279.8260
  14   2.0000     -10.282784      -279.8088
  15   2.0000     -10.274839      -279.5926
  16   2.0000      -8.081656      -219.9130
  17   2.0000      -8.081171      -219.8998
  18   2.0000      -6.040271      -164.3641
  19   2.0000      -6.039481      -164.3426
  20   2.0000      -6.036510      -164.2618
  21   2.0000      -6.035586      -164.2367
  22   2.0000      -6.032347      -164.1485
  23   2.0000      -6.032108      -164.1420
  24   2.0000      -1.007939       -27.4274
  25   2.0000      -0.977865       -26.6091
  26   2.0000      -0.909159       -24.7395
  27   2.0000      -0.899581       -24.4788
  28   2.0000      -0.869580       -23.6625
  29   2.0000      -0.847170       -23.0527
  30   2.0000      -0.843083       -22.9415
  31   2.0000      -0.810824       -22.0636
  32   2.0000      -0.787162       -21.4198
  33   2.0000      -0.771548       -20.9949
  34   2.0000      -0.711669       -19.3655
  35   2.0000      -0.699124       -19.0241
  36   2.0000      -0.691491       -18.8164
  37   2.0000      -0.665339       -18.1048
  38   2.0000      -0.642319       -17.4784
  39   2.0000      -0.622129       -16.9290
  40   2.0000      -0.600712       -16.3462
  41   2.0000      -0.575829       -15.6691
  42   2.0000      -0.563139       -15.3238
  43   2.0000      -0.556857       -15.1529
  44   2.0000      -0.539973       -14.6934
  45   2.0000      -0.526530       -14.3276
  46   2.0000      -0.513332       -13.9685
  47   2.0000      -0.507904       -13.8208
  48   2.0000      -0.500748       -13.6260
  49   2.0000      -0.488835       -13.3019
  50   2.0000      -0.481257       -13.0957
  51   2.0000      -0.478829       -13.0296
  52   2.0000      -0.473647       -12.8886
  53   2.0000      -0.468875       -12.7587
  54   2.0000      -0.462337       -12.5808
  55   2.0000      -0.449346       -12.2273
  56   2.0000      -0.443202       -12.0602
  57   2.0000      -0.437316       -11.9000
  58   2.0000      -0.431609       -11.7447
  59   2.0000      -0.423627       -11.5275
  60   2.0000      -0.420927       -11.4540
  61   2.0000      -0.415021       -11.2933
  62   2.0000      -0.398849       -10.8532
  63   2.0000      -0.341532        -9.2936
  64   2.0000      -0.331749        -9.0273
  65   2.0000      -0.330362        -8.9896
  66   2.0000      -0.295546        -8.0422
  67   0.0000       0.026626         0.7245
  68   0.0000       0.057699         1.5701
  69   0.0000       0.111261         3.0276
  70   0.0000       0.113856         3.0982
  71   0.0000       0.119416         3.2495

MULLIKEN ATOMIC CHARGES
-----------------------
   0 S :    0.101091
   1 C :   -0.114205
   2 C :   -0.075391
   3 C :    0.058745
   4 C :   -0.171631
   5 H :   -0.006707
   6 C :    0.066865
   7 H :    0.036244
   8 H :    0.024313
   9 C :   -0.071629
  10 H :    0.030747
  11 H :    0.024895
  12 C :   -0.037428
  13 H :    0.043655
  14 H :    0.005838
  15 H :    0.021898
  16 S :    0.116723
  17 C :   -0.072183
  18 C :   -0.021869
  19 C :   -0.015162
  20 C :   -0.162699
  21 H :    0.000165
  22 C :    0.047882
  23 H :    0.027513
  24 H :    0.024986
  25 C :   -0.072331
  26 H :    0.032168
  27 H :    0.031416
  28 C :   -0.083444
  29 H :    0.056513
  30 H :    0.043343
  31 H :    0.018048
  32 H :    0.041145
  33 H :    0.050486
Sum of atomic charges:   -0.0000000

LOEWDIN ATOMIC CHARGES
----------------------
   0 S :    0.362979
   1 C :   -0.169388
   2 C :   -0.063709
   3 C :   -0.049152
   4 C :   -0.184344
   5 H :    0.019204
   6 C :   -0.028339
   7 H :    0.035347
   8 H :    0.033288
   9 C :   -0.033619
  10 H :    0.023987
  11 H :    0.019050
  12 C :   -0.071463
  13 H :    0.031868
  14 H :    0.016897
  15 H :    0.026051
  16 S :    0.426579
  17 C :   -0.181411
  18 C :   -0.075883
  19 C :   -0.046756
  20 C :   -0.210480
  21 H :    0.028872
  22 C :   -0.038574
  23 H :    0.029433
  24 H :    0.037825
  25 C :   -0.043693
  26 H :    0.022613
  27 H :    0.026002
  28 C :   -0.072040
  29 H :    0.029859
  30 H :    0.035255
  31 H :    0.015913
  32 H :    0.021777
  33 H :    0.026052

  Mayer bond orders larger than 0.100000
B(  0-S ,  1-C ) :   1.1374 B(  0-S ,  4-C ) :   1.1243 B(  1-C ,  2-C ) :   1.6196
B(  1-C ,  4-C ) :   0.1056 B(  1-C , 32-H ) :   0.9638 B(  2-C ,  3-C ) :   1.2315
B(  2-C ,  6-C ) :   1.0350 B(  3-C ,  4-C ) :   1.5921 B(  3-C ,  5-H ) :   0.9913
B(  4-C , 20-C ) :   1.0431 B(  6-C ,  7-H ) :   0.9373 B(  6-C ,  8-H ) :   0.9472
B(  6-C ,  9-C ) :   1.0578 B(  9-C , 10-H ) :   0.9569 B(  9-C , 11-H ) :   0.9598
B(  9-C , 12-C ) :   1.0829 B( 12-C , 13-H ) :   0.9771 B( 12-C , 14-H ) :   0.9672
B( 12-C , 15-H ) :   0.9705 B( 16-S , 17-C ) :   1.1908 B( 16-S , 20-C ) :   1.1444
B( 17-C , 18-C ) :   1.5571 B( 17-C , 20-C ) :   0.1063 B( 17-C , 33-H ) :   0.9648
B( 18-C , 19-C ) :   1.2836 B( 18-C , 21-H ) :   1.0086 B( 19-C , 20-C ) :   1.5599
B( 19-C , 22-C ) :   1.0367 B( 22-C , 23-H ) :   0.9546 B( 22-C , 24-H ) :   0.9255
B( 22-C , 25-C ) :   1.0322 B( 25-C , 26-H ) :   0.9606 B( 25-C , 27-H ) :   0.9663
B( 25-C , 28-C ) :   1.0734 B( 28-C , 29-H ) :   0.9776 B( 28-C , 30-H ) :   0.9723
B( 28-C , 31-H ) :   0.9746

Dispersion correction           -0.013996571
FINAL SINGLE POINT ENERGY     -1339.844431126980

DIPOLE MOMENT
-------------
                                X             Y             Z
Electronic contribution:      8.12926      -4.25437      26.30309
Nuclear contribution   :     -8.45322       4.04994     -26.85240
                        -----------------------------------------
Total Dipole Moment    :     -0.32396      -0.20443      -0.54932
                        -----------------------------------------
Magnitude (a.u.)       :      0.66969
Magnitude (Debye)      :      1.70222

Rotational constants in cm-1:     0.018220     0.008194     0.006526
Rotational constants in MHz :   546.235635   245.636400   195.659488

                             ****ORCA TERMINATED NORMALLY****
TOTAL RUN TIME: 0 days 0 hours 0 minutes 34 seconds 619 msec
