                         Program Version 4.2.1 -  RELEASE  -
|  1> ! wB97X-D3 SP def2-SVP
|  2> %pal
|  3> nprocs 16
|  4> end
|  5>
|  6> * xyz 0 1
|  7> S 	 45.1738 	 12.6749 	 100.377
|  8> C 	 46.599 	 13.5267 	 100.786
|  9> C 	 47.6973 	 12.8064 	 100.332
| 10> C 	 47.4241 	 11.6212 	 99.5848
| 11> C 	 46.0756 	 11.3577 	 99.666
| 12> H 	 48.1243 	 10.9094 	 99.1524
| 13> C 	 49.141 	 13.2696 	 100.585
| 14> H 	 49.7523 	 12.6796 	 99.9761
| 15> H 	 49.3931 	 13.0854 	 101.579
| 16> C 	 49.5096 	 14.7747 	 100.559
| 17> H 	 48.8222 	 15.2666 	 101.275
| 18> H 	 50.4845 	 14.9216 	 100.985
| 19> C 	 49.3985 	 15.3766 	 99.14
| 20> H 	 48.4476 	 15.3218 	 98.7056
| 21> H 	 49.735 	 16.4433 	 99.1721
| 22> H 	 50.0221 	 14.7665 	 98.5363
| 23> S 	 44.6502 	 9.37538 	 100.852
| 24> C 	 44.4233 	 7.89935 	 99.9598
| 25> C 	 44.863 	 7.92787 	 98.6688
| 26> C 	 45.4702 	 9.19893 	 98.3465
| 27> C 	 45.4544 	 10.0635 	 99.4492
| 28> H 	 44.8074 	 7.01368 	 98.115
| 29> C 	 46.2672 	 9.49709 	 97.1433
| 30> H 	 47.0312 	 8.74517 	 97.079
| 31> H 	 46.7212 	 10.4422 	 97.3372
| 32> C 	 45.4496 	 9.5305 	 95.8431
| 33> H 	 45.274 	 8.46473 	 95.5808
| 34> H 	 46.0963 	 10.0087 	 95.0946
| 35> C 	 44.0733 	 10.3 	 95.8314
| 36> H 	 43.4123 	 9.89217 	 94.9795
| 37> H 	 44.1041 	 11.3956 	 95.7324
| 38> H 	 43.5346 	 10.183 	 96.7476
| 39> H 	 46.5997 	 14.5469 	 101.226
| 40> H 	 43.8104 	 7.01822 	 100.297
| 41> *
| 42>
| 43>                          ****END OF INPUT****

CARTESIAN COORDINATES (ANGSTROEM)
---------------------------------
  S     45.173800   12.674900  100.377000
  C     46.599000   13.526700  100.786000
  C     47.697300   12.806400  100.332000
  C     47.424100   11.621200   99.584800
  C     46.075600   11.357700   99.666000
  H     48.124300   10.909400   99.152400
  C     49.141000   13.269600  100.585000
  H     49.752300   12.679600   99.976100
  H     49.393100   13.085400  101.579000
  C     49.509600   14.774700  100.559000
  H     48.822200   15.266600  101.275000
  H     50.484500   14.921600  100.985000
  C     49.398500   15.376600   99.140000
  H     48.447600   15.321800   98.705600
  H     49.735000   16.443300   99.172100
  H     50.022100   14.766500   98.536300
  S     44.650200    9.375380  100.852000
  C     44.423300    7.899350   99.959800
  C     44.863000    7.927870   98.668800
  C     45.470200    9.198930   98.346500
  C     45.454400   10.063500   99.449200
  H     44.807400    7.013680   98.115000
  C     46.267200    9.497090   97.143300
  H     47.031200    8.745170   97.079000
  H     46.721200   10.442200   97.337200
  C     45.449600    9.530500   95.843100
  H     45.274000    8.464730   95.580800
  H     46.096300   10.008700   95.094600
  C     44.073300   10.300000   95.831400
  H     43.412300    9.892170   94.979500
  H     44.104100   11.395600   95.732400
  H     43.534600   10.183000   96.747600
  H     46.599700   14.546900  101.226000
  H     43.810400    7.018220  100.297000

 Total Charge           Charge          ....    0
 Multiplicity           Mult            ....    1
 Number of Electrons    NEL             ....  134
 Basis Dimension        Dim             ....  322

ORBITAL ENERGIES
----------------

  NO   OCC          E(Eh)            E(eV)
   0   2.0000     -88.966828     -2420.9105
   1   2.0000     -88.965394     -2420.8714
   2   2.0000     -10.327878      -281.0359
   3   2.0000     -10.323614      -280.9198
   4   2.0000     -10.314995      -280.6853
   5   2.0000     -10.313285      -280.6388
   6   2.0000     -10.303392      -280.3695
   7   2.0000     -10.301294      -280.3125
   8   2.0000     -10.297254      -280.2025
   9   2.0000     -10.291006      -280.0325
  10   2.0000     -10.290594      -280.0213
  11   2.0000     -10.288068      -279.9526
  12   2.0000     -10.282548      -279.8024
  13   2.0000     -10.279230      -279.7121
  14   2.0000     -10.279204      -279.7114
  15   2.0000     -10.270316      -279.4695
  16   2.0000      -8.082248      -219.9292
  17   2.0000      -8.080216      -219.8738
  18   2.0000      -6.040634      -164.3740
  19   2.0000      -6.038711      -164.3217
  20   2.0000      -6.036547      -164.2628
  21   2.0000      -6.034794      -164.2151
  22   2.0000      -6.033214      -164.1721
  23   2.0000      -6.030891      -164.1089
  24   2.0000      -1.011250       -27.5175
  25   2.0000      -0.985870       -26.8269
  26   2.0000      -0.909716       -24.7546
  27   2.0000      -0.908670       -24.7262
  28   2.0000      -0.870166       -23.6784
  29   2.0000      -0.852764       -23.2049
  30   2.0000      -0.840410       -22.8687
  31   2.0000      -0.814404       -22.1611
  32   2.0000      -0.785534       -21.3755
  33   2.0000      -0.771141       -20.9838
  34   2.0000      -0.706902       -19.2358
  35   2.0000      -0.704563       -19.1721
  36   2.0000      -0.689011       -18.7489
  37   2.0000      -0.657530       -17.8923
  38   2.0000      -0.641867       -17.4661
  39   2.0000      -0.611602       -16.6425
  40   2.0000      -0.588912       -16.0251
  41   2.0000      -0.573341       -15.6014
  42   2.0000      -0.557385       -15.1672
  43   2.0000      -0.550210       -14.9720
  44   2.0000      -0.541000       -14.7213
  45   2.0000      -0.532186       -14.4815
  46   2.0000      -0.521363       -14.1870
  47   2.0000      -0.512019       -13.9327
  48   2.0000      -0.504647       -13.7322
  49   2.0000      -0.497632       -13.5412
  50   2.0000      -0.488300       -13.2873
  51   2.0000      -0.481114       -13.0918
  52   2.0000      -0.469898       -12.7866
  53   2.0000      -0.463141       -12.6027
  54   2.0000      -0.457636       -12.4529
  55   2.0000      -0.450618       -12.2619
  56   2.0000      -0.441936       -12.0257
  57   2.0000      -0.438605       -11.9351
  58   2.0000      -0.433670       -11.8008
  59   2.0000      -0.420956       -11.4548
  60   2.0000      -0.417798       -11.3689
  61   2.0000      -0.415310       -11.3012
  62   2.0000      -0.413531       -11.2527
  63   2.0000      -0.351473        -9.5641
  64   2.0000      -0.329823        -8.9749
  65   2.0000      -0.326076        -8.8730
  66   2.0000      -0.290199        -7.8967
  67   0.0000       0.032772         0.8918
  68   0.0000       0.068687         1.8691
  69   0.0000       0.117967         3.2100
  70   0.0000       0.121014         3.2929
  71   0.0000       0.128807         3.5050

MULLIKEN ATOMIC CHARGES
-----------------------
   0 S :    0.120994
   1 C :   -0.145401
   2 C :   -0.111031
   3 C :    0.045640
   4 C :   -0.177836
   5 H :    0.031326
   6 C :    0.117513
   7 H :   -0.005229
   8 H :    0.020407
   9 C :   -0.095679
  10 H :    0.019088
  11 H :    0.026273
  12 C :   -0.016601
  13 H :    0.026322
  14 H :    0.041034
  15 H :    0.014393
  16 S :    0.119171
  17 C :   -0.109240
  18 C :   -0.032691
  19 C :   -0.057124
  20 C :   -0.163650
  21 H :    0.014440
  22 C :    0.115137
  23 H :    0.031322
  24 H :    0.007539
  25 C :   -0.088919
  26 H :    0.034447
  27 H :    0.036766
  28 C :   -0.078948
  29 H :    0.044921
  30 H :    0.037091
  31 H :    0.038310
  32 H :    0.071905
  33 H :    0.068309
Sum of atomic charges:   -0.0000000

LOEWDIN ATOMIC CHARGES
----------------------
   0 S :    0.426396
   1 C :   -0.225502
   2 C :   -0.059307
   3 C :   -0.061977
   4 C :   -0.195380
   5 H :    0.038284
   6 C :   -0.025916
   7 H :    0.015772
   8 H :    0.029296
   9 C :   -0.034658
  10 H :    0.019525
  11 H :    0.023058
  12 C :   -0.060595
  13 H :    0.018387
  14 H :    0.031305
  15 H :    0.019669
  16 S :    0.406133
  17 C :   -0.195292
  18 C :   -0.073892
  19 C :   -0.052556
  20 C :   -0.199867
  21 H :    0.030987
  22 C :   -0.032435
  23 H :    0.033173
  24 H :    0.024825
  25 C :   -0.039667
  26 H :    0.025708
  27 H :    0.027685
  28 C :   -0.076383
  29 H :    0.037183
  30 H :    0.026955
  31 H :    0.021245
  32 H :    0.038578
  33 H :    0.039263

  Mayer bond orders larger than 0.100000
B(  0-S ,  1-C ) :   1.1343 B(  0-S ,  4-C ) :   1.1798 B(  1-C ,  2-C ) :   1.5851
B(  1-C , 32-H ) :   0.9667 B(  2-C ,  3-C ) :   1.2592 B(  2-C ,  6-C ) :   1.0169
B(  3-C ,  4-C ) :   1.5358 B(  3-C ,  5-H ) :   0.9878 B(  4-C , 20-C ) :   1.0332
B(  6-C ,  7-H ) :   0.9424 B(  6-C ,  8-H ) :   0.9296 B(  6-C ,  9-C ) :   1.0829
B(  9-C , 10-H ) :   0.9503 B(  9-C , 11-H ) :   0.9549 B(  9-C , 12-C ) :   1.0711
B( 12-C , 13-H ) :   0.9770 B( 12-C , 14-H ) :   0.9756 B( 12-C , 15-H ) :   0.9752
B( 16-S , 17-C ) :   1.1450 B( 16-S , 20-C ) :   1.1374 B( 17-C , 18-C ) :   1.6566
B( 17-C , 33-H ) :   0.9540 B( 18-C , 19-C ) :   1.1924 B( 18-C , 21-H ) :   0.9944
B( 19-C , 20-C ) :   1.5970 B( 19-C , 22-C ) :   1.0571 B( 22-C , 23-H ) :   0.9350
B( 22-C , 24-H ) :   0.9191 B( 22-C , 25-C ) :   1.0637 B( 25-C , 26-H ) :   0.9603
B( 25-C , 27-H ) :   0.9593 B( 25-C , 28-C ) :   1.0697 B( 28-C , 29-H ) :   0.9766
B( 28-C , 30-H ) :   0.9771 B( 28-C , 31-H ) :   0.9717

Dispersion correction           -0.014533790
FINAL SINGLE POINT ENERGY     -1339.873076439698

DIPOLE MOMENT
-------------
                                X             Y             Z
Electronic contribution:    -13.73902      -8.84339      15.85672
Nuclear contribution   :     14.23582       8.75409     -16.04390
                        -----------------------------------------
Total Dipole Moment    :      0.49679      -0.08930      -0.18718
                        -----------------------------------------
Magnitude (a.u.)       :      0.53834
Magnitude (Debye)      :      1.36836

Rotational constants in cm-1:     0.021997     0.007984     0.006842
Rotational constants in MHz :   659.467999   239.345488   205.125320

                             ****ORCA TERMINATED NORMALLY****
TOTAL RUN TIME: 0 days 0 hours 0 minutes 28 seconds 927 msec
