                         Program Version 4.2.1 -  RELEASE  -
|  1> ! wB97X-D3 SP def2-SVP
|  2> %pal
|  3> nprocs 16
|  4> end
|  5>
|  6> * xyz 0 1
|  7> S 	 -95.4293 	 43.1574 	 124.974
|  8> C 	 -94.6132 	 41.7302 	 124.326
|  9> C 	 -95.532 	 40.8066 	 123.769
| 10> C 	 -96.9122 	 41.2518 	 123.827
| 11> C 	 -97.0094 	 42.4796 	 124.515
| 12> H 	 -97.8105 	 40.8203 	 123.326
| 13> C 	 -95.0441 	 39.6427 	 122.951
| 14> H 	 -94.0723 	 39.9451 	 122.458
| 15> H 	 -95.7927 	 39.4802 	 122.164
| 16> C 	 -94.82 	 38.3412 	 123.62
| 17> H 	 -94.0987 	 38.5463 	 124.408
| 18> H 	 -95.7051 	 38.0846 	 124.119
| 19> C 	 -94.4662 	 37.1723 	 122.762
| 20> H 	 -94.316 	 36.2303 	 123.339
| 21> H 	 -95.2991 	 37.09 	 122.054
| 22> H 	 -93.6174 	 37.427 	 122.182
| 23> S 	 -98.2549 	 44.1344 	 126.251
| 24> C 	 -99.716 	 44.9622 	 125.829
| 25> C 	 -100.233 	 44.4311 	 124.698
| 26> C 	 -99.357 	 43.5428 	 124.018
| 27> C 	 -98.2342 	 43.2561 	 124.78
| 28> H 	 -101.205 	 44.7614 	 124.485
| 29> C 	 -99.5999 	 42.9101 	 122.684
| 30> H 	 -99.7846 	 41.7744 	 122.818
| 31> H 	 -98.5509 	 43.0169 	 122.244
| 32> C 	 -100.55 	 43.4911 	 121.665
| 33> H 	 -100.519 	 44.5975 	 121.666
| 34> H 	 -101.598 	 43.2235 	 121.96
| 35> C 	 -100.286 	 42.9972 	 120.161
| 36> H 	 -100.277 	 41.9177 	 120.23
| 37> H 	 -99.3153 	 43.2494 	 119.732
| 38> H 	 -100.928 	 43.3613 	 119.359
| 39> H 	 -93.551 	 41.7136 	 124.168
| 40> H 	 -100.182 	 45.8093 	 126.386
| 41> *
| 42>
| 43>                          ****END OF INPUT****

CARTESIAN COORDINATES (ANGSTROEM)
---------------------------------
  S    -95.429300   43.157400  124.974000
  C    -94.613200   41.730200  124.326000
  C    -95.532000   40.806600  123.769000
  C    -96.912200   41.251800  123.827000
  C    -97.009400   42.479600  124.515000
  H    -97.810500   40.820300  123.326000
  C    -95.044100   39.642700  122.951000
  H    -94.072300   39.945100  122.458000
  H    -95.792700   39.480200  122.164000
  C    -94.820000   38.341200  123.620000
  H    -94.098700   38.546300  124.408000
  H    -95.705100   38.084600  124.119000
  C    -94.466200   37.172300  122.762000
  H    -94.316000   36.230300  123.339000
  H    -95.299100   37.090000  122.054000
  H    -93.617400   37.427000  122.182000
  S    -98.254900   44.134400  126.251000
  C    -99.716000   44.962200  125.829000
  C    -100.233000   44.431100  124.698000
  C    -99.357000   43.542800  124.018000
  C    -98.234200   43.256100  124.780000
  H    -101.205000   44.761400  124.485000
  C    -99.599900   42.910100  122.684000
  H    -99.784600   41.774400  122.818000
  H    -98.550900   43.016900  122.244000
  C    -100.550000   43.491100  121.665000
  H    -100.519000   44.597500  121.666000
  H    -101.598000   43.223500  121.960000
  C    -100.286000   42.997200  120.161000
  H    -100.277000   41.917700  120.230000
  H    -99.315300   43.249400  119.732000
  H    -100.928000   43.361300  119.359000
  H    -93.551000   41.713600  124.168000
  H    -100.182000   45.809300  126.386000

 Total Charge           Charge          ....    0
 Multiplicity           Mult            ....    1
 Number of Electrons    NEL             ....  134
 Basis Dimension        Dim             ....  322

ORBITAL ENERGIES
----------------

  NO   OCC          E(Eh)            E(eV)
   0   2.0000     -88.971215     -2421.0299
   1   2.0000     -88.962213     -2420.7849
   2   2.0000     -10.338181      -281.3162
   3   2.0000     -10.323095      -280.9057
   4   2.0000     -10.319447      -280.8064
   5   2.0000     -10.313340      -280.6403
   6   2.0000     -10.310207      -280.5550
   7   2.0000     -10.307258      -280.4748
   8   2.0000     -10.304016      -280.3865
   9   2.0000     -10.302571      -280.3472
  10   2.0000     -10.299212      -280.2558
  11   2.0000     -10.291748      -280.0527
  12   2.0000     -10.286251      -279.9031
  13   2.0000     -10.284332      -279.8509
  14   2.0000     -10.276730      -279.6440
  15   2.0000     -10.271231      -279.4944
  16   2.0000      -8.084895      -220.0012
  17   2.0000      -8.078169      -219.8182
  18   2.0000      -6.043463      -164.4510
  19   2.0000      -6.039515      -164.3436
  20   2.0000      -6.036570      -164.2634
  21   2.0000      -6.035674      -164.2390
  22   2.0000      -6.032449      -164.1513
  23   2.0000      -6.029017      -164.0579
  24   2.0000      -1.011316       -27.5193
  25   2.0000      -0.980949       -26.6930
  26   2.0000      -0.921704       -25.0808
  27   2.0000      -0.907437       -24.6926
  28   2.0000      -0.872562       -23.7436
  29   2.0000      -0.853002       -23.2114
  30   2.0000      -0.845651       -23.0113
  31   2.0000      -0.818471       -22.2717
  32   2.0000      -0.781484       -21.2652
  33   2.0000      -0.770788       -20.9742
  34   2.0000      -0.709104       -19.2957
  35   2.0000      -0.698057       -18.9951
  36   2.0000      -0.696758       -18.9598
  37   2.0000      -0.654547       -17.8111
  38   2.0000      -0.639539       -17.4027
  39   2.0000      -0.620157       -16.8753
  40   2.0000      -0.595441       -16.2028
  41   2.0000      -0.576841       -15.6966
  42   2.0000      -0.566916       -15.4266
  43   2.0000      -0.563577       -15.3357
  44   2.0000      -0.530413       -14.4333
  45   2.0000      -0.524696       -14.2777
  46   2.0000      -0.515915       -14.0388
  47   2.0000      -0.514518       -14.0007
  48   2.0000      -0.507251       -13.8030
  49   2.0000      -0.496781       -13.5181
  50   2.0000      -0.489938       -13.3319
  51   2.0000      -0.479828       -13.0568
  52   2.0000      -0.476447       -12.9648
  53   2.0000      -0.462850       -12.5948
  54   2.0000      -0.458550       -12.4778
  55   2.0000      -0.456800       -12.4302
  56   2.0000      -0.449803       -12.2398
  57   2.0000      -0.436938       -11.8897
  58   2.0000      -0.430314       -11.7094
  59   2.0000      -0.422449       -11.4954
  60   2.0000      -0.418063       -11.3761
  61   2.0000      -0.416327       -11.3288
  62   2.0000      -0.411781       -11.2051
  63   2.0000      -0.351153        -9.5553
  64   2.0000      -0.332608        -9.0507
  65   2.0000      -0.328609        -8.9419
  66   2.0000      -0.286922        -7.8075
  67   0.0000       0.022950         0.6245
  68   0.0000       0.072943         1.9849
  69   0.0000       0.100496         2.7346
  70   0.0000       0.117469         3.1965
  71   0.0000       0.134991         3.6733

MULLIKEN ATOMIC CHARGES
-----------------------
   0 S :    0.116994
   1 C :   -0.116833
   2 C :   -0.069032
   3 C :    0.006321
   4 C :   -0.143492
   5 H :    0.033085
   6 C :    0.019393
   7 H :    0.028350
   8 H :    0.011771
   9 C :   -0.041650
  10 H :    0.014212
  11 H :    0.005623
  12 C :   -0.010569
  13 H :    0.052288
  14 H :    0.020308
  15 H :    0.015022
  16 S :    0.102163
  17 C :   -0.115912
  18 C :   -0.022364
  19 C :   -0.003909
  20 C :   -0.149027
  21 H :   -0.003940
  22 C :   -0.038824
  23 H :    0.064338
  24 H :    0.053941
  25 C :   -0.064740
  26 H :    0.036958
  27 H :    0.037049
  28 C :   -0.057701
  29 H :    0.027274
  30 H :    0.027147
  31 H :    0.040568
  32 H :    0.053741
  33 H :    0.071447
Sum of atomic charges:   -0.0000000

LOEWDIN ATOMIC CHARGES
----------------------
   0 S :    0.395541
   1 C :   -0.192804
   2 C :   -0.054924
   3 C :   -0.065899
   4 C :   -0.181462
   5 H :    0.041022
   6 C :   -0.036229
   7 H :    0.033533
   8 H :    0.026464
   9 C :   -0.047601
  10 H :    0.020588
  11 H :    0.016501
  12 C :   -0.057406
  13 H :    0.036449
  14 H :    0.026246
  15 H :    0.017296
  16 S :    0.423498
  17 C :   -0.196321
  18 C :   -0.072557
  19 C :   -0.063068
  20 C :   -0.210341
  21 H :    0.024907
  22 C :   -0.053141
  23 H :    0.039087
  24 H :    0.046867
  25 C :   -0.044117
  26 H :    0.026125
  27 H :    0.027256
  28 C :   -0.069026
  29 H :    0.022647
  30 H :    0.025005
  31 H :    0.029228
  32 H :    0.025293
  33 H :    0.041342

  Mayer bond orders larger than 0.100000
B(  0-S ,  1-C ) :   1.1335 B(  0-S ,  4-C ) :   1.1581 B(  1-C ,  2-C ) :   1.5950
B(  1-C , 32-H ) :   0.9698 B(  2-C ,  3-C ) :   1.2379 B(  2-C ,  6-C ) :   1.0278
B(  3-C ,  4-C ) :   1.5552 B(  3-C ,  5-H ) :   0.9824 B(  4-C , 20-C ) :   1.0514
B(  6-C ,  7-H ) :   0.9407 B(  6-C ,  8-H ) :   0.9372 B(  6-C ,  9-C ) :   1.0750
B(  9-C , 10-H ) :   0.9464 B(  9-C , 11-H ) :   0.9476 B(  9-C , 12-C ) :   1.0874
B( 12-C , 13-H ) :   0.9717 B( 12-C , 14-H ) :   0.9701 B( 12-C , 15-H ) :   0.9725
B( 16-S , 17-C ) :   1.1572 B( 16-S , 20-C ) :   1.1538 B( 17-C , 18-C ) :   1.6089
B( 17-C , 33-H ) :   0.9607 B( 18-C , 19-C ) :   1.2282 B( 18-C , 21-H ) :   1.0039
B( 19-C , 20-C ) :   1.5714 B( 19-C , 22-C ) :   1.0380 B( 22-C , 23-H ) :   0.9236
B( 22-C , 24-H ) :   0.9336 B( 22-C , 25-C ) :   1.0677 B( 25-C , 26-H ) :   0.9590
B( 25-C , 27-H ) :   0.9479 B( 25-C , 28-C ) :   1.0666 B( 28-C , 29-H ) :   0.9783
B( 28-C , 30-H ) :   0.9767 B( 28-C , 31-H ) :   0.9773

Dispersion correction           -0.013257567
FINAL SINGLE POINT ENERGY     -1339.869770962377

DIPOLE MOMENT
-------------
                                X             Y             Z
Electronic contribution:      2.97430      19.22182      22.96098
Nuclear contribution   :     -3.17702     -19.40670     -23.55542
                        -----------------------------------------
Total Dipole Moment    :     -0.20271      -0.18488      -0.59444
                        -----------------------------------------
Magnitude (a.u.)       :      0.65470
Magnitude (Debye)      :      1.66412

Rotational constants in cm-1:     0.017634     0.007967     0.005980
Rotational constants in MHz :   528.647215   238.831314   179.264471

                             ****ORCA TERMINATED NORMALLY****
TOTAL RUN TIME: 0 days 0 hours 0 minutes 32 seconds 475 msec
