                         Program Version 4.2.1 -  RELEASE  -
|  1> ! wB97X-D3 SP def2-SVP
|  2> %pal
|  3> nprocs 16
|  4> end
|  5>
|  6> * xyz 0 1
|  7> S 	 -6.78851 	 59.8173 	 47.4493
|  8> C 	 -7.90416 	 59.5321 	 48.7824
|  9> C 	 -7.48543 	 58.4948 	 49.5798
| 10> C 	 -6.42339 	 57.7378 	 48.9974
| 11> C 	 -5.93293 	 58.3848 	 47.8546
| 12> H 	 -5.9971 	 56.8875 	 49.4765
| 13> C 	 -8.08677 	 58.3199 	 50.9352
| 14> H 	 -7.97831 	 57.3137 	 51.2725
| 15> H 	 -9.15755 	 58.4421 	 51.0086
| 16> C 	 -7.55756 	 59.2816 	 52.0204
| 17> H 	 -6.50384 	 59.1659 	 52.1312
| 18> H 	 -7.68027 	 60.3086 	 51.7224
| 19> C 	 -8.3063 	 59.0266 	 53.3793
| 20> H 	 -7.88193 	 59.7254 	 54.1487
| 21> H 	 -9.3496 	 59.1621 	 53.3735
| 22> H 	 -8.17945 	 57.9794 	 53.6842
| 23> S 	 -5.22179 	 57.6489 	 45.226
| 24> C 	 -3.7152 	 56.8312 	 44.932
| 25> C 	 -2.94941 	 56.7982 	 46.0766
| 26> C 	 -3.61799 	 57.2588 	 47.2463
| 27> C 	 -4.92327 	 57.8199 	 46.9889
| 28> H 	 -1.99346 	 56.3261 	 46.2904
| 29> C 	 -2.92518 	 57.2739 	 48.5957
| 30> H 	 -1.99819 	 56.701 	 48.5483
| 31> H 	 -3.56299 	 56.6978 	 49.3246
| 32> C 	 -2.46656 	 58.6929 	 49.1023
| 33> H 	 -3.38062 	 59.2651 	 49.1881
| 34> H 	 -1.75289 	 59.0658 	 48.363
| 35> C 	 -1.65314 	 58.8031 	 50.3798
| 36> H 	 -2.24868 	 58.2339 	 51.1349
| 37> H 	 -1.37011 	 59.7814 	 50.6049
| 38> H 	 -0.795476 	 58.1528 	 50.289
| 39> H 	 -8.73494 	 60.137 	 49.0379
| 40> H 	 -3.30715 	 56.4317 	 44.0571
| 41> *
| 42>
| 43>                          ****END OF INPUT****

CARTESIAN COORDINATES (ANGSTROEM)
---------------------------------
  S     -6.788510   59.817300   47.449300
  C     -7.904160   59.532100   48.782400
  C     -7.485430   58.494800   49.579800
  C     -6.423390   57.737800   48.997400
  C     -5.932930   58.384800   47.854600
  H     -5.997100   56.887500   49.476500
  C     -8.086770   58.319900   50.935200
  H     -7.978310   57.313700   51.272500
  H     -9.157550   58.442100   51.008600
  C     -7.557560   59.281600   52.020400
  H     -6.503840   59.165900   52.131200
  H     -7.680270   60.308600   51.722400
  C     -8.306300   59.026600   53.379300
  H     -7.881930   59.725400   54.148700
  H     -9.349600   59.162100   53.373500
  H     -8.179450   57.979400   53.684200
  S     -5.221790   57.648900   45.226000
  C     -3.715200   56.831200   44.932000
  C     -2.949410   56.798200   46.076600
  C     -3.617990   57.258800   47.246300
  C     -4.923270   57.819900   46.988900
  H     -1.993460   56.326100   46.290400
  C     -2.925180   57.273900   48.595700
  H     -1.998190   56.701000   48.548300
  H     -3.562990   56.697800   49.324600
  C     -2.466560   58.692900   49.102300
  H     -3.380620   59.265100   49.188100
  H     -1.752890   59.065800   48.363000
  C     -1.653140   58.803100   50.379800
  H     -2.248680   58.233900   51.134900
  H     -1.370110   59.781400   50.604900
  H     -0.795476   58.152800   50.289000
  H     -8.734940   60.137000   49.037900
  H     -3.307150   56.431700   44.057100

 Total Charge           Charge          ....    0
 Multiplicity           Mult            ....    1
 Number of Electrons    NEL             ....  134
 Basis Dimension        Dim             ....  322

ORBITAL ENERGIES
----------------

  NO   OCC          E(Eh)            E(eV)
   0   2.0000     -88.971833     -2421.0466
   1   2.0000     -88.968972     -2420.9688
   2   2.0000     -10.332913      -281.1729
   3   2.0000     -10.331777      -281.1420
   4   2.0000     -10.315821      -280.7077
   5   2.0000     -10.309327      -280.5310
   6   2.0000     -10.305794      -280.4349
   7   2.0000     -10.298780      -280.2441
   8   2.0000     -10.296792      -280.1900
   9   2.0000     -10.296357      -280.1781
  10   2.0000     -10.291829      -280.0549
  11   2.0000     -10.287042      -279.9246
  12   2.0000     -10.285928      -279.8943
  13   2.0000     -10.282551      -279.8024
  14   2.0000     -10.282239      -279.7940
  15   2.0000     -10.273573      -279.5581
  16   2.0000      -8.086683      -220.0498
  17   2.0000      -8.082668      -219.9406
  18   2.0000      -6.045094      -164.4954
  19   2.0000      -6.041258      -164.3910
  20   2.0000      -6.041204      -164.3895
  21   2.0000      -6.037515      -164.2891
  22   2.0000      -6.037148      -164.2791
  23   2.0000      -6.033556      -164.1814
  24   2.0000      -1.006549       -27.3896
  25   2.0000      -0.981632       -26.7116
  26   2.0000      -0.914252       -24.8780
  27   2.0000      -0.904249       -24.6059
  28   2.0000      -0.868651       -23.6372
  29   2.0000      -0.854154       -23.2427
  30   2.0000      -0.848461       -23.0878
  31   2.0000      -0.813744       -22.1431
  32   2.0000      -0.782821       -21.3016
  33   2.0000      -0.768949       -20.9242
  34   2.0000      -0.710695       -19.3390
  35   2.0000      -0.709154       -19.2971
  36   2.0000      -0.687687       -18.7129
  37   2.0000      -0.663008       -18.0414
  38   2.0000      -0.643636       -17.5142
  39   2.0000      -0.623234       -16.9591
  40   2.0000      -0.594357       -16.1733
  41   2.0000      -0.572815       -15.5871
  42   2.0000      -0.565816       -15.3966
  43   2.0000      -0.558911       -15.2088
  44   2.0000      -0.536176       -14.5901
  45   2.0000      -0.522583       -14.2202
  46   2.0000      -0.519809       -14.1447
  47   2.0000      -0.508842       -13.8463
  48   2.0000      -0.507122       -13.7995
  49   2.0000      -0.500418       -13.6171
  50   2.0000      -0.490645       -13.3511
  51   2.0000      -0.486997       -13.2519
  52   2.0000      -0.472628       -12.8609
  53   2.0000      -0.464174       -12.6308
  54   2.0000      -0.456828       -12.4309
  55   2.0000      -0.450073       -12.2471
  56   2.0000      -0.447649       -12.1812
  57   2.0000      -0.443629       -12.0718
  58   2.0000      -0.433730       -11.8024
  59   2.0000      -0.426037       -11.5930
  60   2.0000      -0.417664       -11.3652
  61   2.0000      -0.413660       -11.2563
  62   2.0000      -0.409012       -11.1298
  63   2.0000      -0.346235        -9.4215
  64   2.0000      -0.333017        -9.0619
  65   2.0000      -0.330916        -9.0047
  66   2.0000      -0.286505        -7.7962
  67   0.0000       0.022215         0.6045
  68   0.0000       0.067514         1.8372
  69   0.0000       0.107458         2.9241
  70   0.0000       0.122072         3.3217
  71   0.0000       0.129748         3.5306

MULLIKEN ATOMIC CHARGES
-----------------------
   0 S :    0.127894
   1 C :   -0.113451
   2 C :   -0.065004
   3 C :    0.047355
   4 C :   -0.156461
   5 H :    0.003407
   6 C :    0.056983
   7 H :    0.002776
   8 H :    0.015818
   9 C :   -0.048080
  10 H :    0.021858
  11 H :    0.022031
  12 C :   -0.058542
  13 H :    0.045259
  14 H :    0.023836
  15 H :    0.029110
  16 S :    0.114546
  17 C :   -0.050940
  18 C :   -0.022198
  19 C :   -0.060404
  20 C :   -0.148985
  21 H :    0.016292
  22 C :    0.037580
  23 H :    0.002477
  24 H :    0.033598
  25 C :   -0.087467
  26 H :    0.041815
  27 H :    0.029233
  28 C :   -0.005007
  29 H :    0.020066
  30 H :    0.040311
  31 H :    0.012459
  32 H :    0.034123
  33 H :    0.037714
Sum of atomic charges:   -0.0000000

LOEWDIN ATOMIC CHARGES
----------------------
   0 S :    0.423440
   1 C :   -0.188092
   2 C :   -0.058771
   3 C :   -0.052858
   4 C :   -0.205355
   5 H :    0.027854
   6 C :   -0.035125
   7 H :    0.022365
   8 H :    0.029938
   9 C :   -0.028383
  10 H :    0.019204
  11 H :    0.019750
  12 C :   -0.065227
  13 H :    0.034227
  14 H :    0.016126
  15 H :    0.025668
  16 S :    0.404678
  17 C :   -0.182975
  18 C :   -0.074732
  19 C :   -0.052823
  20 C :   -0.192437
  21 H :    0.032109
  22 C :   -0.039332
  23 H :    0.023243
  24 H :    0.031126
  25 C :   -0.037720
  26 H :    0.022245
  27 H :    0.026045
  28 C :   -0.059388
  29 H :    0.027806
  30 H :    0.021775
  31 H :    0.020950
  32 H :    0.020663
  33 H :    0.024005

  Mayer bond orders larger than 0.100000
B(  0-S ,  1-C ) :   1.1292 B(  0-S ,  4-C ) :   1.1686 B(  1-C ,  2-C ) :   1.5973
B(  1-C , 32-H ) :   0.9729 B(  2-C ,  3-C ) :   1.2641 B(  2-C ,  6-C ) :   1.0356
B(  3-C ,  4-C ) :   1.5210 B(  3-C ,  5-H ) :   0.9984 B(  4-C , 20-C ) :   1.0723
B(  6-C ,  7-H ) :   0.9369 B(  6-C ,  8-H ) :   0.9414 B(  6-C ,  9-C ) :   1.0558
B(  9-C , 10-H ) :   0.9561 B(  9-C , 11-H ) :   0.9573 B(  9-C , 12-C ) :   1.0732
B( 12-C , 13-H ) :   0.9749 B( 12-C , 14-H ) :   0.9772 B( 12-C , 15-H ) :   0.9761
B( 16-S , 17-C ) :   1.1640 B( 16-S , 20-C ) :   1.1364 B( 17-C , 18-C ) :   1.5599
B( 17-C , 20-C ) :   0.1078 B( 17-C , 33-H ) :   0.9718 B( 18-C , 19-C ) :   1.3158
B( 18-C , 21-H ) :   0.9753 B( 19-C , 20-C ) :   1.5281 B( 19-C , 22-C ) :   1.0563
B( 22-C , 23-H ) :   0.9304 B( 22-C , 24-H ) :   0.9299 B( 22-C , 25-C ) :   1.0536
B( 25-C , 26-H ) :   0.9590 B( 25-C , 27-H ) :   0.9564 B( 25-C , 28-C ) :   1.0882
B( 28-C , 29-H ) :   0.9721 B( 28-C , 30-H ) :   0.9737 B( 28-C , 31-H ) :   0.9710

Dispersion correction           -0.014057775
FINAL SINGLE POINT ENERGY     -1339.870127154025

DIPOLE MOMENT
-------------
                                X             Y             Z
Electronic contribution:     -5.74705      -0.15454     -30.75376
Nuclear contribution   :      5.94586       0.00655      31.38817
                        -----------------------------------------
Total Dipole Moment    :      0.19881      -0.14798       0.63441
                        -----------------------------------------
Magnitude (a.u.)       :      0.68110
Magnitude (Debye)      :      1.73122

Rotational constants in cm-1:     0.019036     0.008453     0.006512
Rotational constants in MHz :   570.686619   253.409053   195.229369

                             ****ORCA TERMINATED NORMALLY****
TOTAL RUN TIME: 0 days 0 hours 0 minutes 34 seconds 40 msec
