                         Program Version 4.2.1 -  RELEASE  -
|  1> ! wB97X-D3 SP def2-SVP
|  2> %pal
|  3> nprocs 16
|  4> end
|  5>
|  6> * xyz 0 1
|  7> S 	 -100.011 	 53.0592 	 119.479
|  8> C 	 -99.8084 	 53.4797 	 117.8
|  9> C 	 -100.488 	 54.6567 	 117.438
| 10> C 	 -101.373 	 55.0702 	 118.425
| 11> C 	 -101.264 	 54.2999 	 119.563
| 12> H 	 -102.079 	 55.8922 	 118.517
| 13> C 	 -100.457 	 55.239 	 116.044
| 14> H 	 -101.379 	 55.7906 	 115.952
| 15> H 	 -100.45 	 54.4538 	 115.186
| 16> C 	 -99.2075 	 56.0871 	 115.766
| 17> H 	 -98.2927 	 55.612 	 115.972
| 18> H 	 -99.2098 	 56.2312 	 114.656
| 19> C 	 -99.1815 	 57.4577 	 116.465
| 20> H 	 -100.17 	 57.7305 	 116.658
| 21> H 	 -98.8418 	 57.2253 	 117.555
| 22> H 	 -98.6204 	 58.3149 	 116.056
| 23> S 	 -101.406 	 54.6432 	 122.284
| 24> C 	 -102.918 	 55.0041 	 123.053
| 25> C 	 -103.98 	 54.7864 	 122.153
| 26> C 	 -103.525 	 54.5442 	 120.818
| 27> C 	 -102.164 	 54.4262 	 120.703
| 28> H 	 -104.969 	 54.8417 	 122.479
| 29> C 	 -104.544 	 54.3632 	 119.72
| 30> H 	 -104.041 	 54.5786 	 118.811
| 31> H 	 -105.204 	 55.2308 	 119.949
| 32> C 	 -105.34 	 53.0574 	 119.694
| 33> H 	 -104.633 	 52.1948 	 119.691
| 34> H 	 -105.85 	 53.0365 	 118.798
| 35> C 	 -106.359 	 52.8694 	 120.838
| 36> H 	 -106.942 	 51.9737 	 120.769
| 37> H 	 -107.122 	 53.6749 	 120.95
| 38> H 	 -105.797 	 52.7484 	 121.8
| 39> H 	 -99.0998 	 52.9955 	 117.135
| 40> H 	 -103.079 	 55.2674 	 124.104
| 41> *
| 42>
| 43>                          ****END OF INPUT****

CARTESIAN COORDINATES (ANGSTROEM)
---------------------------------
  S    -100.011000   53.059200  119.479000
  C    -99.808400   53.479700  117.800000
  C    -100.488000   54.656700  117.438000
  C    -101.373000   55.070200  118.425000
  C    -101.264000   54.299900  119.563000
  H    -102.079000   55.892200  118.517000
  C    -100.457000   55.239000  116.044000
  H    -101.379000   55.790600  115.952000
  H    -100.450000   54.453800  115.186000
  C    -99.207500   56.087100  115.766000
  H    -98.292700   55.612000  115.972000
  H    -99.209800   56.231200  114.656000
  C    -99.181500   57.457700  116.465000
  H    -100.170000   57.730500  116.658000
  H    -98.841800   57.225300  117.555000
  H    -98.620400   58.314900  116.056000
  S    -101.406000   54.643200  122.284000
  C    -102.918000   55.004100  123.053000
  C    -103.980000   54.786400  122.153000
  C    -103.525000   54.544200  120.818000
  C    -102.164000   54.426200  120.703000
  H    -104.969000   54.841700  122.479000
  C    -104.544000   54.363200  119.720000
  H    -104.041000   54.578600  118.811000
  H    -105.204000   55.230800  119.949000
  C    -105.340000   53.057400  119.694000
  H    -104.633000   52.194800  119.691000
  H    -105.850000   53.036500  118.798000
  C    -106.359000   52.869400  120.838000
  H    -106.942000   51.973700  120.769000
  H    -107.122000   53.674900  120.950000
  H    -105.797000   52.748400  121.800000
  H    -99.099800   52.995500  117.135000
  H    -103.079000   55.267400  124.104000

 Total Charge           Charge          ....    0
 Multiplicity           Mult            ....    1
 Number of Electrons    NEL             ....  134
 Basis Dimension        Dim             ....  322

ORBITAL ENERGIES
----------------

  NO   OCC          E(Eh)            E(eV)
   0   2.0000     -88.972289     -2421.0591
   1   2.0000     -88.962080     -2420.7813
   2   2.0000     -10.327853      -281.0352
   3   2.0000     -10.322738      -280.8960
   4   2.0000     -10.319612      -280.8109
   5   2.0000     -10.315183      -280.6904
   6   2.0000     -10.301428      -280.3161
   7   2.0000     -10.299433      -280.2618
   8   2.0000     -10.298903      -280.2474
   9   2.0000     -10.293136      -280.0905
  10   2.0000     -10.289819      -280.0002
  11   2.0000     -10.287591      -279.9396
  12   2.0000     -10.284940      -279.8674
  13   2.0000     -10.284814      -279.8640
  14   2.0000     -10.281223      -279.7663
  15   2.0000     -10.277182      -279.6563
  16   2.0000      -8.086724      -220.0509
  17   2.0000      -8.077031      -219.7872
  18   2.0000      -6.044996      -164.4927
  19   2.0000      -6.041444      -164.3961
  20   2.0000      -6.037598      -164.2914
  21   2.0000      -6.035574      -164.2363
  22   2.0000      -6.031436      -164.1237
  23   2.0000      -6.027829      -164.0256
  24   2.0000      -1.008046       -27.4303
  25   2.0000      -0.984755       -26.7966
  26   2.0000      -0.911738       -24.8097
  27   2.0000      -0.908902       -24.7325
  28   2.0000      -0.867035       -23.5932
  29   2.0000      -0.855339       -23.2750
  30   2.0000      -0.845821       -23.0160
  31   2.0000      -0.811626       -22.0855
  32   2.0000      -0.783775       -21.3276
  33   2.0000      -0.769855       -20.9488
  34   2.0000      -0.708657       -19.2835
  35   2.0000      -0.705160       -19.1884
  36   2.0000      -0.690901       -18.8004
  37   2.0000      -0.667830       -18.1726
  38   2.0000      -0.644759       -17.5448
  39   2.0000      -0.613327       -16.6895
  40   2.0000      -0.588711       -16.0196
  41   2.0000      -0.573062       -15.5938
  42   2.0000      -0.553012       -15.0482
  43   2.0000      -0.546266       -14.8646
  44   2.0000      -0.544913       -14.8278
  45   2.0000      -0.531743       -14.4695
  46   2.0000      -0.521212       -14.1829
  47   2.0000      -0.514197       -13.9920
  48   2.0000      -0.502889       -13.6843
  49   2.0000      -0.489443       -13.3184
  50   2.0000      -0.485672       -13.2158
  51   2.0000      -0.482077       -13.1180
  52   2.0000      -0.472161       -12.8482
  53   2.0000      -0.466794       -12.7021
  54   2.0000      -0.462729       -12.5915
  55   2.0000      -0.451905       -12.2970
  56   2.0000      -0.442929       -12.0527
  57   2.0000      -0.438107       -11.9215
  58   2.0000      -0.432636       -11.7726
  59   2.0000      -0.425728       -11.5847
  60   2.0000      -0.422851       -11.5064
  61   2.0000      -0.411847       -11.2069
  62   2.0000      -0.406842       -11.0707
  63   2.0000      -0.347189        -9.4475
  64   2.0000      -0.336566        -9.1584
  65   2.0000      -0.327677        -8.9166
  66   2.0000      -0.286197        -7.7878
  67   0.0000       0.030212         0.8221
  68   0.0000       0.060473         1.6455
  69   0.0000       0.110203         2.9988
  70   0.0000       0.116124         3.1599
  71   0.0000       0.131183         3.5697

MULLIKEN ATOMIC CHARGES
-----------------------
   0 S :    0.130925
   1 C :   -0.119687
   2 C :   -0.052201
   3 C :    0.009613
   4 C :   -0.152769
   5 H :    0.027343
   6 C :    0.022046
   7 H :    0.023647
   8 H :    0.050469
   9 C :   -0.060235
  10 H :    0.022888
  11 H :    0.027183
  12 C :   -0.057923
  13 H :    0.001584
  14 H :    0.039986
  15 H :    0.055186
  16 S :    0.096744
  17 C :   -0.097962
  18 C :   -0.027814
  19 C :   -0.075855
  20 C :   -0.156494
  21 H :   -0.001822
  22 C :    0.091557
  23 H :   -0.000029
  24 H :    0.025106
  25 C :   -0.006683
  26 H :    0.038639
  27 H :    0.014931
  28 C :   -0.082823
  29 H :    0.028371
  30 H :    0.032862
  31 H :    0.041596
  32 H :    0.046210
  33 H :    0.065410
Sum of atomic charges:   -0.0000000

LOEWDIN ATOMIC CHARGES
----------------------
   0 S :    0.410058
   1 C :   -0.197074
   2 C :   -0.066130
   3 C :   -0.065086
   4 C :   -0.186499
   5 H :    0.038484
   6 C :   -0.031569
   7 H :    0.026980
   8 H :    0.045030
   9 C :   -0.041148
  10 H :    0.016258
  11 H :    0.024705
  12 C :   -0.073738
  13 H :    0.010458
  14 H :    0.038842
  15 H :    0.031299
  16 S :    0.399879
  17 C :   -0.190049
  18 C :   -0.067210
  19 C :   -0.060506
  20 C :   -0.198744
  21 H :    0.019460
  22 C :   -0.028746
  23 H :    0.021739
  24 H :    0.035966
  25 C :   -0.028974
  26 H :    0.034495
  27 H :    0.015203
  28 C :   -0.073014
  29 H :    0.023498
  30 H :    0.025715
  31 H :    0.030572
  32 H :    0.025293
  33 H :    0.034553

  Mayer bond orders larger than 0.100000
B(  0-S ,  1-C ) :   1.1485 B(  0-S ,  4-C ) :   1.1554 B(  1-C ,  2-C ) :   1.5904
B(  1-C ,  4-C ) :   0.1103 B(  1-C , 32-H ) :   0.9663 B(  2-C ,  3-C ) :   1.2360
B(  2-C ,  6-C ) :   1.0137 B(  3-C ,  4-C ) :   1.5814 B(  3-C ,  5-H ) :   0.9905
B(  4-C , 20-C ) :   1.0185 B(  6-C ,  7-H ) :   0.9460 B(  6-C ,  8-H ) :   0.9484
B(  6-C ,  9-C ) :   1.0665 B(  9-C , 10-H ) :   0.9634 B(  9-C , 11-H ) :   0.9572
B(  9-C , 12-C ) :   1.0607 B( 12-C , 13-H ) :   0.9765 B( 12-C , 14-H ) :   0.9714
B( 12-C , 15-H ) :   0.9776 B( 16-S , 17-C ) :   1.1691 B( 16-S , 20-C ) :   1.1252
B( 17-C , 18-C ) :   1.5880 B( 17-C , 33-H ) :   0.9656 B( 18-C , 19-C ) :   1.2397
B( 18-C , 21-H ) :   0.9973 B( 19-C , 20-C ) :   1.6180 B( 19-C , 22-C ) :   1.0271
B( 22-C , 23-H ) :   0.9273 B( 22-C , 24-H ) :   0.9310 B( 22-C , 25-C ) :   1.0736
B( 25-C , 26-H ) :   0.9518 B( 25-C , 27-H ) :   0.9536 B( 25-C , 28-C ) :   1.0830
B( 28-C , 29-H ) :   0.9714 B( 28-C , 30-H ) :   0.9742 B( 28-C , 31-H ) :   0.9688

Dispersion correction           -0.014573882
FINAL SINGLE POINT ENERGY     -1339.868360069921

DIPOLE MOMENT
-------------
                                X             Y             Z
Electronic contribution:     11.59162      -6.73134      15.88261
Nuclear contribution   :    -12.04618       6.85623     -16.27844
                        -----------------------------------------
Total Dipole Moment    :     -0.45456       0.12489      -0.39584
                        -----------------------------------------
Magnitude (a.u.)       :      0.61556
Magnitude (Debye)      :      1.56462

Rotational constants in cm-1:     0.021127     0.007781     0.006955
Rotational constants in MHz :   633.366026   233.262067   208.505719

                             ****ORCA TERMINATED NORMALLY****
TOTAL RUN TIME: 0 days 0 hours 0 minutes 35 seconds 14 msec
