                         Program Version 4.2.1 -  RELEASE  -
|  1> ! wB97X-D3 SP def2-SVP
|  2> %pal
|  3> nprocs 16
|  4> end
|  5>
|  6> * xyz 0 1
|  7> S 	 -2.89134 	 -11.7296 	 84.5816
|  8> C 	 -1.98875 	 -12.5249 	 85.83
|  9> C 	 -2.83502 	 -13.4629 	 86.4962
| 10> C 	 -4.13753 	 -13.4242 	 85.9644
| 11> C 	 -4.30279 	 -12.6895 	 84.8326
| 12> H 	 -5.00045 	 -13.9259 	 86.3976
| 13> C 	 -2.4701 	 -14.3312 	 87.7039
| 14> H 	 -1.38878 	 -14.4669 	 87.6505
| 15> H 	 -3.0007 	 -15.3489 	 87.4958
| 16> C 	 -3.10824 	 -13.8836 	 89.0483
| 17> H 	 -2.73352 	 -12.886 	 89.2614
| 18> H 	 -4.20189 	 -13.7414 	 88.9793
| 19> C 	 -2.74405 	 -14.8723 	 90.2554
| 20> H 	 -3.23783 	 -14.3812 	 91.1045
| 21> H 	 -3.14198 	 -15.9143 	 90.1181
| 22> H 	 -1.69112 	 -14.9012 	 90.4256
| 23> S 	 -6.03455 	 -10.8063 	 83.8715
| 24> C 	 -7.52655 	 -11.3377 	 83.0976
| 25> C 	 -7.67869 	 -12.728 	 83.1954
| 26> C 	 -6.5432 	 -13.3367 	 83.783
| 27> C 	 -5.51505 	 -12.444 	 84.096
| 28> H 	 -8.47773 	 -13.312 	 82.676
| 29> C 	 -6.46963 	 -14.8649 	 83.8999
| 30> H 	 -7.43744 	 -15.328 	 83.8316
| 31> H 	 -6.12648 	 -15.0444 	 84.9382
| 32> C 	 -5.47795 	 -15.4853 	 82.8063
| 33> H 	 -4.52157 	 -14.9646 	 82.7333
| 34> H 	 -5.7721 	 -15.1634 	 81.8248
| 35> C 	 -5.33163 	 -16.9552 	 82.8334
| 36> H 	 -6.28453 	 -17.4943 	 82.8882
| 37> H 	 -4.80973 	 -17.2665 	 83.7297
| 38> H 	 -4.79029 	 -17.3677 	 81.9933
| 39> H 	 -0.968657 	 -12.4509 	 85.9755
| 40> H 	 -8.24907 	 -10.6698 	 82.6859
| 41> *
| 42>
| 43>                          ****END OF INPUT****

CARTESIAN COORDINATES (ANGSTROEM)
---------------------------------
  S     -2.891340  -11.729600   84.581600
  C     -1.988750  -12.524900   85.830000
  C     -2.835020  -13.462900   86.496200
  C     -4.137530  -13.424200   85.964400
  C     -4.302790  -12.689500   84.832600
  H     -5.000450  -13.925900   86.397600
  C     -2.470100  -14.331200   87.703900
  H     -1.388780  -14.466900   87.650500
  H     -3.000700  -15.348900   87.495800
  C     -3.108240  -13.883600   89.048300
  H     -2.733520  -12.886000   89.261400
  H     -4.201890  -13.741400   88.979300
  C     -2.744050  -14.872300   90.255400
  H     -3.237830  -14.381200   91.104500
  H     -3.141980  -15.914300   90.118100
  H     -1.691120  -14.901200   90.425600
  S     -6.034550  -10.806300   83.871500
  C     -7.526550  -11.337700   83.097600
  C     -7.678690  -12.728000   83.195400
  C     -6.543200  -13.336700   83.783000
  C     -5.515050  -12.444000   84.096000
  H     -8.477730  -13.312000   82.676000
  C     -6.469630  -14.864900   83.899900
  H     -7.437440  -15.328000   83.831600
  H     -6.126480  -15.044400   84.938200
  C     -5.477950  -15.485300   82.806300
  H     -4.521570  -14.964600   82.733300
  H     -5.772100  -15.163400   81.824800
  C     -5.331630  -16.955200   82.833400
  H     -6.284530  -17.494300   82.888200
  H     -4.809730  -17.266500   83.729700
  H     -4.790290  -17.367700   81.993300
  H     -0.968657  -12.450900   85.975500
  H     -8.249070  -10.669800   82.685900

 Total Charge           Charge          ....    0
 Multiplicity           Mult            ....    1
 Number of Electrons    NEL             ....  134
 Basis Dimension        Dim             ....  322

ORBITAL ENERGIES
----------------

  NO   OCC          E(Eh)            E(eV)
   0   2.0000     -88.968634     -2420.9596
   1   2.0000     -88.965599     -2420.8770
   2   2.0000     -10.324025      -280.9310
   3   2.0000     -10.323289      -280.9110
   4   2.0000     -10.319277      -280.8018
   5   2.0000     -10.312352      -280.6134
   6   2.0000     -10.303421      -280.3703
   7   2.0000     -10.302394      -280.3424
   8   2.0000     -10.302094      -280.3342
   9   2.0000     -10.298583      -280.2387
  10   2.0000     -10.296844      -280.1914
  11   2.0000     -10.295814      -280.1633
  12   2.0000     -10.287714      -279.9429
  13   2.0000     -10.286453      -279.9086
  14   2.0000     -10.280941      -279.7586
  15   2.0000     -10.270569      -279.4764
  16   2.0000      -8.083249      -219.9564
  17   2.0000      -8.080899      -219.8925
  18   2.0000      -6.041720      -164.4036
  19   2.0000      -6.039329      -164.3385
  20   2.0000      -6.037720      -164.2947
  21   2.0000      -6.035177      -164.2255
  22   2.0000      -6.034112      -164.1965
  23   2.0000      -6.031871      -164.1356
  24   2.0000      -1.012038       -27.5389
  25   2.0000      -0.985229       -26.8094
  26   2.0000      -0.904076       -24.6011
  27   2.0000      -0.902254       -24.5516
  28   2.0000      -0.868809       -23.6415
  29   2.0000      -0.855643       -23.2832
  30   2.0000      -0.844941       -22.9920
  31   2.0000      -0.812805       -22.1175
  32   2.0000      -0.779327       -21.2066
  33   2.0000      -0.767907       -20.8958
  34   2.0000      -0.709470       -19.3057
  35   2.0000      -0.701405       -19.0862
  36   2.0000      -0.697180       -18.9712
  37   2.0000      -0.663446       -18.0533
  38   2.0000      -0.644213       -17.5299
  39   2.0000      -0.621329       -16.9072
  40   2.0000      -0.593126       -16.1398
  41   2.0000      -0.562753       -15.3133
  42   2.0000      -0.557335       -15.1658
  43   2.0000      -0.549884       -14.9631
  44   2.0000      -0.529259       -14.4019
  45   2.0000      -0.526595       -14.3294
  46   2.0000      -0.517636       -14.0856
  47   2.0000      -0.510733       -13.8978
  48   2.0000      -0.504019       -13.7150
  49   2.0000      -0.498598       -13.5676
  50   2.0000      -0.494591       -13.4585
  51   2.0000      -0.486380       -13.2351
  52   2.0000      -0.469148       -12.7662
  53   2.0000      -0.466442       -12.6925
  54   2.0000      -0.459653       -12.5078
  55   2.0000      -0.452526       -12.3139
  56   2.0000      -0.445453       -12.1214
  57   2.0000      -0.438902       -11.9431
  58   2.0000      -0.433640       -11.8000
  59   2.0000      -0.426539       -11.6067
  60   2.0000      -0.421372       -11.4661
  61   2.0000      -0.412786       -11.2325
  62   2.0000      -0.402254       -10.9459
  63   2.0000      -0.351839        -9.5740
  64   2.0000      -0.332950        -9.0600
  65   2.0000      -0.326139        -8.8747
  66   2.0000      -0.285729        -7.7751
  67   0.0000       0.024652         0.6708
  68   0.0000       0.070808         1.9268
  69   0.0000       0.108962         2.9650
  70   0.0000       0.117654         3.2015
  71   0.0000       0.139328         3.7913

MULLIKEN ATOMIC CHARGES
-----------------------
   0 S :    0.105391
   1 C :   -0.091554
   2 C :   -0.091663
   3 C :    0.005110
   4 C :   -0.148320
   5 H :    0.020524
   6 C :    0.038937
   7 H :    0.029734
   8 H :    0.036868
   9 C :   -0.091387
  10 H :    0.028195
  11 H :    0.038446
  12 C :   -0.053016
  13 H :    0.040543
  14 H :    0.046012
  15 H :    0.034977
  16 S :    0.112777
  17 C :   -0.095902
  18 C :   -0.035399
  19 C :   -0.079014
  20 C :   -0.122781
  21 H :    0.041143
  22 C :    0.088265
  23 H :    0.013501
  24 H :    0.016375
  25 C :   -0.052688
  26 H :    0.026298
  27 H :    0.004106
  28 C :   -0.016211
  29 H :    0.020037
  30 H :    0.022687
  31 H :    0.032008
  32 H :    0.023469
  33 H :    0.052530
Sum of atomic charges:   -0.0000000

LOEWDIN ATOMIC CHARGES
----------------------
   0 S :    0.424810
   1 C :   -0.198516
   2 C :   -0.060072
   3 C :   -0.067329
   4 C :   -0.203321
   5 H :    0.030335
   6 C :   -0.038976
   7 H :    0.029345
   8 H :    0.039497
   9 C :   -0.039338
  10 H :    0.022055
  11 H :    0.027261
  12 C :   -0.064556
  13 H :    0.030451
  14 H :    0.030473
  15 H :    0.020595
  16 S :    0.416601
  17 C :   -0.179845
  18 C :   -0.074368
  19 C :   -0.057906
  20 C :   -0.210781
  21 H :    0.041744
  22 C :   -0.022823
  23 H :    0.024876
  24 H :    0.028043
  25 C :   -0.045050
  26 H :    0.030481
  27 H :    0.021198
  28 C :   -0.067297
  29 H :    0.024488
  30 H :    0.023694
  31 H :    0.028152
  32 H :    0.012614
  33 H :    0.023463

  Mayer bond orders larger than 0.100000
B(  0-S ,  1-C ) :   1.1572 B(  0-S ,  4-C ) :   1.1585 B(  1-C ,  2-C ) :   1.5539
B(  1-C ,  4-C ) :   0.1071 B(  1-C , 32-H ) :   0.9816 B(  2-C ,  3-C ) :   1.2771
B(  2-C ,  6-C ) :   1.0277 B(  3-C ,  4-C ) :   1.5592 B(  3-C ,  5-H ) :   0.9818
B(  4-C , 20-C ) :   1.0402 B(  6-C ,  7-H ) :   0.9451 B(  6-C ,  8-H ) :   0.9406
B(  6-C ,  9-C ) :   1.0504 B(  9-C , 10-H ) :   0.9554 B(  9-C , 11-H ) :   0.9585
B(  9-C , 12-C ) :   1.0697 B( 12-C , 13-H ) :   0.9764 B( 12-C , 14-H ) :   0.9770
B( 12-C , 15-H ) :   0.9785 B( 16-S , 17-C ) :   1.1668 B( 16-S , 20-C ) :   1.1502
B( 17-C , 18-C ) :   1.5697 B( 17-C , 20-C ) :   0.1088 B( 17-C , 33-H ) :   0.9729
B( 18-C , 19-C ) :   1.2884 B( 18-C , 21-H ) :   0.9796 B( 19-C , 20-C ) :   1.5710
B( 19-C , 22-C ) :   1.0458 B( 22-C , 23-H ) :   0.9376 B( 22-C , 24-H ) :   0.9317
B( 22-C , 25-C ) :   1.0440 B( 25-C , 26-H ) :   0.9512 B( 25-C , 27-H ) :   0.9486
B( 25-C , 28-C ) :   1.0965 B( 28-C , 29-H ) :   0.9703 B( 28-C , 30-H ) :   0.9721
B( 28-C , 31-H ) :   0.9699

Dispersion correction           -0.014117668
FINAL SINGLE POINT ENERGY     -1339.876487029793

DIPOLE MOMENT
-------------
                                X             Y             Z
Electronic contribution:     -1.77865      25.36164     -12.80490
Nuclear contribution   :      1.63821     -25.87638      13.07961
                        -----------------------------------------
Total Dipole Moment    :     -0.14044      -0.51474       0.27471
                        -----------------------------------------
Magnitude (a.u.)       :      0.60012
Magnitude (Debye)      :      1.52539

Rotational constants in cm-1:     0.017272     0.008479     0.007017
Rotational constants in MHz :   517.809255   254.183226   210.353571

                             ****ORCA TERMINATED NORMALLY****
TOTAL RUN TIME: 0 days 0 hours 0 minutes 31 seconds 746 msec
