                         Program Version 4.2.1 -  RELEASE  -
|  1> ! wB97X-D3 SP def2-SVP
|  2> %pal
|  3> nprocs 16
|  4> end
|  5>
|  6> * xyz 0 1
|  7> S 	 31.7011 	 24.85 	 50.2751
|  8> C 	 31.4762 	 25.8476 	 48.78
|  9> C 	 30.7415 	 26.9797 	 49.0339
| 10> C 	 30.5537 	 27.1281 	 50.4459
| 11> C 	 31.0596 	 26.1397 	 51.2803
| 12> H 	 30.0728 	 28.0124 	 51.0124
| 13> C 	 30.4195 	 28.0415 	 48.0273
| 14> H 	 29.3913 	 27.8176 	 47.6552
| 15> H 	 31.1238 	 27.909 	 47.168
| 16> C 	 30.5807 	 29.4722 	 48.422
| 17> H 	 29.9519 	 29.5949 	 49.3164
| 18> H 	 31.6405 	 29.6216 	 48.5646
| 19> C 	 29.9774 	 30.4386 	 47.3868
| 20> H 	 30.7544 	 30.7419 	 46.7065
| 21> H 	 29.2059 	 29.9066 	 46.8069
| 22> H 	 29.5127 	 31.2618 	 47.9539
| 23> S 	 31.7931 	 27.4748 	 53.631
| 24> C 	 31.787 	 26.5518 	 55.0972
| 25> C 	 31.0741 	 25.3735 	 55.0465
| 26> C 	 30.7004 	 25.1081 	 53.6619
| 27> C 	 31.0921 	 26.0987 	 52.7437
| 28> H 	 30.9135 	 24.8052 	 55.9785
| 29> C 	 29.9941 	 23.8099 	 53.2368
| 30> H 	 30.0042 	 23.6286 	 52.1425
| 31> H 	 28.9197 	 23.8409 	 53.4711
| 32> C 	 30.6948 	 22.6034 	 53.8444
| 33> H 	 30.5152 	 22.6413 	 54.8911
| 34> H 	 31.8053 	 22.545 	 53.6327
| 35> C 	 30.1197 	 21.2983 	 53.3415
| 36> H 	 30.2167 	 21.2815 	 52.2706
| 37> H 	 29.1266 	 21.196 	 53.8536
| 38> H 	 30.8784 	 20.5125 	 53.6614
| 39> H 	 31.8843 	 25.6573 	 47.8469
| 40> H 	 32.0497 	 27.0696 	 56.0446
| 41> *
| 42>
| 43>                          ****END OF INPUT****

CARTESIAN COORDINATES (ANGSTROEM)
---------------------------------
  S     31.701100   24.850000   50.275100
  C     31.476200   25.847600   48.780000
  C     30.741500   26.979700   49.033900
  C     30.553700   27.128100   50.445900
  C     31.059600   26.139700   51.280300
  H     30.072800   28.012400   51.012400
  C     30.419500   28.041500   48.027300
  H     29.391300   27.817600   47.655200
  H     31.123800   27.909000   47.168000
  C     30.580700   29.472200   48.422000
  H     29.951900   29.594900   49.316400
  H     31.640500   29.621600   48.564600
  C     29.977400   30.438600   47.386800
  H     30.754400   30.741900   46.706500
  H     29.205900   29.906600   46.806900
  H     29.512700   31.261800   47.953900
  S     31.793100   27.474800   53.631000
  C     31.787000   26.551800   55.097200
  C     31.074100   25.373500   55.046500
  C     30.700400   25.108100   53.661900
  C     31.092100   26.098700   52.743700
  H     30.913500   24.805200   55.978500
  C     29.994100   23.809900   53.236800
  H     30.004200   23.628600   52.142500
  H     28.919700   23.840900   53.471100
  C     30.694800   22.603400   53.844400
  H     30.515200   22.641300   54.891100
  H     31.805300   22.545000   53.632700
  C     30.119700   21.298300   53.341500
  H     30.216700   21.281500   52.270600
  H     29.126600   21.196000   53.853600
  H     30.878400   20.512500   53.661400
  H     31.884300   25.657300   47.846900
  H     32.049700   27.069600   56.044600

 Total Charge           Charge          ....    0
 Multiplicity           Mult            ....    1
 Number of Electrons    NEL             ....  134
 Basis Dimension        Dim             ....  322

ORBITAL ENERGIES
----------------

  NO   OCC          E(Eh)            E(eV)
   0   2.0000     -88.965542     -2420.8755
   1   2.0000     -88.965168     -2420.8653
   2   2.0000     -10.331956      -281.1468
   3   2.0000     -10.330892      -281.1179
   4   2.0000     -10.319917      -280.8192
   5   2.0000     -10.313329      -280.6400
   6   2.0000     -10.311660      -280.5945
   7   2.0000     -10.302340      -280.3409
   8   2.0000     -10.302278      -280.3392
   9   2.0000     -10.299674      -280.2684
  10   2.0000     -10.294039      -280.1151
  11   2.0000     -10.290238      -280.0116
  12   2.0000     -10.283412      -279.8259
  13   2.0000     -10.280319      -279.7417
  14   2.0000     -10.279443      -279.7179
  15   2.0000     -10.279119      -279.7090
  16   2.0000      -8.079924      -219.8659
  17   2.0000      -8.078911      -219.8383
  18   2.0000      -6.038459      -164.3148
  19   2.0000      -6.037637      -164.2925
  20   2.0000      -6.034557      -164.2087
  21   2.0000      -6.033665      -164.1844
  22   2.0000      -6.030528      -164.0990
  23   2.0000      -6.029463      -164.0700
  24   2.0000      -1.000370       -27.2215
  25   2.0000      -0.980167       -26.6717
  26   2.0000      -0.919388       -25.0178
  27   2.0000      -0.910984       -24.7891
  28   2.0000      -0.871355       -23.7108
  29   2.0000      -0.848370       -23.0853
  30   2.0000      -0.840705       -22.8767
  31   2.0000      -0.812325       -22.1045
  32   2.0000      -0.781550       -21.2671
  33   2.0000      -0.768826       -20.9208
  34   2.0000      -0.706000       -19.2112
  35   2.0000      -0.691884       -18.8271
  36   2.0000      -0.686479       -18.6800
  37   2.0000      -0.655463       -17.8360
  38   2.0000      -0.631181       -17.1753
  39   2.0000      -0.615018       -16.7355
  40   2.0000      -0.596851       -16.2411
  41   2.0000      -0.580604       -15.7991
  42   2.0000      -0.576430       -15.6855
  43   2.0000      -0.569248       -15.4900
  44   2.0000      -0.528757       -14.3882
  45   2.0000      -0.520123       -14.1533
  46   2.0000      -0.516173       -14.0458
  47   2.0000      -0.510039       -13.8789
  48   2.0000      -0.501015       -13.6333
  49   2.0000      -0.496906       -13.5215
  50   2.0000      -0.484308       -13.1787
  51   2.0000      -0.478827       -13.0296
  52   2.0000      -0.470437       -12.8012
  53   2.0000      -0.467005       -12.7079
  54   2.0000      -0.458441       -12.4748
  55   2.0000      -0.448513       -12.2047
  56   2.0000      -0.440329       -11.9820
  57   2.0000      -0.437906       -11.9160
  58   2.0000      -0.426462       -11.6046
  59   2.0000      -0.421542       -11.4707
  60   2.0000      -0.416894       -11.3443
  61   2.0000      -0.412655       -11.2289
  62   2.0000      -0.405788       -11.0421
  63   2.0000      -0.346347        -9.4246
  64   2.0000      -0.330190        -8.9849
  65   2.0000      -0.329145        -8.9565
  66   2.0000      -0.291210        -7.9242
  67   0.0000       0.029913         0.8140
  68   0.0000       0.062375         1.6973
  69   0.0000       0.101188         2.7535
  70   0.0000       0.116633         3.1737
  71   0.0000       0.131127         3.5681

MULLIKEN ATOMIC CHARGES
-----------------------
   0 S :    0.097774
   1 C :   -0.106972
   2 C :   -0.038851
   3 C :   -0.027873
   4 C :   -0.147777
   5 H :    0.040180
   6 C :    0.025094
   7 H :    0.044351
   8 H :    0.022283
   9 C :   -0.094552
  10 H :    0.034603
  11 H :    0.041594
  12 C :   -0.033268
  13 H :    0.036298
  14 H :    0.027065
  15 H :    0.043960
  16 S :    0.104965
  17 C :   -0.107161
  18 C :   -0.037875
  19 C :   -0.028669
  20 C :   -0.146988
  21 H :    0.042119
  22 C :    0.055408
  23 H :    0.017757
  24 H :    0.038228
  25 C :   -0.132327
  26 H :    0.020818
  27 H :    0.045497
  28 C :   -0.039524
  29 H :    0.031727
  30 H :    0.047436
  31 H :    0.035700
  32 H :    0.017827
  33 H :    0.071153
Sum of atomic charges:    0.0000000

LOEWDIN ATOMIC CHARGES
----------------------
   0 S :    0.380343
   1 C :   -0.163788
   2 C :   -0.062934
   3 C :   -0.079231
   4 C :   -0.189207
   5 H :    0.040652
   6 C :   -0.039689
   7 H :    0.035913
   8 H :    0.032219
   9 C :   -0.043596
  10 H :    0.024123
  11 H :    0.027963
  12 C :   -0.060034
  13 H :    0.024430
  14 H :    0.026165
  15 H :    0.032484
  16 S :    0.398823
  17 C :   -0.187881
  18 C :   -0.075737
  19 C :   -0.045380
  20 C :   -0.196641
  21 H :    0.042083
  22 C :   -0.039946
  23 H :    0.021006
  24 H :    0.034985
  25 C :   -0.049781
  26 H :    0.013369
  27 H :    0.032242
  28 C :   -0.068235
  29 H :    0.021749
  30 H :    0.032899
  31 H :    0.033821
  32 H :    0.013495
  33 H :    0.033315

  Mayer bond orders larger than 0.100000
B(  0-S ,  1-C ) :   1.1228 B(  0-S ,  4-C ) :   1.1262 B(  1-C ,  2-C ) :   1.6305
B(  1-C , 32-H ) :   0.9762 B(  2-C ,  3-C ) :   1.2087 B(  2-C ,  6-C ) :   1.0193
B(  3-C ,  4-C ) :   1.6125 B(  3-C ,  5-H ) :   0.9730 B(  4-C , 20-C ) :   1.0477
B(  6-C ,  7-H ) :   0.9216 B(  6-C ,  8-H ) :   0.9481 B(  6-C ,  9-C ) :   1.0849
B(  9-C , 10-H ) :   0.9507 B(  9-C , 11-H ) :   0.9604 B(  9-C , 12-C ) :   1.0712
B( 12-C , 13-H ) :   0.9764 B( 12-C , 14-H ) :   0.9760 B( 12-C , 15-H ) :   0.9789
B( 16-S , 17-C ) :   1.1675 B( 16-S , 20-C ) :   1.1202 B( 17-C , 18-C ) :   1.6250
B( 17-C , 33-H ) :   0.9556 B( 18-C , 19-C ) :   1.2075 B( 18-C , 21-H ) :   0.9887
B( 19-C , 20-C ) :   1.6046 B( 19-C , 22-C ) :   1.0387 B( 22-C , 23-H ) :   0.9401
B( 22-C , 24-H ) :   0.9303 B( 22-C , 25-C ) :   1.0567 B( 25-C , 26-H ) :   0.9516
B( 25-C , 27-H ) :   0.9601 B( 25-C , 28-C ) :   1.0924 B( 28-C , 29-H ) :   0.9729
B( 28-C , 30-H ) :   0.9731 B( 28-C , 31-H ) :   0.9743

Dispersion correction           -0.013564567
FINAL SINGLE POINT ENERGY     -1339.865618507940

DIPOLE MOMENT
-------------
                                X             Y             Z
Electronic contribution:      8.75364       1.52687       8.42264
Nuclear contribution   :     -8.98559      -1.39047      -8.43595
                        -----------------------------------------
Total Dipole Moment    :     -0.23195       0.13640      -0.01331
                        -----------------------------------------
Magnitude (a.u.)       :      0.26941
Magnitude (Debye)      :      0.68479

Rotational constants in cm-1:     0.022146     0.007443     0.005967
Rotational constants in MHz :   663.907829   223.125627   178.892693

                             ****ORCA TERMINATED NORMALLY****
TOTAL RUN TIME: 0 days 0 hours 0 minutes 33 seconds 835 msec
