                         Program Version 4.2.1 -  RELEASE  -
|  1> ! wB97X-D3 SP def2-SVP
|  2> %pal
|  3> nprocs 16
|  4> end
|  5>
|  6> * xyz 0 1
|  7> S 	 13.8755 	 23.9396 	 48.7133
|  8> C 	 15.2842 	 23.0996 	 48.0426
|  9> C 	 15.29 	 23.2363 	 46.6603
| 10> C 	 14.3521 	 24.1144 	 46.1577
| 11> C 	 13.4316 	 24.5695 	 47.0616
| 12> H 	 14.2526 	 24.2236 	 45.1143
| 13> C 	 16.2529 	 22.5386 	 45.6674
| 14> H 	 15.6259 	 21.8816 	 45.1607
| 15> H 	 16.8592 	 21.953 	 46.2299
| 16> C 	 17.0745 	 23.4603 	 44.7416
| 17> H 	 16.5426 	 24.3095 	 44.3287
| 18> H 	 17.822 	 23.9414 	 45.3142
| 19> C 	 17.8547 	 22.6992 	 43.6686
| 20> H 	 18.1712 	 21.6824 	 44.0129
| 21> H 	 17.2397 	 22.3953 	 42.8592
| 22> H 	 18.7121 	 23.3471 	 43.3753
| 23> S 	 13.0621 	 26.9495 	 45.8563
| 24> C 	 11.4307 	 27.4594 	 45.5566
| 25> C 	 10.4798 	 26.6209 	 46.0304
| 26> C 	 11.06 	 25.5245 	 46.7402
| 27> C 	 12.4475 	 25.5499 	 46.7717
| 28> H 	 9.45742 	 26.7442 	 45.8959
| 29> C 	 10.177 	 24.4615 	 47.2435
| 30> H 	 10.7268 	 23.5666 	 47.4136
| 31> H 	 9.46807 	 24.2167 	 46.388
| 32> C 	 9.44264 	 24.791 	 48.573
| 33> H 	 9.08152 	 25.8131 	 48.6509
| 34> H 	 10.1878 	 24.7264 	 49.4631
| 35> C 	 8.3495 	 23.7933 	 48.809
| 36> H 	 8.74082 	 22.8062 	 48.9152
| 37> H 	 7.48299 	 23.8822 	 48.1404
| 38> H 	 7.88564 	 23.8652 	 49.8204
| 39> H 	 15.8627 	 22.3851 	 48.6052
| 40> H 	 11.1334 	 28.2343 	 44.939
| 41> *
| 42>
| 43>                          ****END OF INPUT****

CARTESIAN COORDINATES (ANGSTROEM)
---------------------------------
  S     13.875500   23.939600   48.713300
  C     15.284200   23.099600   48.042600
  C     15.290000   23.236300   46.660300
  C     14.352100   24.114400   46.157700
  C     13.431600   24.569500   47.061600
  H     14.252600   24.223600   45.114300
  C     16.252900   22.538600   45.667400
  H     15.625900   21.881600   45.160700
  H     16.859200   21.953000   46.229900
  C     17.074500   23.460300   44.741600
  H     16.542600   24.309500   44.328700
  H     17.822000   23.941400   45.314200
  C     17.854700   22.699200   43.668600
  H     18.171200   21.682400   44.012900
  H     17.239700   22.395300   42.859200
  H     18.712100   23.347100   43.375300
  S     13.062100   26.949500   45.856300
  C     11.430700   27.459400   45.556600
  C     10.479800   26.620900   46.030400
  C     11.060000   25.524500   46.740200
  C     12.447500   25.549900   46.771700
  H      9.457420   26.744200   45.895900
  C     10.177000   24.461500   47.243500
  H     10.726800   23.566600   47.413600
  H      9.468070   24.216700   46.388000
  C      9.442640   24.791000   48.573000
  H      9.081520   25.813100   48.650900
  H     10.187800   24.726400   49.463100
  C      8.349500   23.793300   48.809000
  H      8.740820   22.806200   48.915200
  H      7.482990   23.882200   48.140400
  H      7.885640   23.865200   49.820400
  H     15.862700   22.385100   48.605200
  H     11.133400   28.234300   44.939000

 Total Charge           Charge          ....    0
 Multiplicity           Mult            ....    1
 Number of Electrons    NEL             ....  134
 Basis Dimension        Dim             ....  322

ORBITAL ENERGIES
----------------

  NO   OCC          E(Eh)            E(eV)
   0   2.0000     -88.964957     -2420.8595
   1   2.0000     -88.964725     -2420.8532
   2   2.0000     -10.329427      -281.0780
   3   2.0000     -10.321969      -280.8750
   4   2.0000     -10.314730      -280.6781
   5   2.0000     -10.308647      -280.5125
   6   2.0000     -10.298792      -280.2444
   7   2.0000     -10.295060      -280.1428
   8   2.0000     -10.291697      -280.0513
   9   2.0000     -10.289055      -279.9794
  10   2.0000     -10.284422      -279.8534
  11   2.0000     -10.282289      -279.7953
  12   2.0000     -10.282143      -279.7913
  13   2.0000     -10.281195      -279.7655
  14   2.0000     -10.279818      -279.7281
  15   2.0000     -10.274662      -279.5878
  16   2.0000      -8.079438      -219.8527
  17   2.0000      -8.077915      -219.8112
  18   2.0000      -6.037972      -164.3016
  19   2.0000      -6.036522      -164.2621
  20   2.0000      -6.034067      -164.1953
  21   2.0000      -6.032652      -164.1568
  22   2.0000      -6.030087      -164.0870
  23   2.0000      -6.028654      -164.0480
  24   2.0000      -1.005861       -27.3709
  25   2.0000      -0.981942       -26.7200
  26   2.0000      -0.911000       -24.7896
  27   2.0000      -0.910103       -24.7652
  28   2.0000      -0.875891       -23.8342
  29   2.0000      -0.855047       -23.2670
  30   2.0000      -0.848288       -23.0831
  31   2.0000      -0.815836       -22.2000
  32   2.0000      -0.783471       -21.3193
  33   2.0000      -0.767018       -20.8716
  34   2.0000      -0.714264       -19.4361
  35   2.0000      -0.703300       -19.1378
  36   2.0000      -0.695370       -18.9220
  37   2.0000      -0.672992       -18.3131
  38   2.0000      -0.638474       -17.3738
  39   2.0000      -0.624351       -16.9894
  40   2.0000      -0.602314       -16.3898
  41   2.0000      -0.565481       -15.3875
  42   2.0000      -0.562647       -15.3104
  43   2.0000      -0.557860       -15.1801
  44   2.0000      -0.534931       -14.5562
  45   2.0000      -0.521572       -14.1927
  46   2.0000      -0.519531       -14.1372
  47   2.0000      -0.517123       -14.0716
  48   2.0000      -0.510996       -13.9049
  49   2.0000      -0.502492       -13.6735
  50   2.0000      -0.485803       -13.2194
  51   2.0000      -0.475540       -12.9401
  52   2.0000      -0.469732       -12.7821
  53   2.0000      -0.463865       -12.6224
  54   2.0000      -0.457864       -12.4591
  55   2.0000      -0.456229       -12.4146
  56   2.0000      -0.446416       -12.1476
  57   2.0000      -0.442821       -12.0498
  58   2.0000      -0.430260       -11.7080
  59   2.0000      -0.420739       -11.4489
  60   2.0000      -0.419225       -11.4077
  61   2.0000      -0.413570       -11.2538
  62   2.0000      -0.411874       -11.2077
  63   2.0000      -0.343030        -9.3343
  64   2.0000      -0.335136        -9.1195
  65   2.0000      -0.327432        -8.9099
  66   2.0000      -0.291405        -7.9295
  67   0.0000       0.028774         0.7830
  68   0.0000       0.066458         1.8084
  69   0.0000       0.103450         2.8150
  70   0.0000       0.113182         3.0798
  71   0.0000       0.134246         3.6530

MULLIKEN ATOMIC CHARGES
-----------------------
   0 S :    0.088982
   1 C :   -0.129066
   2 C :   -0.109083
   3 C :    0.006071
   4 C :   -0.132161
   5 H :    0.007583
   6 C :    0.167765
   7 H :    0.015793
   8 H :   -0.023750
   9 C :   -0.067122
  10 H :    0.030208
  11 H :    0.016819
  12 C :   -0.054247
  13 H :    0.024688
  14 H :    0.023705
  15 H :    0.049011
  16 S :    0.106263
  17 C :   -0.039426
  18 C :   -0.007056
  19 C :   -0.018728
  20 C :   -0.148918
  21 H :   -0.008655
  22 C :    0.045861
  23 H :    0.012795
  24 H :    0.039763
  25 C :   -0.084883
  26 H :    0.029065
  27 H :    0.039778
  28 C :   -0.037493
  29 H :    0.022772
  30 H :    0.038235
  31 H :    0.022653
  32 H :    0.047512
  33 H :    0.025265
Sum of atomic charges:   -0.0000000

LOEWDIN ATOMIC CHARGES
----------------------
   0 S :    0.364453
   1 C :   -0.192392
   2 C :   -0.058776
   3 C :   -0.066130
   4 C :   -0.171782
   5 H :    0.025867
   6 C :   -0.011871
   7 H :    0.024263
   8 H :    0.014042
   9 C :   -0.038313
  10 H :    0.023765
  11 H :    0.022298
  12 C :   -0.065541
  13 H :    0.028572
  14 H :    0.017899
  15 H :    0.034727
  16 S :    0.406649
  17 C :   -0.169586
  18 C :   -0.061034
  19 C :   -0.046407
  20 C :   -0.193210
  21 H :    0.021958
  22 C :   -0.035665
  23 H :    0.023962
  24 H :    0.040634
  25 C :   -0.041908
  26 H :    0.020108
  27 H :    0.036049
  28 C :   -0.073657
  29 H :    0.023326
  30 H :    0.025995
  31 H :    0.030043
  32 H :    0.025946
  33 H :    0.015720

  Mayer bond orders larger than 0.100000
B(  0-S ,  1-C ) :   1.1331 B(  0-S ,  4-C ) :   1.1197 B(  1-C ,  2-C ) :   1.6062
B(  1-C ,  4-C ) :   0.1036 B(  1-C , 32-H ) :   0.9655 B(  2-C ,  3-C ) :   1.2721
B(  2-C ,  6-C ) :   1.0047 B(  3-C ,  4-C ) :   1.5595 B(  3-C ,  5-H ) :   0.9954
B(  4-C , 20-C ) :   1.0631 B(  6-C ,  7-H ) :   0.9386 B(  6-C ,  8-H ) :   0.9251
B(  6-C ,  9-C ) :   1.0578 B(  9-C , 10-H ) :   0.9584 B(  9-C , 11-H ) :   0.9562
B(  9-C , 12-C ) :   1.0775 B( 12-C , 13-H ) :   0.9722 B( 12-C , 14-H ) :   0.9759
B( 12-C , 15-H ) :   0.9768 B( 16-S , 17-C ) :   1.1539 B( 16-S , 20-C ) :   1.1142
B( 17-C , 18-C ) :   1.6184 B( 17-C , 33-H ) :   0.9679 B( 18-C , 19-C ) :   1.2358
B( 18-C , 21-H ) :   1.0021 B( 19-C , 20-C ) :   1.5907 B( 19-C , 22-C ) :   1.0609
B( 22-C , 23-H ) :   0.9222 B( 22-C , 24-H ) :   0.9431 B( 22-C , 25-C ) :   1.0426
B( 25-C , 26-H ) :   0.9644 B( 25-C , 27-H ) :   0.9486 B( 25-C , 28-C ) :   1.0882
B( 28-C , 29-H ) :   0.9689 B( 28-C , 30-H ) :   0.9754 B( 28-C , 31-H ) :   0.9680

Dispersion correction           -0.013755799
FINAL SINGLE POINT ENERGY     -1339.861391291787

DIPOLE MOMENT
-------------
                                X             Y             Z
Electronic contribution:      1.50636      12.50038       5.65888
Nuclear contribution   :     -1.70548     -12.84934      -6.07747
                        -----------------------------------------
Total Dipole Moment    :     -0.19912      -0.34896      -0.41859
                        -----------------------------------------
Magnitude (a.u.)       :      0.58021
Magnitude (Debye)      :      1.47477

Rotational constants in cm-1:     0.021059     0.007589     0.006254
Rotational constants in MHz :   631.345210   227.499564   187.479297

                             ****ORCA TERMINATED NORMALLY****
TOTAL RUN TIME: 0 days 0 hours 0 minutes 32 seconds 72 msec
