                         Program Version 4.2.1 -  RELEASE  -
|  1> ! wB97X-D3 SP def2-SVP
|  2> %pal
|  3> nprocs 16
|  4> end
|  5>
|  6> * xyz 0 1
|  7> S 	 -12.8012 	 38.8698 	 35.7852
|  8> C 	 -14.52 	 38.8023 	 36.2082
|  9> C 	 -15.2273 	 39.1226 	 35.0307
| 10> C 	 -14.4144 	 39.6338 	 33.9448
| 11> C 	 -13.0279 	 39.6119 	 34.2272
| 12> H 	 -14.7723 	 39.8964 	 32.9928
| 13> C 	 -16.7739 	 39.0762 	 34.9276
| 14> H 	 -17.381 	 39.9927 	 34.7676
| 15> H 	 -17.1344 	 38.537 	 35.812
| 16> C 	 -17.1916 	 38.0777 	 33.7702
| 17> H 	 -18.2449 	 38.0456 	 33.5523
| 18> H 	 -16.7431 	 38.5635 	 32.8882
| 19> C 	 -16.7867 	 36.5696 	 34.0189
| 20> H 	 -17.1971 	 35.8317 	 33.2797
| 21> H 	 -15.7608 	 36.2994 	 33.9989
| 22> H 	 -17.2858 	 36.3273 	 34.9527
| 23> S 	 -10.2677 	 39.4687 	 33.6819
| 24> C 	 -9.49968 	 40.1752 	 32.3107
| 25> C 	 -10.4934 	 40.8378 	 31.6124
| 26> C 	 -11.8371 	 40.8348 	 32.2158
| 27> C 	 -11.9183 	 40.0266 	 33.3456
| 28> H 	 -10.2524 	 41.4194 	 30.7331
| 29> C 	 -12.9647 	 41.4618 	 31.4443
| 30> H 	 -12.454 	 42.3122 	 31.0131
| 31> H 	 -13.5791 	 41.9222 	 32.1813
| 32> C 	 -13.7174 	 40.5941 	 30.4597
| 33> H 	 -14.5936 	 41.0182 	 29.9901
| 34> H 	 -14.0875 	 39.6948 	 30.9388
| 35> C 	 -12.8132 	 40.0654 	 29.3283
| 36> H 	 -13.3767 	 39.8169 	 28.4335
| 37> H 	 -12.2239 	 39.1762 	 29.6914
| 38> H 	 -11.9862 	 40.7974 	 29.069
| 39> H 	 -14.9266 	 38.4292 	 37.1462
| 40> H 	 -8.45561 	 40.2666 	 31.9636
| 41> *
| 42>
| 43>                          ****END OF INPUT****

CARTESIAN COORDINATES (ANGSTROEM)
---------------------------------
  S    -12.801200   38.869800   35.785200
  C    -14.520000   38.802300   36.208200
  C    -15.227300   39.122600   35.030700
  C    -14.414400   39.633800   33.944800
  C    -13.027900   39.611900   34.227200
  H    -14.772300   39.896400   32.992800
  C    -16.773900   39.076200   34.927600
  H    -17.381000   39.992700   34.767600
  H    -17.134400   38.537000   35.812000
  C    -17.191600   38.077700   33.770200
  H    -18.244900   38.045600   33.552300
  H    -16.743100   38.563500   32.888200
  C    -16.786700   36.569600   34.018900
  H    -17.197100   35.831700   33.279700
  H    -15.760800   36.299400   33.998900
  H    -17.285800   36.327300   34.952700
  S    -10.267700   39.468700   33.681900
  C     -9.499680   40.175200   32.310700
  C    -10.493400   40.837800   31.612400
  C    -11.837100   40.834800   32.215800
  C    -11.918300   40.026600   33.345600
  H    -10.252400   41.419400   30.733100
  C    -12.964700   41.461800   31.444300
  H    -12.454000   42.312200   31.013100
  H    -13.579100   41.922200   32.181300
  C    -13.717400   40.594100   30.459700
  H    -14.593600   41.018200   29.990100
  H    -14.087500   39.694800   30.938800
  C    -12.813200   40.065400   29.328300
  H    -13.376700   39.816900   28.433500
  H    -12.223900   39.176200   29.691400
  H    -11.986200   40.797400   29.069000
  H    -14.926600   38.429200   37.146200
  H     -8.455610   40.266600   31.963600

 Total Charge           Charge          ....    0
 Multiplicity           Mult            ....    1
 Number of Electrons    NEL             ....  134
 Basis Dimension        Dim             ....  322

ORBITAL ENERGIES
----------------

  NO   OCC          E(Eh)            E(eV)
   0   2.0000     -88.969738     -2420.9896
   1   2.0000     -88.965736     -2420.8808
   2   2.0000     -10.343322      -281.4561
   3   2.0000     -10.338706      -281.3305
   4   2.0000     -10.325966      -280.9838
   5   2.0000     -10.323170      -280.9077
   6   2.0000     -10.314308      -280.6666
   7   2.0000     -10.307798      -280.4894
   8   2.0000     -10.301317      -280.3131
   9   2.0000     -10.299963      -280.2762
  10   2.0000     -10.296190      -280.1736
  11   2.0000     -10.291924      -280.0575
  12   2.0000     -10.288597      -279.9669
  13   2.0000     -10.288455      -279.9631
  14   2.0000     -10.282672      -279.8057
  15   2.0000     -10.279110      -279.7088
  16   2.0000      -8.084006      -219.9770
  17   2.0000      -8.080416      -219.8793
  18   2.0000      -6.042666      -164.4293
  19   2.0000      -6.039237      -164.3360
  20   2.0000      -6.038446      -164.3145
  21   2.0000      -6.034739      -164.2136
  22   2.0000      -6.034681      -164.2120
  23   2.0000      -6.031056      -164.1134
  24   2.0000      -1.005531       -27.3619
  25   2.0000      -0.983616       -26.7656
  26   2.0000      -0.915733       -24.9184
  27   2.0000      -0.903076       -24.5740
  28   2.0000      -0.868899       -23.6440
  29   2.0000      -0.846345       -23.0302
  30   2.0000      -0.837262       -22.7830
  31   2.0000      -0.816387       -22.2150
  32   2.0000      -0.781910       -21.2768
  33   2.0000      -0.775064       -21.0906
  34   2.0000      -0.713857       -19.4250
  35   2.0000      -0.701615       -19.0919
  36   2.0000      -0.691524       -18.8173
  37   2.0000      -0.661797       -18.0084
  38   2.0000      -0.641611       -17.4591
  39   2.0000      -0.624359       -16.9897
  40   2.0000      -0.588209       -16.0060
  41   2.0000      -0.568700       -15.4751
  42   2.0000      -0.559863       -15.2346
  43   2.0000      -0.555584       -15.1182
  44   2.0000      -0.549113       -14.9421
  45   2.0000      -0.538579       -14.6555
  46   2.0000      -0.521958       -14.2032
  47   2.0000      -0.512884       -13.9563
  48   2.0000      -0.509106       -13.8535
  49   2.0000      -0.498984       -13.5780
  50   2.0000      -0.483451       -13.1554
  51   2.0000      -0.477411       -12.9910
  52   2.0000      -0.468826       -12.7574
  53   2.0000      -0.466623       -12.6975
  54   2.0000      -0.459247       -12.4968
  55   2.0000      -0.448765       -12.2115
  56   2.0000      -0.443347       -12.0641
  57   2.0000      -0.439246       -11.9525
  58   2.0000      -0.426971       -11.6185
  59   2.0000      -0.423837       -11.5332
  60   2.0000      -0.414634       -11.2828
  61   2.0000      -0.411336       -11.1930
  62   2.0000      -0.401347       -10.9212
  63   2.0000      -0.365766        -9.9530
  64   2.0000      -0.332313        -9.0427
  65   2.0000      -0.325467        -8.8564
  66   2.0000      -0.289410        -7.8753
  67   0.0000       0.014264         0.3881
  68   0.0000       0.083569         2.2740
  69   0.0000       0.104590         2.8460
  70   0.0000       0.114298         3.1102
  71   0.0000       0.131578         3.5804

MULLIKEN ATOMIC CHARGES
-----------------------
   0 S :    0.101388
   1 C :   -0.117548
   2 C :   -0.076176
   3 C :    0.028722
   4 C :   -0.105233
   5 H :   -0.021522
   6 C :    0.051615
   7 H :    0.057653
   8 H :    0.010953
   9 C :   -0.097983
  10 H :    0.029764
  11 H :    0.022274
  12 C :   -0.063871
  13 H :    0.034237
  14 H :    0.043229
  15 H :    0.026961
  16 S :    0.090487
  17 C :   -0.073137
  18 C :   -0.062006
  19 C :   -0.111969
  20 C :   -0.103288
  21 H :    0.018997
  22 C :    0.080429
  23 H :    0.018392
  24 H :    0.018407
  25 C :   -0.024514
  26 H :    0.030695
  27 H :    0.033024
  28 C :   -0.097737
  29 H :    0.039644
  30 H :    0.051787
  31 H :    0.028187
  32 H :    0.063717
  33 H :    0.074425
Sum of atomic charges:    0.0000000

LOEWDIN ATOMIC CHARGES
----------------------
   0 S :    0.407501
   1 C :   -0.192243
   2 C :   -0.055999
   3 C :   -0.063064
   4 C :   -0.184543
   5 H :    0.017397
   6 C :   -0.032436
   7 H :    0.037580
   8 H :    0.023804
   9 C :   -0.041305
  10 H :    0.021147
  11 H :    0.016646
  12 C :   -0.069878
  13 H :    0.032328
  14 H :    0.021909
  15 H :    0.024294
  16 S :    0.404330
  17 C :   -0.202036
  18 C :   -0.077718
  19 C :   -0.058923
  20 C :   -0.185276
  21 H :    0.025232
  22 C :   -0.036304
  23 H :    0.032543
  24 H :    0.027939
  25 C :   -0.040674
  26 H :    0.025543
  27 H :    0.025545
  28 C :   -0.071837
  29 H :    0.024720
  30 H :    0.033469
  31 H :    0.024675
  32 H :    0.036020
  33 H :    0.049612

  Mayer bond orders larger than 0.100000
B(  0-S ,  1-C ) :   1.1353 B(  0-S ,  4-C ) :   1.1633 B(  1-C ,  2-C ) :   1.5773
B(  1-C ,  4-C ) :   0.1019 B(  1-C , 32-H ) :   0.9719 B(  2-C ,  3-C ) :   1.2514
B(  2-C ,  6-C ) :   1.0235 B(  3-C ,  4-C ) :   1.5261 B(  3-C ,  5-H ) :   0.9983
B(  4-C , 20-C ) :   1.0849 B(  6-C ,  7-H ) :   0.9523 B(  6-C ,  8-H ) :   0.9471
B(  6-C ,  9-C ) :   1.0518 B(  9-C , 10-H ) :   0.9610 B(  9-C , 11-H ) :   0.9622
B(  9-C , 12-C ) :   1.0555 B( 12-C , 13-H ) :   0.9772 B( 12-C , 14-H ) :   0.9800
B( 12-C , 15-H ) :   0.9754 B( 16-S , 17-C ) :   1.1515 B( 16-S , 20-C ) :   1.1278
B( 17-C , 18-C ) :   1.6066 B( 17-C , 33-H ) :   0.9635 B( 18-C , 19-C ) :   1.2535
B( 18-C , 21-H ) :   0.9807 B( 19-C , 20-C ) :   1.5719 B( 19-C , 22-C ) :   1.0455
B( 22-C , 23-H ) :   0.9311 B( 22-C , 24-H ) :   0.9244 B( 22-C , 25-C ) :   1.0667
B( 25-C , 26-H ) :   0.9605 B( 25-C , 27-H ) :   0.9492 B( 25-C , 28-C ) :   1.0695
B( 28-C , 29-H ) :   0.9737 B( 28-C , 30-H ) :   0.9742 B( 28-C , 31-H ) :   0.9762

Dispersion correction           -0.015004742
FINAL SINGLE POINT ENERGY     -1339.863006988278

DIPOLE MOMENT
-------------
                                X             Y             Z
Electronic contribution:     21.51754       2.50625      16.97529
Nuclear contribution   :    -22.01293      -2.39055     -17.47498
                        -----------------------------------------
Total Dipole Moment    :     -0.49539       0.11570      -0.49969
                        -----------------------------------------
Magnitude (a.u.)       :      0.71308
Magnitude (Debye)      :      1.81251

Rotational constants in cm-1:     0.019402     0.009324     0.006994
Rotational constants in MHz :   581.652534   279.534179   209.680544

                             ****ORCA TERMINATED NORMALLY****
TOTAL RUN TIME: 0 days 0 hours 0 minutes 35 seconds 229 msec
