                         Program Version 4.2.1 -  RELEASE  -
|  1> ! wB97X-D3 SP def2-SVP
|  2> %pal
|  3> nprocs 16
|  4> end
|  5>
|  6> * xyz 0 1
|  7> S 	 -1.40325 	 -13.4106 	 78.264
|  8> C 	 -2.03549 	 -13.592 	 76.7068
|  9> C 	 -2.6741 	 -12.4832 	 76.2529
| 10> C 	 -2.78471 	 -11.422 	 77.2467
| 11> C 	 -2.09086 	 -11.7855 	 78.3892
| 12> H 	 -3.28078 	 -10.4644 	 77.105
| 13> C 	 -3.28261 	 -12.3479 	 74.9371
| 14> H 	 -3.37645 	 -11.3205 	 74.654
| 15> H 	 -4.26302 	 -12.7934 	 74.9164
| 16> C 	 -2.57146 	 -13.0774 	 73.827
| 17> H 	 -2.59454 	 -14.1974 	 74.0737
| 18> H 	 -3.05597 	 -12.6969 	 72.8312
| 19> C 	 -1.08713 	 -12.7727 	 73.6291
| 20> H 	 -0.702613 	 -13.2147 	 72.7602
| 21> H 	 -0.811422 	 -11.7043 	 73.3795
| 22> H 	 -0.429232 	 -13.1373 	 74.4355
| 23> S 	 -0.59814 	 -10.1622 	 80.076
| 24> C 	 -1.31418 	 -9.58841 	 81.5514
| 25> C 	 -2.5193 	 -10.247 	 81.8245
| 26> C 	 -2.88567 	 -11.0773 	 80.729
| 27> C 	 -2.01708 	 -11.0816 	 79.6327
| 28> H 	 -3.00476 	 -10.0488 	 82.7567
| 29> C 	 -4.21129 	 -11.8034 	 80.6941
| 30> H 	 -4.63978 	 -11.883 	 81.7284
| 31> H 	 -3.9401 	 -12.7511 	 80.2266
| 32> C 	 -5.3088 	 -11.214 	 79.7743
| 33> H 	 -4.97751 	 -11.0265 	 78.7729
| 34> H 	 -5.6829 	 -10.2477 	 80.1294
| 35> C 	 -6.43626 	 -12.1375 	 79.415
| 36> H 	 -7.15218 	 -11.7429 	 78.7113
| 37> H 	 -6.91775 	 -12.4584 	 80.375
| 38> H 	 -5.98896 	 -13.0075 	 79.0355
| 39> H 	 -2.00737 	 -14.4768 	 76.0957
| 40> H 	 -0.85236 	 -8.8771 	 82.3071
| 41> *
| 42>
| 43>                          ****END OF INPUT****

CARTESIAN COORDINATES (ANGSTROEM)
---------------------------------
  S     -1.403250  -13.410600   78.264000
  C     -2.035490  -13.592000   76.706800
  C     -2.674100  -12.483200   76.252900
  C     -2.784710  -11.422000   77.246700
  C     -2.090860  -11.785500   78.389200
  H     -3.280780  -10.464400   77.105000
  C     -3.282610  -12.347900   74.937100
  H     -3.376450  -11.320500   74.654000
  H     -4.263020  -12.793400   74.916400
  C     -2.571460  -13.077400   73.827000
  H     -2.594540  -14.197400   74.073700
  H     -3.055970  -12.696900   72.831200
  C     -1.087130  -12.772700   73.629100
  H     -0.702613  -13.214700   72.760200
  H     -0.811422  -11.704300   73.379500
  H     -0.429232  -13.137300   74.435500
  S     -0.598140  -10.162200   80.076000
  C     -1.314180   -9.588410   81.551400
  C     -2.519300  -10.247000   81.824500
  C     -2.885670  -11.077300   80.729000
  C     -2.017080  -11.081600   79.632700
  H     -3.004760  -10.048800   82.756700
  C     -4.211290  -11.803400   80.694100
  H     -4.639780  -11.883000   81.728400
  H     -3.940100  -12.751100   80.226600
  C     -5.308800  -11.214000   79.774300
  H     -4.977510  -11.026500   78.772900
  H     -5.682900  -10.247700   80.129400
  C     -6.436260  -12.137500   79.415000
  H     -7.152180  -11.742900   78.711300
  H     -6.917750  -12.458400   80.375000
  H     -5.988960  -13.007500   79.035500
  H     -2.007370  -14.476800   76.095700
  H     -0.852360   -8.877100   82.307100

 Total Charge           Charge          ....    0
 Multiplicity           Mult            ....    1
 Number of Electrons    NEL             ....  134
 Basis Dimension        Dim             ....  322

ORBITAL ENERGIES
----------------

  NO   OCC          E(Eh)            E(eV)
   0   2.0000     -88.968249     -2420.9491
   1   2.0000     -88.964483     -2420.8467
   2   2.0000     -10.329557      -281.0815
   3   2.0000     -10.322153      -280.8801
   4   2.0000     -10.319731      -280.8142
   5   2.0000     -10.307327      -280.4766
   6   2.0000     -10.302140      -280.3355
   7   2.0000     -10.301457      -280.3169
   8   2.0000     -10.301193      -280.3097
   9   2.0000     -10.294946      -280.1397
  10   2.0000     -10.292558      -280.0747
  11   2.0000     -10.290626      -280.0222
  12   2.0000     -10.282145      -279.7914
  13   2.0000     -10.274702      -279.5889
  14   2.0000     -10.273307      -279.5509
  15   2.0000     -10.268190      -279.4116
  16   2.0000      -8.083584      -219.9655
  17   2.0000      -8.079305      -219.8491
  18   2.0000      -6.042013      -164.4115
  19   2.0000      -6.038004      -164.3024
  20   2.0000      -6.037692      -164.2940
  21   2.0000      -6.034374      -164.2037
  22   2.0000      -6.033676      -164.1847
  23   2.0000      -6.030313      -164.0932
  24   2.0000      -1.010603       -27.4999
  25   2.0000      -0.987776       -26.8787
  26   2.0000      -0.921894       -25.0860
  27   2.0000      -0.907109       -24.6837
  28   2.0000      -0.871201       -23.7066
  29   2.0000      -0.852336       -23.1933
  30   2.0000      -0.851877       -23.1808
  31   2.0000      -0.815851       -22.2004
  32   2.0000      -0.787239       -21.4219
  33   2.0000      -0.766977       -20.8705
  34   2.0000      -0.707953       -19.2644
  35   2.0000      -0.695270       -18.9193
  36   2.0000      -0.687065       -18.6960
  37   2.0000      -0.659068       -17.9342
  38   2.0000      -0.644854       -17.5474
  39   2.0000      -0.609418       -16.5831
  40   2.0000      -0.593532       -16.1508
  41   2.0000      -0.582567       -15.8525
  42   2.0000      -0.569125       -15.4867
  43   2.0000      -0.557637       -15.1741
  44   2.0000      -0.541876       -14.7452
  45   2.0000      -0.522387       -14.2149
  46   2.0000      -0.520015       -14.1503
  47   2.0000      -0.514836       -14.0094
  48   2.0000      -0.508510       -13.8373
  49   2.0000      -0.497205       -13.5296
  50   2.0000      -0.489809       -13.3284
  51   2.0000      -0.482149       -13.1199
  52   2.0000      -0.473701       -12.8901
  53   2.0000      -0.466125       -12.6839
  54   2.0000      -0.461821       -12.5668
  55   2.0000      -0.445091       -12.1116
  56   2.0000      -0.441007       -12.0004
  57   2.0000      -0.437996       -11.9185
  58   2.0000      -0.430832       -11.7235
  59   2.0000      -0.421942       -11.4816
  60   2.0000      -0.419577       -11.4173
  61   2.0000      -0.408917       -11.1272
  62   2.0000      -0.402254       -10.9459
  63   2.0000      -0.337698        -9.1892
  64   2.0000      -0.329232        -8.9589
  65   2.0000      -0.318976        -8.6798
  66   2.0000      -0.306580        -8.3425
  67   0.0000       0.046315         1.2603
  68   0.0000       0.047922         1.3040
  69   0.0000       0.117043         3.1849
  70   0.0000       0.119082         3.2404
  71   0.0000       0.123438         3.3589

MULLIKEN ATOMIC CHARGES
-----------------------
   0 S :    0.135125
   1 C :   -0.109636
   2 C :   -0.121985
   3 C :    0.063244
   4 C :   -0.194141
   5 H :    0.032212
   6 C :    0.149345
   7 H :    0.010853
   8 H :    0.038314
   9 C :   -0.160398
  10 H :    0.042931
  11 H :    0.049898
  12 C :   -0.049002
  13 H :    0.013952
  14 H :    0.026436
  15 H :    0.039621
  16 S :    0.119613
  17 C :   -0.121080
  18 C :   -0.038362
  19 C :   -0.009265
  20 C :   -0.184406
  21 H :    0.014375
  22 C :    0.087849
  23 H :    0.030312
  24 H :    0.017779
  25 C :   -0.058779
  26 H :    0.000942
  27 H :    0.017819
  28 C :   -0.027929
  29 H :    0.038519
  30 H :    0.018595
  31 H :    0.012989
  32 H :    0.035134
  33 H :    0.079126
Sum of atomic charges:   -0.0000000

LOEWDIN ATOMIC CHARGES
----------------------
   0 S :    0.428400
   1 C :   -0.213420
   2 C :   -0.068000
   3 C :   -0.041098
   4 C :   -0.193474
   5 H :    0.037453
   6 C :   -0.040009
   7 H :    0.027314
   8 H :    0.038639
   9 C :   -0.049857
  10 H :    0.030410
  11 H :    0.041450
  12 C :   -0.080673
  13 H :    0.017781
  14 H :    0.029594
  15 H :    0.025939
  16 S :    0.418849
  17 C :   -0.197636
  18 C :   -0.076994
  19 C :   -0.048759
  20 C :   -0.223114
  21 H :    0.031017
  22 C :   -0.030195
  23 H :    0.035019
  24 H :    0.030400
  25 C :   -0.044222
  26 H :    0.018810
  27 H :    0.018261
  28 C :   -0.057862
  29 H :    0.026367
  30 H :    0.022246
  31 H :    0.016874
  32 H :    0.026025
  33 H :    0.044462

  Mayer bond orders larger than 0.100000
B(  0-S ,  1-C ) :   1.1349 B(  0-S ,  4-C ) :   1.1514 B(  1-C ,  2-C ) :   1.6306
B(  1-C , 32-H ) :   0.9629 B(  2-C ,  3-C ) :   1.2207 B(  2-C ,  6-C ) :   1.0349
B(  3-C ,  4-C ) :   1.5934 B(  3-C ,  5-H ) :   0.9872 B(  4-C , 20-C ) :   1.0401
B(  6-C ,  7-H ) :   0.9334 B(  6-C ,  8-H ) :   0.9181 B(  6-C ,  9-C ) :   1.0804
B(  9-C , 10-H ) :   0.9450 B(  9-C , 11-H ) :   0.9545 B(  9-C , 12-C ) :   1.0875
B( 12-C , 13-H ) :   0.9706 B( 12-C , 14-H ) :   0.9711 B( 12-C , 15-H ) :   0.9692
B( 16-S , 17-C ) :   1.1851 B( 16-S , 20-C ) :   1.1429 B( 17-C , 18-C ) :   1.5755
B( 17-C , 20-C ) :   0.1074 B( 17-C , 33-H ) :   0.9568 B( 18-C , 19-C ) :   1.2613
B( 18-C , 21-H ) :   0.9995 B( 19-C , 20-C ) :   1.5602 B( 19-C , 22-C ) :   1.0583
B( 22-C , 23-H ) :   0.9359 B( 22-C , 24-H ) :   0.9117 B( 22-C , 25-C ) :   1.0747
B( 25-C , 26-H ) :   0.9501 B( 25-C , 27-H ) :   0.9521 B( 25-C , 28-C ) :   1.0798
B( 28-C , 29-H ) :   0.9737 B( 28-C , 30-H ) :   0.9729 B( 28-C , 31-H ) :   0.9729

Dispersion correction           -0.015247467
FINAL SINGLE POINT ENERGY     -1339.867745759371

DIPOLE MOMENT
-------------
                                X             Y             Z
Electronic contribution:     17.34475       3.74365      15.39093
Nuclear contribution   :    -17.78536      -3.69552     -15.66443
                        -----------------------------------------
Total Dipole Moment    :     -0.44061       0.04813      -0.27350
                        -----------------------------------------
Magnitude (a.u.)       :      0.52082
Magnitude (Debye)      :      1.32383

Rotational constants in cm-1:     0.020938     0.008858     0.007117
Rotational constants in MHz :   627.691979   265.547248   213.352952

                             ****ORCA TERMINATED NORMALLY****
TOTAL RUN TIME: 0 days 0 hours 0 minutes 35 seconds 239 msec
