                         Program Version 4.2.1 -  RELEASE  -
|  1> ! wB97X-D3 SP def2-SVP
|  2> %pal
|  3> nprocs 16
|  4> end
|  5>
|  6> * xyz 0 1
|  7> S 	 14.48 	 23.4315 	 62.1927
|  8> C 	 14.8614 	 21.7732 	 62.5983
|  9> C 	 14.1028 	 21.2914 	 63.6993
| 10> C 	 13.1821 	 22.2732 	 64.117
| 11> C 	 13.2308 	 23.4417 	 63.4077
| 12> H 	 12.4771 	 22.1423 	 64.9492
| 13> C 	 14.1852 	 19.8541 	 64.1616
| 14> H 	 14.5777 	 19.2463 	 63.3826
| 15> H 	 13.1659 	 19.4735 	 64.2274
| 16> C 	 14.9577 	 19.5948 	 65.4981
| 17> H 	 15.2592 	 18.5794 	 65.6179
| 18> H 	 15.8729 	 20.2174 	 65.4096
| 19> C 	 14.1583 	 20.0773 	 66.6528
| 20> H 	 13.2117 	 19.5736 	 66.5486
| 21> H 	 14.5179 	 19.8206 	 67.5655
| 22> H 	 14.1855 	 21.2095 	 66.7298
| 23> S 	 13.3426 	 26.2195 	 63.4361
| 24> C 	 11.8833 	 27.0774 	 63.827
| 25> C 	 10.883 	 26.2653 	 64.1528
| 26> C 	 11.229 	 24.8598 	 63.9861
| 27> C 	 12.5488 	 24.6617 	 63.7164
| 28> H 	 9.8776 	 26.7718 	 64.2344
| 29> C 	 10.1633 	 23.7952 	 64.0967
| 30> H 	 9.48389 	 24.1265 	 64.8194
| 31> H 	 10.6018 	 22.8244 	 64.4616
| 32> C 	 9.56929 	 23.4796 	 62.7253
| 33> H 	 10.3877 	 23.275 	 62.0834
| 34> H 	 9.04782 	 24.3439 	 62.3965
| 35> C 	 8.65884 	 22.243 	 62.6969
| 36> H 	 8.11601 	 22.2914 	 61.7285
| 37> H 	 7.89675 	 22.2324 	 63.5313
| 38> H 	 9.27551 	 21.3322 	 62.741
| 39> H 	 15.5939 	 21.2058 	 61.989
| 40> H 	 11.8604 	 28.1573 	 63.8468
| 41> *
| 42>
| 43>                          ****END OF INPUT****

CARTESIAN COORDINATES (ANGSTROEM)
---------------------------------
  S     14.480000   23.431500   62.192700
  C     14.861400   21.773200   62.598300
  C     14.102800   21.291400   63.699300
  C     13.182100   22.273200   64.117000
  C     13.230800   23.441700   63.407700
  H     12.477100   22.142300   64.949200
  C     14.185200   19.854100   64.161600
  H     14.577700   19.246300   63.382600
  H     13.165900   19.473500   64.227400
  C     14.957700   19.594800   65.498100
  H     15.259200   18.579400   65.617900
  H     15.872900   20.217400   65.409600
  C     14.158300   20.077300   66.652800
  H     13.211700   19.573600   66.548600
  H     14.517900   19.820600   67.565500
  H     14.185500   21.209500   66.729800
  S     13.342600   26.219500   63.436100
  C     11.883300   27.077400   63.827000
  C     10.883000   26.265300   64.152800
  C     11.229000   24.859800   63.986100
  C     12.548800   24.661700   63.716400
  H      9.877600   26.771800   64.234400
  C     10.163300   23.795200   64.096700
  H      9.483890   24.126500   64.819400
  H     10.601800   22.824400   64.461600
  C      9.569290   23.479600   62.725300
  H     10.387700   23.275000   62.083400
  H      9.047820   24.343900   62.396500
  C      8.658840   22.243000   62.696900
  H      8.116010   22.291400   61.728500
  H      7.896750   22.232400   63.531300
  H      9.275510   21.332200   62.741000
  H     15.593900   21.205800   61.989000
  H     11.860400   28.157300   63.846800

 Total Charge           Charge          ....    0
 Multiplicity           Mult            ....    1
 Number of Electrons    NEL             ....  134
 Basis Dimension        Dim             ....  322

ORBITAL ENERGIES
----------------

  NO   OCC          E(Eh)            E(eV)
   0   2.0000     -88.968583     -2420.9582
   1   2.0000     -88.959767     -2420.7183
   2   2.0000     -10.325252      -280.9644
   3   2.0000     -10.320934      -280.8469
   4   2.0000     -10.319443      -280.8063
   5   2.0000     -10.310634      -280.5666
   6   2.0000     -10.304911      -280.4109
   7   2.0000     -10.299849      -280.2731
   8   2.0000     -10.293010      -280.0870
   9   2.0000     -10.292809      -280.0816
  10   2.0000     -10.289906      -280.0026
  11   2.0000     -10.284892      -279.8661
  12   2.0000     -10.283278      -279.8222
  13   2.0000     -10.282604      -279.8039
  14   2.0000     -10.275555      -279.6121
  15   2.0000     -10.268479      -279.4195
  16   2.0000      -8.083413      -219.9608
  17   2.0000      -8.074992      -219.7317
  18   2.0000      -6.041730      -164.4038
  19   2.0000      -6.037911      -164.2999
  20   2.0000      -6.034385      -164.2040
  21   2.0000      -6.033646      -164.1839
  22   2.0000      -6.029541      -164.0721
  23   2.0000      -6.025476      -163.9615
  24   2.0000      -1.011146       -27.5147
  25   2.0000      -0.985838       -26.8260
  26   2.0000      -0.915535       -24.9130
  27   2.0000      -0.910864       -24.7859
  28   2.0000      -0.874244       -23.7894
  29   2.0000      -0.855283       -23.2734
  30   2.0000      -0.843284       -22.9469
  31   2.0000      -0.819152       -22.2903
  32   2.0000      -0.783706       -21.3257
  33   2.0000      -0.769118       -20.9288
  34   2.0000      -0.704851       -19.1800
  35   2.0000      -0.700010       -19.0482
  36   2.0000      -0.691471       -18.8159
  37   2.0000      -0.660840       -17.9824
  38   2.0000      -0.638281       -17.3685
  39   2.0000      -0.623241       -16.9592
  40   2.0000      -0.594689       -16.1823
  41   2.0000      -0.575294       -15.6545
  42   2.0000      -0.570890       -15.5347
  43   2.0000      -0.554629       -15.0922
  44   2.0000      -0.544885       -14.8271
  45   2.0000      -0.522911       -14.2291
  46   2.0000      -0.513402       -13.9704
  47   2.0000      -0.512098       -13.9349
  48   2.0000      -0.504498       -13.7281
  49   2.0000      -0.497754       -13.5446
  50   2.0000      -0.488272       -13.2866
  51   2.0000      -0.480807       -13.0834
  52   2.0000      -0.476134       -12.9563
  53   2.0000      -0.463804       -12.6208
  54   2.0000      -0.456250       -12.4152
  55   2.0000      -0.448297       -12.1988
  56   2.0000      -0.438822       -11.9410
  57   2.0000      -0.434138       -11.8135
  58   2.0000      -0.432341       -11.7646
  59   2.0000      -0.425136       -11.5685
  60   2.0000      -0.422390       -11.4938
  61   2.0000      -0.418592       -11.3905
  62   2.0000      -0.412668       -11.2293
  63   2.0000      -0.358551        -9.7567
  64   2.0000      -0.335653        -9.1336
  65   2.0000      -0.328044        -8.9265
  66   2.0000      -0.284654        -7.7458
  67   0.0000       0.027366         0.7447
  68   0.0000       0.076790         2.0896
  69   0.0000       0.104298         2.8381
  70   0.0000       0.119770         3.2591
  71   0.0000       0.144783         3.9397

MULLIKEN ATOMIC CHARGES
-----------------------
   0 S :    0.113483
   1 C :   -0.147324
   2 C :   -0.072612
   3 C :   -0.005185
   4 C :   -0.136763
   5 H :    0.029715
   6 C :    0.060212
   7 H :    0.008960
   8 H :    0.022488
   9 C :   -0.056477
  10 H :    0.026617
  11 H :    0.029466
  12 C :   -0.015621
  13 H :    0.020572
  14 H :    0.000624
  15 H :    0.049126
  16 S :    0.080822
  17 C :   -0.095318
  18 C :   -0.025901
  19 C :   -0.093291
  20 C :   -0.117417
  21 H :    0.042465
  22 C :    0.092120
  23 H :    0.010878
  24 H :    0.007619
  25 C :   -0.052449
  26 H :    0.029923
  27 H :    0.016375
  28 C :   -0.058915
  29 H :    0.041296
  30 H :    0.035801
  31 H :    0.040267
  32 H :    0.063311
  33 H :    0.055135
Sum of atomic charges:   -0.0000000

LOEWDIN ATOMIC CHARGES
----------------------
   0 S :    0.412073
   1 C :   -0.200301
   2 C :   -0.059329
   3 C :   -0.066292
   4 C :   -0.192999
   5 H :    0.034856
   6 C :   -0.029637
   7 H :    0.026017
   8 H :    0.028047
   9 C :   -0.035546
  10 H :    0.019718
  11 H :    0.027990
  12 C :   -0.063642
  13 H :    0.024139
  14 H :    0.009922
  15 H :    0.039668
  16 S :    0.380449
  17 C :   -0.178054
  18 C :   -0.085429
  19 C :   -0.052889
  20 C :   -0.192037
  21 H :    0.045580
  22 C :   -0.028064
  23 H :    0.019988
  24 H :    0.029879
  25 C :   -0.032800
  26 H :    0.025327
  27 H :    0.017227
  28 C :   -0.068831
  29 H :    0.031629
  30 H :    0.026858
  31 H :    0.026417
  32 H :    0.031242
  33 H :    0.028823

  Mayer bond orders larger than 0.100000
B(  0-S ,  1-C ) :   1.1548 B(  0-S ,  4-C ) :   1.1451 B(  1-C ,  2-C ) :   1.5706
B(  1-C ,  4-C ) :   0.1021 B(  1-C , 32-H ) :   0.9658 B(  2-C ,  3-C ) :   1.2737
B(  2-C ,  6-C ) :   1.0197 B(  3-C ,  4-C ) :   1.5538 B(  3-C ,  5-H ) :   0.9821
B(  4-C , 20-C ) :   1.0720 B(  6-C ,  7-H ) :   0.9386 B(  6-C ,  8-H ) :   0.9468
B(  6-C ,  9-C ) :   1.0585 B(  9-C , 10-H ) :   0.9570 B(  9-C , 11-H ) :   0.9537
B(  9-C , 12-C ) :   1.0906 B( 12-C , 13-H ) :   0.9726 B( 12-C , 14-H ) :   0.9668
B( 12-C , 15-H ) :   0.9678 B( 16-S , 17-C ) :   1.1411 B( 16-S , 20-C ) :   1.1037
B( 17-C , 18-C ) :   1.6696 B( 17-C , 33-H ) :   0.9628 B( 18-C , 19-C ) :   1.1973
B( 18-C , 21-H ) :   0.9777 B( 19-C , 20-C ) :   1.6428 B( 19-C , 22-C ) :   1.0524
B( 22-C , 23-H ) :   0.9257 B( 22-C , 24-H ) :   0.9327 B( 22-C , 25-C ) :   1.0634
B( 25-C , 26-H ) :   0.9546 B( 25-C , 27-H ) :   0.9559 B( 25-C , 28-C ) :   1.0850
B( 28-C , 29-H ) :   0.9743 B( 28-C , 30-H ) :   0.9748 B( 28-C , 31-H ) :   0.9747

Dispersion correction           -0.014560179
FINAL SINGLE POINT ENERGY     -1339.880037425219

DIPOLE MOMENT
-------------
                                X             Y             Z
Electronic contribution:     13.03075      21.44519      -9.26831
Nuclear contribution   :    -13.39242     -21.86398       9.42380
                        -----------------------------------------
Total Dipole Moment    :     -0.36167      -0.41879       0.15549
                        -----------------------------------------
Magnitude (a.u.)       :      0.57478
Magnitude (Debye)      :      1.46096

Rotational constants in cm-1:     0.017735     0.009157     0.007502
Rotational constants in MHz :   531.689081   274.519882   224.916103

                             ****ORCA TERMINATED NORMALLY****
TOTAL RUN TIME: 0 days 0 hours 0 minutes 33 seconds 893 msec
