                         Program Version 4.2.1 -  RELEASE  -
|  1> ! wB97X-D3 SP def2-SVP
|  2> %pal
|  3> nprocs 16
|  4> end
|  5>
|  6> * xyz 0 1
|  7> S 	 7.84779 	 -6.61977 	 85.3439
|  8> C 	 8.06712 	 -5.14513 	 84.4541
|  9> C 	 7.29602 	 -4.17648 	 84.9318
| 10> C 	 6.31604 	 -4.60033 	 85.8458
| 11> C 	 6.41628 	 -5.95483 	 86.1449
| 12> H 	 5.43805 	 -4.05345 	 86.2441
| 13> C 	 7.35913 	 -2.74365 	 84.3901
| 14> H 	 6.81732 	 -2.77286 	 83.3855
| 15> H 	 8.3945 	 -2.593 	 83.9891
| 16> C 	 6.98556 	 -1.58255 	 85.3094
| 17> H 	 7.04736 	 -0.601497 	 84.7787
| 18> H 	 5.96918 	 -1.64104 	 85.6676
| 19> C 	 7.87927 	 -1.46286 	 86.5017
| 20> H 	 8.89134 	 -1.09479 	 86.2754
| 21> H 	 7.43664 	 -0.73945 	 87.2285
| 22> H 	 7.88541 	 -2.4364 	 86.9808
| 23> S 	 5.23854 	 -8.42502 	 86.0996
| 24> C 	 4.35371 	 -8.79882 	 87.6245
| 25> C 	 4.06331 	 -7.69435 	 88.3405
| 26> C 	 4.80055 	 -6.51603 	 88.019
| 27> C 	 5.4861 	 -6.78888 	 86.8798
| 28> H 	 3.29544 	 -7.73273 	 89.101
| 29> C 	 4.70343 	 -5.21777 	 88.8187
| 30> H 	 3.63987 	 -5.08391 	 89.095
| 31> H 	 4.98119 	 -4.39769 	 88.1982
| 32> C 	 5.62886 	 -5.19737 	 90.0274
| 33> H 	 5.49341 	 -4.2809 	 90.6644
| 34> H 	 6.69237 	 -5.18711 	 89.744
| 35> C 	 5.4197 	 -6.30059 	 91.062
| 36> H 	 4.38472 	 -6.35552 	 91.1849
| 37> H 	 5.81717 	 -5.87047 	 92.0397
| 38> H 	 5.83746 	 -7.28815 	 90.857
| 39> H 	 9.04548 	 -5.04491 	 83.9698
| 40> H 	 4.10829 	 -9.78426 	 88.0079
| 41> *
| 42>
| 43>                          ****END OF INPUT****

CARTESIAN COORDINATES (ANGSTROEM)
---------------------------------
  S      7.847790   -6.619770   85.343900
  C      8.067120   -5.145130   84.454100
  C      7.296020   -4.176480   84.931800
  C      6.316040   -4.600330   85.845800
  C      6.416280   -5.954830   86.144900
  H      5.438050   -4.053450   86.244100
  C      7.359130   -2.743650   84.390100
  H      6.817320   -2.772860   83.385500
  H      8.394500   -2.593000   83.989100
  C      6.985560   -1.582550   85.309400
  H      7.047360   -0.601497   84.778700
  H      5.969180   -1.641040   85.667600
  C      7.879270   -1.462860   86.501700
  H      8.891340   -1.094790   86.275400
  H      7.436640   -0.739450   87.228500
  H      7.885410   -2.436400   86.980800
  S      5.238540   -8.425020   86.099600
  C      4.353710   -8.798820   87.624500
  C      4.063310   -7.694350   88.340500
  C      4.800550   -6.516030   88.019000
  C      5.486100   -6.788880   86.879800
  H      3.295440   -7.732730   89.101000
  C      4.703430   -5.217770   88.818700
  H      3.639870   -5.083910   89.095000
  H      4.981190   -4.397690   88.198200
  C      5.628860   -5.197370   90.027400
  H      5.493410   -4.280900   90.664400
  H      6.692370   -5.187110   89.744000
  C      5.419700   -6.300590   91.062000
  H      4.384720   -6.355520   91.184900
  H      5.817170   -5.870470   92.039700
  H      5.837460   -7.288150   90.857000
  H      9.045480   -5.044910   83.969800
  H      4.108290   -9.784260   88.007900

 Total Charge           Charge          ....    0
 Multiplicity           Mult            ....    1
 Number of Electrons    NEL             ....  134
 Basis Dimension        Dim             ....  322

ORBITAL ENERGIES
----------------

  NO   OCC          E(Eh)            E(eV)
   0   2.0000     -88.966402     -2420.8989
   1   2.0000     -88.960096     -2420.7273
   2   2.0000     -10.328632      -281.0564
   3   2.0000     -10.327840      -281.0348
   4   2.0000     -10.315764      -280.7062
   5   2.0000     -10.304760      -280.4068
   6   2.0000     -10.303302      -280.3671
   7   2.0000     -10.299605      -280.2665
   8   2.0000     -10.298389      -280.2334
   9   2.0000     -10.296988      -280.1953
  10   2.0000     -10.294584      -280.1299
  11   2.0000     -10.290578      -280.0209
  12   2.0000     -10.289918      -280.0029
  13   2.0000     -10.287250      -279.9303
  14   2.0000     -10.276054      -279.6256
  15   2.0000     -10.275353      -279.6066
  16   2.0000      -8.079472      -219.8536
  17   2.0000      -8.075299      -219.7401
  18   2.0000      -6.038085      -164.3046
  19   2.0000      -6.034774      -164.2146
  20   2.0000      -6.033725      -164.1860
  21   2.0000      -6.029745      -164.0777
  22   2.0000      -6.029619      -164.0743
  23   2.0000      -6.026085      -163.9781
  24   2.0000      -1.008332       -27.4381
  25   2.0000      -0.985038       -26.8043
  26   2.0000      -0.913339       -24.8532
  27   2.0000      -0.910998       -24.7895
  28   2.0000      -0.873221       -23.7616
  29   2.0000      -0.853223       -23.2174
  30   2.0000      -0.842708       -22.9312
  31   2.0000      -0.815900       -22.2018
  32   2.0000      -0.789628       -21.4869
  33   2.0000      -0.771568       -20.9954
  34   2.0000      -0.710588       -19.3361
  35   2.0000      -0.693459       -18.8700
  36   2.0000      -0.686785       -18.6884
  37   2.0000      -0.660845       -17.9825
  38   2.0000      -0.639963       -17.4143
  39   2.0000      -0.620863       -16.8945
  40   2.0000      -0.594682       -16.1821
  41   2.0000      -0.563987       -15.3469
  42   2.0000      -0.558384       -15.1944
  43   2.0000      -0.555159       -15.1066
  44   2.0000      -0.550081       -14.9685
  45   2.0000      -0.537047       -14.6138
  46   2.0000      -0.521641       -14.1946
  47   2.0000      -0.508960       -13.8495
  48   2.0000      -0.499276       -13.5860
  49   2.0000      -0.494229       -13.4486
  50   2.0000      -0.487305       -13.2603
  51   2.0000      -0.484213       -13.1761
  52   2.0000      -0.471184       -12.8216
  53   2.0000      -0.462281       -12.5793
  54   2.0000      -0.454562       -12.3693
  55   2.0000      -0.446804       -12.1582
  56   2.0000      -0.440340       -11.9823
  57   2.0000      -0.437154       -11.8956
  58   2.0000      -0.428970       -11.6729
  59   2.0000      -0.425494       -11.5783
  60   2.0000      -0.422953       -11.5091
  61   2.0000      -0.417441       -11.3591
  62   2.0000      -0.412374       -11.2213
  63   2.0000      -0.349291        -9.5047
  64   2.0000      -0.337040        -9.1713
  65   2.0000      -0.325358        -8.8534
  66   2.0000      -0.287884        -7.8337
  67   0.0000       0.019376         0.5273
  68   0.0000       0.074445         2.0258
  69   0.0000       0.086729         2.3600
  70   0.0000       0.114775         3.1232
  71   0.0000       0.131945         3.5904

MULLIKEN ATOMIC CHARGES
-----------------------
   0 S :    0.095716
   1 C :   -0.138807
   2 C :   -0.074144
   3 C :    0.002549
   4 C :   -0.160390
   5 H :    0.034936
   6 C :    0.037882
   7 H :    0.055405
   8 H :    0.014458
   9 C :   -0.058719
  10 H :    0.032379
  11 H :    0.024845
  12 C :   -0.064030
  13 H :    0.035333
  14 H :    0.033674
  15 H :    0.037874
  16 S :    0.100652
  17 C :   -0.086696
  18 C :   -0.031377
  19 C :   -0.048007
  20 C :   -0.156581
  21 H :    0.014125
  22 C :    0.125800
  23 H :    0.036872
  24 H :    0.001930
  25 C :   -0.105373
  26 H :    0.032766
  27 H :    0.040536
  28 C :   -0.042246
  29 H :    0.003230
  30 H :    0.036206
  31 H :    0.053272
  32 H :    0.062561
  33 H :    0.053367
Sum of atomic charges:   -0.0000000

LOEWDIN ATOMIC CHARGES
----------------------
   0 S :    0.394936
   1 C :   -0.203730
   2 C :   -0.072848
   3 C :   -0.074543
   4 C :   -0.180586
   5 H :    0.035959
   6 C :   -0.039938
   7 H :    0.044361
   8 H :    0.031180
   9 C :   -0.050413
  10 H :    0.032153
  11 H :    0.020582
  12 C :   -0.066705
  13 H :    0.025246
  14 H :    0.029995
  15 H :    0.024239
  16 S :    0.344347
  17 C :   -0.165871
  18 C :   -0.064208
  19 C :   -0.053803
  20 C :   -0.160304
  21 H :    0.028296
  22 C :   -0.024046
  23 H :    0.037505
  24 H :    0.025552
  25 C :   -0.044331
  26 H :    0.030318
  27 H :    0.028370
  28 C :   -0.066531
  29 H :    0.011090
  30 H :    0.035809
  31 H :    0.026271
  32 H :    0.031415
  33 H :    0.030234

  Mayer bond orders larger than 0.100000
B(  0-S ,  1-C ) :   1.1251 B(  0-S ,  4-C ) :   1.1624 B(  1-C ,  2-C ) :   1.6377
B(  1-C , 32-H ) :   0.9590 B(  2-C ,  3-C ) :   1.2323 B(  2-C ,  6-C ) :   1.0061
B(  3-C ,  4-C ) :   1.5703 B(  3-C ,  5-H ) :   0.9785 B(  4-C , 20-C ) :   1.0619
B(  6-C ,  7-H ) :   0.9405 B(  6-C ,  8-H ) :   0.9403 B(  6-C ,  9-C ) :   1.0693
B(  9-C , 10-H ) :   0.9513 B(  9-C , 11-H ) :   0.9511 B(  9-C , 12-C ) :   1.0848
B( 12-C , 13-H ) :   0.9741 B( 12-C , 14-H ) :   0.9724 B( 12-C , 15-H ) :   0.9736
B( 16-S , 17-C ) :   1.0984 B( 16-S , 20-C ) :   1.1095 B( 17-C , 18-C ) :   1.6903
B( 17-C , 33-H ) :   0.9639 B( 18-C , 19-C ) :   1.1812 B( 18-C , 21-H ) :   0.9787
B( 19-C , 20-C ) :   1.6739 B( 19-C , 22-C ) :   1.0226 B( 22-C , 23-H ) :   0.9356
B( 22-C , 24-H ) :   0.9224 B( 22-C , 25-C ) :   1.0838 B( 25-C , 26-H ) :   0.9585
B( 25-C , 27-H ) :   0.9526 B( 25-C , 28-C ) :   1.0801 B( 28-C , 29-H ) :   0.9720
B( 28-C , 30-H ) :   0.9751 B( 28-C , 31-H ) :   0.9713

Dispersion correction           -0.014800737
FINAL SINGLE POINT ENERGY     -1339.862695093421

DIPOLE MOMENT
-------------
                                X             Y             Z
Electronic contribution:      0.04232     -23.51901     -14.82107
Nuclear contribution   :     -0.23388      24.12695      15.23297
                        -----------------------------------------
Total Dipole Moment    :     -0.19155       0.60794       0.41190
                        -----------------------------------------
Magnitude (a.u.)       :      0.75891
Magnitude (Debye)      :      1.92899

Rotational constants in cm-1:     0.018751     0.009621     0.007089
Rotational constants in MHz :   562.150993   288.441013   212.519026

                             ****ORCA TERMINATED NORMALLY****
TOTAL RUN TIME: 0 days 0 hours 0 minutes 35 seconds 255 msec
