                         Program Version 4.2.1 -  RELEASE  -
|  1> ! wB97X-D3 SP def2-SVP
|  2> %pal
|  3> nprocs 16
|  4> end
|  5>
|  6> * xyz 0 1
|  7> S 	 42.5207 	 14.7728 	 73.7846
|  8> C 	 41.0048 	 14.7251 	 74.5565
|  9> C 	 41.0783 	 15.0321 	 75.8936
| 10> C 	 42.3147 	 15.7579 	 76.1796
| 11> C 	 43.1121 	 15.8493 	 75.0426
| 12> H 	 42.533 	 16.2548 	 77.078
| 13> C 	 39.983 	 14.8551 	 76.9263
| 14> H 	 39.0174 	 14.6781 	 76.4606
| 15> H 	 39.8914 	 15.7421 	 77.4389
| 16> C 	 40.2208 	 13.5386 	 77.789
| 17> H 	 39.9297 	 12.6967 	 77.1519
| 18> H 	 41.2951 	 13.4351 	 78.1394
| 19> C 	 39.2506 	 13.5569 	 79.0338
| 20> H 	 38.1776 	 13.6253 	 78.7525
| 21> H 	 39.4487 	 12.6913 	 79.5698
| 22> H 	 39.5489 	 14.4175 	 79.6538
| 23> S 	 45.9243 	 15.3352 	 74.8024
| 24> C 	 46.9603 	 16.7345 	 74.6912
| 25> C 	 46.2683 	 17.9051 	 74.868
| 26> C 	 44.845 	 17.688 	 75.0968
| 27> C 	 44.4676 	 16.3617 	 74.9498
| 28> H 	 46.7776 	 18.8285 	 74.8168
| 29> C 	 43.9544 	 18.9047 	 75.3244
| 30> H 	 43.1153 	 18.8065 	 74.677
| 31> H 	 44.4925 	 19.8351 	 75.0517
| 32> C 	 43.5668 	 19.0974 	 76.8239
| 33> H 	 44.5224 	 19.1951 	 77.4391
| 34> H 	 42.9184 	 18.2593 	 77.2156
| 35> C 	 42.5879 	 20.2546 	 77.0307
| 36> H 	 41.6511 	 20.009 	 76.4872
| 37> H 	 43.1408 	 21.052 	 76.5744
| 38> H 	 42.3509 	 20.465 	 77.9697
| 39> H 	 40.1763 	 14.3001 	 74.0454
| 40> H 	 48.0308 	 16.6278 	 74.5128
| 41> *
| 42>
| 43>                          ****END OF INPUT****

CARTESIAN COORDINATES (ANGSTROEM)
---------------------------------
  S     42.520700   14.772800   73.784600
  C     41.004800   14.725100   74.556500
  C     41.078300   15.032100   75.893600
  C     42.314700   15.757900   76.179600
  C     43.112100   15.849300   75.042600
  H     42.533000   16.254800   77.078000
  C     39.983000   14.855100   76.926300
  H     39.017400   14.678100   76.460600
  H     39.891400   15.742100   77.438900
  C     40.220800   13.538600   77.789000
  H     39.929700   12.696700   77.151900
  H     41.295100   13.435100   78.139400
  C     39.250600   13.556900   79.033800
  H     38.177600   13.625300   78.752500
  H     39.448700   12.691300   79.569800
  H     39.548900   14.417500   79.653800
  S     45.924300   15.335200   74.802400
  C     46.960300   16.734500   74.691200
  C     46.268300   17.905100   74.868000
  C     44.845000   17.688000   75.096800
  C     44.467600   16.361700   74.949800
  H     46.777600   18.828500   74.816800
  C     43.954400   18.904700   75.324400
  H     43.115300   18.806500   74.677000
  H     44.492500   19.835100   75.051700
  C     43.566800   19.097400   76.823900
  H     44.522400   19.195100   77.439100
  H     42.918400   18.259300   77.215600
  C     42.587900   20.254600   77.030700
  H     41.651100   20.009000   76.487200
  H     43.140800   21.052000   76.574400
  H     42.350900   20.465000   77.969700
  H     40.176300   14.300100   74.045400
  H     48.030800   16.627800   74.512800

 Total Charge           Charge          ....    0
 Multiplicity           Mult            ....    1
 Number of Electrons    NEL             ....  134
 Basis Dimension        Dim             ....  322

ORBITAL ENERGIES
----------------

  NO   OCC          E(Eh)            E(eV)
   0   2.0000     -88.962114     -2420.7822
   1   2.0000     -88.961008     -2420.7521
   2   2.0000     -10.327384      -281.0224
   3   2.0000     -10.324357      -280.9400
   4   2.0000     -10.314987      -280.6851
   5   2.0000     -10.307541      -280.4824
   6   2.0000     -10.302417      -280.3430
   7   2.0000     -10.301825      -280.3269
   8   2.0000     -10.298631      -280.2400
   9   2.0000     -10.296960      -280.1945
  10   2.0000     -10.292866      -280.0831
  11   2.0000     -10.291984      -280.0591
  12   2.0000     -10.289631      -279.9951
  13   2.0000     -10.289385      -279.9884
  14   2.0000     -10.279702      -279.7249
  15   2.0000     -10.266421      -279.3635
  16   2.0000      -8.077147      -219.7903
  17   2.0000      -8.076477      -219.7721
  18   2.0000      -6.035511      -164.2346
  19   2.0000      -6.035161      -164.2251
  20   2.0000      -6.031783      -164.1332
  21   2.0000      -6.031090      -164.1143
  22   2.0000      -6.027647      -164.0206
  23   2.0000      -6.027035      -164.0040
  24   2.0000      -1.005091       -27.3499
  25   2.0000      -0.981087       -26.6967
  26   2.0000      -0.905870       -24.6500
  27   2.0000      -0.905113       -24.6294
  28   2.0000      -0.868074       -23.6215
  29   2.0000      -0.850211       -23.1354
  30   2.0000      -0.846808       -23.0428
  31   2.0000      -0.813493       -22.1363
  32   2.0000      -0.782912       -21.3041
  33   2.0000      -0.768834       -20.9210
  34   2.0000      -0.700521       -19.0622
  35   2.0000      -0.697501       -18.9800
  36   2.0000      -0.686608       -18.6836
  37   2.0000      -0.661581       -18.0025
  38   2.0000      -0.647839       -17.6286
  39   2.0000      -0.619430       -16.8555
  40   2.0000      -0.593907       -16.1610
  41   2.0000      -0.572206       -15.5705
  42   2.0000      -0.565774       -15.3955
  43   2.0000      -0.559123       -15.2145
  44   2.0000      -0.530677       -14.4405
  45   2.0000      -0.525283       -14.2937
  46   2.0000      -0.519886       -14.1468
  47   2.0000      -0.511601       -13.9214
  48   2.0000      -0.509129       -13.8541
  49   2.0000      -0.504544       -13.7293
  50   2.0000      -0.491039       -13.3619
  51   2.0000      -0.481489       -13.1020
  52   2.0000      -0.469810       -12.7842
  53   2.0000      -0.461504       -12.5582
  54   2.0000      -0.459146       -12.4940
  55   2.0000      -0.450603       -12.2615
  56   2.0000      -0.438891       -11.9428
  57   2.0000      -0.436578       -11.8799
  58   2.0000      -0.431905       -11.7527
  59   2.0000      -0.430535       -11.7154
  60   2.0000      -0.423989       -11.5373
  61   2.0000      -0.412974       -11.2376
  62   2.0000      -0.403749       -10.9866
  63   2.0000      -0.342760        -9.3270
  64   2.0000      -0.326945        -8.8966
  65   2.0000      -0.323662        -8.8073
  66   2.0000      -0.293369        -7.9830
  67   0.0000       0.034471         0.9380
  68   0.0000       0.060240         1.6392
  69   0.0000       0.110439         3.0052
  70   0.0000       0.122825         3.3422
  71   0.0000       0.129014         3.5107

MULLIKEN ATOMIC CHARGES
-----------------------
   0 S :    0.107732
   1 C :   -0.100297
   2 C :   -0.085490
   3 C :    0.060181
   4 C :   -0.182732
   5 H :    0.000780
   6 C :    0.094666
   7 H :    0.013720
   8 H :    0.008180
   9 C :   -0.127139
  10 H :    0.038344
  11 H :    0.051635
  12 C :   -0.031102
  13 H :    0.040332
  14 H :    0.026217
  15 H :    0.033476
  16 S :    0.099969
  17 C :   -0.103577
  18 C :   -0.007628
  19 C :   -0.043741
  20 C :   -0.139978
  21 H :    0.004566
  22 C :    0.087956
  23 H :    0.028296
  24 H :    0.019821
  25 C :   -0.150320
  26 H :    0.044896
  27 H :    0.031287
  28 C :    0.029668
  29 H :    0.033576
  30 H :    0.013214
  31 H :    0.005371
  32 H :    0.034510
  33 H :    0.063609
Sum of atomic charges:   -0.0000000

LOEWDIN ATOMIC CHARGES
----------------------
   0 S :    0.414693
   1 C :   -0.197968
   2 C :   -0.058368
   3 C :   -0.041515
   4 C :   -0.188728
   5 H :    0.020071
   6 C :   -0.025889
   7 H :    0.030689
   8 H :    0.015126
   9 C :   -0.032674
  10 H :    0.024668
  11 H :    0.030387
  12 C :   -0.063612
  13 H :    0.028836
  14 H :    0.015789
  15 H :    0.026959
  16 S :    0.382231
  17 C :   -0.183623
  18 C :   -0.069658
  19 C :   -0.050425
  20 C :   -0.198277
  21 H :    0.024935
  22 C :   -0.026965
  23 H :    0.028180
  24 H :    0.031670
  25 C :   -0.045456
  26 H :    0.029798
  27 H :    0.023302
  28 C :   -0.050739
  29 H :    0.032576
  30 H :    0.020244
  31 H :    0.003787
  32 H :    0.018613
  33 H :    0.031342

  Mayer bond orders larger than 0.100000
B(  0-S ,  1-C ) :   1.1499 B(  0-S ,  4-C ) :   1.1458 B(  1-C ,  2-C ) :   1.6101
B(  1-C , 32-H ) :   0.9764 B(  2-C ,  3-C ) :   1.2105 B(  2-C ,  6-C ) :   1.0315
B(  3-C ,  4-C ) :   1.5764 B(  3-C ,  5-H ) :   0.9997 B(  4-C , 20-C ) :   1.0489
B(  6-C ,  7-H ) :   0.9419 B(  6-C ,  8-H ) :   0.9513 B(  6-C ,  9-C ) :   1.0369
B(  9-C , 10-H ) :   0.9591 B(  9-C , 11-H ) :   0.9644 B(  9-C , 12-C ) :   1.0737
B( 12-C , 13-H ) :   0.9743 B( 12-C , 14-H ) :   0.9755 B( 12-C , 15-H ) :   0.9783
B( 16-S , 17-C ) :   1.1460 B( 16-S , 20-C ) :   1.1182 B( 17-C , 18-C ) :   1.6256
B( 17-C , 33-H ) :   0.9649 B( 18-C , 19-C ) :   1.2195 B( 18-C , 21-H ) :   0.9981
B( 19-C , 20-C ) :   1.6274 B( 19-C , 22-C ) :   1.0472 B( 22-C , 23-H ) :   0.9288
B( 22-C , 24-H ) :   0.9380 B( 22-C , 25-C ) :   1.0585 B( 25-C , 26-H ) :   0.9554
B( 25-C , 27-H ) :   0.9530 B( 25-C , 28-C ) :   1.0731 B( 28-C , 29-H ) :   0.9743
B( 28-C , 30-H ) :   0.9732 B( 28-C , 31-H ) :   0.9738

Dispersion correction           -0.014144951
FINAL SINGLE POINT ENERGY     -1339.857798677655

DIPOLE MOMENT
-------------
                                X             Y             Z
Electronic contribution:     17.81772     -10.05462     -19.91643
Nuclear contribution   :    -18.19505      10.32279      20.37258
                        -----------------------------------------
Total Dipole Moment    :     -0.37733       0.26817       0.45616
                        -----------------------------------------
Magnitude (a.u.)       :      0.64990
Magnitude (Debye)      :      1.65191

Rotational constants in cm-1:     0.017771     0.008453     0.006741
Rotational constants in MHz :   532.770495   253.400908   202.077111

                             ****ORCA TERMINATED NORMALLY****
TOTAL RUN TIME: 0 days 0 hours 0 minutes 30 seconds 251 msec
