                         Program Version 4.2.1 -  RELEASE  -
|  1> ! wB97X-D3 SP def2-SVP
|  2> %pal
|  3> nprocs 16
|  4> end
|  5>
|  6> * xyz 0 1
|  7> S 	 50.9611 	 3.47972 	 88.4076
|  8> C 	 51.9626 	 4.72847 	 87.699
|  9> C 	 52.6033 	 5.54152 	 88.6061
| 10> C 	 52.1474 	 5.2404 	 89.8941
| 11> C 	 51.2282 	 4.19888 	 89.9747
| 12> H 	 52.3778 	 5.87923 	 90.7257
| 13> C 	 53.5682 	 6.66751 	 88.3624
| 14> H 	 54.0236 	 6.47668 	 87.4305
| 15> H 	 54.316 	 6.59758 	 89.1611
| 16> C 	 52.9862 	 8.07812 	 88.338
| 17> H 	 52.198 	 8.16984 	 87.5605
| 18> H 	 52.6163 	 8.49371 	 89.2628
| 19> C 	 53.9974 	 9.17711 	 87.9838
| 20> H 	 53.5081 	 10.1937 	 88.1275
| 21> H 	 54.9374 	 9.17191 	 88.4799
| 22> H 	 54.304 	 9.00157 	 86.9231
| 23> S 	 48.9215 	 3.39528 	 91.1387
| 24> C 	 49.0247 	 2.65169 	 92.6905
| 25> C 	 50.3006 	 2.55807 	 93.2221
| 26> C 	 51.2209 	 3.26778 	 92.384
| 27> C 	 50.6144 	 3.76086 	 91.2176
| 28> H 	 50.3971 	 1.93664 	 94.111
| 29> C 	 52.7004 	 3.37742 	 92.69
| 30> H 	 52.9308 	 4.38394 	 92.999
| 31> H 	 53.3142 	 3.19017 	 91.8342
| 32> C 	 53.3435 	 2.44406 	 93.7853
| 33> H 	 52.7699 	 2.56977 	 94.7709
| 34> H 	 54.3201 	 2.92373 	 94.0057
| 35> C 	 53.4727 	 1.03572 	 93.2986
| 36> H 	 52.4994 	 0.663849 	 93.0705
| 37> H 	 53.874 	 0.295179 	 93.982
| 38> H 	 53.9194 	 0.958033 	 92.3866
| 39> H 	 52.2237 	 4.6978 	 86.6676
| 40> H 	 48.2293 	 2.08558 	 93.1266
| 41> *
| 42>
| 43>                          ****END OF INPUT****

CARTESIAN COORDINATES (ANGSTROEM)
---------------------------------
  S     50.961100    3.479720   88.407600
  C     51.962600    4.728470   87.699000
  C     52.603300    5.541520   88.606100
  C     52.147400    5.240400   89.894100
  C     51.228200    4.198880   89.974700
  H     52.377800    5.879230   90.725700
  C     53.568200    6.667510   88.362400
  H     54.023600    6.476680   87.430500
  H     54.316000    6.597580   89.161100
  C     52.986200    8.078120   88.338000
  H     52.198000    8.169840   87.560500
  H     52.616300    8.493710   89.262800
  C     53.997400    9.177110   87.983800
  H     53.508100   10.193700   88.127500
  H     54.937400    9.171910   88.479900
  H     54.304000    9.001570   86.923100
  S     48.921500    3.395280   91.138700
  C     49.024700    2.651690   92.690500
  C     50.300600    2.558070   93.222100
  C     51.220900    3.267780   92.384000
  C     50.614400    3.760860   91.217600
  H     50.397100    1.936640   94.111000
  C     52.700400    3.377420   92.690000
  H     52.930800    4.383940   92.999000
  H     53.314200    3.190170   91.834200
  C     53.343500    2.444060   93.785300
  H     52.769900    2.569770   94.770900
  H     54.320100    2.923730   94.005700
  C     53.472700    1.035720   93.298600
  H     52.499400    0.663849   93.070500
  H     53.874000    0.295179   93.982000
  H     53.919400    0.958033   92.386600
  H     52.223700    4.697800   86.667600
  H     48.229300    2.085580   93.126600

 Total Charge           Charge          ....    0
 Multiplicity           Mult            ....    1
 Number of Electrons    NEL             ....  134
 Basis Dimension        Dim             ....  322

ORBITAL ENERGIES
----------------

  NO   OCC          E(Eh)            E(eV)
   0   2.0000     -88.969803     -2420.9914
   1   2.0000     -88.966443     -2420.9000
   2   2.0000     -10.325511      -280.9714
   3   2.0000     -10.321699      -280.8677
   4   2.0000     -10.310738      -280.5694
   5   2.0000     -10.308717      -280.5144
   6   2.0000     -10.307680      -280.4862
   7   2.0000     -10.295469      -280.1540
   8   2.0000     -10.294443      -280.1260
   9   2.0000     -10.293648      -280.1044
  10   2.0000     -10.292703      -280.0787
  11   2.0000     -10.288067      -279.9525
  12   2.0000     -10.287113      -279.9266
  13   2.0000     -10.284673      -279.8602
  14   2.0000     -10.281632      -279.7774
  15   2.0000     -10.263823      -279.2928
  16   2.0000      -8.084335      -219.9859
  17   2.0000      -8.081973      -219.9217
  18   2.0000      -6.042775      -164.4323
  19   2.0000      -6.040232      -164.3631
  20   2.0000      -6.038970      -164.3287
  21   2.0000      -6.036465      -164.2606
  22   2.0000      -6.035105      -164.2236
  23   2.0000      -6.032865      -164.1626
  24   2.0000      -1.008854       -27.4523
  25   2.0000      -0.986401       -26.8413
  26   2.0000      -0.915391       -24.9091
  27   2.0000      -0.908844       -24.7309
  28   2.0000      -0.869752       -23.6672
  29   2.0000      -0.855415       -23.2770
  30   2.0000      -0.849723       -23.1221
  31   2.0000      -0.813215       -22.1287
  32   2.0000      -0.787449       -21.4276
  33   2.0000      -0.773614       -21.0511
  34   2.0000      -0.707004       -19.2385
  35   2.0000      -0.698065       -18.9953
  36   2.0000      -0.695256       -18.9189
  37   2.0000      -0.654749       -17.8166
  38   2.0000      -0.638231       -17.3671
  39   2.0000      -0.626814       -17.0565
  40   2.0000      -0.599129       -16.3031
  41   2.0000      -0.571493       -15.5511
  42   2.0000      -0.564474       -15.3601
  43   2.0000      -0.555757       -15.1229
  44   2.0000      -0.534715       -14.5503
  45   2.0000      -0.527228       -14.3466
  46   2.0000      -0.517452       -14.0806
  47   2.0000      -0.512585       -13.9481
  48   2.0000      -0.502583       -13.6760
  49   2.0000      -0.497012       -13.5244
  50   2.0000      -0.489881       -13.3303
  51   2.0000      -0.481561       -13.1039
  52   2.0000      -0.468245       -12.7416
  53   2.0000      -0.465394       -12.6640
  54   2.0000      -0.454720       -12.3736
  55   2.0000      -0.453423       -12.3383
  56   2.0000      -0.447059       -12.1651
  57   2.0000      -0.444227       -12.0880
  58   2.0000      -0.439989       -11.9727
  59   2.0000      -0.426939       -11.6176
  60   2.0000      -0.415798       -11.3144
  61   2.0000      -0.414985       -11.2923
  62   2.0000      -0.413636       -11.2556
  63   2.0000      -0.344368        -9.3707
  64   2.0000      -0.335194        -9.1211
  65   2.0000      -0.331442        -9.0190
  66   2.0000      -0.286038        -7.7835
  67   0.0000       0.029944         0.8148
  68   0.0000       0.070921         1.9299
  69   0.0000       0.111189         3.0256
  70   0.0000       0.125875         3.4252
  71   0.0000       0.127821         3.4782

MULLIKEN ATOMIC CHARGES
-----------------------
   0 S :    0.124476
   1 C :   -0.130372
   2 C :   -0.066151
   3 C :    0.004935
   4 C :   -0.138562
   5 H :    0.003902
   6 C :    0.116295
   7 H :    0.002324
   8 H :    0.026744
   9 C :   -0.066353
  10 H :    0.036667
  11 H :    0.026936
  12 C :   -0.078636
  13 H :    0.050381
  14 H :    0.023151
  15 H :    0.023911
  16 S :    0.116509
  17 C :   -0.084153
  18 C :   -0.055970
  19 C :   -0.009261
  20 C :   -0.169748
  21 H :    0.031414
  22 C :    0.043097
  23 H :    0.032715
  24 H :    0.028445
  25 C :   -0.101779
  26 H :    0.034559
  27 H :    0.029186
  28 C :    0.028063
  29 H :    0.004675
  30 H :    0.034698
  31 H :    0.002576
  32 H :    0.031586
  33 H :    0.043742
Sum of atomic charges:    0.0000000

LOEWDIN ATOMIC CHARGES
----------------------
   0 S :    0.409886
   1 C :   -0.194729
   2 C :   -0.062803
   3 C :   -0.060685
   4 C :   -0.198537
   5 H :    0.027258
   6 C :   -0.024376
   7 H :    0.024986
   8 H :    0.035473
   9 C :   -0.040655
  10 H :    0.030742
  11 H :    0.022220
  12 C :   -0.071180
  13 H :    0.036098
  14 H :    0.015656
  15 H :    0.023514
  16 S :    0.426427
  17 C :   -0.190729
  18 C :   -0.074251
  19 C :   -0.046503
  20 C :   -0.210196
  21 H :    0.038328
  22 C :   -0.031678
  23 H :    0.031176
  24 H :    0.029028
  25 C :   -0.042347
  26 H :    0.026624
  27 H :    0.026268
  28 C :   -0.063017
  29 H :    0.024976
  30 H :    0.028628
  31 H :    0.015624
  32 H :    0.017134
  33 H :    0.021639

  Mayer bond orders larger than 0.100000
B(  0-S ,  1-C ) :   1.1396 B(  0-S ,  4-C ) :   1.1526 B(  1-C ,  2-C ) :   1.6014
B(  1-C , 32-H ) :   0.9653 B(  2-C ,  3-C ) :   1.2631 B(  2-C ,  6-C ) :   1.0326
B(  3-C ,  4-C ) :   1.5495 B(  3-C ,  5-H ) :   0.9985 B(  4-C , 20-C ) :   1.0652
B(  6-C ,  7-H ) :   0.9290 B(  6-C ,  8-H ) :   0.9328 B(  6-C ,  9-C ) :   1.0724
B(  9-C , 10-H ) :   0.9549 B(  9-C , 11-H ) :   0.9592 B(  9-C , 12-C ) :   1.0742
B( 12-C , 13-H ) :   0.9765 B( 12-C , 14-H ) :   0.9753 B( 12-C , 15-H ) :   0.9750
B( 16-S , 17-C ) :   1.1707 B( 16-S , 20-C ) :   1.1451 B( 17-C , 18-C ) :   1.6154
B( 17-C , 33-H ) :   0.9612 B( 18-C , 19-C ) :   1.2418 B( 18-C , 21-H ) :   0.9884
B( 19-C , 20-C ) :   1.5724 B( 19-C , 22-C ) :   1.0316 B( 22-C , 23-H ) :   0.9314
B( 22-C , 24-H ) :   0.9301 B( 22-C , 25-C ) :   1.0857 B( 25-C , 26-H ) :   0.9491
B( 25-C , 27-H ) :   0.9534 B( 25-C , 28-C ) :   1.0753 B( 28-C , 29-H ) :   0.9670
B( 28-C , 30-H ) :   0.9718 B( 28-C , 31-H ) :   0.9657

Dispersion correction           -0.013893315
FINAL SINGLE POINT ENERGY     -1339.874115914783

DIPOLE MOMENT
-------------
                                X             Y             Z
Electronic contribution:    -22.10643     -10.60414      -5.35279
Nuclear contribution   :     22.63335      10.68214       5.53097
                        -----------------------------------------
Total Dipole Moment    :      0.52691       0.07800       0.17818
                        -----------------------------------------
Magnitude (a.u.)       :      0.56167
Magnitude (Debye)      :      1.42765

Rotational constants in cm-1:     0.019771     0.007588     0.006479
Rotational constants in MHz :   592.728526   227.488977   194.225358

                             ****ORCA TERMINATED NORMALLY****
TOTAL RUN TIME: 0 days 0 hours 0 minutes 29 seconds 635 msec
