                         Program Version 4.2.1 -  RELEASE  -
|  1> ! wB97X-D3 SP def2-SVP
|  2> %pal
|  3> nprocs 16
|  4> end
|  5>
|  6> * xyz 0 1
|  7> S 	 40.9903 	 23.5334 	 96.0878
|  8> C 	 41.6673 	 24.996 	 95.4182
|  9> C 	 42.2624 	 24.7308 	 94.2117
| 10> C 	 42.29 	 23.3368 	 93.9339
| 11> C 	 41.6367 	 22.5132 	 94.7898
| 12> H 	 42.7312 	 22.8763 	 93.11
| 13> C 	 43.0252 	 25.7896 	 93.485
| 14> H 	 43.2325 	 26.5996 	 94.166
| 15> H 	 42.4025 	 26.3488 	 92.714
| 16> C 	 44.4117 	 25.2722 	 92.9109
| 17> H 	 44.3162 	 24.4847 	 92.1099
| 18> H 	 44.8405 	 26.1539 	 92.38
| 19> C 	 45.2843 	 24.9094 	 93.9969
| 20> H 	 45.164 	 25.5274 	 94.9051
| 21> H 	 45.119 	 23.922 	 94.3286
| 22> H 	 46.3632 	 24.896 	 93.6323
| 23> S 	 41.0583 	 20.3313 	 96.2894
| 24> C 	 40.9645 	 18.7576 	 95.5952
| 25> C 	 41.3856 	 18.8272 	 94.3003
| 26> C 	 41.6397 	 20.1695 	 93.8135
| 27> C 	 41.4845 	 21.0735 	 94.7793
| 28> H 	 41.4915 	 17.9302 	 93.6909
| 29> C 	 42.1815 	 20.3262 	 92.405
| 30> H 	 41.9981 	 21.3376 	 92.0218
| 31> H 	 41.4992 	 19.8018 	 91.7877
| 32> C 	 43.6472 	 20.0206 	 92.2556
| 33> H 	 43.8576 	 18.922 	 92.3936
| 34> H 	 44.1766 	 20.6188 	 93.0517
| 35> C 	 44.3006 	 20.2884 	 90.8867
| 36> H 	 45.3197 	 19.9062 	 90.7095
| 37> H 	 44.2409 	 21.3927 	 90.7116
| 38> H 	 43.6055 	 19.8731 	 90.1581
| 39> H 	 41.583 	 25.9817 	 95.8586
| 40> H 	 40.763 	 17.856 	 96.1692
| 41> *
| 42>
| 43>                          ****END OF INPUT****

CARTESIAN COORDINATES (ANGSTROEM)
---------------------------------
  S     40.990300   23.533400   96.087800
  C     41.667300   24.996000   95.418200
  C     42.262400   24.730800   94.211700
  C     42.290000   23.336800   93.933900
  C     41.636700   22.513200   94.789800
  H     42.731200   22.876300   93.110000
  C     43.025200   25.789600   93.485000
  H     43.232500   26.599600   94.166000
  H     42.402500   26.348800   92.714000
  C     44.411700   25.272200   92.910900
  H     44.316200   24.484700   92.109900
  H     44.840500   26.153900   92.380000
  C     45.284300   24.909400   93.996900
  H     45.164000   25.527400   94.905100
  H     45.119000   23.922000   94.328600
  H     46.363200   24.896000   93.632300
  S     41.058300   20.331300   96.289400
  C     40.964500   18.757600   95.595200
  C     41.385600   18.827200   94.300300
  C     41.639700   20.169500   93.813500
  C     41.484500   21.073500   94.779300
  H     41.491500   17.930200   93.690900
  C     42.181500   20.326200   92.405000
  H     41.998100   21.337600   92.021800
  H     41.499200   19.801800   91.787700
  C     43.647200   20.020600   92.255600
  H     43.857600   18.922000   92.393600
  H     44.176600   20.618800   93.051700
  C     44.300600   20.288400   90.886700
  H     45.319700   19.906200   90.709500
  H     44.240900   21.392700   90.711600
  H     43.605500   19.873100   90.158100
  H     41.583000   25.981700   95.858600
  H     40.763000   17.856000   96.169200

 Total Charge           Charge          ....    0
 Multiplicity           Mult            ....    1
 Number of Electrons    NEL             ....  134
 Basis Dimension        Dim             ....  322

ORBITAL ENERGIES
----------------

  NO   OCC          E(Eh)            E(eV)
   0   2.0000     -88.962033     -2420.7800
   1   2.0000     -88.961752     -2420.7723
   2   2.0000     -10.329048      -281.0677
   3   2.0000     -10.324673      -280.9486
   4   2.0000     -10.316376      -280.7228
   5   2.0000     -10.312412      -280.6150
   6   2.0000     -10.300475      -280.2902
   7   2.0000     -10.297537      -280.2102
   8   2.0000     -10.296295      -280.1764
   9   2.0000     -10.295900      -280.1657
  10   2.0000     -10.294142      -280.1178
  11   2.0000     -10.293009      -280.0870
  12   2.0000     -10.290915      -280.0300
  13   2.0000     -10.286502      -279.9099
  14   2.0000     -10.285990      -279.8960
  15   2.0000     -10.271387      -279.4987
  16   2.0000      -8.078039      -219.8146
  17   2.0000      -8.076365      -219.7691
  18   2.0000      -6.036699      -164.2669
  19   2.0000      -6.035014      -164.2211
  20   2.0000      -6.032381      -164.1494
  21   2.0000      -6.030836      -164.1074
  22   2.0000      -6.028540      -164.0449
  23   2.0000      -6.027028      -164.0038
  24   2.0000      -1.016688       -27.6655
  25   2.0000      -0.991270       -26.9738
  26   2.0000      -0.917267       -24.9601
  27   2.0000      -0.916361       -24.9354
  28   2.0000      -0.878351       -23.9011
  29   2.0000      -0.856026       -23.2937
  30   2.0000      -0.843164       -22.9437
  31   2.0000      -0.824165       -22.4267
  32   2.0000      -0.786936       -21.4136
  33   2.0000      -0.772220       -21.0132
  34   2.0000      -0.709923       -19.3180
  35   2.0000      -0.697042       -18.9675
  36   2.0000      -0.691710       -18.8224
  37   2.0000      -0.667867       -18.1736
  38   2.0000      -0.644418       -17.5355
  39   2.0000      -0.629279       -17.1235
  40   2.0000      -0.603846       -16.4315
  41   2.0000      -0.568773       -15.4771
  42   2.0000      -0.564937       -15.3727
  43   2.0000      -0.554372       -15.0852
  44   2.0000      -0.538239       -14.6462
  45   2.0000      -0.531696       -14.4682
  46   2.0000      -0.523226       -14.2377
  47   2.0000      -0.519137       -14.1264
  48   2.0000      -0.512370       -13.9423
  49   2.0000      -0.503214       -13.6931
  50   2.0000      -0.491688       -13.3795
  51   2.0000      -0.486300       -13.2329
  52   2.0000      -0.477243       -12.9864
  53   2.0000      -0.466479       -12.6935
  54   2.0000      -0.461445       -12.5565
  55   2.0000      -0.458625       -12.4798
  56   2.0000      -0.438848       -11.9417
  57   2.0000      -0.437587       -11.9073
  58   2.0000      -0.428016       -11.6469
  59   2.0000      -0.424645       -11.5552
  60   2.0000      -0.416800       -11.3417
  61   2.0000      -0.410278       -11.1642
  62   2.0000      -0.401188       -10.9169
  63   2.0000      -0.367124        -9.9899
  64   2.0000      -0.332950        -9.0600
  65   2.0000      -0.327019        -8.8986
  66   2.0000      -0.290084        -7.8936
  67   0.0000       0.025576         0.6959
  68   0.0000       0.090275         2.4565
  69   0.0000       0.102881         2.7995
  70   0.0000       0.114711         3.1214
  71   0.0000       0.122513         3.3338

MULLIKEN ATOMIC CHARGES
-----------------------
   0 S :    0.090797
   1 C :   -0.125088
   2 C :   -0.052390
   3 C :    0.014090
   4 C :   -0.097106
   5 H :   -0.047897
   6 C :    0.043056
   7 H :    0.011833
   8 H :    0.044206
   9 C :   -0.104253
  10 H :    0.043037
  11 H :    0.030649
  12 C :   -0.027536
  13 H :    0.033732
  14 H :    0.021771
  15 H :    0.039432
  16 S :    0.094107
  17 C :   -0.080419
  18 C :   -0.033209
  19 C :   -0.099300
  20 C :   -0.088198
  21 H :    0.018835
  22 C :    0.087503
  23 H :    0.009993
  24 H :    0.009636
  25 C :   -0.096617
  26 H :    0.036165
  27 H :    0.044862
  28 C :   -0.045019
  29 H :    0.055832
  30 H :    0.025574
  31 H :    0.025042
  32 H :    0.051858
  33 H :    0.065022
Sum of atomic charges:   -0.0000000

LOEWDIN ATOMIC CHARGES
----------------------
   0 S :    0.386649
   1 C :   -0.189615
   2 C :   -0.069344
   3 C :   -0.064949
   4 C :   -0.172443
   5 H :    0.014859
   6 C :   -0.034603
   7 H :    0.025753
   8 H :    0.037016
   9 C :   -0.049528
  10 H :    0.027776
  11 H :    0.027837
  12 C :   -0.071117
  13 H :    0.030885
  14 H :    0.019610
  15 H :    0.035661
  16 S :    0.412092
  17 C :   -0.188848
  18 C :   -0.067605
  19 C :   -0.059934
  20 C :   -0.190747
  21 H :    0.030709
  22 C :   -0.034721
  23 H :    0.028587
  24 H :    0.026533
  25 C :   -0.047807
  26 H :    0.029097
  27 H :    0.030495
  28 C :   -0.070070
  29 H :    0.032780
  30 H :    0.024116
  31 H :    0.024597
  32 H :    0.031121
  33 H :    0.035156

  Mayer bond orders larger than 0.100000
B(  0-S ,  1-C ) :   1.1383 B(  0-S ,  4-C ) :   1.1270 B(  1-C ,  2-C ) :   1.6046
B(  1-C , 32-H ) :   0.9687 B(  2-C ,  3-C ) :   1.2314 B(  2-C ,  6-C ) :   1.0249
B(  3-C ,  4-C ) :   1.5980 B(  3-C ,  5-H ) :   1.0005 B(  4-C , 20-C ) :   1.0646
B(  6-C ,  7-H ) :   0.9468 B(  6-C ,  8-H ) :   0.9294 B(  6-C ,  9-C ) :   1.0754
B(  9-C , 10-H ) :   0.9481 B(  9-C , 11-H ) :   0.9539 B(  9-C , 12-C ) :   1.0852
B( 12-C , 13-H ) :   0.9712 B( 12-C , 14-H ) :   0.9653 B( 12-C , 15-H ) :   0.9680
B( 16-S , 17-C ) :   1.1442 B( 16-S , 20-C ) :   1.1267 B( 17-C , 18-C ) :   1.6164
B( 17-C , 33-H ) :   0.9711 B( 18-C , 19-C ) :   1.2181 B( 18-C , 21-H ) :   0.9905
B( 19-C , 20-C ) :   1.6454 B( 19-C , 22-C ) :   1.0527 B( 22-C , 23-H ) :   0.9281
B( 22-C , 24-H ) :   0.9118 B( 22-C , 25-C ) :   1.0597 B( 25-C , 26-H ) :   0.9529
B( 25-C , 27-H ) :   0.9540 B( 25-C , 28-C ) :   1.0771 B( 28-C , 29-H ) :   0.9749
B( 28-C , 30-H ) :   0.9737 B( 28-C , 31-H ) :   0.9712

Dispersion correction           -0.014946804
FINAL SINGLE POINT ENERGY     -1339.881706176446

DIPOLE MOMENT
-------------
                                X             Y             Z
Electronic contribution:    -20.46654      -5.27330      22.11949
Nuclear contribution   :     20.90136       5.20168     -22.71628
                        -----------------------------------------
Total Dipole Moment    :      0.43482      -0.07162      -0.59679
                        -----------------------------------------
Magnitude (a.u.)       :      0.74186
Magnitude (Debye)      :      1.88566

Rotational constants in cm-1:     0.016864     0.010922     0.007171
Rotational constants in MHz :   505.566350   327.422984   214.970812

                             ****ORCA TERMINATED NORMALLY****
TOTAL RUN TIME: 0 days 0 hours 0 minutes 30 seconds 759 msec
