                         Program Version 4.2.1 -  RELEASE  -
|  1> ! wB97X-D3 SP def2-SVP
|  2> %pal
|  3> nprocs 16
|  4> end
|  5>
|  6> * xyz 0 1
|  7> S 	 -3.88647 	 -10.7925 	 70.1257
|  8> C 	 -4.2962 	 -11.6817 	 68.6645
|  9> C 	 -4.30947 	 -10.8886 	 67.5173
| 10> C 	 -4.21459 	 -9.50768 	 67.8625
| 11> C 	 -3.84043 	 -9.29566 	 69.2065
| 12> H 	 -4.24154 	 -8.6828 	 67.149
| 13> C 	 -4.5155 	 -11.444 	 66.1159
| 14> H 	 -3.80602 	 -12.259 	 66.0641
| 15> H 	 -4.44253 	 -10.6019 	 65.409
| 16> C 	 -5.96559 	 -12.0578 	 65.8417
| 17> H 	 -5.89165 	 -12.9965 	 65.3751
| 18> H 	 -6.59509 	 -12.2178 	 66.7194
| 19> C 	 -6.86157 	 -11.1763 	 64.9749
| 20> H 	 -7.77968 	 -11.6105 	 64.8657
| 21> H 	 -7.08151 	 -10.1923 	 65.396
| 22> H 	 -6.54077 	 -10.8852 	 63.975
| 23> S 	 -4.59125 	 -7.78856 	 71.3897
| 24> C 	 -3.62913 	 -6.38823 	 71.7842
| 25> C 	 -2.75347 	 -6.0962 	 70.7404
| 26> C 	 -2.7173 	 -7.01132 	 69.7026
| 27> C 	 -3.63167 	 -8.06946 	 69.8976
| 28> H 	 -2.17003 	 -5.17968 	 70.6737
| 29> C 	 -1.83146 	 -6.81257 	 68.5135
| 30> H 	 -1.82978 	 -7.73068 	 67.9309
| 31> H 	 -0.835821 	 -6.5674 	 68.8706
| 32> C 	 -2.34474 	 -5.74198 	 67.5265
| 33> H 	 -2.37952 	 -4.71715 	 68.0389
| 34> H 	 -3.40819 	 -5.86808 	 67.4001
| 35> C 	 -1.56387 	 -5.67189 	 66.2122
| 36> H 	 -1.59709 	 -6.66403 	 65.7652
| 37> H 	 -0.50366 	 -5.40104 	 66.4959
| 38> H 	 -1.83298 	 -4.93004 	 65.4671
| 39> H 	 -4.20803 	 -12.7637 	 68.5417
| 40> H 	 -3.73497 	 -5.66098 	 72.5646
| 41> *
| 42>
| 43>                          ****END OF INPUT****

CARTESIAN COORDINATES (ANGSTROEM)
---------------------------------
  S     -3.886470  -10.792500   70.125700
  C     -4.296200  -11.681700   68.664500
  C     -4.309470  -10.888600   67.517300
  C     -4.214590   -9.507680   67.862500
  C     -3.840430   -9.295660   69.206500
  H     -4.241540   -8.682800   67.149000
  C     -4.515500  -11.444000   66.115900
  H     -3.806020  -12.259000   66.064100
  H     -4.442530  -10.601900   65.409000
  C     -5.965590  -12.057800   65.841700
  H     -5.891650  -12.996500   65.375100
  H     -6.595090  -12.217800   66.719400
  C     -6.861570  -11.176300   64.974900
  H     -7.779680  -11.610500   64.865700
  H     -7.081510  -10.192300   65.396000
  H     -6.540770  -10.885200   63.975000
  S     -4.591250   -7.788560   71.389700
  C     -3.629130   -6.388230   71.784200
  C     -2.753470   -6.096200   70.740400
  C     -2.717300   -7.011320   69.702600
  C     -3.631670   -8.069460   69.897600
  H     -2.170030   -5.179680   70.673700
  C     -1.831460   -6.812570   68.513500
  H     -1.829780   -7.730680   67.930900
  H     -0.835821   -6.567400   68.870600
  C     -2.344740   -5.741980   67.526500
  H     -2.379520   -4.717150   68.038900
  H     -3.408190   -5.868080   67.400100
  C     -1.563870   -5.671890   66.212200
  H     -1.597090   -6.664030   65.765200
  H     -0.503660   -5.401040   66.495900
  H     -1.832980   -4.930040   65.467100
  H     -4.208030  -12.763700   68.541700
  H     -3.734970   -5.660980   72.564600

 Total Charge           Charge          ....    0
 Multiplicity           Mult            ....    1
 Number of Electrons    NEL             ....  134
 Basis Dimension        Dim             ....  322

ORBITAL ENERGIES
----------------

  NO   OCC          E(Eh)            E(eV)
   0   2.0000     -88.969865     -2420.9931
   1   2.0000     -88.969484     -2420.9827
   2   2.0000     -10.330227      -281.0998
   3   2.0000     -10.327558      -281.0272
   4   2.0000     -10.316369      -280.7227
   5   2.0000     -10.312018      -280.6043
   6   2.0000     -10.302446      -280.3438
   7   2.0000     -10.300538      -280.2919
   8   2.0000     -10.299356      -280.2597
   9   2.0000     -10.299131      -280.2536
  10   2.0000     -10.291214      -280.0382
  11   2.0000     -10.290870      -280.0288
  12   2.0000     -10.288167      -279.9553
  13   2.0000     -10.286352      -279.9059
  14   2.0000     -10.284585      -279.8578
  15   2.0000     -10.268639      -279.4239
  16   2.0000      -8.083989      -219.9765
  17   2.0000      -8.083158      -219.9539
  18   2.0000      -6.042480      -164.4242
  19   2.0000      -6.041687      -164.4027
  20   2.0000      -6.038575      -164.3180
  21   2.0000      -6.037762      -164.2959
  22   2.0000      -6.034799      -164.2152
  23   2.0000      -6.034008      -164.1937
  24   2.0000      -1.004397       -27.3310
  25   2.0000      -0.980483       -26.6803
  26   2.0000      -0.911395       -24.8003
  27   2.0000      -0.907628       -24.6978
  28   2.0000      -0.869549       -23.6616
  29   2.0000      -0.853796       -23.2330
  30   2.0000      -0.847772       -23.0690
  31   2.0000      -0.811623       -22.0854
  32   2.0000      -0.784878       -21.3576
  33   2.0000      -0.769018       -20.9261
  34   2.0000      -0.709212       -19.2986
  35   2.0000      -0.707034       -19.2394
  36   2.0000      -0.697430       -18.9780
  37   2.0000      -0.662515       -18.0280
  38   2.0000      -0.636099       -17.3091
  39   2.0000      -0.614485       -16.7210
  40   2.0000      -0.596216       -16.2239
  41   2.0000      -0.569535       -15.4978
  42   2.0000      -0.564849       -15.3703
  43   2.0000      -0.557074       -15.1588
  44   2.0000      -0.533394       -14.5144
  45   2.0000      -0.523510       -14.2454
  46   2.0000      -0.519028       -14.1235
  47   2.0000      -0.512459       -13.9447
  48   2.0000      -0.505891       -13.7660
  49   2.0000      -0.496709       -13.5161
  50   2.0000      -0.483746       -13.1634
  51   2.0000      -0.477893       -13.0041
  52   2.0000      -0.474132       -12.9018
  53   2.0000      -0.464196       -12.6314
  54   2.0000      -0.457712       -12.4550
  55   2.0000      -0.451316       -12.2809
  56   2.0000      -0.446242       -12.1429
  57   2.0000      -0.438461       -11.9311
  58   2.0000      -0.432995       -11.7824
  59   2.0000      -0.430332       -11.7099
  60   2.0000      -0.425971       -11.5912
  61   2.0000      -0.417740       -11.3673
  62   2.0000      -0.412500       -11.2247
  63   2.0000      -0.342621        -9.3232
  64   2.0000      -0.335772        -9.1368
  65   2.0000      -0.328546        -8.9402
  66   2.0000      -0.285171        -7.7599
  67   0.0000       0.022501         0.6123
  68   0.0000       0.060624         1.6496
  69   0.0000       0.106513         2.8984
  70   0.0000       0.118243         3.2175
  71   0.0000       0.129409         3.5214

MULLIKEN ATOMIC CHARGES
-----------------------
   0 S :    0.125267
   1 C :   -0.114384
   2 C :   -0.127063
   3 C :    0.039231
   4 C :   -0.168595
   5 H :    0.013353
   6 C :    0.088257
   7 H :    0.037516
   8 H :    0.031583
   9 C :   -0.047717
  10 H :    0.018673
  11 H :    0.037633
  12 C :   -0.046946
  13 H :    0.010426
  14 H :    0.020510
  15 H :    0.021330
  16 S :    0.116430
  17 C :   -0.071045
  18 C :   -0.054069
  19 C :   -0.012651
  20 C :   -0.185523
  21 H :    0.016051
  22 C :    0.095223
  23 H :    0.014963
  24 H :    0.027900
  25 C :   -0.107203
  26 H :    0.024374
  27 H :    0.023312
  28 C :   -0.035637
  29 H :    0.033166
  30 H :    0.033238
  31 H :    0.042259
  32 H :    0.049734
  33 H :    0.050404
Sum of atomic charges:   -0.0000000

LOEWDIN ATOMIC CHARGES
----------------------
   0 S :    0.412764
   1 C :   -0.206864
   2 C :   -0.061890
   3 C :   -0.062493
   4 C :   -0.195040
   5 H :    0.029889
   6 C :   -0.023478
   7 H :    0.036217
   8 H :    0.034974
   9 C :   -0.032849
  10 H :    0.017171
  11 H :    0.030983
  12 C :   -0.066048
  13 H :    0.015007
  14 H :    0.025211
  15 H :    0.020520
  16 S :    0.400950
  17 C :   -0.189245
  18 C :   -0.073654
  19 C :   -0.053018
  20 C :   -0.193292
  21 H :    0.030867
  22 C :   -0.025371
  23 H :    0.028592
  24 H :    0.030617
  25 C :   -0.048398
  26 H :    0.025441
  27 H :    0.018366
  28 C :   -0.068668
  29 H :    0.024783
  30 H :    0.032601
  31 H :    0.027792
  32 H :    0.027936
  33 H :    0.029627

  Mayer bond orders larger than 0.100000
B(  0-S ,  1-C ) :   1.1414 B(  0-S ,  4-C ) :   1.1593 B(  1-C ,  2-C ) :   1.5991
B(  1-C ,  4-C ) :   0.1048 B(  1-C , 32-H ) :   0.9580 B(  2-C ,  3-C ) :   1.2625
B(  2-C ,  6-C ) :   1.0283 B(  3-C ,  4-C ) :   1.5394 B(  3-C ,  5-H ) :   0.9851
B(  4-C , 20-C ) :   1.0760 B(  6-C ,  7-H ) :   0.9355 B(  6-C ,  8-H ) :   0.9499
B(  6-C ,  9-C ) :   1.0395 B(  9-C , 10-H ) :   0.9589 B(  9-C , 11-H ) :   0.9620
B(  9-C , 12-C ) :   1.0903 B( 12-C , 13-H ) :   0.9713 B( 12-C , 14-H ) :   0.9728
B( 12-C , 15-H ) :   0.9739 B( 16-S , 17-C ) :   1.1549 B( 16-S , 20-C ) :   1.1419
B( 17-C , 18-C ) :   1.5744 B( 17-C , 20-C ) :   0.1121 B( 17-C , 33-H ) :   0.9667
B( 18-C , 19-C ) :   1.2950 B( 18-C , 21-H ) :   0.9807 B( 19-C , 20-C ) :   1.5373
B( 19-C , 22-C ) :   1.0598 B( 22-C , 23-H ) :   0.9263 B( 22-C , 24-H ) :   0.9280
B( 22-C , 25-C ) :   1.0537 B( 25-C , 26-H ) :   0.9518 B( 25-C , 27-H ) :   0.9538
B( 25-C , 28-C ) :   1.0760 B( 28-C , 29-H ) :   0.9745 B( 28-C , 30-H ) :   0.9723
B( 28-C , 31-H ) :   0.9750

Dispersion correction           -0.013891936
FINAL SINGLE POINT ENERGY     -1339.870507440809

DIPOLE MOMENT
-------------
                                X             Y             Z
Electronic contribution:     -0.79074      -3.89873      28.51508
Nuclear contribution   :      0.91449       4.06859     -29.16649
                        -----------------------------------------
Total Dipole Moment    :      0.12375       0.16987      -0.65141
                        -----------------------------------------
Magnitude (a.u.)       :      0.68447
Magnitude (Debye)      :      1.73979

Rotational constants in cm-1:     0.017443     0.008546     0.006473
Rotational constants in MHz :   522.919028   256.200432   194.059062

                             ****ORCA TERMINATED NORMALLY****
TOTAL RUN TIME: 0 days 0 hours 0 minutes 32 seconds 720 msec
