                         Program Version 4.2.1 -  RELEASE  -
|  1> ! wB97X-D3 SP def2-SVP
|  2> %pal
|  3> nprocs 16
|  4> end
|  5>
|  6> * xyz 0 1
|  7> S 	 45.097 	 2.46695 	 85.0028
|  8> C 	 45.8344 	 3.15366 	 83.6068
|  9> C 	 47.1819 	 3.3306 	 83.8107
| 10> C 	 47.5534 	 3.07625 	 85.2158
| 11> C 	 46.4858 	 2.73293 	 86.0274
| 12> H 	 48.5801 	 3.17719 	 85.6556
| 13> C 	 48.0925 	 3.96509 	 82.7671
| 14> H 	 48.6217 	 4.76997 	 83.2409
| 15> H 	 47.3976 	 4.29773 	 81.9975
| 16> C 	 49.0888 	 3.01209 	 82.028
| 17> H 	 49.6344 	 2.42201 	 82.8187
| 18> H 	 48.4753 	 2.25379 	 81.5005
| 19> C 	 50.1055 	 3.70442 	 81.0042
| 20> H 	 50.948 	 4.22543 	 81.4858
| 21> H 	 50.5798 	 2.96915 	 80.3707
| 22> H 	 49.3725 	 4.41237 	 80.5627
| 23> S 	 45.9066 	 3.85549 	 88.3602
| 24> C 	 46.2921 	 3.02834 	 89.861
| 25> C 	 46.6639 	 1.7108 	 89.6176
| 26> C 	 46.8141 	 1.40067 	 88.2263
| 27> C 	 46.5332 	 2.49457 	 87.461
| 28> H 	 46.9699 	 1.00512 	 90.34
| 29> C 	 47.4397 	 0.0502655 	 87.8575
| 30> H 	 47.9932 	 0.0217193 	 86.8478
| 31> H 	 46.6928 	 -0.714792 	 87.9134
| 32> C 	 48.6413 	 -0.390868 	 88.7424
| 33> H 	 48.328 	 -0.478312 	 89.8535
| 34> H 	 49.3011 	 0.483607 	 88.7633
| 35> C 	 49.2017 	 -1.69303 	 88.2119
| 36> H 	 48.486 	 -2.54938 	 88.264
| 37> H 	 50.079 	 -1.99461 	 88.7593
| 38> H 	 49.6222 	 -1.57416 	 87.1954
| 39> H 	 45.3543 	 3.38047 	 82.6373
| 40> H 	 46.2158 	 3.41873 	 90.8254
| 41> *
| 42>
| 43>                          ****END OF INPUT****

CARTESIAN COORDINATES (ANGSTROEM)
---------------------------------
  S     45.097000    2.466950   85.002800
  C     45.834400    3.153660   83.606800
  C     47.181900    3.330600   83.810700
  C     47.553400    3.076250   85.215800
  C     46.485800    2.732930   86.027400
  H     48.580100    3.177190   85.655600
  C     48.092500    3.965090   82.767100
  H     48.621700    4.769970   83.240900
  H     47.397600    4.297730   81.997500
  C     49.088800    3.012090   82.028000
  H     49.634400    2.422010   82.818700
  H     48.475300    2.253790   81.500500
  C     50.105500    3.704420   81.004200
  H     50.948000    4.225430   81.485800
  H     50.579800    2.969150   80.370700
  H     49.372500    4.412370   80.562700
  S     45.906600    3.855490   88.360200
  C     46.292100    3.028340   89.861000
  C     46.663900    1.710800   89.617600
  C     46.814100    1.400670   88.226300
  C     46.533200    2.494570   87.461000
  H     46.969900    1.005120   90.340000
  C     47.439700    0.050265   87.857500
  H     47.993200    0.021719   86.847800
  H     46.692800   -0.714792   87.913400
  C     48.641300   -0.390868   88.742400
  H     48.328000   -0.478312   89.853500
  H     49.301100    0.483607   88.763300
  C     49.201700   -1.693030   88.211900
  H     48.486000   -2.549380   88.264000
  H     50.079000   -1.994610   88.759300
  H     49.622200   -1.574160   87.195400
  H     45.354300    3.380470   82.637300
  H     46.215800    3.418730   90.825400

 Total Charge           Charge          ....    0
 Multiplicity           Mult            ....    1
 Number of Electrons    NEL             ....  134
 Basis Dimension        Dim             ....  322

ORBITAL ENERGIES
----------------

  NO   OCC          E(Eh)            E(eV)
   0   2.0000     -88.965891     -2420.8850
   1   2.0000     -88.961087     -2420.7542
   2   2.0000     -10.325583      -280.9734
   3   2.0000     -10.323673      -280.9214
   4   2.0000     -10.316323      -280.7214
   5   2.0000     -10.313505      -280.6447
   6   2.0000     -10.303840      -280.3817
   7   2.0000     -10.301991      -280.3314
   8   2.0000     -10.299452      -280.2623
   9   2.0000     -10.298194      -280.2281
  10   2.0000     -10.296262      -280.1755
  11   2.0000     -10.294968      -280.1403
  12   2.0000     -10.292661      -280.0775
  13   2.0000     -10.290831      -280.0278
  14   2.0000     -10.287321      -279.9322
  15   2.0000     -10.285168      -279.8737
  16   2.0000      -8.080717      -219.8875
  17   2.0000      -8.076469      -219.7719
  18   2.0000      -6.039301      -164.3377
  19   2.0000      -6.035216      -164.2266
  20   2.0000      -6.035008      -164.2209
  21   2.0000      -6.031377      -164.1221
  22   2.0000      -6.030915      -164.1095
  23   2.0000      -6.027103      -164.0058
  24   2.0000      -1.007277       -27.4094
  25   2.0000      -0.984451       -26.7883
  26   2.0000      -0.911043       -24.7908
  27   2.0000      -0.902494       -24.5581
  28   2.0000      -0.868247       -23.6262
  29   2.0000      -0.852208       -23.1898
  30   2.0000      -0.838832       -22.8258
  31   2.0000      -0.812859       -22.1190
  32   2.0000      -0.780184       -21.2299
  33   2.0000      -0.770217       -20.9587
  34   2.0000      -0.704044       -19.1580
  35   2.0000      -0.696986       -18.9659
  36   2.0000      -0.690381       -18.7862
  37   2.0000      -0.665641       -18.1130
  38   2.0000      -0.638250       -17.3677
  39   2.0000      -0.612834       -16.6761
  40   2.0000      -0.602640       -16.3987
  41   2.0000      -0.569535       -15.4978
  42   2.0000      -0.567553       -15.4439
  43   2.0000      -0.556184       -15.1345
  44   2.0000      -0.528559       -14.3828
  45   2.0000      -0.522306       -14.2127
  46   2.0000      -0.517272       -14.0757
  47   2.0000      -0.511790       -13.9265
  48   2.0000      -0.503676       -13.7057
  49   2.0000      -0.496038       -13.4979
  50   2.0000      -0.489088       -13.3088
  51   2.0000      -0.479270       -13.0416
  52   2.0000      -0.474570       -12.9137
  53   2.0000      -0.464744       -12.6463
  54   2.0000      -0.456926       -12.4336
  55   2.0000      -0.452676       -12.3179
  56   2.0000      -0.444357       -12.0916
  57   2.0000      -0.430307       -11.7093
  58   2.0000      -0.428801       -11.6683
  59   2.0000      -0.426383       -11.6025
  60   2.0000      -0.418641       -11.3918
  61   2.0000      -0.412251       -11.2179
  62   2.0000      -0.408920       -11.1273
  63   2.0000      -0.335346        -9.1252
  64   2.0000      -0.325101        -8.8465
  65   2.0000      -0.320624        -8.7246
  66   2.0000      -0.314350        -8.5539
  67   0.0000       0.047159         1.2833
  68   0.0000       0.055562         1.5119
  69   0.0000       0.111434         3.0323
  70   0.0000       0.119369         3.2482
  71   0.0000       0.133264         3.6263

MULLIKEN ATOMIC CHARGES
-----------------------
   0 S :    0.121851
   1 C :   -0.127976
   2 C :   -0.103259
   3 C :    0.034741
   4 C :   -0.162273
   5 H :    0.029799
   6 C :    0.071673
   7 H :    0.033931
   8 H :    0.013349
   9 C :   -0.120661
  10 H :    0.028855
  11 H :    0.031579
  12 C :   -0.048601
  13 H :    0.040194
  14 H :    0.044764
  15 H :    0.041840
  16 S :    0.117762
  17 C :   -0.053664
  18 C :   -0.026283
  19 C :    0.027575
  20 C :   -0.229272
  21 H :   -0.001422
  22 C :    0.057363
  23 H :    0.042399
  24 H :    0.030968
  25 C :   -0.143876
  26 H :    0.038241
  27 H :    0.039257
  28 C :   -0.033088
  29 H :    0.045470
  30 H :    0.027989
  31 H :    0.034828
  32 H :    0.061040
  33 H :    0.034908
Sum of atomic charges:    0.0000000

LOEWDIN ATOMIC CHARGES
----------------------
   0 S :    0.411759
   1 C :   -0.208936
   2 C :   -0.067922
   3 C :   -0.063981
   4 C :   -0.211408
   5 H :    0.038011
   6 C :   -0.031448
   7 H :    0.028326
   8 H :    0.027628
   9 C :   -0.046913
  10 H :    0.019897
  11 H :    0.024211
  12 C :   -0.068493
  13 H :    0.027137
  14 H :    0.027626
  15 H :    0.032125
  16 S :    0.414841
  17 C :   -0.169405
  18 C :   -0.061937
  19 C :   -0.053877
  20 C :   -0.201097
  21 H :    0.021136
  22 C :   -0.031506
  23 H :    0.042524
  24 H :    0.027310
  25 C :   -0.050926
  26 H :    0.024162
  27 H :    0.025330
  28 C :   -0.069706
  29 H :    0.034165
  30 H :    0.026055
  31 H :    0.030022
  32 H :    0.037703
  33 H :    0.017589

  Mayer bond orders larger than 0.100000
B(  0-S ,  1-C ) :   1.1404 B(  0-S ,  4-C ) :   1.1448 B(  1-C ,  2-C ) :   1.6289
B(  1-C , 32-H ) :   0.9599 B(  2-C ,  3-C ) :   1.2135 B(  2-C ,  6-C ) :   1.0326
B(  3-C ,  4-C ) :   1.6055 B(  3-C ,  5-H ) :   0.9871 B(  4-C , 20-C ) :   1.0083
B(  6-C ,  7-H ) :   0.9462 B(  6-C ,  8-H ) :   0.9365 B(  6-C ,  9-C ) :   1.0544
B(  9-C , 10-H ) :   0.9619 B(  9-C , 11-H ) :   0.9587 B(  9-C , 12-C ) :   1.0549
B( 12-C , 13-H ) :   0.9782 B( 12-C , 14-H ) :   0.9771 B( 12-C , 15-H ) :   0.9773
B( 16-S , 17-C ) :   1.1488 B( 16-S , 20-C ) :   1.1497 B( 17-C , 18-C ) :   1.6101
B( 17-C , 33-H ) :   0.9778 B( 18-C , 19-C ) :   1.2276 B( 18-C , 21-H ) :   0.9891
B( 19-C , 20-C ) :   1.6397 B( 19-C , 22-C ) :   1.0286 B( 22-C , 23-H ) :   0.9521
B( 22-C , 24-H ) :   0.9281 B( 22-C , 25-C ) :   1.0493 B( 25-C , 26-H ) :   0.9440
B( 25-C , 27-H ) :   0.9595 B( 25-C , 28-C ) :   1.0880 B( 28-C , 29-H ) :   0.9718
B( 28-C , 30-H ) :   0.9694 B( 28-C , 31-H ) :   0.9693

Dispersion correction           -0.013237792
FINAL SINGLE POINT ENERGY     -1339.867389797582

DIPOLE MOMENT
-------------
                                X             Y             Z
Electronic contribution:    -22.74048      11.69676      11.13412
Nuclear contribution   :     23.34159     -11.97826     -11.13569
                        -----------------------------------------
Total Dipole Moment    :      0.60111      -0.28149      -0.00158
                        -----------------------------------------
Magnitude (a.u.)       :      0.66376
Magnitude (Debye)      :      1.68714

Rotational constants in cm-1:     0.017472     0.007580     0.006102
Rotational constants in MHz :   523.794834   227.248105   182.944746

                             ****ORCA TERMINATED NORMALLY****
TOTAL RUN TIME: 0 days 0 hours 0 minutes 28 seconds 467 msec
