                         Program Version 4.2.1 -  RELEASE  -
|  1> ! wB97X-D3 SP def2-SVP
|  2> %pal
|  3> nprocs 16
|  4> end
|  5>
|  6> * xyz 0 1
|  7> S 	 5.63901 	 -21.0098 	 86.7074
|  8> C 	 4.03515 	 -21.0021 	 85.8923
|  9> C 	 4.04839 	 -21.8879 	 84.7698
| 10> C 	 5.34175 	 -22.4398 	 84.5375
| 11> C 	 6.25559 	 -22.0817 	 85.4703
| 12> H 	 5.68066 	 -23.071 	 83.7263
| 13> C 	 2.92097 	 -22.1086 	 83.7466
| 14> H 	 3.11195 	 -21.7461 	 82.7843
| 15> H 	 2.0286 	 -21.4754 	 83.9394
| 16> C 	 2.4728 	 -23.5366 	 83.5576
| 17> H 	 3.27296 	 -24.2652 	 83.2815
| 18> H 	 2.15693 	 -23.944 	 84.5113
| 19> C 	 1.28612 	 -23.6308 	 82.6131
| 20> H 	 0.784775 	 -24.5856 	 82.6605
| 21> H 	 0.505758 	 -22.8721 	 82.8348
| 22> H 	 1.54556 	 -23.4341 	 81.5377
| 23> S 	 7.85426 	 -24.2534 	 85.8483
| 24> C 	 9.58452 	 -24.0363 	 86.0798
| 25> C 	 9.98552 	 -22.765 	 85.9786
| 26> C 	 8.8662 	 -21.8844 	 85.6974
| 27> C 	 7.62881 	 -22.5386 	 85.612
| 28> H 	 11.0414 	 -22.4707 	 85.9125
| 29> C 	 9.11983 	 -20.4794 	 85.3256
| 30> H 	 8.17981 	 -19.9633 	 85.2303
| 31> H 	 9.67462 	 -20.4693 	 84.4008
| 32> C 	 9.92572 	 -19.6413 	 86.3329
| 33> H 	 10.8384 	 -20.1343 	 86.5832
| 34> H 	 9.3934 	 -19.7515 	 87.2887
| 35> C 	 10.072 	 -18.1509 	 85.8957
| 36> H 	 10.886 	 -18.1989 	 85.2188
| 37> H 	 10.4965 	 -17.6472 	 86.7892
| 38> H 	 9.21929 	 -17.5532 	 85.5374
| 39> H 	 3.09236 	 -20.5264 	 86.1425
| 40> H 	 10.2149 	 -24.8903 	 86.3261
| 41> *
| 42>
| 43>                          ****END OF INPUT****

CARTESIAN COORDINATES (ANGSTROEM)
---------------------------------
  S      5.639010  -21.009800   86.707400
  C      4.035150  -21.002100   85.892300
  C      4.048390  -21.887900   84.769800
  C      5.341750  -22.439800   84.537500
  C      6.255590  -22.081700   85.470300
  H      5.680660  -23.071000   83.726300
  C      2.920970  -22.108600   83.746600
  H      3.111950  -21.746100   82.784300
  H      2.028600  -21.475400   83.939400
  C      2.472800  -23.536600   83.557600
  H      3.272960  -24.265200   83.281500
  H      2.156930  -23.944000   84.511300
  C      1.286120  -23.630800   82.613100
  H      0.784775  -24.585600   82.660500
  H      0.505758  -22.872100   82.834800
  H      1.545560  -23.434100   81.537700
  S      7.854260  -24.253400   85.848300
  C      9.584520  -24.036300   86.079800
  C      9.985520  -22.765000   85.978600
  C      8.866200  -21.884400   85.697400
  C      7.628810  -22.538600   85.612000
  H     11.041400  -22.470700   85.912500
  C      9.119830  -20.479400   85.325600
  H      8.179810  -19.963300   85.230300
  H      9.674620  -20.469300   84.400800
  C      9.925720  -19.641300   86.332900
  H     10.838400  -20.134300   86.583200
  H      9.393400  -19.751500   87.288700
  C     10.072000  -18.150900   85.895700
  H     10.886000  -18.198900   85.218800
  H     10.496500  -17.647200   86.789200
  H      9.219290  -17.553200   85.537400
  H      3.092360  -20.526400   86.142500
  H     10.214900  -24.890300   86.326100

 Total Charge           Charge          ....    0
 Multiplicity           Mult            ....    1
 Number of Electrons    NEL             ....  134
 Basis Dimension        Dim             ....  322

ORBITAL ENERGIES
----------------

  NO   OCC          E(Eh)            E(eV)
   0   2.0000     -88.971576     -2421.0397
   1   2.0000     -88.961965     -2420.7781
   2   2.0000     -10.326914      -281.0096
   3   2.0000     -10.324771      -280.9513
   4   2.0000     -10.322358      -280.8857
   5   2.0000     -10.315864      -280.7089
   6   2.0000     -10.309168      -280.5267
   7   2.0000     -10.302262      -280.3388
   8   2.0000     -10.293358      -280.0965
   9   2.0000     -10.291173      -280.0371
  10   2.0000     -10.290475      -280.0181
  11   2.0000     -10.285361      -279.8789
  12   2.0000     -10.282740      -279.8076
  13   2.0000     -10.281467      -279.7729
  14   2.0000     -10.279795      -279.7275
  15   2.0000     -10.279497      -279.7193
  16   2.0000      -8.084918      -220.0018
  17   2.0000      -8.077053      -219.7878
  18   2.0000      -6.043592      -164.4545
  19   2.0000      -6.039605      -164.3460
  20   2.0000      -6.035585      -164.2366
  21   2.0000      -6.035578      -164.2364
  22   2.0000      -6.031554      -164.1269
  23   2.0000      -6.027727      -164.0228
  24   2.0000      -1.006013       -27.3750
  25   2.0000      -0.980747       -26.6875
  26   2.0000      -0.914384       -24.8817
  27   2.0000      -0.909133       -24.7388
  28   2.0000      -0.870642       -23.6914
  29   2.0000      -0.850257       -23.1367
  30   2.0000      -0.844140       -22.9702
  31   2.0000      -0.816462       -22.2171
  32   2.0000      -0.783017       -21.3070
  33   2.0000      -0.767647       -20.8887
  34   2.0000      -0.707355       -19.2481
  35   2.0000      -0.700555       -19.0631
  36   2.0000      -0.692672       -18.8486
  37   2.0000      -0.663586       -18.0571
  38   2.0000      -0.639909       -17.4128
  39   2.0000      -0.619689       -16.8626
  40   2.0000      -0.601370       -16.3641
  41   2.0000      -0.570759       -15.5311
  42   2.0000      -0.566722       -15.4213
  43   2.0000      -0.556190       -15.1347
  44   2.0000      -0.527542       -14.3551
  45   2.0000      -0.520248       -14.1567
  46   2.0000      -0.516438       -14.0530
  47   2.0000      -0.508211       -13.8291
  48   2.0000      -0.503152       -13.6915
  49   2.0000      -0.497270       -13.5314
  50   2.0000      -0.491977       -13.3874
  51   2.0000      -0.482331       -13.1249
  52   2.0000      -0.469586       -12.7781
  53   2.0000      -0.465081       -12.6555
  54   2.0000      -0.458519       -12.4769
  55   2.0000      -0.449703       -12.2370
  56   2.0000      -0.444980       -12.1085
  57   2.0000      -0.442761       -12.0481
  58   2.0000      -0.428528       -11.6608
  59   2.0000      -0.426651       -11.6098
  60   2.0000      -0.417939       -11.3727
  61   2.0000      -0.412667       -11.2292
  62   2.0000      -0.410105       -11.1595
  63   2.0000      -0.344880        -9.3847
  64   2.0000      -0.336429        -9.1547
  65   2.0000      -0.323784        -8.8106
  66   2.0000      -0.295817        -8.0496
  67   0.0000       0.035079         0.9545
  68   0.0000       0.067580         1.8389
  69   0.0000       0.102412         2.7868
  70   0.0000       0.113442         3.0869
  71   0.0000       0.130858         3.5608

MULLIKEN ATOMIC CHARGES
-----------------------
   0 S :    0.126970
   1 C :   -0.110998
   2 C :   -0.062265
   3 C :    0.027272
   4 C :   -0.152738
   5 H :    0.016065
   6 C :    0.069143
   7 H :    0.013834
   8 H :    0.007876
   9 C :   -0.079718
  10 H :    0.037251
  11 H :    0.021034
  12 C :   -0.066351
  13 H :    0.036083
  14 H :    0.026363
  15 H :    0.034972
  16 S :    0.100726
  17 C :   -0.095488
  18 C :   -0.017379
  19 C :   -0.047269
  20 C :   -0.158926
  21 H :    0.036060
  22 C :    0.084384
  23 H :    0.013066
  24 H :    0.030376
  25 C :   -0.113065
  26 H :    0.012936
  27 H :    0.020015
  28 C :   -0.029045
  29 H :    0.022781
  30 H :    0.033985
  31 H :    0.055171
  32 H :    0.045915
  33 H :    0.060965
Sum of atomic charges:    0.0000000

LOEWDIN ATOMIC CHARGES
----------------------
   0 S :    0.401158
   1 C :   -0.193349
   2 C :   -0.050492
   3 C :   -0.065737
   4 C :   -0.190533
   5 H :    0.035351
   6 C :   -0.034929
   7 H :    0.023935
   8 H :    0.031995
   9 C :   -0.046754
  10 H :    0.028535
  11 H :    0.022958
  12 C :   -0.070254
  13 H :    0.025935
  14 H :    0.026320
  15 H :    0.027612
  16 S :    0.400153
  17 C :   -0.172626
  18 C :   -0.075953
  19 C :   -0.053580
  20 C :   -0.208299
  21 H :    0.039177
  22 C :   -0.034910
  23 H :    0.024198
  24 H :    0.030869
  25 C :   -0.039944
  26 H :    0.014885
  27 H :    0.021393
  28 C :   -0.065215
  29 H :    0.021324
  30 H :    0.033288
  31 H :    0.032920
  32 H :    0.030551
  33 H :    0.030017

  Mayer bond orders larger than 0.100000
B(  0-S ,  1-C ) :   1.1220 B(  0-S ,  4-C ) :   1.1371 B(  1-C ,  2-C ) :   1.6268
B(  1-C , 32-H ) :   0.9649 B(  2-C ,  3-C ) :   1.2061 B(  2-C ,  6-C ) :   1.0234
B(  3-C ,  4-C ) :   1.6114 B(  3-C ,  5-H ) :   0.9943 B(  4-C , 20-C ) :   1.0242
B(  6-C ,  7-H ) :   0.9452 B(  6-C ,  8-H ) :   0.9395 B(  6-C ,  9-C ) :   1.0530
B(  9-C , 10-H ) :   0.9531 B(  9-C , 11-H ) :   0.9525 B(  9-C , 12-C ) :   1.0869
B( 12-C , 13-H ) :   0.9742 B( 12-C , 14-H ) :   0.9722 B( 12-C , 15-H ) :   0.9736
B( 16-S , 17-C ) :   1.1517 B( 16-S , 20-C ) :   1.1270 B( 17-C , 18-C ) :   1.6360
B( 17-C , 33-H ) :   0.9629 B( 18-C , 19-C ) :   1.2078 B( 18-C , 21-H ) :   0.9854
B( 19-C , 20-C ) :   1.5992 B( 19-C , 22-C ) :   1.0720 B( 22-C , 23-H ) :   0.9285
B( 22-C , 24-H ) :   0.9333 B( 22-C , 25-C ) :   1.0524 B( 25-C , 26-H ) :   0.9560
B( 25-C , 27-H ) :   0.9573 B( 25-C , 28-C ) :   1.0696 B( 28-C , 29-H ) :   0.9751
B( 28-C , 30-H ) :   0.9730 B( 28-C , 31-H ) :   0.9770

Dispersion correction           -0.013631525
FINAL SINGLE POINT ENERGY     -1339.878109581043

DIPOLE MOMENT
-------------
                                X             Y             Z
Electronic contribution:      5.85588      -9.01875      11.05795
Nuclear contribution   :     -5.76002       9.12701     -11.40736
                        -----------------------------------------
Total Dipole Moment    :      0.09586       0.10826      -0.34941
                        -----------------------------------------
Magnitude (a.u.)       :      0.37815
Magnitude (Debye)      :      0.96118

Rotational constants in cm-1:     0.021825     0.007246     0.006017
Rotational constants in MHz :   654.285485   217.219944   180.372241

                             ****ORCA TERMINATED NORMALLY****
TOTAL RUN TIME: 0 days 0 hours 0 minutes 30 seconds 415 msec
