                         Program Version 4.2.1 -  RELEASE  -
|  1> ! wB97X-D3 SP def2-SVP
|  2> %pal
|  3> nprocs 16
|  4> end
|  5>
|  6> * xyz 0 1
|  7> S 	 -37.6656 	 30.2646 	 81.9959
|  8> C 	 -36.851 	 30.6536 	 80.491
|  9> C 	 -37.6623 	 31.1894 	 79.5753
| 10> C 	 -38.9739 	 31.3918 	 80.0781
| 11> C 	 -39.1713 	 30.8527 	 81.3074
| 12> H 	 -39.8367 	 31.8262 	 79.5651
| 13> C 	 -37.2268 	 31.7074 	 78.2917
| 14> H 	 -36.1203 	 31.843 	 78.3296
| 15> H 	 -37.6438 	 32.7094 	 78.0667
| 16> C 	 -37.4666 	 30.6741 	 77.2315
| 17> H 	 -36.6727 	 29.9607 	 77.2668
| 18> H 	 -38.4233 	 30.1286 	 77.2116
| 19> C 	 -37.44 	 31.2862 	 75.8251
| 20> H 	 -36.4901 	 31.8597 	 75.6485
| 21> H 	 -37.5428 	 30.6488 	 75.0225
| 22> H 	 -38.3087 	 31.9535 	 75.7644
| 23> S 	 -40.5153 	 31.6521 	 83.7163
| 24> C 	 -42.1852 	 31.1586 	 83.8009
| 25> C 	 -42.6042 	 30.3852 	 82.7818
| 26> C 	 -41.6158 	 30.2957 	 81.7972
| 27> C 	 -40.4132 	 30.8545 	 82.1019
| 28> H 	 -43.5715 	 29.8685 	 82.8831
| 29> C 	 -41.9036 	 29.5978 	 80.4772
| 30> H 	 -41.6611 	 28.4905 	 80.6177
| 31> H 	 -41.0555 	 29.8673 	 79.7633
| 32> C 	 -43.3388 	 29.7419 	 79.8256
| 33> H 	 -43.4212 	 30.8384 	 79.5707
| 34> H 	 -44.1673 	 29.4451 	 80.4616
| 35> C 	 -43.4139 	 28.8951 	 78.602
| 36> H 	 -43.0718 	 27.8549 	 78.7237
| 37> H 	 -42.8305 	 29.3992 	 77.8082
| 38> H 	 -44.4249 	 28.9636 	 78.22
| 39> H 	 -35.7824 	 30.6689 	 80.3839
| 40> H 	 -42.7559 	 31.3214 	 84.7049
| 41> *
| 42>
| 43>                          ****END OF INPUT****

CARTESIAN COORDINATES (ANGSTROEM)
---------------------------------
  S    -37.665600   30.264600   81.995900
  C    -36.851000   30.653600   80.491000
  C    -37.662300   31.189400   79.575300
  C    -38.973900   31.391800   80.078100
  C    -39.171300   30.852700   81.307400
  H    -39.836700   31.826200   79.565100
  C    -37.226800   31.707400   78.291700
  H    -36.120300   31.843000   78.329600
  H    -37.643800   32.709400   78.066700
  C    -37.466600   30.674100   77.231500
  H    -36.672700   29.960700   77.266800
  H    -38.423300   30.128600   77.211600
  C    -37.440000   31.286200   75.825100
  H    -36.490100   31.859700   75.648500
  H    -37.542800   30.648800   75.022500
  H    -38.308700   31.953500   75.764400
  S    -40.515300   31.652100   83.716300
  C    -42.185200   31.158600   83.800900
  C    -42.604200   30.385200   82.781800
  C    -41.615800   30.295700   81.797200
  C    -40.413200   30.854500   82.101900
  H    -43.571500   29.868500   82.883100
  C    -41.903600   29.597800   80.477200
  H    -41.661100   28.490500   80.617700
  H    -41.055500   29.867300   79.763300
  C    -43.338800   29.741900   79.825600
  H    -43.421200   30.838400   79.570700
  H    -44.167300   29.445100   80.461600
  C    -43.413900   28.895100   78.602000
  H    -43.071800   27.854900   78.723700
  H    -42.830500   29.399200   77.808200
  H    -44.424900   28.963600   78.220000
  H    -35.782400   30.668900   80.383900
  H    -42.755900   31.321400   84.704900

 Total Charge           Charge          ....    0
 Multiplicity           Mult            ....    1
 Number of Electrons    NEL             ....  134
 Basis Dimension        Dim             ....  322

ORBITAL ENERGIES
----------------

  NO   OCC          E(Eh)            E(eV)
   0   2.0000     -88.963432     -2420.8181
   1   2.0000     -88.962157     -2420.7834
   2   2.0000     -10.326660      -281.0027
   3   2.0000     -10.323771      -280.9241
   4   2.0000     -10.313008      -280.6312
   5   2.0000     -10.305662      -280.4313
   6   2.0000     -10.298371      -280.2329
   7   2.0000     -10.297827      -280.2181
   8   2.0000     -10.292794      -280.0812
   9   2.0000     -10.290807      -280.0271
  10   2.0000     -10.290270      -280.0125
  11   2.0000     -10.289919      -280.0029
  12   2.0000     -10.288720      -279.9703
  13   2.0000     -10.282665      -279.8055
  14   2.0000     -10.277661      -279.6694
  15   2.0000     -10.273177      -279.5473
  16   2.0000      -8.077798      -219.8081
  17   2.0000      -8.077093      -219.7889
  18   2.0000      -6.036301      -164.2561
  19   2.0000      -6.035646      -164.2383
  20   2.0000      -6.032560      -164.1543
  21   2.0000      -6.031715      -164.1313
  22   2.0000      -6.028385      -164.0407
  23   2.0000      -6.027664      -164.0211
  24   2.0000      -1.009553       -27.4713
  25   2.0000      -0.990849       -26.9624
  26   2.0000      -0.923478       -25.1291
  27   2.0000      -0.905163       -24.6307
  28   2.0000      -0.872547       -23.7432
  29   2.0000      -0.856340       -23.3022
  30   2.0000      -0.848101       -23.0780
  31   2.0000      -0.819809       -22.3081
  32   2.0000      -0.781641       -21.2695
  33   2.0000      -0.766995       -20.8710
  34   2.0000      -0.703397       -19.1404
  35   2.0000      -0.699780       -19.0420
  36   2.0000      -0.695695       -18.9308
  37   2.0000      -0.653650       -17.7867
  38   2.0000      -0.645613       -17.5680
  39   2.0000      -0.621600       -16.9146
  40   2.0000      -0.597260       -16.2523
  41   2.0000      -0.575960       -15.6727
  42   2.0000      -0.565932       -15.3998
  43   2.0000      -0.564524       -15.3615
  44   2.0000      -0.532079       -14.4786
  45   2.0000      -0.527343       -14.3497
  46   2.0000      -0.523394       -14.2423
  47   2.0000      -0.512641       -13.9497
  48   2.0000      -0.505372       -13.7519
  49   2.0000      -0.495925       -13.4948
  50   2.0000      -0.491043       -13.3620
  51   2.0000      -0.478619       -13.0239
  52   2.0000      -0.466690       -12.6993
  53   2.0000      -0.460495       -12.5307
  54   2.0000      -0.455351       -12.3907
  55   2.0000      -0.451553       -12.2874
  56   2.0000      -0.445574       -12.1247
  57   2.0000      -0.434873       -11.8335
  58   2.0000      -0.431750       -11.7485
  59   2.0000      -0.421983       -11.4828
  60   2.0000      -0.420646       -11.4464
  61   2.0000      -0.419179       -11.4064
  62   2.0000      -0.416317       -11.3286
  63   2.0000      -0.343054        -9.3350
  64   2.0000      -0.331606        -9.0235
  65   2.0000      -0.330094        -8.9823
  66   2.0000      -0.298143        -8.1129
  67   0.0000       0.036704         0.9988
  68   0.0000       0.070946         1.9305
  69   0.0000       0.116831         3.1791
  70   0.0000       0.123479         3.3600
  71   0.0000       0.126649         3.4463

MULLIKEN ATOMIC CHARGES
-----------------------
   0 S :    0.102323
   1 C :   -0.111774
   2 C :   -0.067270
   3 C :    0.037049
   4 C :   -0.180333
   5 H :    0.019265
   6 C :    0.061776
   7 H :    0.019511
   8 H :    0.035606
   9 C :   -0.067823
  10 H :    0.021780
  11 H :    0.037222
  12 C :   -0.039695
  13 H :    0.027748
  14 H :    0.015173
  15 H :    0.024310
  16 S :    0.098934
  17 C :   -0.088468
  18 C :   -0.040666
  19 C :    0.006322
  20 C :   -0.156019
  21 H :    0.033744
  22 C :   -0.002347
  23 H :    0.039074
  24 H :    0.026358
  25 C :   -0.077652
  26 H :    0.043823
  27 H :    0.034619
  28 C :   -0.036660
  29 H :    0.042992
  30 H :    0.024821
  31 H :    0.028201
  32 H :    0.036087
  33 H :    0.051967
Sum of atomic charges:   -0.0000000

LOEWDIN ATOMIC CHARGES
----------------------
   0 S :    0.390820
   1 C :   -0.188250
   2 C :   -0.068736
   3 C :   -0.060509
   4 C :   -0.181201
   5 H :    0.035065
   6 C :   -0.031589
   7 H :    0.036578
   8 H :    0.033788
   9 C :   -0.036921
  10 H :    0.021029
  11 H :    0.027470
  12 C :   -0.062595
  13 H :    0.026314
  14 H :    0.011334
  15 H :    0.023578
  16 S :    0.377550
  17 C :   -0.169834
  18 C :   -0.079311
  19 C :   -0.056289
  20 C :   -0.192380
  21 H :    0.042403
  22 C :   -0.046763
  23 H :    0.037617
  24 H :    0.035211
  25 C :   -0.043686
  26 H :    0.033624
  27 H :    0.021231
  28 C :   -0.067931
  29 H :    0.028681
  30 H :    0.027442
  31 H :    0.025755
  32 H :    0.024617
  33 H :    0.025887

  Mayer bond orders larger than 0.100000
B(  0-S ,  1-C ) :   1.1183 B(  0-S ,  4-C ) :   1.1425 B(  1-C ,  2-C ) :   1.6595
B(  1-C , 32-H ) :   0.9610 B(  2-C ,  3-C ) :   1.2047 B(  2-C ,  6-C ) :   1.0366
B(  3-C ,  4-C ) :   1.6141 B(  3-C ,  5-H ) :   0.9904 B(  4-C , 20-C ) :   1.0233
B(  6-C ,  7-H ) :   0.9283 B(  6-C ,  8-H ) :   0.9516 B(  6-C ,  9-C ) :   1.0448
B(  9-C , 10-H ) :   0.9518 B(  9-C , 11-H ) :   0.9662 B(  9-C , 12-C ) :   1.0800
B( 12-C , 13-H ) :   0.9705 B( 12-C , 14-H ) :   0.9748 B( 12-C , 15-H ) :   0.9789
B( 16-S , 17-C ) :   1.1570 B( 16-S , 20-C ) :   1.1084 B( 17-C , 18-C ) :   1.6406
B( 17-C , 33-H ) :   0.9595 B( 18-C , 19-C ) :   1.2141 B( 18-C , 21-H ) :   0.9899
B( 19-C , 20-C ) :   1.6417 B( 19-C , 22-C ) :   1.0390 B( 22-C , 23-H ) :   0.9262
B( 22-C , 24-H ) :   0.9343 B( 22-C , 25-C ) :   1.0516 B( 25-C , 26-H ) :   0.9549
B( 25-C , 27-H ) :   0.9516 B( 25-C , 28-C ) :   1.0941 B( 28-C , 29-H ) :   0.9724
B( 28-C , 30-H ) :   0.9718 B( 28-C , 31-H ) :   0.9708

Dispersion correction           -0.013718180
FINAL SINGLE POINT ENERGY     -1339.876461783317

DIPOLE MOMENT
-------------
                                X             Y             Z
Electronic contribution:      6.72537       4.45995      31.04964
Nuclear contribution   :     -7.04754      -4.53805     -31.63585
                        -----------------------------------------
Total Dipole Moment    :     -0.32217      -0.07810      -0.58621
                        -----------------------------------------
Magnitude (a.u.)       :      0.67345
Magnitude (Debye)      :      1.71178

Rotational constants in cm-1:     0.016797     0.009136     0.006388
Rotational constants in MHz :   503.547235   273.890516   191.505405

                             ****ORCA TERMINATED NORMALLY****
TOTAL RUN TIME: 0 days 0 hours 0 minutes 30 seconds 254 msec
