                         Program Version 4.2.1 -  RELEASE  -
|  1> ! wB97X-D3 SP def2-SVP
|  2> %pal
|  3> nprocs 16
|  4> end
|  5>
|  6> * xyz 0 1
|  7> S 	 38.4341 	 26.9694 	 86.6896
|  8> C 	 37.6499 	 28.3147 	 87.4276
|  9> C 	 37.3907 	 29.1977 	 86.3811
| 10> C 	 37.7582 	 28.7637 	 85.0705
| 11> C 	 38.3409 	 27.5412 	 85.1363
| 12> H 	 37.5989 	 29.1293 	 84.0762
| 13> C 	 36.5644 	 30.4133 	 86.4694
| 14> H 	 36.2318 	 30.4993 	 87.517
| 15> H 	 35.6408 	 30.3236 	 85.8982
| 16> C 	 37.3211 	 31.7237 	 86.053
| 17> H 	 38.2297 	 31.7469 	 86.5413
| 18> H 	 37.626 	 31.7236 	 84.9773
| 19> C 	 36.6388 	 33.0828 	 86.4052
| 20> H 	 37.5783 	 33.6705 	 86.7153
| 21> H 	 36.0482 	 33.4699 	 85.5952
| 22> H 	 35.9724 	 32.9925 	 87.3104
| 23> S 	 37.5022 	 26.3332 	 82.8576
| 24> C 	 38.6907 	 25.4824 	 81.9019
| 25> C 	 40.0057 	 25.6821 	 82.37
| 26> C 	 40.0062 	 26.4884 	 83.5495
| 27> C 	 38.7251 	 26.8335 	 83.9847
| 28> H 	 40.8502 	 25.3569 	 81.7188
| 29> C 	 41.2761 	 27.0869 	 84.1946
| 30> H 	 41.1038 	 28.022 	 84.7545
| 31> H 	 41.9971 	 27.3053 	 83.4194
| 32> C 	 41.9552 	 26.0726 	 85.1234
| 33> H 	 42.144 	 25.1778 	 84.5619
| 34> H 	 41.4284 	 25.9419 	 86.0853
| 35> C 	 43.3136 	 26.4404 	 85.6173
| 36> H 	 43.8208 	 25.6365 	 86.1159
| 37> H 	 43.3118 	 27.2497 	 86.2711
| 38> H 	 43.9496 	 26.6565 	 84.7416
| 39> H 	 37.2967 	 28.4482 	 88.4807
| 40> H 	 38.5489 	 25.1417 	 80.8605
| 41> *
| 42>
| 43>                          ****END OF INPUT****

CARTESIAN COORDINATES (ANGSTROEM)
---------------------------------
  S     38.434100   26.969400   86.689600
  C     37.649900   28.314700   87.427600
  C     37.390700   29.197700   86.381100
  C     37.758200   28.763700   85.070500
  C     38.340900   27.541200   85.136300
  H     37.598900   29.129300   84.076200
  C     36.564400   30.413300   86.469400
  H     36.231800   30.499300   87.517000
  H     35.640800   30.323600   85.898200
  C     37.321100   31.723700   86.053000
  H     38.229700   31.746900   86.541300
  H     37.626000   31.723600   84.977300
  C     36.638800   33.082800   86.405200
  H     37.578300   33.670500   86.715300
  H     36.048200   33.469900   85.595200
  H     35.972400   32.992500   87.310400
  S     37.502200   26.333200   82.857600
  C     38.690700   25.482400   81.901900
  C     40.005700   25.682100   82.370000
  C     40.006200   26.488400   83.549500
  C     38.725100   26.833500   83.984700
  H     40.850200   25.356900   81.718800
  C     41.276100   27.086900   84.194600
  H     41.103800   28.022000   84.754500
  H     41.997100   27.305300   83.419400
  C     41.955200   26.072600   85.123400
  H     42.144000   25.177800   84.561900
  H     41.428400   25.941900   86.085300
  C     43.313600   26.440400   85.617300
  H     43.820800   25.636500   86.115900
  H     43.311800   27.249700   86.271100
  H     43.949600   26.656500   84.741600
  H     37.296700   28.448200   88.480700
  H     38.548900   25.141700   80.860500

 Total Charge           Charge          ....    0
 Multiplicity           Mult            ....    1
 Number of Electrons    NEL             ....  134
 Basis Dimension        Dim             ....  322

ORBITAL ENERGIES
----------------

  NO   OCC          E(Eh)            E(eV)
   0   2.0000     -88.969780     -2420.9908
   1   2.0000     -88.965100     -2420.8635
   2   2.0000     -10.320540      -280.8362
   3   2.0000     -10.319489      -280.8076
   4   2.0000     -10.317996      -280.7670
   5   2.0000     -10.312789      -280.6253
   6   2.0000     -10.305650      -280.4310
   7   2.0000     -10.302242      -280.3383
   8   2.0000     -10.298633      -280.2401
   9   2.0000     -10.291260      -280.0394
  10   2.0000     -10.286695      -279.9152
  11   2.0000     -10.286583      -279.9121
  12   2.0000     -10.285038      -279.8701
  13   2.0000     -10.282459      -279.7999
  14   2.0000     -10.274951      -279.5956
  15   2.0000     -10.262929      -279.2685
  16   2.0000      -8.084461      -219.9894
  17   2.0000      -8.081709      -219.9145
  18   2.0000      -6.042852      -164.4344
  19   2.0000      -6.040090      -164.3592
  20   2.0000      -6.038976      -164.3289
  21   2.0000      -6.035675      -164.2391
  22   2.0000      -6.035351      -164.2303
  23   2.0000      -6.032715      -164.1585
  24   2.0000      -1.022754       -27.8306
  25   2.0000      -0.988858       -26.9082
  26   2.0000      -0.910616       -24.7791
  27   2.0000      -0.909602       -24.7515
  28   2.0000      -0.876560       -23.8524
  29   2.0000      -0.854221       -23.2445
  30   2.0000      -0.849179       -23.1073
  31   2.0000      -0.814987       -22.1769
  32   2.0000      -0.782391       -21.2899
  33   2.0000      -0.767416       -20.8825
  34   2.0000      -0.706471       -19.2241
  35   2.0000      -0.694833       -18.9074
  36   2.0000      -0.685922       -18.6649
  37   2.0000      -0.664206       -18.0740
  38   2.0000      -0.645121       -17.5546
  39   2.0000      -0.614846       -16.7308
  40   2.0000      -0.594518       -16.1777
  41   2.0000      -0.575441       -15.6585
  42   2.0000      -0.571551       -15.5527
  43   2.0000      -0.558061       -15.1856
  44   2.0000      -0.528455       -14.3800
  45   2.0000      -0.522490       -14.2177
  46   2.0000      -0.518998       -14.1227
  47   2.0000      -0.512925       -13.9574
  48   2.0000      -0.508909       -13.8481
  49   2.0000      -0.503032       -13.6882
  50   2.0000      -0.496770       -13.5178
  51   2.0000      -0.476272       -12.9600
  52   2.0000      -0.470765       -12.8102
  53   2.0000      -0.466255       -12.6874
  54   2.0000      -0.460031       -12.5181
  55   2.0000      -0.448659       -12.2086
  56   2.0000      -0.439357       -11.9555
  57   2.0000      -0.433797       -11.8042
  58   2.0000      -0.430477       -11.7139
  59   2.0000      -0.422612       -11.4999
  60   2.0000      -0.417932       -11.3725
  61   2.0000      -0.411410       -11.1950
  62   2.0000      -0.407542       -11.0898
  63   2.0000      -0.338564        -9.2128
  64   2.0000      -0.335367        -9.1258
  65   2.0000      -0.323646        -8.8069
  66   2.0000      -0.301101        -8.1934
  67   0.0000       0.038780         1.0553
  68   0.0000       0.064347         1.7510
  69   0.0000       0.101398         2.7592
  70   0.0000       0.129287         3.5181
  71   0.0000       0.136023         3.7014

MULLIKEN ATOMIC CHARGES
-----------------------
   0 S :    0.134688
   1 C :   -0.136447
   2 C :   -0.080758
   3 C :    0.016596
   4 C :   -0.141339
   5 H :    0.008701
   6 C :    0.074411
   7 H :    0.000420
   8 H :    0.038564
   9 C :   -0.089307
  10 H :    0.008081
  11 H :    0.034168
  12 C :   -0.073960
  13 H :    0.049733
  14 H :    0.046364
  15 H :    0.036349
  16 S :    0.130087
  17 C :   -0.110744
  18 C :   -0.063377
  19 C :    0.006887
  20 C :   -0.200683
  21 H :    0.041143
  22 C :    0.075632
  23 H :    0.037538
  24 H :    0.012747
  25 C :   -0.086009
  26 H :    0.021652
  27 H :    0.032644
  28 C :   -0.015938
  29 H :    0.026479
  30 H :    0.013963
  31 H :    0.010581
  32 H :    0.071635
  33 H :    0.069499
Sum of atomic charges:   -0.0000000

LOEWDIN ATOMIC CHARGES
----------------------
   0 S :    0.466971
   1 C :   -0.224882
   2 C :   -0.063832
   3 C :   -0.064593
   4 C :   -0.229473
   5 H :    0.030944
   6 C :   -0.036296
   7 H :    0.024329
   8 H :    0.031581
   9 C :   -0.041962
  10 H :    0.011404
  11 H :    0.027699
  12 C :   -0.072614
  13 H :    0.042421
  14 H :    0.021790
  15 H :    0.028260
  16 S :    0.424247
  17 C :   -0.201149
  18 C :   -0.073674
  19 C :   -0.049697
  20 C :   -0.208324
  21 H :    0.041347
  22 C :   -0.027029
  23 H :    0.033253
  24 H :    0.027368
  25 C :   -0.043729
  26 H :    0.021638
  27 H :    0.024467
  28 C :   -0.060687
  29 H :    0.025274
  30 H :    0.012278
  31 H :    0.020539
  32 H :    0.046855
  33 H :    0.035279

  Mayer bond orders larger than 0.100000
B(  0-S ,  1-C ) :   1.1371 B(  0-S ,  4-C ) :   1.1934 B(  1-C ,  2-C ) :   1.5787
B(  1-C , 32-H ) :   0.9679 B(  2-C ,  3-C ) :   1.2187 B(  2-C ,  6-C ) :   1.0552
B(  3-C ,  4-C ) :   1.5444 B(  3-C ,  5-H ) :   1.0081 B(  4-C , 20-C ) :   1.0352
B(  6-C ,  7-H ) :   0.9335 B(  6-C ,  8-H ) :   0.9414 B(  6-C ,  9-C ) :   1.0516
B(  9-C , 10-H ) :   0.9661 B(  9-C , 11-H ) :   0.9543 B(  9-C , 12-C ) :   1.0674
B( 12-C , 13-H ) :   0.9833 B( 12-C , 14-H ) :   0.9785 B( 12-C , 15-H ) :   0.9762
B( 16-S , 17-C ) :   1.1634 B( 16-S , 20-C ) :   1.1482 B( 17-C , 18-C ) :   1.6016
B( 17-C , 20-C ) :   0.1095 B( 17-C , 33-H ) :   0.9585 B( 18-C , 19-C ) :   1.2568
B( 18-C , 21-H ) :   0.9799 B( 19-C , 20-C ) :   1.5757 B( 19-C , 22-C ) :   1.0409
B( 22-C , 23-H ) :   0.9343 B( 22-C , 24-H ) :   0.9357 B( 22-C , 25-C ) :   1.0747
B( 25-C , 26-H ) :   0.9580 B( 25-C , 27-H ) :   0.9494 B( 25-C , 28-C ) :   1.0966
B( 28-C , 29-H ) :   0.9715 B( 28-C , 30-H ) :   0.9731 B( 28-C , 31-H ) :   0.9688

Dispersion correction           -0.014058024
FINAL SINGLE POINT ENERGY     -1339.858674744427

DIPOLE MOMENT
-------------
                                X             Y             Z
Electronic contribution:    -11.06032     -17.21165      -6.27301
Nuclear contribution   :     11.22103      17.59748       6.15314
                        -----------------------------------------
Total Dipole Moment    :      0.16072       0.38583      -0.11986
                        -----------------------------------------
Magnitude (a.u.)       :      0.43481
Magnitude (Debye)      :      1.10520

Rotational constants in cm-1:     0.018599     0.008182     0.006893
Rotational constants in MHz :   557.583156   245.278068   206.644050

                             ****ORCA TERMINATED NORMALLY****
TOTAL RUN TIME: 0 days 0 hours 0 minutes 29 seconds 780 msec
