                         Program Version 4.2.1 -  RELEASE  -
|  1> ! wB97X-D3 SP def2-SVP
|  2> %pal
|  3> nprocs 16
|  4> end
|  5>
|  6> * xyz 0 1
|  7> S 	 2.86305 	 77.3019 	 47.1296
|  8> C 	 3.38054 	 75.9865 	 48.215
|  9> C 	 4.51212 	 76.2327 	 48.8907
| 10> C 	 5.0596 	 77.4839 	 48.5412
| 11> C 	 4.24917 	 78.2485 	 47.7665
| 12> H 	 6.12605 	 77.8892 	 48.7405
| 13> C 	 5.08494 	 75.273 	 49.8937
| 14> H 	 5.10409 	 74.316 	 49.4394
| 15> H 	 4.31148 	 75.3017 	 50.6745
| 16> C 	 6.57424 	 75.5634 	 50.368
| 17> H 	 7.02794 	 74.6282 	 50.8466
| 18> H 	 7.27001 	 75.8071 	 49.5664
| 19> C 	 6.59323 	 76.5579 	 51.5687
| 20> H 	 7.5685 	 76.9422 	 51.8563
| 21> H 	 5.92071 	 77.3516 	 51.4317
| 22> H 	 6.26327 	 76.1291 	 52.4971
| 23> S 	 5.89801 	 79.9135 	 46.0631
| 24> C 	 5.67237 	 81.6188 	 46.2599
| 25> C 	 4.6167 	 81.9412 	 47.0026
| 26> C 	 3.98619 	 80.8052 	 47.5943
| 27> C 	 4.58067 	 79.612 	 47.2053
| 28> H 	 4.14689 	 82.8826 	 47.1016
| 29> C 	 2.89789 	 80.9688 	 48.5333
| 30> H 	 2.58222 	 80.0614 	 48.9237
| 31> H 	 2.00064 	 81.3783 	 48.0884
| 32> C 	 3.18857 	 81.9417 	 49.7241
| 33> H 	 2.22653 	 82.257 	 50.1761
| 34> H 	 3.62484 	 82.9109 	 49.449
| 35> C 	 4.09027 	 81.3645 	 50.7854
| 36> H 	 3.5408 	 80.5401 	 51.3229
| 37> H 	 4.34199 	 82.1364 	 51.5575
| 38> H 	 4.91479 	 80.971 	 50.2367
| 39> H 	 2.82482 	 75.0975 	 48.383
| 40> H 	 6.15615 	 82.3702 	 45.6216
| 41> *
| 42>
| 43>                          ****END OF INPUT****

CARTESIAN COORDINATES (ANGSTROEM)
---------------------------------
  S      2.863050   77.301900   47.129600
  C      3.380540   75.986500   48.215000
  C      4.512120   76.232700   48.890700
  C      5.059600   77.483900   48.541200
  C      4.249170   78.248500   47.766500
  H      6.126050   77.889200   48.740500
  C      5.084940   75.273000   49.893700
  H      5.104090   74.316000   49.439400
  H      4.311480   75.301700   50.674500
  C      6.574240   75.563400   50.368000
  H      7.027940   74.628200   50.846600
  H      7.270010   75.807100   49.566400
  C      6.593230   76.557900   51.568700
  H      7.568500   76.942200   51.856300
  H      5.920710   77.351600   51.431700
  H      6.263270   76.129100   52.497100
  S      5.898010   79.913500   46.063100
  C      5.672370   81.618800   46.259900
  C      4.616700   81.941200   47.002600
  C      3.986190   80.805200   47.594300
  C      4.580670   79.612000   47.205300
  H      4.146890   82.882600   47.101600
  C      2.897890   80.968800   48.533300
  H      2.582220   80.061400   48.923700
  H      2.000640   81.378300   48.088400
  C      3.188570   81.941700   49.724100
  H      2.226530   82.257000   50.176100
  H      3.624840   82.910900   49.449000
  C      4.090270   81.364500   50.785400
  H      3.540800   80.540100   51.322900
  H      4.341990   82.136400   51.557500
  H      4.914790   80.971000   50.236700
  H      2.824820   75.097500   48.383000
  H      6.156150   82.370200   45.621600

 Total Charge           Charge          ....    0
 Multiplicity           Mult            ....    1
 Number of Electrons    NEL             ....  134
 Basis Dimension        Dim             ....  322

ORBITAL ENERGIES
----------------

  NO   OCC          E(Eh)            E(eV)
   0   2.0000     -88.965581     -2420.8765
   1   2.0000     -88.965445     -2420.8728
   2   2.0000     -10.329896      -281.0908
   3   2.0000     -10.326054      -280.9862
   4   2.0000     -10.312871      -280.6275
   5   2.0000     -10.306557      -280.4557
   6   2.0000     -10.301096      -280.3071
   7   2.0000     -10.296889      -280.1926
   8   2.0000     -10.295865      -280.1647
   9   2.0000     -10.294334      -280.1231
  10   2.0000     -10.294315      -280.1226
  11   2.0000     -10.283511      -279.8286
  12   2.0000     -10.282910      -279.8122
  13   2.0000     -10.278670      -279.6968
  14   2.0000     -10.273319      -279.5512
  15   2.0000     -10.271604      -279.5045
  16   2.0000      -8.080331      -219.8770
  17   2.0000      -8.078940      -219.8391
  18   2.0000      -6.038922      -164.3274
  19   2.0000      -6.037557      -164.2903
  20   2.0000      -6.034949      -164.2193
  21   2.0000      -6.033864      -164.1898
  22   2.0000      -6.030895      -164.1090
  23   2.0000      -6.029422      -164.0689
  24   2.0000      -1.005254       -27.3544
  25   2.0000      -0.988275       -26.8923
  26   2.0000      -0.913201       -24.8495
  27   2.0000      -0.905893       -24.6506
  28   2.0000      -0.866139       -23.5688
  29   2.0000      -0.850384       -23.1401
  30   2.0000      -0.842784       -22.9333
  31   2.0000      -0.821064       -22.3423
  32   2.0000      -0.785117       -21.3641
  33   2.0000      -0.771166       -20.9845
  34   2.0000      -0.710797       -19.3418
  35   2.0000      -0.695141       -18.9158
  36   2.0000      -0.691969       -18.8294
  37   2.0000      -0.659846       -17.9553
  38   2.0000      -0.631395       -17.1811
  39   2.0000      -0.617588       -16.8054
  40   2.0000      -0.605853       -16.4861
  41   2.0000      -0.563141       -15.3238
  42   2.0000      -0.557141       -15.1606
  43   2.0000      -0.555369       -15.1124
  44   2.0000      -0.534349       -14.5404
  45   2.0000      -0.529819       -14.4171
  46   2.0000      -0.517449       -14.0805
  47   2.0000      -0.515207       -14.0195
  48   2.0000      -0.503920       -13.7124
  49   2.0000      -0.492954       -13.4140
  50   2.0000      -0.491352       -13.3704
  51   2.0000      -0.476197       -12.9580
  52   2.0000      -0.467665       -12.7258
  53   2.0000      -0.462634       -12.5889
  54   2.0000      -0.457309       -12.4440
  55   2.0000      -0.448628       -12.2078
  56   2.0000      -0.446252       -12.1431
  57   2.0000      -0.438637       -11.9359
  58   2.0000      -0.432181       -11.7602
  59   2.0000      -0.424827       -11.5601
  60   2.0000      -0.421725       -11.4757
  61   2.0000      -0.412458       -11.2236
  62   2.0000      -0.412037       -11.2121
  63   2.0000      -0.335139        -9.1196
  64   2.0000      -0.333019        -9.0619
  65   2.0000      -0.324766        -8.8373
  66   2.0000      -0.306030        -8.3275
  67   0.0000       0.042807         1.1648
  68   0.0000       0.060028         1.6334
  69   0.0000       0.107689         2.9304
  70   0.0000       0.121455         3.3050
  71   0.0000       0.126721         3.4483

MULLIKEN ATOMIC CHARGES
-----------------------
   0 S :    0.102184
   1 C :   -0.123768
   2 C :   -0.072194
   3 C :   -0.011067
   4 C :   -0.174160
   5 H :    0.055788
   6 C :    0.075715
   7 H :    0.030347
   8 H :    0.050296
   9 C :   -0.103520
  10 H :    0.041511
  11 H :    0.044584
  12 C :   -0.031060
  13 H :    0.028523
  14 H :    0.020075
  15 H :    0.017361
  16 S :    0.113919
  17 C :   -0.081329
  18 C :   -0.000131
  19 C :   -0.051059
  20 C :   -0.170556
  21 H :    0.005835
  22 C :    0.134429
  23 H :   -0.003926
  24 H :    0.026553
  25 C :   -0.119657
  26 H :    0.019456
  27 H :    0.023057
  28 C :   -0.044593
  29 H :    0.031492
  30 H :    0.042493
  31 H :    0.036276
  32 H :    0.024933
  33 H :    0.062193
Sum of atomic charges:    0.0000000

LOEWDIN ATOMIC CHARGES
----------------------
   0 S :    0.367820
   1 C :   -0.178611
   2 C :   -0.070209
   3 C :   -0.070877
   4 C :   -0.176510
   5 H :    0.051569
   6 C :   -0.024891
   7 H :    0.030061
   8 H :    0.041987
   9 C :   -0.042266
  10 H :    0.035272
  11 H :    0.025646
  12 C :   -0.067691
  13 H :    0.025676
  14 H :    0.014725
  15 H :    0.023815
  16 S :    0.398686
  17 C :   -0.185242
  18 C :   -0.066413
  19 C :   -0.053838
  20 C :   -0.202484
  21 H :    0.027278
  22 C :   -0.027929
  23 H :    0.020381
  24 H :    0.037907
  25 C :   -0.042739
  26 H :    0.021134
  27 H :    0.019413
  28 C :   -0.066995
  29 H :    0.027496
  30 H :    0.031028
  31 H :    0.022502
  32 H :    0.019546
  33 H :    0.034755

  Mayer bond orders larger than 0.100000
B(  0-S ,  1-C ) :   1.1176 B(  0-S ,  4-C ) :   1.1294 B(  1-C ,  2-C ) :   1.6776
B(  1-C , 32-H ) :   0.9695 B(  2-C ,  3-C ) :   1.2137 B(  2-C ,  6-C ) :   0.9844
B(  3-C ,  4-C ) :   1.6396 B(  3-C ,  5-H ) :   0.9708 B(  4-C , 20-C ) :   0.9926
B(  6-C ,  7-H ) :   0.9395 B(  6-C ,  8-H ) :   0.9450 B(  6-C ,  9-C ) :   1.0690
B(  9-C , 10-H ) :   0.9618 B(  9-C , 11-H ) :   0.9611 B(  9-C , 12-C ) :   1.0573
B( 12-C , 13-H ) :   0.9750 B( 12-C , 14-H ) :   0.9810 B( 12-C , 15-H ) :   0.9745
B( 16-S , 17-C ) :   1.1476 B( 16-S , 20-C ) :   1.1253 B( 17-C , 18-C ) :   1.6265
B( 17-C , 33-H ) :   0.9556 B( 18-C , 19-C ) :   1.2360 B( 18-C , 21-H ) :   0.9940
B( 19-C , 20-C ) :   1.6036 B( 19-C , 22-C ) :   1.0842 B( 22-C , 23-H ) :   0.9168
B( 22-C , 24-H ) :   0.9174 B( 22-C , 25-C ) :   1.0643 B( 25-C , 26-H ) :   0.9543
B( 25-C , 27-H ) :   0.9572 B( 25-C , 28-C ) :   1.0746 B( 28-C , 29-H ) :   0.9736
B( 28-C , 30-H ) :   0.9721 B( 28-C , 31-H ) :   0.9775

Dispersion correction           -0.015087720
FINAL SINGLE POINT ENERGY     -1339.866711747979

DIPOLE MOMENT
-------------
                                X             Y             Z
Electronic contribution:     -3.61852      -0.98998     -25.09303
Nuclear contribution   :      3.63198       1.01502      25.55456
                        -----------------------------------------
Total Dipole Moment    :      0.01346       0.02505       0.46154
                        -----------------------------------------
Magnitude (a.u.)       :      0.46241
Magnitude (Debye)      :      1.17536

Rotational constants in cm-1:     0.017549     0.008979     0.008157
Rotational constants in MHz :   526.106733   269.197222   244.532884

                             ****ORCA TERMINATED NORMALLY****
TOTAL RUN TIME: 0 days 0 hours 0 minutes 35 seconds 697 msec
