                         Program Version 4.2.1 -  RELEASE  -
|  1> ! wB97X-D3 SP def2-SVP
|  2> %pal
|  3> nprocs 16
|  4> end
|  5>
|  6> * xyz 0 1
|  7> S 	 -115.191 	 55.0697 	 110.691
|  8> C 	 -114.297 	 53.7511 	 109.975
|  9> C 	 -113.012 	 54.2287 	 109.59
| 10> C 	 -112.707 	 55.6082 	 109.943
| 11> C 	 -113.917 	 56.2154 	 110.447
| 12> H 	 -111.744 	 56.1065 	 109.972
| 13> C 	 -112.036 	 53.4797 	 108.78
| 14> H 	 -112.13 	 52.47 	 109.094
| 15> H 	 -111.02 	 53.808 	 108.947
| 16> C 	 -112.255 	 53.3873 	 107.269
| 17> H 	 -111.745 	 52.4213 	 106.931
| 18> H 	 -113.322 	 53.175 	 107.122
| 19> C 	 -111.772 	 54.6186 	 106.504
| 20> H 	 -110.622 	 54.7078 	 106.555
| 21> H 	 -112.027 	 54.679 	 105.403
| 22> H 	 -112.134 	 55.628 	 106.834
| 23> S 	 -113.031 	 58.6812 	 110.085
| 24> C 	 -113.776 	 60.0712 	 110.85
| 25> C 	 -114.828 	 59.5696 	 111.64
| 26> C 	 -114.965 	 58.1399 	 111.732
| 27> C 	 -114.161 	 57.5564 	 110.837
| 28> H 	 -115.594 	 60.236 	 112.157
| 29> C 	 -115.943 	 57.4955 	 112.711
| 30> H 	 -116.566 	 56.7693 	 112.213
| 31> H 	 -116.645 	 58.2607 	 113.108
| 32> C 	 -115.167 	 56.8738 	 113.941
| 33> H 	 -114.371 	 56.2209 	 113.634
| 34> H 	 -115.818 	 56.0865 	 114.333
| 35> C 	 -114.546 	 57.8859 	 114.855
| 36> H 	 -114.047 	 58.6807 	 114.395
| 37> H 	 -113.933 	 57.2959 	 115.516
| 38> H 	 -115.179 	 58.5026 	 115.517
| 39> H 	 -114.618 	 52.7941 	 109.715
| 40> H 	 -113.565 	 61.1501 	 110.587
| 41> *
| 42>
| 43>                          ****END OF INPUT****

CARTESIAN COORDINATES (ANGSTROEM)
---------------------------------
  S    -115.191000   55.069700  110.691000
  C    -114.297000   53.751100  109.975000
  C    -113.012000   54.228700  109.590000
  C    -112.707000   55.608200  109.943000
  C    -113.917000   56.215400  110.447000
  H    -111.744000   56.106500  109.972000
  C    -112.036000   53.479700  108.780000
  H    -112.130000   52.470000  109.094000
  H    -111.020000   53.808000  108.947000
  C    -112.255000   53.387300  107.269000
  H    -111.745000   52.421300  106.931000
  H    -113.322000   53.175000  107.122000
  C    -111.772000   54.618600  106.504000
  H    -110.622000   54.707800  106.555000
  H    -112.027000   54.679000  105.403000
  H    -112.134000   55.628000  106.834000
  S    -113.031000   58.681200  110.085000
  C    -113.776000   60.071200  110.850000
  C    -114.828000   59.569600  111.640000
  C    -114.965000   58.139900  111.732000
  C    -114.161000   57.556400  110.837000
  H    -115.594000   60.236000  112.157000
  C    -115.943000   57.495500  112.711000
  H    -116.566000   56.769300  112.213000
  H    -116.645000   58.260700  113.108000
  C    -115.167000   56.873800  113.941000
  H    -114.371000   56.220900  113.634000
  H    -115.818000   56.086500  114.333000
  C    -114.546000   57.885900  114.855000
  H    -114.047000   58.680700  114.395000
  H    -113.933000   57.295900  115.516000
  H    -115.179000   58.502600  115.517000
  H    -114.618000   52.794100  109.715000
  H    -113.565000   61.150100  110.587000

 Total Charge           Charge          ....    0
 Multiplicity           Mult            ....    1
 Number of Electrons    NEL             ....  134
 Basis Dimension        Dim             ....  322

ORBITAL ENERGIES
----------------

  NO   OCC          E(Eh)            E(eV)
   0   2.0000     -88.971979     -2421.0506
   1   2.0000     -88.963342     -2420.8156
   2   2.0000     -10.334250      -281.2092
   3   2.0000     -10.327033      -281.0129
   4   2.0000     -10.321976      -280.8753
   5   2.0000     -10.312798      -280.6255
   6   2.0000     -10.305230      -280.4196
   7   2.0000     -10.303649      -280.3765
   8   2.0000     -10.302305      -280.3400
   9   2.0000     -10.300713      -280.2967
  10   2.0000     -10.297725      -280.2153
  11   2.0000     -10.293143      -280.0907
  12   2.0000     -10.288271      -279.9581
  13   2.0000     -10.284773      -279.8629
  14   2.0000     -10.280892      -279.7573
  15   2.0000     -10.269266      -279.4409
  16   2.0000      -8.086126      -220.0347
  17   2.0000      -8.078072      -219.8155
  18   2.0000      -6.044675      -164.4840
  19   2.0000      -6.040541      -164.3715
  20   2.0000      -6.037078      -164.2773
  21   2.0000      -6.036794      -164.2695
  22   2.0000      -6.032559      -164.1543
  23   2.0000      -6.028626      -164.0472
  24   2.0000      -1.011135       -27.5144
  25   2.0000      -0.980827       -26.6897
  26   2.0000      -0.915409       -24.9095
  27   2.0000      -0.907190       -24.6859
  28   2.0000      -0.868733       -23.6394
  29   2.0000      -0.854100       -23.2412
  30   2.0000      -0.842061       -22.9136
  31   2.0000      -0.804823       -21.9003
  32   2.0000      -0.786459       -21.4006
  33   2.0000      -0.772794       -21.0288
  34   2.0000      -0.710773       -19.3411
  35   2.0000      -0.701608       -19.0917
  36   2.0000      -0.695728       -18.9317
  37   2.0000      -0.667613       -18.1667
  38   2.0000      -0.638341       -17.3701
  39   2.0000      -0.606071       -16.4920
  40   2.0000      -0.593035       -16.1373
  41   2.0000      -0.570460       -15.5230
  42   2.0000      -0.556211       -15.1353
  43   2.0000      -0.551364       -15.0034
  44   2.0000      -0.541678       -14.7398
  45   2.0000      -0.535127       -14.5616
  46   2.0000      -0.521024       -14.1778
  47   2.0000      -0.508404       -13.8344
  48   2.0000      -0.503689       -13.7061
  49   2.0000      -0.497280       -13.5317
  50   2.0000      -0.490355       -13.3432
  51   2.0000      -0.484278       -13.1779
  52   2.0000      -0.477408       -12.9909
  53   2.0000      -0.463008       -12.5991
  54   2.0000      -0.459136       -12.4937
  55   2.0000      -0.447204       -12.1690
  56   2.0000      -0.436355       -11.8738
  57   2.0000      -0.430678       -11.7194
  58   2.0000      -0.428650       -11.6642
  59   2.0000      -0.423076       -11.5125
  60   2.0000      -0.419509       -11.4154
  61   2.0000      -0.411084       -11.1862
  62   2.0000      -0.403440       -10.9782
  63   2.0000      -0.358015        -9.7421
  64   2.0000      -0.331265        -9.0142
  65   2.0000      -0.326013        -8.8713
  66   2.0000      -0.279522        -7.6062
  67   0.0000       0.014426         0.3926
  68   0.0000       0.076304         2.0763
  69   0.0000       0.102186         2.7806
  70   0.0000       0.124151         3.3783
  71   0.0000       0.128217         3.4890

MULLIKEN ATOMIC CHARGES
-----------------------
   0 S :    0.100131
   1 C :   -0.070537
   2 C :   -0.106814
   3 C :    0.012621
   4 C :   -0.160894
   5 H :    0.038931
   6 C :    0.076384
   7 H :    0.007803
   8 H :    0.014773
   9 C :   -0.047962
  10 H :    0.038650
  11 H :    0.021998
  12 C :   -0.105932
  13 H :    0.035814
  14 H :    0.042640
  15 H :    0.044443
  16 S :    0.082288
  17 C :   -0.109822
  18 C :   -0.059677
  19 C :   -0.070895
  20 C :   -0.100931
  21 H :    0.038264
  22 C :    0.051209
  23 H :    0.036659
  24 H :    0.025549
  25 C :   -0.051153
  26 H :    0.024309
  27 H :    0.023571
  28 C :   -0.012330
  29 H :    0.025487
  30 H :    0.030982
  31 H :    0.014837
  32 H :    0.021207
  33 H :    0.088395
Sum of atomic charges:   -0.0000000

LOEWDIN ATOMIC CHARGES
----------------------
   0 S :    0.441347
   1 C :   -0.210299
   2 C :   -0.047388
   3 C :   -0.076148
   4 C :   -0.189266
   5 H :    0.032857
   6 C :   -0.037582
   7 H :    0.027813
   8 H :    0.027566
   9 C :   -0.041249
  10 H :    0.033418
  11 H :    0.023007
  12 C :   -0.088522
  13 H :    0.030678
  14 H :    0.031533
  15 H :    0.030643
  16 S :    0.401349
  17 C :   -0.202174
  18 C :   -0.075586
  19 C :   -0.068425
  20 C :   -0.189015
  21 H :    0.036341
  22 C :   -0.032074
  23 H :    0.017667
  24 H :    0.033783
  25 C :   -0.040237
  26 H :    0.024372
  27 H :    0.027850
  28 C :   -0.063284
  29 H :    0.022162
  30 H :    0.029816
  31 H :    0.024804
  32 H :    0.016576
  33 H :    0.047665

  Mayer bond orders larger than 0.100000
B(  0-S ,  1-C ) :   1.1215 B(  0-S ,  4-C ) :   1.1872 B(  1-C ,  2-C ) :   1.5787
B(  1-C ,  4-C ) :   0.1012 B(  1-C , 32-H ) :   0.9762 B(  2-C ,  3-C ) :   1.2577
B(  2-C ,  6-C ) :   1.0570 B(  3-C ,  4-C ) :   1.4920 B(  3-C ,  5-H ) :   0.9794
B(  4-C , 20-C ) :   1.0946 B(  6-C ,  7-H ) :   0.9242 B(  6-C ,  8-H ) :   0.9404
B(  6-C ,  9-C ) :   1.0693 B(  9-C , 10-H ) :   0.9555 B(  9-C , 11-H ) :   0.9517
B(  9-C , 12-C ) :   1.0665 B( 12-C , 13-H ) :   0.9735 B( 12-C , 14-H ) :   0.9741
B( 12-C , 15-H ) :   0.9740 B( 16-S , 17-C ) :   1.1399 B( 16-S , 20-C ) :   1.1278
B( 17-C , 18-C ) :   1.6014 B( 17-C , 33-H ) :   0.9635 B( 18-C , 19-C ) :   1.2352
B( 18-C , 21-H ) :   0.9696 B( 19-C , 20-C ) :   1.6032 B( 19-C , 22-C ) :   1.0392
B( 22-C , 23-H ) :   0.9354 B( 22-C , 24-H ) :   0.9356 B( 22-C , 25-C ) :   1.0595
B( 25-C , 26-H ) :   0.9589 B( 25-C , 27-H ) :   0.9544 B( 25-C , 28-C ) :   1.0616
B( 28-C , 29-H ) :   0.9734 B( 28-C , 30-H ) :   0.9736 B( 28-C , 31-H ) :   0.9718

Dispersion correction           -0.014988167
FINAL SINGLE POINT ENERGY     -1339.858121925321

DIPOLE MOMENT
-------------
                                X             Y             Z
Electronic contribution:     -4.40894       6.81515      -1.35134
Nuclear contribution   :      4.39491      -6.89950       1.45501
                        -----------------------------------------
Total Dipole Moment    :     -0.01403      -0.08434       0.10367
                        -----------------------------------------
Magnitude (a.u.)       :      0.13438
Magnitude (Debye)      :      0.34157

Rotational constants in cm-1:     0.023434     0.008649     0.006961
Rotational constants in MHz :   702.531162   259.304006   208.691036

                             ****ORCA TERMINATED NORMALLY****
TOTAL RUN TIME: 0 days 0 hours 0 minutes 38 seconds 702 msec
