                         Program Version 4.2.1 -  RELEASE  -
|  1> ! wB97X-D3 SP def2-SVP
|  2> %pal
|  3> nprocs 16
|  4> end
|  5>
|  6> * xyz 0 1
|  7> S 	 5.51297 	 -12.9645 	 54.1691
|  8> C 	 3.94772 	 -12.681 	 54.8651
|  9> C 	 3.63303 	 -13.4937 	 55.9335
| 10> C 	 4.61335 	 -14.4964 	 56.1145
| 11> C 	 5.71817 	 -14.3163 	 55.2767
| 12> H 	 4.61724 	 -15.2874 	 56.8612
| 13> C 	 2.25836 	 -13.5737 	 56.6596
| 14> H 	 2.05405 	 -14.5558 	 56.9161
| 15> H 	 1.53965 	 -13.1291 	 56.0335
| 16> C 	 2.23842 	 -12.7656 	 58.0009
| 17> H 	 1.48691 	 -13.0741 	 58.6409
| 18> H 	 3.11874 	 -13.0826 	 58.491
| 19> C 	 2.26703 	 -11.2363 	 57.778
| 20> H 	 3.12815 	 -10.9569 	 57.1433
| 21> H 	 1.37324 	 -10.7769 	 57.2527
| 22> H 	 2.4423 	 -10.697 	 58.7555
| 23> S 	 7.53406 	 -16.2876 	 54.5816
| 24> C 	 8.99152 	 -16.328 	 55.4817
| 25> C 	 9.08776 	 -15.3452 	 56.4231
| 26> C 	 7.98662 	 -14.4548 	 56.4119
| 27> C 	 7.02354 	 -14.868 	 55.5048
| 28> H 	 9.81118 	 -15.2892 	 57.1619
| 29> C 	 7.87353 	 -13.1326 	 57.2731
| 30> H 	 7.41752 	 -12.4426 	 56.5479
| 31> H 	 8.83212 	 -12.694 	 57.4547
| 32> C 	 6.95651 	 -13.265 	 58.4912
| 33> H 	 7.3253 	 -13.9372 	 59.17
| 34> H 	 5.99404 	 -13.6643 	 58.1696
| 35> C 	 6.74626 	 -11.8296 	 59.1687
| 36> H 	 5.86722 	 -11.9659 	 59.769
| 37> H 	 6.51724 	 -10.851 	 58.6179
| 38> H 	 7.6179 	 -11.7812 	 59.8421
| 39> H 	 3.38945 	 -11.9126 	 54.3402
| 40> H 	 9.70784 	 -17.1398 	 55.3616
| 41> *
| 42>
| 43>                          ****END OF INPUT****

CARTESIAN COORDINATES (ANGSTROEM)
---------------------------------
  S      5.512970  -12.964500   54.169100
  C      3.947720  -12.681000   54.865100
  C      3.633030  -13.493700   55.933500
  C      4.613350  -14.496400   56.114500
  C      5.718170  -14.316300   55.276700
  H      4.617240  -15.287400   56.861200
  C      2.258360  -13.573700   56.659600
  H      2.054050  -14.555800   56.916100
  H      1.539650  -13.129100   56.033500
  C      2.238420  -12.765600   58.000900
  H      1.486910  -13.074100   58.640900
  H      3.118740  -13.082600   58.491000
  C      2.267030  -11.236300   57.778000
  H      3.128150  -10.956900   57.143300
  H      1.373240  -10.776900   57.252700
  H      2.442300  -10.697000   58.755500
  S      7.534060  -16.287600   54.581600
  C      8.991520  -16.328000   55.481700
  C      9.087760  -15.345200   56.423100
  C      7.986620  -14.454800   56.411900
  C      7.023540  -14.868000   55.504800
  H      9.811180  -15.289200   57.161900
  C      7.873530  -13.132600   57.273100
  H      7.417520  -12.442600   56.547900
  H      8.832120  -12.694000   57.454700
  C      6.956510  -13.265000   58.491200
  H      7.325300  -13.937200   59.170000
  H      5.994040  -13.664300   58.169600
  C      6.746260  -11.829600   59.168700
  H      5.867220  -11.965900   59.769000
  H      6.517240  -10.851000   58.617900
  H      7.617900  -11.781200   59.842100
  H      3.389450  -11.912600   54.340200
  H      9.707840  -17.139800   55.361600

 Total Charge           Charge          ....    0
 Multiplicity           Mult            ....    1
 Number of Electrons    NEL             ....  134
 Basis Dimension        Dim             ....  322

ORBITAL ENERGIES
----------------

  NO   OCC          E(Eh)            E(eV)
   0   2.0000     -88.967085     -2420.9175
   1   2.0000     -88.962141     -2420.7829
   2   2.0000     -10.323434      -280.9149
   3   2.0000     -10.316644      -280.7302
   4   2.0000     -10.316149      -280.7167
   5   2.0000     -10.311114      -280.5797
   6   2.0000     -10.304452      -280.3984
   7   2.0000     -10.299257      -280.2570
   8   2.0000     -10.297578      -280.2113
   9   2.0000     -10.290118      -280.0084
  10   2.0000     -10.288014      -279.9511
  11   2.0000     -10.286638      -279.9137
  12   2.0000     -10.283383      -279.8251
  13   2.0000     -10.282591      -279.8035
  14   2.0000     -10.282414      -279.7987
  15   2.0000     -10.280487      -279.7463
  16   2.0000      -8.081986      -219.9220
  17   2.0000      -8.077537      -219.8009
  18   2.0000      -6.040156      -164.3610
  19   2.0000      -6.036503      -164.2616
  20   2.0000      -6.035828      -164.2432
  21   2.0000      -6.033063      -164.1680
  22   2.0000      -6.032020      -164.1396
  23   2.0000      -6.028439      -164.0422
  24   2.0000      -1.006934       -27.4001
  25   2.0000      -0.984999       -26.8032
  26   2.0000      -0.909777       -24.7563
  27   2.0000      -0.899911       -24.4878
  28   2.0000      -0.866725       -23.5848
  29   2.0000      -0.850335       -23.1388
  30   2.0000      -0.846212       -23.0266
  31   2.0000      -0.806562       -21.9477
  32   2.0000      -0.782205       -21.2849
  33   2.0000      -0.769578       -20.9413
  34   2.0000      -0.707898       -19.2629
  35   2.0000      -0.702925       -19.1276
  36   2.0000      -0.690863       -18.7993
  37   2.0000      -0.661674       -18.0051
  38   2.0000      -0.651734       -17.7346
  39   2.0000      -0.618363       -16.8265
  40   2.0000      -0.595998       -16.2179
  41   2.0000      -0.566400       -15.4125
  42   2.0000      -0.564139       -15.3510
  43   2.0000      -0.550090       -14.9687
  44   2.0000      -0.539470       -14.6797
  45   2.0000      -0.516521       -14.0552
  46   2.0000      -0.512214       -13.9380
  47   2.0000      -0.505046       -13.7430
  48   2.0000      -0.502124       -13.6635
  49   2.0000      -0.496422       -13.5083
  50   2.0000      -0.487322       -13.2607
  51   2.0000      -0.479464       -13.0469
  52   2.0000      -0.472695       -12.8627
  53   2.0000      -0.462669       -12.5899
  54   2.0000      -0.457950       -12.4615
  55   2.0000      -0.451373       -12.2825
  56   2.0000      -0.443618       -12.0715
  57   2.0000      -0.443546       -12.0695
  58   2.0000      -0.438850       -11.9417
  59   2.0000      -0.424978       -11.5642
  60   2.0000      -0.423750       -11.5308
  61   2.0000      -0.419769       -11.4225
  62   2.0000      -0.403695       -10.9851
  63   2.0000      -0.337642        -9.1877
  64   2.0000      -0.331231        -9.0133
  65   2.0000      -0.312597        -8.5062
  66   2.0000      -0.310516        -8.4496
  67   0.0000       0.043514         1.1841
  68   0.0000       0.054816         1.4916
  69   0.0000       0.113584         3.0908
  70   0.0000       0.121919         3.3176
  71   0.0000       0.126114         3.4317

MULLIKEN ATOMIC CHARGES
-----------------------
   0 S :    0.114538
   1 C :   -0.137629
   2 C :   -0.086526
   3 C :    0.055209
   4 C :   -0.183942
   5 H :    0.024056
   6 C :    0.126775
   7 H :    0.008548
   8 H :    0.011762
   9 C :   -0.024132
  10 H :    0.014927
  11 H :    0.006576
  12 C :   -0.100678
  13 H :    0.035914
  14 H :    0.041749
  15 H :    0.043255
  16 S :    0.114690
  17 C :   -0.086615
  18 C :   -0.002238
  19 C :   -0.033848
  20 C :   -0.211422
  21 H :   -0.015939
  22 C :    0.103707
  23 H :    0.020136
  24 H :    0.014736
  25 C :   -0.037059
  26 H :    0.009317
  27 H :    0.021838
  28 C :   -0.079047
  29 H :    0.024151
  30 H :    0.059533
  31 H :    0.037910
  32 H :    0.052524
  33 H :    0.057225
Sum of atomic charges:   -0.0000000

LOEWDIN ATOMIC CHARGES
----------------------
   0 S :    0.415382
   1 C :   -0.192082
   2 C :   -0.065467
   3 C :   -0.048702
   4 C :   -0.201048
   5 H :    0.033743
   6 C :   -0.005312
   7 H :    0.021026
   8 H :    0.021844
   9 C :   -0.031648
  10 H :    0.013680
  11 H :    0.018476
  12 C :   -0.078367
  13 H :    0.026197
  14 H :    0.028926
  15 H :    0.031806
  16 S :    0.411817
  17 C :   -0.192225
  18 C :   -0.070402
  19 C :   -0.045441
  20 C :   -0.211925
  21 H :    0.018930
  22 C :   -0.023533
  23 H :    0.030587
  24 H :    0.023086
  25 C :   -0.024177
  26 H :    0.011665
  27 H :    0.021611
  28 C :   -0.076439
  29 H :    0.020545
  30 H :    0.039230
  31 H :    0.027612
  32 H :    0.022289
  33 H :    0.028315

  Mayer bond orders larger than 0.100000
B(  0-S ,  1-C ) :   1.1616 B(  0-S ,  4-C ) :   1.1658 B(  1-C ,  2-C ) :   1.5821
B(  1-C , 32-H ) :   0.9720 B(  2-C ,  3-C ) :   1.2567 B(  2-C ,  6-C ) :   1.0180
B(  3-C ,  4-C ) :   1.5751 B(  3-C ,  5-H ) :   0.9843 B(  4-C , 20-C ) :   1.0098
B(  6-C ,  7-H ) :   0.9420 B(  6-C ,  8-H ) :   0.9479 B(  6-C ,  9-C ) :   1.0664
B(  9-C , 10-H ) :   0.9572 B(  9-C , 11-H ) :   0.9526 B(  9-C , 12-C ) :   1.0724
B( 12-C , 13-H ) :   0.9735 B( 12-C , 14-H ) :   0.9761 B( 12-C , 15-H ) :   0.9743
B( 16-S , 17-C ) :   1.1678 B( 16-S , 20-C ) :   1.1462 B( 17-C , 18-C ) :   1.5887
B( 17-C , 33-H ) :   0.9658 B( 18-C , 19-C ) :   1.2640 B( 18-C , 21-H ) :   1.0023
B( 19-C , 20-C ) :   1.6109 B( 19-C , 22-C ) :   1.0135 B( 22-C , 23-H ) :   0.9311
B( 22-C , 24-H ) :   0.9449 B( 22-C , 25-C ) :   1.0621 B( 25-C , 26-H ) :   0.9535
B( 25-C , 27-H ) :   0.9539 B( 25-C , 28-C ) :   1.0636 B( 28-C , 29-H ) :   0.9768
B( 28-C , 30-H ) :   0.9775 B( 28-C , 31-H ) :   0.9788

Dispersion correction           -0.016383802
FINAL SINGLE POINT ENERGY     -1339.865374238895

DIPOLE MOMENT
-------------
                                X             Y             Z
Electronic contribution:     12.02345     -15.53077     -23.75369
Nuclear contribution   :    -12.24412      15.66407      24.35389
                        -----------------------------------------
Total Dipole Moment    :     -0.22067       0.13330       0.60021
                        -----------------------------------------
Magnitude (a.u.)       :      0.65323
Magnitude (Debye)      :      1.66039

Rotational constants in cm-1:     0.020812     0.009461     0.007647
Rotational constants in MHz :   623.914352   283.636994   229.262533

                             ****ORCA TERMINATED NORMALLY****
TOTAL RUN TIME: 0 days 0 hours 0 minutes 32 seconds 702 msec
