                         Program Version 4.2.1 -  RELEASE  -
|  1> ! wB97X-D3 SP def2-SVP
|  2> %pal
|  3> nprocs 16
|  4> end
|  5>
|  6> * xyz 0 1
|  7> S 	 -47.8851 	 30.895 	 94.0718
|  8> C 	 -48.5536 	 29.2901 	 93.7968
|  9> C 	 -49.6578 	 29.3136 	 92.9468
| 10> C 	 -49.7774 	 30.6299 	 92.3471
| 11> C 	 -48.8624 	 31.5616 	 92.7848
| 12> H 	 -50.4774 	 31.0363 	 91.6292
| 13> C 	 -50.6297 	 28.073 	 92.7309
| 14> H 	 -51.5665 	 28.2038 	 93.2699
| 15> H 	 -50.0679 	 27.1919 	 93.0864
| 16> C 	 -51.0342 	 27.8847 	 91.2376
| 17> H 	 -51.2856 	 28.8919 	 90.8348
| 18> H 	 -50.1185 	 27.5998 	 90.6831
| 19> C 	 -52.1948 	 26.9175 	 90.8647
| 20> H 	 -53.1694 	 27.2387 	 91.3318
| 21> H 	 -52.2503 	 26.8942 	 89.8144
| 22> H 	 -51.9956 	 25.9572 	 91.2571
| 23> S 	 -48.3424 	 34.1427 	 93.3655
| 24> C 	 -48.4887 	 35.4053 	 92.1688
| 25> C 	 -48.7574 	 34.8421 	 90.9088
| 26> C 	 -48.719 	 33.3867 	 90.9359
| 27> C 	 -48.6968 	 32.8894 	 92.2068
| 28> H 	 -48.756 	 35.5062 	 90.062
| 29> C 	 -48.7831 	 32.5728 	 89.6179
| 30> H 	 -48.9214 	 31.6065 	 90.0057
| 31> H 	 -47.8062 	 32.4894 	 89.1891
| 32> C 	 -49.8472 	 32.9818 	 88.5244
| 33> H 	 -49.4501 	 33.8571 	 88.0278
| 34> H 	 -50.8356 	 33.3277 	 88.9707
| 35> C 	 -50.1604 	 31.8093 	 87.4728
| 36> H 	 -50.6625 	 31.0751 	 88.1248
| 37> H 	 -49.238 	 31.4532 	 87.0528
| 38> H 	 -50.8129 	 32.1598 	 86.7607
| 39> H 	 -48.3359 	 28.4198 	 94.5003
| 40> H 	 -48.4181 	 36.4355 	 92.3853
| 41> *
| 42>
| 43>                          ****END OF INPUT****

CARTESIAN COORDINATES (ANGSTROEM)
---------------------------------
  S    -47.885100   30.895000   94.071800
  C    -48.553600   29.290100   93.796800
  C    -49.657800   29.313600   92.946800
  C    -49.777400   30.629900   92.347100
  C    -48.862400   31.561600   92.784800
  H    -50.477400   31.036300   91.629200
  C    -50.629700   28.073000   92.730900
  H    -51.566500   28.203800   93.269900
  H    -50.067900   27.191900   93.086400
  C    -51.034200   27.884700   91.237600
  H    -51.285600   28.891900   90.834800
  H    -50.118500   27.599800   90.683100
  C    -52.194800   26.917500   90.864700
  H    -53.169400   27.238700   91.331800
  H    -52.250300   26.894200   89.814400
  H    -51.995600   25.957200   91.257100
  S    -48.342400   34.142700   93.365500
  C    -48.488700   35.405300   92.168800
  C    -48.757400   34.842100   90.908800
  C    -48.719000   33.386700   90.935900
  C    -48.696800   32.889400   92.206800
  H    -48.756000   35.506200   90.062000
  C    -48.783100   32.572800   89.617900
  H    -48.921400   31.606500   90.005700
  H    -47.806200   32.489400   89.189100
  C    -49.847200   32.981800   88.524400
  H    -49.450100   33.857100   88.027800
  H    -50.835600   33.327700   88.970700
  C    -50.160400   31.809300   87.472800
  H    -50.662500   31.075100   88.124800
  H    -49.238000   31.453200   87.052800
  H    -50.812900   32.159800   86.760700
  H    -48.335900   28.419800   94.500300
  H    -48.418100   36.435500   92.385300

 Total Charge           Charge          ....    0
 Multiplicity           Mult            ....    1
 Number of Electrons    NEL             ....  134
 Basis Dimension        Dim             ....  322

ORBITAL ENERGIES
----------------

  NO   OCC          E(Eh)            E(eV)
   0   2.0000     -88.967590     -2420.9312
   1   2.0000     -88.962449     -2420.7913
   2   2.0000     -10.329302      -281.0746
   3   2.0000     -10.326398      -280.9956
   4   2.0000     -10.322047      -280.8772
   5   2.0000     -10.318214      -280.7729
   6   2.0000     -10.313638      -280.6483
   7   2.0000     -10.308204      -280.5005
   8   2.0000     -10.304369      -280.3961
   9   2.0000     -10.298099      -280.2255
  10   2.0000     -10.297290      -280.2035
  11   2.0000     -10.295868      -280.1648
  12   2.0000     -10.292251      -280.0664
  13   2.0000     -10.289026      -279.9786
  14   2.0000     -10.279921      -279.7309
  15   2.0000     -10.279670      -279.7241
  16   2.0000      -8.082157      -219.9267
  17   2.0000      -8.077838      -219.8091
  18   2.0000      -6.040773      -164.3778
  19   2.0000      -6.036779      -164.2691
  20   2.0000      -6.036423      -164.2594
  21   2.0000      -6.032723      -164.1587
  22   2.0000      -6.032191      -164.1443
  23   2.0000      -6.028556      -164.0454
  24   2.0000      -1.007454       -27.4142
  25   2.0000      -0.981518       -26.7085
  26   2.0000      -0.901982       -24.5442
  27   2.0000      -0.897930       -24.4339
  28   2.0000      -0.869601       -23.6630
  29   2.0000      -0.849666       -23.1206
  30   2.0000      -0.840860       -22.8810
  31   2.0000      -0.815265       -22.1845
  32   2.0000      -0.784111       -21.3367
  33   2.0000      -0.775961       -21.1150
  34   2.0000      -0.708015       -19.2661
  35   2.0000      -0.701322       -19.0840
  36   2.0000      -0.686521       -18.6812
  37   2.0000      -0.661844       -18.0097
  38   2.0000      -0.640988       -17.4422
  39   2.0000      -0.614345       -16.7172
  40   2.0000      -0.592193       -16.1144
  41   2.0000      -0.567818       -15.4511
  42   2.0000      -0.561092       -15.2681
  43   2.0000      -0.556629       -15.1467
  44   2.0000      -0.532491       -14.4898
  45   2.0000      -0.528617       -14.3844
  46   2.0000      -0.517789       -14.0897
  47   2.0000      -0.508585       -13.8393
  48   2.0000      -0.502019       -13.6606
  49   2.0000      -0.497652       -13.5418
  50   2.0000      -0.494907       -13.4671
  51   2.0000      -0.486329       -13.2337
  52   2.0000      -0.467523       -12.7220
  53   2.0000      -0.464873       -12.6498
  54   2.0000      -0.458136       -12.4665
  55   2.0000      -0.447608       -12.1800
  56   2.0000      -0.445589       -12.1251
  57   2.0000      -0.438526       -11.9329
  58   2.0000      -0.431881       -11.7521
  59   2.0000      -0.425575       -11.5805
  60   2.0000      -0.421466       -11.4687
  61   2.0000      -0.417856       -11.3704
  62   2.0000      -0.414238       -11.2720
  63   2.0000      -0.353477        -9.6186
  64   2.0000      -0.332905        -9.0588
  65   2.0000      -0.327228        -8.9043
  66   2.0000      -0.290337        -7.9005
  67   0.0000       0.027345         0.7441
  68   0.0000       0.071612         1.9487
  69   0.0000       0.102521         2.7897
  70   0.0000       0.117531         3.1982
  71   0.0000       0.124019         3.3747

MULLIKEN ATOMIC CHARGES
-----------------------
   0 S :    0.112483
   1 C :   -0.150829
   2 C :   -0.081502
   3 C :    0.001479
   4 C :   -0.135765
   5 H :    0.018493
   6 C :    0.098386
   7 H :    0.042365
   8 H :    0.029294
   9 C :   -0.159344
  10 H :    0.031970
  11 H :    0.035101
  12 C :   -0.006259
  13 H :    0.035681
  14 H :    0.033879
  15 H :    0.022046
  16 S :    0.088976
  17 C :   -0.079274
  18 C :   -0.032379
  19 C :   -0.074250
  20 C :   -0.146943
  21 H :    0.021658
  22 C :    0.125454
  23 H :   -0.015550
  24 H :    0.031431
  25 C :   -0.132481
  26 H :    0.031867
  27 H :    0.041989
  28 C :   -0.016400
  29 H :    0.039172
  30 H :    0.037226
  31 H :    0.026586
  32 H :    0.076772
  33 H :    0.048668
Sum of atomic charges:   -0.0000000

LOEWDIN ATOMIC CHARGES
----------------------
   0 S :    0.397393
   1 C :   -0.206629
   2 C :   -0.058933
   3 C :   -0.069397
   4 C :   -0.194964
   5 H :    0.031070
   6 C :   -0.024282
   7 H :    0.031894
   8 H :    0.031434
   9 C :   -0.050854
  10 H :    0.021766
  11 H :    0.025914
  12 C :   -0.057051
  13 H :    0.030849
  14 H :    0.024096
  15 H :    0.018070
  16 S :    0.402733
  17 C :   -0.174514
  18 C :   -0.069001
  19 C :   -0.052608
  20 C :   -0.197445
  21 H :    0.029280
  22 C :   -0.029206
  23 H :    0.018034
  24 H :    0.033254
  25 C :   -0.039938
  26 H :    0.016352
  27 H :    0.028940
  28 C :   -0.049591
  29 H :    0.030715
  30 H :    0.023878
  31 H :    0.014900
  32 H :    0.042359
  33 H :    0.021484

  Mayer bond orders larger than 0.100000
B(  0-S ,  1-C ) :   1.1360 B(  0-S ,  4-C ) :   1.1355 B(  1-C ,  2-C ) :   1.6339
B(  1-C , 32-H ) :   0.9546 B(  2-C ,  3-C ) :   1.2105 B(  2-C ,  6-C ) :   1.0103
B(  3-C ,  4-C ) :   1.6048 B(  3-C ,  5-H ) :   0.9906 B(  4-C , 20-C ) :   1.0343
B(  6-C ,  7-H ) :   0.9440 B(  6-C ,  8-H ) :   0.9438 B(  6-C ,  9-C ) :   1.0513
B(  9-C , 10-H ) :   0.9588 B(  9-C , 11-H ) :   0.9588 B(  9-C , 12-C ) :   1.0812
B( 12-C , 13-H ) :   0.9738 B( 12-C , 14-H ) :   0.9736 B( 12-C , 15-H ) :   0.9756
B( 16-S , 17-C ) :   1.1589 B( 16-S , 20-C ) :   1.1272 B( 17-C , 18-C ) :   1.6145
B( 17-C , 33-H ) :   0.9754 B( 18-C , 19-C ) :   1.2116 B( 18-C , 21-H ) :   0.9913
B( 19-C , 20-C ) :   1.6253 B( 19-C , 22-C ) :   1.0288 B( 22-C , 23-H ) :   0.9344
B( 22-C , 24-H ) :   0.9242 B( 22-C , 25-C ) :   1.0411 B( 25-C , 26-H ) :   0.9543
B( 25-C , 27-H ) :   0.9667 B( 25-C , 28-C ) :   1.0715 B( 28-C , 29-H ) :   0.9801
B( 28-C , 30-H ) :   0.9783 B( 28-C , 31-H ) :   0.9769

Dispersion correction           -0.013699644
FINAL SINGLE POINT ENERGY     -1339.867492145950

DIPOLE MOMENT
-------------
                                X             Y             Z
Electronic contribution:     16.21503      16.81722      24.54874
Nuclear contribution   :    -16.57727     -17.03915     -25.12755
                        -----------------------------------------
Total Dipole Moment    :     -0.36223      -0.22194      -0.57882
                        -----------------------------------------
Magnitude (a.u.)       :      0.71798
Magnitude (Debye)      :      1.82497

Rotational constants in cm-1:     0.015672     0.009516     0.006268
Rotational constants in MHz :   469.831086   285.279492   187.897876

                             ****ORCA TERMINATED NORMALLY****
TOTAL RUN TIME: 0 days 0 hours 0 minutes 27 seconds 770 msec
