                         Program Version 4.2.1 -  RELEASE  -
|  1> ! wB97X-D3 SP def2-SVP
|  2> %pal
|  3> nprocs 16
|  4> end
|  5>
|  6> * xyz 0 1
|  7> S 	 -2.89052 	 -23.231 	 86.5471
|  8> C 	 -1.62889 	 -24.1155 	 85.795
|  9> C 	 -0.763818 	 -23.2442 	 85.1572
| 10> C 	 -1.01492 	 -21.8691 	 85.5349
| 11> C 	 -2.22275 	 -21.6926 	 86.222
| 12> H 	 -0.380119 	 -20.9792 	 85.2793
| 13> C 	 0.423731 	 -23.6943 	 84.3372
| 14> H 	 0.564754 	 -22.8315 	 83.6676
| 15> H 	 0.241449 	 -24.6216 	 83.8374
| 16> C 	 1.76902 	 -23.7337 	 85.0485
| 17> H 	 2.59728 	 -24.0486 	 84.3339
| 18> H 	 2.08855 	 -22.8096 	 85.4412
| 19> C 	 1.7612 	 -24.6885 	 86.2503
| 20> H 	 1.06231 	 -24.3831 	 87.0976
| 21> H 	 1.64517 	 -25.7104 	 85.9961
| 22> H 	 2.72801 	 -24.5539 	 86.7329
| 23> S 	 -2.85364 	 -20.6608 	 88.6584
| 24> C 	 -3.66098 	 -19.0939 	 88.6741
| 25> C 	 -3.61774 	 -18.4526 	 87.4431
| 26> C 	 -3.0533 	 -19.3001 	 86.467
| 27> C 	 -2.66984 	 -20.5379 	 86.926
| 28> H 	 -4.0173 	 -17.445 	 87.3523
| 29> C 	 -3.16631 	 -18.9256 	 85.009
| 30> H 	 -4.08329 	 -19.3952 	 84.646
| 31> H 	 -2.38254 	 -19.5755 	 84.5292
| 32> C 	 -3.18616 	 -17.4107 	 84.6414
| 33> H 	 -2.34139 	 -16.9626 	 85.1834
| 34> H 	 -4.12797 	 -17.0073 	 85.0325
| 35> C 	 -3.03715 	 -16.9907 	 83.2194
| 36> H 	 -3.04483 	 -15.8853 	 83.2395
| 37> H 	 -3.77984 	 -17.4107 	 82.501
| 38> H 	 -2.0582 	 -17.1747 	 82.8128
| 39> H 	 -1.54446 	 -25.194 	 85.7329
| 40> H 	 -4.22977 	 -18.7677 	 89.4938
| 41> *
| 42>
| 43>                          ****END OF INPUT****

CARTESIAN COORDINATES (ANGSTROEM)
---------------------------------
  S     -2.890520  -23.231000   86.547100
  C     -1.628890  -24.115500   85.795000
  C     -0.763818  -23.244200   85.157200
  C     -1.014920  -21.869100   85.534900
  C     -2.222750  -21.692600   86.222000
  H     -0.380119  -20.979200   85.279300
  C      0.423731  -23.694300   84.337200
  H      0.564754  -22.831500   83.667600
  H      0.241449  -24.621600   83.837400
  C      1.769020  -23.733700   85.048500
  H      2.597280  -24.048600   84.333900
  H      2.088550  -22.809600   85.441200
  C      1.761200  -24.688500   86.250300
  H      1.062310  -24.383100   87.097600
  H      1.645170  -25.710400   85.996100
  H      2.728010  -24.553900   86.732900
  S     -2.853640  -20.660800   88.658400
  C     -3.660980  -19.093900   88.674100
  C     -3.617740  -18.452600   87.443100
  C     -3.053300  -19.300100   86.467000
  C     -2.669840  -20.537900   86.926000
  H     -4.017300  -17.445000   87.352300
  C     -3.166310  -18.925600   85.009000
  H     -4.083290  -19.395200   84.646000
  H     -2.382540  -19.575500   84.529200
  C     -3.186160  -17.410700   84.641400
  H     -2.341390  -16.962600   85.183400
  H     -4.127970  -17.007300   85.032500
  C     -3.037150  -16.990700   83.219400
  H     -3.044830  -15.885300   83.239500
  H     -3.779840  -17.410700   82.501000
  H     -2.058200  -17.174700   82.812800
  H     -1.544460  -25.194000   85.732900
  H     -4.229770  -18.767700   89.493800

 Total Charge           Charge          ....    0
 Multiplicity           Mult            ....    1
 Number of Electrons    NEL             ....  134
 Basis Dimension        Dim             ....  322

ORBITAL ENERGIES
----------------

  NO   OCC          E(Eh)            E(eV)
   0   2.0000     -88.963858     -2420.8297
   1   2.0000     -88.963807     -2420.8283
   2   2.0000     -10.323317      -280.9117
   3   2.0000     -10.318157      -280.7713
   4   2.0000     -10.313668      -280.6492
   5   2.0000     -10.311486      -280.5898
   6   2.0000     -10.301151      -280.3086
   7   2.0000     -10.300546      -280.2921
   8   2.0000     -10.298074      -280.2248
   9   2.0000     -10.292245      -280.0662
  10   2.0000     -10.290264      -280.0123
  11   2.0000     -10.289646      -279.9955
  12   2.0000     -10.288875      -279.9745
  13   2.0000     -10.286227      -279.9025
  14   2.0000     -10.280327      -279.7419
  15   2.0000     -10.272603      -279.5317
  16   2.0000      -8.079816      -219.8630
  17   2.0000      -8.078608      -219.8301
  18   2.0000      -6.038216      -164.3082
  19   2.0000      -6.037027      -164.2759
  20   2.0000      -6.033892      -164.1906
  21   2.0000      -6.033180      -164.1712
  22   2.0000      -6.030852      -164.1078
  23   2.0000      -6.029372      -164.0675
  24   2.0000      -1.012962       -27.5641
  25   2.0000      -0.986852       -26.8536
  26   2.0000      -0.914992       -24.8982
  27   2.0000      -0.907065       -24.6825
  28   2.0000      -0.872417       -23.7397
  29   2.0000      -0.856696       -23.3119
  30   2.0000      -0.843131       -22.9428
  31   2.0000      -0.813327       -22.1317
  32   2.0000      -0.783403       -21.3175
  33   2.0000      -0.772673       -21.0255
  34   2.0000      -0.707729       -19.2583
  35   2.0000      -0.701166       -19.0797
  36   2.0000      -0.691920       -18.8281
  37   2.0000      -0.655095       -17.8260
  38   2.0000      -0.640657       -17.4332
  39   2.0000      -0.618235       -16.8230
  40   2.0000      -0.593904       -16.1610
  41   2.0000      -0.570764       -15.5313
  42   2.0000      -0.566858       -15.4250
  43   2.0000      -0.548239       -14.9183
  44   2.0000      -0.539276       -14.6745
  45   2.0000      -0.532938       -14.5020
  46   2.0000      -0.525185       -14.2910
  47   2.0000      -0.512203       -13.9377
  48   2.0000      -0.507795       -13.8178
  49   2.0000      -0.497427       -13.5357
  50   2.0000      -0.486879       -13.2486
  51   2.0000      -0.482225       -13.1220
  52   2.0000      -0.475270       -12.9327
  53   2.0000      -0.466945       -12.7062
  54   2.0000      -0.458659       -12.4807
  55   2.0000      -0.449464       -12.2305
  56   2.0000      -0.440160       -11.9774
  57   2.0000      -0.436115       -11.8673
  58   2.0000      -0.424130       -11.5412
  59   2.0000      -0.422156       -11.4874
  60   2.0000      -0.419663       -11.4196
  61   2.0000      -0.416833       -11.3426
  62   2.0000      -0.408730       -11.1221
  63   2.0000      -0.342142        -9.3102
  64   2.0000      -0.331910        -9.0317
  65   2.0000      -0.322819        -8.7843
  66   2.0000      -0.291660        -7.9365
  67   0.0000       0.028715         0.7814
  68   0.0000       0.071147         1.9360
  69   0.0000       0.114352         3.1117
  70   0.0000       0.116583         3.1724
  71   0.0000       0.132736         3.6119

MULLIKEN ATOMIC CHARGES
-----------------------
   0 S :    0.120352
   1 C :   -0.120360
   2 C :   -0.113584
   3 C :    0.016300
   4 C :   -0.187680
   5 H :    0.037763
   6 C :    0.102064
   7 H :    0.025728
   8 H :    0.024411
   9 C :   -0.068648
  10 H :    0.039145
  11 H :    0.013543
  12 C :   -0.078090
  13 H :    0.053263
  14 H :    0.025017
  15 H :    0.023845
  16 S :    0.115946
  17 C :   -0.082980
  18 C :   -0.049310
  19 C :   -0.028061
  20 C :   -0.150211
  21 H :    0.029366
  22 C :    0.063322
  23 H :    0.037424
  24 H :    0.017608
  25 C :   -0.100149
  26 H :    0.033686
  27 H :    0.035852
  28 C :   -0.021876
  29 H :    0.031692
  30 H :    0.042448
  31 H :    0.020687
  32 H :    0.050220
  33 H :    0.041268
Sum of atomic charges:    0.0000000

LOEWDIN ATOMIC CHARGES
----------------------
   0 S :    0.442396
   1 C :   -0.208259
   2 C :   -0.066600
   3 C :   -0.064578
   4 C :   -0.219727
   5 H :    0.038442
   6 C :   -0.032565
   7 H :    0.037507
   8 H :    0.027699
   9 C :   -0.038825
  10 H :    0.032901
  11 H :    0.016320
  12 C :   -0.074397
  13 H :    0.035888
  14 H :    0.014262
  15 H :    0.025494
  16 S :    0.403947
  17 C :   -0.166965
  18 C :   -0.071589
  19 C :   -0.056378
  20 C :   -0.211876
  21 H :    0.036264
  22 C :   -0.040783
  23 H :    0.035141
  24 H :    0.032196
  25 C :   -0.046317
  26 H :    0.029103
  27 H :    0.025294
  28 C :   -0.066381
  29 H :    0.033657
  30 H :    0.029502
  31 H :    0.021802
  32 H :    0.030682
  33 H :    0.016742

  Mayer bond orders larger than 0.100000
B(  0-S ,  1-C ) :   1.1593 B(  0-S ,  4-C ) :   1.1711 B(  1-C ,  2-C ) :   1.5689
B(  1-C , 32-H ) :   0.9719 B(  2-C ,  3-C ) :   1.2585 B(  2-C ,  6-C ) :   1.0353
B(  3-C ,  4-C ) :   1.5476 B(  3-C ,  5-H ) :   0.9773 B(  4-C , 20-C ) :   1.0486
B(  6-C ,  7-H ) :   0.9304 B(  6-C ,  8-H ) :   0.9446 B(  6-C ,  9-C ) :   1.0765
B(  9-C , 10-H ) :   0.9539 B(  9-C , 11-H ) :   0.9541 B(  9-C , 12-C ) :   1.0824
B( 12-C , 13-H ) :   0.9698 B( 12-C , 14-H ) :   0.9782 B( 12-C , 15-H ) :   0.9725
B( 16-S , 17-C ) :   1.1618 B( 16-S , 20-C ) :   1.1356 B( 17-C , 18-C ) :   1.6005
B( 17-C , 33-H ) :   0.9700 B( 18-C , 19-C ) :   1.2379 B( 18-C , 21-H ) :   0.9922
B( 19-C , 20-C ) :   1.5997 B( 19-C , 22-C ) :   1.0465 B( 22-C , 23-H ) :   0.9265
B( 22-C , 24-H ) :   0.9279 B( 22-C , 25-C ) :   1.0552 B( 25-C , 26-H ) :   0.9599
B( 25-C , 27-H ) :   0.9436 B( 25-C , 28-C ) :   1.1014 B( 28-C , 29-H ) :   0.9685
B( 28-C , 30-H ) :   0.9714 B( 28-C , 31-H ) :   0.9700

Dispersion correction           -0.013944614
FINAL SINGLE POINT ENERGY     -1339.874822647555

DIPOLE MOMENT
-------------
                                X             Y             Z
Electronic contribution:    -13.39361      -6.48858      17.11407
Nuclear contribution   :     13.63684       6.75230     -17.49120
                        -----------------------------------------
Total Dipole Moment    :      0.24323       0.26372      -0.37713
                        -----------------------------------------
Magnitude (a.u.)       :      0.52051
Magnitude (Debye)      :      1.32304

Rotational constants in cm-1:     0.019294     0.008034     0.006478
Rotational constants in MHz :   578.426558   240.854733   194.203890

                             ****ORCA TERMINATED NORMALLY****
TOTAL RUN TIME: 0 days 0 hours 0 minutes 33 seconds 164 msec
