                         Program Version 4.2.1 -  RELEASE  -
|  1> ! wB97X-D3 SP def2-SVP
|  2> %pal
|  3> nprocs 16
|  4> end
|  5>
|  6> * xyz 0 1
|  7> S 	 -7.66165 	 31.5946 	 47.1745
|  8> C 	 -8.10698 	 31.0387 	 48.7606
|  9> C 	 -7.30986 	 31.5962 	 49.726
| 10> C 	 -6.43367 	 32.5442 	 49.1944
| 11> C 	 -6.43887 	 32.6092 	 47.8357
| 12> H 	 -5.7514 	 33.0941 	 49.7159
| 13> C 	 -7.40988 	 31.2999 	 51.2241
| 14> H 	 -8.42108 	 30.8889 	 51.6153
| 15> H 	 -7.37554 	 32.2922 	 51.6932
| 16> C 	 -6.38115 	 30.3226 	 51.7769
| 17> H 	 -5.43688 	 30.7819 	 51.6647
| 18> H 	 -6.7394 	 30.1945 	 52.7916
| 19> C 	 -6.31701 	 29.0174 	 51.0039
| 20> H 	 -7.35215 	 28.6115 	 51.0098
| 21> H 	 -6.17072 	 29.05 	 49.972
| 22> H 	 -5.52118 	 28.4359 	 51.4261
| 23> S 	 -5.71578 	 33.0463 	 45.2107
| 24> C 	 -4.34287 	 34.0103 	 44.8632
| 25> C 	 -3.69234 	 34.4182 	 46.0422
| 26> C 	 -4.3278 	 34.0689 	 47.2462
| 27> C 	 -5.43895 	 33.2495 	 46.9782
| 28> H 	 -2.73379 	 34.8237 	 46.069
| 29> C 	 -3.73677 	 34.4262 	 48.5685
| 30> H 	 -2.70304 	 34.6947 	 48.6286
| 31> H 	 -3.79188 	 33.5726 	 49.3336
| 32> C 	 -4.42749 	 35.6524 	 49.2071
| 33> H 	 -5.52577 	 35.5509 	 48.9784
| 34> H 	 -4.08278 	 36.591 	 48.7048
| 35> C 	 -4.09255 	 35.6884 	 50.6685
| 36> H 	 -4.65475 	 34.9058 	 51.1471
| 37> H 	 -4.42814 	 36.6261 	 51.1345
| 38> H 	 -3.05184 	 35.6799 	 50.8108
| 39> H 	 -8.88305 	 30.2671 	 48.9386
| 40> H 	 -3.70872 	 33.9836 	 43.9918
| 41> *
| 42>
| 43>                          ****END OF INPUT****

CARTESIAN COORDINATES (ANGSTROEM)
---------------------------------
  S     -7.661650   31.594600   47.174500
  C     -8.106980   31.038700   48.760600
  C     -7.309860   31.596200   49.726000
  C     -6.433670   32.544200   49.194400
  C     -6.438870   32.609200   47.835700
  H     -5.751400   33.094100   49.715900
  C     -7.409880   31.299900   51.224100
  H     -8.421080   30.888900   51.615300
  H     -7.375540   32.292200   51.693200
  C     -6.381150   30.322600   51.776900
  H     -5.436880   30.781900   51.664700
  H     -6.739400   30.194500   52.791600
  C     -6.317010   29.017400   51.003900
  H     -7.352150   28.611500   51.009800
  H     -6.170720   29.050000   49.972000
  H     -5.521180   28.435900   51.426100
  S     -5.715780   33.046300   45.210700
  C     -4.342870   34.010300   44.863200
  C     -3.692340   34.418200   46.042200
  C     -4.327800   34.068900   47.246200
  C     -5.438950   33.249500   46.978200
  H     -2.733790   34.823700   46.069000
  C     -3.736770   34.426200   48.568500
  H     -2.703040   34.694700   48.628600
  H     -3.791880   33.572600   49.333600
  C     -4.427490   35.652400   49.207100
  H     -5.525770   35.550900   48.978400
  H     -4.082780   36.591000   48.704800
  C     -4.092550   35.688400   50.668500
  H     -4.654750   34.905800   51.147100
  H     -4.428140   36.626100   51.134500
  H     -3.051840   35.679900   50.810800
  H     -8.883050   30.267100   48.938600
  H     -3.708720   33.983600   43.991800

 Total Charge           Charge          ....    0
 Multiplicity           Mult            ....    1
 Number of Electrons    NEL             ....  134
 Basis Dimension        Dim             ....  322

ORBITAL ENERGIES
----------------

  NO   OCC          E(Eh)            E(eV)
   0   2.0000     -88.971273     -2421.0314
   1   2.0000     -88.966229     -2420.8942
   2   2.0000     -10.336200      -281.2623
   3   2.0000     -10.326782      -281.0060
   4   2.0000     -10.314322      -280.6670
   5   2.0000     -10.313479      -280.6440
   6   2.0000     -10.305421      -280.4248
   7   2.0000     -10.298062      -280.2245
   8   2.0000     -10.297841      -280.2185
   9   2.0000     -10.297447      -280.2078
  10   2.0000     -10.290243      -280.0117
  11   2.0000     -10.289228      -279.9841
  12   2.0000     -10.282475      -279.8004
  13   2.0000     -10.280948      -279.7588
  14   2.0000     -10.275904      -279.6216
  15   2.0000     -10.269406      -279.4447
  16   2.0000      -8.085516      -220.0181
  17   2.0000      -8.081859      -219.9186
  18   2.0000      -6.044106      -164.4685
  19   2.0000      -6.040314      -164.3653
  20   2.0000      -6.040089      -164.3592
  21   2.0000      -6.036293      -164.2559
  22   2.0000      -6.036246      -164.2546
  23   2.0000      -6.032596      -164.1553
  24   2.0000      -1.014709       -27.6116
  25   2.0000      -0.988398       -26.8957
  26   2.0000      -0.920146       -25.0385
  27   2.0000      -0.915991       -24.9254
  28   2.0000      -0.869212       -23.6525
  29   2.0000      -0.863603       -23.4998
  30   2.0000      -0.851501       -23.1705
  31   2.0000      -0.811949       -22.0943
  32   2.0000      -0.787316       -21.4240
  33   2.0000      -0.777389       -21.1538
  34   2.0000      -0.706631       -19.2284
  35   2.0000      -0.698170       -18.9982
  36   2.0000      -0.690942       -18.8015
  37   2.0000      -0.669479       -18.2175
  38   2.0000      -0.643597       -17.5132
  39   2.0000      -0.630291       -17.1511
  40   2.0000      -0.606363       -16.5000
  41   2.0000      -0.576718       -15.6933
  42   2.0000      -0.568775       -15.4772
  43   2.0000      -0.557734       -15.1767
  44   2.0000      -0.545874       -14.8540
  45   2.0000      -0.522417       -14.2157
  46   2.0000      -0.520836       -14.1727
  47   2.0000      -0.513392       -13.9701
  48   2.0000      -0.502741       -13.6803
  49   2.0000      -0.501090       -13.6353
  50   2.0000      -0.498024       -13.5519
  51   2.0000      -0.491786       -13.3822
  52   2.0000      -0.471580       -12.8323
  53   2.0000      -0.465829       -12.6759
  54   2.0000      -0.459076       -12.4921
  55   2.0000      -0.455042       -12.3823
  56   2.0000      -0.446875       -12.1601
  57   2.0000      -0.439907       -11.9705
  58   2.0000      -0.434658       -11.8277
  59   2.0000      -0.424889       -11.5618
  60   2.0000      -0.418369       -11.3844
  61   2.0000      -0.413577       -11.2540
  62   2.0000      -0.406818       -11.0701
  63   2.0000      -0.362352        -9.8601
  64   2.0000      -0.340539        -9.2665
  65   2.0000      -0.332132        -9.0378
  66   2.0000      -0.278424        -7.5763
  67   0.0000       0.014183         0.3859
  68   0.0000       0.086508         2.3540
  69   0.0000       0.090593         2.4652
  70   0.0000       0.114058         3.1037
  71   0.0000       0.135538         3.6882

MULLIKEN ATOMIC CHARGES
-----------------------
   0 S :    0.095319
   1 C :   -0.134116
   2 C :   -0.051202
   3 C :    0.029501
   4 C :   -0.060374
   5 H :   -0.084686
   6 C :   -0.009446
   7 H :    0.030410
   8 H :    0.032529
   9 C :   -0.025127
  10 H :    0.015877
  11 H :    0.037526
  12 C :   -0.033174
  13 H :    0.014458
  14 H :    0.028838
  15 H :    0.038777
  16 S :    0.099035
  17 C :   -0.056657
  18 C :   -0.038405
  19 C :   -0.017233
  20 C :   -0.122430
  21 H :   -0.007160
  22 C :   -0.011044
  23 H :    0.014578
  24 H :    0.045094
  25 C :   -0.116653
  26 H :    0.047797
  27 H :    0.034969
  28 C :   -0.000385
  29 H :    0.031031
  30 H :    0.029644
  31 H :    0.022103
  32 H :    0.058363
  33 H :    0.062242
Sum of atomic charges:   -0.0000000

LOEWDIN ATOMIC CHARGES
----------------------
   0 S :    0.412416
   1 C :   -0.200896
   2 C :   -0.063560
   3 C :   -0.063096
   4 C :   -0.190188
   5 H :    0.009682
   6 C :   -0.038632
   7 H :    0.033742
   8 H :    0.031038
   9 C :   -0.034906
  10 H :    0.015569
  11 H :    0.029009
  12 C :   -0.062102
  13 H :    0.027512
  14 H :    0.019186
  15 H :    0.027522
  16 S :    0.404662
  17 C :   -0.209070
  18 C :   -0.057251
  19 C :   -0.057824
  20 C :   -0.166424
  21 H :    0.019483
  22 C :   -0.039116
  23 H :    0.026214
  24 H :    0.034956
  25 C :   -0.043780
  26 H :    0.028145
  27 H :    0.026597
  28 C :   -0.059493
  29 H :    0.023710
  30 H :    0.029827
  31 H :    0.019468
  32 H :    0.034598
  33 H :    0.033001

  Mayer bond orders larger than 0.100000
B(  0-S ,  1-C ) :   1.1345 B(  0-S ,  4-C ) :   1.1490 B(  1-C ,  2-C ) :   1.6024
B(  1-C , 32-H ) :   0.9656 B(  2-C ,  3-C ) :   1.2597 B(  2-C ,  6-C ) :   1.0066
B(  3-C ,  4-C ) :   1.5463 B(  3-C ,  5-H ) :   1.0119 B(  4-C , 20-C ) :   1.0787
B(  6-C ,  7-H ) :   0.9521 B(  6-C ,  8-H ) :   0.9439 B(  6-C ,  9-C ) :   1.0691
B(  9-C , 10-H ) :   0.9529 B(  9-C , 11-H ) :   0.9570 B(  9-C , 12-C ) :   1.0842
B( 12-C , 13-H ) :   0.9715 B( 12-C , 14-H ) :   0.9692 B( 12-C , 15-H ) :   0.9730
B( 16-S , 17-C ) :   1.1625 B( 16-S , 20-C ) :   1.1391 B( 17-C , 18-C ) :   1.5809
B( 17-C , 20-C ) :   0.1068 B( 17-C , 33-H ) :   0.9583 B( 18-C , 19-C ) :   1.2922
B( 18-C , 21-H ) :   0.9859 B( 19-C , 20-C ) :   1.5526 B( 19-C , 22-C ) :   1.0357
B( 22-C , 23-H ) :   0.9326 B( 22-C , 24-H ) :   0.9484 B( 22-C , 25-C ) :   1.0308
B( 25-C , 26-H ) :   0.9636 B( 25-C , 27-H ) :   0.9520 B( 25-C , 28-C ) :   1.0841
B( 28-C , 29-H ) :   0.9748 B( 28-C , 30-H ) :   0.9671 B( 28-C , 31-H ) :   0.9663

Dispersion correction           -0.014840061
FINAL SINGLE POINT ENERGY     -1339.862181568872

DIPOLE MOMENT
-------------
                                X             Y             Z
Electronic contribution:     -8.19015      -1.14305     -27.57747
Nuclear contribution   :      8.68885       1.18568      28.20583
                        -----------------------------------------
Total Dipole Moment    :      0.49870       0.04263       0.62836
                        -----------------------------------------
Magnitude (a.u.)       :      0.80334
Magnitude (Debye)      :      2.04192

Rotational constants in cm-1:     0.017816     0.009999     0.007140
Rotational constants in MHz :   534.113694   299.757336   214.064259

                             ****ORCA TERMINATED NORMALLY****
TOTAL RUN TIME: 0 days 0 hours 0 minutes 35 seconds 391 msec
