                         Program Version 4.2.1 -  RELEASE  -
|  1> ! wB97X-D3 SP def2-SVP
|  2> %pal
|  3> nprocs 16
|  4> end
|  5>
|  6> * xyz 0 1
|  7> S 	 -70.3961 	 41.4101 	 125.696
|  8> C 	 -70.2377 	 42.4561 	 127.089
|  9> C 	 -69.8046 	 41.7923 	 128.208
| 10> C 	 -69.6682 	 40.3637 	 128.011
| 11> C 	 -69.9053 	 39.9957 	 126.701
| 12> H 	 -69.2562 	 39.6399 	 128.732
| 13> C 	 -69.6054 	 42.3833 	 129.552
| 14> H 	 -69.8381 	 41.7186 	 130.367
| 15> H 	 -70.3447 	 43.1446 	 129.499
| 16> C 	 -68.2763 	 42.9082 	 129.832
| 17> H 	 -67.3823 	 42.1956 	 129.68
| 18> H 	 -68.0049 	 43.6899 	 129.061
| 19> C 	 -68.098 	 43.693 	 131.163
| 20> H 	 -68.4859 	 43.0612 	 131.969
| 21> H 	 -67.0405 	 43.8647 	 131.407
| 22> H 	 -68.7678 	 44.5351 	 131.262
| 23> S 	 -71.1375 	 37.5794 	 126.401
| 24> C 	 -70.2887 	 36.2577 	 125.594
| 25> C 	 -69.0809 	 36.6347 	 125.067
| 26> C 	 -68.8426 	 38.0433 	 125.231
| 27> C 	 -69.8294 	 38.6485 	 126.082
| 28> H 	 -68.5581 	 35.924 	 124.4
| 29> C 	 -67.5085 	 38.7393 	 124.876
| 30> H 	 -66.9082 	 38.0538 	 125.519
| 31> H 	 -67.3867 	 39.7911 	 125.251
| 32> C 	 -67.155 	 38.6049 	 123.45
| 33> H 	 -67.9206 	 38.9131 	 122.743
| 34> H 	 -67.1362 	 37.5011 	 123.24
| 35> C 	 -65.9365 	 39.41 	 123.103
| 36> H 	 -65.1346 	 38.8855 	 123.668
| 37> H 	 -66.0077 	 40.4558 	 123.392
| 38> H 	 -65.4746 	 39.4005 	 122.075
| 39> H 	 -70.6009 	 43.4805 	 127.084
| 40> H 	 -70.747 	 35.2645 	 125.572
| 41> *
| 42>
| 43>                          ****END OF INPUT****

CARTESIAN COORDINATES (ANGSTROEM)
---------------------------------
  S    -70.396100   41.410100  125.696000
  C    -70.237700   42.456100  127.089000
  C    -69.804600   41.792300  128.208000
  C    -69.668200   40.363700  128.011000
  C    -69.905300   39.995700  126.701000
  H    -69.256200   39.639900  128.732000
  C    -69.605400   42.383300  129.552000
  H    -69.838100   41.718600  130.367000
  H    -70.344700   43.144600  129.499000
  C    -68.276300   42.908200  129.832000
  H    -67.382300   42.195600  129.680000
  H    -68.004900   43.689900  129.061000
  C    -68.098000   43.693000  131.163000
  H    -68.485900   43.061200  131.969000
  H    -67.040500   43.864700  131.407000
  H    -68.767800   44.535100  131.262000
  S    -71.137500   37.579400  126.401000
  C    -70.288700   36.257700  125.594000
  C    -69.080900   36.634700  125.067000
  C    -68.842600   38.043300  125.231000
  C    -69.829400   38.648500  126.082000
  H    -68.558100   35.924000  124.400000
  C    -67.508500   38.739300  124.876000
  H    -66.908200   38.053800  125.519000
  H    -67.386700   39.791100  125.251000
  C    -67.155000   38.604900  123.450000
  H    -67.920600   38.913100  122.743000
  H    -67.136200   37.501100  123.240000
  C    -65.936500   39.410000  123.103000
  H    -65.134600   38.885500  123.668000
  H    -66.007700   40.455800  123.392000
  H    -65.474600   39.400500  122.075000
  H    -70.600900   43.480500  127.084000
  H    -70.747000   35.264500  125.572000

 Total Charge           Charge          ....    0
 Multiplicity           Mult            ....    1
 Number of Electrons    NEL             ....  134
 Basis Dimension        Dim             ....  322

ORBITAL ENERGIES
----------------

  NO   OCC          E(Eh)            E(eV)
   0   2.0000     -88.964780     -2420.8547
   1   2.0000     -88.964743     -2420.8537
   2   2.0000     -10.334033      -281.2033
   3   2.0000     -10.326073      -280.9867
   4   2.0000     -10.319562      -280.8095
   5   2.0000     -10.314374      -280.6684
   6   2.0000     -10.311779      -280.5978
   7   2.0000     -10.300002      -280.2773
   8   2.0000     -10.299938      -280.2756
   9   2.0000     -10.298630      -280.2400
  10   2.0000     -10.294544      -280.1288
  11   2.0000     -10.290992      -280.0321
  12   2.0000     -10.282744      -279.8077
  13   2.0000     -10.282617      -279.8042
  14   2.0000     -10.279703      -279.7249
  15   2.0000     -10.279387      -279.7163
  16   2.0000      -8.079835      -219.8635
  17   2.0000      -8.078788      -219.8350
  18   2.0000      -6.038153      -164.3065
  19   2.0000      -6.037361      -164.2849
  20   2.0000      -6.034290      -164.2014
  21   2.0000      -6.033454      -164.1786
  22   2.0000      -6.030780      -164.1059
  23   2.0000      -6.029469      -164.0702
  24   2.0000      -1.000767       -27.2323
  25   2.0000      -0.981841       -26.7172
  26   2.0000      -0.919902       -25.0318
  27   2.0000      -0.916645       -24.9432
  28   2.0000      -0.867332       -23.6013
  29   2.0000      -0.848826       -23.0977
  30   2.0000      -0.845598       -23.0099
  31   2.0000      -0.816784       -22.2258
  32   2.0000      -0.782183       -21.2843
  33   2.0000      -0.766002       -20.8440
  34   2.0000      -0.701528       -19.0895
  35   2.0000      -0.696473       -18.9520
  36   2.0000      -0.692392       -18.8409
  37   2.0000      -0.654175       -17.8010
  38   2.0000      -0.642026       -17.4704
  39   2.0000      -0.617944       -16.8151
  40   2.0000      -0.599015       -16.3000
  41   2.0000      -0.578300       -15.7363
  42   2.0000      -0.565153       -15.3786
  43   2.0000      -0.553585       -15.0638
  44   2.0000      -0.531691       -14.4680
  45   2.0000      -0.524143       -14.2627
  46   2.0000      -0.517699       -14.0873
  47   2.0000      -0.512545       -13.9471
  48   2.0000      -0.506008       -13.7692
  49   2.0000      -0.501765       -13.6537
  50   2.0000      -0.489095       -13.3089
  51   2.0000      -0.475835       -12.9481
  52   2.0000      -0.470309       -12.7978
  53   2.0000      -0.461698       -12.5634
  54   2.0000      -0.456767       -12.4293
  55   2.0000      -0.456358       -12.4181
  56   2.0000      -0.447248       -12.1702
  57   2.0000      -0.438584       -11.9345
  58   2.0000      -0.432161       -11.7597
  59   2.0000      -0.423802       -11.5322
  60   2.0000      -0.417893       -11.3714
  61   2.0000      -0.400574       -10.9002
  62   2.0000      -0.394642       -10.7388
  63   2.0000      -0.337746        -9.1905
  64   2.0000      -0.335968        -9.1421
  65   2.0000      -0.319931        -8.7058
  66   2.0000      -0.300939        -8.1890
  67   0.0000       0.042991         1.1698
  68   0.0000       0.055730         1.5165
  69   0.0000       0.107703         2.9307
  70   0.0000       0.119423         3.2497
  71   0.0000       0.124173         3.3789

MULLIKEN ATOMIC CHARGES
-----------------------
   0 S :    0.106279
   1 C :   -0.128875
   2 C :   -0.096359
   3 C :    0.045464
   4 C :   -0.170493
   5 H :    0.030816
   6 C :    0.125560
   7 H :    0.017074
   8 H :    0.008621
   9 C :   -0.124946
  10 H :    0.037563
  11 H :    0.023934
  12 C :   -0.026231
  13 H :    0.010113
  14 H :    0.046153
  15 H :    0.027145
  16 S :    0.120753
  17 C :   -0.112949
  18 C :   -0.037712
  19 C :   -0.020604
  20 C :   -0.190698
  21 H :    0.043182
  22 C :    0.035782
  23 H :    0.048397
  24 H :    0.044607
  25 C :   -0.079100
  26 H :    0.028240
  27 H :    0.023387
  28 C :   -0.055649
  29 H :    0.020786
  30 H :    0.041900
  31 H :    0.040146
  32 H :    0.052528
  33 H :    0.065185
Sum of atomic charges:    0.0000000

LOEWDIN ATOMIC CHARGES
----------------------
   0 S :    0.381834
   1 C :   -0.196574
   2 C :   -0.059424
   3 C :   -0.057458
   4 C :   -0.179497
   5 H :    0.040840
   6 C :   -0.036927
   7 H :    0.030041
   8 H :    0.031432
   9 C :   -0.054293
  10 H :    0.031893
  11 H :    0.025487
  12 C :   -0.068677
  13 H :    0.020450
  14 H :    0.032172
  15 H :    0.023598
  16 S :    0.418878
  17 C :   -0.178442
  18 C :   -0.083410
  19 C :   -0.046396
  20 C :   -0.226765
  21 H :    0.040280
  22 C :   -0.033725
  23 H :    0.043242
  24 H :    0.035451
  25 C :   -0.056434
  26 H :    0.023354
  27 H :    0.027853
  28 C :   -0.074984
  29 H :    0.027718
  30 H :    0.027248
  31 H :    0.031730
  32 H :    0.029519
  33 H :    0.029986

  Mayer bond orders larger than 0.100000
B(  0-S ,  1-C ) :   1.1295 B(  0-S ,  4-C ) :   1.1355 B(  1-C ,  2-C ) :   1.6432
B(  1-C , 32-H ) :   0.9623 B(  2-C ,  3-C ) :   1.2110 B(  2-C ,  6-C ) :   1.0190
B(  3-C ,  4-C ) :   1.6221 B(  3-C ,  5-H ) :   0.9874 B(  4-C , 20-C ) :   1.0009
B(  6-C ,  7-H ) :   0.9351 B(  6-C ,  8-H ) :   0.9274 B(  6-C ,  9-C ) :   1.0736
B(  9-C , 10-H ) :   0.9528 B(  9-C , 11-H ) :   0.9507 B(  9-C , 12-C ) :   1.0792
B( 12-C , 13-H ) :   0.9709 B( 12-C , 14-H ) :   0.9740 B( 12-C , 15-H ) :   0.9730
B( 16-S , 17-C ) :   1.1643 B( 16-S , 20-C ) :   1.1708 B( 17-C , 18-C ) :   1.6129
B( 17-C , 20-C ) :   0.1004 B( 17-C , 33-H ) :   0.9656 B( 18-C , 19-C ) :   1.2462
B( 18-C , 21-H ) :   0.9769 B( 19-C , 20-C ) :   1.5671 B( 19-C , 22-C ) :   1.0157
B( 22-C , 23-H ) :   0.9384 B( 22-C , 24-H ) :   0.9468 B( 22-C , 25-C ) :   1.0434
B( 25-C , 26-H ) :   0.9594 B( 25-C , 27-H ) :   0.9510 B( 25-C , 28-C ) :   1.0773
B( 28-C , 29-H ) :   0.9710 B( 28-C , 30-H ) :   0.9727 B( 28-C , 31-H ) :   0.9741

Dispersion correction           -0.013610077
FINAL SINGLE POINT ENERGY     -1339.863092124850

DIPOLE MOMENT
-------------
                                X             Y             Z
Electronic contribution:    -20.73627     -10.58296      -6.25972
Nuclear contribution   :     21.09446      10.54850       6.47795
                        -----------------------------------------
Total Dipole Moment    :      0.35819      -0.03447       0.21822
                        -----------------------------------------
Magnitude (a.u.)       :      0.42084
Magnitude (Debye)      :      1.06970

Rotational constants in cm-1:     0.018634     0.007475     0.006368
Rotational constants in MHz :   558.621384   224.093436   190.911589

                             ****ORCA TERMINATED NORMALLY****
TOTAL RUN TIME: 0 days 0 hours 0 minutes 32 seconds 854 msec
