                         Program Version 4.2.1 -  RELEASE  -
|  1> ! wB97X-D3 SP def2-SVP
|  2> %pal
|  3> nprocs 16
|  4> end
|  5>
|  6> * xyz 0 1
|  7> S 	 -68.8392 	 37.7244 	 118.161
|  8> C 	 -70.3581 	 37.5075 	 119.107
|  9> C 	 -70.7076 	 38.6092 	 119.848
| 10> C 	 -69.74 	 39.5891 	 119.714
| 11> C 	 -68.6585 	 39.2793 	 118.883
| 12> H 	 -69.792 	 40.6078 	 120.181
| 13> C 	 -71.9959 	 38.8016 	 120.649
| 14> H 	 -72.2612 	 37.8757 	 121.147
| 15> H 	 -72.878 	 38.9416 	 119.983
| 16> C 	 -72.1248 	 39.9904 	 121.682
| 17> H 	 -71.3738 	 39.9112 	 122.46
| 18> H 	 -72.0366 	 40.9646 	 121.21
| 19> C 	 -73.3807 	 40.0099 	 122.529
| 20> H 	 -74.3502 	 40.0133 	 121.973
| 21> H 	 -73.4008 	 39.1021 	 123.103
| 22> H 	 -73.4568 	 40.8494 	 123.227
| 23> S 	 -65.9623 	 39.3519 	 118.163
| 24> C 	 -65.1601 	 40.9111 	 118.346
| 25> C 	 -66.0377 	 41.9262 	 118.656
| 26> C 	 -67.4124 	 41.4974 	 118.659
| 27> C 	 -67.5478 	 40.1408 	 118.474
| 28> H 	 -65.6117 	 42.9421 	 118.691
| 29> C 	 -68.6039 	 42.4703 	 118.755
| 30> H 	 -68.5548 	 42.9222 	 119.727
| 31> H 	 -69.5363 	 41.9421 	 118.628
| 32> C 	 -68.6523 	 43.5212 	 117.633
| 33> H 	 -69.0082 	 43.0617 	 116.719
| 34> H 	 -67.6986 	 43.9484 	 117.419
| 35> C 	 -69.6977 	 44.5994 	 117.927
| 36> H 	 -70.7245 	 44.2159 	 118.01
| 37> H 	 -69.7939 	 45.1936 	 117.087
| 38> H 	 -69.5703 	 45.257 	 118.812
| 39> H 	 -70.9715 	 36.6631 	 119.017
| 40> H 	 -64.0991 	 41.1134 	 118.329
| 41> *
| 42>
| 43>                          ****END OF INPUT****

CARTESIAN COORDINATES (ANGSTROEM)
---------------------------------
  S    -68.839200   37.724400  118.161000
  C    -70.358100   37.507500  119.107000
  C    -70.707600   38.609200  119.848000
  C    -69.740000   39.589100  119.714000
  C    -68.658500   39.279300  118.883000
  H    -69.792000   40.607800  120.181000
  C    -71.995900   38.801600  120.649000
  H    -72.261200   37.875700  121.147000
  H    -72.878000   38.941600  119.983000
  C    -72.124800   39.990400  121.682000
  H    -71.373800   39.911200  122.460000
  H    -72.036600   40.964600  121.210000
  C    -73.380700   40.009900  122.529000
  H    -74.350200   40.013300  121.973000
  H    -73.400800   39.102100  123.103000
  H    -73.456800   40.849400  123.227000
  S    -65.962300   39.351900  118.163000
  C    -65.160100   40.911100  118.346000
  C    -66.037700   41.926200  118.656000
  C    -67.412400   41.497400  118.659000
  C    -67.547800   40.140800  118.474000
  H    -65.611700   42.942100  118.691000
  C    -68.603900   42.470300  118.755000
  H    -68.554800   42.922200  119.727000
  H    -69.536300   41.942100  118.628000
  C    -68.652300   43.521200  117.633000
  H    -69.008200   43.061700  116.719000
  H    -67.698600   43.948400  117.419000
  C    -69.697700   44.599400  117.927000
  H    -70.724500   44.215900  118.010000
  H    -69.793900   45.193600  117.087000
  H    -69.570300   45.257000  118.812000
  H    -70.971500   36.663100  119.017000
  H    -64.099100   41.113400  118.329000

 Total Charge           Charge          ....    0
 Multiplicity           Mult            ....    1
 Number of Electrons    NEL             ....  134
 Basis Dimension        Dim             ....  322

ORBITAL ENERGIES
----------------

  NO   OCC          E(Eh)            E(eV)
   0   2.0000     -88.968223     -2420.9484
   1   2.0000     -88.965481     -2420.8738
   2   2.0000     -10.328624      -281.0561
   3   2.0000     -10.327337      -281.0211
   4   2.0000     -10.319397      -280.8051
   5   2.0000     -10.310731      -280.5692
   6   2.0000     -10.305063      -280.4150
   7   2.0000     -10.302562      -280.3470
   8   2.0000     -10.301324      -280.3133
   9   2.0000     -10.297057      -280.1972
  10   2.0000     -10.291589      -280.0484
  11   2.0000     -10.291139      -280.0361
  12   2.0000     -10.290197      -280.0105
  13   2.0000     -10.284434      -279.8537
  14   2.0000     -10.281391      -279.7709
  15   2.0000     -10.274362      -279.5796
  16   2.0000      -8.082612      -219.9390
  17   2.0000      -8.079483      -219.8539
  18   2.0000      -6.041030      -164.3848
  19   2.0000      -6.038133      -164.3060
  20   2.0000      -6.037324      -164.2839
  21   2.0000      -6.034247      -164.2002
  22   2.0000      -6.033350      -164.1758
  23   2.0000      -6.029990      -164.0844
  24   2.0000      -1.005067       -27.3493
  25   2.0000      -0.980756       -26.6877
  26   2.0000      -0.910414       -24.7736
  27   2.0000      -0.908853       -24.7311
  28   2.0000      -0.872867       -23.7519
  29   2.0000      -0.854720       -23.2581
  30   2.0000      -0.842279       -22.9196
  31   2.0000      -0.811760       -22.0891
  32   2.0000      -0.786707       -21.4074
  33   2.0000      -0.775633       -21.1060
  34   2.0000      -0.711252       -19.3541
  35   2.0000      -0.702254       -19.1093
  36   2.0000      -0.694278       -18.8923
  37   2.0000      -0.655925       -17.8486
  38   2.0000      -0.640314       -17.4238
  39   2.0000      -0.620678       -16.8895
  40   2.0000      -0.595795       -16.2124
  41   2.0000      -0.570572       -15.5260
  42   2.0000      -0.569215       -15.4891
  43   2.0000      -0.563234       -15.3264
  44   2.0000      -0.526564       -14.3285
  45   2.0000      -0.524630       -14.2759
  46   2.0000      -0.517204       -14.0738
  47   2.0000      -0.504602       -13.7309
  48   2.0000      -0.499889       -13.6027
  49   2.0000      -0.498678       -13.5697
  50   2.0000      -0.491977       -13.3874
  51   2.0000      -0.478491       -13.0204
  52   2.0000      -0.471262       -12.8237
  53   2.0000      -0.468402       -12.7459
  54   2.0000      -0.455930       -12.4065
  55   2.0000      -0.453392       -12.3374
  56   2.0000      -0.451250       -12.2791
  57   2.0000      -0.436595       -11.8804
  58   2.0000      -0.432962       -11.7815
  59   2.0000      -0.429673       -11.6920
  60   2.0000      -0.425697       -11.5838
  61   2.0000      -0.418996       -11.4015
  62   2.0000      -0.412673       -11.2294
  63   2.0000      -0.354886        -9.6570
  64   2.0000      -0.337554        -9.1853
  65   2.0000      -0.331038        -9.0080
  66   2.0000      -0.279950        -7.6178
  67   0.0000       0.019908         0.5417
  68   0.0000       0.077865         2.1188
  69   0.0000       0.091736         2.4963
  70   0.0000       0.120976         3.2919
  71   0.0000       0.140039         3.8106

MULLIKEN ATOMIC CHARGES
-----------------------
   0 S :    0.101709
   1 C :   -0.116636
   2 C :   -0.024912
   3 C :   -0.043909
   4 C :   -0.113623
   5 H :    0.027235
   6 C :    0.052096
   7 H :    0.020651
   8 H :    0.041800
   9 C :   -0.080338
  10 H :    0.033631
  11 H :    0.036448
  12 C :   -0.059746
  13 H :    0.027410
  14 H :    0.022969
  15 H :    0.039135
  16 S :    0.084001
  17 C :   -0.086611
  18 C :   -0.043594
  19 C :   -0.085029
  20 C :   -0.094609
  21 H :    0.031001
  22 C :    0.060558
  23 H :    0.031412
  24 H :    0.031743
  25 C :   -0.045253
  26 H :    0.028935
  27 H :    0.021630
  28 C :   -0.038362
  29 H :    0.018709
  30 H :    0.012170
  31 H :    0.034779
  32 H :    0.018189
  33 H :    0.056411
Sum of atomic charges:   -0.0000000

LOEWDIN ATOMIC CHARGES
----------------------
   0 S :    0.398814
   1 C :   -0.172599
   2 C :   -0.061775
   3 C :   -0.077077
   4 C :   -0.192336
   5 H :    0.038260
   6 C :   -0.030494
   7 H :    0.030200
   8 H :    0.039364
   9 C :   -0.043441
  10 H :    0.026366
  11 H :    0.021848
  12 C :   -0.066735
  13 H :    0.023963
  14 H :    0.021277
  15 H :    0.030047
  16 S :    0.370037
  17 C :   -0.173784
  18 C :   -0.075845
  19 C :   -0.053017
  20 C :   -0.185846
  21 H :    0.037299
  22 C :   -0.028147
  23 H :    0.027474
  24 H :    0.030912
  25 C :   -0.029255
  26 H :    0.029850
  27 H :    0.016618
  28 C :   -0.065659
  29 H :    0.026282
  30 H :    0.016895
  31 H :    0.026208
  32 H :    0.013081
  33 H :    0.031212

  Mayer bond orders larger than 0.100000
B(  0-S ,  1-C ) :   1.1318 B(  0-S ,  4-C ) :   1.1573 B(  1-C ,  2-C ) :   1.6089
B(  1-C ,  4-C ) :   0.1050 B(  1-C , 32-H ) :   0.9768 B(  2-C ,  3-C ) :   1.2856
B(  2-C ,  6-C ) :   1.0014 B(  3-C ,  4-C ) :   1.5534 B(  3-C ,  5-H ) :   0.9733
B(  4-C , 20-C ) :   1.0407 B(  6-C ,  7-H ) :   0.9414 B(  6-C ,  8-H ) :   0.9351
B(  6-C ,  9-C ) :   1.0687 B(  9-C , 10-H ) :   0.9574 B(  9-C , 11-H ) :   0.9496
B(  9-C , 12-C ) :   1.0848 B( 12-C , 13-H ) :   0.9737 B( 12-C , 14-H ) :   0.9754
B( 12-C , 15-H ) :   0.9737 B( 16-S , 17-C ) :   1.1418 B( 16-S , 20-C ) :   1.0987
B( 17-C , 18-C ) :   1.6536 B( 17-C , 33-H ) :   0.9634 B( 18-C , 19-C ) :   1.2118
B( 18-C , 21-H ) :   0.9837 B( 19-C , 20-C ) :   1.6506 B( 19-C , 22-C ) :   1.0231
B( 22-C , 23-H ) :   0.9361 B( 22-C , 24-H ) :   0.9393 B( 22-C , 25-C ) :   1.0620
B( 25-C , 26-H ) :   0.9520 B( 25-C , 27-H ) :   0.9597 B( 25-C , 28-C ) :   1.0864
B( 28-C , 29-H ) :   0.9708 B( 28-C , 30-H ) :   0.9712 B( 28-C , 31-H ) :   0.9760

Dispersion correction           -0.013431576
FINAL SINGLE POINT ENERGY     -1339.875113739632

DIPOLE MOMENT
-------------
                                X             Y             Z
Electronic contribution:     23.34605     -20.80860     -11.41689
Nuclear contribution   :    -23.81564      21.45557      11.67998
                        -----------------------------------------
Total Dipole Moment    :     -0.46959       0.64697       0.26309
                        -----------------------------------------
Magnitude (a.u.)       :      0.84160
Magnitude (Debye)      :      2.13919

Rotational constants in cm-1:     0.015755     0.009127     0.006430
Rotational constants in MHz :   472.308794   273.631633   192.774537

                             ****ORCA TERMINATED NORMALLY****
TOTAL RUN TIME: 0 days 0 hours 0 minutes 32 seconds 966 msec
