                         Program Version 4.2.1 -  RELEASE  -
|  1> ! wB97X-D3 SP def2-SVP
|  2> %pal
|  3> nprocs 16
|  4> end
|  5>
|  6> * xyz 0 1
|  7> S 	 -64.2755 	 48.2463 	 124.687
|  8> C 	 -63.571 	 46.6436 	 124.451
|  9> C 	 -62.2 	 46.7223 	 124.253
| 10> C 	 -61.7302 	 48.1173 	 124.39
| 11> C 	 -62.7258 	 48.9766 	 124.706
| 12> H 	 -60.7724 	 48.5371 	 124.17
| 13> C 	 -61.1822 	 45.5912 	 123.909
| 14> H 	 -61.3855 	 44.5871 	 124.346
| 15> H 	 -60.2 	 45.8575 	 124.32
| 16> C 	 -61.0304 	 45.2754 	 122.421
| 17> H 	 -62.0413 	 45.1812 	 121.983
| 18> H 	 -60.5056 	 46.0781 	 122.001
| 19> C 	 -60.3026 	 43.9744 	 122.12
| 20> H 	 -60.8453 	 42.9931 	 122.191
| 21> H 	 -60.0443 	 43.9797 	 121.056
| 22> H 	 -59.3233 	 43.9365 	 122.657
| 23> S 	 -63.798 	 51.4295 	 124.059
| 24> C 	 -62.8359 	 52.855 	 124.221
| 25> C 	 -61.6195 	 52.5263 	 124.785
| 26> C 	 -61.45 	 51.141 	 125.142
| 27> C 	 -62.5202 	 50.4204 	 124.67
| 28> H 	 -60.9016 	 53.2492 	 124.928
| 29> C 	 -60.2787 	 50.7582 	 125.979
| 30> H 	 -60.3491 	 49.7137 	 126.141
| 31> H 	 -60.505 	 51.2134 	 126.986
| 32> C 	 -58.8723 	 51.1388 	 125.543
| 33> H 	 -58.8762 	 52.2188 	 125.68
| 34> H 	 -58.5762 	 50.8451 	 124.531
| 35> C 	 -57.8037 	 50.5328 	 126.454
| 36> H 	 -57.8181 	 50.9136 	 127.529
| 37> H 	 -56.8228 	 50.8328 	 126.036
| 38> H 	 -57.9258 	 49.4183 	 126.445
| 39> H 	 -64.1554 	 45.7291 	 124.393
| 40> H 	 -63.1409 	 53.8548 	 124.194
| 41> *
| 42>
| 43>                          ****END OF INPUT****

CARTESIAN COORDINATES (ANGSTROEM)
---------------------------------
  S    -64.275500   48.246300  124.687000
  C    -63.571000   46.643600  124.451000
  C    -62.200000   46.722300  124.253000
  C    -61.730200   48.117300  124.390000
  C    -62.725800   48.976600  124.706000
  H    -60.772400   48.537100  124.170000
  C    -61.182200   45.591200  123.909000
  H    -61.385500   44.587100  124.346000
  H    -60.200000   45.857500  124.320000
  C    -61.030400   45.275400  122.421000
  H    -62.041300   45.181200  121.983000
  H    -60.505600   46.078100  122.001000
  C    -60.302600   43.974400  122.120000
  H    -60.845300   42.993100  122.191000
  H    -60.044300   43.979700  121.056000
  H    -59.323300   43.936500  122.657000
  S    -63.798000   51.429500  124.059000
  C    -62.835900   52.855000  124.221000
  C    -61.619500   52.526300  124.785000
  C    -61.450000   51.141000  125.142000
  C    -62.520200   50.420400  124.670000
  H    -60.901600   53.249200  124.928000
  C    -60.278700   50.758200  125.979000
  H    -60.349100   49.713700  126.141000
  H    -60.505000   51.213400  126.986000
  C    -58.872300   51.138800  125.543000
  H    -58.876200   52.218800  125.680000
  H    -58.576200   50.845100  124.531000
  C    -57.803700   50.532800  126.454000
  H    -57.818100   50.913600  127.529000
  H    -56.822800   50.832800  126.036000
  H    -57.925800   49.418300  126.445000
  H    -64.155400   45.729100  124.393000
  H    -63.140900   53.854800  124.194000

 Total Charge           Charge          ....    0
 Multiplicity           Mult            ....    1
 Number of Electrons    NEL             ....  134
 Basis Dimension        Dim             ....  322

ORBITAL ENERGIES
----------------

  NO   OCC          E(Eh)            E(eV)
   0   2.0000     -88.966672     -2420.9062
   1   2.0000     -88.964453     -2420.8458
   2   2.0000     -10.324200      -280.9358
   3   2.0000     -10.322752      -280.8964
   4   2.0000     -10.318745      -280.7873
   5   2.0000     -10.312319      -280.6125
   6   2.0000     -10.309330      -280.5311
   7   2.0000     -10.298214      -280.2286
   8   2.0000     -10.296960      -280.1945
   9   2.0000     -10.291677      -280.0508
  10   2.0000     -10.290594      -280.0213
  11   2.0000     -10.290245      -280.0118
  12   2.0000     -10.290207      -280.0108
  13   2.0000     -10.284303      -279.8501
  14   2.0000     -10.284277      -279.8494
  15   2.0000     -10.282501      -279.8011
  16   2.0000      -8.081928      -219.9205
  17   2.0000      -8.079780      -219.8620
  18   2.0000      -6.040565      -164.3721
  19   2.0000      -6.038393      -164.3130
  20   2.0000      -6.036497      -164.2614
  21   2.0000      -6.034239      -164.2000
  22   2.0000      -6.032392      -164.1497
  23   2.0000      -6.030379      -164.0949
  24   2.0000      -1.012134       -27.5416
  25   2.0000      -0.985461       -26.8157
  26   2.0000      -0.916574       -24.9413
  27   2.0000      -0.910646       -24.7799
  28   2.0000      -0.872667       -23.7465
  29   2.0000      -0.856904       -23.3175
  30   2.0000      -0.844239       -22.9729
  31   2.0000      -0.814977       -22.1766
  32   2.0000      -0.781426       -21.2637
  33   2.0000      -0.774650       -21.0793
  34   2.0000      -0.702548       -19.1173
  35   2.0000      -0.698553       -19.0086
  36   2.0000      -0.694924       -18.9098
  37   2.0000      -0.664669       -18.0866
  38   2.0000      -0.643974       -17.5234
  39   2.0000      -0.618811       -16.8387
  40   2.0000      -0.599137       -16.3034
  41   2.0000      -0.576221       -15.6798
  42   2.0000      -0.572725       -15.5846
  43   2.0000      -0.560679       -15.2569
  44   2.0000      -0.530477       -14.4350
  45   2.0000      -0.523788       -14.2530
  46   2.0000      -0.519252       -14.1296
  47   2.0000      -0.511895       -13.9294
  48   2.0000      -0.506278       -13.7765
  49   2.0000      -0.496630       -13.5140
  50   2.0000      -0.495061       -13.4713
  51   2.0000      -0.478037       -13.0081
  52   2.0000      -0.476436       -12.9645
  53   2.0000      -0.462805       -12.5936
  54   2.0000      -0.459711       -12.5094
  55   2.0000      -0.451658       -12.2903
  56   2.0000      -0.443333       -12.0637
  57   2.0000      -0.437665       -11.9095
  58   2.0000      -0.431282       -11.7358
  59   2.0000      -0.424613       -11.5543
  60   2.0000      -0.422822       -11.5056
  61   2.0000      -0.419092       -11.4041
  62   2.0000      -0.414495       -11.2790
  63   2.0000      -0.357127        -9.7179
  64   2.0000      -0.330945        -9.0055
  65   2.0000      -0.325978        -8.8703
  66   2.0000      -0.289562        -7.8794
  67   0.0000       0.029339         0.7984
  68   0.0000       0.081995         2.2312
  69   0.0000       0.103950         2.8286
  70   0.0000       0.115262         3.1364
  71   0.0000       0.127113         3.4589

MULLIKEN ATOMIC CHARGES
-----------------------
   0 S :    0.096501
   1 C :   -0.124491
   2 C :   -0.054494
   3 C :   -0.007504
   4 C :   -0.103397
   5 H :    0.012573
   6 C :    0.039832
   7 H :    0.026353
   8 H :    0.021521
   9 C :   -0.044983
  10 H :    0.034274
  11 H :    0.017690
  12 C :   -0.082904
  13 H :    0.046248
  14 H :    0.030973
  15 H :    0.034299
  16 S :    0.102155
  17 C :   -0.055392
  18 C :   -0.027169
  19 C :   -0.041725
  20 C :   -0.144985
  21 H :   -0.015665
  22 C :    0.059284
  23 H :   -0.004928
  24 H :    0.047152
  25 C :   -0.069126
  26 H :    0.032418
  27 H :    0.037758
  28 C :   -0.079172
  29 H :    0.042473
  30 H :    0.040012
  31 H :    0.041989
  32 H :    0.052101
  33 H :    0.040329
Sum of atomic charges:   -0.0000000

LOEWDIN ATOMIC CHARGES
----------------------
   0 S :    0.404868
   1 C :   -0.191131
   2 C :   -0.051578
   3 C :   -0.062574
   4 C :   -0.199300
   5 H :    0.028236
   6 C :   -0.036388
   7 H :    0.031630
   8 H :    0.027408
   9 C :   -0.039466
  10 H :    0.029630
  11 H :    0.016955
  12 C :   -0.078674
  13 H :    0.031606
  14 H :    0.029462
  15 H :    0.027490
  16 S :    0.410594
  17 C :   -0.188420
  18 C :   -0.056312
  19 C :   -0.061341
  20 C :   -0.193890
  21 H :    0.012666
  22 C :   -0.036930
  23 H :    0.017323
  24 H :    0.046710
  25 C :   -0.041631
  26 H :    0.024248
  27 H :    0.027667
  28 C :   -0.070413
  29 H :    0.030905
  30 H :    0.028504
  31 H :    0.028417
  32 H :    0.030664
  33 H :    0.023067

  Mayer bond orders larger than 0.100000
B(  0-S ,  1-C ) :   1.1200 B(  0-S ,  4-C ) :   1.1396 B(  1-C ,  2-C ) :   1.6397
B(  1-C , 32-H ) :   0.9723 B(  2-C ,  3-C ) :   1.2021 B(  2-C ,  6-C ) :   1.0186
B(  3-C ,  4-C ) :   1.6021 B(  3-C ,  5-H ) :   0.9944 B(  4-C , 20-C ) :   1.0449
B(  6-C ,  7-H ) :   0.9512 B(  6-C ,  8-H ) :   0.9412 B(  6-C ,  9-C ) :   1.0638
B(  9-C , 10-H ) :   0.9548 B(  9-C , 11-H ) :   0.9536 B(  9-C , 12-C ) :   1.0920
B( 12-C , 13-H ) :   0.9728 B( 12-C , 14-H ) :   0.9714 B( 12-C , 15-H ) :   0.9716
B( 16-S , 17-C ) :   1.1423 B( 16-S , 20-C ) :   1.1350 B( 17-C , 18-C ) :   1.6230
B( 17-C , 33-H ) :   0.9721 B( 18-C , 19-C ) :   1.2303 B( 18-C , 21-H ) :   0.9992
B( 19-C , 20-C ) :   1.5974 B( 19-C , 22-C ) :   1.0483 B( 22-C , 23-H ) :   0.9263
B( 22-C , 24-H ) :   0.9254 B( 22-C , 25-C ) :   1.0606 B( 25-C , 26-H ) :   0.9475
B( 25-C , 27-H ) :   0.9587 B( 25-C , 28-C ) :   1.0901 B( 28-C , 29-H ) :   0.9730
B( 28-C , 30-H ) :   0.9747 B( 28-C , 31-H ) :   0.9740

Dispersion correction           -0.013351044
FINAL SINGLE POINT ENERGY     -1339.876122679977

DIPOLE MOMENT
-------------
                                X             Y             Z
Electronic contribution:    -27.91835      13.66546       0.70144
Nuclear contribution   :     28.61109     -13.78282      -0.71082
                        -----------------------------------------
Total Dipole Moment    :      0.69274      -0.11736      -0.00938
                        -----------------------------------------
Magnitude (a.u.)       :      0.70268
Magnitude (Debye)      :      1.78606

Rotational constants in cm-1:     0.016479     0.008604     0.006244
Rotational constants in MHz :   494.036763   257.947863   187.186248

                             ****ORCA TERMINATED NORMALLY****
TOTAL RUN TIME: 0 days 0 hours 0 minutes 31 seconds 396 msec
