                         Program Version 4.2.1 -  RELEASE  -
|  1> ! wB97X-D3 SP def2-SVP
|  2> %pal
|  3> nprocs 16
|  4> end
|  5>
|  6> * xyz 0 1
|  7> S 	 -106.155 	 55.4958 	 116.826
|  8> C 	 -104.99 	 55.3595 	 118.113
|  9> C 	 -105.611 	 54.9901 	 119.306
| 10> C 	 -107.049 	 55.1052 	 119.224
| 11> C 	 -107.485 	 55.5406 	 118.003
| 12> H 	 -107.704 	 54.9227 	 120.044
| 13> C 	 -104.996 	 54.7995 	 120.62
| 14> H 	 -104.705 	 55.8384 	 121.018
| 15> H 	 -104.046 	 54.2257 	 120.454
| 16> C 	 -105.752 	 53.9296 	 121.631
| 17> H 	 -105.101 	 53.7344 	 122.521
| 18> H 	 -106.611 	 54.5398 	 121.955
| 19> C 	 -106.242 	 52.5263 	 121.059
| 20> H 	 -106.969 	 52.6977 	 120.295
| 21> H 	 -105.367 	 51.9997 	 120.716
| 22> H 	 -106.612 	 51.8778 	 121.868
| 23> S 	 -109.404 	 55.488 	 116.003
| 24> C 	 -110.976 	 56.215 	 116.392
| 25> C 	 -111.039 	 56.6742 	 117.664
| 26> C 	 -109.851 	 56.5234 	 118.38
| 27> C 	 -108.86 	 55.859 	 117.682
| 28> H 	 -111.947 	 57.1621 	 118.044
| 29> C 	 -109.778 	 57.1854 	 119.757
| 30> H 	 -109.806 	 58.2863 	 119.586
| 31> H 	 -108.674 	 57.0504 	 120.082
| 32> C 	 -110.866 	 56.8281 	 120.855
| 33> H 	 -111.861 	 56.6185 	 120.506
| 34> H 	 -110.958 	 57.6844 	 121.458
| 35> C 	 -110.501 	 55.718 	 121.746
| 36> H 	 -109.438 	 55.7137 	 122.058
| 37> H 	 -110.588 	 54.806 	 121.152
| 38> H 	 -111.162 	 55.7083 	 122.543
| 39> H 	 -103.879 	 55.4233 	 117.964
| 40> H 	 -111.868 	 56.3372 	 115.744
| 41> *
| 42>
| 43>                          ****END OF INPUT****

CARTESIAN COORDINATES (ANGSTROEM)
---------------------------------
  S    -106.155000   55.495800  116.826000
  C    -104.990000   55.359500  118.113000
  C    -105.611000   54.990100  119.306000
  C    -107.049000   55.105200  119.224000
  C    -107.485000   55.540600  118.003000
  H    -107.704000   54.922700  120.044000
  C    -104.996000   54.799500  120.620000
  H    -104.705000   55.838400  121.018000
  H    -104.046000   54.225700  120.454000
  C    -105.752000   53.929600  121.631000
  H    -105.101000   53.734400  122.521000
  H    -106.611000   54.539800  121.955000
  C    -106.242000   52.526300  121.059000
  H    -106.969000   52.697700  120.295000
  H    -105.367000   51.999700  120.716000
  H    -106.612000   51.877800  121.868000
  S    -109.404000   55.488000  116.003000
  C    -110.976000   56.215000  116.392000
  C    -111.039000   56.674200  117.664000
  C    -109.851000   56.523400  118.380000
  C    -108.860000   55.859000  117.682000
  H    -111.947000   57.162100  118.044000
  C    -109.778000   57.185400  119.757000
  H    -109.806000   58.286300  119.586000
  H    -108.674000   57.050400  120.082000
  C    -110.866000   56.828100  120.855000
  H    -111.861000   56.618500  120.506000
  H    -110.958000   57.684400  121.458000
  C    -110.501000   55.718000  121.746000
  H    -109.438000   55.713700  122.058000
  H    -110.588000   54.806000  121.152000
  H    -111.162000   55.708300  122.543000
  H    -103.879000   55.423300  117.964000
  H    -111.868000   56.337200  115.744000

 Total Charge           Charge          ....    0
 Multiplicity           Mult            ....    1
 Number of Electrons    NEL             ....  134
 Basis Dimension        Dim             ....  322

ORBITAL ENERGIES
----------------

  NO   OCC          E(Eh)            E(eV)
   0   2.0000     -88.966465     -2420.9006
   1   2.0000     -88.965955     -2420.8867
   2   2.0000     -10.330362      -281.1035
   3   2.0000     -10.329937      -281.0919
   4   2.0000     -10.317909      -280.7646
   5   2.0000     -10.317354      -280.7495
   6   2.0000     -10.303375      -280.3691
   7   2.0000     -10.301307      -280.3128
   8   2.0000     -10.299602      -280.2664
   9   2.0000     -10.296333      -280.1775
  10   2.0000     -10.296157      -280.1727
  11   2.0000     -10.289986      -280.0047
  12   2.0000     -10.287256      -279.9305
  13   2.0000     -10.283905      -279.8393
  14   2.0000     -10.279460      -279.7183
  15   2.0000     -10.270180      -279.4658
  16   2.0000      -8.080435      -219.8798
  17   2.0000      -8.080084      -219.8703
  18   2.0000      -6.039158      -164.3338
  19   2.0000      -6.038809      -164.3243
  20   2.0000      -6.035144      -164.2246
  21   2.0000      -6.034910      -164.2182
  22   2.0000      -6.030838      -164.1074
  23   2.0000      -6.030544      -164.0994
  24   2.0000      -1.005247       -27.3542
  25   2.0000      -0.983375       -26.7590
  26   2.0000      -0.912971       -24.8432
  27   2.0000      -0.909513       -24.7491
  28   2.0000      -0.870687       -23.6926
  29   2.0000      -0.858441       -23.3594
  30   2.0000      -0.840544       -22.8724
  31   2.0000      -0.815932       -22.2026
  32   2.0000      -0.781066       -21.2539
  33   2.0000      -0.770303       -20.9610
  34   2.0000      -0.712017       -19.3750
  35   2.0000      -0.697205       -18.9719
  36   2.0000      -0.693734       -18.8775
  37   2.0000      -0.657333       -17.8870
  38   2.0000      -0.633945       -17.2505
  39   2.0000      -0.627095       -17.0641
  40   2.0000      -0.593733       -16.1563
  41   2.0000      -0.562325       -15.3016
  42   2.0000      -0.560724       -15.2581
  43   2.0000      -0.552112       -15.0237
  44   2.0000      -0.538913       -14.6646
  45   2.0000      -0.536960       -14.6114
  46   2.0000      -0.518401       -14.1064
  47   2.0000      -0.513423       -13.9709
  48   2.0000      -0.499896       -13.6029
  49   2.0000      -0.499141       -13.5823
  50   2.0000      -0.496876       -13.5207
  51   2.0000      -0.476697       -12.9716
  52   2.0000      -0.467470       -12.7205
  53   2.0000      -0.464318       -12.6347
  54   2.0000      -0.458011       -12.4631
  55   2.0000      -0.455446       -12.3933
  56   2.0000      -0.444195       -12.0872
  57   2.0000      -0.439951       -11.9717
  58   2.0000      -0.428740       -11.6666
  59   2.0000      -0.424901       -11.5621
  60   2.0000      -0.421043       -11.4572
  61   2.0000      -0.413046       -11.2395
  62   2.0000      -0.411180       -11.1888
  63   2.0000      -0.356507        -9.7011
  64   2.0000      -0.335025        -9.1165
  65   2.0000      -0.324119        -8.8197
  66   2.0000      -0.281983        -7.6731
  67   0.0000       0.021808         0.5934
  68   0.0000       0.070084         1.9071
  69   0.0000       0.096443         2.6243
  70   0.0000       0.118672         3.2292
  71   0.0000       0.122038         3.3208

MULLIKEN ATOMIC CHARGES
-----------------------
   0 S :    0.109937
   1 C :   -0.141109
   2 C :   -0.079477
   3 C :    0.005851
   4 C :   -0.113985
   5 H :    0.001135
   6 C :    0.027462
   7 H :    0.066651
   8 H :    0.025325
   9 C :   -0.123846
  10 H :    0.042590
  11 H :    0.033755
  12 C :   -0.039466
  13 H :    0.045350
  14 H :    0.028704
  15 H :    0.040182
  16 S :    0.088231
  17 C :   -0.084920
  18 C :   -0.045911
  19 C :   -0.019121
  20 C :   -0.153083
  21 H :    0.025028
  22 C :   -0.007093
  23 H :    0.045742
  24 H :    0.032969
  25 C :   -0.032463
  26 H :    0.025104
  27 H :    0.011771
  28 C :   -0.021792
  29 H :    0.027440
  30 H :    0.028309
  31 H :    0.023344
  32 H :    0.065436
  33 H :    0.061951
Sum of atomic charges:   -0.0000000

LOEWDIN ATOMIC CHARGES
----------------------
   0 S :    0.390279
   1 C :   -0.205523
   2 C :   -0.068976
   3 C :   -0.061781
   4 C :   -0.178511
   5 H :    0.024622
   6 C :   -0.049537
   7 H :    0.047880
   8 H :    0.032408
   9 C :   -0.046191
  10 H :    0.031539
  11 H :    0.017757
  12 C :   -0.059865
  13 H :    0.023285
  14 H :    0.024838
  15 H :    0.030950
  16 S :    0.365272
  17 C :   -0.176434
  18 C :   -0.076958
  19 C :   -0.063948
  20 C :   -0.174798
  21 H :    0.036610
  22 C :   -0.037452
  23 H :    0.038359
  24 H :    0.038078
  25 C :   -0.035380
  26 H :    0.024945
  27 H :    0.018503
  28 C :   -0.058035
  29 H :    0.024356
  30 H :    0.027014
  31 H :    0.018046
  32 H :    0.039871
  33 H :    0.038777

  Mayer bond orders larger than 0.100000
B(  0-S ,  1-C ) :   1.1266 B(  0-S ,  4-C ) :   1.1313 B(  1-C ,  2-C ) :   1.6111
B(  1-C , 32-H ) :   0.9667 B(  2-C ,  3-C ) :   1.2140 B(  2-C ,  6-C ) :   1.0322
B(  3-C ,  4-C ) :   1.5696 B(  3-C ,  5-H ) :   0.9961 B(  4-C , 20-C ) :   1.0867
B(  6-C ,  7-H ) :   0.9384 B(  6-C ,  8-H ) :   0.9320 B(  6-C ,  9-C ) :   1.0701
B(  9-C , 10-H ) :   0.9578 B(  9-C , 11-H ) :   0.9477 B(  9-C , 12-C ) :   1.0716
B( 12-C , 13-H ) :   0.9733 B( 12-C , 14-H ) :   0.9749 B( 12-C , 15-H ) :   0.9751
B( 16-S , 17-C ) :   1.1295 B( 16-S , 20-C ) :   1.1049 B( 17-C , 18-C ) :   1.6537
B( 17-C , 33-H ) :   0.9569 B( 18-C , 19-C ) :   1.2325 B( 18-C , 21-H ) :   0.9828
B( 19-C , 20-C ) :   1.6133 B( 19-C , 22-C ) :   1.0298 B( 22-C , 23-H ) :   0.9410
B( 22-C , 24-H ) :   0.9397 B( 22-C , 25-C ) :   1.0446 B( 25-C , 26-H ) :   0.9566
B( 25-C , 27-H ) :   0.9526 B( 25-C , 28-C ) :   1.0955 B( 28-C , 29-H ) :   0.9712
B( 28-C , 30-H ) :   0.9747 B( 28-C , 31-H ) :   0.9683

Dispersion correction           -0.014975179
FINAL SINGLE POINT ENERGY     -1339.865627838934

DIPOLE MOMENT
-------------
                                X             Y             Z
Electronic contribution:      2.04668       4.14257     -29.56827
Nuclear contribution   :     -2.22073      -3.97650      30.35181
                        -----------------------------------------
Total Dipole Moment    :     -0.17405       0.16606       0.78354
                        -----------------------------------------
Magnitude (a.u.)       :      0.81964
Magnitude (Debye)      :      2.08335

Rotational constants in cm-1:     0.016683     0.010695     0.007310
Rotational constants in MHz :   500.129178   320.638977   219.138159

                             ****ORCA TERMINATED NORMALLY****
TOTAL RUN TIME: 0 days 0 hours 0 minutes 35 seconds 57 msec
