                         Program Version 4.2.1 -  RELEASE  -
|  1> ! wB97X-D3 SP def2-SVP
|  2> %pal
|  3> nprocs 16
|  4> end
|  5>
|  6> * xyz 0 1
|  7> S 	 -12.9081 	 73.4805 	 48.4103
|  8> C 	 -14.5474 	 73.9377 	 47.9882
|  9> C 	 -15.5131 	 72.9989 	 48.3634
| 10> C 	 -14.8909 	 71.8509 	 48.9416
| 11> C 	 -13.5309 	 71.9205 	 49.0164
| 12> H 	 -15.3189 	 71.0164 	 49.3959
| 13> C 	 -16.9808 	 73.0133 	 47.9351
| 14> H 	 -17.4681 	 72.0962 	 48.0456
| 15> H 	 -17.0389 	 73.1719 	 46.8516
| 16> C 	 -17.7667 	 74.167 	 48.6939
| 17> H 	 -17.7271 	 74.1464 	 49.796
| 18> H 	 -17.3082 	 75.0919 	 48.4094
| 19> C 	 -19.259 	 74.2387 	 48.2982
| 20> H 	 -19.782 	 75.1789 	 48.5343
| 21> H 	 -19.3027 	 74.1639 	 47.2028
| 22> H 	 -19.6812 	 73.4253 	 48.9164
| 23> S 	 -11.399 	 71.7389 	 50.7198
| 24> C 	 -10.7865 	 70.2672 	 51.2603
| 25> C 	 -11.4293 	 69.1889 	 50.658
| 26> C 	 -12.5465 	 69.6144 	 49.8777
| 27> C 	 -12.5984 	 71.0244 	 49.7463
| 28> H 	 -11.1616 	 68.1307 	 50.8571
| 29> C 	 -13.5419 	 68.5684 	 49.3249
| 30> H 	 -12.9668 	 67.8711 	 48.7236
| 31> H 	 -14.3487 	 69.0032 	 48.7302
| 32> C 	 -14.1607 	 67.771 	 50.5087
| 33> H 	 -14.7817 	 68.4093 	 51.1336
| 34> H 	 -13.4598 	 67.3129 	 51.1539
| 35> C 	 -15.0165 	 66.6104 	 49.989
| 36> H 	 -14.5681 	 65.8695 	 49.3355
| 37> H 	 -15.9198 	 67.1345 	 49.6292
| 38> H 	 -15.3532 	 66.2044 	 50.871
| 39> H 	 -14.798 	 74.782 	 47.431
| 40> H 	 -9.91594 	 70.2177 	 51.8811
| 41> *
| 42>
| 43>                          ****END OF INPUT****

CARTESIAN COORDINATES (ANGSTROEM)
---------------------------------
  S    -12.908100   73.480500   48.410300
  C    -14.547400   73.937700   47.988200
  C    -15.513100   72.998900   48.363400
  C    -14.890900   71.850900   48.941600
  C    -13.530900   71.920500   49.016400
  H    -15.318900   71.016400   49.395900
  C    -16.980800   73.013300   47.935100
  H    -17.468100   72.096200   48.045600
  H    -17.038900   73.171900   46.851600
  C    -17.766700   74.167000   48.693900
  H    -17.727100   74.146400   49.796000
  H    -17.308200   75.091900   48.409400
  C    -19.259000   74.238700   48.298200
  H    -19.782000   75.178900   48.534300
  H    -19.302700   74.163900   47.202800
  H    -19.681200   73.425300   48.916400
  S    -11.399000   71.738900   50.719800
  C    -10.786500   70.267200   51.260300
  C    -11.429300   69.188900   50.658000
  C    -12.546500   69.614400   49.877700
  C    -12.598400   71.024400   49.746300
  H    -11.161600   68.130700   50.857100
  C    -13.541900   68.568400   49.324900
  H    -12.966800   67.871100   48.723600
  H    -14.348700   69.003200   48.730200
  C    -14.160700   67.771000   50.508700
  H    -14.781700   68.409300   51.133600
  H    -13.459800   67.312900   51.153900
  C    -15.016500   66.610400   49.989000
  H    -14.568100   65.869500   49.335500
  H    -15.919800   67.134500   49.629200
  H    -15.353200   66.204400   50.871000
  H    -14.798000   74.782000   47.431000
  H     -9.915940   70.217700   51.881100

 Total Charge           Charge          ....    0
 Multiplicity           Mult            ....    1
 Number of Electrons    NEL             ....  134
 Basis Dimension        Dim             ....  322

ORBITAL ENERGIES
----------------

  NO   OCC          E(Eh)            E(eV)
   0   2.0000     -88.967930     -2420.9404
   1   2.0000     -88.964248     -2420.8402
   2   2.0000     -10.330783      -281.1149
   3   2.0000     -10.324590      -280.9464
   4   2.0000     -10.311755      -280.5971
   5   2.0000     -10.311141      -280.5804
   6   2.0000     -10.304641      -280.4035
   7   2.0000     -10.304377      -280.3963
   8   2.0000     -10.295783      -280.1625
   9   2.0000     -10.295716      -280.1607
  10   2.0000     -10.294498      -280.1275
  11   2.0000     -10.287944      -279.9492
  12   2.0000     -10.287589      -279.9395
  13   2.0000     -10.283029      -279.8155
  14   2.0000     -10.281607      -279.7767
  15   2.0000     -10.271113      -279.4912
  16   2.0000      -8.081968      -219.9215
  17   2.0000      -8.081005      -219.8953
  18   2.0000      -6.040488      -164.3700
  19   2.0000      -6.039276      -164.3371
  20   2.0000      -6.036676      -164.2663
  21   2.0000      -6.035012      -164.2210
  22   2.0000      -6.032667      -164.1572
  23   2.0000      -6.032126      -164.1425
  24   2.0000      -1.010392       -27.4942
  25   2.0000      -0.985030       -26.8040
  26   2.0000      -0.911612       -24.8062
  27   2.0000      -0.905081       -24.6285
  28   2.0000      -0.865298       -23.5460
  29   2.0000      -0.856526       -23.3072
  30   2.0000      -0.847891       -23.0723
  31   2.0000      -0.814830       -22.1727
  32   2.0000      -0.782188       -21.2844
  33   2.0000      -0.769713       -20.9450
  34   2.0000      -0.701675       -19.0935
  35   2.0000      -0.699440       -19.0327
  36   2.0000      -0.691707       -18.8223
  37   2.0000      -0.663109       -18.0441
  38   2.0000      -0.644997       -17.5513
  39   2.0000      -0.620234       -16.8774
  40   2.0000      -0.600173       -16.3315
  41   2.0000      -0.572879       -15.5888
  42   2.0000      -0.569951       -15.5092
  43   2.0000      -0.559727       -15.2310
  44   2.0000      -0.527954       -14.3664
  45   2.0000      -0.520909       -14.1747
  46   2.0000      -0.519954       -14.1487
  47   2.0000      -0.511921       -13.9301
  48   2.0000      -0.505765       -13.7626
  49   2.0000      -0.503975       -13.7139
  50   2.0000      -0.496618       -13.5137
  51   2.0000      -0.482443       -13.1279
  52   2.0000      -0.472392       -12.8544
  53   2.0000      -0.461929       -12.5697
  54   2.0000      -0.459096       -12.4926
  55   2.0000      -0.451119       -12.2756
  56   2.0000      -0.445256       -12.1160
  57   2.0000      -0.438294       -11.9266
  58   2.0000      -0.432477       -11.7683
  59   2.0000      -0.425272       -11.5722
  60   2.0000      -0.423425       -11.5220
  61   2.0000      -0.417691       -11.3659
  62   2.0000      -0.411206       -11.1895
  63   2.0000      -0.353981        -9.6323
  64   2.0000      -0.331696        -9.0259
  65   2.0000      -0.327665        -8.9162
  66   2.0000      -0.284861        -7.7515
  67   0.0000       0.031529         0.8580
  68   0.0000       0.073784         2.0078
  69   0.0000       0.108487         2.9521
  70   0.0000       0.118143         3.2148
  71   0.0000       0.131633         3.5819

MULLIKEN ATOMIC CHARGES
-----------------------
   0 S :    0.100569
   1 C :   -0.088656
   2 C :   -0.056948
   3 C :    0.033056
   4 C :   -0.130440
   5 H :   -0.015070
   6 C :    0.076173
   7 H :    0.004710
   8 H :    0.037014
   9 C :   -0.102426
  10 H :    0.038101
  11 H :    0.017347
  12 C :   -0.057924
  13 H :    0.039555
  14 H :    0.031366
  15 H :    0.042457
  16 S :    0.119445
  17 C :   -0.093012
  18 C :   -0.043445
  19 C :   -0.052409
  20 C :   -0.151286
  21 H :    0.032881
  22 C :    0.089339
  23 H :    0.026167
  24 H :    0.021631
  25 C :   -0.117381
  26 H :    0.027111
  27 H :    0.017545
  28 C :    0.003473
  29 H :    0.047317
  30 H :    0.020221
  31 H :    0.005099
  32 H :    0.024205
  33 H :    0.054215
Sum of atomic charges:   -0.0000000

LOEWDIN ATOMIC CHARGES
----------------------
   0 S :    0.386070
   1 C :   -0.181666
   2 C :   -0.054086
   3 C :   -0.060916
   4 C :   -0.170371
   5 H :    0.021372
   6 C :   -0.022167
   7 H :    0.018733
   8 H :    0.036396
   9 C :   -0.038897
  10 H :    0.026175
  11 H :    0.014146
  12 C :   -0.072554
  13 H :    0.027359
  14 H :    0.024583
  15 H :    0.030073
  16 S :    0.457228
  17 C :   -0.208138
  18 C :   -0.074348
  19 C :   -0.057759
  20 C :   -0.225296
  21 H :    0.036330
  22 C :   -0.025599
  23 H :    0.030994
  24 H :    0.026886
  25 C :   -0.032068
  26 H :    0.024376
  27 H :    0.013199
  28 C :   -0.059811
  29 H :    0.026699
  30 H :    0.028718
  31 H :    0.015945
  32 H :    0.013340
  33 H :    0.025053

  Mayer bond orders larger than 0.100000
B(  0-S ,  1-C ) :   1.1371 B(  0-S ,  4-C ) :   1.1329 B(  1-C ,  2-C ) :   1.6186
B(  1-C , 32-H ) :   0.9719 B(  2-C ,  3-C ) :   1.2212 B(  2-C ,  6-C ) :   1.0181
B(  3-C ,  4-C ) :   1.6081 B(  3-C ,  5-H ) :   0.9971 B(  4-C , 20-C ) :   1.0246
B(  6-C ,  7-H ) :   0.9515 B(  6-C ,  8-H ) :   0.9429 B(  6-C ,  9-C ) :   1.0383
B(  9-C , 10-H ) :   0.9658 B(  9-C , 11-H ) :   0.9617 B(  9-C , 12-C ) :   1.0740
B( 12-C , 13-H ) :   0.9758 B( 12-C , 14-H ) :   0.9739 B( 12-C , 15-H ) :   0.9798
B( 16-S , 17-C ) :   1.1930 B( 16-S , 20-C ) :   1.1734 B( 17-C , 18-C ) :   1.5492
B( 17-C , 33-H ) :   0.9724 B( 18-C , 19-C ) :   1.2896 B( 18-C , 21-H ) :   0.9851
B( 19-C , 20-C ) :   1.5492 B( 19-C , 22-C ) :   1.0399 B( 22-C , 23-H ) :   0.9336
B( 22-C , 24-H ) :   0.9414 B( 22-C , 25-C ) :   1.0626 B( 25-C , 26-H ) :   0.9557
B( 25-C , 27-H ) :   0.9588 B( 25-C , 28-C ) :   1.0855 B( 28-C , 29-H ) :   0.9758
B( 28-C , 30-H ) :   0.9715 B( 28-C , 31-H ) :   0.9689

Dispersion correction           -0.013331792
FINAL SINGLE POINT ENERGY     -1339.869547624665

DIPOLE MOMENT
-------------
                                X             Y             Z
Electronic contribution:     27.44730      11.71529       1.97872
Nuclear contribution   :    -27.91761     -12.13074      -1.91853
                        -----------------------------------------
Total Dipole Moment    :     -0.47031      -0.41545       0.06019
                        -----------------------------------------
Magnitude (a.u.)       :      0.63041
Magnitude (Debye)      :      1.60236

Rotational constants in cm-1:     0.017932     0.007961     0.005881
Rotational constants in MHz :   537.594343   238.674615   176.300398

                             ****ORCA TERMINATED NORMALLY****
TOTAL RUN TIME: 0 days 0 hours 0 minutes 32 seconds 817 msec
