                         Program Version 4.2.1 -  RELEASE  -
|  1> ! wB97X-D3 SP def2-SVP
|  2> %pal
|  3> nprocs 16
|  4> end
|  5>
|  6> * xyz 0 1
|  7> S 	 -45.7741 	 38.0936 	 81.4152
|  8> C 	 -44.5141 	 39.2907 	 81.0319
|  9> C 	 -43.2389 	 38.7376 	 81.2178
| 10> C 	 -43.2427 	 37.4001 	 81.7451
| 11> C 	 -44.5288 	 36.8796 	 81.9584
| 12> H 	 -42.3313 	 36.8983 	 81.9955
| 13> C 	 -41.9753 	 39.5192 	 80.9244
| 14> H 	 -42.111 	 40.2369 	 80.0978
| 15> H 	 -41.1746 	 38.8144 	 80.6851
| 16> C 	 -41.4732 	 40.282 	 82.1852
| 17> H 	 -42.3052 	 40.7999 	 82.643
| 18> H 	 -41.0274 	 39.6799 	 82.9339
| 19> C 	 -40.5236 	 41.4189 	 81.8092
| 20> H 	 -40.1456 	 41.9865 	 82.6485
| 21> H 	 -39.6934 	 40.8404 	 81.4353
| 22> H 	 -40.8475 	 42.0506 	 81.0333
| 23> S 	 -46.2444 	 34.7933 	 81.3346
| 24> C 	 -45.8997 	 33.1674 	 81.8155
| 25> C 	 -44.8028 	 33.177 	 82.6944
| 26> C 	 -44.1784 	 34.4438 	 82.9022
| 27> C 	 -44.844 	 35.4425 	 82.2338
| 28> H 	 -44.4746 	 32.2616 	 83.1116
| 29> C 	 -43.0131 	 34.639 	 83.7659
| 30> H 	 -43.3218 	 34.4555 	 84.7921
| 31> H 	 -42.7011 	 35.6597 	 83.8833
| 32> C 	 -41.824 	 33.8271 	 83.2901
| 33> H 	 -41.732 	 33.7486 	 82.261
| 34> H 	 -42.1671 	 32.8046 	 83.6002
| 35> C 	 -40.426 	 34.1087 	 83.88
| 36> H 	 -40.4367 	 34.1726 	 84.9869
| 37> H 	 -40.0128 	 35.0698 	 83.5788
| 38> H 	 -39.6087 	 33.4216 	 83.5939
| 39> H 	 -44.6817 	 40.264 	 80.6698
| 40> H 	 -46.6444 	 32.3794 	 81.6716
| 41> *
| 42>
| 43>                          ****END OF INPUT****

CARTESIAN COORDINATES (ANGSTROEM)
---------------------------------
  S    -45.774100   38.093600   81.415200
  C    -44.514100   39.290700   81.031900
  C    -43.238900   38.737600   81.217800
  C    -43.242700   37.400100   81.745100
  C    -44.528800   36.879600   81.958400
  H    -42.331300   36.898300   81.995500
  C    -41.975300   39.519200   80.924400
  H    -42.111000   40.236900   80.097800
  H    -41.174600   38.814400   80.685100
  C    -41.473200   40.282000   82.185200
  H    -42.305200   40.799900   82.643000
  H    -41.027400   39.679900   82.933900
  C    -40.523600   41.418900   81.809200
  H    -40.145600   41.986500   82.648500
  H    -39.693400   40.840400   81.435300
  H    -40.847500   42.050600   81.033300
  S    -46.244400   34.793300   81.334600
  C    -45.899700   33.167400   81.815500
  C    -44.802800   33.177000   82.694400
  C    -44.178400   34.443800   82.902200
  C    -44.844000   35.442500   82.233800
  H    -44.474600   32.261600   83.111600
  C    -43.013100   34.639000   83.765900
  H    -43.321800   34.455500   84.792100
  H    -42.701100   35.659700   83.883300
  C    -41.824000   33.827100   83.290100
  H    -41.732000   33.748600   82.261000
  H    -42.167100   32.804600   83.600200
  C    -40.426000   34.108700   83.880000
  H    -40.436700   34.172600   84.986900
  H    -40.012800   35.069800   83.578800
  H    -39.608700   33.421600   83.593900
  H    -44.681700   40.264000   80.669800
  H    -46.644400   32.379400   81.671600

 Total Charge           Charge          ....    0
 Multiplicity           Mult            ....    1
 Number of Electrons    NEL             ....  134
 Basis Dimension        Dim             ....  322

ORBITAL ENERGIES
----------------

  NO   OCC          E(Eh)            E(eV)
   0   2.0000     -88.970030     -2420.9976
   1   2.0000     -88.962618     -2420.7959
   2   2.0000     -10.343134      -281.4510
   3   2.0000     -10.332581      -281.1638
   4   2.0000     -10.320737      -280.8415
   5   2.0000     -10.316163      -280.7171
   6   2.0000     -10.304340      -280.3953
   7   2.0000     -10.302556      -280.3468
   8   2.0000     -10.299254      -280.2569
   9   2.0000     -10.296778      -280.1896
  10   2.0000     -10.295679      -280.1597
  11   2.0000     -10.288648      -279.9683
  12   2.0000     -10.287473      -279.9364
  13   2.0000     -10.285962      -279.8953
  14   2.0000     -10.281052      -279.7617
  15   2.0000     -10.270105      -279.4638
  16   2.0000      -8.082756      -219.9430
  17   2.0000      -8.077437      -219.7982
  18   2.0000      -6.041558      -164.3991
  19   2.0000      -6.037545      -164.2900
  20   2.0000      -6.035956      -164.2467
  21   2.0000      -6.033319      -164.1749
  22   2.0000      -6.031845      -164.1349
  23   2.0000      -6.028266      -164.0375
  24   2.0000      -1.000928       -27.2366
  25   2.0000      -0.976285       -26.5661
  26   2.0000      -0.918723       -24.9997
  27   2.0000      -0.910843       -24.7853
  28   2.0000      -0.865306       -23.5462
  29   2.0000      -0.854039       -23.2396
  30   2.0000      -0.844858       -22.9898
  31   2.0000      -0.812926       -22.1208
  32   2.0000      -0.786846       -21.4112
  33   2.0000      -0.769805       -20.9474
  34   2.0000      -0.712751       -19.3949
  35   2.0000      -0.701051       -19.0766
  36   2.0000      -0.699959       -19.0469
  37   2.0000      -0.664127       -18.0718
  38   2.0000      -0.639741       -17.4082
  39   2.0000      -0.624499       -16.9935
  40   2.0000      -0.604637       -16.4530
  41   2.0000      -0.574988       -15.6462
  42   2.0000      -0.564873       -15.3710
  43   2.0000      -0.557860       -15.1801
  44   2.0000      -0.531594       -14.4654
  45   2.0000      -0.525734       -14.3059
  46   2.0000      -0.518755       -14.1160
  47   2.0000      -0.515332       -14.0229
  48   2.0000      -0.513233       -13.9658
  49   2.0000      -0.496816       -13.5191
  50   2.0000      -0.486288       -13.2326
  51   2.0000      -0.485649       -13.2152
  52   2.0000      -0.475828       -12.9479
  53   2.0000      -0.467168       -12.7123
  54   2.0000      -0.462578       -12.5874
  55   2.0000      -0.453291       -12.3347
  56   2.0000      -0.445773       -12.1301
  57   2.0000      -0.444768       -12.1028
  58   2.0000      -0.436963       -11.8904
  59   2.0000      -0.428562       -11.6618
  60   2.0000      -0.421321       -11.4647
  61   2.0000      -0.407605       -11.0915
  62   2.0000      -0.400460       -10.8971
  63   2.0000      -0.355445        -9.6721
  64   2.0000      -0.332254        -9.0411
  65   2.0000      -0.327808        -8.9201
  66   2.0000      -0.284679        -7.7465
  67   0.0000       0.019746         0.5373
  68   0.0000       0.072580         1.9750
  69   0.0000       0.100730         2.7410
  70   0.0000       0.120175         3.2701
  71   0.0000       0.129377         3.5205

MULLIKEN ATOMIC CHARGES
-----------------------
   0 S :    0.094017
   1 C :   -0.098265
   2 C :   -0.090301
   3 C :    0.034162
   4 C :   -0.112532
   5 H :    0.004224
   6 C :    0.048904
   7 H :    0.031380
   8 H :    0.026652
   9 C :   -0.063428
  10 H :    0.021752
  11 H :    0.023214
  12 C :   -0.029660
  13 H :    0.035570
  14 H :    0.010643
  15 H :    0.025012
  16 S :    0.085820
  17 C :   -0.101276
  18 C :   -0.028924
  19 C :   -0.046891
  20 C :   -0.129781
  21 H :    0.006637
  22 C :    0.099511
  23 H :    0.034270
  24 H :   -0.002317
  25 C :   -0.082885
  26 H :    0.025592
  27 H :    0.027745
  28 C :   -0.049186
  29 H :    0.029822
  30 H :    0.019647
  31 H :    0.042350
  32 H :    0.033248
  33 H :    0.075274
Sum of atomic charges:    0.0000000

LOEWDIN ATOMIC CHARGES
----------------------
   0 S :    0.367745
   1 C :   -0.182242
   2 C :   -0.057155
   3 C :   -0.058669
   4 C :   -0.166192
   5 H :    0.026933
   6 C :   -0.028470
   7 H :    0.033221
   8 H :    0.030783
   9 C :   -0.033986
  10 H :    0.018712
  11 H :    0.018647
  12 C :   -0.061415
  13 H :    0.026295
  14 H :    0.022311
  15 H :    0.016543
  16 S :    0.396118
  17 C :   -0.193085
  18 C :   -0.064216
  19 C :   -0.059477
  20 C :   -0.175739
  21 H :    0.022354
  22 C :   -0.032267
  23 H :    0.038038
  24 H :    0.022904
  25 C :   -0.038388
  26 H :    0.018011
  27 H :    0.029511
  28 C :   -0.072527
  29 H :    0.027177
  30 H :    0.020656
  31 H :    0.032891
  32 H :    0.020166
  33 H :    0.034812

  Mayer bond orders larger than 0.100000
B(  0-S ,  1-C ) :   1.1221 B(  0-S ,  4-C ) :   1.1392 B(  1-C ,  2-C ) :   1.6019
B(  1-C , 32-H ) :   0.9755 B(  2-C ,  3-C ) :   1.2582 B(  2-C ,  6-C ) :   1.0407
B(  3-C ,  4-C ) :   1.5479 B(  3-C ,  5-H ) :   0.9877 B(  4-C , 20-C ) :   1.0454
B(  6-C ,  7-H ) :   0.9480 B(  6-C ,  8-H ) :   0.9361 B(  6-C ,  9-C ) :   1.0504
B(  9-C , 10-H ) :   0.9617 B(  9-C , 11-H ) :   0.9581 B(  9-C , 12-C ) :   1.0796
B( 12-C , 13-H ) :   0.9736 B( 12-C , 14-H ) :   0.9732 B( 12-C , 15-H ) :   0.9776
B( 16-S , 17-C ) :   1.1670 B( 16-S , 20-C ) :   1.1372 B( 17-C , 18-C ) :   1.5811
B( 17-C , 33-H ) :   0.9665 B( 18-C , 19-C ) :   1.2413 B( 18-C , 21-H ) :   0.9968
B( 19-C , 20-C ) :   1.5981 B( 19-C , 22-C ) :   1.0566 B( 22-C , 23-H ) :   0.9227
B( 22-C , 24-H ) :   0.9342 B( 22-C , 25-C ) :   1.0320 B( 25-C , 26-H ) :   0.9653
B( 25-C , 27-H ) :   0.9525 B( 25-C , 28-C ) :   1.0844 B( 28-C , 29-H ) :   0.9729
B( 28-C , 30-H ) :   0.9733 B( 28-C , 31-H ) :   0.9744

Dispersion correction           -0.013668315
FINAL SINGLE POINT ENERGY     -1339.871591137646

DIPOLE MOMENT
-------------
                                X             Y             Z
Electronic contribution:    -30.58933      -6.64336      -8.10865
Nuclear contribution   :     31.32252       6.60773       8.31685
                        -----------------------------------------
Total Dipole Moment    :      0.73318      -0.03563       0.20819
                        -----------------------------------------
Magnitude (a.u.)       :      0.76300
Magnitude (Debye)      :      1.93940

Rotational constants in cm-1:     0.017588     0.008736     0.006050
Rotational constants in MHz :   527.284860   261.904402   181.384499

                             ****ORCA TERMINATED NORMALLY****
TOTAL RUN TIME: 0 days 0 hours 0 minutes 28 seconds 32 msec
