                         Program Version 4.2.1 -  RELEASE  -
|  1> ! wB97X-D3 SP def2-SVP
|  2> %pal
|  3> nprocs 16
|  4> end
|  5>
|  6> * xyz 0 1
|  7> S 	 -84.5592 	 52.9216 	 137.134
|  8> C 	 -84.7431 	 52.1798 	 138.71
|  9> C 	 -83.6824 	 51.3885 	 139.007
| 10> C 	 -82.602 	 51.6914 	 138.209
| 11> C 	 -82.9358 	 52.3845 	 137.037
| 12> H 	 -81.592 	 51.4623 	 138.395
| 13> C 	 -83.4952 	 50.6097 	 140.272
| 14> H 	 -84.4719 	 50.1352 	 140.407
| 15> H 	 -83.2835 	 51.2974 	 141.123
| 16> C 	 -82.2937 	 49.6656 	 140.468
| 17> H 	 -81.363 	 50.2385 	 140.2
| 18> H 	 -82.1332 	 49.4535 	 141.573
| 19> C 	 -82.5181 	 48.3896 	 139.581
| 20> H 	 -83.2723 	 47.6503 	 140.097
| 21> H 	 -82.9204 	 48.6258 	 138.599
| 22> H 	 -81.6132 	 47.7771 	 139.421
| 23> S 	 -81.3502 	 54.4539 	 136.131
| 24> C 	 -80.485 	 54.2388 	 134.631
| 25> C 	 -80.6785 	 52.9439 	 134.133
| 26> C 	 -81.6674 	 52.157 	 134.802
| 27> C 	 -82.0895 	 52.8708 	 135.969
| 28> H 	 -80.2409 	 52.723 	 133.156
| 29> C 	 -82.2289 	 50.8993 	 134.167
| 30> H 	 -82.5239 	 51.1088 	 133.13
| 31> H 	 -83.2006 	 50.6661 	 134.63
| 32> C 	 -81.3424 	 49.6533 	 134.274
| 33> H 	 -80.5755 	 49.7992 	 133.569
| 34> H 	 -81.8455 	 48.7447 	 133.918
| 35> C 	 -80.916 	 49.3997 	 135.746
| 36> H 	 -81.719 	 48.9264 	 136.229
| 37> H 	 -80.5806 	 50.2483 	 136.35
| 38> H 	 -80.0283 	 48.8427 	 135.827
| 39> H 	 -85.7182 	 52.194 	 139.287
| 40> H 	 -79.6361 	 54.9438 	 134.334
| 41> *
| 42>
| 43>                          ****END OF INPUT****

CARTESIAN COORDINATES (ANGSTROEM)
---------------------------------
  S    -84.559200   52.921600  137.134000
  C    -84.743100   52.179800  138.710000
  C    -83.682400   51.388500  139.007000
  C    -82.602000   51.691400  138.209000
  C    -82.935800   52.384500  137.037000
  H    -81.592000   51.462300  138.395000
  C    -83.495200   50.609700  140.272000
  H    -84.471900   50.135200  140.407000
  H    -83.283500   51.297400  141.123000
  C    -82.293700   49.665600  140.468000
  H    -81.363000   50.238500  140.200000
  H    -82.133200   49.453500  141.573000
  C    -82.518100   48.389600  139.581000
  H    -83.272300   47.650300  140.097000
  H    -82.920400   48.625800  138.599000
  H    -81.613200   47.777100  139.421000
  S    -81.350200   54.453900  136.131000
  C    -80.485000   54.238800  134.631000
  C    -80.678500   52.943900  134.133000
  C    -81.667400   52.157000  134.802000
  C    -82.089500   52.870800  135.969000
  H    -80.240900   52.723000  133.156000
  C    -82.228900   50.899300  134.167000
  H    -82.523900   51.108800  133.130000
  H    -83.200600   50.666100  134.630000
  C    -81.342400   49.653300  134.274000
  H    -80.575500   49.799200  133.569000
  H    -81.845500   48.744700  133.918000
  C    -80.916000   49.399700  135.746000
  H    -81.719000   48.926400  136.229000
  H    -80.580600   50.248300  136.350000
  H    -80.028300   48.842700  135.827000
  H    -85.718200   52.194000  139.287000
  H    -79.636100   54.943800  134.334000

 Total Charge           Charge          ....    0
 Multiplicity           Mult            ....    1
 Number of Electrons    NEL             ....  134
 Basis Dimension        Dim             ....  322

ORBITAL ENERGIES
----------------

  NO   OCC          E(Eh)            E(eV)
   0   2.0000     -88.967863     -2420.9386
   1   2.0000     -88.964126     -2420.8369
   2   2.0000     -10.327218      -281.0179
   3   2.0000     -10.321906      -280.8733
   4   2.0000     -10.320478      -280.8345
   5   2.0000     -10.313025      -280.6317
   6   2.0000     -10.308671      -280.5132
   7   2.0000     -10.302392      -280.3423
   8   2.0000     -10.294478      -280.1270
   9   2.0000     -10.292240      -280.0661
  10   2.0000     -10.292235      -280.0660
  11   2.0000     -10.292014      -280.0599
  12   2.0000     -10.288881      -279.9747
  13   2.0000     -10.285237      -279.8755
  14   2.0000     -10.283849      -279.8378
  15   2.0000     -10.265548      -279.3398
  16   2.0000      -8.082391      -219.9330
  17   2.0000      -8.079486      -219.8540
  18   2.0000      -6.040699      -164.3758
  19   2.0000      -6.037776      -164.2962
  20   2.0000      -6.036885      -164.2720
  21   2.0000      -6.033843      -164.1892
  22   2.0000      -6.033428      -164.1779
  23   2.0000      -6.030500      -164.0983
  24   2.0000      -1.010222       -27.4895
  25   2.0000      -0.983667       -26.7669
  26   2.0000      -0.912143       -24.8207
  27   2.0000      -0.907626       -24.6977
  28   2.0000      -0.865091       -23.5403
  29   2.0000      -0.845548       -23.0085
  30   2.0000      -0.842829       -22.9345
  31   2.0000      -0.807985       -21.9864
  32   2.0000      -0.784392       -21.3444
  33   2.0000      -0.771380       -20.9903
  34   2.0000      -0.713129       -19.4052
  35   2.0000      -0.700583       -19.0638
  36   2.0000      -0.685389       -18.6504
  37   2.0000      -0.650621       -17.7043
  38   2.0000      -0.638581       -17.3767
  39   2.0000      -0.622853       -16.9487
  40   2.0000      -0.594428       -16.1752
  41   2.0000      -0.558559       -15.1992
  42   2.0000      -0.555863       -15.1258
  43   2.0000      -0.552726       -15.0404
  44   2.0000      -0.540851       -14.7173
  45   2.0000      -0.531856       -14.4725
  46   2.0000      -0.513371       -13.9695
  47   2.0000      -0.511628       -13.9221
  48   2.0000      -0.496764       -13.5176
  49   2.0000      -0.493234       -13.4216
  50   2.0000      -0.485200       -13.2030
  51   2.0000      -0.482402       -13.1268
  52   2.0000      -0.468200       -12.7404
  53   2.0000      -0.461395       -12.5552
  54   2.0000      -0.453293       -12.3347
  55   2.0000      -0.448466       -12.2034
  56   2.0000      -0.443216       -12.0605
  57   2.0000      -0.438355       -11.9282
  58   2.0000      -0.429452       -11.6860
  59   2.0000      -0.425335       -11.5739
  60   2.0000      -0.417824       -11.3696
  61   2.0000      -0.416410       -11.3311
  62   2.0000      -0.411158       -11.1882
  63   2.0000      -0.336838        -9.1658
  64   2.0000      -0.327874        -8.9219
  65   2.0000      -0.313506        -8.5309
  66   2.0000      -0.306800        -8.3485
  67   0.0000       0.040971         1.1149
  68   0.0000       0.050340         1.3698
  69   0.0000       0.115300         3.1375
  70   0.0000       0.122023         3.3204
  71   0.0000       0.127757         3.4765

MULLIKEN ATOMIC CHARGES
-----------------------
   0 S :    0.123396
   1 C :   -0.161160
   2 C :   -0.044825
   3 C :    0.040183
   4 C :   -0.180987
   5 H :   -0.004255
   6 C :    0.031156
   7 H :    0.028031
   8 H :    0.048552
   9 C :   -0.093857
  10 H :    0.036832
  11 H :    0.047040
  12 C :   -0.090657
  13 H :    0.043785
  14 H :    0.047958
  15 H :    0.039290
  16 S :    0.128252
  17 C :   -0.133386
  18 C :   -0.042424
  19 C :   -0.014678
  20 C :   -0.194334
  21 H :    0.026329
  22 C :    0.063022
  23 H :    0.035973
  24 H :    0.019580
  25 C :   -0.045820
  26 H :    0.012995
  27 H :    0.030508
  28 C :   -0.028837
  29 H :    0.030288
  30 H :    0.030759
  31 H :    0.013916
  32 H :    0.067546
  33 H :    0.089829
Sum of atomic charges:    0.0000000

LOEWDIN ATOMIC CHARGES
----------------------
   0 S :    0.429983
   1 C :   -0.201840
   2 C :   -0.078196
   3 C :   -0.050729
   4 C :   -0.215743
   5 H :    0.020893
   6 C :   -0.038958
   7 H :    0.030572
   8 H :    0.042354
   9 C :   -0.047584
  10 H :    0.026992
  11 H :    0.034795
  12 C :   -0.079019
  13 H :    0.037365
  14 H :    0.023418
  15 H :    0.024409
  16 S :    0.417934
  17 C :   -0.209340
  18 C :   -0.075468
  19 C :   -0.045736
  20 C :   -0.212229
  21 H :    0.031085
  22 C :   -0.032768
  23 H :    0.034595
  24 H :    0.030293
  25 C :   -0.032284
  26 H :    0.012814
  27 H :    0.029288
  28 C :   -0.061248
  29 H :    0.020924
  30 H :    0.028231
  31 H :    0.021087
  32 H :    0.038542
  33 H :    0.045569

  Mayer bond orders larger than 0.100000
B(  0-S ,  1-C ) :   1.1584 B(  0-S ,  4-C ) :   1.1814 B(  1-C ,  2-C ) :   1.5896
B(  1-C ,  4-C ) :   0.1084 B(  1-C , 32-H ) :   0.9621 B(  2-C ,  3-C ) :   1.2535
B(  2-C ,  6-C ) :   1.0160 B(  3-C ,  4-C ) :   1.5625 B(  3-C ,  5-H ) :   0.9978
B(  4-C , 20-C ) :   1.0099 B(  6-C ,  7-H ) :   0.9399 B(  6-C ,  8-H ) :   0.9367
B(  6-C ,  9-C ) :   1.0772 B(  9-C , 10-H ) :   0.9472 B(  9-C , 11-H ) :   0.9582
B(  9-C , 12-C ) :   1.0556 B( 12-C , 13-H ) :   0.9730 B( 12-C , 14-H ) :   0.9775
B( 12-C , 15-H ) :   0.9780 B( 16-S , 17-C ) :   1.1585 B( 16-S , 20-C ) :   1.1768
B( 17-C , 18-C ) :   1.6021 B( 17-C , 20-C ) :   0.1088 B( 17-C , 33-H ) :   0.9549
B( 18-C , 19-C ) :   1.2615 B( 18-C , 21-H ) :   0.9787 B( 19-C , 20-C ) :   1.5511
B( 19-C , 22-C ) :   1.0406 B( 22-C , 23-H ) :   0.9432 B( 22-C , 24-H ) :   0.9316
B( 22-C , 25-C ) :   1.0652 B( 25-C , 26-H ) :   0.9605 B( 25-C , 27-H ) :   0.9567
B( 25-C , 28-C ) :   1.0683 B( 28-C , 29-H ) :   0.9768 B( 28-C , 30-H ) :   0.9699
B( 28-C , 31-H ) :   0.9685

Dispersion correction           -0.016100887
FINAL SINGLE POINT ENERGY     -1339.860105695108

DIPOLE MOMENT
-------------
                                X             Y             Z
Electronic contribution:     -6.25759      26.34518      -5.97318
Nuclear contribution   :      6.51305     -26.80472       6.10224
                        -----------------------------------------
Total Dipole Moment    :      0.25546      -0.45954       0.12907
                        -----------------------------------------
Magnitude (a.u.)       :      0.54138
Magnitude (Debye)      :      1.37608

Rotational constants in cm-1:     0.018455     0.010092     0.007939
Rotational constants in MHz :   553.278225   302.552487   237.995752

                             ****ORCA TERMINATED NORMALLY****
TOTAL RUN TIME: 0 days 0 hours 0 minutes 35 seconds 277 msec
