                         Program Version 4.2.1 -  RELEASE  -
|  1> ! wB97X-D3 SP def2-SVP
|  2> %pal
|  3> nprocs 16
|  4> end
|  5>
|  6> * xyz 0 1
|  7> S 	 46.9941 	 18.9981 	 80.068
|  8> C 	 46.7916 	 19.7398 	 81.6116
|  9> C 	 47.176 	 18.8712 	 82.6221
| 10> C 	 47.6458 	 17.5976 	 82.0793
| 11> C 	 47.6981 	 17.5467 	 80.684
| 12> H 	 47.9003 	 16.776 	 82.7473
| 13> C 	 47.014 	 19.1995 	 84.0789
| 14> H 	 46.3817 	 18.5728 	 84.6632
| 15> H 	 46.5083 	 20.1785 	 84.2091
| 16> C 	 48.272 	 19.2545 	 84.89
| 17> H 	 49.0163 	 19.8271 	 84.3536
| 18> H 	 48.0908 	 19.8017 	 85.7774
| 19> C 	 48.9376 	 17.9773 	 85.255
| 20> H 	 49.4687 	 17.4413 	 84.41
| 21> H 	 49.6861 	 18.1781 	 86.0567
| 22> H 	 48.2821 	 17.268 	 85.7926
| 23> S 	 46.9615 	 16.0779 	 78.5599
| 24> C 	 47.8331 	 14.6401 	 78.1469
| 25> C 	 48.8123 	 14.3357 	 79.1036
| 26> C 	 49.0082 	 15.374 	 80.0745
| 27> C 	 48.113 	 16.4497 	 79.8225
| 28> H 	 49.3583 	 13.4211 	 79.1449
| 29> C 	 49.964 	 15.1817 	 81.2248
| 30> H 	 50.127 	 14.1124 	 81.2739
| 31> H 	 49.4476 	 15.3198 	 82.1752
| 32> C 	 51.3498 	 15.7691 	 81.064
| 33> H 	 51.8987 	 15.3996 	 81.9034
| 34> H 	 51.2477 	 16.8594 	 81.1853
| 35> C 	 52.0546 	 15.3518 	 79.8111
| 36> H 	 51.9942 	 14.2336 	 79.7033
| 37> H 	 53.1116 	 15.6104 	 79.8172
| 38> H 	 51.6668 	 15.7941 	 78.8949
| 39> H 	 46.2882 	 20.7179 	 81.7832
| 40> H 	 47.7299 	 13.9965 	 77.3555
| 41> *
| 42>
| 43>                          ****END OF INPUT****

CARTESIAN COORDINATES (ANGSTROEM)
---------------------------------
  S     46.994100   18.998100   80.068000
  C     46.791600   19.739800   81.611600
  C     47.176000   18.871200   82.622100
  C     47.645800   17.597600   82.079300
  C     47.698100   17.546700   80.684000
  H     47.900300   16.776000   82.747300
  C     47.014000   19.199500   84.078900
  H     46.381700   18.572800   84.663200
  H     46.508300   20.178500   84.209100
  C     48.272000   19.254500   84.890000
  H     49.016300   19.827100   84.353600
  H     48.090800   19.801700   85.777400
  C     48.937600   17.977300   85.255000
  H     49.468700   17.441300   84.410000
  H     49.686100   18.178100   86.056700
  H     48.282100   17.268000   85.792600
  S     46.961500   16.077900   78.559900
  C     47.833100   14.640100   78.146900
  C     48.812300   14.335700   79.103600
  C     49.008200   15.374000   80.074500
  C     48.113000   16.449700   79.822500
  H     49.358300   13.421100   79.144900
  C     49.964000   15.181700   81.224800
  H     50.127000   14.112400   81.273900
  H     49.447600   15.319800   82.175200
  C     51.349800   15.769100   81.064000
  H     51.898700   15.399600   81.903400
  H     51.247700   16.859400   81.185300
  C     52.054600   15.351800   79.811100
  H     51.994200   14.233600   79.703300
  H     53.111600   15.610400   79.817200
  H     51.666800   15.794100   78.894900
  H     46.288200   20.717900   81.783200
  H     47.729900   13.996500   77.355500

 Total Charge           Charge          ....    0
 Multiplicity           Mult            ....    1
 Number of Electrons    NEL             ....  134
 Basis Dimension        Dim             ....  322

ORBITAL ENERGIES
----------------

  NO   OCC          E(Eh)            E(eV)
   0   2.0000     -88.970656     -2421.0146
   1   2.0000     -88.963683     -2420.8249
   2   2.0000     -10.330248      -281.1004
   3   2.0000     -10.329389      -281.0770
   4   2.0000     -10.315132      -280.6890
   5   2.0000     -10.312452      -280.6161
   6   2.0000     -10.306540      -280.4552
   7   2.0000     -10.302840      -280.3545
   8   2.0000     -10.296902      -280.1929
   9   2.0000     -10.293467      -280.0995
  10   2.0000     -10.289837      -280.0007
  11   2.0000     -10.287174      -279.9282
  12   2.0000     -10.282585      -279.8034
  13   2.0000     -10.282226      -279.7936
  14   2.0000     -10.277489      -279.6647
  15   2.0000     -10.274924      -279.5949
  16   2.0000      -8.085379      -220.0144
  17   2.0000      -8.079310      -219.8492
  18   2.0000      -6.043872      -164.4621
  19   2.0000      -6.039888      -164.3537
  20   2.0000      -6.037812      -164.2972
  21   2.0000      -6.036145      -164.2519
  22   2.0000      -6.033548      -164.1812
  23   2.0000      -6.030167      -164.0892
  24   2.0000      -1.008022       -27.4297
  25   2.0000      -0.983965       -26.7750
  26   2.0000      -0.921155       -25.0659
  27   2.0000      -0.917604       -24.9693
  28   2.0000      -0.871408       -23.7122
  29   2.0000      -0.852698       -23.2031
  30   2.0000      -0.842451       -22.9242
  31   2.0000      -0.813913       -22.1477
  32   2.0000      -0.788392       -21.4532
  33   2.0000      -0.775963       -21.1150
  34   2.0000      -0.710323       -19.3289
  35   2.0000      -0.695518       -18.9260
  36   2.0000      -0.689223       -18.7547
  37   2.0000      -0.667458       -18.1625
  38   2.0000      -0.639210       -17.3938
  39   2.0000      -0.622558       -16.9407
  40   2.0000      -0.595576       -16.2065
  41   2.0000      -0.578843       -15.7511
  42   2.0000      -0.560459       -15.2509
  43   2.0000      -0.550679       -14.9847
  44   2.0000      -0.547868       -14.9082
  45   2.0000      -0.537375       -14.6227
  46   2.0000      -0.514412       -13.9979
  47   2.0000      -0.510941       -13.9034
  48   2.0000      -0.505446       -13.7539
  49   2.0000      -0.495761       -13.4903
  50   2.0000      -0.491230       -13.3670
  51   2.0000      -0.485288       -13.2053
  52   2.0000      -0.474993       -12.9252
  53   2.0000      -0.469024       -12.7628
  54   2.0000      -0.459643       -12.5075
  55   2.0000      -0.448603       -12.2071
  56   2.0000      -0.445993       -12.1361
  57   2.0000      -0.433444       -11.7946
  58   2.0000      -0.426810       -11.6141
  59   2.0000      -0.422695       -11.5021
  60   2.0000      -0.420499       -11.4423
  61   2.0000      -0.416939       -11.3455
  62   2.0000      -0.410962       -11.1828
  63   2.0000      -0.351060        -9.5528
  64   2.0000      -0.332686        -9.0528
  65   2.0000      -0.326141        -8.8747
  66   2.0000      -0.286312        -7.7909
  67   0.0000       0.021950         0.5973
  68   0.0000       0.078850         2.1456
  69   0.0000       0.097916         2.6644
  70   0.0000       0.123144         3.3509
  71   0.0000       0.127271         3.4632

MULLIKEN ATOMIC CHARGES
-----------------------
   0 S :    0.105020
   1 C :   -0.135485
   2 C :   -0.090518
   3 C :    0.015258
   4 C :   -0.133072
   5 H :    0.011894
   6 C :    0.083035
   7 H :    0.015522
   8 H :    0.012795
   9 C :   -0.046610
  10 H :    0.019392
  11 H :    0.015195
  12 C :   -0.086827
  13 H :    0.048625
  14 H :    0.032576
  15 H :    0.021177
  16 S :    0.118479
  17 C :   -0.038076
  18 C :   -0.044871
  19 C :   -0.069001
  20 C :   -0.119775
  21 H :    0.009451
  22 C :    0.061689
  23 H :   -0.000910
  24 H :    0.025087
  25 C :   -0.023451
  26 H :    0.021542
  27 H :    0.040023
  28 C :   -0.059423
  29 H :    0.022632
  30 H :    0.034894
  31 H :    0.045720
  32 H :    0.067309
  33 H :    0.020705
Sum of atomic charges:    0.0000000

LOEWDIN ATOMIC CHARGES
----------------------
   0 S :    0.421183
   1 C :   -0.212090
   2 C :   -0.061768
   3 C :   -0.068333
   4 C :   -0.205948
   5 H :    0.027063
   6 C :   -0.034623
   7 H :    0.026128
   8 H :    0.035199
   9 C :   -0.045418
  10 H :    0.025097
  11 H :    0.022237
  12 C :   -0.077252
  13 H :    0.029396
  14 H :    0.032805
  15 H :    0.021093
  16 S :    0.428857
  17 C :   -0.183410
  18 C :   -0.061412
  19 C :   -0.048798
  20 C :   -0.201557
  21 H :    0.024743
  22 C :   -0.036132
  23 H :    0.028152
  24 H :    0.029871
  25 C :   -0.037083
  26 H :    0.023481
  27 H :    0.028297
  28 C :   -0.066656
  29 H :    0.027141
  30 H :    0.028223
  31 H :    0.028580
  32 H :    0.039610
  33 H :    0.013324

  Mayer bond orders larger than 0.100000
B(  0-S ,  1-C ) :   1.1474 B(  0-S ,  4-C ) :   1.1649 B(  1-C ,  2-C ) :   1.5976
B(  1-C , 32-H ) :   0.9621 B(  2-C ,  3-C ) :   1.2615 B(  2-C ,  6-C ) :   1.0366
B(  3-C ,  4-C ) :   1.5313 B(  3-C ,  5-H ) :   0.9904 B(  4-C , 20-C ) :   1.0464
B(  6-C ,  7-H ) :   0.9371 B(  6-C ,  8-H ) :   0.9347 B(  6-C ,  9-C ) :   1.0792
B(  9-C , 10-H ) :   0.9457 B(  9-C , 11-H ) :   0.9492 B(  9-C , 12-C ) :   1.0979
B( 12-C , 13-H ) :   0.9684 B( 12-C , 14-H ) :   0.9673 B( 12-C , 15-H ) :   0.9697
B( 16-S , 17-C ) :   1.1610 B( 16-S , 20-C ) :   1.1596 B( 17-C , 18-C ) :   1.5789
B( 17-C , 20-C ) :   0.1043 B( 17-C , 33-H ) :   0.9767 B( 18-C , 19-C ) :   1.2845
B( 18-C , 21-H ) :   0.9866 B( 19-C , 20-C ) :   1.5473 B( 19-C , 22-C ) :   1.0330
B( 22-C , 23-H ) :   0.9229 B( 22-C , 24-H ) :   0.9343 B( 22-C , 25-C ) :   1.0754
B( 25-C , 26-H ) :   0.9505 B( 25-C , 27-H ) :   0.9531 B( 25-C , 28-C ) :   1.0860
B( 28-C , 29-H ) :   0.9713 B( 28-C , 30-H ) :   0.9712 B( 28-C , 31-H ) :   0.9686

Dispersion correction           -0.014769297
FINAL SINGLE POINT ENERGY     -1339.879234610576

DIPOLE MOMENT
-------------
                                X             Y             Z
Electronic contribution:    -18.28272       3.65331     -21.74442
Nuclear contribution   :     18.53379      -3.94418      22.37662
                        -----------------------------------------
Total Dipole Moment    :      0.25107      -0.29087       0.63220
                        -----------------------------------------
Magnitude (a.u.)       :      0.73981
Magnitude (Debye)      :      1.88045

Rotational constants in cm-1:     0.018248     0.009735     0.007086
Rotational constants in MHz :   547.058976   291.835286   212.434997

                             ****ORCA TERMINATED NORMALLY****
TOTAL RUN TIME: 0 days 0 hours 0 minutes 31 seconds 409 msec
