                         Program Version 4.2.1 -  RELEASE  -
|  1> ! wB97X-D3 SP def2-SVP
|  2> %pal
|  3> nprocs 16
|  4> end
|  5>
|  6> * xyz 0 1
|  7> S 	 43.2171 	 21.5585 	 46.2001
|  8> C 	 42.2008 	 20.3225 	 45.3953
|  9> C 	 41.3701 	 19.6521 	 46.3143
| 10> C 	 41.5681 	 20.1849 	 47.6587
| 11> C 	 42.4725 	 21.221 	 47.752
| 12> H 	 41.0811 	 19.7023 	 48.5103
| 13> C 	 40.4472 	 18.4844 	 45.8709
| 14> H 	 40.7275 	 17.9675 	 44.9602
| 15> H 	 39.4798 	 19.0466 	 45.6081
| 16> C 	 39.9899 	 17.4216 	 46.9161
| 17> H 	 39.5923 	 17.8557 	 47.8537
| 18> H 	 39.0988 	 16.9785 	 46.5743
| 19> C 	 41.0207 	 16.3648 	 47.3231
| 20> H 	 41.7629 	 16.7627 	 47.9573
| 21> H 	 40.5996 	 15.5772 	 47.9444
| 22> H 	 41.5692 	 16.0175 	 46.4682
| 23> S 	 43.7417 	 23.4805 	 48.7608
| 24> C 	 43.646 	 23.8671 	 50.4687
| 25> C 	 43.0149 	 22.8453 	 51.1702
| 26> C 	 42.5064 	 21.7967 	 50.2921
| 27> C 	 42.7341 	 22.0276 	 48.9332
| 28> H 	 42.9676 	 22.7675 	 52.2196
| 29> C 	 41.7849 	 20.5543 	 50.8282
| 30> H 	 40.6749 	 20.4806 	 50.6987
| 31> H 	 41.8181 	 20.6402 	 51.8875
| 32> C 	 42.3935 	 19.1861 	 50.7622
| 33> H 	 43.3308 	 19.1488 	 51.3702
| 34> H 	 42.8384 	 18.9285 	 49.7633
| 35> C 	 41.5276 	 18.006 	 51.3031
| 36> H 	 42.1512 	 17.105 	 51.1828
| 37> H 	 40.5834 	 17.8823 	 50.754
| 38> H 	 41.2587 	 18.1113 	 52.4432
| 39> H 	 42.3428 	 20.0004 	 44.3488
| 40> H 	 44.0287 	 24.734 	 51.009
| 41> *
| 42>
| 43>                          ****END OF INPUT****

CARTESIAN COORDINATES (ANGSTROEM)
---------------------------------
  S     43.217100   21.558500   46.200100
  C     42.200800   20.322500   45.395300
  C     41.370100   19.652100   46.314300
  C     41.568100   20.184900   47.658700
  C     42.472500   21.221000   47.752000
  H     41.081100   19.702300   48.510300
  C     40.447200   18.484400   45.870900
  H     40.727500   17.967500   44.960200
  H     39.479800   19.046600   45.608100
  C     39.989900   17.421600   46.916100
  H     39.592300   17.855700   47.853700
  H     39.098800   16.978500   46.574300
  C     41.020700   16.364800   47.323100
  H     41.762900   16.762700   47.957300
  H     40.599600   15.577200   47.944400
  H     41.569200   16.017500   46.468200
  S     43.741700   23.480500   48.760800
  C     43.646000   23.867100   50.468700
  C     43.014900   22.845300   51.170200
  C     42.506400   21.796700   50.292100
  C     42.734100   22.027600   48.933200
  H     42.967600   22.767500   52.219600
  C     41.784900   20.554300   50.828200
  H     40.674900   20.480600   50.698700
  H     41.818100   20.640200   51.887500
  C     42.393500   19.186100   50.762200
  H     43.330800   19.148800   51.370200
  H     42.838400   18.928500   49.763300
  C     41.527600   18.006000   51.303100
  H     42.151200   17.105000   51.182800
  H     40.583400   17.882300   50.754000
  H     41.258700   18.111300   52.443200
  H     42.342800   20.000400   44.348800
  H     44.028700   24.734000   51.009000

 Total Charge           Charge          ....    0
 Multiplicity           Mult            ....    1
 Number of Electrons    NEL             ....  134
 Basis Dimension        Dim             ....  322

ORBITAL ENERGIES
----------------

  NO   OCC          E(Eh)            E(eV)
   0   2.0000     -88.969015     -2420.9700
   1   2.0000     -88.968908     -2420.9671
   2   2.0000     -10.334909      -281.2272
   3   2.0000     -10.333950      -281.2011
   4   2.0000     -10.323154      -280.9073
   5   2.0000     -10.320435      -280.8333
   6   2.0000     -10.312979      -280.6304
   7   2.0000     -10.310699      -280.5684
   8   2.0000     -10.307739      -280.4878
   9   2.0000     -10.298492      -280.2362
  10   2.0000     -10.298421      -280.2343
  11   2.0000     -10.295240      -280.1477
  12   2.0000     -10.292398      -280.0704
  13   2.0000     -10.291563      -280.0477
  14   2.0000     -10.289501      -279.9915
  15   2.0000     -10.272216      -279.5212
  16   2.0000      -8.083001      -219.9497
  17   2.0000      -8.082803      -219.9443
  18   2.0000      -6.041720      -164.4035
  19   2.0000      -6.041535      -164.3985
  20   2.0000      -6.037582      -164.2909
  21   2.0000      -6.037516      -164.2891
  22   2.0000      -6.033599      -164.1826
  23   2.0000      -6.033329      -164.1752
  24   2.0000      -1.002395       -27.2766
  25   2.0000      -0.976293       -26.5663
  26   2.0000      -0.910736       -24.7824
  27   2.0000      -0.906802       -24.6753
  28   2.0000      -0.869608       -23.6632
  29   2.0000      -0.849485       -23.1157
  30   2.0000      -0.840536       -22.8721
  31   2.0000      -0.815615       -22.1940
  32   2.0000      -0.785159       -21.3653
  33   2.0000      -0.775387       -21.0994
  34   2.0000      -0.712555       -19.3896
  35   2.0000      -0.698621       -19.0104
  36   2.0000      -0.686598       -18.6833
  37   2.0000      -0.667001       -18.1500
  38   2.0000      -0.635862       -17.3027
  39   2.0000      -0.623814       -16.9748
  40   2.0000      -0.599796       -16.3213
  41   2.0000      -0.566263       -15.4088
  42   2.0000      -0.556966       -15.1558
  43   2.0000      -0.549201       -14.9445
  44   2.0000      -0.534675       -14.5492
  45   2.0000      -0.524261       -14.2659
  46   2.0000      -0.515032       -14.0147
  47   2.0000      -0.509942       -13.8762
  48   2.0000      -0.508672       -13.8417
  49   2.0000      -0.498155       -13.5555
  50   2.0000      -0.490924       -13.3587
  51   2.0000      -0.482360       -13.1257
  52   2.0000      -0.474821       -12.9205
  53   2.0000      -0.463967       -12.6252
  54   2.0000      -0.460291       -12.5252
  55   2.0000      -0.454575       -12.3696
  56   2.0000      -0.443453       -12.0670
  57   2.0000      -0.437874       -11.9151
  58   2.0000      -0.434517       -11.8238
  59   2.0000      -0.431500       -11.7417
  60   2.0000      -0.420102       -11.4316
  61   2.0000      -0.412563       -11.2264
  62   2.0000      -0.397204       -10.8085
  63   2.0000      -0.361461        -9.8358
  64   2.0000      -0.334987        -9.1155
  65   2.0000      -0.326624        -8.8879
  66   2.0000      -0.281536        -7.6610
  67   0.0000       0.015413         0.4194
  68   0.0000       0.080304         2.1852
  69   0.0000       0.092189         2.5086
  70   0.0000       0.115653         3.1471
  71   0.0000       0.121450         3.3048

MULLIKEN ATOMIC CHARGES
-----------------------
   0 S :    0.099730
   1 C :   -0.143774
   2 C :   -0.067519
   3 C :   -0.008915
   4 C :   -0.096058
   5 H :    0.011703
   6 C :    0.018812
   7 H :    0.033559
   8 H :    0.058462
   9 C :   -0.062649
  10 H :    0.016223
  11 H :    0.012425
  12 C :   -0.011700
  13 H :    0.014117
  14 H :    0.033217
  15 H :    0.023485
  16 S :    0.092820
  17 C :   -0.081544
  18 C :    0.001886
  19 C :   -0.069680
  20 C :   -0.090984
  21 H :    0.005254
  22 C :    0.041551
  23 H :    0.047964
  24 H :   -0.006478
  25 C :   -0.112229
  26 H :    0.026429
  27 H :    0.042476
  28 C :   -0.088249
  29 H :    0.047638
  30 H :    0.037705
  31 H :    0.047756
  32 H :    0.061611
  33 H :    0.064956
Sum of atomic charges:    0.0000000

LOEWDIN ATOMIC CHARGES
----------------------
   0 S :    0.383809
   1 C :   -0.194988
   2 C :   -0.055335
   3 C :   -0.066737
   4 C :   -0.185340
   5 H :    0.033177
   6 C :   -0.033349
   7 H :    0.029949
   8 H :    0.050588
   9 C :   -0.044695
  10 H :    0.024212
  11 H :    0.019871
  12 C :   -0.063115
  13 H :    0.019495
  14 H :    0.029643
  15 H :    0.022823
  16 S :    0.392864
  17 C :   -0.186557
  18 C :   -0.061482
  19 C :   -0.055048
  20 C :   -0.177158
  21 H :    0.024688
  22 C :   -0.055186
  23 H :    0.036308
  24 H :    0.029714
  25 C :   -0.055714
  26 H :    0.027661
  27 H :    0.023126
  28 C :   -0.072317
  29 H :    0.032501
  30 H :    0.020181
  31 H :    0.035228
  32 H :    0.033321
  33 H :    0.037861

  Mayer bond orders larger than 0.100000
B(  0-S ,  1-C ) :   1.1218 B(  0-S ,  4-C ) :   1.1319 B(  1-C ,  2-C ) :   1.6140
B(  1-C , 32-H ) :   0.9657 B(  2-C ,  3-C ) :   1.2486 B(  2-C ,  6-C ) :   1.0032
B(  3-C ,  4-C ) :   1.5589 B(  3-C ,  5-H ) :   0.9831 B(  4-C , 20-C ) :   1.1042
B(  6-C ,  7-H ) :   0.9524 B(  6-C ,  8-H ) :   0.9347 B(  6-C ,  9-C ) :   1.0830
B(  9-C , 10-H ) :   0.9469 B(  9-C , 11-H ) :   0.9502 B(  9-C , 12-C ) :   1.0751
B( 12-C , 13-H ) :   0.9737 B( 12-C , 14-H ) :   0.9717 B( 12-C , 15-H ) :   0.9737
B( 16-S , 17-C ) :   1.1497 B( 16-S , 20-C ) :   1.1197 B( 17-C , 18-C ) :   1.6009
B( 17-C , 33-H ) :   0.9644 B( 18-C , 19-C ) :   1.2672 B( 18-C , 21-H ) :   0.9893
B( 19-C , 20-C ) :   1.5768 B( 19-C , 22-C ) :   1.0371 B( 22-C , 23-H ) :   0.9405
B( 22-C , 24-H ) :   0.9195 B( 22-C , 25-C ) :   1.0396 B( 25-C , 26-H ) :   0.9498
B( 25-C , 27-H ) :   0.9574 B( 25-C , 28-C ) :   1.0739 B( 28-C , 29-H ) :   0.9716
B( 28-C , 30-H ) :   0.9743 B( 28-C , 31-H ) :   0.9727

Dispersion correction           -0.015308295
FINAL SINGLE POINT ENERGY     -1339.867503992495

DIPOLE MOMENT
-------------
                                X             Y             Z
Electronic contribution:     13.84694      29.59301      -9.90156
Nuclear contribution   :    -14.17881     -30.22833      10.29300
                        -----------------------------------------
Total Dipole Moment    :     -0.33187      -0.63532       0.39144
                        -----------------------------------------
Magnitude (a.u.)       :      0.81669
Magnitude (Debye)      :      2.07587

Rotational constants in cm-1:     0.018386     0.010196     0.006890
Rotational constants in MHz :   551.198421   305.673030   206.555407

                             ****ORCA TERMINATED NORMALLY****
TOTAL RUN TIME: 0 days 0 hours 0 minutes 34 seconds 895 msec
