                         Program Version 4.2.1 -  RELEASE  -
|  1> ! wB97X-D3 SP def2-SVP
|  2> %pal
|  3> nprocs 16
|  4> end
|  5>
|  6> * xyz 0 1
|  7> S 	 7.64233 	 27.813 	 70.6958
|  8> C 	 7.04471 	 26.5537 	 69.6907
|  9> C 	 7.05695 	 26.9086 	 68.4156
| 10> C 	 7.42524 	 28.2583 	 68.2373
| 11> C 	 7.84551 	 28.8919 	 69.3299
| 12> H 	 7.26492 	 28.7783 	 67.3614
| 13> C 	 6.63047 	 25.9498 	 67.2434
| 14> H 	 5.69859 	 25.5301 	 67.4217
| 15> H 	 7.26558 	 25.115 	 67.2472
| 16> C 	 6.58614 	 26.5368 	 65.8671
| 17> H 	 5.78334 	 27.26 	 65.8259
| 18> H 	 7.55157 	 27.0528 	 65.6976
| 19> C 	 6.40382 	 25.547 	 64.7866
| 20> H 	 7.28326 	 24.8897 	 64.6486
| 21> H 	 5.49856 	 24.8988 	 64.9257
| 22> H 	 6.20889 	 26.1915 	 63.9319
| 23> S 	 10.0783 	 30.4744 	 69.2694
| 24> C 	 9.99749 	 32.1457 	 69.5193
| 25> C 	 8.72505 	 32.5929 	 69.7785
| 26> C 	 7.73962 	 31.5206 	 69.7533
| 27> C 	 8.3175 	 30.2838 	 69.4357
| 28> H 	 8.50709 	 33.6316 	 69.9299
| 29> C 	 6.27961 	 31.7812 	 70.1476
| 30> H 	 6.10546 	 32.4628 	 71.0125
| 31> H 	 5.97679 	 30.7901 	 70.4662
| 32> C 	 5.3918 	 32.3203 	 69.0087
| 33> H 	 5.42862 	 31.7619 	 68.125
| 34> H 	 5.63887 	 33.3395 	 68.666
| 35> C 	 3.87968 	 32.2715 	 69.3247
| 36> H 	 3.70022 	 31.3163 	 69.8733
| 37> H 	 3.29707 	 32.1795 	 68.4307
| 38> H 	 3.48804 	 33.1927 	 69.8647
| 39> H 	 6.67542 	 25.5915 	 70.1083
| 40> H 	 10.7772 	 32.9125 	 69.5182
| 41> *
| 42>
| 43>                          ****END OF INPUT****

CARTESIAN COORDINATES (ANGSTROEM)
---------------------------------
  S      7.642330   27.813000   70.695800
  C      7.044710   26.553700   69.690700
  C      7.056950   26.908600   68.415600
  C      7.425240   28.258300   68.237300
  C      7.845510   28.891900   69.329900
  H      7.264920   28.778300   67.361400
  C      6.630470   25.949800   67.243400
  H      5.698590   25.530100   67.421700
  H      7.265580   25.115000   67.247200
  C      6.586140   26.536800   65.867100
  H      5.783340   27.260000   65.825900
  H      7.551570   27.052800   65.697600
  C      6.403820   25.547000   64.786600
  H      7.283260   24.889700   64.648600
  H      5.498560   24.898800   64.925700
  H      6.208890   26.191500   63.931900
  S     10.078300   30.474400   69.269400
  C      9.997490   32.145700   69.519300
  C      8.725050   32.592900   69.778500
  C      7.739620   31.520600   69.753300
  C      8.317500   30.283800   69.435700
  H      8.507090   33.631600   69.929900
  C      6.279610   31.781200   70.147600
  H      6.105460   32.462800   71.012500
  H      5.976790   30.790100   70.466200
  C      5.391800   32.320300   69.008700
  H      5.428620   31.761900   68.125000
  H      5.638870   33.339500   68.666000
  C      3.879680   32.271500   69.324700
  H      3.700220   31.316300   69.873300
  H      3.297070   32.179500   68.430700
  H      3.488040   33.192700   69.864700
  H      6.675420   25.591500   70.108300
  H     10.777200   32.912500   69.518200

 Total Charge           Charge          ....    0
 Multiplicity           Mult            ....    1
 Number of Electrons    NEL             ....  134
 Basis Dimension        Dim             ....  322

ORBITAL ENERGIES
----------------

  NO   OCC          E(Eh)            E(eV)
   0   2.0000     -88.964312     -2420.8420
   1   2.0000     -88.960398     -2420.7355
   2   2.0000     -10.329409      -281.0775
   3   2.0000     -10.323479      -280.9161
   4   2.0000     -10.312631      -280.6209
   5   2.0000     -10.309684      -280.5408
   6   2.0000     -10.308699      -280.5140
   7   2.0000     -10.295067      -280.1430
   8   2.0000     -10.293322      -280.0955
   9   2.0000     -10.288895      -279.9751
  10   2.0000     -10.281261      -279.7673
  11   2.0000     -10.281188      -279.7653
  12   2.0000     -10.280856      -279.7563
  13   2.0000     -10.280693      -279.7519
  14   2.0000     -10.280431      -279.7448
  15   2.0000     -10.279819      -279.7281
  16   2.0000      -8.079609      -219.8573
  17   2.0000      -8.076043      -219.7603
  18   2.0000      -6.038116      -164.3055
  19   2.0000      -6.034523      -164.2077
  20   2.0000      -6.033970      -164.1927
  21   2.0000      -6.030403      -164.0956
  22   2.0000      -6.030389      -164.0952
  23   2.0000      -6.026775      -163.9969
  24   2.0000      -1.013390       -27.5757
  25   2.0000      -0.989389       -26.9227
  26   2.0000      -0.920782       -25.0558
  27   2.0000      -0.904831       -24.6217
  28   2.0000      -0.875168       -23.8145
  29   2.0000      -0.849814       -23.1246
  30   2.0000      -0.847905       -23.0727
  31   2.0000      -0.819901       -22.3106
  32   2.0000      -0.785035       -21.3619
  33   2.0000      -0.771004       -20.9801
  34   2.0000      -0.708986       -19.2925
  35   2.0000      -0.695493       -18.9253
  36   2.0000      -0.683458       -18.5978
  37   2.0000      -0.656579       -17.8664
  38   2.0000      -0.649011       -17.6605
  39   2.0000      -0.626823       -17.0567
  40   2.0000      -0.594010       -16.1638
  41   2.0000      -0.581685       -15.8285
  42   2.0000      -0.571728       -15.5575
  43   2.0000      -0.559681       -15.2297
  44   2.0000      -0.530091       -14.4245
  45   2.0000      -0.520702       -14.1690
  46   2.0000      -0.518027       -14.0962
  47   2.0000      -0.511925       -13.9302
  48   2.0000      -0.503952       -13.7132
  49   2.0000      -0.499205       -13.5841
  50   2.0000      -0.491029       -13.3616
  51   2.0000      -0.487696       -13.2709
  52   2.0000      -0.477547       -12.9947
  53   2.0000      -0.466636       -12.6978
  54   2.0000      -0.461541       -12.5592
  55   2.0000      -0.450427       -12.2567
  56   2.0000      -0.440061       -11.9747
  57   2.0000      -0.433168       -11.7871
  58   2.0000      -0.430806       -11.7228
  59   2.0000      -0.421852       -11.4792
  60   2.0000      -0.417045       -11.3484
  61   2.0000      -0.414286       -11.2733
  62   2.0000      -0.413400       -11.2492
  63   2.0000      -0.336215        -9.1489
  64   2.0000      -0.327791        -8.9196
  65   2.0000      -0.322388        -8.7726
  66   2.0000      -0.318476        -8.6662
  67   0.0000       0.051363         1.3977
  68   0.0000       0.058193         1.5835
  69   0.0000       0.116834         3.1792
  70   0.0000       0.131136         3.5684
  71   0.0000       0.138135         3.7589

MULLIKEN ATOMIC CHARGES
-----------------------
   0 S :    0.112921
   1 C :   -0.160445
   2 C :   -0.052390
   3 C :    0.052027
   4 C :   -0.152249
   5 H :   -0.015419
   6 C :    0.132668
   7 H :   -0.000109
   8 H :    0.008718
   9 C :   -0.119886
  10 H :    0.026785
  11 H :    0.035637
  12 C :   -0.033252
  13 H :    0.042545
  14 H :    0.030217
  15 H :    0.034028
  16 S :    0.122463
  17 C :   -0.067750
  18 C :   -0.050584
  19 C :   -0.012030
  20 C :   -0.200893
  21 H :    0.011782
  22 C :    0.075532
  23 H :    0.040808
  24 H :    0.016380
  25 C :   -0.054166
  26 H :    0.009998
  27 H :    0.025360
  28 C :   -0.079440
  29 H :    0.034896
  30 H :    0.026526
  31 H :    0.045536
  32 H :    0.058663
  33 H :    0.055121
Sum of atomic charges:   -0.0000000

LOEWDIN ATOMIC CHARGES
----------------------
   0 S :    0.408610
   1 C :   -0.198205
   2 C :   -0.068076
   3 C :   -0.052996
   4 C :   -0.203740
   5 H :    0.021305
   6 C :   -0.021321
   7 H :    0.019840
   8 H :    0.023702
   9 C :   -0.049724
  10 H :    0.021748
  11 H :    0.028375
  12 C :   -0.063157
  13 H :    0.028663
  14 H :    0.027019
  15 H :    0.031249
  16 S :    0.425567
  17 C :   -0.204406
  18 C :   -0.077323
  19 C :   -0.043474
  20 C :   -0.198136
  21 H :    0.027364
  22 C :   -0.030444
  23 H :    0.038025
  24 H :    0.027617
  25 C :   -0.041865
  26 H :    0.016736
  27 H :    0.024306
  28 C :   -0.071576
  29 H :    0.029671
  30 H :    0.021274
  31 H :    0.029329
  32 H :    0.037623
  33 H :    0.036422

  Mayer bond orders larger than 0.100000
B(  0-S ,  1-C ) :   1.1464 B(  0-S ,  4-C ) :   1.1326 B(  1-C ,  2-C ) :   1.6475
B(  1-C , 32-H ) :   0.9681 B(  2-C ,  3-C ) :   1.2434 B(  2-C ,  6-C ) :   0.9794
B(  3-C ,  4-C ) :   1.6059 B(  3-C ,  5-H ) :   1.0089 B(  4-C , 20-C ) :   0.9946
B(  6-C ,  7-H ) :   0.9303 B(  6-C ,  8-H ) :   0.9364 B(  6-C ,  9-C ) :   1.0958
B(  9-C , 10-H ) :   0.9493 B(  9-C , 11-H ) :   0.9436 B(  9-C , 12-C ) :   1.0967
B( 12-C , 13-H ) :   0.9720 B( 12-C , 14-H ) :   0.9702 B( 12-C , 15-H ) :   0.9706
B( 16-S , 17-C ) :   1.1648 B( 16-S , 20-C ) :   1.1461 B( 17-C , 18-C ) :   1.6218
B( 17-C , 33-H ) :   0.9599 B( 18-C , 19-C ) :   1.2312 B( 18-C , 21-H ) :   0.9918
B( 19-C , 20-C ) :   1.6149 B( 19-C , 22-C ) :   1.0369 B( 22-C , 23-H ) :   0.9460
B( 22-C , 24-H ) :   0.9265 B( 22-C , 25-C ) :   1.0664 B( 25-C , 26-H ) :   0.9558
B( 25-C , 27-H ) :   0.9554 B( 25-C , 28-C ) :   1.0806 B( 28-C , 29-H ) :   0.9738
B( 28-C , 30-H ) :   0.9784 B( 28-C , 31-H ) :   0.9766

Dispersion correction           -0.013476604
FINAL SINGLE POINT ENERGY     -1339.871495435724

DIPOLE MOMENT
-------------
                                X             Y             Z
Electronic contribution:     20.78726       0.88886      15.97542
Nuclear contribution   :    -21.24847      -0.85683     -16.37304
                        -----------------------------------------
Total Dipole Moment    :     -0.46122       0.03204      -0.39762
                        -----------------------------------------
Magnitude (a.u.)       :      0.60979
Magnitude (Debye)      :      1.54997

Rotational constants in cm-1:     0.016552     0.008052     0.007005
Rotational constants in MHz :   496.230535   241.383160   209.999803

                             ****ORCA TERMINATED NORMALLY****
TOTAL RUN TIME: 0 days 0 hours 0 minutes 33 seconds 375 msec
