                         Program Version 4.2.1 -  RELEASE  -
|  1> ! wB97X-D3 SP def2-SVP
|  2> %pal
|  3> nprocs 16
|  4> end
|  5>
|  6> * xyz 0 1
|  7> S 	 -14.8649 	 33.6258 	 36.3146
|  8> C 	 -13.9647 	 35.0817 	 35.8456
|  9> C 	 -14.4879 	 35.7839 	 34.8334
| 10> C 	 -15.7747 	 35.2608 	 34.5215
| 11> C 	 -16.2075 	 34.1946 	 35.3455
| 12> H 	 -16.58 	 35.6207 	 33.8241
| 13> C 	 -13.7527 	 36.9108 	 34.0876
| 14> H 	 -13.9458 	 36.6877 	 33.0667
| 15> H 	 -12.6913 	 36.9411 	 34.2812
| 16> C 	 -14.2316 	 38.3751 	 34.537
| 17> H 	 -15.2758 	 38.409 	 34.1987
| 18> H 	 -14.1042 	 38.5961 	 35.5981
| 19> C 	 -13.4493 	 39.4206 	 33.7418
| 20> H 	 -12.3895 	 39.2076 	 33.8092
| 21> H 	 -13.7434 	 39.289 	 32.6489
| 22> H 	 -13.6214 	 40.5169 	 33.9846
| 23> S 	 -18.5784 	 34.0995 	 36.7501
| 24> C 	 -19.9209 	 33.2383 	 36.0738
| 25> C 	 -19.5165 	 32.4869 	 34.965
| 26> C 	 -18.1415 	 32.6336 	 34.6098
| 27> C 	 -17.5222 	 33.5946 	 35.4265
| 28> H 	 -20.2411 	 31.9214 	 34.4618
| 29> C 	 -17.4576 	 31.9328 	 33.421
| 30> H 	 -17.0558 	 31.0096 	 33.9617
| 31> H 	 -16.5697 	 32.541 	 33.1713
| 32> C 	 -18.2058 	 31.6532 	 32.1216
| 33> H 	 -19.2318 	 31.2347 	 32.2276
| 34> H 	 -17.6163 	 30.8448 	 31.8444
| 35> C 	 -18.1981 	 32.7851 	 31.1489
| 36> H 	 -17.4937 	 32.5859 	 30.3102
| 37> H 	 -18.149 	 33.7714 	 31.589
| 38> H 	 -19.0745 	 32.7792 	 30.5336
| 39> H 	 -12.9281 	 35.3037 	 36.1975
| 40> H 	 -20.9254 	 33.2547 	 36.3885
| 41> *
| 42>
| 43>                          ****END OF INPUT****

CARTESIAN COORDINATES (ANGSTROEM)
---------------------------------
  S    -14.864900   33.625800   36.314600
  C    -13.964700   35.081700   35.845600
  C    -14.487900   35.783900   34.833400
  C    -15.774700   35.260800   34.521500
  C    -16.207500   34.194600   35.345500
  H    -16.580000   35.620700   33.824100
  C    -13.752700   36.910800   34.087600
  H    -13.945800   36.687700   33.066700
  H    -12.691300   36.941100   34.281200
  C    -14.231600   38.375100   34.537000
  H    -15.275800   38.409000   34.198700
  H    -14.104200   38.596100   35.598100
  C    -13.449300   39.420600   33.741800
  H    -12.389500   39.207600   33.809200
  H    -13.743400   39.289000   32.648900
  H    -13.621400   40.516900   33.984600
  S    -18.578400   34.099500   36.750100
  C    -19.920900   33.238300   36.073800
  C    -19.516500   32.486900   34.965000
  C    -18.141500   32.633600   34.609800
  C    -17.522200   33.594600   35.426500
  H    -20.241100   31.921400   34.461800
  C    -17.457600   31.932800   33.421000
  H    -17.055800   31.009600   33.961700
  H    -16.569700   32.541000   33.171300
  C    -18.205800   31.653200   32.121600
  H    -19.231800   31.234700   32.227600
  H    -17.616300   30.844800   31.844400
  C    -18.198100   32.785100   31.148900
  H    -17.493700   32.585900   30.310200
  H    -18.149000   33.771400   31.589000
  H    -19.074500   32.779200   30.533600
  H    -12.928100   35.303700   36.197500
  H    -20.925400   33.254700   36.388500

 Total Charge           Charge          ....    0
 Multiplicity           Mult            ....    1
 Number of Electrons    NEL             ....  134
 Basis Dimension        Dim             ....  322

ORBITAL ENERGIES
----------------

  NO   OCC          E(Eh)            E(eV)
   0   2.0000     -88.964057     -2420.8351
   1   2.0000     -88.963690     -2420.8251
   2   2.0000     -10.326984      -281.0115
   3   2.0000     -10.322163      -280.8803
   4   2.0000     -10.313463      -280.6436
   5   2.0000     -10.311193      -280.5818
   6   2.0000     -10.305006      -280.4135
   7   2.0000     -10.300505      -280.2910
   8   2.0000     -10.299360      -280.2598
   9   2.0000     -10.298323      -280.2316
  10   2.0000     -10.297903      -280.2202
  11   2.0000     -10.292085      -280.0619
  12   2.0000     -10.288326      -279.9596
  13   2.0000     -10.285912      -279.8939
  14   2.0000     -10.282656      -279.8053
  15   2.0000     -10.275227      -279.6032
  16   2.0000      -8.078667      -219.8317
  17   2.0000      -8.078207      -219.8192
  18   2.0000      -6.037117      -164.2783
  19   2.0000      -6.036641      -164.2653
  20   2.0000      -6.033141      -164.1701
  21   2.0000      -6.032963      -164.1653
  22   2.0000      -6.029547      -164.0723
  23   2.0000      -6.028849      -164.0533
  24   2.0000      -1.001849       -27.2617
  25   2.0000      -0.980745       -26.6874
  26   2.0000      -0.912603       -24.8332
  27   2.0000      -0.906896       -24.6779
  28   2.0000      -0.868381       -23.6298
  29   2.0000      -0.851132       -23.1605
  30   2.0000      -0.842352       -22.9216
  31   2.0000      -0.808543       -22.0016
  32   2.0000      -0.784476       -21.3467
  33   2.0000      -0.771731       -20.9999
  34   2.0000      -0.708530       -19.2801
  35   2.0000      -0.698905       -19.0182
  36   2.0000      -0.694039       -18.8858
  37   2.0000      -0.652244       -17.7485
  38   2.0000      -0.637970       -17.3601
  39   2.0000      -0.611755       -16.6467
  40   2.0000      -0.594617       -16.1803
  41   2.0000      -0.569682       -15.5018
  42   2.0000      -0.563042       -15.3211
  43   2.0000      -0.562217       -15.2987
  44   2.0000      -0.536213       -14.5911
  45   2.0000      -0.525425       -14.2975
  46   2.0000      -0.518066       -14.0973
  47   2.0000      -0.506342       -13.7783
  48   2.0000      -0.502732       -13.6800
  49   2.0000      -0.495106       -13.4725
  50   2.0000      -0.492585       -13.4039
  51   2.0000      -0.477280       -12.9875
  52   2.0000      -0.467933       -12.7331
  53   2.0000      -0.460101       -12.5200
  54   2.0000      -0.454639       -12.3714
  55   2.0000      -0.448744       -12.2109
  56   2.0000      -0.441935       -12.0257
  57   2.0000      -0.439988       -11.9727
  58   2.0000      -0.434389       -11.8203
  59   2.0000      -0.427122       -11.6226
  60   2.0000      -0.421891       -11.4802
  61   2.0000      -0.416922       -11.3450
  62   2.0000      -0.404126       -10.9968
  63   2.0000      -0.333877        -9.0853
  64   2.0000      -0.326664        -8.8890
  65   2.0000      -0.318141        -8.6571
  66   2.0000      -0.304620        -8.2891
  67   0.0000       0.044172         1.2020
  68   0.0000       0.050296         1.3686
  69   0.0000       0.108035         2.9398
  70   0.0000       0.126929         3.4539
  71   0.0000       0.134363         3.6562

MULLIKEN ATOMIC CHARGES
-----------------------
   0 S :    0.114193
   1 C :   -0.133996
   2 C :   -0.055286
   3 C :    0.031611
   4 C :   -0.218007
   5 H :    0.029090
   6 C :    0.064995
   7 H :    0.031595
   8 H :    0.017372
   9 C :   -0.076725
  10 H :    0.036771
  11 H :    0.045556
  12 C :   -0.078859
  13 H :    0.027154
  14 H :    0.031813
  15 H :    0.052893
  16 S :    0.125997
  17 C :   -0.075262
  18 C :   -0.037366
  19 C :    0.000477
  20 C :   -0.203221
  21 H :   -0.006482
  22 C :    0.011737
  23 H :    0.053345
  24 H :    0.038085
  25 C :   -0.030149
  26 H :    0.031980
  27 H :    0.016864
  28 C :   -0.029000
  29 H :    0.032687
  30 H :    0.046224
  31 H :    0.012370
  32 H :    0.050914
  33 H :    0.040632
Sum of atomic charges:    0.0000000

LOEWDIN ATOMIC CHARGES
----------------------
   0 S :    0.389763
   1 C :   -0.186824
   2 C :   -0.071831
   3 C :   -0.062966
   4 C :   -0.203414
   5 H :    0.038347
   6 C :   -0.015761
   7 H :    0.029879
   8 H :    0.025461
   9 C :   -0.036567
  10 H :    0.025405
  11 H :    0.026900
  12 C :   -0.079389
  13 H :    0.018453
  14 H :    0.030067
  15 H :    0.032926
  16 S :    0.414982
  17 C :   -0.183471
  18 C :   -0.071277
  19 C :   -0.050500
  20 C :   -0.216142
  21 H :    0.019009
  22 C :   -0.033637
  23 H :    0.046043
  24 H :    0.035708
  25 C :   -0.046915
  26 H :    0.027449
  27 H :    0.024470
  28 C :   -0.071197
  29 H :    0.036019
  30 H :    0.028429
  31 H :    0.026075
  32 H :    0.032054
  33 H :    0.022451

  Mayer bond orders larger than 0.100000
B(  0-S ,  1-C ) :   1.1305 B(  0-S ,  4-C ) :   1.1459 B(  1-C ,  2-C ) :   1.6597
B(  1-C , 32-H ) :   0.9547 B(  2-C ,  3-C ) :   1.2110 B(  2-C ,  6-C ) :   1.0096
B(  3-C ,  4-C ) :   1.6005 B(  3-C ,  5-H ) :   0.9848 B(  4-C , 20-C ) :   1.0393
B(  6-C ,  7-H ) :   0.9436 B(  6-C ,  8-H ) :   0.9468 B(  6-C ,  9-C ) :   1.0502
B(  9-C , 10-H ) :   0.9609 B(  9-C , 11-H ) :   0.9615 B(  9-C , 12-C ) :   1.0758
B( 12-C , 13-H ) :   0.9738 B( 12-C , 14-H ) :   0.9748 B( 12-C , 15-H ) :   0.9743
B( 16-S , 17-C ) :   1.1668 B( 16-S , 20-C ) :   1.1463 B( 17-C , 18-C ) :   1.5967
B( 17-C , 20-C ) :   0.1064 B( 17-C , 33-H ) :   0.9726 B( 18-C , 19-C ) :   1.2462
B( 18-C , 21-H ) :   0.9965 B( 19-C , 20-C ) :   1.5716 B( 19-C , 22-C ) :   1.0270
B( 22-C , 23-H ) :   0.9332 B( 22-C , 24-H ) :   0.9336 B( 22-C , 25-C ) :   1.0548
B( 25-C , 26-H ) :   0.9585 B( 25-C , 27-H ) :   0.9505 B( 25-C , 28-C ) :   1.0723
B( 28-C , 29-H ) :   0.9702 B( 28-C , 30-H ) :   0.9797 B( 28-C , 31-H ) :   0.9690

Dispersion correction           -0.013851139
FINAL SINGLE POINT ENERGY     -1339.856757545596

DIPOLE MOMENT
-------------
                                X             Y             Z
Electronic contribution:     -5.51247     -10.71316      22.76171
Nuclear contribution   :      5.49986      10.78096     -23.45563
                        -----------------------------------------
Total Dipole Moment    :     -0.01261       0.06780      -0.69393
                        -----------------------------------------
Magnitude (a.u.)       :      0.69735
Magnitude (Debye)      :      1.77251

Rotational constants in cm-1:     0.018457     0.007534     0.006614
Rotational constants in MHz :   553.331876   225.873915   198.278387

                             ****ORCA TERMINATED NORMALLY****
TOTAL RUN TIME: 0 days 0 hours 0 minutes 32 seconds 315 msec
