                         Program Version 4.2.1 -  RELEASE  -
|  1> ! wB97X-D3 SP def2-SVP
|  2> %pal
|  3> nprocs 16
|  4> end
|  5>
|  6> * xyz 0 1
|  7> S 	 -13.7345 	 -3.72048 	 84.5573
|  8> C 	 -13.1049 	 -3.43042 	 86.121
|  9> C 	 -13.4746 	 -4.51072 	 86.9709
| 10> C 	 -14.1315 	 -5.52175 	 86.2665
| 11> C 	 -14.1755 	 -5.41069 	 84.9113
| 12> H 	 -14.6389 	 -6.35325 	 86.7415
| 13> C 	 -13.1945 	 -4.49539 	 88.5009
| 14> H 	 -14.1422 	 -4.58799 	 89.0372
| 15> H 	 -12.6105 	 -3.62285 	 88.7942
| 16> C 	 -12.2054 	 -5.51428 	 88.8603
| 17> H 	 -12.7748 	 -6.39021 	 88.4937
| 18> H 	 -11.2525 	 -5.50759 	 88.3656
| 19> C 	 -11.7001 	 -5.67229 	 90.3178
| 20> H 	 -11.5181 	 -4.7088 	 90.682
| 21> H 	 -12.375 	 -6.28061 	 90.9173
| 22> H 	 -10.7616 	 -6.2111 	 90.419
| 23> S 	 -15.7376 	 -5.89748 	 82.6333
| 24> C 	 -15.7058 	 -7.43311 	 81.9636
| 25> C 	 -14.7746 	 -8.26432 	 82.5635
| 26> C 	 -14.185 	 -7.69133 	 83.736
| 27> C 	 -14.6078 	 -6.38834 	 83.9199
| 28> H 	 -14.7408 	 -9.27333 	 82.1542
| 29> C 	 -13.1471 	 -8.34156 	 84.6301
| 30> H 	 -13.402 	 -8.3563 	 85.7144
| 31> H 	 -12.1911 	 -7.82481 	 84.4678
| 32> C 	 -13.0176 	 -9.88976 	 84.299
| 33> H 	 -12.5785 	 -10.0067 	 83.2983
| 34> H 	 -13.9847 	 -10.299 	 84.3086
| 35> C 	 -12.1553 	 -10.6461 	 85.2919
| 36> H 	 -11.1669 	 -10.3603 	 85.491
| 37> H 	 -12.0246 	 -11.7201 	 84.9401
| 38> H 	 -12.6502 	 -10.6638 	 86.2711
| 39> H 	 -12.6237 	 -2.60528 	 86.5023
| 40> H 	 -16.3386 	 -7.67582 	 81.2011
| 41> *
| 42>
| 43>                          ****END OF INPUT****

CARTESIAN COORDINATES (ANGSTROEM)
---------------------------------
  S    -13.734500   -3.720480   84.557300
  C    -13.104900   -3.430420   86.121000
  C    -13.474600   -4.510720   86.970900
  C    -14.131500   -5.521750   86.266500
  C    -14.175500   -5.410690   84.911300
  H    -14.638900   -6.353250   86.741500
  C    -13.194500   -4.495390   88.500900
  H    -14.142200   -4.587990   89.037200
  H    -12.610500   -3.622850   88.794200
  C    -12.205400   -5.514280   88.860300
  H    -12.774800   -6.390210   88.493700
  H    -11.252500   -5.507590   88.365600
  C    -11.700100   -5.672290   90.317800
  H    -11.518100   -4.708800   90.682000
  H    -12.375000   -6.280610   90.917300
  H    -10.761600   -6.211100   90.419000
  S    -15.737600   -5.897480   82.633300
  C    -15.705800   -7.433110   81.963600
  C    -14.774600   -8.264320   82.563500
  C    -14.185000   -7.691330   83.736000
  C    -14.607800   -6.388340   83.919900
  H    -14.740800   -9.273330   82.154200
  C    -13.147100   -8.341560   84.630100
  H    -13.402000   -8.356300   85.714400
  H    -12.191100   -7.824810   84.467800
  C    -13.017600   -9.889760   84.299000
  H    -12.578500  -10.006700   83.298300
  H    -13.984700  -10.299000   84.308600
  C    -12.155300  -10.646100   85.291900
  H    -11.166900  -10.360300   85.491000
  H    -12.024600  -11.720100   84.940100
  H    -12.650200  -10.663800   86.271100
  H    -12.623700   -2.605280   86.502300
  H    -16.338600   -7.675820   81.201100

 Total Charge           Charge          ....    0
 Multiplicity           Mult            ....    1
 Number of Electrons    NEL             ....  134
 Basis Dimension        Dim             ....  322

ORBITAL ENERGIES
----------------

  NO   OCC          E(Eh)            E(eV)
   0   2.0000     -88.965167     -2420.8653
   1   2.0000     -88.965003     -2420.8608
   2   2.0000     -10.329011      -281.0667
   3   2.0000     -10.326891      -281.0090
   4   2.0000     -10.309601      -280.5385
   5   2.0000     -10.308284      -280.5027
   6   2.0000     -10.307779      -280.4889
   7   2.0000     -10.301229      -280.3107
   8   2.0000     -10.297445      -280.2077
   9   2.0000     -10.295423      -280.1527
  10   2.0000     -10.292212      -280.0653
  11   2.0000     -10.289143      -279.9818
  12   2.0000     -10.285358      -279.8788
  13   2.0000     -10.277437      -279.6633
  14   2.0000     -10.277150      -279.6555
  15   2.0000     -10.273936      -279.5680
  16   2.0000      -8.081141      -219.8990
  17   2.0000      -8.079692      -219.8596
  18   2.0000      -6.039349      -164.3390
  19   2.0000      -6.038148      -164.3064
  20   2.0000      -6.035503      -164.2344
  21   2.0000      -6.034204      -164.1990
  22   2.0000      -6.032119      -164.1423
  23   2.0000      -6.030500      -164.0982
  24   2.0000      -1.010003       -27.4836
  25   2.0000      -0.990218       -26.9452
  26   2.0000      -0.918346       -24.9895
  27   2.0000      -0.908755       -24.7285
  28   2.0000      -0.873397       -23.7664
  29   2.0000      -0.852946       -23.2098
  30   2.0000      -0.846139       -23.0246
  31   2.0000      -0.817521       -22.2459
  32   2.0000      -0.786356       -21.3978
  33   2.0000      -0.774889       -21.0858
  34   2.0000      -0.707638       -19.2558
  35   2.0000      -0.707355       -19.2481
  36   2.0000      -0.687965       -18.7205
  37   2.0000      -0.652286       -17.7496
  38   2.0000      -0.645825       -17.5738
  39   2.0000      -0.626928       -17.0596
  40   2.0000      -0.602888       -16.4054
  41   2.0000      -0.575022       -15.6471
  42   2.0000      -0.573274       -15.5996
  43   2.0000      -0.569133       -15.4869
  44   2.0000      -0.529182       -14.3998
  45   2.0000      -0.526462       -14.3258
  46   2.0000      -0.518530       -14.1099
  47   2.0000      -0.512566       -13.9476
  48   2.0000      -0.506781       -13.7902
  49   2.0000      -0.503122       -13.6907
  50   2.0000      -0.494101       -13.4452
  51   2.0000      -0.490195       -13.3389
  52   2.0000      -0.479738       -13.0543
  53   2.0000      -0.471725       -12.8363
  54   2.0000      -0.461570       -12.5599
  55   2.0000      -0.455241       -12.3877
  56   2.0000      -0.451295       -12.2804
  57   2.0000      -0.434067       -11.8116
  58   2.0000      -0.429008       -11.6739
  59   2.0000      -0.424514       -11.5516
  60   2.0000      -0.407490       -11.0884
  61   2.0000      -0.406441       -11.0598
  62   2.0000      -0.398397       -10.8409
  63   2.0000      -0.351538        -9.5658
  64   2.0000      -0.334571        -9.1041
  65   2.0000      -0.328576        -8.9410
  66   2.0000      -0.285611        -7.7719
  67   0.0000       0.027499         0.7483
  68   0.0000       0.064812         1.7636
  69   0.0000       0.115014         3.1297
  70   0.0000       0.124108         3.3772
  71   0.0000       0.132812         3.6140

MULLIKEN ATOMIC CHARGES
-----------------------
   0 S :    0.115227
   1 C :   -0.071225
   2 C :   -0.125015
   3 C :    0.022190
   4 C :   -0.149714
   5 H :    0.018539
   6 C :    0.120691
   7 H :    0.044268
   8 H :    0.001321
   9 C :   -0.126920
  10 H :    0.010429
  11 H :    0.029822
  12 C :   -0.005028
  13 H :    0.014633
  14 H :    0.028426
  15 H :    0.027577
  16 S :    0.115211
  17 C :   -0.053081
  18 C :   -0.059816
  19 C :   -0.025176
  20 C :   -0.162542
  21 H :    0.025143
  22 C :    0.055306
  23 H :    0.037333
  24 H :    0.054290
  25 C :   -0.095140
  26 H :    0.035580
  27 H :    0.029231
  28 C :   -0.032558
  29 H :    0.020409
  30 H :    0.034631
  31 H :    0.026712
  32 H :    0.014845
  33 H :    0.024400
Sum of atomic charges:    0.0000000

LOEWDIN ATOMIC CHARGES
----------------------
   0 S :    0.411080
   1 C :   -0.195264
   2 C :   -0.059393
   3 C :   -0.069544
   4 C :   -0.183831
   5 H :    0.031541
   6 C :   -0.027363
   7 H :    0.035370
   8 H :    0.025111
   9 C :   -0.053739
  10 H :    0.018903
  11 H :    0.025963
  12 C :   -0.059597
  13 H :    0.015860
  14 H :    0.024319
  15 H :    0.028395
  16 S :    0.425184
  17 C :   -0.185483
  18 C :   -0.079452
  19 C :   -0.051388
  20 C :   -0.193932
  21 H :    0.034794
  22 C :   -0.028600
  23 H :    0.034056
  24 H :    0.040384
  25 C :   -0.038714
  26 H :    0.024321
  27 H :    0.019218
  28 C :   -0.068307
  29 H :    0.015926
  30 H :    0.035051
  31 H :    0.024844
  32 H :    0.013981
  33 H :    0.010307

  Mayer bond orders larger than 0.100000
B(  0-S ,  1-C ) :   1.1643 B(  0-S ,  4-C ) :   1.1417 B(  1-C ,  2-C ) :   1.5659
B(  1-C ,  4-C ) :   0.1137 B(  1-C , 32-H ) :   0.9794 B(  2-C ,  3-C ) :   1.2819
B(  2-C ,  6-C ) :   1.0279 B(  3-C ,  4-C ) :   1.5510 B(  3-C ,  5-H ) :   0.9887
B(  4-C , 20-C ) :   1.0678 B(  6-C ,  7-H ) :   0.9428 B(  6-C ,  8-H ) :   0.9350
B(  6-C ,  9-C ) :   1.0496 B(  9-C , 10-H ) :   0.9611 B(  9-C , 11-H ) :   0.9609
B(  9-C , 12-C ) :   1.0733 B( 12-C , 13-H ) :   0.9712 B( 12-C , 14-H ) :   0.9755
B( 12-C , 15-H ) :   0.9778 B( 16-S , 17-C ) :   1.1885 B( 16-S , 20-C ) :   1.1408
B( 17-C , 18-C ) :   1.5789 B( 17-C , 33-H ) :   0.9758 B( 18-C , 19-C ) :   1.2401
B( 18-C , 21-H ) :   0.9928 B( 19-C , 20-C ) :   1.5943 B( 19-C , 22-C ) :   1.0356
B( 22-C , 23-H ) :   0.9405 B( 22-C , 24-H ) :   0.9258 B( 22-C , 25-C ) :   1.0803
B( 25-C , 26-H ) :   0.9481 B( 25-C , 27-H ) :   0.9562 B( 25-C , 28-C ) :   1.0902
B( 28-C , 29-H ) :   0.9756 B( 28-C , 30-H ) :   0.9709 B( 28-C , 31-H ) :   0.9712

Dispersion correction           -0.013494327
FINAL SINGLE POINT ENERGY     -1339.848907319574

DIPOLE MOMENT
-------------
                                X             Y             Z
Electronic contribution:    -15.44283      18.53257     -23.20977
Nuclear contribution   :     15.63673     -19.04717      23.58970
                        -----------------------------------------
Total Dipole Moment    :      0.19390      -0.51460       0.37993
                        -----------------------------------------
Magnitude (a.u.)       :      0.66839
Magnitude (Debye)      :      1.69892

Rotational constants in cm-1:     0.016201     0.009219     0.006192
Rotational constants in MHz :   485.688329   276.370979   185.633926

                             ****ORCA TERMINATED NORMALLY****
TOTAL RUN TIME: 0 days 0 hours 0 minutes 31 seconds 247 msec
