                         Program Version 4.2.1 -  RELEASE  -
|  1> ! wB97X-D3 SP def2-SVP
|  2> %pal
|  3> nprocs 16
|  4> end
|  5>
|  6> * xyz 0 1
|  7> S 	 -55.5555 	 33.6725 	 91.3185
|  8> C 	 -56.0902 	 32.1396 	 90.6259
|  9> C 	 -56.8118 	 31.4172 	 91.5417
| 10> C 	 -57.0345 	 32.1238 	 92.7498
| 11> C 	 -56.3764 	 33.3329 	 92.8514
| 12> H 	 -57.6188 	 31.92 	 93.596
| 13> C 	 -57.3352 	 30.0394 	 91.2518
| 14> H 	 -57.5937 	 29.9416 	 90.2177
| 15> H 	 -58.3764 	 29.9032 	 91.7406
| 16> C 	 -56.4262 	 28.9476 	 91.8862
| 17> H 	 -56.3912 	 29.0222 	 92.9859
| 18> H 	 -56.8238 	 28.0274 	 91.7221
| 19> C 	 -55.0631 	 28.8521 	 91.2266
| 20> H 	 -55.2456 	 28.6936 	 90.1603
| 21> H 	 -54.3929 	 29.7563 	 91.2442
| 22> H 	 -54.5375 	 27.994 	 91.6383
| 23> S 	 -56.8156 	 36.0069 	 93.5426
| 24> C 	 -57.0278 	 36.4542 	 95.2198
| 25> C 	 -56.5588 	 35.42 	 96.0259
| 26> C 	 -56.2982 	 34.1796 	 95.2874
| 27> C 	 -56.3818 	 34.3359 	 93.9336
| 28> H 	 -56.6529 	 35.5829 	 97.1478
| 29> C 	 -55.9624 	 32.8999 	 95.9997
| 30> H 	 -55.1009 	 32.9548 	 96.6299
| 31> H 	 -55.7128 	 32.1482 	 95.2711
| 32> C 	 -57.1167 	 32.2259 	 96.6937
| 33> H 	 -57.9521 	 32.3272 	 96.0522
| 34> H 	 -57.4163 	 32.7859 	 97.5538
| 35> C 	 -57.0519 	 30.7394 	 96.9852
| 36> H 	 -57.9712 	 30.3444 	 97.3848
| 37> H 	 -56.3792 	 30.5511 	 97.8002
| 38> H 	 -56.8896 	 30.192 	 96.0423
| 39> H 	 -55.8651 	 31.8714 	 89.6317
| 40> H 	 -57.3037 	 37.4022 	 95.7141
| 41> *
| 42>
| 43>                          ****END OF INPUT****

CARTESIAN COORDINATES (ANGSTROEM)
---------------------------------
  S    -55.555500   33.672500   91.318500
  C    -56.090200   32.139600   90.625900
  C    -56.811800   31.417200   91.541700
  C    -57.034500   32.123800   92.749800
  C    -56.376400   33.332900   92.851400
  H    -57.618800   31.920000   93.596000
  C    -57.335200   30.039400   91.251800
  H    -57.593700   29.941600   90.217700
  H    -58.376400   29.903200   91.740600
  C    -56.426200   28.947600   91.886200
  H    -56.391200   29.022200   92.985900
  H    -56.823800   28.027400   91.722100
  C    -55.063100   28.852100   91.226600
  H    -55.245600   28.693600   90.160300
  H    -54.392900   29.756300   91.244200
  H    -54.537500   27.994000   91.638300
  S    -56.815600   36.006900   93.542600
  C    -57.027800   36.454200   95.219800
  C    -56.558800   35.420000   96.025900
  C    -56.298200   34.179600   95.287400
  C    -56.381800   34.335900   93.933600
  H    -56.652900   35.582900   97.147800
  C    -55.962400   32.899900   95.999700
  H    -55.100900   32.954800   96.629900
  H    -55.712800   32.148200   95.271100
  C    -57.116700   32.225900   96.693700
  H    -57.952100   32.327200   96.052200
  H    -57.416300   32.785900   97.553800
  C    -57.051900   30.739400   96.985200
  H    -57.971200   30.344400   97.384800
  H    -56.379200   30.551100   97.800200
  H    -56.889600   30.192000   96.042300
  H    -55.865100   31.871400   89.631700
  H    -57.303700   37.402200   95.714100

 Total Charge           Charge          ....    0
 Multiplicity           Mult            ....    1
 Number of Electrons    NEL             ....  134
 Basis Dimension        Dim             ....  322

ORBITAL ENERGIES
----------------

  NO   OCC          E(Eh)            E(eV)
   0   2.0000     -88.966040     -2420.8890
   1   2.0000     -88.962922     -2420.8042
   2   2.0000     -10.333540      -281.1899
   3   2.0000     -10.330948      -281.1194
   4   2.0000     -10.323665      -280.9212
   5   2.0000     -10.313199      -280.6364
   6   2.0000     -10.308337      -280.5041
   7   2.0000     -10.303018      -280.3594
   8   2.0000     -10.302090      -280.3341
   9   2.0000     -10.297937      -280.2211
  10   2.0000     -10.292419      -280.0710
  11   2.0000     -10.283255      -279.8216
  12   2.0000     -10.283033      -279.8155
  13   2.0000     -10.277884      -279.6754
  14   2.0000     -10.276865      -279.6477
  15   2.0000     -10.275629      -279.6141
  16   2.0000      -8.080476      -219.8809
  17   2.0000      -8.077360      -219.7961
  18   2.0000      -6.039228      -164.3358
  19   2.0000      -6.035906      -164.2454
  20   2.0000      -6.034986      -164.2203
  21   2.0000      -6.031843      -164.1348
  22   2.0000      -6.030987      -164.1115
  23   2.0000      -6.028179      -164.0351
  24   2.0000      -1.005779       -27.3686
  25   2.0000      -0.984276       -26.7835
  26   2.0000      -0.917350       -24.9624
  27   2.0000      -0.912783       -24.8381
  28   2.0000      -0.870485       -23.6871
  29   2.0000      -0.852894       -23.2084
  30   2.0000      -0.844735       -22.9864
  31   2.0000      -0.819044       -22.2873
  32   2.0000      -0.785266       -21.3682
  33   2.0000      -0.775073       -21.0908
  34   2.0000      -0.710757       -19.3407
  35   2.0000      -0.700067       -19.0498
  36   2.0000      -0.696133       -18.9427
  37   2.0000      -0.659062       -17.9340
  38   2.0000      -0.649323       -17.6690
  39   2.0000      -0.619961       -16.8700
  40   2.0000      -0.597599       -16.2615
  41   2.0000      -0.575891       -15.6708
  42   2.0000      -0.571027       -15.5384
  43   2.0000      -0.548802       -14.9337
  44   2.0000      -0.542516       -14.7626
  45   2.0000      -0.524678       -14.2772
  46   2.0000      -0.518700       -14.1146
  47   2.0000      -0.515679       -14.0323
  48   2.0000      -0.513555       -13.9746
  49   2.0000      -0.502913       -13.6850
  50   2.0000      -0.488495       -13.2926
  51   2.0000      -0.480383       -13.0719
  52   2.0000      -0.475221       -12.9314
  53   2.0000      -0.467853       -12.7309
  54   2.0000      -0.461715       -12.5639
  55   2.0000      -0.448882       -12.2147
  56   2.0000      -0.442542       -12.0422
  57   2.0000      -0.433730       -11.8024
  58   2.0000      -0.427919       -11.6443
  59   2.0000      -0.421043       -11.4572
  60   2.0000      -0.417921       -11.3722
  61   2.0000      -0.416769       -11.3409
  62   2.0000      -0.412983       -11.2378
  63   2.0000      -0.351290        -9.5591
  64   2.0000      -0.331257        -9.0140
  65   2.0000      -0.329222        -8.9586
  66   2.0000      -0.296779        -8.0758
  67   0.0000       0.029818         0.8114
  68   0.0000       0.068466         1.8631
  69   0.0000       0.111465         3.0331
  70   0.0000       0.118610         3.2276
  71   0.0000       0.124409         3.3853

MULLIKEN ATOMIC CHARGES
-----------------------
   0 S :    0.088530
   1 C :   -0.108779
   2 C :   -0.051760
   3 C :    0.060687
   4 C :   -0.166270
   5 H :   -0.023780
   6 C :    0.030437
   7 H :    0.022838
   8 H :    0.033712
   9 C :   -0.015469
  10 H :    0.032270
  11 H :    0.003316
  12 C :   -0.071556
  13 H :    0.019092
  14 H :    0.051215
  15 H :    0.035792
  16 S :    0.106387
  17 C :   -0.103502
  18 C :   -0.058650
  19 C :   -0.063822
  20 C :   -0.112375
  21 H :    0.048061
  22 C :    0.113309
  23 H :    0.026587
  24 H :   -0.002879
  25 C :   -0.077719
  26 H :    0.009748
  27 H :    0.010493
  28 C :   -0.026987
  29 H :    0.022668
  30 H :    0.028283
  31 H :    0.035886
  32 H :    0.033674
  33 H :    0.070564
Sum of atomic charges:    0.0000000

LOEWDIN ATOMIC CHARGES
----------------------
   0 S :    0.383283
   1 C :   -0.178212
   2 C :   -0.062565
   3 C :   -0.058414
   4 C :   -0.175288
   5 H :    0.023392
   6 C :   -0.032183
   7 H :    0.025754
   8 H :    0.039776
   9 C :   -0.033159
  10 H :    0.026732
  11 H :    0.012426
  12 C :   -0.068901
  13 H :    0.023231
  14 H :    0.029459
  15 H :    0.026280
  16 S :    0.396827
  17 C :   -0.191143
  18 C :   -0.081579
  19 C :   -0.050384
  20 C :   -0.194422
  21 H :    0.042227
  22 C :   -0.030447
  23 H :    0.028666
  24 H :    0.027137
  25 C :   -0.041979
  26 H :    0.017158
  27 H :    0.016316
  28 C :   -0.060448
  29 H :    0.027287
  30 H :    0.022947
  31 H :    0.027892
  32 H :    0.019517
  33 H :    0.042816

  Mayer bond orders larger than 0.100000
B(  0-S ,  1-C ) :   1.1331 B(  0-S ,  4-C ) :   1.1447 B(  1-C ,  2-C ) :   1.6050
B(  1-C , 32-H ) :   0.9804 B(  2-C ,  3-C ) :   1.2138 B(  2-C ,  6-C ) :   1.0274
B(  3-C ,  4-C ) :   1.5912 B(  3-C ,  5-H ) :   1.0049 B(  4-C , 20-C ) :   1.0169
B(  6-C ,  7-H ) :   0.9471 B(  6-C ,  8-H ) :   0.9407 B(  6-C ,  9-C ) :   1.0693
B(  9-C , 10-H ) :   0.9546 B(  9-C , 11-H ) :   0.9498 B(  9-C , 12-C ) :   1.0737
B( 12-C , 13-H ) :   0.9729 B( 12-C , 14-H ) :   0.9749 B( 12-C , 15-H ) :   0.9735
B( 16-S , 17-C ) :   1.1481 B( 16-S , 20-C ) :   1.1152 B( 17-C , 18-C ) :   1.6471
B( 17-C , 33-H ) :   0.9610 B( 18-C , 19-C ) :   1.1981 B( 18-C , 21-H ) :   0.9762
B( 19-C , 20-C ) :   1.6381 B( 19-C , 22-C ) :   1.0670 B( 22-C , 23-H ) :   0.9320
B( 22-C , 24-H ) :   0.9215 B( 22-C , 25-C ) :   1.0537 B( 25-C , 26-H ) :   0.9495
B( 25-C , 27-H ) :   0.9469 B( 25-C , 28-C ) :   1.1028 B( 28-C , 29-H ) :   0.9696
B( 28-C , 30-H ) :   0.9734 B( 28-C , 31-H ) :   0.9693

Dispersion correction           -0.014940794
FINAL SINGLE POINT ENERGY     -1339.872379461778

DIPOLE MOMENT
-------------
                                X             Y             Z
Electronic contribution:      1.70789      28.60386      -9.90011
Nuclear contribution   :     -2.00652     -29.21623      10.32165
                        -----------------------------------------
Total Dipole Moment    :     -0.29863      -0.61237       0.42155
                        -----------------------------------------
Magnitude (a.u.)       :      0.80118
Magnitude (Debye)      :      2.03643

Rotational constants in cm-1:     0.018493     0.009659     0.006816
Rotational constants in MHz :   554.396902   289.555473   204.340410

                             ****ORCA TERMINATED NORMALLY****
TOTAL RUN TIME: 0 days 0 hours 0 minutes 30 seconds 961 msec
