                         Program Version 4.2.1 -  RELEASE  -
|  1> ! wB97X-D3 SP def2-SVP
|  2> %pal
|  3> nprocs 16
|  4> end
|  5>
|  6> * xyz 0 1
|  7> S 	 -8.58503 	 64.3604 	 52.7929
|  8> C 	 -9.11076 	 62.9899 	 53.7618
|  9> C 	 -10.2058 	 63.3748 	 54.5537
| 10> C 	 -10.6584 	 64.7599 	 54.3564
| 11> C 	 -10.015 	 65.3437 	 53.2578
| 12> H 	 -11.5061 	 65.2289 	 54.8387
| 13> C 	 -10.8484 	 62.4893 	 55.5365
| 14> H 	 -10.6551 	 61.4381 	 55.1789
| 15> H 	 -11.8739 	 62.7037 	 55.7201
| 16> C 	 -10.0352 	 62.6628 	 56.8715
| 17> H 	 -9.94075 	 63.68 	 57.2846
| 18> H 	 -10.5398 	 62.0565 	 57.5897
| 19> C 	 -8.60694 	 62.0297 	 56.8421
| 20> H 	 -7.97295 	 62.5697 	 56.2173
| 21> H 	 -8.09281 	 61.9333 	 57.7741
| 22> H 	 -8.63929 	 60.9761 	 56.561
| 23> S 	 -10.4943 	 67.1113 	 51.1563
| 24> C 	 -10.7127 	 68.8107 	 51.4147
| 25> C 	 -10.6118 	 69.0921 	 52.8273
| 26> C 	 -10.1975 	 67.9548 	 53.5742
| 27> C 	 -10.1581 	 66.7531 	 52.8423
| 28> H 	 -10.7774 	 70.1368 	 53.0951
| 29> C 	 -9.83184 	 68.0947 	 55.0398
| 30> H 	 -9.23155 	 67.1872 	 55.31
| 31> H 	 -10.7614 	 68.0408 	 55.5818
| 32> C 	 -8.98301 	 69.2354 	 55.4958
| 33> H 	 -8.9335 	 69.1612 	 56.5821
| 34> H 	 -9.43122 	 70.1064 	 55.1208
| 35> C 	 -7.49608 	 69.2364 	 55.0375
| 36> H 	 -6.80444 	 68.6753 	 55.7395
| 37> H 	 -7.12541 	 70.2687 	 54.9438
| 38> H 	 -7.37269 	 68.8088 	 54.0767
| 39> H 	 -8.53772 	 62.1167 	 53.9348
| 40> H 	 -10.9014 	 69.5152 	 50.5788
| 41> *
| 42>
| 43>                          ****END OF INPUT****

CARTESIAN COORDINATES (ANGSTROEM)
---------------------------------
  S     -8.585030   64.360400   52.792900
  C     -9.110760   62.989900   53.761800
  C    -10.205800   63.374800   54.553700
  C    -10.658400   64.759900   54.356400
  C    -10.015000   65.343700   53.257800
  H    -11.506100   65.228900   54.838700
  C    -10.848400   62.489300   55.536500
  H    -10.655100   61.438100   55.178900
  H    -11.873900   62.703700   55.720100
  C    -10.035200   62.662800   56.871500
  H     -9.940750   63.680000   57.284600
  H    -10.539800   62.056500   57.589700
  C     -8.606940   62.029700   56.842100
  H     -7.972950   62.569700   56.217300
  H     -8.092810   61.933300   57.774100
  H     -8.639290   60.976100   56.561000
  S    -10.494300   67.111300   51.156300
  C    -10.712700   68.810700   51.414700
  C    -10.611800   69.092100   52.827300
  C    -10.197500   67.954800   53.574200
  C    -10.158100   66.753100   52.842300
  H    -10.777400   70.136800   53.095100
  C     -9.831840   68.094700   55.039800
  H     -9.231550   67.187200   55.310000
  H    -10.761400   68.040800   55.581800
  C     -8.983010   69.235400   55.495800
  H     -8.933500   69.161200   56.582100
  H     -9.431220   70.106400   55.120800
  C     -7.496080   69.236400   55.037500
  H     -6.804440   68.675300   55.739500
  H     -7.125410   70.268700   54.943800
  H     -7.372690   68.808800   54.076700
  H     -8.537720   62.116700   53.934800
  H    -10.901400   69.515200   50.578800

 Total Charge           Charge          ....    0
 Multiplicity           Mult            ....    1
 Number of Electrons    NEL             ....  134
 Basis Dimension        Dim             ....  322

ORBITAL ENERGIES
----------------

  NO   OCC          E(Eh)            E(eV)
   0   2.0000     -88.964953     -2420.8594
   1   2.0000     -88.964845     -2420.8565
   2   2.0000     -10.337181      -281.2890
   3   2.0000     -10.329064      -281.0681
   4   2.0000     -10.326464      -280.9974
   5   2.0000     -10.314208      -280.6639
   6   2.0000     -10.307876      -280.4916
   7   2.0000     -10.305070      -280.4152
   8   2.0000     -10.302714      -280.3511
   9   2.0000     -10.301525      -280.3187
  10   2.0000     -10.295192      -280.1464
  11   2.0000     -10.290300      -280.0133
  12   2.0000     -10.286004      -279.8964
  13   2.0000     -10.280062      -279.7347
  14   2.0000     -10.275251      -279.6038
  15   2.0000     -10.271413      -279.4994
  16   2.0000      -8.079787      -219.8622
  17   2.0000      -8.078591      -219.8296
  18   2.0000      -6.038091      -164.3048
  19   2.0000      -6.037243      -164.2817
  20   2.0000      -6.034003      -164.1936
  21   2.0000      -6.033274      -164.1737
  22   2.0000      -6.031023      -164.1125
  23   2.0000      -6.029211      -164.0632
  24   2.0000      -0.998372       -27.1671
  25   2.0000      -0.977573       -26.6011
  26   2.0000      -0.912333       -24.8258
  27   2.0000      -0.910983       -24.7891
  28   2.0000      -0.862275       -23.4637
  29   2.0000      -0.846420       -23.0323
  30   2.0000      -0.842349       -22.9215
  31   2.0000      -0.810462       -22.0538
  32   2.0000      -0.782511       -21.2932
  33   2.0000      -0.773257       -21.0414
  34   2.0000      -0.708293       -19.2736
  35   2.0000      -0.698141       -18.9974
  36   2.0000      -0.692741       -18.8504
  37   2.0000      -0.652688       -17.7606
  38   2.0000      -0.642103       -17.4725
  39   2.0000      -0.617583       -16.8053
  40   2.0000      -0.597668       -16.2634
  41   2.0000      -0.574342       -15.6286
  42   2.0000      -0.554371       -15.0852
  43   2.0000      -0.553287       -15.0557
  44   2.0000      -0.544319       -14.8117
  45   2.0000      -0.539169       -14.6715
  46   2.0000      -0.518717       -14.1150
  47   2.0000      -0.516774       -14.0621
  48   2.0000      -0.502755       -13.6807
  49   2.0000      -0.494872       -13.4662
  50   2.0000      -0.487815       -13.2741
  51   2.0000      -0.473276       -12.8785
  52   2.0000      -0.470024       -12.7900
  53   2.0000      -0.460872       -12.5410
  54   2.0000      -0.458855       -12.4861
  55   2.0000      -0.445097       -12.1117
  56   2.0000      -0.440915       -11.9979
  57   2.0000      -0.437705       -11.9106
  58   2.0000      -0.432920       -11.7803
  59   2.0000      -0.431953       -11.7540
  60   2.0000      -0.415719       -11.3123
  61   2.0000      -0.410184       -11.1617
  62   2.0000      -0.408956       -11.1283
  63   2.0000      -0.340009        -9.2521
  64   2.0000      -0.329637        -8.9699
  65   2.0000      -0.322771        -8.7830
  66   2.0000      -0.293135        -7.9766
  67   0.0000       0.026656         0.7253
  68   0.0000       0.060015         1.6331
  69   0.0000       0.111498         3.0340
  70   0.0000       0.123541         3.3617
  71   0.0000       0.126719         3.4482

MULLIKEN ATOMIC CHARGES
-----------------------
   0 S :    0.095503
   1 C :   -0.093829
   2 C :   -0.125871
   3 C :    0.032455
   4 C :   -0.117859
   5 H :    0.024690
   6 C :    0.075310
   7 H :    0.038956
   8 H :    0.027767
   9 C :   -0.071690
  10 H :    0.041502
  11 H :    0.020884
  12 C :   -0.054668
  13 H :    0.029336
  14 H :    0.024706
  15 H :    0.018613
  16 S :    0.115318
  17 C :   -0.133091
  18 C :   -0.059958
  19 C :   -0.033003
  20 C :   -0.176356
  21 H :    0.033954
  22 C :    0.052267
  23 H :    0.031100
  24 H :    0.034115
  25 C :   -0.034606
  26 H :    0.034679
  27 H :    0.013205
  28 C :   -0.070935
  29 H :    0.038701
  30 H :    0.033026
  31 H :    0.030195
  32 H :    0.043809
  33 H :    0.081774
Sum of atomic charges:    0.0000000

LOEWDIN ATOMIC CHARGES
----------------------
   0 S :    0.384064
   1 C :   -0.197426
   2 C :   -0.056451
   3 C :   -0.052617
   4 C :   -0.180637
   5 H :    0.033897
   6 C :   -0.029038
   7 H :    0.041089
   8 H :    0.027246
   9 C :   -0.030447
  10 H :    0.027610
  11 H :    0.017341
  12 C :   -0.065456
  13 H :    0.012752
  14 H :    0.025835
  15 H :    0.023486
  16 S :    0.423728
  17 C :   -0.197736
  18 C :   -0.080544
  19 C :   -0.055808
  20 C :   -0.214582
  21 H :    0.034082
  22 C :   -0.037771
  23 H :    0.035637
  24 H :    0.031351
  25 C :   -0.036724
  26 H :    0.031957
  27 H :    0.012802
  28 C :   -0.067250
  29 H :    0.030763
  30 H :    0.028969
  31 H :    0.019669
  32 H :    0.022461
  33 H :    0.037747

  Mayer bond orders larger than 0.100000
B(  0-S ,  1-C ) :   1.1243 B(  0-S ,  4-C ) :   1.1469 B(  1-C ,  2-C ) :   1.6067
B(  1-C , 32-H ) :   0.9667 B(  2-C ,  3-C ) :   1.2204 B(  2-C ,  6-C ) :   1.0455
B(  3-C ,  4-C ) :   1.5713 B(  3-C ,  5-H ) :   0.9959 B(  4-C , 20-C ) :   1.0291
B(  6-C ,  7-H ) :   0.9428 B(  6-C ,  8-H ) :   0.9419 B(  6-C ,  9-C ) :   1.0540
B(  9-C , 10-H ) :   0.9596 B(  9-C , 11-H ) :   0.9578 B(  9-C , 12-C ) :   1.0760
B( 12-C , 13-H ) :   0.9730 B( 12-C , 14-H ) :   0.9710 B( 12-C , 15-H ) :   0.9729
B( 16-S , 17-C ) :   1.2034 B( 16-S , 20-C ) :   1.1527 B( 17-C , 18-C ) :   1.5367
B( 17-C , 20-C ) :   0.1136 B( 17-C , 33-H ) :   0.9656 B( 18-C , 19-C ) :   1.2692
B( 18-C , 21-H ) :   0.9937 B( 19-C , 20-C ) :   1.5474 B( 19-C , 22-C ) :   1.0297
B( 22-C , 23-H ) :   0.9380 B( 22-C , 24-H ) :   0.9284 B( 22-C , 25-C ) :   1.0880
B( 25-C , 26-H ) :   0.9527 B( 25-C , 27-H ) :   0.9550 B( 25-C , 28-C ) :   1.0731
B( 28-C , 29-H ) :   0.9764 B( 28-C , 30-H ) :   0.9765 B( 28-C , 31-H ) :   0.9790

Dispersion correction           -0.014767537
FINAL SINGLE POINT ENERGY     -1339.862805402191

DIPOLE MOMENT
-------------
                                X             Y             Z
Electronic contribution:     -5.58626       0.95144     -24.75169
Nuclear contribution   :      5.43868      -0.85636      25.47865
                        -----------------------------------------
Total Dipole Moment    :     -0.14758       0.09509       0.72697
                        -----------------------------------------
Magnitude (a.u.)       :      0.74786
Magnitude (Debye)      :      1.90092

Rotational constants in cm-1:     0.020381     0.008390     0.006971
Rotational constants in MHz :   611.009375   251.523079   208.982924

                             ****ORCA TERMINATED NORMALLY****
TOTAL RUN TIME: 0 days 0 hours 0 minutes 34 seconds 728 msec
