                         Program Version 4.2.1 -  RELEASE  -
|  1> ! wB97X-D3 SP def2-SVP
|  2> %pal
|  3> nprocs 16
|  4> end
|  5>
|  6> * xyz 0 1
|  7> S 	 -79.1563 	 39.0826 	 134.554
|  8> C 	 -78.0022 	 38.2271 	 135.474
|  9> C 	 -78.0026 	 36.8321 	 135.299
| 10> C 	 -79.0019 	 36.4798 	 134.348
| 11> C 	 -79.6706 	 37.6003 	 133.818
| 12> H 	 -79.1948 	 35.4144 	 134.2
| 13> C 	 -77.0502 	 35.8068 	 135.931
| 14> H 	 -77.3888 	 34.7271 	 135.946
| 15> H 	 -76.7999 	 36.0895 	 136.968
| 16> C 	 -75.7215 	 35.7893 	 135.091
| 17> H 	 -75.4919 	 36.8099 	 135.051
| 18> H 	 -74.9119 	 35.243 	 135.623
| 19> C 	 -75.8324 	 35.2869 	 133.603
| 20> H 	 -76.8354 	 35.5194 	 133.162
| 21> H 	 -75.1556 	 35.7719 	 132.884
| 22> H 	 -75.6426 	 34.2262 	 133.429
| 23> S 	 -82.2168 	 38.5202 	 133.589
| 24> C 	 -83.1325 	 38.0115 	 132.12
| 25> C 	 -82.4401 	 37.3055 	 131.184
| 26> C 	 -81.1125 	 37.0702 	 131.642
| 27> C 	 -80.8321 	 37.6188 	 132.942
| 28> H 	 -82.8653 	 36.9607 	 130.258
| 29> C 	 -80.1856 	 36.1974 	 130.851
| 30> H 	 -80.2523 	 35.2016 	 131.133
| 31> H 	 -79.2186 	 36.5273 	 131.238
| 32> C 	 -80.0646 	 36.3183 	 129.386
| 33> H 	 -79.9077 	 37.3761 	 129.279
| 34> H 	 -81.0113 	 36.1255 	 128.905
| 35> C 	 -79.0029 	 35.4634 	 128.659
| 36> H 	 -78.8611 	 35.7332 	 127.578
| 37> H 	 -79.1284 	 34.384 	 128.653
| 38> H 	 -78.0409 	 35.8145 	 129.073
| 39> H 	 -77.1912 	 38.7576 	 136.097
| 40> H 	 -84.1519 	 38.2071 	 131.948
| 41> *
| 42>
| 43>                          ****END OF INPUT****

CARTESIAN COORDINATES (ANGSTROEM)
---------------------------------
  S    -79.156300   39.082600  134.554000
  C    -78.002200   38.227100  135.474000
  C    -78.002600   36.832100  135.299000
  C    -79.001900   36.479800  134.348000
  C    -79.670600   37.600300  133.818000
  H    -79.194800   35.414400  134.200000
  C    -77.050200   35.806800  135.931000
  H    -77.388800   34.727100  135.946000
  H    -76.799900   36.089500  136.968000
  C    -75.721500   35.789300  135.091000
  H    -75.491900   36.809900  135.051000
  H    -74.911900   35.243000  135.623000
  C    -75.832400   35.286900  133.603000
  H    -76.835400   35.519400  133.162000
  H    -75.155600   35.771900  132.884000
  H    -75.642600   34.226200  133.429000
  S    -82.216800   38.520200  133.589000
  C    -83.132500   38.011500  132.120000
  C    -82.440100   37.305500  131.184000
  C    -81.112500   37.070200  131.642000
  C    -80.832100   37.618800  132.942000
  H    -82.865300   36.960700  130.258000
  C    -80.185600   36.197400  130.851000
  H    -80.252300   35.201600  131.133000
  H    -79.218600   36.527300  131.238000
  C    -80.064600   36.318300  129.386000
  H    -79.907700   37.376100  129.279000
  H    -81.011300   36.125500  128.905000
  C    -79.002900   35.463400  128.659000
  H    -78.861100   35.733200  127.578000
  H    -79.128400   34.384000  128.653000
  H    -78.040900   35.814500  129.073000
  H    -77.191200   38.757600  136.097000
  H    -84.151900   38.207100  131.948000

 Total Charge           Charge          ....    0
 Multiplicity           Mult            ....    1
 Number of Electrons    NEL             ....  134
 Basis Dimension        Dim             ....  322

ORBITAL ENERGIES
----------------

  NO   OCC          E(Eh)            E(eV)
   0   2.0000     -88.974057     -2421.1072
   1   2.0000     -88.969068     -2420.9714
   2   2.0000     -10.331531      -281.1353
   3   2.0000     -10.331014      -281.1212
   4   2.0000     -10.320155      -280.8257
   5   2.0000     -10.314292      -280.6662
   6   2.0000     -10.306718      -280.4601
   7   2.0000     -10.305114      -280.4164
   8   2.0000     -10.304826      -280.4086
   9   2.0000     -10.298739      -280.2429
  10   2.0000     -10.291584      -280.0482
  11   2.0000     -10.289464      -279.9906
  12   2.0000     -10.285623      -279.8860
  13   2.0000     -10.280577      -279.7487
  14   2.0000     -10.280398      -279.7438
  15   2.0000     -10.276329      -279.6331
  16   2.0000      -8.089536      -220.1275
  17   2.0000      -8.082468      -219.9351
  18   2.0000      -6.047842      -164.5701
  19   2.0000      -6.043902      -164.4629
  20   2.0000      -6.041041      -164.3851
  21   2.0000      -6.040508      -164.3706
  22   2.0000      -6.037344      -164.2845
  23   2.0000      -6.033060      -164.1679
  24   2.0000      -1.007626       -27.4189
  25   2.0000      -0.979805       -26.6619
  26   2.0000      -0.916304       -24.9339
  27   2.0000      -0.906931       -24.6788
  28   2.0000      -0.867166       -23.5968
  29   2.0000      -0.849995       -23.1295
  30   2.0000      -0.843993       -22.9662
  31   2.0000      -0.811253       -22.0753
  32   2.0000      -0.784306       -21.3421
  33   2.0000      -0.768107       -20.9012
  34   2.0000      -0.705491       -19.1974
  35   2.0000      -0.699753       -19.0412
  36   2.0000      -0.695831       -18.9345
  37   2.0000      -0.657958       -17.9040
  38   2.0000      -0.634273       -17.2595
  39   2.0000      -0.622083       -16.9277
  40   2.0000      -0.598495       -16.2859
  41   2.0000      -0.576780       -15.6950
  42   2.0000      -0.572356       -15.5746
  43   2.0000      -0.543689       -14.7945
  44   2.0000      -0.540550       -14.7091
  45   2.0000      -0.516103       -14.0439
  46   2.0000      -0.513335       -13.9686
  47   2.0000      -0.510388       -13.8884
  48   2.0000      -0.495412       -13.4809
  49   2.0000      -0.491653       -13.3786
  50   2.0000      -0.485883       -13.2216
  51   2.0000      -0.481758       -13.1093
  52   2.0000      -0.468195       -12.7402
  53   2.0000      -0.461713       -12.5639
  54   2.0000      -0.457700       -12.4547
  55   2.0000      -0.453720       -12.3464
  56   2.0000      -0.448520       -12.2049
  57   2.0000      -0.442184       -12.0324
  58   2.0000      -0.433151       -11.7866
  59   2.0000      -0.428367       -11.6564
  60   2.0000      -0.425405       -11.5759
  61   2.0000      -0.412327       -11.2200
  62   2.0000      -0.404364       -11.0033
  63   2.0000      -0.350982        -9.5507
  64   2.0000      -0.335464        -9.1284
  65   2.0000      -0.329100        -8.9553
  66   2.0000      -0.283439        -7.7128
  67   0.0000       0.027064         0.7365
  68   0.0000       0.061415         1.6712
  69   0.0000       0.100603         2.7376
  70   0.0000       0.122583         3.3357
  71   0.0000       0.127367         3.4658

MULLIKEN ATOMIC CHARGES
-----------------------
   0 S :    0.140205
   1 C :   -0.150546
   2 C :   -0.109024
   3 C :    0.041948
   4 C :   -0.174685
   5 H :    0.022272
   6 C :    0.038029
   7 H :    0.042292
   8 H :    0.037077
   9 C :   -0.047499
  10 H :    0.012124
  11 H :    0.040335
  12 C :   -0.084127
  13 H :    0.032974
  14 H :    0.032920
  15 H :    0.032166
  16 S :    0.098555
  17 C :   -0.058353
  18 C :   -0.026549
  19 C :   -0.044678
  20 C :   -0.147514
  21 H :    0.020407
  22 C :    0.107838
  23 H :    0.017189
  24 H :    0.010433
  25 C :   -0.081084
  26 H :    0.022296
  27 H :    0.016684
  28 C :   -0.054791
  29 H :    0.036354
  30 H :    0.043956
  31 H :    0.027423
  32 H :    0.074033
  33 H :    0.031340
Sum of atomic charges:   -0.0000000

LOEWDIN ATOMIC CHARGES
----------------------
   0 S :    0.444375
   1 C :   -0.228120
   2 C :   -0.065789
   3 C :   -0.057147
   4 C :   -0.211324
   5 H :    0.035359
   6 C :   -0.031916
   7 H :    0.035419
   8 H :    0.033824
   9 C :   -0.035695
  10 H :    0.014372
  11 H :    0.026827
  12 C :   -0.080193
  13 H :    0.029622
  14 H :    0.029375
  15 H :    0.022713
  16 S :    0.375346
  17 C :   -0.156590
  18 C :   -0.064816
  19 C :   -0.047627
  20 C :   -0.194521
  21 H :    0.034712
  22 C :   -0.037251
  23 H :    0.020002
  24 H :    0.032955
  25 C :   -0.043675
  26 H :    0.026894
  27 H :    0.014174
  28 C :   -0.067288
  29 H :    0.034668
  30 H :    0.025914
  31 H :    0.027832
  32 H :    0.040987
  33 H :    0.016581

  Mayer bond orders larger than 0.100000
B(  0-S ,  1-C ) :   1.1654 B(  0-S ,  4-C ) :   1.1742 B(  1-C ,  2-C ) :   1.5829
B(  1-C , 32-H ) :   0.9491 B(  2-C ,  3-C ) :   1.2948 B(  2-C ,  6-C ) :   1.0226
B(  3-C ,  4-C ) :   1.5131 B(  3-C ,  5-H ) :   0.9889 B(  4-C , 20-C ) :   1.0472
B(  6-C ,  7-H ) :   0.9524 B(  6-C ,  8-H ) :   0.9420 B(  6-C ,  9-C ) :   1.0588
B(  9-C , 10-H ) :   0.9596 B(  9-C , 11-H ) :   0.9600 B(  9-C , 12-C ) :   1.0593
B( 12-C , 13-H ) :   0.9729 B( 12-C , 14-H ) :   0.9762 B( 12-C , 15-H ) :   0.9778
B( 16-S , 17-C ) :   1.1316 B( 16-S , 20-C ) :   1.1304 B( 17-C , 18-C ) :   1.6431
B( 17-C , 33-H ) :   0.9647 B( 18-C , 19-C ) :   1.2264 B( 18-C , 21-H ) :   0.9904
B( 19-C , 20-C ) :   1.5893 B( 19-C , 22-C ) :   1.0407 B( 22-C , 23-H ) :   0.9292
B( 22-C , 24-H ) :   0.9220 B( 22-C , 25-C ) :   1.0686 B( 25-C , 26-H ) :   0.9572
B( 25-C , 27-H ) :   0.9473 B( 25-C , 28-C ) :   1.0853 B( 28-C , 29-H ) :   0.9727
B( 28-C , 30-H ) :   0.9755 B( 28-C , 31-H ) :   0.9739

Dispersion correction           -0.014273849
FINAL SINGLE POINT ENERGY     -1339.860598561488

DIPOLE MOMENT
-------------
                                X             Y             Z
Electronic contribution:    -18.99858      19.08791      14.06194
Nuclear contribution   :     19.29696     -19.53802     -14.29153
                        -----------------------------------------
Total Dipole Moment    :      0.29838      -0.45011      -0.22959
                        -----------------------------------------
Magnitude (a.u.)       :      0.58681
Magnitude (Debye)      :      1.49154

Rotational constants in cm-1:     0.016383     0.009792     0.006656
Rotational constants in MHz :   491.144422   293.563351   199.542451

                             ****ORCA TERMINATED NORMALLY****
TOTAL RUN TIME: 0 days 0 hours 0 minutes 35 seconds 323 msec
