                         Program Version 4.2.1 -  RELEASE  -
|  1> ! wB97X-D3 SP def2-SVP
|  2> %pal
|  3> nprocs 16
|  4> end
|  5>
|  6> * xyz 0 1
|  7> S 	 -49.5556 	 65.7258 	 125.779
|  8> C 	 -48.643 	 65.1945 	 124.41
|  9> C 	 -47.2828 	 64.9789 	 124.77
| 10> C 	 -47.2128 	 64.8532 	 126.215
| 11> C 	 -48.384 	 65.1025 	 126.893
| 12> H 	 -46.3286 	 64.5236 	 126.742
| 13> C 	 -46.1185 	 64.7447 	 123.777
| 14> H 	 -45.4565 	 65.6437 	 123.939
| 15> H 	 -46.3949 	 64.7395 	 122.747
| 16> C 	 -45.3824 	 63.3572 	 124.012
| 17> H 	 -44.9571 	 63.4082 	 124.989
| 18> H 	 -46.1548 	 62.5834 	 124.071
| 19> C 	 -44.2876 	 63.0401 	 123.016
| 20> H 	 -44.6226 	 63.2625 	 122.01
| 21> H 	 -43.4968 	 63.7853 	 123.155
| 22> H 	 -43.8892 	 61.9989 	 123.103
| 23> S 	 -47.0886 	 65.6166 	 129.398
| 24> C 	 -48.1491 	 65.5013 	 130.831
| 25> C 	 -49.344 	 64.8597 	 130.545
| 26> C 	 -49.5577 	 64.8615 	 129.16
| 27> C 	 -48.4638 	 65.1309 	 128.35
| 28> H 	 -50.0251 	 64.5591 	 131.34
| 29> C 	 -50.8737 	 64.3918 	 128.65
| 30> H 	 -51.1747 	 63.5453 	 129.218
| 31> H 	 -50.9581 	 64.1042 	 127.598
| 32> C 	 -51.8787 	 65.5709 	 128.653
| 33> H 	 -51.5249 	 66.5163 	 128.152
| 34> H 	 -52.0561 	 65.929 	 129.679
| 35> C 	 -53.281 	 65.2697 	 127.979
| 36> H 	 -53.2101 	 65.0749 	 126.926
| 37> H 	 -54.1261 	 65.9278 	 128.241
| 38> H 	 -53.5903 	 64.287 	 128.369
| 39> H 	 -49.0788 	 65.1479 	 123.414
| 40> H 	 -47.8315 	 65.5577 	 131.877
| 41> *
| 42>
| 43>                          ****END OF INPUT****

CARTESIAN COORDINATES (ANGSTROEM)
---------------------------------
  S    -49.555600   65.725800  125.779000
  C    -48.643000   65.194500  124.410000
  C    -47.282800   64.978900  124.770000
  C    -47.212800   64.853200  126.215000
  C    -48.384000   65.102500  126.893000
  H    -46.328600   64.523600  126.742000
  C    -46.118500   64.744700  123.777000
  H    -45.456500   65.643700  123.939000
  H    -46.394900   64.739500  122.747000
  C    -45.382400   63.357200  124.012000
  H    -44.957100   63.408200  124.989000
  H    -46.154800   62.583400  124.071000
  C    -44.287600   63.040100  123.016000
  H    -44.622600   63.262500  122.010000
  H    -43.496800   63.785300  123.155000
  H    -43.889200   61.998900  123.103000
  S    -47.088600   65.616600  129.398000
  C    -48.149100   65.501300  130.831000
  C    -49.344000   64.859700  130.545000
  C    -49.557700   64.861500  129.160000
  C    -48.463800   65.130900  128.350000
  H    -50.025100   64.559100  131.340000
  C    -50.873700   64.391800  128.650000
  H    -51.174700   63.545300  129.218000
  H    -50.958100   64.104200  127.598000
  C    -51.878700   65.570900  128.653000
  H    -51.524900   66.516300  128.152000
  H    -52.056100   65.929000  129.679000
  C    -53.281000   65.269700  127.979000
  H    -53.210100   65.074900  126.926000
  H    -54.126100   65.927800  128.241000
  H    -53.590300   64.287000  128.369000
  H    -49.078800   65.147900  123.414000
  H    -47.831500   65.557700  131.877000

 Total Charge           Charge          ....    0
 Multiplicity           Mult            ....    1
 Number of Electrons    NEL             ....  134
 Basis Dimension        Dim             ....  322

ORBITAL ENERGIES
----------------

  NO   OCC          E(Eh)            E(eV)
   0   2.0000     -88.969737     -2420.9896
   1   2.0000     -88.967027     -2420.9159
   2   2.0000     -10.329724      -281.0861
   3   2.0000     -10.327549      -281.0269
   4   2.0000     -10.323684      -280.9217
   5   2.0000     -10.316408      -280.7237
   6   2.0000     -10.311867      -280.6002
   7   2.0000     -10.301840      -280.3273
   8   2.0000     -10.300433      -280.2890
   9   2.0000     -10.296583      -280.1843
  10   2.0000     -10.293763      -280.1075
  11   2.0000     -10.290196      -280.0105
  12   2.0000     -10.286036      -279.8973
  13   2.0000     -10.285446      -279.8812
  14   2.0000     -10.281456      -279.7726
  15   2.0000     -10.276738      -279.6443
  16   2.0000      -8.082822      -219.9448
  17   2.0000      -8.081828      -219.9177
  18   2.0000      -6.041572      -164.3995
  19   2.0000      -6.040389      -164.3673
  20   2.0000      -6.037720      -164.2947
  21   2.0000      -6.036407      -164.2590
  22   2.0000      -6.033270      -164.1736
  23   2.0000      -6.032450      -164.1513
  24   2.0000      -1.006059       -27.3763
  25   2.0000      -0.983936       -26.7743
  26   2.0000      -0.906205       -24.6591
  27   2.0000      -0.903790       -24.5934
  28   2.0000      -0.870505       -23.6876
  29   2.0000      -0.848702       -23.0943
  30   2.0000      -0.842204       -22.9175
  31   2.0000      -0.813620       -22.1397
  32   2.0000      -0.780326       -21.2337
  33   2.0000      -0.766860       -20.8673
  34   2.0000      -0.706925       -19.2364
  35   2.0000      -0.696312       -18.9476
  36   2.0000      -0.690048       -18.7772
  37   2.0000      -0.669984       -18.2312
  38   2.0000      -0.635946       -17.3050
  39   2.0000      -0.617913       -16.8143
  40   2.0000      -0.598779       -16.2936
  41   2.0000      -0.566370       -15.4117
  42   2.0000      -0.563734       -15.3400
  43   2.0000      -0.555029       -15.1031
  44   2.0000      -0.528011       -14.3679
  45   2.0000      -0.522851       -14.2275
  46   2.0000      -0.513122       -13.9628
  47   2.0000      -0.507126       -13.7996
  48   2.0000      -0.504103       -13.7173
  49   2.0000      -0.496248       -13.5036
  50   2.0000      -0.495071       -13.4716
  51   2.0000      -0.478254       -13.0140
  52   2.0000      -0.469166       -12.7667
  53   2.0000      -0.466529       -12.6949
  54   2.0000      -0.461865       -12.5680
  55   2.0000      -0.454451       -12.3662
  56   2.0000      -0.443486       -12.0679
  57   2.0000      -0.432454       -11.7677
  58   2.0000      -0.431048       -11.7294
  59   2.0000      -0.423341       -11.5197
  60   2.0000      -0.421355       -11.4657
  61   2.0000      -0.413397       -11.2491
  62   2.0000      -0.406006       -11.0480
  63   2.0000      -0.351490        -9.5645
  64   2.0000      -0.333247        -9.0681
  65   2.0000      -0.324793        -8.8381
  66   2.0000      -0.285102        -7.7580
  67   0.0000       0.019579         0.5328
  68   0.0000       0.070887         1.9289
  69   0.0000       0.097883         2.6635
  70   0.0000       0.114236         3.1085
  71   0.0000       0.131426         3.5763

MULLIKEN ATOMIC CHARGES
-----------------------
   0 S :    0.112791
   1 C :   -0.138345
   2 C :   -0.073419
   3 C :   -0.032859
   4 C :   -0.104020
   5 H :    0.012208
   6 C :    0.050548
   7 H :    0.052065
   8 H :    0.013679
   9 C :   -0.094107
  10 H :    0.025311
  11 H :    0.037241
  12 C :   -0.030808
  13 H :    0.019236
  14 H :    0.024059
  15 H :    0.054453
  16 S :    0.095487
  17 C :   -0.087547
  18 C :   -0.037657
  19 C :   -0.054448
  20 C :   -0.110045
  21 H :    0.034931
  22 C :    0.080029
  23 H :    0.023146
  24 H :    0.021428
  25 C :   -0.117792
  26 H :    0.040184
  27 H :    0.020414
  28 C :   -0.044708
  29 H :    0.032786
  30 H :    0.045617
  31 H :    0.010364
  32 H :    0.057281
  33 H :    0.062496
Sum of atomic charges:   -0.0000000

LOEWDIN ATOMIC CHARGES
----------------------
   0 S :    0.429006
   1 C :   -0.207375
   2 C :   -0.052554
   3 C :   -0.071889
   4 C :   -0.193484
   5 H :    0.024727
   6 C :   -0.028766
   7 H :    0.041541
   8 H :    0.022195
   9 C :   -0.041485
  10 H :    0.017437
  11 H :    0.025374
  12 C :   -0.068126
  13 H :    0.020616
  14 H :    0.027255
  15 H :    0.035985
  16 S :    0.374799
  17 C :   -0.169688
  18 C :   -0.065698
  19 C :   -0.051953
  20 C :   -0.183669
  21 H :    0.038705
  22 C :   -0.034390
  23 H :    0.027686
  24 H :    0.023286
  25 C :   -0.043689
  26 H :    0.025973
  27 H :    0.017973
  28 C :   -0.074241
  29 H :    0.020927
  30 H :    0.031059
  31 H :    0.022016
  32 H :    0.028001
  33 H :    0.032445

  Mayer bond orders larger than 0.100000
B(  0-S ,  1-C ) :   1.1529 B(  0-S ,  4-C ) :   1.1430 B(  1-C ,  2-C ) :   1.5683
B(  1-C , 32-H ) :   0.9731 B(  2-C ,  3-C ) :   1.2430 B(  2-C ,  6-C ) :   1.0293
B(  3-C ,  4-C ) :   1.5432 B(  3-C ,  5-H ) :   0.9990 B(  4-C , 20-C ) :   1.1024
B(  6-C ,  7-H ) :   0.9366 B(  6-C ,  8-H ) :   0.9495 B(  6-C ,  9-C ) :   1.0483
B(  9-C , 10-H ) :   0.9543 B(  9-C , 11-H ) :   0.9612 B(  9-C , 12-C ) :   1.0863
B( 12-C , 13-H ) :   0.9741 B( 12-C , 14-H ) :   0.9716 B( 12-C , 15-H ) :   0.9728
B( 16-S , 17-C ) :   1.1516 B( 16-S , 20-C ) :   1.0983 B( 17-C , 18-C ) :   1.6183
B( 17-C , 33-H ) :   0.9585 B( 18-C , 19-C ) :   1.2403 B( 18-C , 21-H ) :   0.9846
B( 19-C , 20-C ) :   1.5757 B( 19-C , 22-C ) :   1.0619 B( 22-C , 23-H ) :   0.9329
B( 22-C , 24-H ) :   0.9351 B( 22-C , 25-C ) :   1.0330 B( 25-C , 26-H ) :   0.9592
B( 25-C , 27-H ) :   0.9588 B( 25-C , 28-C ) :   1.0721 B( 28-C , 29-H ) :   0.9750
B( 28-C , 30-H ) :   0.9768 B( 28-C , 31-H ) :   0.9715

Dispersion correction           -0.014068522
FINAL SINGLE POINT ENERGY     -1339.866018131945

DIPOLE MOMENT
-------------
                                X             Y             Z
Electronic contribution:      2.53178       8.26848      10.99690
Nuclear contribution   :     -2.52374      -8.58112     -11.05213
                        -----------------------------------------
Total Dipole Moment    :      0.00803      -0.31264      -0.05523
                        -----------------------------------------
Magnitude (a.u.)       :      0.31758
Magnitude (Debye)      :      0.80723

Rotational constants in cm-1:     0.020935     0.007828     0.006102
Rotational constants in MHz :   627.616483   234.670472   182.923212

                             ****ORCA TERMINATED NORMALLY****
TOTAL RUN TIME: 0 days 0 hours 0 minutes 37 seconds 259 msec
