                         Program Version 4.2.1 -  RELEASE  -
|  1> ! wB97X-D3 SP def2-SVP
|  2> %pal
|  3> nprocs 16
|  4> end
|  5>
|  6> * xyz 0 1
|  7> S 	 -24.2935 	 51.6393 	 66.9774
|  8> C 	 -23.2036 	 52.286 	 65.8157
|  9> C 	 -22.094 	 51.4772 	 65.645
| 10> C 	 -22.1001 	 50.3658 	 66.6501
| 11> C 	 -23.1709 	 50.3771 	 67.5085
| 12> H 	 -21.3751 	 49.6207 	 66.9928
| 13> C 	 -20.9614 	 51.6161 	 64.6367
| 14> H 	 -20.0125 	 51.8185 	 65.0858
| 15> H 	 -21.1202 	 52.4822 	 64.0841
| 16> C 	 -20.7592 	 50.4635 	 63.5393
| 17> H 	 -20.0866 	 50.8702 	 62.7992
| 18> H 	 -20.4083 	 49.4965 	 63.9703
| 19> C 	 -22.1786 	 50.0927 	 62.885
| 20> H 	 -22.8764 	 49.7647 	 63.6547
| 21> H 	 -22.4776 	 51.023 	 62.4716
| 22> H 	 -21.9613 	 49.2915 	 62.1775
| 23> S 	 -23.7316 	 50.3799 	 70.1088
| 24> C 	 -24.2438 	 48.8369 	 70.8363
| 25> C 	 -23.8296 	 47.7307 	 70.0932
| 26> C 	 -23.4905 	 48.1925 	 68.7466
| 27> C 	 -23.5549 	 49.5535 	 68.6239
| 28> H 	 -23.7903 	 46.7716 	 70.5371
| 29> C 	 -23.0479 	 47.2246 	 67.599
| 30> H 	 -22.2816 	 47.703 	 66.9914
| 31> H 	 -23.9599 	 47.1745 	 66.9658
| 32> C 	 -22.5763 	 45.7924 	 68.0366
| 33> H 	 -23.1888 	 45.3796 	 68.7861
| 34> H 	 -21.5224 	 45.9174 	 68.4379
| 35> C 	 -22.4585 	 44.9325 	 66.7528
| 36> H 	 -23.2597 	 45.1809 	 66.0516
| 37> H 	 -22.6022 	 43.9025 	 66.9697
| 38> H 	 -21.4999 	 45.1011 	 66.216
| 39> H 	 -23.2448 	 53.2167 	 65.2643
| 40> H 	 -24.4279 	 48.7535 	 71.9071
| 41> *
| 42>
| 43>                          ****END OF INPUT****

CARTESIAN COORDINATES (ANGSTROEM)
---------------------------------
  S    -24.293500   51.639300   66.977400
  C    -23.203600   52.286000   65.815700
  C    -22.094000   51.477200   65.645000
  C    -22.100100   50.365800   66.650100
  C    -23.170900   50.377100   67.508500
  H    -21.375100   49.620700   66.992800
  C    -20.961400   51.616100   64.636700
  H    -20.012500   51.818500   65.085800
  H    -21.120200   52.482200   64.084100
  C    -20.759200   50.463500   63.539300
  H    -20.086600   50.870200   62.799200
  H    -20.408300   49.496500   63.970300
  C    -22.178600   50.092700   62.885000
  H    -22.876400   49.764700   63.654700
  H    -22.477600   51.023000   62.471600
  H    -21.961300   49.291500   62.177500
  S    -23.731600   50.379900   70.108800
  C    -24.243800   48.836900   70.836300
  C    -23.829600   47.730700   70.093200
  C    -23.490500   48.192500   68.746600
  C    -23.554900   49.553500   68.623900
  H    -23.790300   46.771600   70.537100
  C    -23.047900   47.224600   67.599000
  H    -22.281600   47.703000   66.991400
  H    -23.959900   47.174500   66.965800
  C    -22.576300   45.792400   68.036600
  H    -23.188800   45.379600   68.786100
  H    -21.522400   45.917400   68.437900
  C    -22.458500   44.932500   66.752800
  H    -23.259700   45.180900   66.051600
  H    -22.602200   43.902500   66.969700
  H    -21.499900   45.101100   66.216000
  H    -23.244800   53.216700   65.264300
  H    -24.427900   48.753500   71.907100

 Total Charge           Charge          ....    0
 Multiplicity           Mult            ....    1
 Number of Electrons    NEL             ....  134
 Basis Dimension        Dim             ....  322

ORBITAL ENERGIES
----------------

  NO   OCC          E(Eh)            E(eV)
   0   2.0000     -88.966526     -2420.9022
   1   2.0000     -88.959340     -2420.7067
   2   2.0000     -10.325241      -280.9641
   3   2.0000     -10.320544      -280.8363
   4   2.0000     -10.318603      -280.7835
   5   2.0000     -10.313832      -280.6536
   6   2.0000     -10.310318      -280.5580
   7   2.0000     -10.309031      -280.5230
   8   2.0000     -10.301451      -280.3167
   9   2.0000     -10.298558      -280.2380
  10   2.0000     -10.297978      -280.2222
  11   2.0000     -10.295167      -280.1457
  12   2.0000     -10.295031      -280.1420
  13   2.0000     -10.289013      -279.9783
  14   2.0000     -10.280396      -279.7438
  15   2.0000     -10.274068      -279.5716
  16   2.0000      -8.081708      -219.9145
  17   2.0000      -8.074589      -219.7207
  18   2.0000      -6.040171      -164.3614
  19   2.0000      -6.036524      -164.2622
  20   2.0000      -6.033197      -164.1716
  21   2.0000      -6.032091      -164.1415
  22   2.0000      -6.028966      -164.0565
  23   2.0000      -6.025240      -163.9551
  24   2.0000      -1.009297       -27.4644
  25   2.0000      -0.981050       -26.6957
  26   2.0000      -0.904030       -24.5999
  27   2.0000      -0.900799       -24.5120
  28   2.0000      -0.871352       -23.7107
  29   2.0000      -0.850034       -23.1306
  30   2.0000      -0.834896       -22.7187
  31   2.0000      -0.816945       -22.2302
  32   2.0000      -0.780625       -21.2419
  33   2.0000      -0.769566       -20.9409
  34   2.0000      -0.710111       -19.3231
  35   2.0000      -0.699883       -19.0448
  36   2.0000      -0.690071       -18.7778
  37   2.0000      -0.660340       -17.9688
  38   2.0000      -0.645604       -17.5678
  39   2.0000      -0.611631       -16.6433
  40   2.0000      -0.594318       -16.1722
  41   2.0000      -0.568578       -15.4718
  42   2.0000      -0.565290       -15.3823
  43   2.0000      -0.549925       -14.9642
  44   2.0000      -0.538166       -14.6442
  45   2.0000      -0.524277       -14.2663
  46   2.0000      -0.517134       -14.0719
  47   2.0000      -0.513298       -13.9676
  48   2.0000      -0.500258       -13.6127
  49   2.0000      -0.497033       -13.5249
  50   2.0000      -0.487630       -13.2691
  51   2.0000      -0.478294       -13.0150
  52   2.0000      -0.471501       -12.8302
  53   2.0000      -0.464686       -12.6448
  54   2.0000      -0.457751       -12.4560
  55   2.0000      -0.454798       -12.3757
  56   2.0000      -0.442969       -12.0538
  57   2.0000      -0.438385       -11.9291
  58   2.0000      -0.429288       -11.6815
  59   2.0000      -0.427144       -11.6232
  60   2.0000      -0.419382       -11.4120
  61   2.0000      -0.415878       -11.3166
  62   2.0000      -0.408905       -11.1269
  63   2.0000      -0.345569        -9.4034
  64   2.0000      -0.329350        -8.9621
  65   2.0000      -0.320876        -8.7315
  66   2.0000      -0.298126        -8.1124
  67   0.0000       0.028066         0.7637
  68   0.0000       0.069727         1.8974
  69   0.0000       0.095639         2.6025
  70   0.0000       0.114301         3.1103
  71   0.0000       0.131356         3.5744

MULLIKEN ATOMIC CHARGES
-----------------------
   0 S :    0.102836
   1 C :   -0.087171
   2 C :   -0.129648
   3 C :    0.035289
   4 C :   -0.200097
   5 H :    0.025809
   6 C :    0.110279
   7 H :    0.029824
   8 H :   -0.012164
   9 C :   -0.118722
  10 H :    0.040365
  11 H :    0.039525
  12 C :   -0.053781
  13 H :    0.055607
  14 H :    0.022810
  15 H :    0.041791
  16 S :    0.121131
  17 C :   -0.083704
  18 C :   -0.048282
  19 C :   -0.032569
  20 C :   -0.138314
  21 H :    0.019297
  22 C :    0.038262
  23 H :    0.017859
  24 H :    0.048202
  25 C :   -0.085012
  26 H :    0.032465
  27 H :    0.045956
  28 C :   -0.037825
  29 H :    0.025960
  30 H :    0.027904
  31 H :    0.043601
  32 H :    0.045556
  33 H :    0.056961
Sum of atomic charges:   -0.0000000

LOEWDIN ATOMIC CHARGES
----------------------
   0 S :    0.398430
   1 C :   -0.205754
   2 C :   -0.059994
   3 C :   -0.070644
   4 C :   -0.189486
   5 H :    0.034242
   6 C :   -0.032662
   7 H :    0.029333
   8 H :    0.018055
   9 C :   -0.031408
  10 H :    0.022632
  11 H :    0.021583
  12 C :   -0.059495
  13 H :    0.028878
  14 H :    0.017065
  15 H :    0.025911
  16 S :    0.417829
  17 C :   -0.173407
  18 C :   -0.060592
  19 C :   -0.046900
  20 C :   -0.228153
  21 H :    0.028074
  22 C :   -0.032564
  23 H :    0.025404
  24 H :    0.038702
  25 C :   -0.037115
  26 H :    0.013891
  27 H :    0.034947
  28 C :   -0.064233
  29 H :    0.025024
  30 H :    0.021722
  31 H :    0.032020
  32 H :    0.033452
  33 H :    0.025211

  Mayer bond orders larger than 0.100000
B(  0-S ,  1-C ) :   1.1331 B(  0-S ,  4-C ) :   1.1262 B(  1-C ,  2-C ) :   1.6504
B(  1-C , 32-H ) :   0.9616 B(  2-C ,  3-C ) :   1.1629 B(  2-C ,  6-C ) :   1.0378
B(  3-C ,  4-C ) :   1.6505 B(  3-C ,  5-H ) :   0.9790 B(  4-C , 20-C ) :   1.0222
B(  6-C ,  7-H ) :   0.9399 B(  6-C ,  8-H ) :   0.9313 B(  6-C ,  9-C ) :   1.0560
B(  9-C , 10-H ) :   0.9617 B(  9-C , 11-H ) :   0.9621 B(  9-C , 12-C ) :   1.0639
B( 12-C , 13-H ) :   0.9735 B( 12-C , 14-H ) :   0.9823 B( 12-C , 15-H ) :   0.9778
B( 16-S , 17-C ) :   1.1489 B( 16-S , 20-C ) :   1.1547 B( 17-C , 18-C ) :   1.6261
B( 17-C , 33-H ) :   0.9627 B( 18-C , 19-C ) :   1.2103 B( 18-C , 21-H ) :   0.9968
B( 19-C , 20-C ) :   1.6178 B( 19-C , 22-C ) :   1.0160 B( 22-C , 23-H ) :   0.9417
B( 22-C , 24-H ) :   0.9327 B( 22-C , 25-C ) :   1.0679 B( 25-C , 26-H ) :   0.9568
B( 25-C , 27-H ) :   0.9587 B( 25-C , 28-C ) :   1.0755 B( 28-C , 29-H ) :   0.9769
B( 28-C , 30-H ) :   0.9751 B( 28-C , 31-H ) :   0.9763

Dispersion correction           -0.014230348
FINAL SINGLE POINT ENERGY     -1339.851309056858

DIPOLE MOMENT
-------------
                                X             Y             Z
Electronic contribution:    -12.48297      18.06962      20.53341
Nuclear contribution   :     13.02910     -18.57688     -20.71065
                        -----------------------------------------
Total Dipole Moment    :      0.54613      -0.50726      -0.17723
                        -----------------------------------------
Magnitude (a.u.)       :      0.76615
Magnitude (Debye)      :      1.94741

Rotational constants in cm-1:     0.016583     0.009748     0.006650
Rotational constants in MHz :   497.132045   292.231474   199.353740

                             ****ORCA TERMINATED NORMALLY****
TOTAL RUN TIME: 0 days 0 hours 0 minutes 34 seconds 438 msec
