                         Program Version 4.2.1 -  RELEASE  -
|  1> ! wB97X-D3 SP def2-SVP
|  2> %pal
|  3> nprocs 16
|  4> end
|  5>
|  6> * xyz 0 1
|  7> S 	 -5.99304 	 55.1275 	 49.0062
|  8> C 	 -6.94161 	 55.8815 	 50.2057
|  9> C 	 -6.665 	 57.2539 	 50.2463
| 10> C 	 -5.67518 	 57.606 	 49.2439
| 11> C 	 -5.11052 	 56.5837 	 48.5012
| 12> H 	 -5.27931 	 58.5889 	 49.0536
| 13> C 	 -7.20538 	 58.2684 	 51.2247
| 14> H 	 -6.40658 	 58.8907 	 51.5956
| 15> H 	 -7.55697 	 57.6972 	 52.1073
| 16> C 	 -8.37003 	 59.2014 	 50.7938
| 17> H 	 -8.04895 	 59.8547 	 49.9958
| 18> H 	 -9.26888 	 58.7496 	 50.34
| 19> C 	 -8.76294 	 60.208 	 51.8784
| 20> H 	 -9.54699 	 60.8982 	 51.6162
| 21> H 	 -9.07248 	 59.6948 	 52.7452
| 22> H 	 -7.94741 	 60.884 	 52.1025
| 23> S 	 -4.24227 	 55.5916 	 46.1116
| 24> C 	 -2.66075 	 55.9708 	 45.517
| 25> C 	 -2.02198 	 56.7665 	 46.4615
| 26> C 	 -2.83191 	 57.2614 	 47.5096
| 27> C 	 -4.08702 	 56.6352 	 47.4783
| 28> H 	 -1.02474 	 57.0909 	 46.338
| 29> C 	 -2.2522 	 58.2479 	 48.5483
| 30> H 	 -1.15268 	 58.2509 	 48.5809
| 31> H 	 -2.5933 	 57.9914 	 49.6334
| 32> C 	 -2.50988 	 59.7672 	 48.3152
| 33> H 	 -3.58306 	 59.9781 	 48.2857
| 34> H 	 -2.18747 	 59.9696 	 47.3196
| 35> C 	 -1.79074 	 60.6894 	 49.3127
| 36> H 	 -2.2444 	 60.7661 	 50.3174
| 37> H 	 -1.67977 	 61.6877 	 48.9724
| 38> H 	 -0.718368 	 60.4122 	 49.4423
| 39> H 	 -7.59512 	 55.3014 	 50.8203
| 40> H 	 -2.2232 	 55.8458 	 44.5982
| 41> *
| 42>
| 43>                          ****END OF INPUT****

CARTESIAN COORDINATES (ANGSTROEM)
---------------------------------
  S     -5.993040   55.127500   49.006200
  C     -6.941610   55.881500   50.205700
  C     -6.665000   57.253900   50.246300
  C     -5.675180   57.606000   49.243900
  C     -5.110520   56.583700   48.501200
  H     -5.279310   58.588900   49.053600
  C     -7.205380   58.268400   51.224700
  H     -6.406580   58.890700   51.595600
  H     -7.556970   57.697200   52.107300
  C     -8.370030   59.201400   50.793800
  H     -8.048950   59.854700   49.995800
  H     -9.268880   58.749600   50.340000
  C     -8.762940   60.208000   51.878400
  H     -9.546990   60.898200   51.616200
  H     -9.072480   59.694800   52.745200
  H     -7.947410   60.884000   52.102500
  S     -4.242270   55.591600   46.111600
  C     -2.660750   55.970800   45.517000
  C     -2.021980   56.766500   46.461500
  C     -2.831910   57.261400   47.509600
  C     -4.087020   56.635200   47.478300
  H     -1.024740   57.090900   46.338000
  C     -2.252200   58.247900   48.548300
  H     -1.152680   58.250900   48.580900
  H     -2.593300   57.991400   49.633400
  C     -2.509880   59.767200   48.315200
  H     -3.583060   59.978100   48.285700
  H     -2.187470   59.969600   47.319600
  C     -1.790740   60.689400   49.312700
  H     -2.244400   60.766100   50.317400
  H     -1.679770   61.687700   48.972400
  H     -0.718368   60.412200   49.442300
  H     -7.595120   55.301400   50.820300
  H     -2.223200   55.845800   44.598200

 Total Charge           Charge          ....    0
 Multiplicity           Mult            ....    1
 Number of Electrons    NEL             ....  134
 Basis Dimension        Dim             ....  322

ORBITAL ENERGIES
----------------

  NO   OCC          E(Eh)            E(eV)
   0   2.0000     -88.971745     -2421.0443
   1   2.0000     -88.962411     -2420.7903
   2   2.0000     -10.332424      -281.1596
   3   2.0000     -10.331163      -281.1252
   4   2.0000     -10.315629      -280.7025
   5   2.0000     -10.313756      -280.6516
   6   2.0000     -10.309097      -280.5248
   7   2.0000     -10.306359      -280.4503
   8   2.0000     -10.305611      -280.4299
   9   2.0000     -10.295686      -280.1599
  10   2.0000     -10.293098      -280.0894
  11   2.0000     -10.291795      -280.0540
  12   2.0000     -10.289341      -279.9872
  13   2.0000     -10.285875      -279.8929
  14   2.0000     -10.282881      -279.8114
  15   2.0000     -10.271281      -279.4958
  16   2.0000      -8.086767      -220.0521
  17   2.0000      -8.077612      -219.8030
  18   2.0000      -6.045275      -164.5003
  19   2.0000      -6.041011      -164.3843
  20   2.0000      -6.037723      -164.2948
  21   2.0000      -6.036180      -164.2528
  22   2.0000      -6.031801      -164.1336
  23   2.0000      -6.028521      -164.0444
  24   2.0000      -1.011178       -27.5156
  25   2.0000      -0.987595       -26.8738
  26   2.0000      -0.907953       -24.7067
  27   2.0000      -0.906214       -24.6593
  28   2.0000      -0.875533       -23.8245
  29   2.0000      -0.855247       -23.2724
  30   2.0000      -0.846577       -23.0365
  31   2.0000      -0.818098       -22.2616
  32   2.0000      -0.782352       -21.2889
  33   2.0000      -0.772108       -21.0101
  34   2.0000      -0.710746       -19.3404
  35   2.0000      -0.702559       -19.1176
  36   2.0000      -0.696913       -18.9640
  37   2.0000      -0.669301       -18.2126
  38   2.0000      -0.649065       -17.6620
  39   2.0000      -0.618827       -16.8391
  40   2.0000      -0.600118       -16.3300
  41   2.0000      -0.572159       -15.5692
  42   2.0000      -0.564977       -15.3738
  43   2.0000      -0.559756       -15.2317
  44   2.0000      -0.526969       -14.3396
  45   2.0000      -0.523954       -14.2575
  46   2.0000      -0.520336       -14.1590
  47   2.0000      -0.513976       -13.9860
  48   2.0000      -0.506303       -13.7772
  49   2.0000      -0.504689       -13.7333
  50   2.0000      -0.498197       -13.5566
  51   2.0000      -0.477344       -12.9892
  52   2.0000      -0.473134       -12.8746
  53   2.0000      -0.464136       -12.6298
  54   2.0000      -0.461938       -12.5700
  55   2.0000      -0.453253       -12.3337
  56   2.0000      -0.445364       -12.1190
  57   2.0000      -0.436012       -11.8645
  58   2.0000      -0.432944       -11.7810
  59   2.0000      -0.429862       -11.6971
  60   2.0000      -0.419823       -11.4240
  61   2.0000      -0.413566       -11.2537
  62   2.0000      -0.412006       -11.2112
  63   2.0000      -0.358100        -9.7444
  64   2.0000      -0.335847        -9.1389
  65   2.0000      -0.325133        -8.8473
  66   2.0000      -0.287635        -7.8270
  67   0.0000       0.025100         0.6830
  68   0.0000       0.071972         1.9585
  69   0.0000       0.117070         3.1856
  70   0.0000       0.122243         3.3264
  71   0.0000       0.124337         3.3834

MULLIKEN ATOMIC CHARGES
-----------------------
   0 S :    0.098754
   1 C :   -0.111834
   2 C :   -0.062770
   3 C :    0.022436
   4 C :   -0.129578
   5 H :   -0.013744
   6 C :    0.063280
   7 H :    0.023699
   8 H :    0.020345
   9 C :   -0.066375
  10 H :    0.016516
  11 H :    0.033434
  12 C :   -0.036113
  13 H :    0.027633
  14 H :    0.019822
  15 H :    0.022307
  16 S :    0.127060
  17 C :   -0.048251
  18 C :   -0.037030
  19 C :    0.001455
  20 C :   -0.160060
  21 H :    0.002720
  22 C :    0.003131
  23 H :    0.019574
  24 H :    0.050184
  25 C :   -0.048451
  26 H :    0.029589
  27 H :    0.014190
  28 C :   -0.050254
  29 H :    0.041268
  30 H :    0.025375
  31 H :    0.025438
  32 H :    0.047201
  33 H :    0.029048
Sum of atomic charges:   -0.0000000

LOEWDIN ATOMIC CHARGES
----------------------
   0 S :    0.410021
   1 C :   -0.199847
   2 C :   -0.066048
   3 C :   -0.065346
   4 C :   -0.189096
   5 H :    0.023623
   6 C :   -0.032331
   7 H :    0.031587
   8 H :    0.032684
   9 C :   -0.043353
  10 H :    0.021173
  11 H :    0.027124
  12 C :   -0.061964
  13 H :    0.026910
  14 H :    0.015596
  15 H :    0.023834
  16 S :    0.438734
  17 C :   -0.186258
  18 C :   -0.059481
  19 C :   -0.054962
  20 C :   -0.202953
  21 H :    0.022222
  22 C :   -0.037366
  23 H :    0.029402
  24 H :    0.039472
  25 C :   -0.039649
  26 H :    0.019736
  27 H :    0.019835
  28 C :   -0.069968
  29 H :    0.029640
  30 H :    0.023581
  31 H :    0.028674
  32 H :    0.026366
  33 H :    0.018406

  Mayer bond orders larger than 0.100000
B(  0-S ,  1-C ) :   1.1649 B(  0-S ,  4-C ) :   1.1368 B(  1-C ,  2-C ) :   1.5646
B(  1-C , 32-H ) :   0.9769 B(  2-C ,  3-C ) :   1.2494 B(  2-C ,  6-C ) :   1.0334
B(  3-C ,  4-C ) :   1.5653 B(  3-C ,  5-H ) :   0.9993 B(  4-C , 20-C ) :   1.0691
B(  6-C ,  7-H ) :   0.9400 B(  6-C ,  8-H ) :   0.9419 B(  6-C ,  9-C ) :   1.0567
B(  9-C , 10-H ) :   0.9540 B(  9-C , 11-H ) :   0.9577 B(  9-C , 12-C ) :   1.0843
B( 12-C , 13-H ) :   0.9723 B( 12-C , 14-H ) :   0.9776 B( 12-C , 15-H ) :   0.9738
B( 16-S , 17-C ) :   1.1565 B( 16-S , 20-C ) :   1.1644 B( 17-C , 18-C ) :   1.5690
B( 17-C , 20-C ) :   0.1065 B( 17-C , 33-H ) :   0.9795 B( 18-C , 19-C ) :   1.3056
B( 18-C , 21-H ) :   0.9866 B( 19-C , 20-C ) :   1.5228 B( 19-C , 22-C ) :   1.0388
B( 22-C , 23-H ) :   0.9403 B( 22-C , 24-H ) :   0.9363 B( 22-C , 25-C ) :   1.0552
B( 25-C , 26-H ) :   0.9525 B( 25-C , 27-H ) :   0.9495 B( 25-C , 28-C ) :   1.0821
B( 28-C , 29-H ) :   0.9758 B( 28-C , 30-H ) :   0.9734 B( 28-C , 31-H ) :   0.9709

Dispersion correction           -0.013489358
FINAL SINGLE POINT ENERGY     -1339.877521924286

DIPOLE MOMENT
-------------
                                X             Y             Z
Electronic contribution:      0.62966     -28.33373     -17.02451
Nuclear contribution   :     -0.37250      29.01838      17.23677
                        -----------------------------------------
Total Dipole Moment    :      0.25716       0.68466       0.21226
                        -----------------------------------------
Magnitude (a.u.)       :      0.76154
Magnitude (Debye)      :      1.93568

Rotational constants in cm-1:     0.016919     0.008646     0.006157
Rotational constants in MHz :   507.224235   259.193869   184.578709

                             ****ORCA TERMINATED NORMALLY****
TOTAL RUN TIME: 0 days 0 hours 0 minutes 32 seconds 224 msec
