                         Program Version 4.2.1 -  RELEASE  -
|  1> ! wB97X-D3 SP def2-SVP
|  2> %pal
|  3> nprocs 16
|  4> end
|  5>
|  6> * xyz 0 1
|  7> S 	 -103.126 	 54.768 	 119.228
|  8> C 	 -101.9 	 53.5356 	 118.991
|  9> C 	 -100.751 	 54.0451 	 118.4
| 10> C 	 -100.836 	 55.4428 	 118.264
| 11> C 	 -101.97 	 55.9737 	 118.772
| 12> H 	 -99.9122 	 56.0282 	 117.997
| 13> C 	 -99.4653 	 53.3014 	 117.984
| 14> H 	 -99.0543 	 52.8317 	 118.815
| 15> H 	 -98.8062 	 54.0171 	 117.543
| 16> C 	 -99.526 	 52.2597 	 116.84
| 17> H 	 -100.085 	 52.7267 	 116.072
| 18> H 	 -98.5693 	 52.0458 	 116.437
| 19> C 	 -100.067 	 50.8468 	 117.115
| 20> H 	 -101.15 	 50.7779 	 117.215
| 21> H 	 -99.6357 	 50.0759 	 116.482
| 22> H 	 -99.7391 	 50.5354 	 118.096
| 23> S 	 -103.597 	 57.7745 	 117.401
| 24> C 	 -103.669 	 59.3641 	 118.157
| 25> C 	 -102.886 	 59.5206 	 119.239
| 26> C 	 -102.179 	 58.347 	 119.604
| 27> C 	 -102.392 	 57.3458 	 118.613
| 28> H 	 -102.96 	 60.5233 	 119.646
| 29> C 	 -101.232 	 58.3547 	 120.824
| 30> H 	 -101.08 	 57.3294 	 121.034
| 31> H 	 -101.7 	 58.7651 	 121.765
| 32> C 	 -99.8103 	 58.9089 	 120.605
| 33> H 	 -99.6613 	 59.9976 	 120.442
| 34> H 	 -99.3734 	 58.3939 	 119.66
| 35> C 	 -98.8931 	 58.6034 	 121.801
| 36> H 	 -97.848 	 58.8778 	 121.717
| 37> H 	 -98.9154 	 57.5137 	 121.879
| 38> H 	 -99.3233 	 59.0582 	 122.69
| 39> H 	 -102.084 	 52.4417 	 119.11
| 40> H 	 -104.081 	 60.2977 	 117.684
| 41> *
| 42>
| 43>                          ****END OF INPUT****

CARTESIAN COORDINATES (ANGSTROEM)
---------------------------------
  S    -103.126000   54.768000  119.228000
  C    -101.900000   53.535600  118.991000
  C    -100.751000   54.045100  118.400000
  C    -100.836000   55.442800  118.264000
  C    -101.970000   55.973700  118.772000
  H    -99.912200   56.028200  117.997000
  C    -99.465300   53.301400  117.984000
  H    -99.054300   52.831700  118.815000
  H    -98.806200   54.017100  117.543000
  C    -99.526000   52.259700  116.840000
  H    -100.085000   52.726700  116.072000
  H    -98.569300   52.045800  116.437000
  C    -100.067000   50.846800  117.115000
  H    -101.150000   50.777900  117.215000
  H    -99.635700   50.075900  116.482000
  H    -99.739100   50.535400  118.096000
  S    -103.597000   57.774500  117.401000
  C    -103.669000   59.364100  118.157000
  C    -102.886000   59.520600  119.239000
  C    -102.179000   58.347000  119.604000
  C    -102.392000   57.345800  118.613000
  H    -102.960000   60.523300  119.646000
  C    -101.232000   58.354700  120.824000
  H    -101.080000   57.329400  121.034000
  H    -101.700000   58.765100  121.765000
  C    -99.810300   58.908900  120.605000
  H    -99.661300   59.997600  120.442000
  H    -99.373400   58.393900  119.660000
  C    -98.893100   58.603400  121.801000
  H    -97.848000   58.877800  121.717000
  H    -98.915400   57.513700  121.879000
  H    -99.323300   59.058200  122.690000
  H    -102.084000   52.441700  119.110000
  H    -104.081000   60.297700  117.684000

 Total Charge           Charge          ....    0
 Multiplicity           Mult            ....    1
 Number of Electrons    NEL             ....  134
 Basis Dimension        Dim             ....  322

ORBITAL ENERGIES
----------------

  NO   OCC          E(Eh)            E(eV)
   0   2.0000     -88.969380     -2420.9799
   1   2.0000     -88.967592     -2420.9312
   2   2.0000     -10.326740      -281.0049
   3   2.0000     -10.319445      -280.8064
   4   2.0000     -10.316400      -280.7235
   5   2.0000     -10.312449      -280.6160
   6   2.0000     -10.308477      -280.5079
   7   2.0000     -10.298768      -280.2437
   8   2.0000     -10.296499      -280.1820
   9   2.0000     -10.294901      -280.1385
  10   2.0000     -10.290513      -280.0191
  11   2.0000     -10.288532      -279.9652
  12   2.0000     -10.285422      -279.8805
  13   2.0000     -10.279569      -279.7213
  14   2.0000     -10.275977      -279.6236
  15   2.0000     -10.274932      -279.5951
  16   2.0000      -8.083644      -219.9671
  17   2.0000      -8.082639      -219.9398
  18   2.0000      -6.042142      -164.4150
  19   2.0000      -6.041083      -164.3862
  20   2.0000      -6.038393      -164.3130
  21   2.0000      -6.037154      -164.2793
  22   2.0000      -6.034265      -164.2007
  23   2.0000      -6.033383      -164.1767
  24   2.0000      -1.009792       -27.4778
  25   2.0000      -0.984014       -26.7764
  26   2.0000      -0.910580       -24.7781
  27   2.0000      -0.905061       -24.6279
  28   2.0000      -0.869151       -23.6508
  29   2.0000      -0.852048       -23.1854
  30   2.0000      -0.849967       -23.1288
  31   2.0000      -0.813071       -22.1248
  32   2.0000      -0.789543       -21.4846
  33   2.0000      -0.769421       -20.9370
  34   2.0000      -0.704883       -19.1808
  35   2.0000      -0.700632       -19.0652
  36   2.0000      -0.688022       -18.7220
  37   2.0000      -0.647813       -17.6279
  38   2.0000      -0.637680       -17.3521
  39   2.0000      -0.621728       -16.9181
  40   2.0000      -0.593786       -16.1577
  41   2.0000      -0.571182       -15.5427
  42   2.0000      -0.562538       -15.3074
  43   2.0000      -0.551136       -14.9972
  44   2.0000      -0.542363       -14.7585
  45   2.0000      -0.522109       -14.2073
  46   2.0000      -0.517735       -14.0883
  47   2.0000      -0.510094       -13.8804
  48   2.0000      -0.497352       -13.5336
  49   2.0000      -0.490321       -13.3423
  50   2.0000      -0.487626       -13.2690
  51   2.0000      -0.475839       -12.9482
  52   2.0000      -0.474632       -12.9154
  53   2.0000      -0.460211       -12.5230
  54   2.0000      -0.456372       -12.4185
  55   2.0000      -0.449895       -12.2423
  56   2.0000      -0.443509       -12.0685
  57   2.0000      -0.439363       -11.9557
  58   2.0000      -0.436132       -11.8677
  59   2.0000      -0.425371       -11.5749
  60   2.0000      -0.423248       -11.5172
  61   2.0000      -0.413828       -11.2608
  62   2.0000      -0.411137       -11.1876
  63   2.0000      -0.343461        -9.3461
  64   2.0000      -0.332704        -9.0533
  65   2.0000      -0.323699        -8.8083
  66   2.0000      -0.303020        -8.2456
  67   0.0000       0.042177         1.1477
  68   0.0000       0.050074         1.3626
  69   0.0000       0.113621         3.0918
  70   0.0000       0.118662         3.2290
  71   0.0000       0.127506         3.4696

MULLIKEN ATOMIC CHARGES
-----------------------
   0 S :    0.124682
   1 C :   -0.145991
   2 C :   -0.086680
   3 C :   -0.000566
   4 C :   -0.156469
   5 H :    0.036815
   6 C :    0.113856
   7 H :    0.021856
   8 H :    0.013536
   9 C :   -0.059187
  10 H :    0.020857
  11 H :    0.018428
  12 C :   -0.050253
  13 H :    0.033924
  14 H :    0.035368
  15 H :    0.002781
  16 S :    0.121256
  17 C :   -0.116804
  18 C :   -0.022884
  19 C :   -0.023056
  20 C :   -0.179416
  21 H :    0.018054
  22 C :    0.091479
  23 H :    0.011374
  24 H :    0.039128
  25 C :   -0.110237
  26 H :    0.036233
  27 H :    0.036802
  28 C :   -0.046277
  29 H :    0.038707
  30 H :    0.025642
  31 H :    0.029909
  32 H :    0.059251
  33 H :    0.067882
Sum of atomic charges:    0.0000000

LOEWDIN ATOMIC CHARGES
----------------------
   0 S :    0.418271
   1 C :   -0.202124
   2 C :   -0.065697
   3 C :   -0.068140
   4 C :   -0.208090
   5 H :    0.042045
   6 C :   -0.016377
   7 H :    0.022144
   8 H :    0.031122
   9 C :   -0.035090
  10 H :    0.020302
  11 H :    0.022360
  12 C :   -0.070870
  13 H :    0.022378
  14 H :    0.029003
  15 H :    0.019237
  16 S :    0.396764
  17 C :   -0.192196
  18 C :   -0.075083
  19 C :   -0.043581
  20 C :   -0.201052
  21 H :    0.036620
  22 C :   -0.031917
  23 H :    0.025761
  24 H :    0.038663
  25 C :   -0.046913
  26 H :    0.022339
  27 H :    0.030607
  28 C :   -0.066544
  29 H :    0.025960
  30 H :    0.023803
  31 H :    0.023532
  32 H :    0.033274
  33 H :    0.039489

  Mayer bond orders larger than 0.100000
B(  0-S ,  1-C ) :   1.1451 B(  0-S ,  4-C ) :   1.1575 B(  1-C ,  2-C ) :   1.6058
B(  1-C , 32-H ) :   0.9621 B(  2-C ,  3-C ) :   1.2768 B(  2-C ,  6-C ) :   1.0099
B(  3-C ,  4-C ) :   1.5865 B(  3-C ,  5-H ) :   0.9793 B(  4-C , 20-C ) :   1.0220
B(  6-C ,  7-H ) :   0.9414 B(  6-C ,  8-H ) :   0.9365 B(  6-C ,  9-C ) :   1.0788
B(  9-C , 10-H ) :   0.9553 B(  9-C , 11-H ) :   0.9579 B(  9-C , 12-C ) :   1.0750
B( 12-C , 13-H ) :   0.9760 B( 12-C , 14-H ) :   0.9755 B( 12-C , 15-H ) :   0.9712
B( 16-S , 17-C ) :   1.1287 B( 16-S , 20-C ) :   1.1520 B( 17-C , 18-C ) :   1.6782
B( 17-C , 33-H ) :   0.9487 B( 18-C , 19-C ) :   1.2117 B( 18-C , 21-H ) :   0.9885
B( 19-C , 20-C ) :   1.5923 B( 19-C , 22-C ) :   1.0450 B( 22-C , 23-H ) :   0.9213
B( 22-C , 24-H ) :   0.9381 B( 22-C , 25-C ) :   1.0533 B( 25-C , 26-H ) :   0.9589
B( 25-C , 27-H ) :   0.9530 B( 25-C , 28-C ) :   1.0751 B( 28-C , 29-H ) :   0.9747
B( 28-C , 30-H ) :   0.9769 B( 28-C , 31-H ) :   0.9738

Dispersion correction           -0.014002275
FINAL SINGLE POINT ENERGY     -1339.858412454409

DIPOLE MOMENT
-------------
                                X             Y             Z
Electronic contribution:    -23.22412       7.73866      -5.51363
Nuclear contribution   :     23.79059      -7.69378       5.62019
                        -----------------------------------------
Total Dipole Moment    :      0.56647       0.04488       0.10656
                        -----------------------------------------
Magnitude (a.u.)       :      0.57815
Magnitude (Debye)      :      1.46953

Rotational constants in cm-1:     0.019257     0.008012     0.006435
Rotational constants in MHz :   577.297257   240.200943   192.904550

                             ****ORCA TERMINATED NORMALLY****
TOTAL RUN TIME: 0 days 0 hours 0 minutes 32 seconds 127 msec
