                         Program Version 4.2.1 -  RELEASE  -
|  1> ! wB97X-D3 SP def2-SVP
|  2> %pal
|  3> nprocs 16
|  4> end
|  5>
|  6> * xyz 0 1
|  7> S 	 -66.2965 	 39.2885 	 137.622
|  8> C 	 -64.8167 	 39.4432 	 138.463
|  9> C 	 -63.8048 	 39.7133 	 137.531
| 10> C 	 -64.1762 	 39.6675 	 136.185
| 11> C 	 -65.5554 	 39.5674 	 136.08
| 12> H 	 -63.4662 	 39.8461 	 135.352
| 13> C 	 -62.4332 	 39.8557 	 138.023
| 14> H 	 -62.4606 	 40.3738 	 138.986
| 15> H 	 -62.068 	 40.6118 	 137.382
| 16> C 	 -61.5479 	 38.5883 	 137.914
| 17> H 	 -61.4203 	 38.5938 	 136.852
| 18> H 	 -60.6394 	 38.8474 	 138.463
| 19> C 	 -62.2231 	 37.3085 	 138.226
| 20> H 	 -62.9449 	 37.0899 	 137.515
| 21> H 	 -61.5977 	 36.427 	 138.11
| 22> H 	 -62.6289 	 37.2972 	 139.211
| 23> S 	 -67.7688 	 38.6225 	 134.742
| 24> C 	 -68.0953 	 39.009 	 133.128
| 25> C 	 -67.1552 	 39.934 	 132.707
| 26> C 	 -66.157 	 40.2284 	 133.654
| 27> C 	 -66.2906 	 39.4862 	 134.81
| 28> H 	 -67.3242 	 40.4341 	 131.776
| 29> C 	 -65.127 	 41.2831 	 133.363
| 30> H 	 -64.6726 	 41.4088 	 134.37
| 31> H 	 -65.6894 	 42.1601 	 133.3
| 32> C 	 -64.0925 	 40.9929 	 132.286
| 33> H 	 -63.5692 	 41.8845 	 132.193
| 34> H 	 -64.6614 	 40.9528 	 131.31
| 35> C 	 -63.2239 	 39.752 	 132.565
| 36> H 	 -62.6133 	 39.8698 	 133.505
| 37> H 	 -62.5581 	 39.5452 	 131.807
| 38> H 	 -63.877 	 38.9009 	 132.765
| 39> H 	 -64.7923 	 39.487 	 139.525
| 40> H 	 -68.9607 	 38.5074 	 132.703
| 41> *
| 42>
| 43>                          ****END OF INPUT****

CARTESIAN COORDINATES (ANGSTROEM)
---------------------------------
  S    -66.296500   39.288500  137.622000
  C    -64.816700   39.443200  138.463000
  C    -63.804800   39.713300  137.531000
  C    -64.176200   39.667500  136.185000
  C    -65.555400   39.567400  136.080000
  H    -63.466200   39.846100  135.352000
  C    -62.433200   39.855700  138.023000
  H    -62.460600   40.373800  138.986000
  H    -62.068000   40.611800  137.382000
  C    -61.547900   38.588300  137.914000
  H    -61.420300   38.593800  136.852000
  H    -60.639400   38.847400  138.463000
  C    -62.223100   37.308500  138.226000
  H    -62.944900   37.089900  137.515000
  H    -61.597700   36.427000  138.110000
  H    -62.628900   37.297200  139.211000
  S    -67.768800   38.622500  134.742000
  C    -68.095300   39.009000  133.128000
  C    -67.155200   39.934000  132.707000
  C    -66.157000   40.228400  133.654000
  C    -66.290600   39.486200  134.810000
  H    -67.324200   40.434100  131.776000
  C    -65.127000   41.283100  133.363000
  H    -64.672600   41.408800  134.370000
  H    -65.689400   42.160100  133.300000
  C    -64.092500   40.992900  132.286000
  H    -63.569200   41.884500  132.193000
  H    -64.661400   40.952800  131.310000
  C    -63.223900   39.752000  132.565000
  H    -62.613300   39.869800  133.505000
  H    -62.558100   39.545200  131.807000
  H    -63.877000   38.900900  132.765000
  H    -64.792300   39.487000  139.525000
  H    -68.960700   38.507400  132.703000

 Total Charge           Charge          ....    0
 Multiplicity           Mult            ....    1
 Number of Electrons    NEL             ....  134
 Basis Dimension        Dim             ....  322

ORBITAL ENERGIES
----------------

  NO   OCC          E(Eh)            E(eV)
   0   2.0000     -88.965995     -2420.8878
   1   2.0000     -88.958540     -2420.6849
   2   2.0000     -10.330575      -281.1092
   3   2.0000     -10.321239      -280.8552
   4   2.0000     -10.314132      -280.6618
   5   2.0000     -10.305655      -280.4311
   6   2.0000     -10.295390      -280.1518
   7   2.0000     -10.292839      -280.0824
   8   2.0000     -10.290954      -280.0311
   9   2.0000     -10.288885      -279.9748
  10   2.0000     -10.288326      -279.9596
  11   2.0000     -10.282513      -279.8014
  12   2.0000     -10.280380      -279.7434
  13   2.0000     -10.280122      -279.7363
  14   2.0000     -10.276543      -279.6389
  15   2.0000     -10.260678      -279.2072
  16   2.0000      -8.081557      -219.9103
  17   2.0000      -8.075615      -219.7487
  18   2.0000      -6.039921      -164.3546
  19   2.0000      -6.035799      -164.2424
  20   2.0000      -6.033857      -164.1896
  21   2.0000      -6.032596      -164.1553
  22   2.0000      -6.029661      -164.0754
  23   2.0000      -6.026661      -163.9938
  24   2.0000      -1.017177       -27.6788
  25   2.0000      -0.995606       -27.0918
  26   2.0000      -0.919474       -25.0201
  27   2.0000      -0.915287       -24.9062
  28   2.0000      -0.870056       -23.6754
  29   2.0000      -0.856625       -23.3100
  30   2.0000      -0.850171       -23.1343
  31   2.0000      -0.818177       -22.2637
  32   2.0000      -0.788740       -21.4627
  33   2.0000      -0.776569       -21.1315
  34   2.0000      -0.716121       -19.4866
  35   2.0000      -0.702457       -19.1148
  36   2.0000      -0.696237       -18.9456
  37   2.0000      -0.660827       -17.9820
  38   2.0000      -0.640407       -17.4264
  39   2.0000      -0.623157       -16.9570
  40   2.0000      -0.599254       -16.3065
  41   2.0000      -0.568991       -15.4830
  42   2.0000      -0.565435       -15.3863
  43   2.0000      -0.558489       -15.1973
  44   2.0000      -0.542448       -14.7608
  45   2.0000      -0.539635       -14.6842
  46   2.0000      -0.523892       -14.2558
  47   2.0000      -0.517297       -14.0764
  48   2.0000      -0.503449       -13.6996
  49   2.0000      -0.499203       -13.5840
  50   2.0000      -0.494131       -13.4460
  51   2.0000      -0.479375       -13.0445
  52   2.0000      -0.474968       -12.9245
  53   2.0000      -0.468706       -12.7541
  54   2.0000      -0.461145       -12.5484
  55   2.0000      -0.453568       -12.3422
  56   2.0000      -0.449895       -12.2423
  57   2.0000      -0.444539       -12.0965
  58   2.0000      -0.432860       -11.7787
  59   2.0000      -0.421752       -11.4765
  60   2.0000      -0.415385       -11.3032
  61   2.0000      -0.410692       -11.1755
  62   2.0000      -0.399995       -10.8844
  63   2.0000      -0.357616        -9.7312
  64   2.0000      -0.332848        -9.0573
  65   2.0000      -0.327795        -8.9198
  66   2.0000      -0.282815        -7.6958
  67   0.0000       0.027930         0.7600
  68   0.0000       0.082301         2.2395
  69   0.0000       0.112145         3.0516
  70   0.0000       0.124880         3.3982
  71   0.0000       0.133156         3.6234

MULLIKEN ATOMIC CHARGES
-----------------------
   0 S :    0.115192
   1 C :   -0.114520
   2 C :   -0.138203
   3 C :    0.016436
   4 C :   -0.125733
   5 H :   -0.003550
   6 C :    0.076697
   7 H :    0.015315
   8 H :    0.003016
   9 C :   -0.038082
  10 H :    0.009611
  11 H :    0.037953
  12 C :    0.012609
  13 H :    0.020039
  14 H :    0.022256
  15 H :    0.020555
  16 S :    0.089973
  17 C :   -0.105367
  18 C :   -0.017879
  19 C :   -0.098362
  20 C :   -0.128194
  21 H :    0.011595
  22 C :    0.077174
  23 H :    0.006714
  24 H :    0.016685
  25 C :   -0.017829
  26 H :    0.013960
  27 H :    0.029127
  28 C :   -0.032394
  29 H :    0.039381
  30 H :    0.023525
  31 H :    0.050421
  32 H :    0.043984
  33 H :    0.067894
Sum of atomic charges:   -0.0000000

LOEWDIN ATOMIC CHARGES
----------------------
   0 S :    0.433363
   1 C :   -0.211871
   2 C :   -0.064328
   3 C :   -0.077102
   4 C :   -0.187858
   5 H :    0.034697
   6 C :   -0.037995
   7 H :    0.027032
   8 H :    0.023468
   9 C :   -0.032020
  10 H :    0.023006
  11 H :    0.027121
  12 C :   -0.059480
  13 H :    0.022578
  14 H :    0.029246
  15 H :    0.020355
  16 S :    0.438530
  17 C :   -0.199096
  18 C :   -0.074454
  19 C :   -0.064333
  20 C :   -0.213437
  21 H :    0.027363
  22 C :   -0.034445
  23 H :    0.032152
  24 H :    0.027971
  25 C :   -0.032886
  26 H :    0.016415
  27 H :    0.029587
  28 C :   -0.055936
  29 H :    0.029087
  30 H :    0.016975
  31 H :    0.033006
  32 H :    0.022284
  33 H :    0.031007

  Mayer bond orders larger than 0.100000
B(  0-S ,  1-C ) :   1.1499 B(  0-S ,  4-C ) :   1.1898 B(  1-C ,  2-C ) :   1.5337
B(  1-C ,  4-C ) :   0.1008 B(  1-C , 32-H ) :   0.9785 B(  2-C ,  3-C ) :   1.3011
B(  2-C ,  6-C ) :   1.0380 B(  3-C ,  4-C ) :   1.4988 B(  3-C ,  5-H ) :   0.9787
B(  4-C , 20-C ) :   1.0554 B(  6-C ,  7-H ) :   0.9331 B(  6-C ,  8-H ) :   0.9345
B(  6-C ,  9-C ) :   1.0481 B(  9-C , 10-H ) :   0.9506 B(  9-C , 11-H ) :   0.9581
B(  9-C , 12-C ) :   1.1079 B( 12-C , 13-H ) :   0.9561 B( 12-C , 14-H ) :   0.9667
B( 12-C , 15-H ) :   0.9736 B( 16-S , 17-C ) :   1.1984 B( 16-S , 20-C ) :   1.1614
B( 17-C , 18-C ) :   1.5221 B( 17-C , 20-C ) :   0.1001 B( 17-C , 33-H ) :   0.9766
B( 18-C , 19-C ) :   1.2885 B( 18-C , 21-H ) :   1.0027 B( 19-C , 20-C ) :   1.5384
B( 19-C , 22-C ) :   1.0273 B( 22-C , 23-H ) :   0.9248 B( 22-C , 24-H ) :   0.9239
B( 22-C , 25-C ) :   1.0700 B( 25-C , 26-H ) :   0.9518 B( 25-C , 27-H ) :   0.9523
B( 25-C , 28-C ) :   1.0707 B( 28-C , 29-H ) :   0.9633 B( 28-C , 30-H ) :   0.9683
B( 28-C , 31-H ) :   0.9742

Dispersion correction           -0.015727664
FINAL SINGLE POINT ENERGY     -1339.866153567828

DIPOLE MOMENT
-------------
                                X             Y             Z
Electronic contribution:    -25.13696      -1.70444       4.40646
Nuclear contribution   :     25.53660       1.97835      -4.68441
                        -----------------------------------------
Total Dipole Moment    :      0.39963       0.27391      -0.27795
                        -----------------------------------------
Magnitude (a.u.)       :      0.55856
Magnitude (Debye)      :      1.41975

Rotational constants in cm-1:     0.020215     0.009721     0.007419
Rotational constants in MHz :   606.038376   291.441258   222.429105

                             ****ORCA TERMINATED NORMALLY****
TOTAL RUN TIME: 0 days 0 hours 0 minutes 36 seconds 127 msec
