                         Program Version 4.2.1 -  RELEASE  -
|  1> ! wB97X-D3 SP def2-SVP
|  2> %pal
|  3> nprocs 16
|  4> end
|  5>
|  6> * xyz 0 1
|  7> S 	 -12.4247 	 -11.8619 	 91.3594
|  8> C 	 -13.9645 	 -11.1489 	 91.9182
|  9> C 	 -14.6761 	 -10.6553 	 90.8472
| 10> C 	 -13.9547 	 -10.8081 	 89.6245
| 11> C 	 -12.8175 	 -11.5376 	 89.7261
| 12> H 	 -14.3327 	 -10.517 	 88.6367
| 13> C 	 -16.0223 	 -10.0487 	 90.9181
| 14> H 	 -16.3663 	 -10.0287 	 89.8545
| 15> H 	 -16.0108 	 -9.07112 	 91.2425
| 16> C 	 -17.1285 	 -10.8063 	 91.7401
| 17> H 	 -17.4499 	 -11.8067 	 91.2571
| 18> H 	 -16.8225 	 -10.9831 	 92.7863
| 19> C 	 -18.3442 	 -9.94286 	 91.7842
| 20> H 	 -18.0671 	 -8.95054 	 92.2009
| 21> H 	 -18.8912 	 -9.81951 	 90.8307
| 22> H 	 -19.1254 	 -10.2924 	 92.3878
| 23> S 	 -10.1982 	 -11.4721 	 88.896
| 24> C 	 -9.85914 	 -12.201 	 87.2705
| 25> C 	 -10.9872 	 -12.7154 	 86.69
| 26> C 	 -12.1494 	 -12.5014 	 87.4161
| 27> C 	 -11.8955 	 -11.9358 	 88.668
| 28> H 	 -10.861 	 -13.1662 	 85.7443
| 29> C 	 -13.4713 	 -12.8231 	 86.8007
| 30> H 	 -14.2152 	 -12.5348 	 87.5526
| 31> H 	 -13.5786 	 -13.9307 	 86.5646
| 32> C 	 -13.7917 	 -12.0229 	 85.5281
| 33> H 	 -13.2569 	 -12.4301 	 84.6525
| 34> H 	 -13.3836 	 -11.0261 	 85.6332
| 35> C 	 -15.2061 	 -12.0646 	 85.1327
| 36> H 	 -15.4402 	 -12.8872 	 84.5267
| 37> H 	 -15.4087 	 -11.2268 	 84.4873
| 38> H 	 -15.9661 	 -12.0018 	 85.9851
| 39> H 	 -14.1933 	 -11.0186 	 93.0179
| 40> H 	 -8.8362 	 -12.2901 	 86.812
| 41> *
| 42>
| 43>                          ****END OF INPUT****

CARTESIAN COORDINATES (ANGSTROEM)
---------------------------------
  S    -12.424700  -11.861900   91.359400
  C    -13.964500  -11.148900   91.918200
  C    -14.676100  -10.655300   90.847200
  C    -13.954700  -10.808100   89.624500
  C    -12.817500  -11.537600   89.726100
  H    -14.332700  -10.517000   88.636700
  C    -16.022300  -10.048700   90.918100
  H    -16.366300  -10.028700   89.854500
  H    -16.010800   -9.071120   91.242500
  C    -17.128500  -10.806300   91.740100
  H    -17.449900  -11.806700   91.257100
  H    -16.822500  -10.983100   92.786300
  C    -18.344200   -9.942860   91.784200
  H    -18.067100   -8.950540   92.200900
  H    -18.891200   -9.819510   90.830700
  H    -19.125400  -10.292400   92.387800
  S    -10.198200  -11.472100   88.896000
  C     -9.859140  -12.201000   87.270500
  C    -10.987200  -12.715400   86.690000
  C    -12.149400  -12.501400   87.416100
  C    -11.895500  -11.935800   88.668000
  H    -10.861000  -13.166200   85.744300
  C    -13.471300  -12.823100   86.800700
  H    -14.215200  -12.534800   87.552600
  H    -13.578600  -13.930700   86.564600
  C    -13.791700  -12.022900   85.528100
  H    -13.256900  -12.430100   84.652500
  H    -13.383600  -11.026100   85.633200
  C    -15.206100  -12.064600   85.132700
  H    -15.440200  -12.887200   84.526700
  H    -15.408700  -11.226800   84.487300
  H    -15.966100  -12.001800   85.985100
  H    -14.193300  -11.018600   93.017900
  H     -8.836200  -12.290100   86.812000

 Total Charge           Charge          ....    0
 Multiplicity           Mult            ....    1
 Number of Electrons    NEL             ....  134
 Basis Dimension        Dim             ....  322

ORBITAL ENERGIES
----------------

  NO   OCC          E(Eh)            E(eV)
   0   2.0000     -88.967677     -2420.9336
   1   2.0000     -88.961949     -2420.7777
   2   2.0000     -10.328553      -281.0542
   3   2.0000     -10.322702      -280.8950
   4   2.0000     -10.322664      -280.8940
   5   2.0000     -10.317321      -280.7486
   6   2.0000     -10.299642      -280.2675
   7   2.0000     -10.298407      -280.2339
   8   2.0000     -10.296060      -280.1700
   9   2.0000     -10.293086      -280.0891
  10   2.0000     -10.289965      -280.0042
  11   2.0000     -10.288876      -279.9746
  12   2.0000     -10.286427      -279.9079
  13   2.0000     -10.283690      -279.8334
  14   2.0000     -10.275018      -279.5975
  15   2.0000     -10.274417      -279.5811
  16   2.0000      -8.081050      -219.8965
  17   2.0000      -8.077156      -219.7906
  18   2.0000      -6.039612      -164.3462
  19   2.0000      -6.035921      -164.2458
  20   2.0000      -6.035648      -164.2383
  21   2.0000      -6.031663      -164.1299
  22   2.0000      -6.031614      -164.1285
  23   2.0000      -6.027892      -164.0273
  24   2.0000      -1.008321       -27.4378
  25   2.0000      -0.983141       -26.7526
  26   2.0000      -0.917418       -24.9642
  27   2.0000      -0.913708       -24.8633
  28   2.0000      -0.872113       -23.7314
  29   2.0000      -0.857090       -23.3226
  30   2.0000      -0.849203       -23.1080
  31   2.0000      -0.815594       -22.1934
  32   2.0000      -0.783253       -21.3134
  33   2.0000      -0.769321       -20.9343
  34   2.0000      -0.704313       -19.1653
  35   2.0000      -0.700397       -19.0588
  36   2.0000      -0.692297       -18.8384
  37   2.0000      -0.661141       -17.9905
  38   2.0000      -0.638933       -17.3862
  39   2.0000      -0.619654       -16.8616
  40   2.0000      -0.596175       -16.2228
  41   2.0000      -0.572910       -15.5897
  42   2.0000      -0.569632       -15.5005
  43   2.0000      -0.565933       -15.3998
  44   2.0000      -0.529109       -14.3978
  45   2.0000      -0.523334       -14.2406
  46   2.0000      -0.519787       -14.1441
  47   2.0000      -0.515113       -14.0170
  48   2.0000      -0.506605       -13.7854
  49   2.0000      -0.497946       -13.5498
  50   2.0000      -0.492105       -13.3909
  51   2.0000      -0.480913       -13.0863
  52   2.0000      -0.471590       -12.8326
  53   2.0000      -0.460079       -12.5194
  54   2.0000      -0.457503       -12.4493
  55   2.0000      -0.449364       -12.2278
  56   2.0000      -0.446685       -12.1549
  57   2.0000      -0.432897       -11.7797
  58   2.0000      -0.429687       -11.6924
  59   2.0000      -0.427634       -11.6365
  60   2.0000      -0.423495       -11.5239
  61   2.0000      -0.416764       -11.3407
  62   2.0000      -0.414316       -11.2741
  63   2.0000      -0.346546        -9.4300
  64   2.0000      -0.332010        -9.0345
  65   2.0000      -0.329933        -8.9779
  66   2.0000      -0.290999        -7.9185
  67   0.0000       0.030370         0.8264
  68   0.0000       0.070268         1.9121
  69   0.0000       0.102332         2.7846
  70   0.0000       0.123112         3.3501
  71   0.0000       0.125237         3.4079

MULLIKEN ATOMIC CHARGES
-----------------------
   0 S :    0.097352
   1 C :   -0.157533
   2 C :   -0.066182
   3 C :    0.032200
   4 C :   -0.154507
   5 H :    0.009804
   6 C :    0.079773
   7 H :    0.021416
   8 H :    0.018132
   9 C :   -0.094671
  10 H :    0.046991
  11 H :    0.035449
  12 C :   -0.042935
  13 H :    0.025249
  14 H :    0.029468
  15 H :    0.015863
  16 S :    0.099159
  17 C :   -0.114649
  18 C :   -0.014847
  19 C :   -0.014540
  20 C :   -0.144831
  21 H :    0.003864
  22 C :    0.059302
  23 H :    0.012836
  24 H :    0.046239
  25 C :   -0.083756
  26 H :    0.025087
  27 H :    0.031351
  28 C :   -0.026353
  29 H :    0.021290
  30 H :    0.025026
  31 H :    0.033989
  32 H :    0.073303
  33 H :    0.071659
Sum of atomic charges:    0.0000000

LOEWDIN ATOMIC CHARGES
----------------------
   0 S :    0.402692
   1 C :   -0.195532
   2 C :   -0.065755
   3 C :   -0.071057
   4 C :   -0.202162
   5 H :    0.030960
   6 C :   -0.027879
   7 H :    0.036883
   8 H :    0.021578
   9 C :   -0.039494
  10 H :    0.035606
  11 H :    0.024265
  12 C :   -0.071167
  13 H :    0.025964
  14 H :    0.027368
  15 H :    0.017677
  16 S :    0.370675
  17 C :   -0.168212
  18 C :   -0.064696
  19 C :   -0.058355
  20 C :   -0.187008
  21 H :    0.028885
  22 C :   -0.034387
  23 H :    0.026722
  24 H :    0.040100
  25 C :   -0.046612
  26 H :    0.027944
  27 H :    0.023086
  28 C :   -0.065504
  29 H :    0.019598
  30 H :    0.029187
  31 H :    0.029849
  32 H :    0.039820
  33 H :    0.038961

  Mayer bond orders larger than 0.100000
B(  0-S ,  1-C ) :   1.1234 B(  0-S ,  4-C ) :   1.1613 B(  1-C ,  2-C ) :   1.6085
B(  1-C , 32-H ) :   0.9649 B(  2-C ,  3-C ) :   1.2466 B(  2-C ,  6-C ) :   1.0170
B(  3-C ,  4-C ) :   1.5817 B(  3-C ,  5-H ) :   0.9865 B(  4-C , 20-C ) :   1.0161
B(  6-C ,  7-H ) :   0.9426 B(  6-C ,  8-H ) :   0.9328 B(  6-C ,  9-C ) :   1.0637
B(  9-C , 10-H ) :   0.9554 B(  9-C , 11-H ) :   0.9532 B(  9-C , 12-C ) :   1.0912
B( 12-C , 13-H ) :   0.9706 B( 12-C , 14-H ) :   0.9722 B( 12-C , 15-H ) :   0.9695
B( 16-S , 17-C ) :   1.1271 B( 16-S , 20-C ) :   1.1402 B( 17-C , 18-C ) :   1.6370
B( 17-C , 20-C ) :   0.1065 B( 17-C , 33-H ) :   0.9587 B( 18-C , 19-C ) :   1.2162
B( 18-C , 21-H ) :   0.9979 B( 19-C , 20-C ) :   1.5985 B( 19-C , 22-C ) :   1.0641
B( 22-C , 23-H ) :   0.9285 B( 22-C , 24-H ) :   0.9275 B( 22-C , 25-C ) :   1.0619
B( 25-C , 26-H ) :   0.9414 B( 25-C , 27-H ) :   0.9600 B( 25-C , 28-C ) :   1.0989
B( 28-C , 29-H ) :   0.9719 B( 28-C , 30-H ) :   0.9684 B( 28-C , 31-H ) :   0.9723

Dispersion correction           -0.013687202
FINAL SINGLE POINT ENERGY     -1339.874351413431

DIPOLE MOMENT
-------------
                                X             Y             Z
Electronic contribution:     30.13759      -3.43352       9.69179
Nuclear contribution   :    -30.72676       3.52782     -10.17556
                        -----------------------------------------
Total Dipole Moment    :     -0.58916       0.09430      -0.48377
                        -----------------------------------------
Magnitude (a.u.)       :      0.76814
Magnitude (Debye)      :      1.95247

Rotational constants in cm-1:     0.018516     0.008488     0.006090
Rotational constants in MHz :   555.081139   254.466881   182.575621

                             ****ORCA TERMINATED NORMALLY****
TOTAL RUN TIME: 0 days 0 hours 0 minutes 33 seconds 55 msec
