                         Program Version 4.2.1 -  RELEASE  -
|  1> ! wB97X-D3 SP def2-SVP
|  2> %pal
|  3> nprocs 16
|  4> end
|  5>
|  6> * xyz 0 1
|  7> S 	 -30.8143 	 60.6182 	 112.061
|  8> C 	 -32.514 	 60.8076 	 111.716
|  9> C 	 -33.0473 	 61.9263 	 112.337
| 10> C 	 -32.1292 	 62.5839 	 113.186
| 11> C 	 -30.8542 	 62.0827 	 113.13
| 12> H 	 -32.3607 	 63.4575 	 113.771
| 13> C 	 -34.5387 	 62.3243 	 112.246
| 14> H 	 -34.6651 	 63.39 	 112.466
| 15> H 	 -35.1192 	 61.6792 	 112.927
| 16> C 	 -35.1436 	 62.17 	 110.853
| 17> H 	 -35.2528 	 61.1125 	 110.582
| 18> H 	 -36.182 	 62.5353 	 110.86
| 19> C 	 -34.488 	 62.9598 	 109.724
| 20> H 	 -33.4445 	 62.5509 	 109.584
| 21> H 	 -35.0831 	 62.9867 	 108.771
| 22> H 	 -34.2277 	 64.0306 	 109.925
| 23> S 	 -28.3652 	 63.2057 	 112.811
| 24> C 	 -27.4009 	 63.5675 	 114.209
| 25> C 	 -28.1402 	 63.4208 	 115.37
| 26> C 	 -29.4269 	 62.7334 	 115.142
| 27> C 	 -29.6173 	 62.4971 	 113.745
| 28> H 	 -27.8058 	 63.8139 	 116.305
| 29> C 	 -30.4613 	 62.4118 	 116.228
| 30> H 	 -31.0209 	 61.5492 	 115.919
| 31> H 	 -31.224 	 63.157 	 116.332
| 32> C 	 -29.9146 	 61.9783 	 117.58
| 33> H 	 -29.1175 	 62.6399 	 117.905
| 34> H 	 -29.425 	 61.0219 	 117.502
| 35> C 	 -31.0181 	 61.8123 	 118.601
| 36> H 	 -31.5595 	 60.9537 	 118.334
| 37> H 	 -31.8406 	 62.5009 	 118.653
| 38> H 	 -30.6185 	 61.6475 	 119.597
| 39> H 	 -33.0296 	 60.0993 	 111.065
| 40> H 	 -26.3734 	 63.9673 	 114.121
| 41> *
| 42>
| 43>                          ****END OF INPUT****

CARTESIAN COORDINATES (ANGSTROEM)
---------------------------------
  S    -30.814300   60.618200  112.061000
  C    -32.514000   60.807600  111.716000
  C    -33.047300   61.926300  112.337000
  C    -32.129200   62.583900  113.186000
  C    -30.854200   62.082700  113.130000
  H    -32.360700   63.457500  113.771000
  C    -34.538700   62.324300  112.246000
  H    -34.665100   63.390000  112.466000
  H    -35.119200   61.679200  112.927000
  C    -35.143600   62.170000  110.853000
  H    -35.252800   61.112500  110.582000
  H    -36.182000   62.535300  110.860000
  C    -34.488000   62.959800  109.724000
  H    -33.444500   62.550900  109.584000
  H    -35.083100   62.986700  108.771000
  H    -34.227700   64.030600  109.925000
  S    -28.365200   63.205700  112.811000
  C    -27.400900   63.567500  114.209000
  C    -28.140200   63.420800  115.370000
  C    -29.426900   62.733400  115.142000
  C    -29.617300   62.497100  113.745000
  H    -27.805800   63.813900  116.305000
  C    -30.461300   62.411800  116.228000
  H    -31.020900   61.549200  115.919000
  H    -31.224000   63.157000  116.332000
  C    -29.914600   61.978300  117.580000
  H    -29.117500   62.639900  117.905000
  H    -29.425000   61.021900  117.502000
  C    -31.018100   61.812300  118.601000
  H    -31.559500   60.953700  118.334000
  H    -31.840600   62.500900  118.653000
  H    -30.618500   61.647500  119.597000
  H    -33.029600   60.099300  111.065000
  H    -26.373400   63.967300  114.121000

 Total Charge           Charge          ....    0
 Multiplicity           Mult            ....    1
 Number of Electrons    NEL             ....  134
 Basis Dimension        Dim             ....  322

ORBITAL ENERGIES
----------------

  NO   OCC          E(Eh)            E(eV)
   0   2.0000     -88.965761     -2420.8814
   1   2.0000     -88.962936     -2420.8046
   2   2.0000     -10.330358      -281.1033
   3   2.0000     -10.323684      -280.9217
   4   2.0000     -10.319971      -280.8207
   5   2.0000     -10.316388      -280.7232
   6   2.0000     -10.311846      -280.5996
   7   2.0000     -10.302050      -280.3330
   8   2.0000     -10.298471      -280.2356
   9   2.0000     -10.297451      -280.2079
  10   2.0000     -10.295620      -280.1581
  11   2.0000     -10.287569      -279.9390
  12   2.0000     -10.287225      -279.9296
  13   2.0000     -10.282654      -279.8052
  14   2.0000     -10.281461      -279.7728
  15   2.0000     -10.269648      -279.4513
  16   2.0000      -8.081272      -219.9026
  17   2.0000      -8.077168      -219.7909
  18   2.0000      -6.039706      -164.3488
  19   2.0000      -6.035652      -164.2384
  20   2.0000      -6.035589      -164.2367
  21   2.0000      -6.032078      -164.1412
  22   2.0000      -6.031721      -164.1315
  23   2.0000      -6.028073      -164.0322
  24   2.0000      -1.003789       -27.3145
  25   2.0000      -0.981104       -26.6972
  26   2.0000      -0.913410       -24.8551
  27   2.0000      -0.908844       -24.7309
  28   2.0000      -0.867867       -23.6159
  29   2.0000      -0.850296       -23.1377
  30   2.0000      -0.845092       -22.9961
  31   2.0000      -0.811978       -22.0950
  32   2.0000      -0.783646       -21.3241
  33   2.0000      -0.769219       -20.9315
  34   2.0000      -0.708596       -19.2819
  35   2.0000      -0.698925       -19.0187
  36   2.0000      -0.694106       -18.8876
  37   2.0000      -0.654000       -17.7963
  38   2.0000      -0.641733       -17.4624
  39   2.0000      -0.616051       -16.7636
  40   2.0000      -0.599735       -16.3196
  41   2.0000      -0.572187       -15.5700
  42   2.0000      -0.564858       -15.3706
  43   2.0000      -0.555253       -15.1092
  44   2.0000      -0.537806       -14.6344
  45   2.0000      -0.527715       -14.3599
  46   2.0000      -0.514887       -14.0108
  47   2.0000      -0.509406       -13.8617
  48   2.0000      -0.506142       -13.7728
  49   2.0000      -0.497280       -13.5317
  50   2.0000      -0.487328       -13.2609
  51   2.0000      -0.478347       -13.0165
  52   2.0000      -0.471622       -12.8335
  53   2.0000      -0.465114       -12.6564
  54   2.0000      -0.455470       -12.3940
  55   2.0000      -0.454572       -12.3695
  56   2.0000      -0.442683       -12.0460
  57   2.0000      -0.439839       -11.9686
  58   2.0000      -0.432828       -11.7779
  59   2.0000      -0.426397       -11.6029
  60   2.0000      -0.421042       -11.4571
  61   2.0000      -0.411636       -11.2012
  62   2.0000      -0.403336       -10.9753
  63   2.0000      -0.343625        -9.3505
  64   2.0000      -0.329843        -8.9755
  65   2.0000      -0.323887        -8.8134
  66   2.0000      -0.297103        -8.0846
  67   0.0000       0.030757         0.8369
  68   0.0000       0.063260         1.7214
  69   0.0000       0.112069         3.0495
  70   0.0000       0.115642         3.1468
  71   0.0000       0.133086         3.6214

MULLIKEN ATOMIC CHARGES
-----------------------
   0 S :    0.097391
   1 C :   -0.127971
   2 C :   -0.102894
   3 C :    0.053729
   4 C :   -0.186377
   5 H :    0.010591
   6 C :    0.088414
   7 H :    0.025760
   8 H :    0.051424
   9 C :   -0.094572
  10 H :    0.027163
  11 H :    0.028075
  12 C :   -0.094893
  13 H :    0.041695
  14 H :    0.049027
  15 H :    0.029971
  16 S :    0.126037
  17 C :   -0.115110
  18 C :   -0.024191
  19 C :   -0.043763
  20 C :   -0.133695
  21 H :    0.017461
  22 C :    0.072638
  23 H :    0.022891
  24 H :    0.028328
  25 C :   -0.074785
  26 H :    0.021583
  27 H :    0.029176
  28 C :   -0.012280
  29 H :    0.005902
  30 H :    0.017084
  31 H :    0.032861
  32 H :    0.058627
  33 H :    0.074706
Sum of atomic charges:   -0.0000000

LOEWDIN ATOMIC CHARGES
----------------------
   0 S :    0.382724
   1 C :   -0.192590
   2 C :   -0.071068
   3 C :   -0.053367
   4 C :   -0.173750
   5 H :    0.033599
   6 C :   -0.026631
   7 H :    0.030457
   8 H :    0.039068
   9 C :   -0.052404
  10 H :    0.021068
  11 H :    0.026877
  12 C :   -0.083512
  13 H :    0.029851
  14 H :    0.032420
  15 H :    0.027240
  16 S :    0.433474
  17 C :   -0.196303
  18 C :   -0.068602
  19 C :   -0.043350
  20 C :   -0.229435
  21 H :    0.026137
  22 C :   -0.034105
  23 H :    0.033685
  24 H :    0.027067
  25 C :   -0.036645
  26 H :    0.015727
  27 H :    0.028026
  28 C :   -0.063193
  29 H :    0.021165
  30 H :    0.021652
  31 H :    0.029023
  32 H :    0.028776
  33 H :    0.036916

  Mayer bond orders larger than 0.100000
B(  0-S ,  1-C ) :   1.1495 B(  0-S ,  4-C ) :   1.1380 B(  1-C ,  2-C ) :   1.5987
B(  1-C ,  4-C ) :   0.1036 B(  1-C , 32-H ) :   0.9688 B(  2-C ,  3-C ) :   1.2509
B(  2-C ,  6-C ) :   1.0062 B(  3-C ,  4-C ) :   1.5875 B(  3-C ,  5-H ) :   0.9990
B(  4-C , 20-C ) :   1.0319 B(  6-C ,  7-H ) :   0.9453 B(  6-C ,  8-H ) :   0.9383
B(  6-C ,  9-C ) :   1.0835 B(  9-C , 10-H ) :   0.9495 B(  9-C , 11-H ) :   0.9552
B(  9-C , 12-C ) :   1.0722 B( 12-C , 13-H ) :   0.9698 B( 12-C , 14-H ) :   0.9750
B( 12-C , 15-H ) :   0.9737 B( 16-S , 17-C ) :   1.1655 B( 16-S , 20-C ) :   1.1692
B( 17-C , 18-C ) :   1.5833 B( 17-C , 33-H ) :   0.9657 B( 18-C , 19-C ) :   1.2521
B( 18-C , 21-H ) :   0.9932 B( 19-C , 20-C ) :   1.5514 B( 19-C , 22-C ) :   1.0399
B( 22-C , 23-H ) :   0.9295 B( 22-C , 24-H ) :   0.9363 B( 22-C , 25-C ) :   1.0610
B( 25-C , 26-H ) :   0.9596 B( 25-C , 27-H ) :   0.9539 B( 25-C , 28-C ) :   1.0820
B( 28-C , 29-H ) :   0.9682 B( 28-C , 30-H ) :   0.9749 B( 28-C , 31-H ) :   0.9717

Dispersion correction           -0.014001631
FINAL SINGLE POINT ENERGY     -1339.883144364396

DIPOLE MOMENT
-------------
                                X             Y             Z
Electronic contribution:     19.60375      -2.08030     -10.26384
Nuclear contribution   :    -20.08268       2.30016      10.67007
                        -----------------------------------------
Total Dipole Moment    :     -0.47893       0.21987       0.40623
                        -----------------------------------------
Magnitude (a.u.)       :      0.66539
Magnitude (Debye)      :      1.69128

Rotational constants in cm-1:     0.019461     0.007852     0.006368
Rotational constants in MHz :   583.419580   235.386689   190.905584

                             ****ORCA TERMINATED NORMALLY****
TOTAL RUN TIME: 0 days 0 hours 0 minutes 29 seconds 423 msec
