                         Program Version 4.2.1 -  RELEASE  -
|  1> ! wB97X-D3 SP def2-SVP
|  2> %pal
|  3> nprocs 16
|  4> end
|  5>
|  6> * xyz 0 1
|  7> S 	 -2.43183 	 80.4629 	 51.9653
|  8> C 	 -1.45628 	 81.7129 	 51.3156
|  9> C 	 -0.314316 	 81.2229 	 50.7411
| 10> C 	 -0.287871 	 79.8313 	 50.67
| 11> C 	 -1.43424 	 79.2601 	 51.1722
| 12> H 	 0.436304 	 79.0664 	 50.4173
| 13> C 	 0.734044 	 82.0517 	 50.0337
| 14> H 	 1.63864 	 81.5013 	 50.1202
| 15> H 	 0.761429 	 82.9073 	 50.6688
| 16> C 	 0.551689 	 82.3563 	 48.5195
| 17> H 	 1.37506 	 83.0509 	 48.2711
| 18> H 	 0.676919 	 81.4474 	 47.9581
| 19> C 	 -0.830237 	 82.983 	 48.1523
| 20> H 	 -1.5419 	 82.22 	 48.0889
| 21> H 	 -1.2173 	 83.6596 	 48.9203
| 22> H 	 -0.797857 	 83.556 	 47.2389
| 23> S 	 -2.16581 	 77.2481 	 53.0599
| 24> C 	 -1.8726 	 75.5999 	 52.6226
| 25> C 	 -1.45539 	 75.4655 	 51.2893
| 26> C 	 -1.17166 	 76.7415 	 50.6816
| 27> C 	 -1.50724 	 77.81 	 51.5055
| 28> H 	 -1.14089 	 74.4677 	 50.8757
| 29> C 	 -0.553672 	 76.8257 	 49.2445
| 30> H 	 -0.405863 	 77.8626 	 48.8994
| 31> H 	 -1.27706 	 76.3454 	 48.5655
| 32> C 	 0.814554 	 76.1161 	 49.0843
| 33> H 	 1.22768 	 76.302 	 48.0326
| 34> H 	 0.791419 	 74.9902 	 49.1697
| 35> C 	 1.72197 	 76.5907 	 50.2002
| 36> H 	 1.37004 	 76.5385 	 51.2269
| 37> H 	 1.83363 	 77.6408 	 50.1018
| 38> H 	 2.69596 	 76.1752 	 50.2418
| 39> H 	 -1.61883 	 82.7811 	 51.4237
| 40> H 	 -1.92901 	 74.7629 	 53.3344
| 41> *
| 42>
| 43>                          ****END OF INPUT****

CARTESIAN COORDINATES (ANGSTROEM)
---------------------------------
  S     -2.431830   80.462900   51.965300
  C     -1.456280   81.712900   51.315600
  C     -0.314316   81.222900   50.741100
  C     -0.287871   79.831300   50.670000
  C     -1.434240   79.260100   51.172200
  H      0.436304   79.066400   50.417300
  C      0.734044   82.051700   50.033700
  H      1.638640   81.501300   50.120200
  H      0.761429   82.907300   50.668800
  C      0.551689   82.356300   48.519500
  H      1.375060   83.050900   48.271100
  H      0.676919   81.447400   47.958100
  C     -0.830237   82.983000   48.152300
  H     -1.541900   82.220000   48.088900
  H     -1.217300   83.659600   48.920300
  H     -0.797857   83.556000   47.238900
  S     -2.165810   77.248100   53.059900
  C     -1.872600   75.599900   52.622600
  C     -1.455390   75.465500   51.289300
  C     -1.171660   76.741500   50.681600
  C     -1.507240   77.810000   51.505500
  H     -1.140890   74.467700   50.875700
  C     -0.553672   76.825700   49.244500
  H     -0.405863   77.862600   48.899400
  H     -1.277060   76.345400   48.565500
  C      0.814554   76.116100   49.084300
  H      1.227680   76.302000   48.032600
  H      0.791419   74.990200   49.169700
  C      1.721970   76.590700   50.200200
  H      1.370040   76.538500   51.226900
  H      1.833630   77.640800   50.101800
  H      2.695960   76.175200   50.241800
  H     -1.618830   82.781100   51.423700
  H     -1.929010   74.762900   53.334400

 Total Charge           Charge          ....    0
 Multiplicity           Mult            ....    1
 Number of Electrons    NEL             ....  134
 Basis Dimension        Dim             ....  322

ORBITAL ENERGIES
----------------

  NO   OCC          E(Eh)            E(eV)
   0   2.0000     -88.969075     -2420.9716
   1   2.0000     -88.968538     -2420.9570
   2   2.0000     -10.331211      -281.1265
   3   2.0000     -10.327001      -281.0120
   4   2.0000     -10.322453      -280.8882
   5   2.0000     -10.310381      -280.5597
   6   2.0000     -10.308343      -280.5043
   7   2.0000     -10.302331      -280.3407
   8   2.0000     -10.300312      -280.2857
   9   2.0000     -10.299635      -280.2673
  10   2.0000     -10.294406      -280.1250
  11   2.0000     -10.290665      -280.0232
  12   2.0000     -10.287125      -279.9269
  13   2.0000     -10.284502      -279.8555
  14   2.0000     -10.271497      -279.5016
  15   2.0000     -10.268058      -279.4081
  16   2.0000      -8.083749      -219.9700
  17   2.0000      -8.083532      -219.9641
  18   2.0000      -6.042227      -164.4174
  19   2.0000      -6.042079      -164.4133
  20   2.0000      -6.038252      -164.3092
  21   2.0000      -6.038125      -164.3057
  22   2.0000      -6.034474      -164.2064
  23   2.0000      -6.034242      -164.2001
  24   2.0000      -1.010755       -27.5040
  25   2.0000      -0.985995       -26.8303
  26   2.0000      -0.909745       -24.7554
  27   2.0000      -0.908579       -24.7237
  28   2.0000      -0.867111       -23.5953
  29   2.0000      -0.852415       -23.1954
  30   2.0000      -0.844267       -22.9737
  31   2.0000      -0.811579       -22.0842
  32   2.0000      -0.786361       -21.3980
  33   2.0000      -0.777482       -21.1564
  34   2.0000      -0.708293       -19.2736
  35   2.0000      -0.699165       -19.0253
  36   2.0000      -0.694195       -18.8900
  37   2.0000      -0.655726       -17.8432
  38   2.0000      -0.642420       -17.4811
  39   2.0000      -0.615511       -16.7489
  40   2.0000      -0.593217       -16.1423
  41   2.0000      -0.563923       -15.3451
  42   2.0000      -0.559851       -15.2343
  43   2.0000      -0.549417       -14.9504
  44   2.0000      -0.541711       -14.7407
  45   2.0000      -0.535194       -14.5634
  46   2.0000      -0.521813       -14.1993
  47   2.0000      -0.513113       -13.9625
  48   2.0000      -0.497761       -13.5448
  49   2.0000      -0.493397       -13.4260
  50   2.0000      -0.486672       -13.2430
  51   2.0000      -0.486172       -13.2294
  52   2.0000      -0.473144       -12.8749
  53   2.0000      -0.463284       -12.6066
  54   2.0000      -0.456379       -12.4187
  55   2.0000      -0.452901       -12.3241
  56   2.0000      -0.448679       -12.2092
  57   2.0000      -0.436863       -11.8877
  58   2.0000      -0.434528       -11.8241
  59   2.0000      -0.430521       -11.7151
  60   2.0000      -0.419035       -11.4025
  61   2.0000      -0.415780       -11.3139
  62   2.0000      -0.409684       -11.1481
  63   2.0000      -0.357468        -9.7272
  64   2.0000      -0.333736        -9.0814
  65   2.0000      -0.331089        -9.0094
  66   2.0000      -0.285610        -7.7718
  67   0.0000       0.028048         0.7632
  68   0.0000       0.070246         1.9115
  69   0.0000       0.104627         2.8470
  70   0.0000       0.121799         3.3143
  71   0.0000       0.132350         3.6014

MULLIKEN ATOMIC CHARGES
-----------------------
   0 S :    0.107869
   1 C :   -0.116017
   2 C :   -0.087096
   3 C :    0.015561
   4 C :   -0.124298
   5 H :   -0.026612
   6 C :    0.093007
   7 H :    0.013555
   8 H :    0.014517
   9 C :   -0.054447
  10 H :    0.037832
  11 H :    0.027100
  12 C :   -0.039027
  13 H :    0.032253
  14 H :    0.017855
  15 H :    0.033898
  16 S :    0.110492
  17 C :   -0.114967
  18 C :   -0.031105
  19 C :   -0.090760
  20 C :   -0.148549
  21 H :    0.041912
  22 C :    0.054766
  23 H :    0.037130
  24 H :    0.043441
  25 C :   -0.099881
  26 H :    0.048546
  27 H :    0.036108
  28 C :   -0.035988
  29 H :    0.046106
  30 H :    0.019435
  31 H :    0.020930
  32 H :    0.045479
  33 H :    0.070955
Sum of atomic charges:    0.0000000

LOEWDIN ATOMIC CHARGES
----------------------
   0 S :    0.417913
   1 C :   -0.206612
   2 C :   -0.069087
   3 C :   -0.066975
   4 C :   -0.184646
   5 H :    0.029860
   6 C :   -0.026319
   7 H :    0.027300
   8 H :    0.024550
   9 C :   -0.030174
  10 H :    0.028358
  11 H :    0.021804
  12 C :   -0.062785
  13 H :    0.020600
  14 H :    0.022759
  15 H :    0.026119
  16 S :    0.398087
  17 C :   -0.194017
  18 C :   -0.076342
  19 C :   -0.062171
  20 C :   -0.191143
  21 H :    0.040100
  22 C :   -0.031430
  23 H :    0.031296
  24 H :    0.036070
  25 C :   -0.046093
  26 H :    0.035051
  27 H :    0.023374
  28 C :   -0.070795
  29 H :    0.033307
  30 H :    0.016436
  31 H :    0.021361
  32 H :    0.029505
  33 H :    0.034739

  Mayer bond orders larger than 0.100000
B(  0-S ,  1-C ) :   1.1458 B(  0-S ,  4-C ) :   1.1532 B(  1-C ,  2-C ) :   1.5932
B(  1-C , 32-H ) :   0.9668 B(  2-C ,  3-C ) :   1.2405 B(  2-C ,  6-C ) :   1.0237
B(  3-C ,  4-C ) :   1.5613 B(  3-C ,  5-H ) :   0.9868 B(  4-C , 20-C ) :   1.0446
B(  6-C ,  7-H ) :   0.9368 B(  6-C ,  8-H ) :   0.9359 B(  6-C ,  9-C ) :   1.0738
B(  9-C , 10-H ) :   0.9580 B(  9-C , 11-H ) :   0.9573 B(  9-C , 12-C ) :   1.0706
B( 12-C , 13-H ) :   0.9744 B( 12-C , 14-H ) :   0.9776 B( 12-C , 15-H ) :   0.9754
B( 16-S , 17-C ) :   1.1618 B( 16-S , 20-C ) :   1.1260 B( 17-C , 18-C ) :   1.6054
B( 17-C , 33-H ) :   0.9649 B( 18-C , 19-C ) :   1.2466 B( 18-C , 21-H ) :   0.9791
B( 19-C , 20-C ) :   1.6122 B( 19-C , 22-C ) :   1.0286 B( 22-C , 23-H ) :   0.9384
B( 22-C , 24-H ) :   0.9368 B( 22-C , 25-C ) :   1.0632 B( 25-C , 26-H ) :   0.9576
B( 25-C , 27-H ) :   0.9553 B( 25-C , 28-C ) :   1.0701 B( 28-C , 29-H ) :   0.9676
B( 28-C , 30-H ) :   0.9641 B( 28-C , 31-H ) :   0.9651

Dispersion correction           -0.015714216
FINAL SINGLE POINT ENERGY     -1339.873719860077

DIPOLE MOMENT
-------------
                                X             Y             Z
Electronic contribution:    -17.67580      -4.71085      20.45543
Nuclear contribution   :     18.24435       4.63820     -20.80612
                        -----------------------------------------
Total Dipole Moment    :      0.56855      -0.07265      -0.35069
                        -----------------------------------------
Magnitude (a.u.)       :      0.67194
Magnitude (Debye)      :      1.70794

Rotational constants in cm-1:     0.020333     0.009476     0.007082
Rotational constants in MHz :   609.575860   284.069656   212.315188

                             ****ORCA TERMINATED NORMALLY****
TOTAL RUN TIME: 0 days 0 hours 0 minutes 36 seconds 568 msec
