                         Program Version 4.2.1 -  RELEASE  -
|  1> ! wB97X-D3 SP def2-SVP
|  2> %pal
|  3> nprocs 16
|  4> end
|  5>
|  6> * xyz 0 1
|  7> S 	 -2.09885 	 -8.50794 	 84.826
|  8> C 	 -1.60396 	 -10.1732 	 84.6501
|  9> C 	 -2.4026 	 -11.0037 	 85.4385
| 10> C 	 -3.27345 	 -10.2683 	 86.2781
| 11> C 	 -3.28466 	 -8.92072 	 86.0024
| 12> H 	 -4.09215 	 -10.7087 	 86.9511
| 13> C 	 -2.43713 	 -12.5197 	 85.5391
| 14> H 	 -2.77659 	 -12.664 	 86.541
| 15> H 	 -1.43767 	 -12.8694 	 85.3489
| 16> C 	 -3.22534 	 -13.2238 	 84.43
| 17> H 	 -4.24866 	 -12.7617 	 84.3513
| 18> H 	 -2.63361 	 -12.9786 	 83.5011
| 19> C 	 -3.43256 	 -14.7257 	 84.5992
| 20> H 	 -3.79896 	 -15.1142 	 83.6493
| 21> H 	 -2.48225 	 -15.1749 	 84.919
| 22> H 	 -4.1677 	 -14.9195 	 85.3361
| 23> S 	 -5.38572 	 -7.25135 	 85.6191
| 24> C 	 -6.1226 	 -6.25504 	 86.9107
| 25> C 	 -5.44643 	 -6.61297 	 88.0786
| 26> C 	 -4.37854 	 -7.60573 	 87.9577
| 27> C 	 -4.14998 	 -7.95041 	 86.6128
| 28> H 	 -5.77595 	 -6.1481 	 89.0254
| 29> C 	 -3.53162 	 -8.09295 	 89.1324
| 30> H 	 -2.87896 	 -7.29678 	 89.4657
| 31> H 	 -2.84176 	 -8.87023 	 88.8725
| 32> C 	 -4.41091 	 -8.82286 	 90.138
| 33> H 	 -4.9057 	 -9.64437 	 89.6534
| 34> H 	 -5.29358 	 -8.19515 	 90.2744
| 35> C 	 -3.85017 	 -9.23538 	 91.5065
| 36> H 	 -2.92645 	 -9.83637 	 91.2452
| 37> H 	 -4.45045 	 -9.86865 	 92.0846
| 38> H 	 -3.58248 	 -8.43445 	 92.0786
| 39> H 	 -0.845135 	 -10.5631 	 83.9865
| 40> H 	 -6.93169 	 -5.61079 	 86.8418
| 41> *
| 42>
| 43>                          ****END OF INPUT****

CARTESIAN COORDINATES (ANGSTROEM)
---------------------------------
  S     -2.098850   -8.507940   84.826000
  C     -1.603960  -10.173200   84.650100
  C     -2.402600  -11.003700   85.438500
  C     -3.273450  -10.268300   86.278100
  C     -3.284660   -8.920720   86.002400
  H     -4.092150  -10.708700   86.951100
  C     -2.437130  -12.519700   85.539100
  H     -2.776590  -12.664000   86.541000
  H     -1.437670  -12.869400   85.348900
  C     -3.225340  -13.223800   84.430000
  H     -4.248660  -12.761700   84.351300
  H     -2.633610  -12.978600   83.501100
  C     -3.432560  -14.725700   84.599200
  H     -3.798960  -15.114200   83.649300
  H     -2.482250  -15.174900   84.919000
  H     -4.167700  -14.919500   85.336100
  S     -5.385720   -7.251350   85.619100
  C     -6.122600   -6.255040   86.910700
  C     -5.446430   -6.612970   88.078600
  C     -4.378540   -7.605730   87.957700
  C     -4.149980   -7.950410   86.612800
  H     -5.775950   -6.148100   89.025400
  C     -3.531620   -8.092950   89.132400
  H     -2.878960   -7.296780   89.465700
  H     -2.841760   -8.870230   88.872500
  C     -4.410910   -8.822860   90.138000
  H     -4.905700   -9.644370   89.653400
  H     -5.293580   -8.195150   90.274400
  C     -3.850170   -9.235380   91.506500
  H     -2.926450   -9.836370   91.245200
  H     -4.450450   -9.868650   92.084600
  H     -3.582480   -8.434450   92.078600
  H     -0.845135  -10.563100   83.986500
  H     -6.931690   -5.610790   86.841800

 Total Charge           Charge          ....    0
 Multiplicity           Mult            ....    1
 Number of Electrons    NEL             ....  134
 Basis Dimension        Dim             ....  322

ORBITAL ENERGIES
----------------

  NO   OCC          E(Eh)            E(eV)
   0   2.0000     -88.970481     -2421.0099
   1   2.0000     -88.961993     -2420.7789
   2   2.0000     -10.327243      -281.0186
   3   2.0000     -10.325473      -280.9704
   4   2.0000     -10.319646      -280.8118
   5   2.0000     -10.315806      -280.7073
   6   2.0000     -10.309820      -280.5445
   7   2.0000     -10.302309      -280.3401
   8   2.0000     -10.300665      -280.2953
   9   2.0000     -10.296828      -280.1909
  10   2.0000     -10.291920      -280.0574
  11   2.0000     -10.288308      -279.9591
  12   2.0000     -10.287785      -279.9449
  13   2.0000     -10.281038      -279.7613
  14   2.0000     -10.277640      -279.6688
  15   2.0000     -10.271820      -279.5104
  16   2.0000      -8.085469      -220.0168
  17   2.0000      -8.076423      -219.7706
  18   2.0000      -6.043859      -164.4618
  19   2.0000      -6.039887      -164.3537
  20   2.0000      -6.036377      -164.2582
  21   2.0000      -6.035022      -164.2213
  22   2.0000      -6.030781      -164.1059
  23   2.0000      -6.027264      -164.0102
  24   2.0000      -1.010146       -27.4875
  25   2.0000      -0.981834       -26.7171
  26   2.0000      -0.914791       -24.8927
  27   2.0000      -0.909070       -24.7371
  28   2.0000      -0.872170       -23.7330
  29   2.0000      -0.853916       -23.2362
  30   2.0000      -0.843337       -22.9484
  31   2.0000      -0.814937       -22.1756
  32   2.0000      -0.785382       -21.3713
  33   2.0000      -0.776025       -21.1167
  34   2.0000      -0.707100       -19.2412
  35   2.0000      -0.703691       -19.1484
  36   2.0000      -0.694962       -18.9109
  37   2.0000      -0.657398       -17.8887
  38   2.0000      -0.640190       -17.4205
  39   2.0000      -0.620371       -16.8811
  40   2.0000      -0.600387       -16.3374
  41   2.0000      -0.566681       -15.4202
  42   2.0000      -0.566307       -15.4100
  43   2.0000      -0.557436       -15.1686
  44   2.0000      -0.529267       -14.4021
  45   2.0000      -0.526344       -14.3225
  46   2.0000      -0.523844       -14.2545
  47   2.0000      -0.519091       -14.1252
  48   2.0000      -0.513544       -13.9743
  49   2.0000      -0.503089       -13.6898
  50   2.0000      -0.497513       -13.5380
  51   2.0000      -0.477434       -12.9916
  52   2.0000      -0.473976       -12.8975
  53   2.0000      -0.466226       -12.6867
  54   2.0000      -0.460308       -12.5256
  55   2.0000      -0.449511       -12.2318
  56   2.0000      -0.446966       -12.1626
  57   2.0000      -0.438488       -11.9319
  58   2.0000      -0.433138       -11.7863
  59   2.0000      -0.423882       -11.5344
  60   2.0000      -0.416450       -11.3322
  61   2.0000      -0.411098       -11.1866
  62   2.0000      -0.400983       -10.9113
  63   2.0000      -0.342654        -9.3241
  64   2.0000      -0.332235        -9.0406
  65   2.0000      -0.324382        -8.8269
  66   2.0000      -0.299860        -8.1596
  67   0.0000       0.033832         0.9206
  68   0.0000       0.063589         1.7303
  69   0.0000       0.119260         3.2452
  70   0.0000       0.120997         3.2925
  71   0.0000       0.122849         3.3429

MULLIKEN ATOMIC CHARGES
-----------------------
   0 S :    0.136528
   1 C :   -0.121536
   2 C :   -0.113522
   3 C :    0.010180
   4 C :   -0.177571
   5 H :    0.048675
   6 C :    0.107402
   7 H :    0.017761
   8 H :    0.012659
   9 C :   -0.124717
  10 H :    0.034486
  11 H :    0.032194
  12 C :   -0.002494
  13 H :    0.039870
  14 H :    0.026912
  15 H :    0.025766
  16 S :    0.092967
  17 C :   -0.069467
  18 C :   -0.049827
  19 C :   -0.050103
  20 C :   -0.149887
  21 H :    0.034135
  22 C :    0.112210
  23 H :    0.037997
  24 H :    0.011940
  25 C :   -0.114057
  26 H :    0.012629
  27 H :    0.007556
  28 C :    0.026676
  29 H :    0.023510
  30 H :    0.023631
  31 H :    0.015802
  32 H :    0.043847
  33 H :    0.037849
Sum of atomic charges:    0.0000000

LOEWDIN ATOMIC CHARGES
----------------------
   0 S :    0.435169
   1 C :   -0.205884
   2 C :   -0.060188
   3 C :   -0.071566
   4 C :   -0.213570
   5 H :    0.046794
   6 C :   -0.029714
   7 H :    0.024949
   8 H :    0.027903
   9 C :   -0.044556
  10 H :    0.025926
  11 H :    0.027602
  12 C :   -0.059808
  13 H :    0.030993
  14 H :    0.024999
  15 H :    0.020675
  16 S :    0.399353
  17 C :   -0.169771
  18 C :   -0.070253
  19 C :   -0.054679
  20 C :   -0.204306
  21 H :    0.033051
  22 C :   -0.029552
  23 H :    0.032673
  24 H :    0.027518
  25 C :   -0.044980
  26 H :    0.022301
  27 H :    0.015985
  28 C :   -0.051700
  29 H :    0.032074
  30 H :    0.021341
  31 H :    0.012871
  32 H :    0.028544
  33 H :    0.019808

  Mayer bond orders larger than 0.100000
B(  0-S ,  1-C ) :   1.1445 B(  0-S ,  4-C ) :   1.1727 B(  1-C ,  2-C ) :   1.5904
B(  1-C ,  4-C ) :   0.1021 B(  1-C , 32-H ) :   0.9716 B(  2-C ,  3-C ) :   1.2718
B(  2-C ,  6-C ) :   1.0227 B(  3-C ,  4-C ) :   1.5680 B(  3-C ,  5-H ) :   0.9744
B(  4-C , 20-C ) :   1.0175 B(  6-C ,  7-H ) :   0.9418 B(  6-C ,  8-H ) :   0.9296
B(  6-C ,  9-C ) :   1.0604 B(  9-C , 10-H ) :   0.9574 B(  9-C , 11-H ) :   0.9565
B(  9-C , 12-C ) :   1.0823 B( 12-C , 13-H ) :   0.9727 B( 12-C , 14-H ) :   0.9723
B( 12-C , 15-H ) :   0.9750 B( 16-S , 17-C ) :   1.1378 B( 16-S , 20-C ) :   1.1634
B( 17-C , 18-C ) :   1.6062 B( 17-C , 20-C ) :   0.1055 B( 17-C , 33-H ) :   0.9833
B( 18-C , 19-C ) :   1.2311 B( 18-C , 21-H ) :   0.9790 B( 19-C , 20-C ) :   1.5764
B( 19-C , 22-C ) :   1.0496 B( 22-C , 23-H ) :   0.9420 B( 22-C , 24-H ) :   0.9284
B( 22-C , 25-C ) :   1.0385 B( 25-C , 26-H ) :   0.9498 B( 25-C , 27-H ) :   0.9610
B( 25-C , 28-C ) :   1.0790 B( 28-C , 29-H ) :   0.9712 B( 28-C , 30-H ) :   0.9727
B( 28-C , 31-H ) :   0.9747

Dispersion correction           -0.013819754
FINAL SINGLE POINT ENERGY     -1339.867787341599

DIPOLE MOMENT
-------------
                                X             Y             Z
Electronic contribution:     -0.51526      22.62689     -15.02268
Nuclear contribution   :      0.44437     -23.11277      15.42125
                        -----------------------------------------
Total Dipole Moment    :     -0.07088      -0.48588       0.39856
                        -----------------------------------------
Magnitude (a.u.)       :      0.63242
Magnitude (Debye)      :      1.60749

Rotational constants in cm-1:     0.016986     0.008103     0.006606
Rotational constants in MHz :   509.216460   242.910296   198.048584

                             ****ORCA TERMINATED NORMALLY****
TOTAL RUN TIME: 0 days 0 hours 0 minutes 30 seconds 981 msec
