                         Program Version 4.2.1 -  RELEASE  -
|  1> ! wB97X-D3 SP def2-SVP
|  2> %pal
|  3> nprocs 16
|  4> end
|  5>
|  6> * xyz 0 1
|  7> S 	 37.7555 	 25.7079 	 47.72
|  8> C 	 38.8718 	 27.1046 	 47.797
|  9> C 	 40.1881 	 26.6016 	 48.1008
| 10> C 	 40.2975 	 25.1464 	 48.1814
| 11> C 	 39.1189 	 24.5555 	 47.8678
| 12> H 	 41.1855 	 24.6076 	 48.4914
| 13> C 	 41.3845 	 27.496 	 48.449
| 14> H 	 41.1423 	 28.5038 	 48.7797
| 15> H 	 41.8931 	 27.6087 	 47.5294
| 16> C 	 42.4935 	 26.8824 	 49.4148
| 17> H 	 42.0217 	 26.6366 	 50.344
| 18> H 	 42.8797 	 25.9922 	 48.9749
| 19> C 	 43.7204 	 27.7445 	 49.7006
| 20> H 	 44.4068 	 27.7895 	 48.8498
| 21> H 	 43.4627 	 28.7461 	 50.0192
| 22> H 	 44.323 	 27.267 	 50.5111
| 23> S 	 39.9868 	 22.2641 	 46.4934
| 24> C 	 39.0641 	 20.821 	 46.6724
| 25> C 	 38.2927 	 20.8862 	 47.7787
| 26> C 	 38.0244 	 22.2102 	 48.3051
| 27> C 	 38.9508 	 23.1237 	 47.7398
| 28> H 	 37.6602 	 20.0657 	 48.0163
| 29> C 	 36.8727 	 22.4943 	 49.2742
| 30> H 	 36.9299 	 23.5335 	 49.6004
| 31> H 	 37.0767 	 21.8913 	 50.1487
| 32> C 	 35.5039 	 22.158 	 48.6681
| 33> H 	 34.718 	 22.0318 	 49.443
| 34> H 	 35.5336 	 21.1379 	 48.2818
| 35> C 	 35.0248 	 22.8625 	 47.3536
| 36> H 	 35.7381 	 22.7713 	 46.6024
| 37> H 	 34.9535 	 23.9319 	 47.4221
| 38> H 	 34.0434 	 22.5865 	 47.0386
| 39> H 	 38.5718 	 28.1753 	 47.7467
| 40> H 	 39.0963 	 19.9158 	 46.0754
| 41> *
| 42>
| 43>                          ****END OF INPUT****

CARTESIAN COORDINATES (ANGSTROEM)
---------------------------------
  S     37.755500   25.707900   47.720000
  C     38.871800   27.104600   47.797000
  C     40.188100   26.601600   48.100800
  C     40.297500   25.146400   48.181400
  C     39.118900   24.555500   47.867800
  H     41.185500   24.607600   48.491400
  C     41.384500   27.496000   48.449000
  H     41.142300   28.503800   48.779700
  H     41.893100   27.608700   47.529400
  C     42.493500   26.882400   49.414800
  H     42.021700   26.636600   50.344000
  H     42.879700   25.992200   48.974900
  C     43.720400   27.744500   49.700600
  H     44.406800   27.789500   48.849800
  H     43.462700   28.746100   50.019200
  H     44.323000   27.267000   50.511100
  S     39.986800   22.264100   46.493400
  C     39.064100   20.821000   46.672400
  C     38.292700   20.886200   47.778700
  C     38.024400   22.210200   48.305100
  C     38.950800   23.123700   47.739800
  H     37.660200   20.065700   48.016300
  C     36.872700   22.494300   49.274200
  H     36.929900   23.533500   49.600400
  H     37.076700   21.891300   50.148700
  C     35.503900   22.158000   48.668100
  H     34.718000   22.031800   49.443000
  H     35.533600   21.137900   48.281800
  C     35.024800   22.862500   47.353600
  H     35.738100   22.771300   46.602400
  H     34.953500   23.931900   47.422100
  H     34.043400   22.586500   47.038600
  H     38.571800   28.175300   47.746700
  H     39.096300   19.915800   46.075400

 Total Charge           Charge          ....    0
 Multiplicity           Mult            ....    1
 Number of Electrons    NEL             ....  134
 Basis Dimension        Dim             ....  322

ORBITAL ENERGIES
----------------

  NO   OCC          E(Eh)            E(eV)
   0   2.0000     -88.968015     -2420.9428
   1   2.0000     -88.964345     -2420.8429
   2   2.0000     -10.332317      -281.1566
   3   2.0000     -10.330533      -281.1081
   4   2.0000     -10.324909      -280.9551
   5   2.0000     -10.315759      -280.7061
   6   2.0000     -10.313096      -280.6336
   7   2.0000     -10.311431      -280.5883
   8   2.0000     -10.297125      -280.1990
   9   2.0000     -10.294852      -280.1372
  10   2.0000     -10.290825      -280.0276
  11   2.0000     -10.290763      -280.0259
  12   2.0000     -10.287928      -279.9488
  13   2.0000     -10.285777      -279.8902
  14   2.0000     -10.281824      -279.7827
  15   2.0000     -10.266995      -279.3791
  16   2.0000      -8.080895      -219.8923
  17   2.0000      -8.078474      -219.8265
  18   2.0000      -6.039696      -164.3485
  19   2.0000      -6.037115      -164.2783
  20   2.0000      -6.035741      -164.2409
  21   2.0000      -6.033175      -164.1710
  22   2.0000      -6.031384      -164.1223
  23   2.0000      -6.028991      -164.0572
  24   2.0000      -0.997486       -27.1430
  25   2.0000      -0.974322       -26.5126
  26   2.0000      -0.906262       -24.6606
  27   2.0000      -0.903177       -24.5767
  28   2.0000      -0.868029       -23.6203
  29   2.0000      -0.846179       -23.0257
  30   2.0000      -0.842024       -22.9126
  31   2.0000      -0.812977       -22.1222
  32   2.0000      -0.788916       -21.4675
  33   2.0000      -0.766997       -20.8711
  34   2.0000      -0.712149       -19.3786
  35   2.0000      -0.702049       -19.1037
  36   2.0000      -0.688870       -18.7451
  37   2.0000      -0.657640       -17.8953
  38   2.0000      -0.632087       -17.2000
  39   2.0000      -0.616578       -16.7779
  40   2.0000      -0.597485       -16.2584
  41   2.0000      -0.570221       -15.5165
  42   2.0000      -0.558536       -15.1985
  43   2.0000      -0.554610       -15.0917
  44   2.0000      -0.535211       -14.5638
  45   2.0000      -0.519393       -14.1334
  46   2.0000      -0.516486       -14.0543
  47   2.0000      -0.508715       -13.8428
  48   2.0000      -0.501389       -13.6435
  49   2.0000      -0.495239       -13.4761
  50   2.0000      -0.491480       -13.3739
  51   2.0000      -0.478131       -13.0106
  52   2.0000      -0.471462       -12.8291
  53   2.0000      -0.465245       -12.6600
  54   2.0000      -0.461508       -12.5583
  55   2.0000      -0.452512       -12.3135
  56   2.0000      -0.447693       -12.1823
  57   2.0000      -0.441631       -12.0174
  58   2.0000      -0.431395       -11.7388
  59   2.0000      -0.423176       -11.5152
  60   2.0000      -0.417887       -11.3713
  61   2.0000      -0.412761       -11.2318
  62   2.0000      -0.403385       -10.9767
  63   2.0000      -0.346961        -9.4413
  64   2.0000      -0.329321        -8.9613
  65   2.0000      -0.325196        -8.8490
  66   2.0000      -0.287506        -7.8234
  67   0.0000       0.029943         0.8148
  68   0.0000       0.057499         1.5646
  69   0.0000       0.094714         2.5773
  70   0.0000       0.114015         3.1025
  71   0.0000       0.129464         3.5229

MULLIKEN ATOMIC CHARGES
-----------------------
   0 S :    0.101206
   1 C :   -0.143637
   2 C :   -0.082965
   3 C :   -0.003306
   4 C :   -0.110051
   5 H :    0.029754
   6 C :    0.070148
   7 H :    0.022016
   8 H :    0.026172
   9 C :   -0.094902
  10 H :    0.033485
  11 H :    0.027685
  12 C :   -0.052230
  13 H :    0.031813
  14 H :    0.030084
  15 H :    0.038814
  16 S :    0.101268
  17 C :   -0.088211
  18 C :   -0.012123
  19 C :   -0.085558
  20 C :   -0.169763
  21 H :    0.007957
  22 C :    0.122497
  23 H :    0.025219
  24 H :    0.034234
  25 C :   -0.102585
  26 H :    0.032877
  27 H :    0.018788
  28 C :   -0.005900
  29 H :    0.024578
  30 H :    0.011736
  31 H :    0.027444
  32 H :    0.071105
  33 H :    0.062351
Sum of atomic charges:    0.0000000

LOEWDIN ATOMIC CHARGES
----------------------
   0 S :    0.378303
   1 C :   -0.207040
   2 C :   -0.047382
   3 C :   -0.068262
   4 C :   -0.176119
   5 H :    0.036851
   6 C :   -0.032954
   7 H :    0.026239
   8 H :    0.029155
   9 C :   -0.036784
  10 H :    0.020596
  11 H :    0.018632
  12 C :   -0.064134
  13 H :    0.024394
  14 H :    0.020903
  15 H :    0.034604
  16 S :    0.380216
  17 C :   -0.184967
  18 C :   -0.075249
  19 C :   -0.044303
  20 C :   -0.177837
  21 H :    0.021610
  22 C :   -0.027504
  23 H :    0.025956
  24 H :    0.038328
  25 C :   -0.045902
  26 H :    0.027441
  27 H :    0.023711
  28 C :   -0.058113
  29 H :    0.019535
  30 H :    0.017687
  31 H :    0.026341
  32 H :    0.039538
  33 H :    0.036510

  Mayer bond orders larger than 0.100000
B(  0-S ,  1-C ) :   1.1098 B(  0-S ,  4-C ) :   1.1270 B(  1-C ,  2-C ) :   1.6138
B(  1-C , 32-H ) :   0.9690 B(  2-C ,  3-C ) :   1.2161 B(  2-C ,  6-C ) :   1.0186
B(  3-C ,  4-C ) :   1.5787 B(  3-C ,  5-H ) :   0.9916 B(  4-C , 20-C ) :   1.0664
B(  6-C ,  7-H ) :   0.9521 B(  6-C ,  8-H ) :   0.9297 B(  6-C ,  9-C ) :   1.0673
B(  9-C , 10-H ) :   0.9632 B(  9-C , 11-H ) :   0.9457 B(  9-C , 12-C ) :   1.0925
B( 12-C , 13-H ) :   0.9759 B( 12-C , 14-H ) :   0.9754 B( 12-C , 15-H ) :   0.9720
B( 16-S , 17-C ) :   1.1443 B( 16-S , 20-C ) :   1.1107 B( 17-C , 18-C ) :   1.6519
B( 17-C , 33-H ) :   0.9631 B( 18-C , 19-C ) :   1.2139 B( 18-C , 21-H ) :   0.9786
B( 19-C , 20-C ) :   1.5917 B( 19-C , 22-C ) :   1.0417 B( 22-C , 23-H ) :   0.9346
B( 22-C , 24-H ) :   0.9288 B( 22-C , 25-C ) :   1.0662 B( 25-C , 26-H ) :   0.9576
B( 25-C , 27-H ) :   0.9561 B( 25-C , 28-C ) :   1.0589 B( 28-C , 29-H ) :   0.9738
B( 28-C , 30-H ) :   0.9733 B( 28-C , 31-H ) :   0.9735

Dispersion correction           -0.014689154
FINAL SINGLE POINT ENERGY     -1339.860364632013

DIPOLE MOMENT
-------------
                                X             Y             Z
Electronic contribution:     -2.21335      -6.57286      -9.54260
Nuclear contribution   :      2.26836       6.50454       9.83014
                        -----------------------------------------
Total Dipole Moment    :      0.05502      -0.06832       0.28754
                        -----------------------------------------
Magnitude (a.u.)       :      0.30062
Magnitude (Debye)      :      0.76412

Rotational constants in cm-1:     0.022523     0.007655     0.006424
Rotational constants in MHz :   675.217018   229.477530   192.596728

                             ****ORCA TERMINATED NORMALLY****
TOTAL RUN TIME: 0 days 0 hours 0 minutes 33 seconds 695 msec
