                         Program Version 4.2.1 -  RELEASE  -
|  1> ! wB97X-D3 SP def2-SVP
|  2> %pal
|  3> nprocs 16
|  4> end
|  5>
|  6> * xyz 0 1
|  7> S 	 -33.0449 	 76.1068 	 149.673
|  8> C 	 -32.004 	 76.8803 	 150.744
|  9> C 	 -30.9181 	 76.0227 	 151.05
| 10> C 	 -31.0884 	 74.6854 	 150.499
| 11> C 	 -32.2188 	 74.5928 	 149.7
| 12> H 	 -30.5118 	 73.8035 	 150.697
| 13> C 	 -29.7693 	 76.4044 	 151.943
| 14> H 	 -29.3868 	 75.4857 	 152.269
| 15> H 	 -30.1594 	 76.8332 	 152.816
| 16> C 	 -28.6371 	 77.1664 	 151.277
| 17> H 	 -28.3608 	 76.4978 	 150.426
| 18> H 	 -29.1311 	 78.0697 	 150.87
| 19> C 	 -27.3615 	 77.5382 	 152.083
| 20> H 	 -27.6132 	 78.1563 	 152.935
| 21> H 	 -26.9887 	 76.6838 	 152.562
| 22> H 	 -26.6715 	 78.2445 	 151.579
| 23> S 	 -33.6976 	 73.8809 	 147.348
| 24> C 	 -33.871 	 72.1749 	 146.927
| 25> C 	 -33.4198 	 71.4259 	 148.007
| 26> C 	 -32.8598 	 72.1535 	 149.108
| 27> C 	 -32.7563 	 73.4814 	 148.859
| 28> H 	 -33.5476 	 70.3782 	 148.071
| 29> C 	 -32.5916 	 71.5782 	 150.422
| 30> H 	 -31.5589 	 71.6052 	 150.581
| 31> H 	 -32.8322 	 70.5265 	 150.445
| 32> C 	 -33.2468 	 72.2615 	 151.701
| 33> H 	 -34.3464 	 72.153 	 151.584
| 34> H 	 -33.053 	 73.3159 	 151.812
| 35> C 	 -32.8219 	 71.5872 	 153.025
| 36> H 	 -33.4129 	 71.9687 	 153.867
| 37> H 	 -31.7848 	 71.9054 	 153.057
| 38> H 	 -32.8976 	 70.5289 	 152.969
| 39> H 	 -32.0216 	 77.8992 	 151.105
| 40> H 	 -34.3692 	 71.765 	 146.066
| 41> *
| 42>
| 43>                          ****END OF INPUT****

CARTESIAN COORDINATES (ANGSTROEM)
---------------------------------
  S    -33.044900   76.106800  149.673000
  C    -32.004000   76.880300  150.744000
  C    -30.918100   76.022700  151.050000
  C    -31.088400   74.685400  150.499000
  C    -32.218800   74.592800  149.700000
  H    -30.511800   73.803500  150.697000
  C    -29.769300   76.404400  151.943000
  H    -29.386800   75.485700  152.269000
  H    -30.159400   76.833200  152.816000
  C    -28.637100   77.166400  151.277000
  H    -28.360800   76.497800  150.426000
  H    -29.131100   78.069700  150.870000
  C    -27.361500   77.538200  152.083000
  H    -27.613200   78.156300  152.935000
  H    -26.988700   76.683800  152.562000
  H    -26.671500   78.244500  151.579000
  S    -33.697600   73.880900  147.348000
  C    -33.871000   72.174900  146.927000
  C    -33.419800   71.425900  148.007000
  C    -32.859800   72.153500  149.108000
  C    -32.756300   73.481400  148.859000
  H    -33.547600   70.378200  148.071000
  C    -32.591600   71.578200  150.422000
  H    -31.558900   71.605200  150.581000
  H    -32.832200   70.526500  150.445000
  C    -33.246800   72.261500  151.701000
  H    -34.346400   72.153000  151.584000
  H    -33.053000   73.315900  151.812000
  C    -32.821900   71.587200  153.025000
  H    -33.412900   71.968700  153.867000
  H    -31.784800   71.905400  153.057000
  H    -32.897600   70.528900  152.969000
  H    -32.021600   77.899200  151.105000
  H    -34.369200   71.765000  146.066000

 Total Charge           Charge          ....    0
 Multiplicity           Mult            ....    1
 Number of Electrons    NEL             ....  134
 Basis Dimension        Dim             ....  322

ORBITAL ENERGIES
----------------

  NO   OCC          E(Eh)            E(eV)
   0   2.0000     -88.967828     -2420.9377
   1   2.0000     -88.964475     -2420.8464
   2   2.0000     -10.333465      -281.1879
   3   2.0000     -10.332024      -281.1487
   4   2.0000     -10.322814      -280.8981
   5   2.0000     -10.313513      -280.6450
   6   2.0000     -10.306322      -280.4493
   7   2.0000     -10.299328      -280.2590
   8   2.0000     -10.298022      -280.2234
   9   2.0000     -10.293713      -280.1062
  10   2.0000     -10.290000      -280.0051
  11   2.0000     -10.287655      -279.9413
  12   2.0000     -10.285067      -279.8709
  13   2.0000     -10.280060      -279.7347
  14   2.0000     -10.278842      -279.7015
  15   2.0000     -10.275627      -279.6140
  16   2.0000      -8.083899      -219.9741
  17   2.0000      -8.077910      -219.8111
  18   2.0000      -6.042259      -164.4182
  19   2.0000      -6.037983      -164.3019
  20   2.0000      -6.036687      -164.2666
  21   2.0000      -6.034960      -164.2196
  22   2.0000      -6.032724      -164.1588
  23   2.0000      -6.028334      -164.0393
  24   2.0000      -1.009713       -27.4757
  25   2.0000      -0.985486       -26.8164
  26   2.0000      -0.914006       -24.8714
  27   2.0000      -0.908376       -24.7182
  28   2.0000      -0.866345       -23.5744
  29   2.0000      -0.854084       -23.2408
  30   2.0000      -0.848770       -23.0962
  31   2.0000      -0.818211       -22.2647
  32   2.0000      -0.784634       -21.3510
  33   2.0000      -0.774638       -21.0790
  34   2.0000      -0.706824       -19.2336
  35   2.0000      -0.704447       -19.1690
  36   2.0000      -0.690602       -18.7922
  37   2.0000      -0.668649       -18.1949
  38   2.0000      -0.646949       -17.6044
  39   2.0000      -0.617950       -16.8153
  40   2.0000      -0.598299       -16.2806
  41   2.0000      -0.573554       -15.6072
  42   2.0000      -0.569871       -15.5070
  43   2.0000      -0.558580       -15.1997
  44   2.0000      -0.526145       -14.3171
  45   2.0000      -0.525081       -14.2882
  46   2.0000      -0.524186       -14.2638
  47   2.0000      -0.521190       -14.1823
  48   2.0000      -0.509315       -13.8592
  49   2.0000      -0.506783       -13.7903
  50   2.0000      -0.493033       -13.4161
  51   2.0000      -0.487901       -13.2765
  52   2.0000      -0.479186       -13.0393
  53   2.0000      -0.465453       -12.6656
  54   2.0000      -0.454864       -12.3775
  55   2.0000      -0.447163       -12.1679
  56   2.0000      -0.444362       -12.0917
  57   2.0000      -0.436063       -11.8659
  58   2.0000      -0.430622       -11.7178
  59   2.0000      -0.421896       -11.4804
  60   2.0000      -0.419341       -11.4108
  61   2.0000      -0.416246       -11.3266
  62   2.0000      -0.409553       -11.1445
  63   2.0000      -0.355976        -9.6866
  64   2.0000      -0.331675        -9.0253
  65   2.0000      -0.325753        -8.8642
  66   2.0000      -0.287735        -7.8297
  67   0.0000       0.022452         0.6109
  68   0.0000       0.071059         1.9336
  69   0.0000       0.103770         2.8237
  70   0.0000       0.118519         3.2251
  71   0.0000       0.135497         3.6871

MULLIKEN ATOMIC CHARGES
-----------------------
   0 S :    0.123165
   1 C :   -0.093729
   2 C :   -0.158223
   3 C :    0.032449
   4 C :   -0.158998
   5 H :    0.005112
   6 C :    0.131684
   7 H :   -0.015818
   8 H :    0.009573
   9 C :   -0.096040
  10 H :    0.036000
  11 H :    0.024062
  12 C :   -0.002460
  13 H :    0.009021
  14 H :    0.019918
  15 H :    0.048372
  16 S :    0.079764
  17 C :   -0.078148
  18 C :   -0.011453
  19 C :   -0.029917
  20 C :   -0.124108
  21 H :   -0.000165
  22 C :    0.081444
  23 H :    0.007798
  24 H :    0.007412
  25 C :   -0.108768
  26 H :    0.032174
  27 H :    0.054462
  28 C :   -0.031305
  29 H :    0.045551
  30 H :    0.024325
  31 H :    0.024837
  32 H :    0.050510
  33 H :    0.061498
Sum of atomic charges:   -0.0000000

LOEWDIN ATOMIC CHARGES
----------------------
   0 S :    0.452847
   1 C :   -0.224277
   2 C :   -0.055399
   3 C :   -0.068721
   4 C :   -0.194943
   5 H :    0.028087
   6 C :   -0.032989
   7 H :    0.019655
   8 H :    0.021880
   9 C :   -0.041154
  10 H :    0.030097
  11 H :    0.022555
  12 C :   -0.068768
  13 H :    0.024226
  14 H :    0.019309
  15 H :    0.037834
  16 S :    0.361321
  17 C :   -0.173312
  18 C :   -0.064131
  19 C :   -0.063225
  20 C :   -0.167412
  21 H :    0.022177
  22 C :   -0.030450
  23 H :    0.022501
  24 H :    0.030204
  25 C :   -0.034686
  26 H :    0.022399
  27 H :    0.023567
  28 C :   -0.059170
  29 H :    0.031849
  30 H :    0.024660
  31 H :    0.016874
  32 H :    0.033078
  33 H :    0.033516

  Mayer bond orders larger than 0.100000
B(  0-S ,  1-C ) :   1.1649 B(  0-S ,  4-C ) :   1.1787 B(  1-C ,  2-C ) :   1.5648
B(  1-C , 32-H ) :   0.9712 B(  2-C ,  3-C ) :   1.2677 B(  2-C ,  6-C ) :   1.0327
B(  3-C ,  4-C ) :   1.5410 B(  3-C ,  5-H ) :   0.9966 B(  4-C , 20-C ) :   1.0403
B(  6-C ,  7-H ) :   0.9243 B(  6-C ,  8-H ) :   0.9341 B(  6-C ,  9-C ) :   1.0556
B(  9-C , 10-H ) :   0.9552 B(  9-C , 11-H ) :   0.9597 B(  9-C , 12-C ) :   1.0792
B( 12-C , 13-H ) :   0.9684 B( 12-C , 14-H ) :   0.9724 B( 12-C , 15-H ) :   0.9732
B( 16-S , 17-C ) :   1.1402 B( 16-S , 20-C ) :   1.1092 B( 17-C , 18-C ) :   1.6036
B( 17-C , 33-H ) :   0.9718 B( 18-C , 19-C ) :   1.2448 B( 18-C , 21-H ) :   0.9894
B( 19-C , 20-C ) :   1.6064 B( 19-C , 22-C ) :   1.0574 B( 22-C , 23-H ) :   0.9171
B( 22-C , 24-H ) :   0.9270 B( 22-C , 25-C ) :   1.0499 B( 25-C , 26-H ) :   0.9583
B( 25-C , 27-H ) :   0.9561 B( 25-C , 28-C ) :   1.0762 B( 28-C , 29-H ) :   0.9733
B( 28-C , 30-H ) :   0.9786 B( 28-C , 31-H ) :   0.9772

Dispersion correction           -0.014482893
FINAL SINGLE POINT ENERGY     -1339.864478371016

DIPOLE MOMENT
-------------
                                X             Y             Z
Electronic contribution:    -17.27807       2.31476     -22.26446
Nuclear contribution   :     17.51215      -2.59101      22.82914
                        -----------------------------------------
Total Dipole Moment    :      0.23408      -0.27625       0.56468
                        -----------------------------------------
Magnitude (a.u.)       :      0.67080
Magnitude (Debye)      :      1.70503

Rotational constants in cm-1:     0.020214     0.008006     0.006632
Rotational constants in MHz :   606.006634   240.002989   198.819615

                             ****ORCA TERMINATED NORMALLY****
TOTAL RUN TIME: 0 days 0 hours 0 minutes 32 seconds 871 msec
