                         Program Version 4.2.1 -  RELEASE  -
|  1> ! wB97X-D3 SP def2-SVP
|  2> %pal
|  3> nprocs 16
|  4> end
|  5>
|  6> * xyz 0 1
|  7> S 	 -61.3726 	 57.0019 	 126.971
|  8> C 	 -62.8007 	 56.5826 	 127.848
|  9> C 	 -63.4541 	 55.5098 	 127.268
| 10> C 	 -62.6338 	 54.8825 	 126.272
| 11> C 	 -61.421 	 55.5813 	 126.078
| 12> H 	 -62.8998 	 53.9147 	 125.773
| 13> C 	 -64.7687 	 55.0424 	 127.782
| 14> H 	 -65.0797 	 55.591 	 128.625
| 15> H 	 -64.6079 	 54.0011 	 128.111
| 16> C 	 -65.9112 	 55.1626 	 126.879
| 17> H 	 -66.0447 	 56.2426 	 126.624
| 18> H 	 -65.7177 	 54.6454 	 125.951
| 19> C 	 -67.2063 	 54.5436 	 127.389
| 20> H 	 -68.0304 	 54.4556 	 126.648
| 21> H 	 -66.9911 	 53.5371 	 127.75
| 22> H 	 -67.5087 	 55.1338 	 128.232
| 23> S 	 -58.8498 	 56.2971 	 125.162
| 24> C 	 -58.0878 	 55.4081 	 123.915
| 25> C 	 -58.88 	 54.3828 	 123.536
| 26> C 	 -60.0519 	 54.1806 	 124.316
| 27> C 	 -60.3006 	 55.2831 	 125.167
| 28> H 	 -58.5929 	 53.6394 	 122.756
| 29> C 	 -60.9286 	 52.9585 	 124.08
| 30> H 	 -60.8106 	 52.5605 	 123.052
| 31> H 	 -61.9059 	 53.4276 	 124.084
| 32> C 	 -60.7432 	 51.796 	 125.11
| 33> H 	 -60.9001 	 52.2654 	 126.073
| 34> H 	 -59.6574 	 51.5223 	 125.063
| 35> C 	 -61.5479 	 50.5214 	 124.847
| 36> H 	 -62.599 	 50.7451 	 125.05
| 37> H 	 -61.1836 	 49.725 	 125.481
| 38> H 	 -61.4602 	 50.2641 	 123.826
| 39> H 	 -63.2176 	 57.2358 	 128.667
| 40> H 	 -57.1903 	 55.6215 	 123.462
| 41> *
| 42>
| 43>                          ****END OF INPUT****

CARTESIAN COORDINATES (ANGSTROEM)
---------------------------------
  S    -61.372600   57.001900  126.971000
  C    -62.800700   56.582600  127.848000
  C    -63.454100   55.509800  127.268000
  C    -62.633800   54.882500  126.272000
  C    -61.421000   55.581300  126.078000
  H    -62.899800   53.914700  125.773000
  C    -64.768700   55.042400  127.782000
  H    -65.079700   55.591000  128.625000
  H    -64.607900   54.001100  128.111000
  C    -65.911200   55.162600  126.879000
  H    -66.044700   56.242600  126.624000
  H    -65.717700   54.645400  125.951000
  C    -67.206300   54.543600  127.389000
  H    -68.030400   54.455600  126.648000
  H    -66.991100   53.537100  127.750000
  H    -67.508700   55.133800  128.232000
  S    -58.849800   56.297100  125.162000
  C    -58.087800   55.408100  123.915000
  C    -58.880000   54.382800  123.536000
  C    -60.051900   54.180600  124.316000
  C    -60.300600   55.283100  125.167000
  H    -58.592900   53.639400  122.756000
  C    -60.928600   52.958500  124.080000
  H    -60.810600   52.560500  123.052000
  H    -61.905900   53.427600  124.084000
  C    -60.743200   51.796000  125.110000
  H    -60.900100   52.265400  126.073000
  H    -59.657400   51.522300  125.063000
  C    -61.547900   50.521400  124.847000
  H    -62.599000   50.745100  125.050000
  H    -61.183600   49.725000  125.481000
  H    -61.460200   50.264100  123.826000
  H    -63.217600   57.235800  128.667000
  H    -57.190300   55.621500  123.462000

 Total Charge           Charge          ....    0
 Multiplicity           Mult            ....    1
 Number of Electrons    NEL             ....  134
 Basis Dimension        Dim             ....  322

ORBITAL ENERGIES
----------------

  NO   OCC          E(Eh)            E(eV)
   0   2.0000     -88.966733     -2420.9079
   1   2.0000     -88.965583     -2420.8766
   2   2.0000     -10.333856      -281.1985
   3   2.0000     -10.333730      -281.1951
   4   2.0000     -10.313974      -280.6575
   5   2.0000     -10.307928      -280.4930
   6   2.0000     -10.303726      -280.3786
   7   2.0000     -10.302329      -280.3406
   8   2.0000     -10.301558      -280.3196
   9   2.0000     -10.294559      -280.1292
  10   2.0000     -10.289885      -280.0020
  11   2.0000     -10.289835      -280.0006
  12   2.0000     -10.283932      -279.8400
  13   2.0000     -10.280603      -279.7494
  14   2.0000     -10.278975      -279.7051
  15   2.0000     -10.277908      -279.6761
  16   2.0000      -8.083363      -219.9595
  17   2.0000      -8.080653      -219.8857
  18   2.0000      -6.041646      -164.4015
  19   2.0000      -6.039261      -164.3366
  20   2.0000      -6.037660      -164.2931
  21   2.0000      -6.035049      -164.2220
  22   2.0000      -6.034198      -164.1989
  23   2.0000      -6.031357      -164.1216
  24   2.0000      -1.014747       -27.6127
  25   2.0000      -0.992080       -26.9959
  26   2.0000      -0.928363       -25.2620
  27   2.0000      -0.907422       -24.6922
  28   2.0000      -0.873264       -23.7627
  29   2.0000      -0.856229       -23.2992
  30   2.0000      -0.845982       -23.0203
  31   2.0000      -0.816056       -22.2060
  32   2.0000      -0.786816       -21.4104
  33   2.0000      -0.775265       -21.0960
  34   2.0000      -0.709030       -19.2937
  35   2.0000      -0.697500       -18.9800
  36   2.0000      -0.692371       -18.8404
  37   2.0000      -0.661286       -17.9945
  38   2.0000      -0.637654       -17.3515
  39   2.0000      -0.626005       -17.0345
  40   2.0000      -0.596818       -16.2402
  41   2.0000      -0.576731       -15.6936
  42   2.0000      -0.569412       -15.4945
  43   2.0000      -0.563953       -15.3459
  44   2.0000      -0.531124       -14.4526
  45   2.0000      -0.523262       -14.2387
  46   2.0000      -0.521916       -14.2021
  47   2.0000      -0.516402       -14.0520
  48   2.0000      -0.508295       -13.8314
  49   2.0000      -0.503463       -13.6999
  50   2.0000      -0.494907       -13.4671
  51   2.0000      -0.488695       -13.2981
  52   2.0000      -0.471248       -12.8233
  53   2.0000      -0.468624       -12.7519
  54   2.0000      -0.465095       -12.6559
  55   2.0000      -0.454139       -12.3578
  56   2.0000      -0.448067       -12.1925
  57   2.0000      -0.436361       -11.8740
  58   2.0000      -0.433813       -11.8047
  59   2.0000      -0.425666       -11.5830
  60   2.0000      -0.417204       -11.3527
  61   2.0000      -0.413840       -11.2611
  62   2.0000      -0.411712       -11.2032
  63   2.0000      -0.363738        -9.8978
  64   2.0000      -0.335137        -9.1195
  65   2.0000      -0.327708        -8.9174
  66   2.0000      -0.280771        -7.6402
  67   0.0000       0.018494         0.5032
  68   0.0000       0.094936         2.5833
  69   0.0000       0.099237         2.7004
  70   0.0000       0.118746         3.2312
  71   0.0000       0.132467         3.6046

MULLIKEN ATOMIC CHARGES
-----------------------
   0 S :    0.110507
   1 C :   -0.141404
   2 C :   -0.089539
   3 C :   -0.020990
   4 C :   -0.111716
   5 H :    0.029806
   6 C :    0.100329
   7 H :   -0.007469
   8 H :    0.027306
   9 C :   -0.091095
  10 H :    0.031960
  11 H :    0.015760
  12 C :   -0.029343
  13 H :    0.046104
  14 H :    0.020581
  15 H :    0.021771
  16 S :    0.095206
  17 C :   -0.035680
  18 C :   -0.035493
  19 C :   -0.091060
  20 C :   -0.104395
  21 H :    0.025518
  22 C :    0.027183
  23 H :    0.017082
  24 H :    0.026905
  25 C :   -0.089520
  26 H :    0.031749
  27 H :    0.030594
  28 C :    0.006797
  29 H :    0.026327
  30 H :    0.042747
  31 H :    0.020224
  32 H :    0.068467
  33 H :    0.024782
Sum of atomic charges:   -0.0000000

LOEWDIN ATOMIC CHARGES
----------------------
   0 S :    0.444330
   1 C :   -0.215667
   2 C :   -0.058387
   3 C :   -0.080586
   4 C :   -0.203432
   5 H :    0.036971
   6 C :   -0.032733
   7 H :    0.023880
   8 H :    0.034033
   9 C :   -0.045542
  10 H :    0.029073
  11 H :    0.017236
  12 C :   -0.061301
  13 H :    0.032154
  14 H :    0.023688
  15 H :    0.019803
  16 S :    0.407972
  17 C :   -0.183627
  18 C :   -0.077323
  19 C :   -0.055926
  20 C :   -0.193045
  21 H :    0.035861
  22 C :   -0.036967
  23 H :    0.028474
  24 H :    0.025712
  25 C :   -0.040866
  26 H :    0.021864
  27 H :    0.028810
  28 C :   -0.056746
  29 H :    0.025647
  30 H :    0.030390
  31 H :    0.019914
  32 H :    0.038491
  33 H :    0.017846

  Mayer bond orders larger than 0.100000
B(  0-S ,  1-C ) :   1.1425 B(  0-S ,  4-C ) :   1.1896 B(  1-C ,  2-C ) :   1.5896
B(  1-C , 32-H ) :   0.9619 B(  2-C ,  3-C ) :   1.2709 B(  2-C ,  6-C ) :   1.0398
B(  3-C ,  4-C ) :   1.5081 B(  3-C ,  5-H ) :   0.9782 B(  4-C , 20-C ) :   1.0825
B(  6-C ,  7-H ) :   0.9327 B(  6-C ,  8-H ) :   0.9288 B(  6-C ,  9-C ) :   1.0721
B(  9-C , 10-H ) :   0.9497 B(  9-C , 11-H ) :   0.9541 B(  9-C , 12-C ) :   1.0842
B( 12-C , 13-H ) :   0.9748 B( 12-C , 14-H ) :   0.9709 B( 12-C , 15-H ) :   0.9738
B( 16-S , 17-C ) :   1.1534 B( 16-S , 20-C ) :   1.1398 B( 17-C , 18-C ) :   1.5932
B( 17-C , 33-H ) :   0.9780 B( 18-C , 19-C ) :   1.2840 B( 18-C , 21-H ) :   0.9790
B( 19-C , 20-C ) :   1.5595 B( 19-C , 22-C ) :   1.0323 B( 22-C , 23-H ) :   0.9359
B( 22-C , 24-H ) :   0.9343 B( 22-C , 25-C ) :   1.0504 B( 25-C , 26-H ) :   0.9571
B( 25-C , 27-H ) :   0.9545 B( 25-C , 28-C ) :   1.0789 B( 28-C , 29-H ) :   0.9747
B( 28-C , 30-H ) :   0.9740 B( 28-C , 31-H ) :   0.9720

Dispersion correction           -0.013687132
FINAL SINGLE POINT ENERGY     -1339.882901382262

DIPOLE MOMENT
-------------
                                X             Y             Z
Electronic contribution:     23.31463      22.24849      -0.23263
Nuclear contribution   :    -23.66848     -22.78466       0.13243
                        -----------------------------------------
Total Dipole Moment    :     -0.35385      -0.53617      -0.10021
                        -----------------------------------------
Magnitude (a.u.)       :      0.65018
Magnitude (Debye)      :      1.65262

Rotational constants in cm-1:     0.018070     0.008750     0.006229
Rotational constants in MHz :   541.730506   262.318570   186.730616

                             ****ORCA TERMINATED NORMALLY****
TOTAL RUN TIME: 0 days 0 hours 0 minutes 33 seconds 606 msec
