                         Program Version 4.2.1 -  RELEASE  -
|  1> ! wB97X-D3 SP def2-SVP
|  2> %pal
|  3> nprocs 16
|  4> end
|  5>
|  6> * xyz 0 1
|  7> S 	 50.9497 	 24.9805 	 44.8484
|  8> C 	 52.3454 	 25.8944 	 44.3768
|  9> C 	 52.5045 	 25.8154 	 43.0232
| 10> C 	 51.469 	 25.0268 	 42.3499
| 11> C 	 50.5057 	 24.6217 	 43.196
| 12> H 	 51.4339 	 24.9023 	 41.3199
| 13> C 	 53.641 	 26.404 	 42.2444
| 14> H 	 54.1634 	 25.5486 	 41.9105
| 15> H 	 54.2979 	 26.7764 	 43.0095
| 16> C 	 53.2763 	 27.429 	 41.2259
| 17> H 	 52.6455 	 27.0767 	 40.4995
| 18> H 	 52.6022 	 28.0794 	 41.8407
| 19> C 	 54.3901 	 28.3207 	 40.6085
| 20> H 	 55.061 	 27.7189 	 40.0443
| 21> H 	 54.0154 	 29.1266 	 40.0137
| 22> H 	 55.0093 	 28.8244 	 41.3776
| 23> S 	 48.8321 	 22.6892 	 44.0156
| 24> C 	 47.5106 	 22.1305 	 43.0161
| 25> C 	 47.451 	 22.8864 	 41.8745
| 26> C 	 48.4029 	 23.8939 	 41.7451
| 27> C 	 49.3126 	 23.8916 	 42.8559
| 28> H 	 46.701 	 22.7105 	 41.178
| 29> C 	 48.4482 	 24.849 	 40.6068
| 30> H 	 48.9849 	 25.763 	 40.7582
| 31> H 	 47.4792 	 25.189 	 40.2732
| 32> C 	 49.2555 	 24.1332 	 39.4729
| 33> H 	 48.6213 	 23.3131 	 39.1891
| 34> H 	 50.2525 	 23.7065 	 39.7057
| 35> C 	 49.3929 	 25.1765 	 38.3229
| 36> H 	 50.2239 	 25.7738 	 38.4437
| 37> H 	 48.5016 	 25.7763 	 38.1042
| 38> H 	 49.6215 	 24.513 	 37.4929
| 39> H 	 52.9371 	 26.4449 	 45.037
| 40> H 	 46.9156 	 21.3213 	 43.2709
| 41> *
| 42>
| 43>                          ****END OF INPUT****

CARTESIAN COORDINATES (ANGSTROEM)
---------------------------------
  S     50.949700   24.980500   44.848400
  C     52.345400   25.894400   44.376800
  C     52.504500   25.815400   43.023200
  C     51.469000   25.026800   42.349900
  C     50.505700   24.621700   43.196000
  H     51.433900   24.902300   41.319900
  C     53.641000   26.404000   42.244400
  H     54.163400   25.548600   41.910500
  H     54.297900   26.776400   43.009500
  C     53.276300   27.429000   41.225900
  H     52.645500   27.076700   40.499500
  H     52.602200   28.079400   41.840700
  C     54.390100   28.320700   40.608500
  H     55.061000   27.718900   40.044300
  H     54.015400   29.126600   40.013700
  H     55.009300   28.824400   41.377600
  S     48.832100   22.689200   44.015600
  C     47.510600   22.130500   43.016100
  C     47.451000   22.886400   41.874500
  C     48.402900   23.893900   41.745100
  C     49.312600   23.891600   42.855900
  H     46.701000   22.710500   41.178000
  C     48.448200   24.849000   40.606800
  H     48.984900   25.763000   40.758200
  H     47.479200   25.189000   40.273200
  C     49.255500   24.133200   39.472900
  H     48.621300   23.313100   39.189100
  H     50.252500   23.706500   39.705700
  C     49.392900   25.176500   38.322900
  H     50.223900   25.773800   38.443700
  H     48.501600   25.776300   38.104200
  H     49.621500   24.513000   37.492900
  H     52.937100   26.444900   45.037000
  H     46.915600   21.321300   43.270900

 Total Charge           Charge          ....    0
 Multiplicity           Mult            ....    1
 Number of Electrons    NEL             ....  134
 Basis Dimension        Dim             ....  322

ORBITAL ENERGIES
----------------

  NO   OCC          E(Eh)            E(eV)
   0   2.0000     -88.963365     -2420.8162
   1   2.0000     -88.959943     -2420.7231
   2   2.0000     -10.326549      -280.9997
   3   2.0000     -10.325752      -280.9780
   4   2.0000     -10.311003      -280.5766
   5   2.0000     -10.306521      -280.4547
   6   2.0000     -10.304008      -280.3863
   7   2.0000     -10.297339      -280.2048
   8   2.0000     -10.291222      -280.0384
   9   2.0000     -10.289048      -279.9792
  10   2.0000     -10.285846      -279.8921
  11   2.0000     -10.285007      -279.8693
  12   2.0000     -10.282822      -279.8098
  13   2.0000     -10.281188      -279.7654
  14   2.0000     -10.278782      -279.6999
  15   2.0000     -10.274073      -279.5717
  16   2.0000      -8.078494      -219.8270
  17   2.0000      -8.075456      -219.7443
  18   2.0000      -6.036872      -164.2716
  19   2.0000      -6.034141      -164.1973
  20   2.0000      -6.032798      -164.1608
  21   2.0000      -6.029911      -164.0822
  22   2.0000      -6.029522      -164.0716
  23   2.0000      -6.025919      -163.9736
  24   2.0000      -1.010897       -27.5079
  25   2.0000      -0.987316       -26.8662
  26   2.0000      -0.918483       -24.9932
  27   2.0000      -0.913795       -24.8656
  28   2.0000      -0.875882       -23.8340
  29   2.0000      -0.853758       -23.2319
  30   2.0000      -0.845452       -23.0059
  31   2.0000      -0.821722       -22.3602
  32   2.0000      -0.784105       -21.3366
  33   2.0000      -0.773339       -21.0436
  34   2.0000      -0.715977       -19.4827
  35   2.0000      -0.705250       -19.1908
  36   2.0000      -0.701873       -19.0989
  37   2.0000      -0.668510       -18.1911
  38   2.0000      -0.646322       -17.5873
  39   2.0000      -0.627896       -17.0859
  40   2.0000      -0.608501       -16.5582
  41   2.0000      -0.571216       -15.5436
  42   2.0000      -0.569823       -15.5057
  43   2.0000      -0.560540       -15.2531
  44   2.0000      -0.532397       -14.4873
  45   2.0000      -0.526461       -14.3257
  46   2.0000      -0.522444       -14.2164
  47   2.0000      -0.517781       -14.0896
  48   2.0000      -0.512121       -13.9355
  49   2.0000      -0.506736       -13.7890
  50   2.0000      -0.497498       -13.5376
  51   2.0000      -0.487343       -13.2613
  52   2.0000      -0.474231       -12.9045
  53   2.0000      -0.468809       -12.7569
  54   2.0000      -0.462514       -12.5857
  55   2.0000      -0.458517       -12.4769
  56   2.0000      -0.447457       -12.1759
  57   2.0000      -0.442735       -12.0474
  58   2.0000      -0.434733       -11.8297
  59   2.0000      -0.429268       -11.6810
  60   2.0000      -0.420350       -11.4383
  61   2.0000      -0.409086       -11.1318
  62   2.0000      -0.403358       -10.9759
  63   2.0000      -0.359930        -9.7942
  64   2.0000      -0.331403        -9.0179
  65   2.0000      -0.323375        -8.7995
  66   2.0000      -0.283106        -7.7037
  67   0.0000       0.026317         0.7161
  68   0.0000       0.083141         2.2624
  69   0.0000       0.109460         2.9786
  70   0.0000       0.123144         3.3509
  71   0.0000       0.129849         3.5334

MULLIKEN ATOMIC CHARGES
-----------------------
   0 S :    0.092922
   1 C :   -0.095001
   2 C :   -0.138921
   3 C :    0.030560
   4 C :   -0.075199
   5 H :   -0.036129
   6 C :    0.141317
   7 H :    0.018906
   8 H :   -0.008049
   9 C :   -0.065437
  10 H :    0.008226
  11 H :    0.025738
  12 C :   -0.020769
  13 H :    0.024373
  14 H :    0.033378
  15 H :    0.026103
  16 S :    0.095230
  17 C :   -0.057914
  18 C :   -0.016247
  19 C :   -0.003315
  20 C :   -0.162927
  21 H :   -0.010963
  22 C :    0.075991
  23 H :    0.015810
  24 H :    0.024340
  25 C :   -0.133006
  26 H :    0.022332
  27 H :    0.050790
  28 C :   -0.001870
  29 H :    0.019491
  30 H :    0.037552
  31 H :    0.025672
  32 H :    0.024278
  33 H :    0.032738
Sum of atomic charges:    0.0000000

LOEWDIN ATOMIC CHARGES
----------------------
   0 S :    0.395636
   1 C :   -0.193442
   2 C :   -0.053176
   3 C :   -0.061277
   4 C :   -0.182909
   5 H :    0.016093
   6 C :   -0.032558
   7 H :    0.026227
   8 H :    0.027374
   9 C :   -0.038706
  10 H :    0.009892
  11 H :    0.033223
  12 C :   -0.058428
  13 H :    0.019396
  14 H :    0.025871
  15 H :    0.028559
  16 S :    0.416854
  17 C :   -0.173070
  18 C :   -0.066027
  19 C :   -0.050150
  20 C :   -0.196980
  21 H :    0.021151
  22 C :   -0.029341
  23 H :    0.025405
  24 H :    0.030422
  25 C :   -0.030315
  26 H :    0.017884
  27 H :    0.029037
  28 C :   -0.060751
  29 H :    0.012627
  30 H :    0.027704
  31 H :    0.029024
  32 H :    0.018549
  33 H :    0.016202

  Mayer bond orders larger than 0.100000
B(  0-S ,  1-C ) :   1.1123 B(  0-S ,  4-C ) :   1.1346 B(  1-C ,  2-C ) :   1.6399
B(  1-C , 32-H ) :   0.9772 B(  2-C ,  3-C ) :   1.1975 B(  2-C ,  6-C ) :   1.0318
B(  3-C ,  4-C ) :   1.5838 B(  3-C ,  5-H ) :   1.0122 B(  4-C , 20-C ) :   1.0666
B(  6-C ,  7-H ) :   0.9231 B(  6-C ,  8-H ) :   0.9292 B(  6-C ,  9-C ) :   1.0491
B(  9-C , 10-H ) :   0.9577 B(  9-C , 11-H ) :   0.9534 B(  9-C , 12-C ) :   1.0859
B( 12-C , 13-H ) :   0.9757 B( 12-C , 14-H ) :   0.9754 B( 12-C , 15-H ) :   0.9745
B( 16-S , 17-C ) :   1.1632 B( 16-S , 20-C ) :   1.1664 B( 17-C , 18-C ) :   1.5547
B( 17-C , 20-C ) :   0.1154 B( 17-C , 33-H ) :   0.9824 B( 18-C , 19-C ) :   1.2864
B( 18-C , 21-H ) :   1.0006 B( 19-C , 20-C ) :   1.5134 B( 19-C , 22-C ) :   1.0572
B( 22-C , 23-H ) :   0.9387 B( 22-C , 24-H ) :   0.9346 B( 22-C , 25-C ) :   1.0396
B( 25-C , 26-H ) :   0.9623 B( 25-C , 27-H ) :   0.9558 B( 25-C , 28-C ) :   1.0701
B( 28-C , 29-H ) :   0.9761 B( 28-C , 30-H ) :   0.9725 B( 28-C , 31-H ) :   0.9715

Dispersion correction           -0.014344179
FINAL SINGLE POINT ENERGY     -1339.865368619525

DIPOLE MOMENT
-------------
                                X             Y             Z
Electronic contribution:    -10.95005     -15.42582      26.99722
Nuclear contribution   :     11.03991      15.64315     -27.74575
                        -----------------------------------------
Total Dipole Moment    :      0.08986       0.21733      -0.74853
                        -----------------------------------------
Magnitude (a.u.)       :      0.78460
Magnitude (Debye)      :      1.99429

Rotational constants in cm-1:     0.018030     0.009602     0.006485
Rotational constants in MHz :   540.519502   287.871662   194.426285

                             ****ORCA TERMINATED NORMALLY****
TOTAL RUN TIME: 0 days 0 hours 0 minutes 29 seconds 74 msec
