                         Program Version 4.2.1 -  RELEASE  -
|  1> ! wB97X-D3 SP def2-SVP
|  2> %pal
|  3> nprocs 16
|  4> end
|  5>
|  6> * xyz 0 1
|  7> S 	 67.889 	 24.2626 	 72.1774
|  8> C 	 68.238 	 23.0316 	 73.4431
|  9> C 	 69.2766 	 23.4475 	 74.3248
| 10> C 	 69.846 	 24.6953 	 73.8446
| 11> C 	 69.1199 	 25.2985 	 72.834
| 12> H 	 70.6824 	 25.2075 	 74.42
| 13> C 	 69.9681 	 22.6384 	 75.3662
| 14> H 	 69.4958 	 21.7332 	 75.5844
| 15> H 	 70.0513 	 23.1527 	 76.3218
| 16> C 	 71.3552 	 22.0986 	 74.996
| 17> H 	 71.3181 	 21.2984 	 74.2242
| 18> H 	 72.065 	 22.8758 	 74.6536
| 19> C 	 72.0607 	 21.4861 	 76.1823
| 20> H 	 71.3707 	 20.7544 	 76.557
| 21> H 	 73.0032 	 20.8793 	 75.9653
| 22> H 	 72.2555 	 22.25 	 77.0155
| 23> S 	 69.775 	 26.7702 	 70.5941
| 24> C 	 70.2361 	 28.4582 	 70.758
| 25> C 	 69.9903 	 28.9223 	 72.0292
| 26> C 	 69.5323 	 27.9162 	 72.9721
| 27> C 	 69.3815 	 26.6487 	 72.3109
| 28> H 	 70.2456 	 29.9308 	 72.2442
| 29> C 	 69.1577 	 28.1922 	 74.4084
| 30> H 	 70.096 	 28.2474 	 74.9923
| 31> H 	 68.7394 	 27.3633 	 74.8414
| 32> C 	 68.3123 	 29.4653 	 74.6447
| 33> H 	 67.4097 	 29.4269 	 73.9759
| 34> H 	 68.8493 	 30.3537 	 74.3014
| 35> C 	 67.7924 	 29.6013 	 76.1169
| 36> H 	 66.7781 	 29.1708 	 76.288
| 37> H 	 67.6836 	 30.6576 	 76.4072
| 38> H 	 68.4288 	 29.1704 	 76.8784
| 39> H 	 67.6064 	 22.0937 	 73.4882
| 40> H 	 70.6343 	 29.0207 	 69.9931
| 41> *
| 42>
| 43>                          ****END OF INPUT****

CARTESIAN COORDINATES (ANGSTROEM)
---------------------------------
  S     67.889000   24.262600   72.177400
  C     68.238000   23.031600   73.443100
  C     69.276600   23.447500   74.324800
  C     69.846000   24.695300   73.844600
  C     69.119900   25.298500   72.834000
  H     70.682400   25.207500   74.420000
  C     69.968100   22.638400   75.366200
  H     69.495800   21.733200   75.584400
  H     70.051300   23.152700   76.321800
  C     71.355200   22.098600   74.996000
  H     71.318100   21.298400   74.224200
  H     72.065000   22.875800   74.653600
  C     72.060700   21.486100   76.182300
  H     71.370700   20.754400   76.557000
  H     73.003200   20.879300   75.965300
  H     72.255500   22.250000   77.015500
  S     69.775000   26.770200   70.594100
  C     70.236100   28.458200   70.758000
  C     69.990300   28.922300   72.029200
  C     69.532300   27.916200   72.972100
  C     69.381500   26.648700   72.310900
  H     70.245600   29.930800   72.244200
  C     69.157700   28.192200   74.408400
  H     70.096000   28.247400   74.992300
  H     68.739400   27.363300   74.841400
  C     68.312300   29.465300   74.644700
  H     67.409700   29.426900   73.975900
  H     68.849300   30.353700   74.301400
  C     67.792400   29.601300   76.116900
  H     66.778100   29.170800   76.288000
  H     67.683600   30.657600   76.407200
  H     68.428800   29.170400   76.878400
  H     67.606400   22.093700   73.488200
  H     70.634300   29.020700   69.993100

 Total Charge           Charge          ....    0
 Multiplicity           Mult            ....    1
 Number of Electrons    NEL             ....  134
 Basis Dimension        Dim             ....  322

ORBITAL ENERGIES
----------------

  NO   OCC          E(Eh)            E(eV)
   0   2.0000     -88.969140     -2420.9734
   1   2.0000     -88.963544     -2420.8211
   2   2.0000     -10.331203      -281.1263
   3   2.0000     -10.330813      -281.1157
   4   2.0000     -10.328758      -281.0598
   5   2.0000     -10.312977      -280.6304
   6   2.0000     -10.312081      -280.6060
   7   2.0000     -10.310605      -280.5658
   8   2.0000     -10.300591      -280.2933
   9   2.0000     -10.294603      -280.1304
  10   2.0000     -10.293985      -280.1136
  11   2.0000     -10.290664      -280.0232
  12   2.0000     -10.288583      -279.9666
  13   2.0000     -10.287041      -279.9246
  14   2.0000     -10.285530      -279.8835
  15   2.0000     -10.282727      -279.8072
  16   2.0000      -8.083297      -219.9577
  17   2.0000      -8.078063      -219.8153
  18   2.0000      -6.041851      -164.4071
  19   2.0000      -6.037935      -164.3006
  20   2.0000      -6.036553      -164.2630
  21   2.0000      -6.033996      -164.1934
  22   2.0000      -6.032570      -164.1546
  23   2.0000      -6.028900      -164.0547
  24   2.0000      -0.998387       -27.1675
  25   2.0000      -0.975448       -26.5433
  26   2.0000      -0.919092       -25.0098
  27   2.0000      -0.904090       -24.6015
  28   2.0000      -0.866256       -23.5720
  29   2.0000      -0.848155       -23.0795
  30   2.0000      -0.842153       -22.9161
  31   2.0000      -0.811542       -22.0832
  32   2.0000      -0.782183       -21.2843
  33   2.0000      -0.768773       -20.9194
  34   2.0000      -0.707137       -19.2422
  35   2.0000      -0.698559       -19.0088
  36   2.0000      -0.690743       -18.7961
  37   2.0000      -0.653760       -17.7897
  38   2.0000      -0.641966       -17.4688
  39   2.0000      -0.621648       -16.9159
  40   2.0000      -0.601018       -16.3545
  41   2.0000      -0.571126       -15.5411
  42   2.0000      -0.563711       -15.3394
  43   2.0000      -0.555331       -15.1113
  44   2.0000      -0.526222       -14.3192
  45   2.0000      -0.519032       -14.1236
  46   2.0000      -0.515813       -14.0360
  47   2.0000      -0.506233       -13.7753
  48   2.0000      -0.501772       -13.6539
  49   2.0000      -0.498288       -13.5591
  50   2.0000      -0.493971       -13.4416
  51   2.0000      -0.471623       -12.8335
  52   2.0000      -0.469344       -12.7715
  53   2.0000      -0.459223       -12.4961
  54   2.0000      -0.455968       -12.4075
  55   2.0000      -0.452496       -12.3130
  56   2.0000      -0.448958       -12.2168
  57   2.0000      -0.437795       -11.9130
  58   2.0000      -0.433115       -11.7857
  59   2.0000      -0.428142       -11.6503
  60   2.0000      -0.423670       -11.5287
  61   2.0000      -0.414978       -11.2921
  62   2.0000      -0.412602       -11.2275
  63   2.0000      -0.342222        -9.3123
  64   2.0000      -0.331588        -9.0230
  65   2.0000      -0.325230        -8.8499
  66   2.0000      -0.292043        -7.9469
  67   0.0000       0.031165         0.8480
  68   0.0000       0.064635         1.7588
  69   0.0000       0.105844         2.8802
  70   0.0000       0.118091         3.2134
  71   0.0000       0.130419         3.5489

MULLIKEN ATOMIC CHARGES
-----------------------
   0 S :    0.109295
   1 C :   -0.154528
   2 C :   -0.057967
   3 C :    0.005192
   4 C :   -0.146677
   5 H :    0.042210
   6 C :    0.080916
   7 H :   -0.001064
   8 H :    0.027942
   9 C :   -0.088140
  10 H :    0.037851
  11 H :    0.034198
  12 C :   -0.090192
  13 H :    0.015143
  14 H :    0.051664
  15 H :    0.042411
  16 S :    0.098126
  17 C :   -0.064360
  18 C :   -0.029273
  19 C :   -0.040639
  20 C :   -0.162146
  21 H :    0.010054
  22 C :    0.126412
  23 H :    0.027195
  24 H :   -0.002779
  25 C :   -0.099794
  26 H :    0.044898
  27 H :    0.034859
  28 C :   -0.060588
  29 H :    0.042532
  30 H :    0.031621
  31 H :    0.028079
  32 H :    0.077745
  33 H :    0.029807
Sum of atomic charges:   -0.0000000

LOEWDIN ATOMIC CHARGES
----------------------
   0 S :    0.393089
   1 C :   -0.191863
   2 C :   -0.058180
   3 C :   -0.066224
   4 C :   -0.203923
   5 H :    0.042783
   6 C :   -0.033179
   7 H :    0.024404
   8 H :    0.033420
   9 C :   -0.042072
  10 H :    0.029364
  11 H :    0.022135
  12 C :   -0.076817
  13 H :    0.015598
  14 H :    0.036287
  15 H :    0.030039
  16 S :    0.395658
  17 C :   -0.167523
  18 C :   -0.067595
  19 C :   -0.044481
  20 C :   -0.197554
  21 H :    0.025941
  22 C :   -0.031720
  23 H :    0.036321
  24 H :    0.018126
  25 C :   -0.040038
  26 H :    0.033595
  27 H :    0.021948
  28 C :   -0.073009
  29 H :    0.032153
  30 H :    0.028984
  31 H :    0.021758
  32 H :    0.038421
  33 H :    0.014154

  Mayer bond orders larger than 0.100000
B(  0-S ,  1-C ) :   1.1310 B(  0-S ,  4-C ) :   1.1516 B(  1-C ,  2-C ) :   1.5997
B(  1-C , 32-H ) :   0.9605 B(  2-C ,  3-C ) :   1.2256 B(  2-C ,  6-C ) :   1.0540
B(  3-C ,  4-C ) :   1.5870 B(  3-C ,  5-H ) :   0.9798 B(  4-C , 20-C ) :   1.0210
B(  6-C ,  7-H ) :   0.9361 B(  6-C ,  8-H ) :   0.9337 B(  6-C ,  9-C ) :   1.0500
B(  9-C , 10-H ) :   0.9558 B(  9-C , 11-H ) :   0.9561 B(  9-C , 12-C ) :   1.0792
B( 12-C , 13-H ) :   0.9721 B( 12-C , 14-H ) :   0.9718 B( 12-C , 15-H ) :   0.9728
B( 16-S , 17-C ) :   1.1509 B( 16-S , 20-C ) :   1.1482 B( 17-C , 18-C ) :   1.6169
B( 17-C , 33-H ) :   0.9776 B( 18-C , 19-C ) :   1.2247 B( 18-C , 21-H ) :   0.9931
B( 19-C , 20-C ) :   1.5763 B( 19-C , 22-C ) :   1.0538 B( 22-C , 23-H ) :   0.9156
B( 22-C , 24-H ) :   0.9299 B( 22-C , 25-C ) :   1.0579 B( 25-C , 26-H ) :   0.9613
B( 25-C , 27-H ) :   0.9581 B( 25-C , 28-C ) :   1.0666 B( 28-C , 29-H ) :   0.9778
B( 28-C , 30-H ) :   0.9771 B( 28-C , 31-H ) :   0.9782

Dispersion correction           -0.013386490
FINAL SINGLE POINT ENERGY     -1339.873251163742

DIPOLE MOMENT
-------------
                                X             Y             Z
Electronic contribution:     -6.63230       0.12642     -26.27489
Nuclear contribution   :      6.86737      -0.03471      26.90354
                        -----------------------------------------
Total Dipole Moment    :      0.23507       0.09171       0.62865
                        -----------------------------------------
Magnitude (a.u.)       :      0.67740
Magnitude (Debye)      :      1.72181

Rotational constants in cm-1:     0.016680     0.007785     0.006535
Rotational constants in MHz :   500.057479   233.396466   195.918046

                             ****ORCA TERMINATED NORMALLY****
TOTAL RUN TIME: 0 days 0 hours 0 minutes 28 seconds 501 msec
