                         Program Version 4.2.1 -  RELEASE  -
|  1> ! wB97X-D3 SP def2-SVP
|  2> %pal
|  3> nprocs 16
|  4> end
|  5>
|  6> * xyz 0 1
|  7> S 	 -92.8712 	 51.0199 	 125.222
|  8> C 	 -94.3063 	 50.7394 	 124.272
|  9> C 	 -94.0375 	 50.6136 	 122.895
| 10> C 	 -92.6418 	 50.8866 	 122.547
| 11> C 	 -91.8979 	 51.1763 	 123.68
| 12> H 	 -92.2578 	 51.0229 	 121.489
| 13> C 	 -95.0944 	 50.448 	 121.855
| 14> H 	 -94.8922 	 50.9859 	 120.912
| 15> H 	 -95.9724 	 50.761 	 122.344
| 16> C 	 -95.4125 	 49.0217 	 121.319
| 17> H 	 -96.2183 	 49.1435 	 120.538
| 18> H 	 -94.5062 	 48.6952 	 120.727
| 19> C 	 -95.9588 	 47.9934 	 122.37
| 20> H 	 -95.1941 	 47.7595 	 123.159
| 21> H 	 -96.8415 	 48.2952 	 122.849
| 22> H 	 -96.089 	 47.0001 	 121.879
| 23> S 	 -90.2375 	 53.1916 	 124.518
| 24> C 	 -88.4925 	 53.0133 	 124.416
| 25> C 	 -88.2897 	 51.9435 	 123.583
| 26> C 	 -89.3477 	 51.1358 	 123.218
| 27> C 	 -90.5473 	 51.6715 	 123.701
| 28> H 	 -87.2888 	 51.8816 	 123.246
| 29> C 	 -89.2324 	 49.8943 	 122.36
| 30> H 	 -90.1506 	 49.3169 	 122.503
| 31> H 	 -88.4879 	 49.2658 	 122.869
| 32> C 	 -89.0625 	 50.0692 	 120.883
| 33> H 	 -88.1085 	 50.6371 	 120.884
| 34> H 	 -89.8057 	 50.7496 	 120.533
| 35> C 	 -89.1714 	 48.7566 	 120.097
| 36> H 	 -88.3242 	 48.1648 	 120
| 37> H 	 -89.4006 	 49.0869 	 119.047
| 38> H 	 -90.0264 	 48.1299 	 120.359
| 39> H 	 -95.3166 	 50.7977 	 124.694
| 40> H 	 -87.7182 	 53.7684 	 124.665
| 41> *
| 42>
| 43>                          ****END OF INPUT****

CARTESIAN COORDINATES (ANGSTROEM)
---------------------------------
  S    -92.871200   51.019900  125.222000
  C    -94.306300   50.739400  124.272000
  C    -94.037500   50.613600  122.895000
  C    -92.641800   50.886600  122.547000
  C    -91.897900   51.176300  123.680000
  H    -92.257800   51.022900  121.489000
  C    -95.094400   50.448000  121.855000
  H    -94.892200   50.985900  120.912000
  H    -95.972400   50.761000  122.344000
  C    -95.412500   49.021700  121.319000
  H    -96.218300   49.143500  120.538000
  H    -94.506200   48.695200  120.727000
  C    -95.958800   47.993400  122.370000
  H    -95.194100   47.759500  123.159000
  H    -96.841500   48.295200  122.849000
  H    -96.089000   47.000100  121.879000
  S    -90.237500   53.191600  124.518000
  C    -88.492500   53.013300  124.416000
  C    -88.289700   51.943500  123.583000
  C    -89.347700   51.135800  123.218000
  C    -90.547300   51.671500  123.701000
  H    -87.288800   51.881600  123.246000
  C    -89.232400   49.894300  122.360000
  H    -90.150600   49.316900  122.503000
  H    -88.487900   49.265800  122.869000
  C    -89.062500   50.069200  120.883000
  H    -88.108500   50.637100  120.884000
  H    -89.805700   50.749600  120.533000
  C    -89.171400   48.756600  120.097000
  H    -88.324200   48.164800  120.000000
  H    -89.400600   49.086900  119.047000
  H    -90.026400   48.129900  120.359000
  H    -95.316600   50.797700  124.694000
  H    -87.718200   53.768400  124.665000

 Total Charge           Charge          ....    0
 Multiplicity           Mult            ....    1
 Number of Electrons    NEL             ....  134
 Basis Dimension        Dim             ....  322

ORBITAL ENERGIES
----------------

  NO   OCC          E(Eh)            E(eV)
   0   2.0000     -88.968665     -2420.9604
   1   2.0000     -88.962327     -2420.7880
   2   2.0000     -10.334723      -281.2221
   3   2.0000     -10.324769      -280.9513
   4   2.0000     -10.319799      -280.8160
   5   2.0000     -10.317767      -280.7607
   6   2.0000     -10.307336      -280.4769
   7   2.0000     -10.306278      -280.4481
   8   2.0000     -10.298734      -280.2428
   9   2.0000     -10.297978      -280.2222
  10   2.0000     -10.288753      -279.9712
  11   2.0000     -10.287228      -279.9297
  12   2.0000     -10.284838      -279.8647
  13   2.0000     -10.283961      -279.8408
  14   2.0000     -10.280605      -279.7495
  15   2.0000     -10.280436      -279.7449
  16   2.0000      -8.082245      -219.9291
  17   2.0000      -8.076960      -219.7853
  18   2.0000      -6.040901      -164.3813
  19   2.0000      -6.037028      -164.2759
  20   2.0000      -6.035394      -164.2314
  21   2.0000      -6.032787      -164.1605
  22   2.0000      -6.031403      -164.1228
  23   2.0000      -6.027842      -164.0259
  24   2.0000      -1.005256       -27.3544
  25   2.0000      -0.978475       -26.6257
  26   2.0000      -0.914602       -24.8876
  27   2.0000      -0.906110       -24.6565
  28   2.0000      -0.869079       -23.6489
  29   2.0000      -0.851990       -23.1838
  30   2.0000      -0.842914       -22.9368
  31   2.0000      -0.813709       -22.1421
  32   2.0000      -0.784251       -21.3405
  33   2.0000      -0.772358       -21.0169
  34   2.0000      -0.711006       -19.3475
  35   2.0000      -0.701481       -19.0883
  36   2.0000      -0.691875       -18.8269
  37   2.0000      -0.657019       -17.8784
  38   2.0000      -0.636318       -17.3151
  39   2.0000      -0.617939       -16.8150
  40   2.0000      -0.595594       -16.2069
  41   2.0000      -0.569260       -15.4904
  42   2.0000      -0.561636       -15.2829
  43   2.0000      -0.549825       -14.9615
  44   2.0000      -0.536160       -14.5897
  45   2.0000      -0.524960       -14.2849
  46   2.0000      -0.520695       -14.1688
  47   2.0000      -0.514730       -14.0065
  48   2.0000      -0.506398       -13.7798
  49   2.0000      -0.500046       -13.6070
  50   2.0000      -0.489769       -13.3273
  51   2.0000      -0.482570       -13.1314
  52   2.0000      -0.473873       -12.8947
  53   2.0000      -0.462886       -12.5958
  54   2.0000      -0.460566       -12.5326
  55   2.0000      -0.444840       -12.1047
  56   2.0000      -0.440640       -11.9904
  57   2.0000      -0.434134       -11.8134
  58   2.0000      -0.432126       -11.7587
  59   2.0000      -0.423751       -11.5309
  60   2.0000      -0.420824       -11.4512
  61   2.0000      -0.413095       -11.2409
  62   2.0000      -0.407146       -11.0790
  63   2.0000      -0.346171        -9.4198
  64   2.0000      -0.330991        -9.0067
  65   2.0000      -0.323206        -8.7949
  66   2.0000      -0.293111        -7.9759
  67   0.0000       0.022062         0.6003
  68   0.0000       0.065907         1.7934
  69   0.0000       0.108545         2.9537
  70   0.0000       0.113092         3.0774
  71   0.0000       0.126172         3.4333

MULLIKEN ATOMIC CHARGES
-----------------------
   0 S :    0.115162
   1 C :   -0.129796
   2 C :   -0.087245
   3 C :    0.019334
   4 C :   -0.153975
   5 H :    0.047869
   6 C :    0.078698
   7 H :    0.033784
   8 H :    0.001905
   9 C :   -0.111457
  10 H :    0.037442
  11 H :    0.032043
  12 C :   -0.056813
  13 H :    0.044605
  14 H :    0.025775
  15 H :    0.039164
  16 S :    0.104024
  17 C :   -0.111881
  18 C :   -0.050444
  19 C :    0.001015
  20 C :   -0.187182
  21 H :   -0.000289
  22 C :    0.063276
  23 H :    0.006903
  24 H :    0.029322
  25 C :   -0.040449
  26 H :    0.026045
  27 H :    0.015738
  28 C :   -0.023655
  29 H :    0.029332
  30 H :    0.028748
  31 H :    0.035270
  32 H :    0.061886
  33 H :    0.075846
Sum of atomic charges:    0.0000000

LOEWDIN ATOMIC CHARGES
----------------------
   0 S :    0.379498
   1 C :   -0.201334
   2 C :   -0.062715
   3 C :   -0.057519
   4 C :   -0.172242
   5 H :    0.046227
   6 C :   -0.036581
   7 H :    0.036266
   8 H :    0.022451
   9 C :   -0.044191
  10 H :    0.027428
  11 H :    0.024850
  12 C :   -0.072141
  13 H :    0.032041
  14 H :    0.015628
  15 H :    0.032691
  16 S :    0.406359
  17 C :   -0.193892
  18 C :   -0.076129
  19 C :   -0.058672
  20 C :   -0.198434
  21 H :    0.022908
  22 C :   -0.037878
  23 H :    0.025158
  24 H :    0.032350
  25 C :   -0.039288
  26 H :    0.030314
  27 H :    0.019828
  28 C :   -0.060522
  29 H :    0.017401
  30 H :    0.035121
  31 H :    0.030023
  32 H :    0.032193
  33 H :    0.042804

  Mayer bond orders larger than 0.100000
B(  0-S ,  1-C ) :   1.1311 B(  0-S ,  4-C ) :   1.1225 B(  1-C ,  2-C ) :   1.6191
B(  1-C , 32-H ) :   0.9615 B(  2-C ,  3-C ) :   1.2092 B(  2-C ,  6-C ) :   1.0410
B(  3-C ,  4-C ) :   1.5976 B(  3-C ,  5-H ) :   0.9780 B(  4-C , 20-C ) :   1.0657
B(  6-C ,  7-H ) :   0.9440 B(  6-C ,  8-H ) :   0.9345 B(  6-C ,  9-C ) :   1.0645
B(  9-C , 10-H ) :   0.9574 B(  9-C , 11-H ) :   0.9578 B(  9-C , 12-C ) :   1.0678
B( 12-C , 13-H ) :   0.9755 B( 12-C , 14-H ) :   0.9767 B( 12-C , 15-H ) :   0.9742
B( 16-S , 17-C ) :   1.1498 B( 16-S , 20-C ) :   1.1699 B( 17-C , 18-C ) :   1.5860
B( 17-C , 20-C ) :   0.1110 B( 17-C , 33-H ) :   0.9625 B( 18-C , 19-C ) :   1.2713
B( 18-C , 21-H ) :   0.9911 B( 19-C , 20-C ) :   1.5316 B( 19-C , 22-C ) :   1.0465
B( 22-C , 23-H ) :   0.9185 B( 22-C , 24-H ) :   0.9323 B( 22-C , 25-C ) :   1.0635
B( 25-C , 26-H ) :   0.9539 B( 25-C , 27-H ) :   0.9524 B( 25-C , 28-C ) :   1.0738
B( 28-C , 29-H ) :   0.9784 B( 28-C , 30-H ) :   0.9752 B( 28-C , 31-H ) :   0.9714

Dispersion correction           -0.014253707
FINAL SINGLE POINT ENERGY     -1339.864620415605

DIPOLE MOMENT
-------------
                                X             Y             Z
Electronic contribution:      6.09992      18.90843      22.17033
Nuclear contribution   :     -6.10585     -19.08953     -22.83150
                        -----------------------------------------
Total Dipole Moment    :     -0.00593      -0.18110      -0.66117
                        -----------------------------------------
Magnitude (a.u.)       :      0.68555
Magnitude (Debye)      :      1.74252

Rotational constants in cm-1:     0.018046     0.009018     0.006510
Rotational constants in MHz :   541.018233   270.366303   195.154050

                             ****ORCA TERMINATED NORMALLY****
TOTAL RUN TIME: 0 days 0 hours 0 minutes 32 seconds 808 msec
