                         Program Version 4.2.1 -  RELEASE  -
|  1> ! wB97X-D3 SP def2-SVP
|  2> %pal
|  3> nprocs 16
|  4> end
|  5>
|  6> * xyz 0 1
|  7> S 	 -28.7923 	 -1.5778 	 104.068
|  8> C 	 -28.8312 	 -2.25882 	 105.678
|  9> C 	 -28.2413 	 -1.50812 	 106.596
| 10> C 	 -27.8873 	 -0.176646 	 106.107
| 11> C 	 -28.172 	 -0.126115 	 104.732
| 12> H 	 -27.358 	 0.6392 	 106.613
| 13> C 	 -28.0379 	 -1.96322 	 108.012
| 14> H 	 -28.5971 	 -2.90568 	 108.069
| 15> H 	 -28.5099 	 -1.16368 	 108.628
| 16> C 	 -26.5407 	 -2.22186 	 108.319
| 17> H 	 -25.9204 	 -1.33299 	 108.034
| 18> H 	 -26.3673 	 -2.29638 	 109.426
| 19> C 	 -25.9368 	 -3.4551 	 107.583
| 20> H 	 -26.2945 	 -3.41077 	 106.568
| 21> H 	 -24.8561 	 -3.57521 	 107.643
| 22> H 	 -26.4101 	 -4.33961 	 108.018
| 23> S 	 -27.4102 	 0.742241 	 102.226
| 24> C 	 -27.4337 	 2.41745 	 101.86
| 25> C 	 -27.8377 	 3.18512 	 102.91
| 26> C 	 -28.0221 	 2.42553 	 104.101
| 27> C 	 -27.9013 	 1.07073 	 103.846
| 28> H 	 -27.8469 	 4.2548 	 102.841
| 29> C 	 -28.5481 	 3.03735 	 105.329
| 30> H 	 -27.8282 	 3.70514 	 105.733
| 31> H 	 -28.7533 	 2.26554 	 106.056
| 32> C 	 -29.867 	 3.76018 	 105.051
| 33> H 	 -30.4608 	 3.17671 	 104.356
| 34> H 	 -29.6896 	 4.75155 	 104.556
| 35> C 	 -30.6929 	 4.02384 	 106.311
| 36> H 	 -30.3917 	 4.93286 	 106.92
| 37> H 	 -30.5263 	 3.33012 	 107.112
| 38> H 	 -31.6777 	 4.12184 	 106.16
| 39> H 	 -29.2044 	 -3.25644 	 105.911
| 40> H 	 -27.1115 	 2.82453 	 100.889
| 41> *
| 42>
| 43>                          ****END OF INPUT****

CARTESIAN COORDINATES (ANGSTROEM)
---------------------------------
  S    -28.792300   -1.577800  104.068000
  C    -28.831200   -2.258820  105.678000
  C    -28.241300   -1.508120  106.596000
  C    -27.887300   -0.176646  106.107000
  C    -28.172000   -0.126115  104.732000
  H    -27.358000    0.639200  106.613000
  C    -28.037900   -1.963220  108.012000
  H    -28.597100   -2.905680  108.069000
  H    -28.509900   -1.163680  108.628000
  C    -26.540700   -2.221860  108.319000
  H    -25.920400   -1.332990  108.034000
  H    -26.367300   -2.296380  109.426000
  C    -25.936800   -3.455100  107.583000
  H    -26.294500   -3.410770  106.568000
  H    -24.856100   -3.575210  107.643000
  H    -26.410100   -4.339610  108.018000
  S    -27.410200    0.742241  102.226000
  C    -27.433700    2.417450  101.860000
  C    -27.837700    3.185120  102.910000
  C    -28.022100    2.425530  104.101000
  C    -27.901300    1.070730  103.846000
  H    -27.846900    4.254800  102.841000
  C    -28.548100    3.037350  105.329000
  H    -27.828200    3.705140  105.733000
  H    -28.753300    2.265540  106.056000
  C    -29.867000    3.760180  105.051000
  H    -30.460800    3.176710  104.356000
  H    -29.689600    4.751550  104.556000
  C    -30.692900    4.023840  106.311000
  H    -30.391700    4.932860  106.920000
  H    -30.526300    3.330120  107.112000
  H    -31.677700    4.121840  106.160000
  H    -29.204400   -3.256440  105.911000
  H    -27.111500    2.824530  100.889000

 Total Charge           Charge          ....    0
 Multiplicity           Mult            ....    1
 Number of Electrons    NEL             ....  134
 Basis Dimension        Dim             ....  322

ORBITAL ENERGIES
----------------

  NO   OCC          E(Eh)            E(eV)
   0   2.0000     -88.967240     -2420.9217
   1   2.0000     -88.964380     -2420.8439
   2   2.0000     -10.333916      -281.2002
   3   2.0000     -10.324550      -280.9453
   4   2.0000     -10.313136      -280.6347
   5   2.0000     -10.305333      -280.4224
   6   2.0000     -10.298080      -280.2250
   7   2.0000     -10.296675      -280.1868
   8   2.0000     -10.296645      -280.1860
   9   2.0000     -10.295692      -280.1600
  10   2.0000     -10.294783      -280.1353
  11   2.0000     -10.288540      -279.9654
  12   2.0000     -10.287009      -279.9238
  13   2.0000     -10.282105      -279.7903
  14   2.0000     -10.275848      -279.6200
  15   2.0000     -10.268132      -279.4101
  16   2.0000      -8.082873      -219.9462
  17   2.0000      -8.080417      -219.8793
  18   2.0000      -6.041341      -164.3933
  19   2.0000      -6.038806      -164.3243
  20   2.0000      -6.037520      -164.2893
  21   2.0000      -6.034785      -164.2149
  22   2.0000      -6.033360      -164.1761
  23   2.0000      -6.031211      -164.1176
  24   2.0000      -1.013086       -27.5675
  25   2.0000      -0.992701       -27.0128
  26   2.0000      -0.916889       -24.9498
  27   2.0000      -0.911765       -24.8104
  28   2.0000      -0.864646       -23.5282
  29   2.0000      -0.854811       -23.2606
  30   2.0000      -0.843702       -22.9583
  31   2.0000      -0.815680       -22.1958
  32   2.0000      -0.784614       -21.3504
  33   2.0000      -0.775234       -21.0952
  34   2.0000      -0.708961       -19.2918
  35   2.0000      -0.699936       -19.0462
  36   2.0000      -0.688031       -18.7223
  37   2.0000      -0.660766       -17.9804
  38   2.0000      -0.636941       -17.3320
  39   2.0000      -0.619454       -16.8562
  40   2.0000      -0.600318       -16.3355
  41   2.0000      -0.567527       -15.4432
  42   2.0000      -0.564296       -15.3553
  43   2.0000      -0.554314       -15.0837
  44   2.0000      -0.537783       -14.6338
  45   2.0000      -0.532884       -14.5005
  46   2.0000      -0.519989       -14.1496
  47   2.0000      -0.507718       -13.8157
  48   2.0000      -0.500490       -13.6190
  49   2.0000      -0.491767       -13.3817
  50   2.0000      -0.487712       -13.2713
  51   2.0000      -0.482807       -13.1379
  52   2.0000      -0.472002       -12.8438
  53   2.0000      -0.462019       -12.5722
  54   2.0000      -0.457646       -12.4532
  55   2.0000      -0.454125       -12.3574
  56   2.0000      -0.449514       -12.2319
  57   2.0000      -0.445533       -12.1236
  58   2.0000      -0.435856       -11.8602
  59   2.0000      -0.429811       -11.6957
  60   2.0000      -0.420684       -11.4474
  61   2.0000      -0.412213       -11.2169
  62   2.0000      -0.410835       -11.1794
  63   2.0000      -0.355775        -9.6811
  64   2.0000      -0.332362        -9.0440
  65   2.0000      -0.330690        -8.9985
  66   2.0000      -0.289222        -7.8701
  67   0.0000       0.034315         0.9337
  68   0.0000       0.081637         2.2215
  69   0.0000       0.108387         2.9494
  70   0.0000       0.120834         3.2881
  71   0.0000       0.142123         3.8674

MULLIKEN ATOMIC CHARGES
-----------------------
   0 S :    0.110044
   1 C :   -0.124220
   2 C :   -0.105987
   3 C :   -0.002401
   4 C :   -0.123845
   5 H :    0.035889
   6 C :    0.083362
   7 H :    0.016320
   8 H :    0.045641
   9 C :   -0.105199
  10 H :    0.033324
  11 H :    0.037345
  12 C :   -0.042949
  13 H :    0.036213
  14 H :    0.046379
  15 H :    0.020995
  16 S :    0.105416
  17 C :   -0.093714
  18 C :   -0.024085
  19 C :   -0.073912
  20 C :   -0.147148
  21 H :    0.011482
  22 C :    0.117717
  23 H :    0.023472
  24 H :    0.006693
  25 C :   -0.101846
  26 H :    0.040291
  27 H :    0.037712
  28 C :   -0.006050
  29 H :    0.018279
  30 H :    0.011816
  31 H :    0.011804
  32 H :    0.040828
  33 H :    0.060335
Sum of atomic charges:    0.0000000

LOEWDIN ATOMIC CHARGES
----------------------
   0 S :    0.409904
   1 C :   -0.205147
   2 C :   -0.065048
   3 C :   -0.075475
   4 C :   -0.186592
   5 H :    0.036074
   6 C :   -0.028959
   7 H :    0.029063
   8 H :    0.039449
   9 C :   -0.046784
  10 H :    0.024851
  11 H :    0.025073
  12 C :   -0.064686
  13 H :    0.024874
  14 H :    0.028885
  15 H :    0.023359
  16 S :    0.419978
  17 C :   -0.194515
  18 C :   -0.067740
  19 C :   -0.059279
  20 C :   -0.204168
  21 H :    0.029420
  22 C :   -0.029889
  23 H :    0.029051
  24 H :    0.027274
  25 C :   -0.034785
  26 H :    0.027313
  27 H :    0.028427
  28 C :   -0.064297
  29 H :    0.032320
  30 H :    0.022215
  31 H :    0.009056
  32 H :    0.028006
  33 H :    0.032771

  Mayer bond orders larger than 0.100000
B(  0-S ,  1-C ) :   1.0983 B(  0-S ,  4-C ) :   1.1698 B(  1-C ,  2-C ) :   1.6804
B(  1-C , 32-H ) :   0.9593 B(  2-C ,  3-C ) :   1.1876 B(  2-C ,  6-C ) :   1.0197
B(  3-C ,  4-C ) :   1.5842 B(  3-C ,  5-H ) :   0.9854 B(  4-C , 20-C ) :   1.0126
B(  6-C ,  7-H ) :   0.9434 B(  6-C ,  8-H ) :   0.9377 B(  6-C ,  9-C ) :   1.0547
B(  9-C , 10-H ) :   0.9607 B(  9-C , 11-H ) :   0.9600 B(  9-C , 12-C ) :   1.0600
B( 12-C , 13-H ) :   0.9775 B( 12-C , 14-H ) :   0.9757 B( 12-C , 15-H ) :   0.9746
B( 16-S , 17-C ) :   1.1587 B( 16-S , 20-C ) :   1.1482 B( 17-C , 18-C ) :   1.6108
B( 17-C , 33-H ) :   0.9647 B( 18-C , 19-C ) :   1.2353 B( 18-C , 21-H ) :   0.9942
B( 19-C , 20-C ) :   1.6022 B( 19-C , 22-C ) :   1.0693 B( 22-C , 23-H ) :   0.9104
B( 22-C , 24-H ) :   0.9294 B( 22-C , 25-C ) :   1.0704 B( 25-C , 26-H ) :   0.9627
B( 25-C , 27-H ) :   0.9465 B( 25-C , 28-C ) :   1.0846 B( 28-C , 29-H ) :   0.9681
B( 28-C , 30-H ) :   0.9733 B( 28-C , 31-H ) :   0.9756

Dispersion correction           -0.014273678
FINAL SINGLE POINT ENERGY     -1339.884111717460

DIPOLE MOMENT
-------------
                                X             Y             Z
Electronic contribution:      1.32227      -5.09743     -22.92161
Nuclear contribution   :     -1.29476       5.39995      23.38179
                        -----------------------------------------
Total Dipole Moment    :      0.02751       0.30252       0.46018
                        -----------------------------------------
Magnitude (a.u.)       :      0.55140
Magnitude (Debye)      :      1.40155

Rotational constants in cm-1:     0.019313     0.008558     0.006885
Rotational constants in MHz :   579.002919   256.565369   206.407865

                             ****ORCA TERMINATED NORMALLY****
TOTAL RUN TIME: 0 days 0 hours 0 minutes 30 seconds 887 msec
