                         Program Version 4.2.1 -  RELEASE  -
|  1> ! wB97X-D3 SP def2-SVP
|  2> %pal
|  3> nprocs 16
|  4> end
|  5>
|  6> * xyz 0 1
|  7> S 	 -52.5675 	 32.1807 	 92.4967
|  8> C 	 -53.0393 	 30.5035 	 92.2458
|  9> C 	 -54.046 	 30.1695 	 93.1586
| 10> C 	 -54.426 	 31.137 	 94.0444
| 11> C 	 -53.5316 	 32.2398 	 93.9654
| 12> H 	 -55.2103 	 31.0506 	 94.7249
| 13> C 	 -54.601 	 28.7308 	 93.3248
| 14> H 	 -54.6654 	 28.5387 	 94.3374
| 15> H 	 -53.8842 	 28.0127 	 92.815
| 16> C 	 -56.026 	 28.5109 	 92.6066
| 17> H 	 -55.8803 	 28.7347 	 91.5624
| 18> H 	 -56.3114 	 27.4385 	 92.6392
| 19> C 	 -57.2049 	 29.262 	 93.216
| 20> H 	 -58.1527 	 29.0155 	 92.7568
| 21> H 	 -57.3306 	 28.9739 	 94.2844
| 22> H 	 -56.9714 	 30.3585 	 93.0573
| 23> S 	 -52.8143 	 34.9179 	 94.1767
| 24> C 	 -53.1191 	 35.8842 	 95.5819
| 25> C 	 -53.8037 	 35.1378 	 96.4664
| 26> C 	 -53.8697 	 33.7269 	 96.1436
| 27> C 	 -53.5319 	 33.4553 	 94.8494
| 28> H 	 -54.0089 	 35.6179 	 97.3739
| 29> C 	 -54.3712 	 32.6652 	 97.0677
| 30> H 	 -54.0489 	 31.7271 	 96.5757
| 31> H 	 -55.4937 	 32.6655 	 96.966
| 32> C 	 -53.9838 	 32.6187 	 98.5687
| 33> H 	 -53.9415 	 33.6078 	 99.0697
| 34> H 	 -52.9107 	 32.3908 	 98.5933
| 35> C 	 -54.8926 	 31.6635 	 99.417
| 36> H 	 -55.0064 	 32.0289 	 100.457
| 37> H 	 -54.5382 	 30.634 	 99.4765
| 38> H 	 -55.9316 	 31.7197 	 99.0088
| 39> H 	 -52.7717 	 29.8619 	 91.4834
| 40> H 	 -52.9637 	 36.9909 	 95.772
| 41> *
| 42>
| 43>                          ****END OF INPUT****

CARTESIAN COORDINATES (ANGSTROEM)
---------------------------------
  S    -52.567500   32.180700   92.496700
  C    -53.039300   30.503500   92.245800
  C    -54.046000   30.169500   93.158600
  C    -54.426000   31.137000   94.044400
  C    -53.531600   32.239800   93.965400
  H    -55.210300   31.050600   94.724900
  C    -54.601000   28.730800   93.324800
  H    -54.665400   28.538700   94.337400
  H    -53.884200   28.012700   92.815000
  C    -56.026000   28.510900   92.606600
  H    -55.880300   28.734700   91.562400
  H    -56.311400   27.438500   92.639200
  C    -57.204900   29.262000   93.216000
  H    -58.152700   29.015500   92.756800
  H    -57.330600   28.973900   94.284400
  H    -56.971400   30.358500   93.057300
  S    -52.814300   34.917900   94.176700
  C    -53.119100   35.884200   95.581900
  C    -53.803700   35.137800   96.466400
  C    -53.869700   33.726900   96.143600
  C    -53.531900   33.455300   94.849400
  H    -54.008900   35.617900   97.373900
  C    -54.371200   32.665200   97.067700
  H    -54.048900   31.727100   96.575700
  H    -55.493700   32.665500   96.966000
  C    -53.983800   32.618700   98.568700
  H    -53.941500   33.607800   99.069700
  H    -52.910700   32.390800   98.593300
  C    -54.892600   31.663500   99.417000
  H    -55.006400   32.028900  100.457000
  H    -54.538200   30.634000   99.476500
  H    -55.931600   31.719700   99.008800
  H    -52.771700   29.861900   91.483400
  H    -52.963700   36.990900   95.772000

 Total Charge           Charge          ....    0
 Multiplicity           Mult            ....    1
 Number of Electrons    NEL             ....  134
 Basis Dimension        Dim             ....  322

ORBITAL ENERGIES
----------------

  NO   OCC          E(Eh)            E(eV)
   0   2.0000     -88.974432     -2421.1174
   1   2.0000     -88.958521     -2420.6844
   2   2.0000     -10.342907      -281.4448
   3   2.0000     -10.329718      -281.0859
   4   2.0000     -10.317924      -280.7650
   5   2.0000     -10.311664      -280.5946
   6   2.0000     -10.303461      -280.3714
   7   2.0000     -10.298285      -280.2306
   8   2.0000     -10.297080      -280.1978
   9   2.0000     -10.295209      -280.1469
  10   2.0000     -10.293905      -280.1114
  11   2.0000     -10.292225      -280.0657
  12   2.0000     -10.290057      -280.0067
  13   2.0000     -10.287764      -279.9443
  14   2.0000     -10.286042      -279.8974
  15   2.0000     -10.283809      -279.8367
  16   2.0000      -8.088273      -220.0931
  17   2.0000      -8.073866      -219.7011
  18   2.0000      -6.046762      -164.5408
  19   2.0000      -6.042960      -164.4373
  20   2.0000      -6.039045      -164.3308
  21   2.0000      -6.032570      -164.1546
  22   2.0000      -6.028305      -164.0385
  23   2.0000      -6.024352      -163.9309
  24   2.0000      -1.009435       -27.4681
  25   2.0000      -0.989330       -26.9210
  26   2.0000      -0.903980       -24.5985
  27   2.0000      -0.903386       -24.5824
  28   2.0000      -0.868479       -23.6325
  29   2.0000      -0.855656       -23.2836
  30   2.0000      -0.843059       -22.9408
  31   2.0000      -0.819597       -22.3024
  32   2.0000      -0.779496       -21.2112
  33   2.0000      -0.770311       -20.9612
  34   2.0000      -0.709273       -19.3003
  35   2.0000      -0.703333       -19.1387
  36   2.0000      -0.694898       -18.9091
  37   2.0000      -0.656703       -17.8698
  38   2.0000      -0.642069       -17.4716
  39   2.0000      -0.623806       -16.9746
  40   2.0000      -0.591655       -16.0997
  41   2.0000      -0.574750       -15.6398
  42   2.0000      -0.558618       -15.2008
  43   2.0000      -0.546011       -14.8577
  44   2.0000      -0.540626       -14.7112
  45   2.0000      -0.521705       -14.1963
  46   2.0000      -0.520410       -14.1611
  47   2.0000      -0.510201       -13.8833
  48   2.0000      -0.507910       -13.8209
  49   2.0000      -0.502674       -13.6785
  50   2.0000      -0.492606       -13.4045
  51   2.0000      -0.482279       -13.1235
  52   2.0000      -0.469695       -12.7811
  53   2.0000      -0.464919       -12.6511
  54   2.0000      -0.462256       -12.5786
  55   2.0000      -0.454384       -12.3644
  56   2.0000      -0.446587       -12.1523
  57   2.0000      -0.435931       -11.8623
  58   2.0000      -0.434480       -11.8228
  59   2.0000      -0.425845       -11.5878
  60   2.0000      -0.415144       -11.2966
  61   2.0000      -0.410900       -11.1812
  62   2.0000      -0.406823       -11.0702
  63   2.0000      -0.358522        -9.7559
  64   2.0000      -0.338355        -9.2071
  65   2.0000      -0.323216        -8.7952
  66   2.0000      -0.284117        -7.7312
  67   0.0000       0.016380         0.4457
  68   0.0000       0.086510         2.3541
  69   0.0000       0.095039         2.5861
  70   0.0000       0.116650         3.1742
  71   0.0000       0.141308         3.8452

MULLIKEN ATOMIC CHARGES
-----------------------
   0 S :    0.121458
   1 C :   -0.073882
   2 C :   -0.089649
   3 C :    0.026516
   4 C :   -0.120636
   5 H :   -0.000862
   6 C :    0.058460
   7 H :    0.017125
   8 H :    0.035368
   9 C :   -0.083769
  10 H :    0.026715
  11 H :    0.031183
  12 C :   -0.078093
  13 H :    0.037422
  14 H :    0.035386
  15 H :    0.054554
  16 S :    0.065381
  17 C :   -0.098612
  18 C :   -0.009529
  19 C :   -0.073236
  20 C :   -0.104768
  21 H :   -0.000951
  22 C :    0.005942
  23 H :    0.034589
  24 H :    0.045997
  25 C :   -0.073400
  26 H :    0.029203
  27 H :    0.032786
  28 C :   -0.067683
  29 H :    0.037149
  30 H :    0.048505
  31 H :    0.034728
  32 H :    0.014957
  33 H :    0.081647
Sum of atomic charges:   -0.0000000

LOEWDIN ATOMIC CHARGES
----------------------
   0 S :    0.413691
   1 C :   -0.190684
   2 C :   -0.061522
   3 C :   -0.059878
   4 C :   -0.174798
   5 H :    0.023004
   6 C :   -0.017720
   7 H :    0.015168
   8 H :    0.037915
   9 C :   -0.042182
  10 H :    0.019943
  11 H :    0.023143
  12 C :   -0.075958
  13 H :    0.025716
  14 H :    0.027260
  15 H :    0.033960
  16 S :    0.384929
  17 C :   -0.192365
  18 C :   -0.075613
  19 C :   -0.063880
  20 C :   -0.185863
  21 H :    0.021675
  22 C :   -0.044039
  23 H :    0.034467
  24 H :    0.034683
  25 C :   -0.048704
  26 H :    0.024994
  27 H :    0.028466
  28 C :   -0.070040
  29 H :    0.030866
  30 H :    0.027119
  31 H :    0.029841
  32 H :    0.014215
  33 H :    0.052191

  Mayer bond orders larger than 0.100000
B(  0-S ,  1-C ) :   1.1318 B(  0-S ,  4-C ) :   1.1825 B(  1-C ,  2-C ) :   1.5767
B(  1-C ,  4-C ) :   0.1156 B(  1-C , 32-H ) :   0.9754 B(  2-C ,  3-C ) :   1.3007
B(  2-C ,  6-C ) :   1.0078 B(  3-C ,  4-C ) :   1.4823 B(  3-C ,  5-H ) :   0.9984
B(  4-C , 20-C ) :   1.0604 B(  6-C ,  7-H ) :   0.9523 B(  6-C ,  8-H ) :   0.9475
B(  6-C ,  9-C ) :   1.0572 B(  9-C , 10-H ) :   0.9576 B(  9-C , 11-H ) :   0.9597
B(  9-C , 12-C ) :   1.0825 B( 12-C , 13-H ) :   0.9721 B( 12-C , 14-H ) :   0.9732
B( 12-C , 15-H ) :   0.9706 B( 16-S , 17-C ) :   1.1444 B( 16-S , 20-C ) :   1.1114
B( 17-C , 18-C ) :   1.6580 B( 17-C , 33-H ) :   0.9557 B( 18-C , 19-C ) :   1.1982
B( 18-C , 21-H ) :   0.9922 B( 19-C , 20-C ) :   1.6234 B( 19-C , 22-C ) :   1.0565
B( 22-C , 23-H ) :   0.9312 B( 22-C , 24-H ) :   0.9323 B( 22-C , 25-C ) :   1.0503
B( 25-C , 26-H ) :   0.9631 B( 25-C , 27-H ) :   0.9552 B( 25-C , 28-C ) :   1.0617
B( 28-C , 29-H ) :   0.9778 B( 28-C , 30-H ) :   0.9796 B( 28-C , 31-H ) :   0.9765

Dispersion correction           -0.013800494
FINAL SINGLE POINT ENERGY     -1339.857076814653

DIPOLE MOMENT
-------------
                                X             Y             Z
Electronic contribution:     17.40602      19.01656     -15.79238
Nuclear contribution   :    -17.81410     -19.39087      16.26845
                        -----------------------------------------
Total Dipole Moment    :     -0.40808      -0.37431       0.47608
                        -----------------------------------------
Magnitude (a.u.)       :      0.73026
Magnitude (Debye)      :      1.85618

Rotational constants in cm-1:     0.016184     0.009298     0.006530
Rotational constants in MHz :   485.183070   278.761008   195.774104

                             ****ORCA TERMINATED NORMALLY****
TOTAL RUN TIME: 0 days 0 hours 0 minutes 29 seconds 534 msec
