                         Program Version 4.2.1 -  RELEASE  -
|  1> ! wB97X-D3 SP def2-SVP
|  2> %pal
|  3> nprocs 16
|  4> end
|  5>
|  6> * xyz 0 1
|  7> S 	 -31.4431 	 69.5605 	 111.24
|  8> C 	 -31.7519 	 68.3533 	 109.964
|  9> C 	 -32.3792 	 68.9594 	 108.89
| 10> C 	 -32.7031 	 70.3417 	 109.162
| 11> C 	 -32.2545 	 70.8799 	 110.326
| 12> H 	 -33.1647 	 71.0987 	 108.474
| 13> C 	 -32.7703 	 68.2464 	 107.633
| 14> H 	 -33.8042 	 68.4998 	 107.527
| 15> H 	 -32.6782 	 67.1688 	 107.753
| 16> C 	 -32.0703 	 68.678 	 106.318
| 17> H 	 -32.3279 	 69.7272 	 106.147
| 18> H 	 -30.9319 	 68.6582 	 106.428
| 19> C 	 -32.3773 	 67.8134 	 105.045
| 20> H 	 -33.3015 	 68.1435 	 104.571
| 21> H 	 -31.6255 	 67.985 	 104.33
| 22> H 	 -32.3511 	 66.6973 	 105.336
| 23> S 	 -33.5945 	 72.4618 	 112.01
| 24> C 	 -33.6748 	 74.1608 	 111.684
| 25> C 	 -32.7449 	 74.5545 	 110.714
| 26> C 	 -31.9948 	 73.4393 	 110.192
| 27> C 	 -32.4174 	 72.2251 	 110.737
| 28> H 	 -32.8074 	 75.5729 	 110.413
| 29> C 	 -31.1061 	 73.5683 	 109.037
| 30> H 	 -30.6502 	 72.6049 	 108.849
| 31> H 	 -30.2048 	 74.1209 	 109.381
| 32> C 	 -31.6975 	 74.0609 	 107.746
| 33> H 	 -32.0609 	 75.0717 	 107.923
| 34> H 	 -32.5243 	 73.3099 	 107.603
| 35> C 	 -30.7437 	 74.0282 	 106.645
| 36> H 	 -31.2373 	 74.1804 	 105.663
| 37> H 	 -30.2061 	 73.0921 	 106.619
| 38> H 	 -30.0177 	 74.8465 	 106.713
| 39> H 	 -31.5323 	 67.2592 	 109.994
| 40> H 	 -34.259 	 74.8815 	 112.242
| 41> *
| 42>
| 43>                          ****END OF INPUT****

CARTESIAN COORDINATES (ANGSTROEM)
---------------------------------
  S    -31.443100   69.560500  111.240000
  C    -31.751900   68.353300  109.964000
  C    -32.379200   68.959400  108.890000
  C    -32.703100   70.341700  109.162000
  C    -32.254500   70.879900  110.326000
  H    -33.164700   71.098700  108.474000
  C    -32.770300   68.246400  107.633000
  H    -33.804200   68.499800  107.527000
  H    -32.678200   67.168800  107.753000
  C    -32.070300   68.678000  106.318000
  H    -32.327900   69.727200  106.147000
  H    -30.931900   68.658200  106.428000
  C    -32.377300   67.813400  105.045000
  H    -33.301500   68.143500  104.571000
  H    -31.625500   67.985000  104.330000
  H    -32.351100   66.697300  105.336000
  S    -33.594500   72.461800  112.010000
  C    -33.674800   74.160800  111.684000
  C    -32.744900   74.554500  110.714000
  C    -31.994800   73.439300  110.192000
  C    -32.417400   72.225100  110.737000
  H    -32.807400   75.572900  110.413000
  C    -31.106100   73.568300  109.037000
  H    -30.650200   72.604900  108.849000
  H    -30.204800   74.120900  109.381000
  C    -31.697500   74.060900  107.746000
  H    -32.060900   75.071700  107.923000
  H    -32.524300   73.309900  107.603000
  C    -30.743700   74.028200  106.645000
  H    -31.237300   74.180400  105.663000
  H    -30.206100   73.092100  106.619000
  H    -30.017700   74.846500  106.713000
  H    -31.532300   67.259200  109.994000
  H    -34.259000   74.881500  112.242000

 Total Charge           Charge          ....    0
 Multiplicity           Mult            ....    1
 Number of Electrons    NEL             ....  134
 Basis Dimension        Dim             ....  322

ORBITAL ENERGIES
----------------

  NO   OCC          E(Eh)            E(eV)
   0   2.0000     -88.965080     -2420.8629
   1   2.0000     -88.961886     -2420.7760
   2   2.0000     -10.327498      -281.0255
   3   2.0000     -10.323876      -280.9269
   4   2.0000     -10.321423      -280.8602
   5   2.0000     -10.319300      -280.8024
   6   2.0000     -10.306832      -280.4632
   7   2.0000     -10.303301      -280.3671
   8   2.0000     -10.296846      -280.1914
   9   2.0000     -10.295522      -280.1554
  10   2.0000     -10.295276      -280.1487
  11   2.0000     -10.290866      -280.0287
  12   2.0000     -10.286057      -279.8978
  13   2.0000     -10.285866      -279.8926
  14   2.0000     -10.283024      -279.8153
  15   2.0000     -10.276704      -279.6433
  16   2.0000      -8.080333      -219.8770
  17   2.0000      -8.075505      -219.7457
  18   2.0000      -6.038706      -164.3215
  19   2.0000      -6.034694      -164.2124
  20   2.0000      -6.034259      -164.2005
  21   2.0000      -6.031258      -164.1189
  22   2.0000      -6.030160      -164.0890
  23   2.0000      -6.026045      -163.9770
  24   2.0000      -1.007179       -27.4067
  25   2.0000      -0.980121       -26.6704
  26   2.0000      -0.925866       -25.1941
  27   2.0000      -0.907905       -24.7054
  28   2.0000      -0.873328       -23.7645
  29   2.0000      -0.860118       -23.4050
  30   2.0000      -0.841300       -22.8930
  31   2.0000      -0.816849       -22.2276
  32   2.0000      -0.783394       -21.3172
  33   2.0000      -0.770899       -20.9772
  34   2.0000      -0.709975       -19.3194
  35   2.0000      -0.698632       -19.0107
  36   2.0000      -0.692901       -18.8548
  37   2.0000      -0.660398       -17.9703
  38   2.0000      -0.641664       -17.4606
  39   2.0000      -0.616262       -16.7693
  40   2.0000      -0.600501       -16.3405
  41   2.0000      -0.577926       -15.7262
  42   2.0000      -0.566960       -15.4278
  43   2.0000      -0.560756       -15.2590
  44   2.0000      -0.530693       -14.4409
  45   2.0000      -0.523982       -14.2583
  46   2.0000      -0.519158       -14.1270
  47   2.0000      -0.518556       -14.1106
  48   2.0000      -0.507305       -13.8045
  49   2.0000      -0.502295       -13.6681
  50   2.0000      -0.495618       -13.4864
  51   2.0000      -0.481933       -13.1141
  52   2.0000      -0.469198       -12.7675
  53   2.0000      -0.467356       -12.7174
  54   2.0000      -0.458101       -12.4656
  55   2.0000      -0.449600       -12.2342
  56   2.0000      -0.444535       -12.0964
  57   2.0000      -0.431289       -11.7360
  58   2.0000      -0.430387       -11.7114
  59   2.0000      -0.425995       -11.5919
  60   2.0000      -0.423057       -11.5120
  61   2.0000      -0.415375       -11.3029
  62   2.0000      -0.410167       -11.1612
  63   2.0000      -0.339090        -9.2271
  64   2.0000      -0.327891        -8.9224
  65   2.0000      -0.324240        -8.8230
  66   2.0000      -0.304113        -8.2753
  67   0.0000       0.035987         0.9793
  68   0.0000       0.058539         1.5929
  69   0.0000       0.115755         3.1498
  70   0.0000       0.122369         3.3298
  71   0.0000       0.125337         3.4106

MULLIKEN ATOMIC CHARGES
-----------------------
   0 S :    0.092134
   1 C :   -0.136446
   2 C :   -0.079433
   3 C :    0.025081
   4 C :   -0.157535
   5 H :    0.025951
   6 C :    0.096432
   7 H :    0.027568
   8 H :    0.011685
   9 C :   -0.123075
  10 H :    0.026779
  11 H :    0.038030
  12 C :   -0.042905
  13 H :    0.037626
  14 H :    0.027569
  15 H :    0.046071
  16 S :    0.120965
  17 C :   -0.097233
  18 C :   -0.049853
  19 C :    0.007350
  20 C :   -0.183892
  21 H :    0.015912
  22 C :    0.039131
  23 H :    0.009679
  24 H :    0.027697
  25 C :   -0.058540
  26 H :    0.027667
  27 H :    0.029433
  28 C :   -0.016629
  29 H :    0.035732
  30 H :    0.025582
  31 H :    0.026085
  32 H :    0.067478
  33 H :    0.057903
Sum of atomic charges:    0.0000000

LOEWDIN ATOMIC CHARGES
----------------------
   0 S :    0.361824
   1 C :   -0.189575
   2 C :   -0.066520
   3 C :   -0.064659
   4 C :   -0.190450
   5 H :    0.036614
   6 C :   -0.032697
   7 H :    0.032348
   8 H :    0.026524
   9 C :   -0.045456
  10 H :    0.020343
  11 H :    0.028689
  12 C :   -0.066328
  13 H :    0.025305
  14 H :    0.020361
  15 H :    0.036262
  16 S :    0.422713
  17 C :   -0.184476
  18 C :   -0.071420
  19 C :   -0.043340
  20 C :   -0.205683
  21 H :    0.028300
  22 C :   -0.044889
  23 H :    0.027443
  24 H :    0.035571
  25 C :   -0.041150
  26 H :    0.023787
  27 H :    0.029553
  28 C :   -0.063269
  29 H :    0.031274
  30 H :    0.024679
  31 H :    0.027349
  32 H :    0.042071
  33 H :    0.028903

  Mayer bond orders larger than 0.100000
B(  0-S ,  1-C ) :   1.1231 B(  0-S ,  4-C ) :   1.1056 B(  1-C ,  2-C ) :   1.6338
B(  1-C , 32-H ) :   0.9610 B(  2-C ,  3-C ) :   1.1982 B(  2-C ,  6-C ) :   1.0374
B(  3-C ,  4-C ) :   1.6322 B(  3-C ,  5-H ) :   0.9801 B(  4-C , 20-C ) :   1.0486
B(  6-C ,  7-H ) :   0.9338 B(  6-C ,  8-H ) :   0.9398 B(  6-C ,  9-C ) :   1.0557
B(  9-C , 10-H ) :   0.9556 B(  9-C , 11-H ) :   0.9618 B(  9-C , 12-C ) :   1.0774
B( 12-C , 13-H ) :   0.9767 B( 12-C , 14-H ) :   0.9764 B( 12-C , 15-H ) :   0.9741
B( 16-S , 17-C ) :   1.1731 B( 16-S , 20-C ) :   1.1438 B( 17-C , 18-C ) :   1.6111
B( 17-C , 20-C ) :   0.1001 B( 17-C , 33-H ) :   0.9654 B( 18-C , 19-C ) :   1.2105
B( 18-C , 21-H ) :   0.9982 B( 19-C , 20-C ) :   1.5813 B( 19-C , 22-C ) :   1.0775
B( 22-C , 23-H ) :   0.9216 B( 22-C , 24-H ) :   0.9141 B( 22-C , 25-C ) :   1.0606
B( 25-C , 26-H ) :   0.9459 B( 25-C , 27-H ) :   0.9474 B( 25-C , 28-C ) :   1.1063
B( 28-C , 29-H ) :   0.9698 B( 28-C , 30-H ) :   0.9690 B( 28-C , 31-H ) :   0.9682

Dispersion correction           -0.014305002
FINAL SINGLE POINT ENERGY     -1339.877669226770

DIPOLE MOMENT
-------------
                                X             Y             Z
Electronic contribution:     -4.76158       0.31363      31.79147
Nuclear contribution   :      4.70779      -0.05303     -32.58511
                        -----------------------------------------
Total Dipole Moment    :     -0.05379       0.26060      -0.79364
                        -----------------------------------------
Magnitude (a.u.)       :      0.83706
Magnitude (Debye)      :      2.12764

Rotational constants in cm-1:     0.016893     0.009246     0.006719
Rotational constants in MHz :   506.427174   277.184531   201.430300

                             ****ORCA TERMINATED NORMALLY****
TOTAL RUN TIME: 0 days 0 hours 0 minutes 30 seconds 432 msec
