                         Program Version 4.2.1 -  RELEASE  -
|  1> ! wB97X-D3 SP def2-SVP
|  2> %pal
|  3> nprocs 16
|  4> end
|  5>
|  6> * xyz 0 1
|  7> S 	 0.27786 	 8.47286 	 80.3798
|  8> C 	 0.883877 	 8.25484 	 78.7297
|  9> C 	 0.30372 	 9.1623 	 77.8773
| 10> C 	 -0.793579 	 9.80608 	 78.4977
| 11> C 	 -0.901121 	 9.62863 	 79.8068
| 12> H 	 -1.4799 	 10.3718 	 78.0222
| 13> C 	 0.58825 	 9.45522 	 76.4385
| 14> H 	 1.61037 	 9.63957 	 76.3054
| 15> H 	 0.0284637 	 10.3185 	 76.0789
| 16> C 	 0.209779 	 8.21924 	 75.6935
| 17> H 	 0.524108 	 7.27733 	 76.2135
| 18> H 	 -0.837684 	 8.22753 	 75.6874
| 19> C 	 0.840324 	 8.19646 	 74.3406
| 20> H 	 0.421041 	 8.98961 	 73.7482
| 21> H 	 1.92157 	 8.32803 	 74.4151
| 22> H 	 0.669364 	 7.31957 	 73.8211
| 23> S 	 -0.936833 	 11.0606 	 82.1308
| 24> C 	 -2.44631 	 11.9567 	 82.5755
| 25> C 	 -3.42447 	 11.8259 	 81.6408
| 26> C 	 -3.02727 	 10.8708 	 80.613
| 27> C 	 -1.75494 	 10.395 	 80.7377
| 28> H 	 -4.32475 	 12.3143 	 81.7406
| 29> C 	 -4.0426 	 10.4506 	 79.4728
| 30> H 	 -4.5699 	 9.58947 	 79.8337
| 31> H 	 -3.38726 	 10.1536 	 78.6
| 32> C 	 -5.16623 	 11.3626 	 79.0383
| 33> H 	 -4.61662 	 12.3234 	 78.7798
| 34> H 	 -5.75561 	 11.5736 	 79.9134
| 35> C 	 -6.02351 	 10.8768 	 77.9099
| 36> H 	 -5.54271 	 10.4255 	 77.0471
| 37> H 	 -6.74737 	 11.5529 	 77.443
| 38> H 	 -6.64234 	 10.0971 	 78.3362
| 39> H 	 1.67665 	 7.61526 	 78.3575
| 40> H 	 -2.47989 	 12.7476 	 83.3636
| 41> *
| 42>
| 43>                          ****END OF INPUT****

CARTESIAN COORDINATES (ANGSTROEM)
---------------------------------
  S      0.277860    8.472860   80.379800
  C      0.883877    8.254840   78.729700
  C      0.303720    9.162300   77.877300
  C     -0.793579    9.806080   78.497700
  C     -0.901121    9.628630   79.806800
  H     -1.479900   10.371800   78.022200
  C      0.588250    9.455220   76.438500
  H      1.610370    9.639570   76.305400
  H      0.028464   10.318500   76.078900
  C      0.209779    8.219240   75.693500
  H      0.524108    7.277330   76.213500
  H     -0.837684    8.227530   75.687400
  C      0.840324    8.196460   74.340600
  H      0.421041    8.989610   73.748200
  H      1.921570    8.328030   74.415100
  H      0.669364    7.319570   73.821100
  S     -0.936833   11.060600   82.130800
  C     -2.446310   11.956700   82.575500
  C     -3.424470   11.825900   81.640800
  C     -3.027270   10.870800   80.613000
  C     -1.754940   10.395000   80.737700
  H     -4.324750   12.314300   81.740600
  C     -4.042600   10.450600   79.472800
  H     -4.569900    9.589470   79.833700
  H     -3.387260   10.153600   78.600000
  C     -5.166230   11.362600   79.038300
  H     -4.616620   12.323400   78.779800
  H     -5.755610   11.573600   79.913400
  C     -6.023510   10.876800   77.909900
  H     -5.542710   10.425500   77.047100
  H     -6.747370   11.552900   77.443000
  H     -6.642340   10.097100   78.336200
  H      1.676650    7.615260   78.357500
  H     -2.479890   12.747600   83.363600

 Total Charge           Charge          ....    0
 Multiplicity           Mult            ....    1
 Number of Electrons    NEL             ....  134
 Basis Dimension        Dim             ....  322

ORBITAL ENERGIES
----------------

  NO   OCC          E(Eh)            E(eV)
   0   2.0000     -88.965672     -2420.8790
   1   2.0000     -88.964502     -2420.8472
   2   2.0000     -10.327250      -281.0188
   3   2.0000     -10.323427      -280.9147
   4   2.0000     -10.322308      -280.8843
   5   2.0000     -10.312187      -280.6089
   6   2.0000     -10.307360      -280.4775
   7   2.0000     -10.294842      -280.1369
   8   2.0000     -10.294815      -280.1362
   9   2.0000     -10.292715      -280.0790
  10   2.0000     -10.290390      -280.0157
  11   2.0000     -10.283122      -279.8180
  12   2.0000     -10.280223      -279.7391
  13   2.0000     -10.277773      -279.6724
  14   2.0000     -10.275841      -279.6199
  15   2.0000     -10.267414      -279.3905
  16   2.0000      -8.080033      -219.8689
  17   2.0000      -8.078639      -219.8309
  18   2.0000      -6.038688      -164.3211
  19   2.0000      -6.037292      -164.2831
  20   2.0000      -6.034709      -164.2128
  21   2.0000      -6.033403      -164.1772
  22   2.0000      -6.030543      -164.0994
  23   2.0000      -6.029087      -164.0598
  24   2.0000      -1.009852       -27.4795
  25   2.0000      -0.983791       -26.7703
  26   2.0000      -0.928769       -25.2731
  27   2.0000      -0.911219       -24.7955
  28   2.0000      -0.872759       -23.7490
  29   2.0000      -0.855503       -23.2794
  30   2.0000      -0.845466       -23.0063
  31   2.0000      -0.822159       -22.3721
  32   2.0000      -0.785756       -21.3815
  33   2.0000      -0.776588       -21.1320
  34   2.0000      -0.706802       -19.2330
  35   2.0000      -0.703851       -19.1528
  36   2.0000      -0.693501       -18.8711
  37   2.0000      -0.662252       -18.0208
  38   2.0000      -0.645313       -17.5599
  39   2.0000      -0.629969       -17.1423
  40   2.0000      -0.592392       -16.1198
  41   2.0000      -0.584286       -15.8992
  42   2.0000      -0.575542       -15.6613
  43   2.0000      -0.566995       -15.4287
  44   2.0000      -0.532498       -14.4900
  45   2.0000      -0.528508       -14.3814
  46   2.0000      -0.517180       -14.0732
  47   2.0000      -0.513156       -13.9637
  48   2.0000      -0.507566       -13.8116
  49   2.0000      -0.499293       -13.5865
  50   2.0000      -0.495921       -13.4947
  51   2.0000      -0.486675       -13.2431
  52   2.0000      -0.480344       -13.0708
  53   2.0000      -0.465800       -12.6751
  54   2.0000      -0.462941       -12.5973
  55   2.0000      -0.454254       -12.3609
  56   2.0000      -0.443631       -12.0718
  57   2.0000      -0.438348       -11.9281
  58   2.0000      -0.428650       -11.6642
  59   2.0000      -0.426428       -11.6037
  60   2.0000      -0.421518       -11.4701
  61   2.0000      -0.418292       -11.3823
  62   2.0000      -0.406735       -11.0678
  63   2.0000      -0.355006        -9.6602
  64   2.0000      -0.332292        -9.0421
  65   2.0000      -0.327096        -8.9007
  66   2.0000      -0.290658        -7.9092
  67   0.0000       0.033538         0.9126
  68   0.0000       0.071849         1.9551
  69   0.0000       0.101331         2.7574
  70   0.0000       0.125918         3.4264
  71   0.0000       0.131668         3.5829

MULLIKEN ATOMIC CHARGES
-----------------------
   0 S :    0.107212
   1 C :   -0.117223
   2 C :   -0.112828
   3 C :    0.049889
   4 C :   -0.124042
   5 H :   -0.044772
   6 C :    0.130642
   7 H :    0.007494
   8 H :    0.024132
   9 C :   -0.100089
  10 H :    0.033384
  11 H :    0.009491
  12 C :    0.020257
  13 H :    0.016112
  14 H :    0.025456
  15 H :    0.014438
  16 S :    0.086234
  17 C :   -0.094177
  18 C :   -0.005395
  19 C :   -0.053740
  20 C :   -0.114114
  21 H :   -0.004821
  22 C :    0.051067
  23 H :    0.029341
  24 H :    0.023140
  25 C :   -0.087322
  26 H :    0.030837
  27 H :    0.032254
  28 C :   -0.029799
  29 H :    0.027347
  30 H :    0.037024
  31 H :    0.021235
  32 H :    0.041698
  33 H :    0.069639
Sum of atomic charges:    0.0000000

LOEWDIN ATOMIC CHARGES
----------------------
   0 S :    0.393876
   1 C :   -0.195963
   2 C :   -0.049124
   3 C :   -0.057499
   4 C :   -0.183587
   5 H :    0.008785
   6 C :   -0.020833
   7 H :    0.022168
   8 H :    0.032696
   9 C :   -0.035904
  10 H :    0.028250
  11 H :    0.017810
  12 C :   -0.056956
  13 H :    0.022823
  14 H :    0.026070
  15 H :    0.015432
  16 S :    0.375678
  17 C :   -0.166680
  18 C :   -0.059507
  19 C :   -0.056661
  20 C :   -0.190260
  21 H :    0.020689
  22 C :   -0.032839
  23 H :    0.028385
  24 H :    0.031896
  25 C :   -0.049936
  26 H :    0.026175
  27 H :    0.021806
  28 C :   -0.068190
  29 H :    0.026060
  30 H :    0.032157
  31 H :    0.027052
  32 H :    0.028921
  33 H :    0.037208

  Mayer bond orders larger than 0.100000
B(  0-S ,  1-C ) :   1.1168 B(  0-S ,  4-C ) :   1.1329 B(  1-C ,  2-C ) :   1.6410
B(  1-C , 32-H ) :   0.9630 B(  2-C ,  3-C ) :   1.2277 B(  2-C ,  6-C ) :   1.0217
B(  3-C ,  4-C ) :   1.6135 B(  3-C ,  5-H ) :   1.0027 B(  4-C , 20-C ) :   1.0034
B(  6-C ,  7-H ) :   0.9294 B(  6-C ,  8-H ) :   0.9378 B(  6-C ,  9-C ) :   1.0589
B(  9-C , 10-H ) :   0.9636 B(  9-C , 11-H ) :   0.9502 B(  9-C , 12-C ) :   1.0861
B( 12-C , 13-H ) :   0.9658 B( 12-C , 14-H ) :   0.9743 B( 12-C , 15-H ) :   0.9687
B( 16-S , 17-C ) :   1.1239 B( 16-S , 20-C ) :   1.1236 B( 17-C , 18-C ) :   1.6628
B( 17-C , 33-H ) :   0.9566 B( 18-C , 19-C ) :   1.1943 B( 18-C , 21-H ) :   1.0022
B( 19-C , 20-C ) :   1.6740 B( 19-C , 22-C ) :   1.0136 B( 22-C , 23-H ) :   0.9321
B( 22-C , 24-H ) :   0.9396 B( 22-C , 25-C ) :   1.0704 B( 25-C , 26-H ) :   0.9576
B( 25-C , 27-H ) :   0.9456 B( 25-C , 28-C ) :   1.0827 B( 28-C , 29-H ) :   0.9756
B( 28-C , 30-H ) :   0.9726 B( 28-C , 31-H ) :   0.9700

Dispersion correction           -0.013399116
FINAL SINGLE POINT ENERGY     -1339.853124711680

DIPOLE MOMENT
-------------
                                X             Y             Z
Electronic contribution:     12.57146       0.56662      28.14639
Nuclear contribution   :    -12.99012      -0.34178     -28.87353
                        -----------------------------------------
Total Dipole Moment    :     -0.41866       0.22484      -0.72714
                        -----------------------------------------
Magnitude (a.u.)       :      0.86865
Magnitude (Debye)      :      2.20795

Rotational constants in cm-1:     0.017058     0.008640     0.006106
Rotational constants in MHz :   511.384628   259.027757   183.056415

                             ****ORCA TERMINATED NORMALLY****
TOTAL RUN TIME: 0 days 0 hours 0 minutes 33 seconds 637 msec
