                         Program Version 4.2.1 -  RELEASE  -
|  1> ! wB97X-D3 SP def2-SVP
|  2> %pal
|  3> nprocs 16
|  4> end
|  5>
|  6> * xyz 0 1
|  7> S 	 -79.8838 	 46.1931 	 128.784
|  8> C 	 -81.5284 	 46.2798 	 128.298
|  9> C 	 -82.3898 	 46.4207 	 129.345
| 10> C 	 -81.7361 	 46.4235 	 130.592
| 11> C 	 -80.3463 	 46.2234 	 130.456
| 12> H 	 -82.2312 	 46.4803 	 131.576
| 13> C 	 -83.8546 	 46.5426 	 129.265
| 14> H 	 -84.3138 	 45.7419 	 129.813
| 15> H 	 -84.0884 	 46.4027 	 128.211
| 16> C 	 -84.5139 	 47.8485 	 129.619
| 17> H 	 -85.6139 	 47.7938 	 129.455
| 18> H 	 -84.3832 	 47.8348 	 130.765
| 19> C 	 -83.817 	 49.057 	 128.894
| 20> H 	 -84.3024 	 50.0219 	 129.075
| 21> H 	 -82.8063 	 49.2101 	 129.201
| 22> H 	 -83.8587 	 48.878 	 127.88
| 23> S 	 -78.0161 	 46.9202 	 131.757
| 24> C 	 -77.6031 	 46.3617 	 133.352
| 25> C 	 -78.5086 	 45.3773 	 133.643
| 26> C 	 -79.6131 	 45.1183 	 132.695
| 27> C 	 -79.4174 	 45.9137 	 131.583
| 28> H 	 -78.4756 	 44.8502 	 134.594
| 29> C 	 -80.8111 	 44.1812 	 132.914
| 30> H 	 -80.4924 	 43.2578 	 133.334
| 31> H 	 -81.1954 	 43.7613 	 132.014
| 32> C 	 -81.7796 	 44.8673 	 133.948
| 33> H 	 -82.0637 	 45.9035 	 133.687
| 34> H 	 -81.2583 	 44.967 	 134.922
| 35> C 	 -83.116 	 44.1488 	 134.134
| 36> H 	 -83.6871 	 44.548 	 134.92
| 37> H 	 -83.0323 	 43.0665 	 134.357
| 38> H 	 -83.7061 	 44.287 	 133.173
| 39> H 	 -81.9275 	 46.1266 	 127.255
| 40> H 	 -76.7524 	 46.5324 	 133.955
| 41> *
| 42>
| 43>                          ****END OF INPUT****

CARTESIAN COORDINATES (ANGSTROEM)
---------------------------------
  S    -79.883800   46.193100  128.784000
  C    -81.528400   46.279800  128.298000
  C    -82.389800   46.420700  129.345000
  C    -81.736100   46.423500  130.592000
  C    -80.346300   46.223400  130.456000
  H    -82.231200   46.480300  131.576000
  C    -83.854600   46.542600  129.265000
  H    -84.313800   45.741900  129.813000
  H    -84.088400   46.402700  128.211000
  C    -84.513900   47.848500  129.619000
  H    -85.613900   47.793800  129.455000
  H    -84.383200   47.834800  130.765000
  C    -83.817000   49.057000  128.894000
  H    -84.302400   50.021900  129.075000
  H    -82.806300   49.210100  129.201000
  H    -83.858700   48.878000  127.880000
  S    -78.016100   46.920200  131.757000
  C    -77.603100   46.361700  133.352000
  C    -78.508600   45.377300  133.643000
  C    -79.613100   45.118300  132.695000
  C    -79.417400   45.913700  131.583000
  H    -78.475600   44.850200  134.594000
  C    -80.811100   44.181200  132.914000
  H    -80.492400   43.257800  133.334000
  H    -81.195400   43.761300  132.014000
  C    -81.779600   44.867300  133.948000
  H    -82.063700   45.903500  133.687000
  H    -81.258300   44.967000  134.922000
  C    -83.116000   44.148800  134.134000
  H    -83.687100   44.548000  134.920000
  H    -83.032300   43.066500  134.357000
  H    -83.706100   44.287000  133.173000
  H    -81.927500   46.126600  127.255000
  H    -76.752400   46.532400  133.955000

 Total Charge           Charge          ....    0
 Multiplicity           Mult            ....    1
 Number of Electrons    NEL             ....  134
 Basis Dimension        Dim             ....  322

ORBITAL ENERGIES
----------------

  NO   OCC          E(Eh)            E(eV)
   0   2.0000     -88.970550     -2421.0118
   1   2.0000     -88.960271     -2420.7320
   2   2.0000     -10.332131      -281.1516
   3   2.0000     -10.326940      -281.0103
   4   2.0000     -10.314793      -280.6798
   5   2.0000     -10.313093      -280.6335
   6   2.0000     -10.307907      -280.4924
   7   2.0000     -10.296358      -280.1781
   8   2.0000     -10.296203      -280.1739
   9   2.0000     -10.295887      -280.1653
  10   2.0000     -10.295289      -280.1491
  11   2.0000     -10.295084      -280.1435
  12   2.0000     -10.292338      -280.0688
  13   2.0000     -10.282735      -279.8075
  14   2.0000     -10.281943      -279.7859
  15   2.0000     -10.270688      -279.4796
  16   2.0000      -8.085837      -220.0268
  17   2.0000      -8.075637      -219.7493
  18   2.0000      -6.044257      -164.4726
  19   2.0000      -6.040253      -164.3636
  20   2.0000      -6.036675      -164.2663
  21   2.0000      -6.034294      -164.2015
  22   2.0000      -6.029882      -164.0814
  23   2.0000      -6.026359      -163.9856
  24   2.0000      -1.009594       -27.4725
  25   2.0000      -0.989035       -26.9130
  26   2.0000      -0.918159       -24.9844
  27   2.0000      -0.906650       -24.6712
  28   2.0000      -0.866820       -23.5874
  29   2.0000      -0.850239       -23.1362
  30   2.0000      -0.843499       -22.9528
  31   2.0000      -0.813751       -22.1433
  32   2.0000      -0.786606       -21.4046
  33   2.0000      -0.778260       -21.1775
  34   2.0000      -0.707187       -19.2435
  35   2.0000      -0.702534       -19.1169
  36   2.0000      -0.693203       -18.8630
  37   2.0000      -0.659780       -17.9535
  38   2.0000      -0.633122       -17.2281
  39   2.0000      -0.622307       -16.9338
  40   2.0000      -0.597378       -16.2555
  41   2.0000      -0.567230       -15.4351
  42   2.0000      -0.559919       -15.2362
  43   2.0000      -0.556357       -15.1392
  44   2.0000      -0.544451       -14.8153
  45   2.0000      -0.530747       -14.4424
  46   2.0000      -0.521365       -14.1871
  47   2.0000      -0.512169       -13.9368
  48   2.0000      -0.507370       -13.8062
  49   2.0000      -0.491958       -13.3869
  50   2.0000      -0.490446       -13.3457
  51   2.0000      -0.482746       -13.1362
  52   2.0000      -0.471429       -12.8282
  53   2.0000      -0.464825       -12.6485
  54   2.0000      -0.457942       -12.4612
  55   2.0000      -0.448267       -12.1980
  56   2.0000      -0.443846       -12.0777
  57   2.0000      -0.441347       -12.0097
  58   2.0000      -0.437951       -11.9172
  59   2.0000      -0.429069       -11.6756
  60   2.0000      -0.419156       -11.4058
  61   2.0000      -0.414263       -11.2727
  62   2.0000      -0.404238       -10.9999
  63   2.0000      -0.347819        -9.4646
  64   2.0000      -0.334984        -9.1154
  65   2.0000      -0.324036        -8.8175
  66   2.0000      -0.296335        -8.0637
  67   0.0000       0.034483         0.9383
  68   0.0000       0.072945         1.9849
  69   0.0000       0.113714         3.0943
  70   0.0000       0.119919         3.2632
  71   0.0000       0.127139         3.4596

MULLIKEN ATOMIC CHARGES
-----------------------
   0 S :    0.133543
   1 C :   -0.133494
   2 C :   -0.107388
   3 C :    0.027554
   4 C :   -0.149408
   5 H :    0.008814
   6 C :    0.088744
   7 H :    0.028381
   8 H :   -0.003173
   9 C :   -0.108838
  10 H :    0.044159
  11 H :    0.028397
  12 C :   -0.011447
  13 H :    0.031727
  14 H :    0.043145
  15 H :    0.011705
  16 S :    0.090216
  17 C :   -0.059580
  18 C :   -0.049769
  19 C :   -0.069228
  20 C :   -0.138746
  21 H :    0.015327
  22 C :    0.121933
  23 H :    0.006421
  24 H :    0.023657
  25 C :   -0.115199
  26 H :    0.039599
  27 H :    0.034978
  28 C :   -0.036309
  29 H :    0.026835
  30 H :    0.032084
  31 H :    0.035013
  32 H :    0.061384
  33 H :    0.048962
Sum of atomic charges:    0.0000000

LOEWDIN ATOMIC CHARGES
----------------------
   0 S :    0.433477
   1 C :   -0.217274
   2 C :   -0.073358
   3 C :   -0.058631
   4 C :   -0.198943
   5 H :    0.034106
   6 C :   -0.037288
   7 H :    0.029902
   8 H :    0.023047
   9 C :   -0.041627
  10 H :    0.029391
  11 H :    0.024478
  12 C :   -0.055855
  13 H :    0.028874
  14 H :    0.028639
  15 H :    0.014188
  16 S :    0.407301
  17 C :   -0.189541
  18 C :   -0.070563
  19 C :   -0.054729
  20 C :   -0.201958
  21 H :    0.025078
  22 C :   -0.027173
  23 H :    0.029335
  24 H :    0.030481
  25 C :   -0.039754
  26 H :    0.023109
  27 H :    0.027531
  28 C :   -0.068934
  29 H :    0.018706
  30 H :    0.025368
  31 H :    0.030776
  32 H :    0.041023
  33 H :    0.030817

  Mayer bond orders larger than 0.100000
B(  0-S ,  1-C ) :   1.1448 B(  0-S ,  4-C ) :   1.1794 B(  1-C ,  2-C ) :   1.6106
B(  1-C , 32-H ) :   0.9503 B(  2-C ,  3-C ) :   1.2571 B(  2-C ,  6-C ) :   1.0319
B(  3-C ,  4-C ) :   1.5416 B(  3-C ,  5-H ) :   0.9917 B(  4-C , 20-C ) :   0.9917
B(  6-C ,  7-H ) :   0.9345 B(  6-C ,  8-H ) :   0.9299 B(  6-C ,  9-C ) :   1.0726
B(  9-C , 10-H ) :   0.9575 B(  9-C , 11-H ) :   0.9560 B(  9-C , 12-C ) :   1.0614
B( 12-C , 13-H ) :   0.9756 B( 12-C , 14-H ) :   0.9714 B( 12-C , 15-H ) :   0.9776
B( 16-S , 17-C ) :   1.1342 B( 16-S , 20-C ) :   1.1541 B( 17-C , 18-C ) :   1.6246
B( 17-C , 33-H ) :   0.9742 B( 18-C , 19-C ) :   1.2297 B( 18-C , 21-H ) :   0.9813
B( 19-C , 20-C ) :   1.6178 B( 19-C , 22-C ) :   1.0489 B( 22-C , 23-H ) :   0.9222
B( 22-C , 24-H ) :   0.9414 B( 22-C , 25-C ) :   1.0350 B( 25-C , 26-H ) :   0.9576
B( 25-C , 27-H ) :   0.9543 B( 25-C , 28-C ) :   1.0847 B( 28-C , 29-H ) :   0.9733
B( 28-C , 30-H ) :   0.9722 B( 28-C , 31-H ) :   0.9747

Dispersion correction           -0.015209887
FINAL SINGLE POINT ENERGY     -1339.874949755431

DIPOLE MOMENT
-------------
                                X             Y             Z
Electronic contribution:     27.07761       1.30290      -7.86729
Nuclear contribution   :    -27.68401      -1.59924       8.22839
                        -----------------------------------------
Total Dipole Moment    :     -0.60640      -0.29634       0.36110
                        -----------------------------------------
Magnitude (a.u.)       :      0.76546
Magnitude (Debye)      :      1.94565

Rotational constants in cm-1:     0.017569     0.009721     0.007261
Rotational constants in MHz :   526.700367   291.433789   217.665375

                             ****ORCA TERMINATED NORMALLY****
TOTAL RUN TIME: 0 days 0 hours 0 minutes 35 seconds 269 msec
