                         Program Version 4.2.1 -  RELEASE  -
|  1> ! wB97X-D3 SP def2-SVP
|  2> %pal
|  3> nprocs 16
|  4> end
|  5>
|  6> * xyz 0 1
|  7> S 	 -83.711 	 33.0585 	 134.39
|  8> C 	 -82.6817 	 31.7435 	 133.794
|  9> C 	 -81.4664 	 32.224 	 133.323
| 10> C 	 -81.4132 	 33.6521 	 133.394
| 11> C 	 -82.5645 	 34.2544 	 133.897
| 12> H 	 -80.5873 	 34.2623 	 133.143
| 13> C 	 -80.3195 	 31.2577 	 132.858
| 14> H 	 -79.659 	 31.7147 	 132.148
| 15> H 	 -80.8758 	 30.5848 	 132.189
| 16> C 	 -79.3916 	 30.636 	 133.882
| 17> H 	 -79.8741 	 29.868 	 134.532
| 18> H 	 -78.6305 	 30.0748 	 133.276
| 19> C 	 -78.7225 	 31.6853 	 134.793
| 20> H 	 -77.9427 	 32.2531 	 134.182
| 21> H 	 -79.4159 	 32.5118 	 135.187
| 22> H 	 -78.2479 	 31.2212 	 135.711
| 23> S 	 -84.1892 	 35.9283 	 132.608
| 24> C 	 -84.2756 	 37.6656 	 132.954
| 25> C 	 -83.2705 	 38.015 	 133.797
| 26> C 	 -82.4984 	 36.8852 	 134.317
| 27> C 	 -82.9878 	 35.6533 	 133.863
| 28> H 	 -83.1418 	 39.1282 	 134.005
| 29> C 	 -81.3108 	 37.0221 	 135.206
| 30> H 	 -80.7166 	 37.7845 	 134.813
| 31> H 	 -80.68 	 36.0936 	 135.278
| 32> C 	 -81.6156 	 37.5565 	 136.661
| 33> H 	 -81.8909 	 36.7698 	 137.407
| 34> H 	 -82.5063 	 38.2223 	 136.578
| 35> C 	 -80.5386 	 38.4889 	 137.228
| 36> H 	 -80.218 	 39.2767 	 136.545
| 37> H 	 -79.6455 	 37.8703 	 137.494
| 38> H 	 -80.9229 	 38.9177 	 138.171
| 39> H 	 -82.9311 	 30.7082 	 133.744
| 40> H 	 -85.0263 	 38.3198 	 132.478
| 41> *
| 42>
| 43>                          ****END OF INPUT****

CARTESIAN COORDINATES (ANGSTROEM)
---------------------------------
  S    -83.711000   33.058500  134.390000
  C    -82.681700   31.743500  133.794000
  C    -81.466400   32.224000  133.323000
  C    -81.413200   33.652100  133.394000
  C    -82.564500   34.254400  133.897000
  H    -80.587300   34.262300  133.143000
  C    -80.319500   31.257700  132.858000
  H    -79.659000   31.714700  132.148000
  H    -80.875800   30.584800  132.189000
  C    -79.391600   30.636000  133.882000
  H    -79.874100   29.868000  134.532000
  H    -78.630500   30.074800  133.276000
  C    -78.722500   31.685300  134.793000
  H    -77.942700   32.253100  134.182000
  H    -79.415900   32.511800  135.187000
  H    -78.247900   31.221200  135.711000
  S    -84.189200   35.928300  132.608000
  C    -84.275600   37.665600  132.954000
  C    -83.270500   38.015000  133.797000
  C    -82.498400   36.885200  134.317000
  C    -82.987800   35.653300  133.863000
  H    -83.141800   39.128200  134.005000
  C    -81.310800   37.022100  135.206000
  H    -80.716600   37.784500  134.813000
  H    -80.680000   36.093600  135.278000
  C    -81.615600   37.556500  136.661000
  H    -81.890900   36.769800  137.407000
  H    -82.506300   38.222300  136.578000
  C    -80.538600   38.488900  137.228000
  H    -80.218000   39.276700  136.545000
  H    -79.645500   37.870300  137.494000
  H    -80.922900   38.917700  138.171000
  H    -82.931100   30.708200  133.744000
  H    -85.026300   38.319800  132.478000

 Total Charge           Charge          ....    0
 Multiplicity           Mult            ....    1
 Number of Electrons    NEL             ....  134
 Basis Dimension        Dim             ....  322

ORBITAL ENERGIES
----------------

  NO   OCC          E(Eh)            E(eV)
   0   2.0000     -88.967412     -2420.9264
   1   2.0000     -88.957822     -2420.6654
   2   2.0000     -10.329574      -281.0820
   3   2.0000     -10.328435      -281.0510
   4   2.0000     -10.320281      -280.8291
   5   2.0000     -10.314450      -280.6705
   6   2.0000     -10.311112      -280.5796
   7   2.0000     -10.305407      -280.4244
   8   2.0000     -10.302962      -280.3578
   9   2.0000     -10.296188      -280.1735
  10   2.0000     -10.295871      -280.1649
  11   2.0000     -10.294080      -280.1162
  12   2.0000     -10.292715      -280.0790
  13   2.0000     -10.291264      -280.0395
  14   2.0000     -10.290493      -280.0186
  15   2.0000     -10.282066      -279.7892
  16   2.0000      -8.082012      -219.9227
  17   2.0000      -8.072624      -219.6673
  18   2.0000      -6.040523      -164.3710
  19   2.0000      -6.036421      -164.2594
  20   2.0000      -6.032874      -164.1629
  21   2.0000      -6.031231      -164.1181
  22   2.0000      -6.027151      -164.0071
  23   2.0000      -6.023202      -163.8997
  24   2.0000      -1.004860       -27.3436
  25   2.0000      -0.979907       -26.6646
  26   2.0000      -0.909415       -24.7464
  27   2.0000      -0.904232       -24.6054
  28   2.0000      -0.868772       -23.6405
  29   2.0000      -0.846432       -23.0326
  30   2.0000      -0.840419       -22.8690
  31   2.0000      -0.814514       -22.1640
  32   2.0000      -0.781011       -21.2524
  33   2.0000      -0.768730       -20.9182
  34   2.0000      -0.702227       -19.1086
  35   2.0000      -0.694909       -18.9094
  36   2.0000      -0.689787       -18.7701
  37   2.0000      -0.656819       -17.8729
  38   2.0000      -0.642328       -17.4786
  39   2.0000      -0.613268       -16.6879
  40   2.0000      -0.595158       -16.1951
  41   2.0000      -0.574723       -15.6390
  42   2.0000      -0.559467       -15.2239
  43   2.0000      -0.548873       -14.9356
  44   2.0000      -0.538782       -14.6610
  45   2.0000      -0.521616       -14.1939
  46   2.0000      -0.518484       -14.1087
  47   2.0000      -0.506884       -13.7930
  48   2.0000      -0.499204       -13.5840
  49   2.0000      -0.497324       -13.5329
  50   2.0000      -0.490584       -13.3495
  51   2.0000      -0.475743       -12.9456
  52   2.0000      -0.468738       -12.7550
  53   2.0000      -0.463096       -12.6015
  54   2.0000      -0.460125       -12.5206
  55   2.0000      -0.444485       -12.0951
  56   2.0000      -0.438815       -11.9408
  57   2.0000      -0.435778       -11.8581
  58   2.0000      -0.434566       -11.8251
  59   2.0000      -0.421982       -11.4827
  60   2.0000      -0.418017       -11.3748
  61   2.0000      -0.411419       -11.1953
  62   2.0000      -0.410706       -11.1759
  63   2.0000      -0.341938        -9.3046
  64   2.0000      -0.330267        -8.9870
  65   2.0000      -0.319832        -8.7031
  66   2.0000      -0.302421        -8.2293
  67   0.0000       0.032827         0.8933
  68   0.0000       0.064026         1.7422
  69   0.0000       0.108855         2.9621
  70   0.0000       0.120249         3.2721
  71   0.0000       0.125293         3.4094

MULLIKEN ATOMIC CHARGES
-----------------------
   0 S :    0.123891
   1 C :   -0.107115
   2 C :   -0.110297
   3 C :    0.077406
   4 C :   -0.191902
   5 H :   -0.006022
   6 C :    0.065584
   7 H :    0.010960
   8 H :    0.031186
   9 C :   -0.046372
  10 H :    0.033710
  11 H :    0.040933
  12 C :   -0.124662
  13 H :    0.036430
  14 H :    0.060299
  15 H :    0.051579
  16 S :    0.086472
  17 C :   -0.106097
  18 C :   -0.050355
  19 C :   -0.034788
  20 C :   -0.146511
  21 H :    0.047013
  22 C :    0.110558
  23 H :    0.000375
  24 H :    0.040119
  25 C :   -0.119283
  26 H :    0.047101
  27 H :    0.029973
  28 C :   -0.074961
  29 H :    0.038582
  30 H :    0.035329
  31 H :    0.040502
  32 H :    0.038037
  33 H :    0.072326
Sum of atomic charges:    0.0000000

LOEWDIN ATOMIC CHARGES
----------------------
   0 S :    0.417840
   1 C :   -0.185885
   2 C :   -0.062543
   3 C :   -0.057422
   4 C :   -0.212252
   5 H :    0.024045
   6 C :   -0.035929
   7 H :    0.026391
   8 H :    0.035689
   9 C :   -0.046845
  10 H :    0.023975
  11 H :    0.032954
  12 C :   -0.084155
  13 H :    0.028471
  14 H :    0.036105
  15 H :    0.033168
  16 S :    0.388369
  17 C :   -0.178001
  18 C :   -0.083764
  19 C :   -0.052302
  20 C :   -0.198438
  21 H :    0.045131
  22 C :   -0.033020
  23 H :    0.024052
  24 H :    0.037600
  25 C :   -0.045615
  26 H :    0.029999
  27 H :    0.024187
  28 C :   -0.071941
  29 H :    0.022674
  30 H :    0.026250
  31 H :    0.030267
  32 H :    0.023807
  33 H :    0.037137

  Mayer bond orders larger than 0.100000
B(  0-S ,  1-C ) :   1.1451 B(  0-S ,  4-C ) :   1.1674 B(  1-C ,  2-C ) :   1.6056
B(  1-C ,  4-C ) :   0.1007 B(  1-C , 32-H ) :   0.9728 B(  2-C ,  3-C ) :   1.2476
B(  2-C ,  6-C ) :   1.0009 B(  3-C ,  4-C ) :   1.5599 B(  3-C ,  5-H ) :   1.0046
B(  4-C , 20-C ) :   1.0023 B(  6-C ,  7-H ) :   0.9449 B(  6-C ,  8-H ) :   0.9410
B(  6-C ,  9-C ) :   1.0633 B(  9-C , 10-H ) :   0.9592 B(  9-C , 11-H ) :   0.9546
B(  9-C , 12-C ) :   1.0610 B( 12-C , 13-H ) :   0.9750 B( 12-C , 14-H ) :   0.9727
B( 12-C , 15-H ) :   0.9751 B( 16-S , 17-C ) :   1.1416 B( 16-S , 20-C ) :   1.1391
B( 17-C , 18-C ) :   1.6430 B( 17-C , 33-H ) :   0.9657 B( 18-C , 19-C ) :   1.1953
B( 18-C , 21-H ) :   0.9777 B( 19-C , 20-C ) :   1.6154 B( 19-C , 22-C ) :   1.0715
B( 22-C , 23-H ) :   0.9238 B( 22-C , 24-H ) :   0.9343 B( 22-C , 25-C ) :   1.0417
B( 25-C , 26-H ) :   0.9557 B( 25-C , 27-H ) :   0.9649 B( 25-C , 28-C ) :   1.0777
B( 28-C , 29-H ) :   0.9740 B( 28-C , 30-H ) :   0.9761 B( 28-C , 31-H ) :   0.9738

Dispersion correction           -0.013910198
FINAL SINGLE POINT ENERGY     -1339.874936785568

DIPOLE MOMENT
-------------
                                X             Y             Z
Electronic contribution:    -24.06479      -0.86520     -11.93017
Nuclear contribution   :     24.62206       0.99839      11.93868
                        -----------------------------------------
Total Dipole Moment    :      0.55727       0.13318       0.00851
                        -----------------------------------------
Magnitude (a.u.)       :      0.57303
Magnitude (Debye)      :      1.45653

Rotational constants in cm-1:     0.017870     0.008474     0.006457
Rotational constants in MHz :   535.720839   254.032871   193.569147

                             ****ORCA TERMINATED NORMALLY****
TOTAL RUN TIME: 0 days 0 hours 0 minutes 33 seconds 198 msec
