                         Program Version 4.2.1 -  RELEASE  -
|  1> ! wB97X-D3 SP def2-SVP
|  2> %pal
|  3> nprocs 16
|  4> end
|  5>
|  6> * xyz 0 1
|  7> S 	 -43.1256 	 41.113 	 80.6247
|  8> C 	 -43.0642 	 41.1146 	 78.8529
|  9> C 	 -44.2345 	 40.6003 	 78.3047
| 10> C 	 -45.2313 	 40.3997 	 79.3183
| 11> C 	 -44.8871 	 40.7673 	 80.5922
| 12> H 	 -46.2743 	 40.0535 	 79.1867
| 13> C 	 -44.4637 	 40.1435 	 76.8611
| 14> H 	 -44.0312 	 40.9943 	 76.2603
| 15> H 	 -45.4703 	 40.0388 	 76.5313
| 16> C 	 -43.6166 	 38.8597 	 76.5331
| 17> H 	 -43.4768 	 38.6963 	 75.462
| 18> H 	 -42.5448 	 39.009 	 76.932
| 19> C 	 -44.2609 	 37.5484 	 76.961
| 20> H 	 -44.5865 	 37.4712 	 77.9826
| 21> H 	 -45.1119 	 37.3972 	 76.3332
| 22> H 	 -43.5882 	 36.6815 	 76.7789
| 23> S 	 -45.7927 	 42.3334 	 82.6675
| 24> C 	 -46.6227 	 41.581 	 84.0283
| 25> C 	 -47.1275 	 40.3217 	 83.6875
| 26> C 	 -46.466 	 39.8577 	 82.425
| 27> C 	 -45.7233 	 40.8086 	 81.7737
| 28> H 	 -47.7311 	 39.7031 	 84.3408
| 29> C 	 -46.7827 	 38.4144 	 81.9571
| 30> H 	 -47.2172 	 38.4009 	 80.936
| 31> H 	 -47.696 	 38.1166 	 82.524
| 32> C 	 -45.7226 	 37.2945 	 82.0007
| 33> H 	 -45.0213 	 37.3667 	 81.22
| 34> H 	 -46.1009 	 36.2665 	 81.8438
| 35> C 	 -44.8475 	 37.198 	 83.3242
| 36> H 	 -45.4322 	 37.2228 	 84.2485
| 37> H 	 -44.2103 	 38.0423 	 83.2659
| 38> H 	 -44.2626 	 36.3084 	 83.3328
| 39> H 	 -42.2384 	 41.2946 	 78.2972
| 40> H 	 -46.9768 	 42.0346 	 84.9367
| 41> *
| 42>
| 43>                          ****END OF INPUT****

CARTESIAN COORDINATES (ANGSTROEM)
---------------------------------
  S    -43.125600   41.113000   80.624700
  C    -43.064200   41.114600   78.852900
  C    -44.234500   40.600300   78.304700
  C    -45.231300   40.399700   79.318300
  C    -44.887100   40.767300   80.592200
  H    -46.274300   40.053500   79.186700
  C    -44.463700   40.143500   76.861100
  H    -44.031200   40.994300   76.260300
  H    -45.470300   40.038800   76.531300
  C    -43.616600   38.859700   76.533100
  H    -43.476800   38.696300   75.462000
  H    -42.544800   39.009000   76.932000
  C    -44.260900   37.548400   76.961000
  H    -44.586500   37.471200   77.982600
  H    -45.111900   37.397200   76.333200
  H    -43.588200   36.681500   76.778900
  S    -45.792700   42.333400   82.667500
  C    -46.622700   41.581000   84.028300
  C    -47.127500   40.321700   83.687500
  C    -46.466000   39.857700   82.425000
  C    -45.723300   40.808600   81.773700
  H    -47.731100   39.703100   84.340800
  C    -46.782700   38.414400   81.957100
  H    -47.217200   38.400900   80.936000
  H    -47.696000   38.116600   82.524000
  C    -45.722600   37.294500   82.000700
  H    -45.021300   37.366700   81.220000
  H    -46.100900   36.266500   81.843800
  C    -44.847500   37.198000   83.324200
  H    -45.432200   37.222800   84.248500
  H    -44.210300   38.042300   83.265900
  H    -44.262600   36.308400   83.332800
  H    -42.238400   41.294600   78.297200
  H    -46.976800   42.034600   84.936700

 Total Charge           Charge          ....    0
 Multiplicity           Mult            ....    1
 Number of Electrons    NEL             ....  134
 Basis Dimension        Dim             ....  322

ORBITAL ENERGIES
----------------

  NO   OCC          E(Eh)            E(eV)
   0   2.0000     -88.966763     -2420.9087
   1   2.0000     -88.965688     -2420.8794
   2   2.0000     -10.331043      -281.1220
   3   2.0000     -10.328403      -281.0501
   4   2.0000     -10.322661      -280.8939
   5   2.0000     -10.313150      -280.6351
   6   2.0000     -10.313117      -280.6342
   7   2.0000     -10.307231      -280.4740
   8   2.0000     -10.303632      -280.3761
   9   2.0000     -10.301013      -280.3048
  10   2.0000     -10.299686      -280.2687
  11   2.0000     -10.296526      -280.1827
  12   2.0000     -10.296241      -280.1750
  13   2.0000     -10.284705      -279.8611
  14   2.0000     -10.275761      -279.6177
  15   2.0000     -10.267838      -279.4021
  16   2.0000      -8.080387      -219.8785
  17   2.0000      -8.080043      -219.8692
  18   2.0000      -6.039049      -164.3309
  19   2.0000      -6.038793      -164.3239
  20   2.0000      -6.035216      -164.2266
  21   2.0000      -6.034632      -164.2107
  22   2.0000      -6.030875      -164.1084
  23   2.0000      -6.030498      -164.0982
  24   2.0000      -1.001036       -27.2396
  25   2.0000      -0.977888       -26.6097
  26   2.0000      -0.906887       -24.6777
  27   2.0000      -0.896251       -24.3882
  28   2.0000      -0.869927       -23.6719
  29   2.0000      -0.845712       -23.0130
  30   2.0000      -0.839323       -22.8391
  31   2.0000      -0.817336       -22.2409
  32   2.0000      -0.782780       -21.3005
  33   2.0000      -0.773899       -21.0589
  34   2.0000      -0.711891       -19.3715
  35   2.0000      -0.699532       -19.0352
  36   2.0000      -0.688527       -18.7358
  37   2.0000      -0.665000       -18.0956
  38   2.0000      -0.646469       -17.5913
  39   2.0000      -0.609914       -16.5966
  40   2.0000      -0.584074       -15.8935
  41   2.0000      -0.576307       -15.6821
  42   2.0000      -0.549823       -14.9614
  43   2.0000      -0.546597       -14.8736
  44   2.0000      -0.544996       -14.8301
  45   2.0000      -0.536692       -14.6041
  46   2.0000      -0.517180       -14.0732
  47   2.0000      -0.513187       -13.9645
  48   2.0000      -0.505395       -13.7525
  49   2.0000      -0.490424       -13.3451
  50   2.0000      -0.484403       -13.1813
  51   2.0000      -0.478320       -13.0157
  52   2.0000      -0.469994       -12.7892
  53   2.0000      -0.464891       -12.6503
  54   2.0000      -0.463808       -12.6209
  55   2.0000      -0.442749       -12.0478
  56   2.0000      -0.439724       -11.9655
  57   2.0000      -0.435792       -11.8585
  58   2.0000      -0.429559       -11.6889
  59   2.0000      -0.427922       -11.6444
  60   2.0000      -0.416856       -11.3432
  61   2.0000      -0.412231       -11.2174
  62   2.0000      -0.407300       -11.0832
  63   2.0000      -0.342938        -9.3318
  64   2.0000      -0.331073        -9.0089
  65   2.0000      -0.324875        -8.8403
  66   2.0000      -0.300218        -8.1693
  67   0.0000       0.024171         0.6577
  68   0.0000       0.062859         1.7105
  69   0.0000       0.100448         2.7333
  70   0.0000       0.106035         2.8853
  71   0.0000       0.133171         3.6238

MULLIKEN ATOMIC CHARGES
-----------------------
   0 S :    0.110101
   1 C :   -0.073899
   2 C :   -0.078727
   3 C :    0.027390
   4 C :   -0.154110
   5 H :    0.020586
   6 C :    0.071280
   7 H :    0.038350
   8 H :    0.021632
   9 C :   -0.101708
  10 H :    0.031209
  11 H :    0.038385
  12 C :   -0.039400
  13 H :    0.032215
  14 H :    0.019405
  15 H :    0.036895
  16 S :    0.109229
  17 C :   -0.078530
  18 C :   -0.033673
  19 C :   -0.056888
  20 C :   -0.162369
  21 H :    0.031574
  22 C :    0.057284
  23 H :    0.031545
  24 H :    0.018770
  25 C :   -0.065156
  26 H :    0.021698
  27 H :    0.024539
  28 C :   -0.047420
  29 H :    0.028540
  30 H :    0.033607
  31 H :    0.025374
  32 H :    0.005512
  33 H :    0.056763
Sum of atomic charges:    0.0000000

LOEWDIN ATOMIC CHARGES
----------------------
   0 S :    0.380316
   1 C :   -0.166754
   2 C :   -0.057890
   3 C :   -0.061292
   4 C :   -0.185885
   5 H :    0.036157
   6 C :   -0.029911
   7 H :    0.041529
   8 H :    0.024197
   9 C :   -0.044949
  10 H :    0.023963
  11 H :    0.029101
  12 C :   -0.067074
  13 H :    0.019815
  14 H :    0.020757
  15 H :    0.032446
  16 S :    0.395241
  17 C :   -0.175630
  18 C :   -0.066713
  19 C :   -0.049052
  20 C :   -0.200638
  21 H :    0.031082
  22 C :   -0.039139
  23 H :    0.033699
  24 H :    0.033165
  25 C :   -0.039128
  26 H :    0.016458
  27 H :    0.026466
  28 C :   -0.059518
  29 H :    0.022414
  30 H :    0.020995
  31 H :    0.021151
  32 H :    0.005004
  33 H :    0.029619

  Mayer bond orders larger than 0.100000
B(  0-S ,  1-C ) :   1.1346 B(  0-S ,  4-C ) :   1.1230 B(  1-C ,  2-C ) :   1.6143
B(  1-C ,  4-C ) :   0.1001 B(  1-C , 32-H ) :   0.9786 B(  2-C ,  3-C ) :   1.2225
B(  2-C ,  6-C ) :   1.0196 B(  3-C ,  4-C ) :   1.6048 B(  3-C ,  5-H ) :   0.9896
B(  4-C , 20-C ) :   1.0580 B(  6-C ,  7-H ) :   0.9352 B(  6-C ,  8-H ) :   0.9530
B(  6-C ,  9-C ) :   1.0612 B(  9-C , 10-H ) :   0.9575 B(  9-C , 11-H ) :   0.9581
B(  9-C , 12-C ) :   1.0726 B( 12-C , 13-H ) :   0.9785 B( 12-C , 14-H ) :   0.9736
B( 12-C , 15-H ) :   0.9717 B( 16-S , 17-C ) :   1.1486 B( 16-S , 20-C ) :   1.1109
B( 17-C , 18-C ) :   1.6381 B( 17-C , 33-H ) :   0.9648 B( 18-C , 19-C ) :   1.2081
B( 18-C , 21-H ) :   0.9809 B( 19-C , 20-C ) :   1.6417 B( 19-C , 22-C ) :   1.0273
B( 22-C , 23-H ) :   0.9412 B( 22-C , 24-H ) :   0.9383 B( 22-C , 25-C ) :   1.0613
B( 25-C , 26-H ) :   0.9587 B( 25-C , 27-H ) :   0.9590 B( 25-C , 28-C ) :   1.0728
B( 28-C , 29-H ) :   0.9809 B( 28-C , 30-H ) :   0.9767 B( 28-C , 31-H ) :   0.9768

Dispersion correction           -0.015175558
FINAL SINGLE POINT ENERGY     -1339.861737679259

DIPOLE MOMENT
-------------
                                X             Y             Z
Electronic contribution:      1.32118      24.52029      11.81181
Nuclear contribution   :     -1.61495     -25.09150     -12.17288
                        -----------------------------------------
Total Dipole Moment    :     -0.29377      -0.57121      -0.36107
                        -----------------------------------------
Magnitude (a.u.)       :      0.73686
Magnitude (Debye)      :      1.87294

Rotational constants in cm-1:     0.019854     0.009075     0.007288
Rotational constants in MHz :   595.207146   272.050639   218.475133

                             ****ORCA TERMINATED NORMALLY****
TOTAL RUN TIME: 0 days 0 hours 0 minutes 32 seconds 422 msec
