                         Program Version 4.2.1 -  RELEASE  -
|  1> ! wB97X-D3 SP def2-SVP
|  2> %pal
|  3> nprocs 16
|  4> end
|  5>
|  6> * xyz 0 1
|  7> S 	 17.7087 	 -7.70196 	 82.4152
|  8> C 	 16.8291 	 -6.14413 	 82.5534
|  9> C 	 16.193 	 -5.8365 	 81.4076
| 10> C 	 16.3621 	 -6.88936 	 80.3958
| 11> C 	 17.16 	 -7.97521 	 80.822
| 12> H 	 16.0437 	 -6.8641 	 79.3444
| 13> C 	 15.2002 	 -4.66746 	 81.185
| 14> H 	 15.7244 	 -3.98827 	 80.4614
| 15> H 	 15.1576 	 -4.15118 	 82.2404
| 16> C 	 13.8544 	 -5.11443 	 80.7689
| 17> H 	 14.0197 	 -5.42663 	 79.6607
| 18> H 	 13.5912 	 -6.0082 	 81.3107
| 19> C 	 12.8801 	 -3.91137 	 80.8441
| 20> H 	 11.809 	 -4.09908 	 80.8078
| 21> H 	 13.0464 	 -3.21737 	 81.6243
| 22> H 	 12.9502 	 -3.23379 	 79.993
| 23> S 	 16.9578 	 -10.6432 	 81.1487
| 24> C 	 17.1758 	 -11.7491 	 79.8606
| 25> C 	 17.498 	 -11.0812 	 78.7123
| 26> C 	 17.6478 	 -9.62411 	 78.8877
| 27> C 	 17.308 	 -9.25666 	 80.1847
| 28> H 	 17.68 	 -11.7694 	 77.8779
| 29> C 	 17.9704 	 -8.71844 	 77.7083
| 30> H 	 18.82 	 -9.14014 	 77.1963
| 31> H 	 18.0734 	 -7.6849 	 77.975
| 32> C 	 16.8649 	 -8.7942 	 76.6768
| 33> H 	 15.8746 	 -8.63146 	 77.0579
| 34> H 	 16.9243 	 -9.84652 	 76.2561
| 35> C 	 16.9936 	 -7.79917 	 75.4856
| 36> H 	 17.8367 	 -8.01081 	 74.7978
| 37> H 	 17.0158 	 -6.7804 	 75.7496
| 38> H 	 16.073 	 -7.81161 	 74.906
| 39> H 	 16.8798 	 -5.50169 	 83.4595
| 40> H 	 16.9289 	 -12.8071 	 79.8804
| 41> *
| 42>
| 43>                          ****END OF INPUT****

CARTESIAN COORDINATES (ANGSTROEM)
---------------------------------
  S     17.708700   -7.701960   82.415200
  C     16.829100   -6.144130   82.553400
  C     16.193000   -5.836500   81.407600
  C     16.362100   -6.889360   80.395800
  C     17.160000   -7.975210   80.822000
  H     16.043700   -6.864100   79.344400
  C     15.200200   -4.667460   81.185000
  H     15.724400   -3.988270   80.461400
  H     15.157600   -4.151180   82.240400
  C     13.854400   -5.114430   80.768900
  H     14.019700   -5.426630   79.660700
  H     13.591200   -6.008200   81.310700
  C     12.880100   -3.911370   80.844100
  H     11.809000   -4.099080   80.807800
  H     13.046400   -3.217370   81.624300
  H     12.950200   -3.233790   79.993000
  S     16.957800  -10.643200   81.148700
  C     17.175800  -11.749100   79.860600
  C     17.498000  -11.081200   78.712300
  C     17.647800   -9.624110   78.887700
  C     17.308000   -9.256660   80.184700
  H     17.680000  -11.769400   77.877900
  C     17.970400   -8.718440   77.708300
  H     18.820000   -9.140140   77.196300
  H     18.073400   -7.684900   77.975000
  C     16.864900   -8.794200   76.676800
  H     15.874600   -8.631460   77.057900
  H     16.924300   -9.846520   76.256100
  C     16.993600   -7.799170   75.485600
  H     17.836700   -8.010810   74.797800
  H     17.015800   -6.780400   75.749600
  H     16.073000   -7.811610   74.906000
  H     16.879800   -5.501690   83.459500
  H     16.928900  -12.807100   79.880400

 Total Charge           Charge          ....    0
 Multiplicity           Mult            ....    1
 Number of Electrons    NEL             ....  134
 Basis Dimension        Dim             ....  322

ORBITAL ENERGIES
----------------

  NO   OCC          E(Eh)            E(eV)
   0   2.0000     -88.963902     -2420.8308
   1   2.0000     -88.961524     -2420.7661
   2   2.0000     -10.330228      -281.0998
   3   2.0000     -10.325482      -280.9707
   4   2.0000     -10.317018      -280.7403
   5   2.0000     -10.312974      -280.6303
   6   2.0000     -10.310203      -280.5549
   7   2.0000     -10.304502      -280.3997
   8   2.0000     -10.304205      -280.3917
   9   2.0000     -10.299911      -280.2748
  10   2.0000     -10.296721      -280.1880
  11   2.0000     -10.295930      -280.1665
  12   2.0000     -10.289283      -279.9856
  13   2.0000     -10.289020      -279.9785
  14   2.0000     -10.277570      -279.6669
  15   2.0000     -10.276991      -279.6511
  16   2.0000      -8.078939      -219.8391
  17   2.0000      -8.077668      -219.8045
  18   2.0000      -6.037498      -164.2887
  19   2.0000      -6.036192      -164.2531
  20   2.0000      -6.033382      -164.1767
  21   2.0000      -6.031855      -164.1351
  22   2.0000      -6.029624      -164.0744
  23   2.0000      -6.028416      -164.0415
  24   2.0000      -1.011287       -27.5185
  25   2.0000      -0.984514       -26.7900
  26   2.0000      -0.918201       -24.9855
  27   2.0000      -0.913686       -24.8627
  28   2.0000      -0.875410       -23.8211
  29   2.0000      -0.847870       -23.0717
  30   2.0000      -0.838649       -22.8208
  31   2.0000      -0.813230       -22.1291
  32   2.0000      -0.785198       -21.3663
  33   2.0000      -0.779627       -21.2147
  34   2.0000      -0.712215       -19.3804
  35   2.0000      -0.696652       -18.9569
  36   2.0000      -0.692667       -18.8484
  37   2.0000      -0.659068       -17.9341
  38   2.0000      -0.635156       -17.2835
  39   2.0000      -0.617178       -16.7943
  40   2.0000      -0.596378       -16.2283
  41   2.0000      -0.574760       -15.6400
  42   2.0000      -0.572000       -15.5649
  43   2.0000      -0.560262       -15.2455
  44   2.0000      -0.525400       -14.2969
  45   2.0000      -0.524267       -14.2660
  46   2.0000      -0.514301       -13.9948
  47   2.0000      -0.511060       -13.9067
  48   2.0000      -0.509547       -13.8655
  49   2.0000      -0.498224       -13.5574
  50   2.0000      -0.495213       -13.4754
  51   2.0000      -0.480307       -13.0698
  52   2.0000      -0.474187       -12.9033
  53   2.0000      -0.471470       -12.8294
  54   2.0000      -0.455338       -12.3904
  55   2.0000      -0.449198       -12.2233
  56   2.0000      -0.442922       -12.0525
  57   2.0000      -0.439471       -11.9586
  58   2.0000      -0.434330       -11.8187
  59   2.0000      -0.423423       -11.5219
  60   2.0000      -0.417881       -11.3711
  61   2.0000      -0.413968       -11.2647
  62   2.0000      -0.411319       -11.1926
  63   2.0000      -0.354094        -9.6354
  64   2.0000      -0.330185        -8.9848
  65   2.0000      -0.325101        -8.8464
  66   2.0000      -0.294139        -8.0039
  67   0.0000       0.033187         0.9031
  68   0.0000       0.077449         2.1075
  69   0.0000       0.117712         3.2031
  70   0.0000       0.121547         3.3075
  71   0.0000       0.126889         3.4528

MULLIKEN ATOMIC CHARGES
-----------------------
   0 S :    0.097864
   1 C :   -0.154548
   2 C :   -0.061228
   3 C :    0.003095
   4 C :   -0.149693
   5 H :    0.018500
   6 C :    0.004024
   7 H :    0.052816
   8 H :    0.032649
   9 C :   -0.069862
  10 H :    0.044711
  11 H :    0.047593
  12 C :   -0.014774
  13 H :    0.031391
  14 H :    0.016200
  15 H :    0.015023
  16 S :    0.109846
  17 C :   -0.098804
  18 C :   -0.062333
  19 C :   -0.033191
  20 C :   -0.144441
  21 H :    0.029839
  22 C :    0.134362
  23 H :    0.023199
  24 H :    0.018219
  25 C :   -0.130620
  26 H :    0.030420
  27 H :    0.036613
  28 C :   -0.032324
  29 H :    0.036696
  30 H :    0.014968
  31 H :    0.026351
  32 H :    0.063879
  33 H :    0.063562
Sum of atomic charges:   -0.0000000

LOEWDIN ATOMIC CHARGES
----------------------
   0 S :    0.401080
   1 C :   -0.192166
   2 C :   -0.066527
   3 C :   -0.072777
   4 C :   -0.203875
   5 H :    0.029093
   6 C :   -0.036910
   7 H :    0.036895
   8 H :    0.034611
   9 C :   -0.044042
  10 H :    0.037579
  11 H :    0.028500
  12 C :   -0.071172
  13 H :    0.028109
  14 H :    0.019629
  15 H :    0.029747
  16 S :    0.426895
  17 C :   -0.200092
  18 C :   -0.078854
  19 C :   -0.047562
  20 C :   -0.210006
  21 H :    0.035376
  22 C :   -0.027109
  23 H :    0.034659
  24 H :    0.025027
  25 C :   -0.039891
  26 H :    0.018994
  27 H :    0.029182
  28 C :   -0.069278
  29 H :    0.027503
  30 H :    0.015952
  31 H :    0.028878
  32 H :    0.037403
  33 H :    0.035148

  Mayer bond orders larger than 0.100000
B(  0-S ,  1-C ) :   1.1108 B(  0-S ,  4-C ) :   1.1617 B(  1-C ,  2-C ) :   1.6623
B(  1-C , 32-H ) :   0.9607 B(  2-C ,  3-C ) :   1.2065 B(  2-C ,  6-C ) :   1.0059
B(  3-C ,  4-C ) :   1.5766 B(  3-C ,  5-H ) :   0.9858 B(  4-C , 20-C ) :   1.0433
B(  6-C ,  7-H ) :   0.9367 B(  6-C ,  8-H ) :   0.9475 B(  6-C ,  9-C ) :   1.0620
B(  9-C , 10-H ) :   0.9448 B(  9-C , 11-H ) :   0.9641 B(  9-C , 12-C ) :   1.0641
B( 12-C , 13-H ) :   0.9759 B( 12-C , 14-H ) :   0.9768 B( 12-C , 15-H ) :   0.9691
B( 16-S , 17-C ) :   1.1534 B( 16-S , 20-C ) :   1.1472 B( 17-C , 18-C ) :   1.6462
B( 17-C , 33-H ) :   0.9645 B( 18-C , 19-C ) :   1.1914 B( 18-C , 21-H ) :   0.9843
B( 19-C , 20-C ) :   1.6021 B( 19-C , 22-C ) :   1.0662 B( 22-C , 23-H ) :   0.9224
B( 22-C , 24-H ) :   0.9366 B( 22-C , 25-C ) :   1.0605 B( 25-C , 26-H ) :   0.9596
B( 25-C , 27-H ) :   0.9530 B( 25-C , 28-C ) :   1.0873 B( 28-C , 29-H ) :   0.9747
B( 28-C , 30-H ) :   0.9725 B( 28-C , 31-H ) :   0.9732

Dispersion correction           -0.013732974
FINAL SINGLE POINT ENERGY     -1339.870215178245

DIPOLE MOMENT
-------------
                                X             Y             Z
Electronic contribution:     13.33891     -17.80858      20.45393
Nuclear contribution   :    -13.70621      18.09992     -21.03082
                        -----------------------------------------
Total Dipole Moment    :     -0.36730       0.29134      -0.57689
                        -----------------------------------------
Magnitude (a.u.)       :      0.74336
Magnitude (Debye)      :      1.88947

Rotational constants in cm-1:     0.016385     0.008956     0.006655
Rotational constants in MHz :   491.214034   268.494283   199.517503

                             ****ORCA TERMINATED NORMALLY****
TOTAL RUN TIME: 0 days 0 hours 0 minutes 29 seconds 891 msec
