                         Program Version 4.2.1 -  RELEASE  -
|  1> ! wB97X-D3 SP def2-SVP
|  2> %pal
|  3> nprocs 16
|  4> end
|  5>
|  6> * xyz 0 1
|  7> S 	 -1.8674 	 34.309 	 37.0048
|  8> C 	 -1.89102 	 33.3386 	 35.5766
|  9> C 	 -2.47671 	 32.1129 	 35.8043
| 10> C 	 -3.01648 	 31.9714 	 37.0797
| 11> C 	 -2.69582 	 33.0324 	 37.9099
| 12> H 	 -3.62031 	 31.2649 	 37.5472
| 13> C 	 -2.52907 	 30.9768 	 34.8698
| 14> H 	 -1.90879 	 30.164 	 35.3536
| 15> H 	 -1.99495 	 31.2051 	 34.0276
| 16> C 	 -4.00414 	 30.5792 	 34.4189
| 17> H 	 -4.64945 	 30.9498 	 35.2075
| 18> H 	 -4.42072 	 31.0625 	 33.5743
| 19> C 	 -4.12659 	 29.0583 	 34.2312
| 20> H 	 -4.12122 	 28.5069 	 35.164
| 21> H 	 -5.08516 	 28.8348 	 33.8487
| 22> H 	 -3.3551 	 28.7245 	 33.5988
| 23> S 	 -4.89053 	 32.9872 	 39.5608
| 24> C 	 -4.78797 	 33.4515 	 41.2698
| 25> C 	 -3.4475 	 33.4971 	 41.5769
| 26> C 	 -2.53281 	 33.3487 	 40.511
| 27> C 	 -3.16076 	 33.2339 	 39.2923
| 28> H 	 -3.20267 	 33.6254 	 42.6248
| 29> C 	 -1.02673 	 33.5549 	 40.6702
| 30> H 	 -0.627987 	 33.6176 	 39.6422
| 31> H 	 -0.604946 	 32.6753 	 41.1888
| 32> C 	 -0.630226 	 34.8284 	 41.4231
| 33> H 	 -0.813826 	 34.7084 	 42.495
| 34> H 	 -1.2195 	 35.6996 	 41.0708
| 35> C 	 0.860855 	 35.2783 	 41.2421
| 36> H 	 1.02754 	 35.2585 	 40.2107
| 37> H 	 1.55569 	 34.5533 	 41.7006
| 38> H 	 1.0001 	 36.3181 	 41.6438
| 39> H 	 -1.38046 	 33.6187 	 34.6593
| 40> H 	 -5.61063 	 33.3072 	 41.9773
| 41> *
| 42>
| 43>                          ****END OF INPUT****

CARTESIAN COORDINATES (ANGSTROEM)
---------------------------------
  S     -1.867400   34.309000   37.004800
  C     -1.891020   33.338600   35.576600
  C     -2.476710   32.112900   35.804300
  C     -3.016480   31.971400   37.079700
  C     -2.695820   33.032400   37.909900
  H     -3.620310   31.264900   37.547200
  C     -2.529070   30.976800   34.869800
  H     -1.908790   30.164000   35.353600
  H     -1.994950   31.205100   34.027600
  C     -4.004140   30.579200   34.418900
  H     -4.649450   30.949800   35.207500
  H     -4.420720   31.062500   33.574300
  C     -4.126590   29.058300   34.231200
  H     -4.121220   28.506900   35.164000
  H     -5.085160   28.834800   33.848700
  H     -3.355100   28.724500   33.598800
  S     -4.890530   32.987200   39.560800
  C     -4.787970   33.451500   41.269800
  C     -3.447500   33.497100   41.576900
  C     -2.532810   33.348700   40.511000
  C     -3.160760   33.233900   39.292300
  H     -3.202670   33.625400   42.624800
  C     -1.026730   33.554900   40.670200
  H     -0.627987   33.617600   39.642200
  H     -0.604946   32.675300   41.188800
  C     -0.630226   34.828400   41.423100
  H     -0.813826   34.708400   42.495000
  H     -1.219500   35.699600   41.070800
  C      0.860855   35.278300   41.242100
  H      1.027540   35.258500   40.210700
  H      1.555690   34.553300   41.700600
  H      1.000100   36.318100   41.643800
  H     -1.380460   33.618700   34.659300
  H     -5.610630   33.307200   41.977300

 Total Charge           Charge          ....    0
 Multiplicity           Mult            ....    1
 Number of Electrons    NEL             ....  134
 Basis Dimension        Dim             ....  322

ORBITAL ENERGIES
----------------

  NO   OCC          E(Eh)            E(eV)
   0   2.0000     -88.967700     -2420.9342
   1   2.0000     -88.960165     -2420.7291
   2   2.0000     -10.330565      -281.1090
   3   2.0000     -10.328100      -281.0419
   4   2.0000     -10.319719      -280.8138
   5   2.0000     -10.312709      -280.6231
   6   2.0000     -10.302145      -280.3356
   7   2.0000     -10.295584      -280.1571
   8   2.0000     -10.293554      -280.1019
   9   2.0000     -10.292970      -280.0860
  10   2.0000     -10.287327      -279.9324
  11   2.0000     -10.286850      -279.9194
  12   2.0000     -10.286762      -279.9170
  13   2.0000     -10.284784      -279.8632
  14   2.0000     -10.277745      -279.6717
  15   2.0000     -10.268938      -279.4320
  16   2.0000      -8.082210      -219.9281
  17   2.0000      -8.074569      -219.7202
  18   2.0000      -6.040656      -164.3746
  19   2.0000      -6.036729      -164.2677
  20   2.0000      -6.033129      -164.1698
  21   2.0000      -6.033086      -164.1686
  22   2.0000      -6.029161      -164.0618
  23   2.0000      -6.025236      -163.9550
  24   2.0000      -1.008709       -27.4484
  25   2.0000      -0.987707       -26.8769
  26   2.0000      -0.910100       -24.7651
  27   2.0000      -0.903416       -24.5832
  28   2.0000      -0.871376       -23.7113
  29   2.0000      -0.855658       -23.2836
  30   2.0000      -0.844451       -22.9787
  31   2.0000      -0.817534       -22.2462
  32   2.0000      -0.780149       -21.2289
  33   2.0000      -0.769281       -20.9332
  34   2.0000      -0.712608       -19.3911
  35   2.0000      -0.699324       -19.0296
  36   2.0000      -0.694362       -18.8946
  37   2.0000      -0.664529       -18.0828
  38   2.0000      -0.645046       -17.5526
  39   2.0000      -0.621104       -16.9011
  40   2.0000      -0.593551       -16.1514
  41   2.0000      -0.568110       -15.4591
  42   2.0000      -0.567002       -15.4289
  43   2.0000      -0.551681       -15.0120
  44   2.0000      -0.533035       -14.5046
  45   2.0000      -0.528902       -14.3921
  46   2.0000      -0.523785       -14.2529
  47   2.0000      -0.512209       -13.9379
  48   2.0000      -0.505678       -13.7602
  49   2.0000      -0.504304       -13.7228
  50   2.0000      -0.488700       -13.2982
  51   2.0000      -0.477402       -12.9908
  52   2.0000      -0.470915       -12.8142
  53   2.0000      -0.464180       -12.6310
  54   2.0000      -0.461563       -12.5598
  55   2.0000      -0.450351       -12.2547
  56   2.0000      -0.444753       -12.1023
  57   2.0000      -0.439277       -11.9533
  58   2.0000      -0.427996       -11.6464
  59   2.0000      -0.424291       -11.5455
  60   2.0000      -0.421711       -11.4753
  61   2.0000      -0.413192       -11.2435
  62   2.0000      -0.409860       -11.1529
  63   2.0000      -0.343540        -9.3482
  64   2.0000      -0.333057        -9.0629
  65   2.0000      -0.327809        -8.9201
  66   2.0000      -0.297405        -8.0928
  67   0.0000       0.031272         0.8510
  68   0.0000       0.064912         1.7664
  69   0.0000       0.106295         2.8924
  70   0.0000       0.119125         3.2416
  71   0.0000       0.131438         3.5766

MULLIKEN ATOMIC CHARGES
-----------------------
   0 S :    0.112708
   1 C :   -0.118746
   2 C :   -0.094600
   3 C :    0.039212
   4 C :   -0.162988
   5 H :   -0.007625
   6 C :    0.106686
   7 H :    0.051082
   8 H :   -0.014477
   9 C :   -0.065077
  10 H :    0.022868
  11 H :    0.024161
  12 C :   -0.020878
  13 H :    0.027771
  14 H :    0.015967
  15 H :    0.030000
  16 S :    0.074420
  17 C :   -0.093169
  18 C :   -0.045485
  19 C :   -0.009581
  20 C :   -0.164939
  21 H :    0.019635
  22 C :    0.084103
  23 H :    0.018171
  24 H :    0.038946
  25 C :   -0.120347
  26 H :    0.032093
  27 H :    0.040138
  28 C :   -0.040882
  29 H :    0.019308
  30 H :    0.033248
  31 H :    0.047983
  32 H :    0.048320
  33 H :    0.071975
Sum of atomic charges:    0.0000000

LOEWDIN ATOMIC CHARGES
----------------------
   0 S :    0.408945
   1 C :   -0.203974
   2 C :   -0.068671
   3 C :   -0.054218
   4 C :   -0.182934
   5 H :    0.021807
   6 C :   -0.026827
   7 H :    0.045341
   8 H :    0.013943
   9 C :   -0.029060
  10 H :    0.021770
  11 H :    0.021722
  12 C :   -0.055737
  13 H :    0.025513
  14 H :    0.020127
  15 H :    0.019353
  16 S :    0.383742
  17 C :   -0.180854
  18 C :   -0.070911
  19 C :   -0.060826
  20 C :   -0.188614
  21 H :    0.030343
  22 C :   -0.032151
  23 H :    0.025083
  24 H :    0.036281
  25 C :   -0.045898
  26 H :    0.019595
  27 H :    0.028670
  28 C :   -0.061920
  29 H :    0.014779
  30 H :    0.025131
  31 H :    0.034505
  32 H :    0.029712
  33 H :    0.036232

  Mayer bond orders larger than 0.100000
B(  0-S ,  1-C ) :   1.1421 B(  0-S ,  4-C ) :   1.1541 B(  1-C ,  2-C ) :   1.6054
B(  1-C , 32-H ) :   0.9651 B(  2-C ,  3-C ) :   1.2158 B(  2-C ,  6-C ) :   1.0430
B(  3-C ,  4-C ) :   1.5876 B(  3-C ,  5-H ) :   1.0064 B(  4-C , 20-C ) :   1.0094
B(  6-C ,  7-H ) :   0.9485 B(  6-C ,  8-H ) :   0.9218 B(  6-C ,  9-C ) :   1.0210
B(  9-C , 10-H ) :   0.9699 B(  9-C , 11-H ) :   0.9582 B(  9-C , 12-C ) :   1.0766
B( 12-C , 13-H ) :   0.9781 B( 12-C , 14-H ) :   0.9716 B( 12-C , 15-H ) :   0.9780
B( 16-S , 17-C ) :   1.1420 B( 16-S , 20-C ) :   1.1403 B( 17-C , 18-C ) :   1.6110
B( 17-C , 20-C ) :   0.1013 B( 17-C , 33-H ) :   0.9647 B( 18-C , 19-C ) :   1.2391
B( 18-C , 21-H ) :   0.9891 B( 19-C , 20-C ) :   1.5863 B( 19-C , 22-C ) :   1.0457
B( 22-C , 23-H ) :   0.9360 B( 22-C , 24-H ) :   0.9241 B( 22-C , 25-C ) :   1.0664
B( 25-C , 26-H ) :   0.9504 B( 25-C , 27-H ) :   0.9602 B( 25-C , 28-C ) :   1.0813
B( 28-C , 29-H ) :   0.9772 B( 28-C , 30-H ) :   0.9756 B( 28-C , 31-H ) :   0.9757

Dispersion correction           -0.013780166
FINAL SINGLE POINT ENERGY     -1339.871279633257

DIPOLE MOMENT
-------------
                                X             Y             Z
Electronic contribution:     -9.21243       8.08647       3.04966
Nuclear contribution   :      9.40823      -8.43532      -3.02742
                        -----------------------------------------
Total Dipole Moment    :      0.19581      -0.34884       0.02224
                        -----------------------------------------
Magnitude (a.u.)       :      0.40066
Magnitude (Debye)      :      1.01839

Rotational constants in cm-1:     0.021156     0.007701     0.006219
Rotational constants in MHz :   634.230165   230.869494   186.428212

                             ****ORCA TERMINATED NORMALLY****
TOTAL RUN TIME: 0 days 0 hours 0 minutes 33 seconds 723 msec
