                         Program Version 4.2.1 -  RELEASE  -
|  1> ! wB97X-D3 SP def2-SVP
|  2> %pal
|  3> nprocs 16
|  4> end
|  5>
|  6> * xyz 0 1
|  7> S 	 -4.45365 	 10.1886 	 82.7051
|  8> C 	 -3.87039 	 8.53693 	 82.9835
|  9> C 	 -3.52448 	 7.80246 	 81.7899
| 10> C 	 -3.68093 	 8.70235 	 80.6636
| 11> C 	 -4.10546 	 10.0026 	 80.9647
| 12> H 	 -3.46546 	 8.5437 	 79.5925
| 13> C 	 -3.12968 	 6.37753 	 81.8343
| 14> H 	 -2.51104 	 6.32825 	 82.7223
| 15> H 	 -2.45076 	 6.14594 	 80.9925
| 16> C 	 -4.28198 	 5.35152 	 81.8854
| 17> H 	 -4.89638 	 5.55553 	 82.7167
| 18> H 	 -4.92892 	 5.53652 	 81.0467
| 19> C 	 -3.63259 	 3.94661 	 81.8326
| 20> H 	 -2.93295 	 3.90364 	 82.6715
| 21> H 	 -4.34139 	 3.15653 	 81.9074
| 22> H 	 -3.08653 	 3.77423 	 80.9444
| 23> S 	 -5.85178 	 11.7606 	 79.7791
| 24> C 	 -5.22543 	 12.8233 	 78.4577
| 25> C 	 -3.85257 	 12.6851 	 78.3758
| 26> C 	 -3.28669 	 11.7616 	 79.2723
| 27> C 	 -4.26039 	 11.1147 	 80.0209
| 28> H 	 -3.47673 	 13.2987 	 77.5859
| 29> C 	 -1.8825 	 11.6437 	 79.5816
| 30> H 	 -1.76623 	 10.7772 	 80.2575
| 31> H 	 -1.62672 	 12.4537 	 80.2136
| 32> C 	 -0.921826 	 11.5274 	 78.4378
| 33> H 	 -1.04912 	 12.2666 	 77.7404
| 34> H 	 -1.01201 	 10.6214 	 77.8869
| 35> C 	 0.551271 	 11.6635 	 78.8114
| 36> H 	 1.02191 	 12.435 	 78.1687
| 37> H 	 1.09295 	 10.6771 	 78.6565
| 38> H 	 0.650735 	 11.9388 	 79.87
| 39> H 	 -3.78828 	 8.08693 	 83.9567
| 40> H 	 -5.8022 	 13.5982 	 77.9457
| 41> *
| 42>
| 43>                          ****END OF INPUT****

CARTESIAN COORDINATES (ANGSTROEM)
---------------------------------
  S     -4.453650   10.188600   82.705100
  C     -3.870390    8.536930   82.983500
  C     -3.524480    7.802460   81.789900
  C     -3.680930    8.702350   80.663600
  C     -4.105460   10.002600   80.964700
  H     -3.465460    8.543700   79.592500
  C     -3.129680    6.377530   81.834300
  H     -2.511040    6.328250   82.722300
  H     -2.450760    6.145940   80.992500
  C     -4.281980    5.351520   81.885400
  H     -4.896380    5.555530   82.716700
  H     -4.928920    5.536520   81.046700
  C     -3.632590    3.946610   81.832600
  H     -2.932950    3.903640   82.671500
  H     -4.341390    3.156530   81.907400
  H     -3.086530    3.774230   80.944400
  S     -5.851780   11.760600   79.779100
  C     -5.225430   12.823300   78.457700
  C     -3.852570   12.685100   78.375800
  C     -3.286690   11.761600   79.272300
  C     -4.260390   11.114700   80.020900
  H     -3.476730   13.298700   77.585900
  C     -1.882500   11.643700   79.581600
  H     -1.766230   10.777200   80.257500
  H     -1.626720   12.453700   80.213600
  C     -0.921826   11.527400   78.437800
  H     -1.049120   12.266600   77.740400
  H     -1.012010   10.621400   77.886900
  C      0.551271   11.663500   78.811400
  H      1.021910   12.435000   78.168700
  H      1.092950   10.677100   78.656500
  H      0.650735   11.938800   79.870000
  H     -3.788280    8.086930   83.956700
  H     -5.802200   13.598200   77.945700

 Total Charge           Charge          ....    0
 Multiplicity           Mult            ....    1
 Number of Electrons    NEL             ....  134
 Basis Dimension        Dim             ....  322

ORBITAL ENERGIES
----------------

  NO   OCC          E(Eh)            E(eV)
   0   2.0000     -88.969784     -2420.9909
   1   2.0000     -88.962875     -2420.8029
   2   2.0000     -10.330753      -281.1141
   3   2.0000     -10.322831      -280.8985
   4   2.0000     -10.320334      -280.8306
   5   2.0000     -10.319775      -280.8154
   6   2.0000     -10.309592      -280.5383
   7   2.0000     -10.301571      -280.3200
   8   2.0000     -10.297365      -280.2056
   9   2.0000     -10.292662      -280.0776
  10   2.0000     -10.291658      -280.0502
  11   2.0000     -10.284366      -279.8518
  12   2.0000     -10.279764      -279.7266
  13   2.0000     -10.278141      -279.6824
  14   2.0000     -10.275794      -279.6186
  15   2.0000     -10.268775      -279.4276
  16   2.0000      -8.083241      -219.9562
  17   2.0000      -8.077170      -219.7910
  18   2.0000      -6.041679      -164.4024
  19   2.0000      -6.037985      -164.3019
  20   2.0000      -6.035594      -164.2369
  21   2.0000      -6.034109      -164.1964
  22   2.0000      -6.031778      -164.1330
  23   2.0000      -6.028009      -164.0305
  24   2.0000      -1.001827       -27.2611
  25   2.0000      -0.974519       -26.5180
  26   2.0000      -0.917436       -24.9647
  27   2.0000      -0.914459       -24.8837
  28   2.0000      -0.866683       -23.5836
  29   2.0000      -0.853951       -23.2372
  30   2.0000      -0.846880       -23.0448
  31   2.0000      -0.816467       -22.2172
  32   2.0000      -0.779317       -21.2063
  33   2.0000      -0.764702       -20.8086
  34   2.0000      -0.714028       -19.4297
  35   2.0000      -0.703753       -19.1501
  36   2.0000      -0.698621       -19.0105
  37   2.0000      -0.655195       -17.8288
  38   2.0000      -0.642725       -17.4894
  39   2.0000      -0.613604       -16.6970
  40   2.0000      -0.598057       -16.2740
  41   2.0000      -0.573622       -15.6091
  42   2.0000      -0.570534       -15.5250
  43   2.0000      -0.560527       -15.2527
  44   2.0000      -0.535602       -14.5745
  45   2.0000      -0.526253       -14.3201
  46   2.0000      -0.516740       -14.0612
  47   2.0000      -0.509248       -13.8573
  48   2.0000      -0.504651       -13.7322
  49   2.0000      -0.496745       -13.5171
  50   2.0000      -0.488627       -13.2962
  51   2.0000      -0.475408       -12.9365
  52   2.0000      -0.467701       -12.7268
  53   2.0000      -0.462192       -12.5769
  54   2.0000      -0.456621       -12.4253
  55   2.0000      -0.447933       -12.1889
  56   2.0000      -0.446362       -12.1461
  57   2.0000      -0.436304       -11.8724
  58   2.0000      -0.435388       -11.8475
  59   2.0000      -0.429444       -11.6858
  60   2.0000      -0.425408       -11.5759
  61   2.0000      -0.420538       -11.4434
  62   2.0000      -0.412168       -11.2157
  63   2.0000      -0.339690        -9.2434
  64   2.0000      -0.331294        -9.0150
  65   2.0000      -0.323110        -8.7923
  66   2.0000      -0.292013        -7.9461
  67   0.0000       0.033491         0.9113
  68   0.0000       0.055736         1.5167
  69   0.0000       0.109661         2.9840
  70   0.0000       0.119098         3.2408
  71   0.0000       0.124252         3.3811

MULLIKEN ATOMIC CHARGES
-----------------------
   0 S :    0.117719
   1 C :   -0.116297
   2 C :   -0.092297
   3 C :    0.047913
   4 C :   -0.200543
   5 H :    0.021845
   6 C :    0.028775
   7 H :    0.025211
   8 H :    0.024601
   9 C :   -0.029094
  10 H :    0.016234
  11 H :    0.024505
  12 C :   -0.005759
  13 H :    0.023871
  14 H :    0.028085
  15 H :    0.022677
  16 S :    0.098784
  17 C :   -0.117451
  18 C :   -0.040650
  19 C :    0.020155
  20 C :   -0.174918
  21 H :    0.015663
  22 C :    0.086532
  23 H :    0.030537
  24 H :    0.026386
  25 C :   -0.035089
  26 H :   -0.001476
  27 H :    0.015052
  28 C :   -0.080489
  29 H :    0.037942
  30 H :    0.042368
  31 H :    0.032278
  32 H :    0.043067
  33 H :    0.063863
Sum of atomic charges:   -0.0000000

LOEWDIN ATOMIC CHARGES
----------------------
   0 S :    0.387126
   1 C :   -0.189986
   2 C :   -0.057692
   3 C :   -0.060236
   4 C :   -0.194225
   5 H :    0.037109
   6 C :   -0.038226
   7 H :    0.032291
   8 H :    0.032945
   9 C :   -0.026384
  10 H :    0.018259
  11 H :    0.023449
  12 C :   -0.054180
  13 H :    0.026772
  14 H :    0.021476
  15 H :    0.021123
  16 S :    0.386705
  17 C :   -0.170325
  18 C :   -0.067651
  19 C :   -0.057890
  20 C :   -0.204994
  21 H :    0.032028
  22 C :   -0.034063
  23 H :    0.038304
  24 H :    0.033131
  25 C :   -0.039776
  26 H :    0.010486
  27 H :    0.022785
  28 C :   -0.067129
  29 H :    0.028912
  30 H :    0.032157
  31 H :    0.024217
  32 H :    0.020561
  33 H :    0.032921

  Mayer bond orders larger than 0.100000
B(  0-S ,  1-C ) :   1.1509 B(  0-S ,  4-C ) :   1.1346 B(  1-C ,  2-C ) :   1.5858
B(  1-C ,  4-C ) :   0.1047 B(  1-C , 32-H ) :   0.9676 B(  2-C ,  3-C ) :   1.2283
B(  2-C ,  6-C ) :   1.0302 B(  3-C ,  4-C ) :   1.5923 B(  3-C ,  5-H ) :   0.9879
B(  4-C , 20-C ) :   1.0210 B(  6-C ,  7-H ) :   0.9329 B(  6-C ,  8-H ) :   0.9428
B(  6-C ,  9-C ) :   1.0578 B(  9-C , 10-H ) :   0.9555 B(  9-C , 11-H ) :   0.9553
B(  9-C , 12-C ) :   1.0725 B( 12-C , 13-H ) :   0.9749 B( 12-C , 14-H ) :   0.9744
B( 12-C , 15-H ) :   0.9753 B( 16-S , 17-C ) :   1.1357 B( 16-S , 20-C ) :   1.1525
B( 17-C , 18-C ) :   1.6330 B( 17-C , 20-C ) :   0.1028 B( 17-C , 33-H ) :   0.9646
B( 18-C , 19-C ) :   1.1994 B( 18-C , 21-H ) :   0.9969 B( 19-C , 20-C ) :   1.5774
B( 19-C , 22-C ) :   1.0687 B( 22-C , 23-H ) :   0.9137 B( 22-C , 24-H ) :   0.9196
B( 22-C , 25-C ) :   1.0706 B( 25-C , 26-H ) :   0.9603 B( 25-C , 27-H ) :   0.9552
B( 25-C , 28-C ) :   1.0696 B( 28-C , 29-H ) :   0.9811 B( 28-C , 30-H ) :   0.9793
B( 28-C , 31-H ) :   0.9772

Dispersion correction           -0.013582281
FINAL SINGLE POINT ENERGY     -1339.866311567198

DIPOLE MOMENT
-------------
                                X             Y             Z
Electronic contribution:    -19.82389      17.30360       4.91576
Nuclear contribution   :     20.28934     -17.55781      -5.14473
                        -----------------------------------------
Total Dipole Moment    :      0.46545      -0.25421      -0.22897
                        -----------------------------------------
Magnitude (a.u.)       :      0.57767
Magnitude (Debye)      :      1.46831

Rotational constants in cm-1:     0.018171     0.007627     0.006265
Rotational constants in MHz :   544.742889   228.657431   187.829870

                             ****ORCA TERMINATED NORMALLY****
TOTAL RUN TIME: 0 days 0 hours 0 minutes 34 seconds 189 msec
