                         Program Version 4.2.1 -  RELEASE  -
|  1> ! wB97X-D3 SP def2-SVP
|  2> %pal
|  3> nprocs 16
|  4> end
|  5>
|  6> * xyz 0 1
|  7> S 	 17.7621 	 8.14845 	 87.8721
|  8> C 	 18.8672 	 8.72645 	 86.5955
|  9> C 	 18.6231 	 10.0155 	 86.2331
| 10> C 	 17.3613 	 10.4217 	 86.7908
| 11> C 	 16.7427 	 9.52076 	 87.5986
| 12> H 	 16.8683 	 11.3231 	 86.7425
| 13> C 	 19.3787 	 10.9992 	 85.3091
| 14> H 	 18.5999 	 11.7578 	 85.0935
| 15> H 	 19.5946 	 10.5647 	 84.3104
| 16> C 	 20.6207 	 11.5464 	 85.9605
| 17> H 	 21.3487 	 10.6935 	 86.2455
| 18> H 	 21.0683 	 12.1068 	 85.1718
| 19> C 	 20.37 	 12.4234 	 87.2842
| 20> H 	 21.2581 	 12.7833 	 87.7951
| 21> H 	 19.885 	 13.3101 	 86.9541
| 22> H 	 19.7528 	 11.9325 	 87.9932
| 23> S 	 15.7053 	 10.8314 	 89.7594
| 24> C 	 14.075 	 10.5267 	 90.2599
| 25> C 	 13.4166 	 9.63953 	 89.4039
| 26> C 	 14.3237 	 9.10352 	 88.3841
| 27> C 	 15.5751 	 9.70139 	 88.4247
| 28> H 	 12.4085 	 9.4551 	 89.6255
| 29> C 	 13.8977 	 8.07059 	 87.3409
| 30> H 	 14.4448 	 8.20271 	 86.3619
| 31> H 	 12.8354 	 8.19488 	 87.1866
| 32> C 	 14.096 	 6.58606 	 87.7302
| 33> H 	 15.2053 	 6.44522 	 87.7118
| 34> H 	 13.8643 	 5.95797 	 86.9279
| 35> C 	 13.3649 	 6.17958 	 89.0353
| 36> H 	 13.7533 	 6.61092 	 89.9741
| 37> H 	 13.5421 	 5.10301 	 89.2393
| 38> H 	 12.2977 	 6.31951 	 88.7421
| 39> H 	 19.6274 	 8.08143 	 86.189
| 40> H 	 13.522 	 11.107 	 90.9586
| 41> *
| 42>
| 43>                          ****END OF INPUT****

CARTESIAN COORDINATES (ANGSTROEM)
---------------------------------
  S     17.762100    8.148450   87.872100
  C     18.867200    8.726450   86.595500
  C     18.623100   10.015500   86.233100
  C     17.361300   10.421700   86.790800
  C     16.742700    9.520760   87.598600
  H     16.868300   11.323100   86.742500
  C     19.378700   10.999200   85.309100
  H     18.599900   11.757800   85.093500
  H     19.594600   10.564700   84.310400
  C     20.620700   11.546400   85.960500
  H     21.348700   10.693500   86.245500
  H     21.068300   12.106800   85.171800
  C     20.370000   12.423400   87.284200
  H     21.258100   12.783300   87.795100
  H     19.885000   13.310100   86.954100
  H     19.752800   11.932500   87.993200
  S     15.705300   10.831400   89.759400
  C     14.075000   10.526700   90.259900
  C     13.416600    9.639530   89.403900
  C     14.323700    9.103520   88.384100
  C     15.575100    9.701390   88.424700
  H     12.408500    9.455100   89.625500
  C     13.897700    8.070590   87.340900
  H     14.444800    8.202710   86.361900
  H     12.835400    8.194880   87.186600
  C     14.096000    6.586060   87.730200
  H     15.205300    6.445220   87.711800
  H     13.864300    5.957970   86.927900
  C     13.364900    6.179580   89.035300
  H     13.753300    6.610920   89.974100
  H     13.542100    5.103010   89.239300
  H     12.297700    6.319510   88.742100
  H     19.627400    8.081430   86.189000
  H     13.522000   11.107000   90.958600

 Total Charge           Charge          ....    0
 Multiplicity           Mult            ....    1
 Number of Electrons    NEL             ....  134
 Basis Dimension        Dim             ....  322

ORBITAL ENERGIES
----------------

  NO   OCC          E(Eh)            E(eV)
   0   2.0000     -88.964255     -2420.8404
   1   2.0000     -88.962421     -2420.7906
   2   2.0000     -10.322423      -280.8874
   3   2.0000     -10.320284      -280.8292
   4   2.0000     -10.314655      -280.6760
   5   2.0000     -10.314469      -280.6710
   6   2.0000     -10.308613      -280.5116
   7   2.0000     -10.302732      -280.3516
   8   2.0000     -10.300132      -280.2808
   9   2.0000     -10.295366      -280.1511
  10   2.0000     -10.295280      -280.1488
  11   2.0000     -10.291097      -280.0350
  12   2.0000     -10.284894      -279.8662
  13   2.0000     -10.281635      -279.7775
  14   2.0000     -10.279360      -279.7156
  15   2.0000     -10.274406      -279.5808
  16   2.0000      -8.079230      -219.8470
  17   2.0000      -8.077090      -219.7888
  18   2.0000      -6.037716      -164.2946
  19   2.0000      -6.035559      -164.2359
  20   2.0000      -6.033585      -164.1822
  21   2.0000      -6.031746      -164.1322
  22   2.0000      -6.030128      -164.0881
  23   2.0000      -6.027743      -164.0232
  24   2.0000      -1.007645       -27.4194
  25   2.0000      -0.981889       -26.7186
  26   2.0000      -0.909889       -24.7593
  27   2.0000      -0.901936       -24.5429
  28   2.0000      -0.868624       -23.6365
  29   2.0000      -0.843077       -22.9413
  30   2.0000      -0.840232       -22.8639
  31   2.0000      -0.813248       -22.1296
  32   2.0000      -0.787429       -21.4270
  33   2.0000      -0.773000       -21.0344
  34   2.0000      -0.706478       -19.2242
  35   2.0000      -0.705342       -19.1933
  36   2.0000      -0.686564       -18.6823
  37   2.0000      -0.662911       -18.0387
  38   2.0000      -0.648753       -17.6535
  39   2.0000      -0.609953       -16.5977
  40   2.0000      -0.583451       -15.8765
  41   2.0000      -0.573704       -15.6113
  42   2.0000      -0.556002       -15.1296
  43   2.0000      -0.545359       -14.8400
  44   2.0000      -0.543060       -14.7774
  45   2.0000      -0.536675       -14.6037
  46   2.0000      -0.519670       -14.1409
  47   2.0000      -0.510900       -13.9023
  48   2.0000      -0.496536       -13.5114
  49   2.0000      -0.493215       -13.4210
  50   2.0000      -0.483450       -13.1553
  51   2.0000      -0.476300       -12.9608
  52   2.0000      -0.470008       -12.7896
  53   2.0000      -0.468078       -12.7371
  54   2.0000      -0.462027       -12.5724
  55   2.0000      -0.447657       -12.1814
  56   2.0000      -0.441612       -12.0169
  57   2.0000      -0.436897       -11.8886
  58   2.0000      -0.426822       -11.6144
  59   2.0000      -0.423227       -11.5166
  60   2.0000      -0.419675       -11.4199
  61   2.0000      -0.411923       -11.2090
  62   2.0000      -0.405559       -11.0358
  63   2.0000      -0.334752        -9.1091
  64   2.0000      -0.326324        -8.8797
  65   2.0000      -0.324483        -8.8296
  66   2.0000      -0.310328        -8.4444
  67   0.0000       0.036944         1.0053
  68   0.0000       0.063441         1.7263
  69   0.0000       0.107244         2.9182
  70   0.0000       0.114724         3.1218
  71   0.0000       0.128279         3.4906

MULLIKEN ATOMIC CHARGES
-----------------------
   0 S :    0.108018
   1 C :   -0.142196
   2 C :   -0.054696
   3 C :    0.043238
   4 C :   -0.161661
   5 H :   -0.025607
   6 C :    0.058116
   7 H :    0.027609
   8 H :    0.041635
   9 C :   -0.078768
  10 H :    0.045685
  11 H :    0.027271
  12 C :   -0.036644
  13 H :    0.034902
  14 H :    0.017575
  15 H :    0.042568
  16 S :    0.119290
  17 C :   -0.085859
  18 C :   -0.031069
  19 C :   -0.002880
  20 C :   -0.182300
  21 H :    0.004691
  22 C :    0.047993
  23 H :    0.045923
  24 H :    0.014310
  25 C :   -0.059077
  26 H :    0.014582
  27 H :    0.013784
  28 C :   -0.067620
  29 H :    0.056254
  30 H :    0.032792
  31 H :    0.040087
  32 H :    0.043890
  33 H :    0.048164
Sum of atomic charges:   -0.0000000

LOEWDIN ATOMIC CHARGES
----------------------
   0 S :    0.399996
   1 C :   -0.176352
   2 C :   -0.060562
   3 C :   -0.056692
   4 C :   -0.201698
   5 H :    0.016996
   6 C :   -0.032205
   7 H :    0.033379
   8 H :    0.036453
   9 C :   -0.038807
  10 H :    0.032720
  11 H :    0.019563
  12 C :   -0.059803
  13 H :    0.028048
  14 H :    0.020188
  15 H :    0.022990
  16 S :    0.412349
  17 C :   -0.187610
  18 C :   -0.063024
  19 C :   -0.045123
  20 C :   -0.208968
  21 H :    0.023907
  22 C :   -0.034220
  23 H :    0.040730
  24 H :    0.023111
  25 C :   -0.044977
  26 H :    0.016938
  27 H :    0.016180
  28 C :   -0.075200
  29 H :    0.033087
  30 H :    0.029710
  31 H :    0.031411
  32 H :    0.023498
  33 H :    0.023988

  Mayer bond orders larger than 0.100000
B(  0-S ,  1-C ) :   1.1347 B(  0-S ,  4-C ) :   1.1448 B(  1-C ,  2-C ) :   1.6351
B(  1-C , 32-H ) :   0.9740 B(  2-C ,  3-C ) :   1.1943 B(  2-C ,  6-C ) :   0.9967
B(  3-C ,  4-C ) :   1.6300 B(  3-C ,  5-H ) :   1.0087 B(  4-C , 20-C ) :   1.0200
B(  6-C ,  7-H ) :   0.9442 B(  6-C ,  8-H ) :   0.9424 B(  6-C ,  9-C ) :   1.0681
B(  9-C , 10-H ) :   0.9598 B(  9-C , 11-H ) :   0.9589 B(  9-C , 12-C ) :   1.0558
B( 12-C , 13-H ) :   0.9774 B( 12-C , 14-H ) :   0.9764 B( 12-C , 15-H ) :   0.9795
B( 16-S , 17-C ) :   1.1603 B( 16-S , 20-C ) :   1.1383 B( 17-C , 18-C ) :   1.6281
B( 17-C , 33-H ) :   0.9657 B( 18-C , 19-C ) :   1.2074 B( 18-C , 21-H ) :   0.9981
B( 19-C , 20-C ) :   1.6103 B( 19-C , 22-C ) :   1.0433 B( 22-C , 23-H ) :   0.9336
B( 22-C , 24-H ) :   0.9373 B( 22-C , 25-C ) :   1.0787 B( 25-C , 26-H ) :   0.9461
B( 25-C , 27-H ) :   0.9544 B( 25-C , 28-C ) :   1.0652 B( 28-C , 29-H ) :   0.9720
B( 28-C , 30-H ) :   0.9726 B( 28-C , 31-H ) :   0.9754

Dispersion correction           -0.015277935
FINAL SINGLE POINT ENERGY     -1339.869081019097

DIPOLE MOMENT
-------------
                                X             Y             Z
Electronic contribution:     -1.77293       1.38796       8.02384
Nuclear contribution   :      1.71513      -1.24229      -8.38318
                        -----------------------------------------
Total Dipole Moment    :     -0.05780       0.14567      -0.35934
                        -----------------------------------------
Magnitude (a.u.)       :      0.39203
Magnitude (Debye)      :      0.99646

Rotational constants in cm-1:     0.024433     0.008240     0.006819
Rotational constants in MHz :   732.484488   247.028941   204.420353

                             ****ORCA TERMINATED NORMALLY****
TOTAL RUN TIME: 0 days 0 hours 0 minutes 35 seconds 108 msec
