                         Program Version 4.2.1 -  RELEASE  -
|  1> ! wB97X-D3 SP def2-SVP
|  2> %pal
|  3> nprocs 16
|  4> end
|  5>
|  6> * xyz 0 1
|  7> S 	 60.2904 	 -5.31207 	 88.2106
|  8> C 	 59.9614 	 -5.88107 	 89.8512
|  9> C 	 61.1272 	 -6.34476 	 90.5386
| 10> C 	 62.1899 	 -6.3655 	 89.6487
| 11> C 	 61.9313 	 -5.89565 	 88.4022
| 12> H 	 63.2071 	 -6.67838 	 89.8671
| 13> C 	 61.2006 	 -6.91746 	 91.9157
| 14> H 	 61.2688 	 -8.02322 	 91.9676
| 15> H 	 60.1929 	 -6.62432 	 92.2287
| 16> C 	 62.2619 	 -6.53648 	 92.9394
| 17> H 	 62.1049 	 -7.04332 	 93.854
| 18> H 	 63.184 	 -6.85944 	 92.4984
| 19> C 	 62.2254 	 -4.9676 	 93.3235
| 20> H 	 61.3194 	 -4.74314 	 93.9201
| 21> H 	 63.0762 	 -4.71459 	 93.9911
| 22> H 	 62.2311 	 -4.22641 	 92.5184
| 23> S 	 63.3329 	 -7.21032 	 86.4146
| 24> C 	 64.2789 	 -6.23501 	 85.2205
| 25> C 	 64.2647 	 -4.91592 	 85.6668
| 26> C 	 63.422 	 -4.66148 	 86.7767
| 27> C 	 62.8503 	 -5.75546 	 87.3137
| 28> H 	 64.821 	 -4.07622 	 85.2835
| 29> C 	 63.4351 	 -3.33032 	 87.433
| 30> H 	 64.4927 	 -3.00521 	 87.4708
| 31> H 	 63.1721 	 -3.41162 	 88.4792
| 32> C 	 62.557 	 -2.25007 	 86.7298
| 33> H 	 61.559 	 -2.74805 	 86.4953
| 34> H 	 63.0228 	 -1.89 	 85.8387
| 35> C 	 62.1112 	 -1.11042 	 87.6929
| 36> H 	 61.433 	 -1.36962 	 88.5187
| 37> H 	 61.7021 	 -0.332147 	 86.9722
| 38> H 	 62.9958 	 -0.611448 	 88.1784
| 39> H 	 59.0196 	 -5.71745 	 90.4077
| 40> H 	 64.835 	 -6.67112 	 84.3241
| 41> *
| 42>
| 43>                          ****END OF INPUT****

CARTESIAN COORDINATES (ANGSTROEM)
---------------------------------
  S     60.290400   -5.312070   88.210600
  C     59.961400   -5.881070   89.851200
  C     61.127200   -6.344760   90.538600
  C     62.189900   -6.365500   89.648700
  C     61.931300   -5.895650   88.402200
  H     63.207100   -6.678380   89.867100
  C     61.200600   -6.917460   91.915700
  H     61.268800   -8.023220   91.967600
  H     60.192900   -6.624320   92.228700
  C     62.261900   -6.536480   92.939400
  H     62.104900   -7.043320   93.854000
  H     63.184000   -6.859440   92.498400
  C     62.225400   -4.967600   93.323500
  H     61.319400   -4.743140   93.920100
  H     63.076200   -4.714590   93.991100
  H     62.231100   -4.226410   92.518400
  S     63.332900   -7.210320   86.414600
  C     64.278900   -6.235010   85.220500
  C     64.264700   -4.915920   85.666800
  C     63.422000   -4.661480   86.776700
  C     62.850300   -5.755460   87.313700
  H     64.821000   -4.076220   85.283500
  C     63.435100   -3.330320   87.433000
  H     64.492700   -3.005210   87.470800
  H     63.172100   -3.411620   88.479200
  C     62.557000   -2.250070   86.729800
  H     61.559000   -2.748050   86.495300
  H     63.022800   -1.890000   85.838700
  C     62.111200   -1.110420   87.692900
  H     61.433000   -1.369620   88.518700
  H     61.702100   -0.332147   86.972200
  H     62.995800   -0.611448   88.178400
  H     59.019600   -5.717450   90.407700
  H     64.835000   -6.671120   84.324100

 Total Charge           Charge          ....    0
 Multiplicity           Mult            ....    1
 Number of Electrons    NEL             ....  134
 Basis Dimension        Dim             ....  322

ORBITAL ENERGIES
----------------

  NO   OCC          E(Eh)            E(eV)
   0   2.0000     -88.973963     -2421.1046
   1   2.0000     -88.961008     -2420.7521
   2   2.0000     -10.330792      -281.1152
   3   2.0000     -10.323325      -280.9119
   4   2.0000     -10.322498      -280.8894
   5   2.0000     -10.318334      -280.7761
   6   2.0000     -10.303371      -280.3690
   7   2.0000     -10.293627      -280.1038
   8   2.0000     -10.293261      -280.0939
   9   2.0000     -10.292890      -280.0838
  10   2.0000     -10.290702      -280.0242
  11   2.0000     -10.290325      -280.0140
  12   2.0000     -10.287947      -279.9493
  13   2.0000     -10.286132      -279.8999
  14   2.0000     -10.285818      -279.8913
  15   2.0000     -10.285137      -279.8728
  16   2.0000      -8.087831      -220.0811
  17   2.0000      -8.074714      -219.7241
  18   2.0000      -6.046185      -164.5250
  19   2.0000      -6.042564      -164.4265
  20   2.0000      -6.038703      -164.3215
  21   2.0000      -6.033438      -164.1782
  22   2.0000      -6.029320      -164.0661
  23   2.0000      -6.025342      -163.9579
  24   2.0000      -1.008408       -27.4402
  25   2.0000      -0.981971       -26.7208
  26   2.0000      -0.912461       -24.8293
  27   2.0000      -0.901748       -24.5378
  28   2.0000      -0.866780       -23.5863
  29   2.0000      -0.850825       -23.1521
  30   2.0000      -0.844662       -22.9844
  31   2.0000      -0.811040       -22.0695
  32   2.0000      -0.780737       -21.2449
  33   2.0000      -0.766327       -20.8528
  34   2.0000      -0.714235       -19.4353
  35   2.0000      -0.695371       -18.9220
  36   2.0000      -0.691620       -18.8199
  37   2.0000      -0.669767       -18.2253
  38   2.0000      -0.637182       -17.3386
  39   2.0000      -0.619524       -16.8581
  40   2.0000      -0.594243       -16.1702
  41   2.0000      -0.561963       -15.2918
  42   2.0000      -0.560809       -15.2604
  43   2.0000      -0.552898       -15.0451
  44   2.0000      -0.542045       -14.7498
  45   2.0000      -0.524273       -14.2662
  46   2.0000      -0.517330       -14.0773
  47   2.0000      -0.510940       -13.9034
  48   2.0000      -0.497518       -13.5382
  49   2.0000      -0.491015       -13.3612
  50   2.0000      -0.484262       -13.1774
  51   2.0000      -0.478530       -13.0215
  52   2.0000      -0.470413       -12.8006
  53   2.0000      -0.463933       -12.6243
  54   2.0000      -0.459615       -12.5068
  55   2.0000      -0.451115       -12.2755
  56   2.0000      -0.439574       -11.9614
  57   2.0000      -0.437374       -11.9016
  58   2.0000      -0.432200       -11.7608
  59   2.0000      -0.425207       -11.5705
  60   2.0000      -0.419074       -11.4036
  61   2.0000      -0.415588       -11.3087
  62   2.0000      -0.406509       -11.0617
  63   2.0000      -0.342415        -9.3176
  64   2.0000      -0.331274        -9.0144
  65   2.0000      -0.322803        -8.7839
  66   2.0000      -0.301273        -8.1981
  67   0.0000       0.036706         0.9988
  68   0.0000       0.054044         1.4706
  69   0.0000       0.099162         2.6983
  70   0.0000       0.112226         3.0538
  71   0.0000       0.127747         3.4762

MULLIKEN ATOMIC CHARGES
-----------------------
   0 S :    0.137355
   1 C :   -0.132375
   2 C :   -0.072825
   3 C :    0.036672
   4 C :   -0.176235
   5 H :    0.010722
   6 C :    0.049731
   7 H :    0.050465
   8 H :    0.000945
   9 C :   -0.034535
  10 H :    0.031809
  11 H :    0.028884
  12 C :   -0.099415
  13 H :    0.032483
  14 H :    0.037581
  15 H :    0.043935
  16 S :    0.088888
  17 C :   -0.123486
  18 C :   -0.000023
  19 C :   -0.011231
  20 C :   -0.186125
  21 H :    0.010394
  22 C :    0.046554
  23 H :    0.029381
  24 H :    0.021495
  25 C :   -0.077649
  26 H :    0.038622
  27 H :    0.030145
  28 C :   -0.088470
  29 H :    0.053531
  30 H :    0.043814
  31 H :    0.028855
  32 H :    0.057643
  33 H :    0.092464
Sum of atomic charges:    0.0000000

LOEWDIN ATOMIC CHARGES
----------------------
   0 S :    0.416023
   1 C :   -0.196981
   2 C :   -0.063493
   3 C :   -0.058165
   4 C :   -0.195575
   5 H :    0.034004
   6 C :   -0.039524
   7 H :    0.041189
   8 H :    0.027112
   9 C :   -0.026985
  10 H :    0.025838
  11 H :    0.020226
  12 C :   -0.076521
  13 H :    0.026943
  14 H :    0.027451
  15 H :    0.024457
  16 S :    0.367776
  17 C :   -0.177746
  18 C :   -0.067685
  19 C :   -0.066532
  20 C :   -0.194783
  21 H :    0.028368
  22 C :   -0.035620
  23 H :    0.033950
  24 H :    0.028345
  25 C :   -0.039378
  26 H :    0.030188
  27 H :    0.018560
  28 C :   -0.077326
  29 H :    0.028436
  30 H :    0.034966
  31 H :    0.023151
  32 H :    0.030119
  33 H :    0.049212

  Mayer bond orders larger than 0.100000
B(  0-S ,  1-C ) :   1.1542 B(  0-S ,  4-C ) :   1.1414 B(  1-C ,  2-C ) :   1.5855
B(  1-C ,  4-C ) :   0.1048 B(  1-C , 32-H ) :   0.9544 B(  2-C ,  3-C ) :   1.2439
B(  2-C ,  6-C ) :   1.0220 B(  3-C ,  4-C ) :   1.5972 B(  3-C ,  5-H ) :   0.9928
B(  4-C , 20-C ) :   1.0245 B(  6-C ,  7-H ) :   0.9392 B(  6-C ,  8-H ) :   0.9326
B(  6-C ,  9-C ) :   1.0756 B(  9-C , 10-H ) :   0.9542 B(  9-C , 11-H ) :   0.9565
B(  9-C , 12-C ) :   1.0598 B( 12-C , 13-H ) :   0.9770 B( 12-C , 14-H ) :   0.9787
B( 12-C , 15-H ) :   0.9817 B( 16-S , 17-C ) :   1.1401 B( 16-S , 20-C ) :   1.1173
B( 17-C , 18-C ) :   1.5887 B( 17-C , 33-H ) :   0.9616 B( 18-C , 19-C ) :   1.2452
B( 18-C , 21-H ) :   0.9830 B( 19-C , 20-C ) :   1.6274 B( 19-C , 22-C ) :   1.0510
B( 22-C , 23-H ) :   0.9357 B( 22-C , 24-H ) :   0.9373 B( 22-C , 25-C ) :   1.0410
B( 25-C , 26-H ) :   0.9583 B( 25-C , 27-H ) :   0.9593 B( 25-C , 28-C ) :   1.0775
B( 28-C , 29-H ) :   0.9760 B( 28-C , 30-H ) :   0.9752 B( 28-C , 31-H ) :   0.9732

Dispersion correction           -0.014729399
FINAL SINGLE POINT ENERGY     -1339.866877552740

DIPOLE MOMENT
-------------
                                X             Y             Z
Electronic contribution:     -2.51341     -15.94343     -18.41087
Nuclear contribution   :      2.77510      16.24600      18.83803
                        -----------------------------------------
Total Dipole Moment    :      0.26169       0.30257       0.42716
                        -----------------------------------------
Magnitude (a.u.)       :      0.58523
Magnitude (Debye)      :      1.48754

Rotational constants in cm-1:     0.017689     0.008938     0.007428
Rotational constants in MHz :   530.298087   267.958223   222.671958

                             ****ORCA TERMINATED NORMALLY****
TOTAL RUN TIME: 0 days 0 hours 0 minutes 30 seconds 207 msec
