                         Program Version 4.2.1 -  RELEASE  -
|  1> ! wB97X-D3 SP def2-SVP
|  2> %pal
|  3> nprocs 16
|  4> end
|  5>
|  6> * xyz 0 1
|  7> S 	 -68.5371 	 54.3799 	 135.236
|  8> C 	 -68.1813 	 54.7583 	 136.873
|  9> C 	 -68.5676 	 53.7815 	 137.806
| 10> C 	 -69.3341 	 52.7856 	 137.173
| 11> C 	 -69.4365 	 53.0143 	 135.811
| 12> H 	 -69.8964 	 51.9364 	 137.533
| 13> C 	 -68.4331 	 53.9437 	 139.296
| 14> H 	 -68.4958 	 55.0053 	 139.66
| 15> H 	 -67.3297 	 53.8009 	 139.48
| 16> C 	 -69.1196 	 52.9938 	 140.232
| 17> H 	 -70.2482 	 53.0303 	 140.125
| 18> H 	 -68.8078 	 52.041 	 139.926
| 19> C 	 -68.7539 	 53.3108 	 141.722
| 20> H 	 -69.1001 	 52.5333 	 142.415
| 21> H 	 -67.6564 	 53.3541 	 141.901
| 22> H 	 -69.1875 	 54.2864 	 142.01
| 23> S 	 -69.3838 	 50.8853 	 134.215
| 24> C 	 -70.8706 	 50.3206 	 133.444
| 25> C 	 -71.935 	 51.0683 	 133.832
| 26> C 	 -71.565 	 52.1935 	 134.683
| 27> C 	 -70.1941 	 52.2956 	 134.863
| 28> H 	 -72.9401 	 50.8542 	 133.468
| 29> C 	 -72.5987 	 53.2496 	 135.216
| 30> H 	 -73.4178 	 53.3405 	 134.479
| 31> H 	 -72.0919 	 54.2126 	 135.259
| 32> C 	 -73.1916 	 53.1193 	 136.623
| 33> H 	 -73.6997 	 54.0248 	 136.898
| 34> H 	 -72.4575 	 52.7846 	 137.362
| 35> C 	 -74.3099 	 52.1114 	 136.648
| 36> H 	 -75.1293 	 52.1243 	 135.944
| 37> H 	 -74.8021 	 52.0184 	 137.699
| 38> H 	 -73.8393 	 51.226 	 136.503
| 39> H 	 -67.7552 	 55.6907 	 137.253
| 40> H 	 -70.8983 	 49.3576 	 132.975
| 41> *
| 42>
| 43>                          ****END OF INPUT****

CARTESIAN COORDINATES (ANGSTROEM)
---------------------------------
  S    -68.537100   54.379900  135.236000
  C    -68.181300   54.758300  136.873000
  C    -68.567600   53.781500  137.806000
  C    -69.334100   52.785600  137.173000
  C    -69.436500   53.014300  135.811000
  H    -69.896400   51.936400  137.533000
  C    -68.433100   53.943700  139.296000
  H    -68.495800   55.005300  139.660000
  H    -67.329700   53.800900  139.480000
  C    -69.119600   52.993800  140.232000
  H    -70.248200   53.030300  140.125000
  H    -68.807800   52.041000  139.926000
  C    -68.753900   53.310800  141.722000
  H    -69.100100   52.533300  142.415000
  H    -67.656400   53.354100  141.901000
  H    -69.187500   54.286400  142.010000
  S    -69.383800   50.885300  134.215000
  C    -70.870600   50.320600  133.444000
  C    -71.935000   51.068300  133.832000
  C    -71.565000   52.193500  134.683000
  C    -70.194100   52.295600  134.863000
  H    -72.940100   50.854200  133.468000
  C    -72.598700   53.249600  135.216000
  H    -73.417800   53.340500  134.479000
  H    -72.091900   54.212600  135.259000
  C    -73.191600   53.119300  136.623000
  H    -73.699700   54.024800  136.898000
  H    -72.457500   52.784600  137.362000
  C    -74.309900   52.111400  136.648000
  H    -75.129300   52.124300  135.944000
  H    -74.802100   52.018400  137.699000
  H    -73.839300   51.226000  136.503000
  H    -67.755200   55.690700  137.253000
  H    -70.898300   49.357600  132.975000

 Total Charge           Charge          ....    0
 Multiplicity           Mult            ....    1
 Number of Electrons    NEL             ....  134
 Basis Dimension        Dim             ....  322

ORBITAL ENERGIES
----------------

  NO   OCC          E(Eh)            E(eV)
   0   2.0000     -88.970244     -2421.0034
   1   2.0000     -88.959245     -2420.7041
   2   2.0000     -10.319019      -280.7948
   3   2.0000     -10.318550      -280.7820
   4   2.0000     -10.315647      -280.7030
   5   2.0000     -10.310231      -280.5556
   6   2.0000     -10.310145      -280.5533
   7   2.0000     -10.302854      -280.3549
   8   2.0000     -10.296721      -280.1880
   9   2.0000     -10.295974      -280.1677
  10   2.0000     -10.294416      -280.1253
  11   2.0000     -10.293991      -280.1137
  12   2.0000     -10.291291      -280.0403
  13   2.0000     -10.288562      -279.9660
  14   2.0000     -10.281975      -279.7868
  15   2.0000     -10.267047      -279.3806
  16   2.0000      -8.085549      -220.0190
  17   2.0000      -8.074358      -219.7144
  18   2.0000      -6.043680      -164.4569
  19   2.0000      -6.040037      -164.3577
  20   2.0000      -6.036621      -164.2648
  21   2.0000      -6.032818      -164.1613
  22   2.0000      -6.028867      -164.0538
  23   2.0000      -6.025072      -163.9505
  24   2.0000      -1.012152       -27.5421
  25   2.0000      -0.983592       -26.7649
  26   2.0000      -0.916330       -24.9346
  27   2.0000      -0.908146       -24.7119
  28   2.0000      -0.874766       -23.8036
  29   2.0000      -0.854288       -23.2464
  30   2.0000      -0.844421       -22.9779
  31   2.0000      -0.813814       -22.1450
  32   2.0000      -0.782389       -21.2899
  33   2.0000      -0.769905       -20.9502
  34   2.0000      -0.715871       -19.4798
  35   2.0000      -0.694898       -18.9091
  36   2.0000      -0.683918       -18.6104
  37   2.0000      -0.661046       -17.9880
  38   2.0000      -0.648721       -17.6526
  39   2.0000      -0.619748       -16.8642
  40   2.0000      -0.595253       -16.1977
  41   2.0000      -0.569127       -15.4867
  42   2.0000      -0.565329       -15.3834
  43   2.0000      -0.557894       -15.1811
  44   2.0000      -0.543021       -14.7764
  45   2.0000      -0.523330       -14.2405
  46   2.0000      -0.515188       -14.0190
  47   2.0000      -0.504601       -13.7309
  48   2.0000      -0.501010       -13.6332
  49   2.0000      -0.493589       -13.4312
  50   2.0000      -0.487119       -13.2552
  51   2.0000      -0.479437       -13.0461
  52   2.0000      -0.472289       -12.8516
  53   2.0000      -0.471837       -12.8393
  54   2.0000      -0.457153       -12.4398
  55   2.0000      -0.453026       -12.3275
  56   2.0000      -0.442656       -12.0453
  57   2.0000      -0.437692       -11.9102
  58   2.0000      -0.434382       -11.8201
  59   2.0000      -0.430248       -11.7077
  60   2.0000      -0.420705       -11.4480
  61   2.0000      -0.416521       -11.3341
  62   2.0000      -0.408272       -11.1096
  63   2.0000      -0.342143        -9.3102
  64   2.0000      -0.330355        -8.9894
  65   2.0000      -0.317428        -8.6377
  66   2.0000      -0.302585        -8.2338
  67   0.0000       0.045088         1.2269
  68   0.0000       0.047010         1.2792
  69   0.0000       0.117346         3.1931
  70   0.0000       0.123036         3.3480
  71   0.0000       0.123907         3.3717

MULLIKEN ATOMIC CHARGES
-----------------------
   0 S :    0.147063
   1 C :   -0.121677
   2 C :   -0.031653
   3 C :    0.040447
   4 C :   -0.204993
   5 H :    0.015133
   6 C :   -0.007981
   7 H :    0.029185
   8 H :    0.034723
   9 C :   -0.053291
  10 H :    0.041788
  11 H :    0.022038
  12 C :   -0.063553
  13 H :    0.040357
  14 H :    0.032864
  15 H :    0.040364
  16 S :    0.088213
  17 C :   -0.085108
  18 C :   -0.024172
  19 C :   -0.028114
  20 C :   -0.170290
  21 H :    0.023691
  22 C :    0.051585
  23 H :    0.025616
  24 H :    0.031956
  25 C :   -0.025656
  26 H :    0.027987
  27 H :    0.032737
  28 C :   -0.064594
  29 H :    0.023730
  30 H :    0.033907
  31 H :   -0.001378
  32 H :    0.040738
  33 H :    0.058337
Sum of atomic charges:   -0.0000000

LOEWDIN ATOMIC CHARGES
----------------------
   0 S :    0.441962
   1 C :   -0.212238
   2 C :   -0.061685
   3 C :   -0.056375
   4 C :   -0.211089
   5 H :    0.034485
   6 C :   -0.049015
   7 H :    0.033453
   8 H :    0.041463
   9 C :   -0.041725
  10 H :    0.029925
  11 H :    0.016560
  12 C :   -0.065583
  13 H :    0.028600
  14 H :    0.027269
  15 H :    0.028569
  16 S :    0.394292
  17 C :   -0.173219
  18 C :   -0.074036
  19 C :   -0.048644
  20 C :   -0.212977
  21 H :    0.033625
  22 C :   -0.029032
  23 H :    0.031671
  24 H :    0.034151
  25 C :   -0.035054
  26 H :    0.023917
  27 H :    0.029028
  28 C :   -0.071246
  29 H :    0.019419
  30 H :    0.033067
  31 H :    0.007236
  32 H :    0.026557
  33 H :    0.026668

  Mayer bond orders larger than 0.100000
B(  0-S ,  1-C ) :   1.1586 B(  0-S ,  4-C ) :   1.1686 B(  1-C ,  2-C ) :   1.5974
B(  1-C ,  4-C ) :   0.1076 B(  1-C , 32-H ) :   0.9683 B(  2-C ,  3-C ) :   1.2417
B(  2-C ,  6-C ) :   1.0027 B(  3-C ,  4-C ) :   1.5800 B(  3-C ,  5-H ) :   0.9933
B(  4-C , 20-C ) :   0.9997 B(  6-C ,  7-H ) :   0.9477 B(  6-C ,  8-H ) :   0.9237
B(  6-C ,  9-C ) :   1.0833 B(  9-C , 10-H ) :   0.9514 B(  9-C , 11-H ) :   0.9429
B(  9-C , 12-C ) :   1.0783 B( 12-C , 13-H ) :   0.9748 B( 12-C , 14-H ) :   0.9758
B( 12-C , 15-H ) :   0.9759 B( 16-S , 17-C ) :   1.1491 B( 16-S , 20-C ) :   1.1418
B( 17-C , 18-C ) :   1.6256 B( 17-C , 33-H ) :   0.9689 B( 18-C , 19-C ) :   1.2193
B( 18-C , 21-H ) :   0.9895 B( 19-C , 20-C ) :   1.6311 B( 19-C , 22-C ) :   1.0244
B( 22-C , 23-H ) :   0.9433 B( 22-C , 24-H ) :   0.9368 B( 22-C , 25-C ) :   1.0750
B( 25-C , 26-H ) :   0.9560 B( 25-C , 27-H ) :   0.9509 B( 25-C , 28-C ) :   1.0712
B( 28-C , 29-H ) :   0.9761 B( 28-C , 30-H ) :   0.9721 B( 28-C , 31-H ) :   0.9767

Dispersion correction           -0.014656041
FINAL SINGLE POINT ENERGY     -1339.862900521194

DIPOLE MOMENT
-------------
                                X             Y             Z
Electronic contribution:     14.39163      -2.00818     -25.39867
Nuclear contribution   :    -14.75318       1.99898      25.94324
                        -----------------------------------------
Total Dipole Moment    :     -0.36155      -0.00920       0.54457
                        -----------------------------------------
Magnitude (a.u.)       :      0.65373
Magnitude (Debye)      :      1.66164

Rotational constants in cm-1:     0.017361     0.008932     0.007287
Rotational constants in MHz :   520.461746   267.788241   218.450940

                             ****ORCA TERMINATED NORMALLY****
TOTAL RUN TIME: 0 days 0 hours 0 minutes 34 seconds 989 msec
