                         Program Version 4.2.1 -  RELEASE  -
|  1> ! wB97X-D3 SP def2-SVP
|  2> %pal
|  3> nprocs 16
|  4> end
|  5>
|  6> * xyz 0 1
|  7> S 	 12.8038 	 25.7154 	 62.3376
|  8> C 	 13.1928 	 24.7408 	 60.9528
|  9> C 	 12.0682 	 24.1347 	 60.4477
| 10> C 	 10.933 	 24.3526 	 61.2953
| 11> C 	 11.1509 	 25.1433 	 62.4483
| 12> H 	 9.93616 	 23.9782 	 61.2546
| 13> C 	 12.0454 	 23.2613 	 59.2092
| 14> H 	 12.367 	 23.8121 	 58.3666
| 15> H 	 10.8817 	 23.1424 	 59.1616
| 16> C 	 12.6557 	 21.8203 	 59.2742
| 17> H 	 12.83 	 21.4061 	 58.2862
| 18> H 	 13.6839 	 21.9064 	 59.6472
| 19> C 	 11.8343 	 20.8342 	 60.0553
| 20> H 	 11.8071 	 21.0498 	 61.2036
| 21> H 	 10.8323 	 20.7892 	 59.6025
| 22> H 	 12.3011 	 19.9073 	 60.0499
| 23> S 	 10.9596 	 25.0002 	 65.2059
| 24> C 	 9.37582 	 25.2924 	 66.0394
| 25> C 	 8.41422 	 25.6326 	 65.1289
| 26> C 	 8.83733 	 25.5412 	 63.7181
| 27> C 	 10.2253 	 25.3137 	 63.6229
| 28> H 	 7.44946 	 25.8873 	 65.4463
| 29> C 	 7.9345 	 25.9158 	 62.5317
| 30> H 	 8.61145 	 25.7887 	 61.6928
| 31> H 	 7.68539 	 26.9843 	 62.5977
| 32> C 	 6.58724 	 25.2035 	 62.5161
| 33> H 	 6.03281 	 25.4962 	 61.6112
| 34> H 	 6.03576 	 25.6102 	 63.2875
| 35> C 	 6.53288 	 23.6255 	 62.5915
| 36> H 	 7.16365 	 23.1221 	 61.8524
| 37> H 	 5.50757 	 23.3808 	 62.4026
| 38> H 	 6.8521 	 23.2384 	 63.5844
| 39> H 	 14.1351 	 24.8277 	 60.4558
| 40> H 	 9.14576 	 25.2899 	 67.0525
| 41> *
| 42>
| 43>                          ****END OF INPUT****

CARTESIAN COORDINATES (ANGSTROEM)
---------------------------------
  S     12.803800   25.715400   62.337600
  C     13.192800   24.740800   60.952800
  C     12.068200   24.134700   60.447700
  C     10.933000   24.352600   61.295300
  C     11.150900   25.143300   62.448300
  H      9.936160   23.978200   61.254600
  C     12.045400   23.261300   59.209200
  H     12.367000   23.812100   58.366600
  H     10.881700   23.142400   59.161600
  C     12.655700   21.820300   59.274200
  H     12.830000   21.406100   58.286200
  H     13.683900   21.906400   59.647200
  C     11.834300   20.834200   60.055300
  H     11.807100   21.049800   61.203600
  H     10.832300   20.789200   59.602500
  H     12.301100   19.907300   60.049900
  S     10.959600   25.000200   65.205900
  C      9.375820   25.292400   66.039400
  C      8.414220   25.632600   65.128900
  C      8.837330   25.541200   63.718100
  C     10.225300   25.313700   63.622900
  H      7.449460   25.887300   65.446300
  C      7.934500   25.915800   62.531700
  H      8.611450   25.788700   61.692800
  H      7.685390   26.984300   62.597700
  C      6.587240   25.203500   62.516100
  H      6.032810   25.496200   61.611200
  H      6.035760   25.610200   63.287500
  C      6.532880   23.625500   62.591500
  H      7.163650   23.122100   61.852400
  H      5.507570   23.380800   62.402600
  H      6.852100   23.238400   63.584400
  H     14.135100   24.827700   60.455800
  H      9.145760   25.289900   67.052500

 Total Charge           Charge          ....    0
 Multiplicity           Mult            ....    1
 Number of Electrons    NEL             ....  134
 Basis Dimension        Dim             ....  322

ORBITAL ENERGIES
----------------

  NO   OCC          E(Eh)            E(eV)
   0   2.0000     -88.966406     -2420.8990
   1   2.0000     -88.966317     -2420.8966
   2   2.0000     -10.338820      -281.3336
   3   2.0000     -10.336383      -281.2673
   4   2.0000     -10.317959      -280.7659
   5   2.0000     -10.312422      -280.6153
   6   2.0000     -10.311443      -280.5886
   7   2.0000     -10.303666      -280.3770
   8   2.0000     -10.297759      -280.2163
   9   2.0000     -10.295999      -280.1684
  10   2.0000     -10.295146      -280.1452
  11   2.0000     -10.293251      -280.0936
  12   2.0000     -10.288252      -279.9576
  13   2.0000     -10.286264      -279.9035
  14   2.0000     -10.280529      -279.7474
  15   2.0000     -10.277913      -279.6762
  16   2.0000      -8.081085      -219.8975
  17   2.0000      -8.079613      -219.8575
  18   2.0000      -6.039559      -164.3448
  19   2.0000      -6.038463      -164.3149
  20   2.0000      -6.035407      -164.2318
  21   2.0000      -6.034363      -164.2034
  22   2.0000      -6.032064      -164.1408
  23   2.0000      -6.030040      -164.0857
  24   2.0000      -1.000343       -27.2207
  25   2.0000      -0.977062       -26.5872
  26   2.0000      -0.908435       -24.7198
  27   2.0000      -0.904751       -24.6195
  28   2.0000      -0.868959       -23.6456
  29   2.0000      -0.848846       -23.0983
  30   2.0000      -0.838744       -22.8234
  31   2.0000      -0.818647       -22.2765
  32   2.0000      -0.781692       -21.2709
  33   2.0000      -0.774016       -21.0621
  34   2.0000      -0.706853       -19.2344
  35   2.0000      -0.703524       -19.1438
  36   2.0000      -0.696479       -18.9522
  37   2.0000      -0.659077       -17.9344
  38   2.0000      -0.646154       -17.5827
  39   2.0000      -0.610374       -16.6091
  40   2.0000      -0.589141       -16.0313
  41   2.0000      -0.570368       -15.5205
  42   2.0000      -0.559000       -15.2112
  43   2.0000      -0.549962       -14.9652
  44   2.0000      -0.544886       -14.8271
  45   2.0000      -0.538157       -14.6440
  46   2.0000      -0.520582       -14.1658
  47   2.0000      -0.512702       -13.9513
  48   2.0000      -0.502023       -13.6607
  49   2.0000      -0.497863       -13.5475
  50   2.0000      -0.487212       -13.2577
  51   2.0000      -0.474991       -12.9252
  52   2.0000      -0.468810       -12.7570
  53   2.0000      -0.464045       -12.6273
  54   2.0000      -0.456346       -12.4178
  55   2.0000      -0.447525       -12.1778
  56   2.0000      -0.443014       -12.0550
  57   2.0000      -0.437055       -11.8929
  58   2.0000      -0.432285       -11.7631
  59   2.0000      -0.428252       -11.6533
  60   2.0000      -0.422218       -11.4891
  61   2.0000      -0.413178       -11.2432
  62   2.0000      -0.403506       -10.9800
  63   2.0000      -0.352150        -9.5825
  64   2.0000      -0.330366        -8.9897
  65   2.0000      -0.327874        -8.9219
  66   2.0000      -0.292411        -7.9569
  67   0.0000       0.025710         0.6996
  68   0.0000       0.071296         1.9401
  69   0.0000       0.111313         3.0290
  70   0.0000       0.116064         3.1583
  71   0.0000       0.119504         3.2519

MULLIKEN ATOMIC CHARGES
-----------------------
   0 S :    0.109406
   1 C :   -0.120345
   2 C :   -0.073018
   3 C :    0.042943
   4 C :   -0.176776
   5 H :   -0.003499
   6 C :    0.043155
   7 H :    0.031363
   8 H :    0.026776
   9 C :   -0.046887
  10 H :    0.023810
  11 H :    0.021799
  12 C :   -0.054860
  13 H :    0.053121
  14 H :    0.037745
  15 H :    0.019407
  16 S :    0.094788
  17 C :   -0.056771
  18 C :   -0.012569
  19 C :   -0.067594
  20 C :   -0.143945
  21 H :    0.000145
  22 C :    0.086223
  23 H :    0.015839
  24 H :    0.042644
  25 C :   -0.074404
  26 H :    0.030437
  27 H :    0.011575
  28 C :   -0.053931
  29 H :    0.035853
  30 H :    0.031224
  31 H :    0.045218
  32 H :    0.048732
  33 H :    0.032399
Sum of atomic charges:    0.0000000

LOEWDIN ATOMIC CHARGES
----------------------
   0 S :    0.413497
   1 C :   -0.193216
   2 C :   -0.070579
   3 C :   -0.065355
   4 C :   -0.201243
   5 H :    0.023389
   6 C :   -0.032102
   7 H :    0.025304
   8 H :    0.039778
   9 C :   -0.041895
  10 H :    0.024736
  11 H :    0.023236
  12 C :   -0.067800
  13 H :    0.040700
  14 H :    0.027755
  15 H :    0.016845
  16 S :    0.371910
  17 C :   -0.156276
  18 C :   -0.058701
  19 C :   -0.054357
  20 C :   -0.185747
  21 H :    0.020932
  22 C :   -0.031720
  23 H :    0.026840
  24 H :    0.040154
  25 C :   -0.038470
  26 H :    0.029175
  27 H :    0.012888
  28 C :   -0.064093
  29 H :    0.024147
  30 H :    0.024312
  31 H :    0.029609
  32 H :    0.026265
  33 H :    0.020081

  Mayer bond orders larger than 0.100000
B(  0-S ,  1-C ) :   1.1574 B(  0-S ,  4-C ) :   1.1657 B(  1-C ,  2-C ) :   1.5745
B(  1-C , 32-H ) :   0.9739 B(  2-C ,  3-C ) :   1.2641 B(  2-C ,  6-C ) :   1.0047
B(  3-C ,  4-C ) :   1.5480 B(  3-C ,  5-H ) :   0.9901 B(  4-C , 20-C ) :   1.0220
B(  6-C ,  7-H ) :   0.9402 B(  6-C ,  8-H ) :   0.9504 B(  6-C ,  9-C ) :   1.0620
B(  9-C , 10-H ) :   0.9530 B(  9-C , 11-H ) :   0.9528 B(  9-C , 12-C ) :   1.0891
B( 12-C , 13-H ) :   0.9726 B( 12-C , 14-H ) :   0.9725 B( 12-C , 15-H ) :   0.9694
B( 16-S , 17-C ) :   1.1133 B( 16-S , 20-C ) :   1.1308 B( 17-C , 18-C ) :   1.6705
B( 17-C , 33-H ) :   0.9730 B( 18-C , 19-C ) :   1.1882 B( 18-C , 21-H ) :   0.9909
B( 19-C , 20-C ) :   1.6188 B( 19-C , 22-C ) :   1.0370 B( 22-C , 23-H ) :   0.9362
B( 22-C , 24-H ) :   0.9377 B( 22-C , 25-C ) :   1.0629 B( 25-C , 26-H ) :   0.9572
B( 25-C , 27-H ) :   0.9530 B( 25-C , 28-C ) :   1.0727 B( 28-C , 29-H ) :   0.9783
B( 28-C , 30-H ) :   0.9751 B( 28-C , 31-H ) :   0.9738

Dispersion correction           -0.014390546
FINAL SINGLE POINT ENERGY     -1339.864091852374

DIPOLE MOMENT
-------------
                                X             Y             Z
Electronic contribution:     15.06173      15.16632      16.17115
Nuclear contribution   :    -15.52864     -15.36964     -16.56612
                        -----------------------------------------
Total Dipole Moment    :     -0.46692      -0.20333      -0.39497
                        -----------------------------------------
Magnitude (a.u.)       :      0.64448
Magnitude (Debye)      :      1.63813

Rotational constants in cm-1:     0.017970     0.008740     0.006977
Rotational constants in MHz :   538.712423   262.012470   209.156462

                             ****ORCA TERMINATED NORMALLY****
TOTAL RUN TIME: 0 days 0 hours 0 minutes 34 seconds 211 msec
