                         Program Version 4.2.1 -  RELEASE  -
|  1> ! wB97X-D3 SP def2-SVP
|  2> %pal
|  3> nprocs 16
|  4> end
|  5>
|  6> * xyz 0 1
|  7> S 	 -31.2656 	 69.3242 	 108.304
|  8> C 	 -32.7087 	 68.3038 	 108.084
|  9> C 	 -33.7813 	 69.1441 	 108.21
| 10> C 	 -33.5033 	 70.497 	 108.532
| 11> C 	 -32.1709 	 70.7519 	 108.661
| 12> H 	 -34.2388 	 71.2334 	 108.793
| 13> C 	 -35.2579 	 68.8087 	 107.899
| 14> H 	 -35.8736 	 69.3641 	 108.645
| 15> H 	 -35.2917 	 67.7703 	 108.348
| 16> C 	 -35.7454 	 69.0014 	 106.449
| 17> H 	 -35.468 	 70.0383 	 106.16
| 18> H 	 -35.2667 	 68.2788 	 105.84
| 19> C 	 -37.2405 	 68.7981 	 106.124
| 20> H 	 -37.8403 	 69.4111 	 106.796
| 21> H 	 -37.5597 	 69.1257 	 105.142
| 22> H 	 -37.5883 	 67.7745 	 106.199
| 23> S 	 -30.5853 	 71.9119 	 110.577
| 24> C 	 -30.5163 	 73.5747 	 110.643
| 25> C 	 -31.0744 	 74.242 	 109.549
| 26> C 	 -31.6657 	 73.2866 	 108.649
| 27> C 	 -31.5219 	 71.9804 	 109.039
| 28> H 	 -31.1485 	 75.3558 	 109.535
| 29> C 	 -32.3318 	 73.7641 	 107.382
| 30> H 	 -32.8384 	 72.9592 	 106.912
| 31> H 	 -31.5609 	 73.9159 	 106.664
| 32> C 	 -33.4274 	 74.8044 	 107.588
| 33> H 	 -33.0272 	 75.6113 	 108.191
| 34> H 	 -34.1714 	 74.2596 	 108.181
| 35> C 	 -33.9618 	 75.4834 	 106.311
| 36> H 	 -33.0736 	 75.9658 	 105.768
| 37> H 	 -34.6541 	 76.2561 	 106.443
| 38> H 	 -34.4586 	 74.713 	 105.68
| 39> H 	 -32.7838 	 67.2583 	 107.636
| 40> H 	 -30.135 	 74.1086 	 111.473
| 41> *
| 42>
| 43>                          ****END OF INPUT****

CARTESIAN COORDINATES (ANGSTROEM)
---------------------------------
  S    -31.265600   69.324200  108.304000
  C    -32.708700   68.303800  108.084000
  C    -33.781300   69.144100  108.210000
  C    -33.503300   70.497000  108.532000
  C    -32.170900   70.751900  108.661000
  H    -34.238800   71.233400  108.793000
  C    -35.257900   68.808700  107.899000
  H    -35.873600   69.364100  108.645000
  H    -35.291700   67.770300  108.348000
  C    -35.745400   69.001400  106.449000
  H    -35.468000   70.038300  106.160000
  H    -35.266700   68.278800  105.840000
  C    -37.240500   68.798100  106.124000
  H    -37.840300   69.411100  106.796000
  H    -37.559700   69.125700  105.142000
  H    -37.588300   67.774500  106.199000
  S    -30.585300   71.911900  110.577000
  C    -30.516300   73.574700  110.643000
  C    -31.074400   74.242000  109.549000
  C    -31.665700   73.286600  108.649000
  C    -31.521900   71.980400  109.039000
  H    -31.148500   75.355800  109.535000
  C    -32.331800   73.764100  107.382000
  H    -32.838400   72.959200  106.912000
  H    -31.560900   73.915900  106.664000
  C    -33.427400   74.804400  107.588000
  H    -33.027200   75.611300  108.191000
  H    -34.171400   74.259600  108.181000
  C    -33.961800   75.483400  106.311000
  H    -33.073600   75.965800  105.768000
  H    -34.654100   76.256100  106.443000
  H    -34.458600   74.713000  105.680000
  H    -32.783800   67.258300  107.636000
  H    -30.135000   74.108600  111.473000

 Total Charge           Charge          ....    0
 Multiplicity           Mult            ....    1
 Number of Electrons    NEL             ....  134
 Basis Dimension        Dim             ....  322

ORBITAL ENERGIES
----------------

  NO   OCC          E(Eh)            E(eV)
   0   2.0000     -88.965152     -2420.8648
   1   2.0000     -88.963299     -2420.8144
   2   2.0000     -10.326668      -281.0029
   3   2.0000     -10.325221      -280.9635
   4   2.0000     -10.319969      -280.8206
   5   2.0000     -10.313733      -280.6509
   6   2.0000     -10.306724      -280.4602
   7   2.0000     -10.298616      -280.2396
   8   2.0000     -10.297937      -280.2211
   9   2.0000     -10.297565      -280.2110
  10   2.0000     -10.290972      -280.0316
  11   2.0000     -10.288938      -279.9762
  12   2.0000     -10.286741      -279.9165
  13   2.0000     -10.285133      -279.8727
  14   2.0000     -10.282556      -279.8026
  15   2.0000     -10.278309      -279.6870
  16   2.0000      -8.081122      -219.8985
  17   2.0000      -8.078051      -219.8149
  18   2.0000      -6.039396      -164.3403
  19   2.0000      -6.036704      -164.2671
  20   2.0000      -6.035463      -164.2333
  21   2.0000      -6.032467      -164.1518
  22   2.0000      -6.032020      -164.1396
  23   2.0000      -6.028709      -164.0495
  24   2.0000      -1.011496       -27.5242
  25   2.0000      -0.988711       -26.9042
  26   2.0000      -0.915067       -24.9002
  27   2.0000      -0.905689       -24.6450
  28   2.0000      -0.871996       -23.7282
  29   2.0000      -0.854290       -23.2464
  30   2.0000      -0.844461       -22.9789
  31   2.0000      -0.813467       -22.1356
  32   2.0000      -0.787531       -21.4298
  33   2.0000      -0.773618       -21.0512
  34   2.0000      -0.708457       -19.2781
  35   2.0000      -0.702234       -19.1088
  36   2.0000      -0.700087       -19.0503
  37   2.0000      -0.658369       -17.9151
  38   2.0000      -0.636227       -17.3126
  39   2.0000      -0.619237       -16.8503
  40   2.0000      -0.602398       -16.3921
  41   2.0000      -0.567842       -15.4518
  42   2.0000      -0.567592       -15.4450
  43   2.0000      -0.558565       -15.1993
  44   2.0000      -0.528055       -14.3691
  45   2.0000      -0.523003       -14.2316
  46   2.0000      -0.520246       -14.1566
  47   2.0000      -0.514780       -14.0079
  48   2.0000      -0.507053       -13.7976
  49   2.0000      -0.500356       -13.6154
  50   2.0000      -0.497955       -13.5500
  51   2.0000      -0.478732       -13.0270
  52   2.0000      -0.470236       -12.7958
  53   2.0000      -0.464324       -12.6349
  54   2.0000      -0.460552       -12.5323
  55   2.0000      -0.456582       -12.4242
  56   2.0000      -0.449058       -12.2195
  57   2.0000      -0.433922       -11.8076
  58   2.0000      -0.427279       -11.6269
  59   2.0000      -0.424372       -11.5478
  60   2.0000      -0.415406       -11.3038
  61   2.0000      -0.413934       -11.2637
  62   2.0000      -0.409546       -11.1443
  63   2.0000      -0.346670        -9.4334
  64   2.0000      -0.334838        -9.1114
  65   2.0000      -0.328710        -8.9447
  66   2.0000      -0.296515        -8.0686
  67   0.0000       0.035905         0.9770
  68   0.0000       0.062299         1.6952
  69   0.0000       0.115593         3.1454
  70   0.0000       0.123780         3.3682
  71   0.0000       0.127192         3.4611

MULLIKEN ATOMIC CHARGES
-----------------------
   0 S :    0.096906
   1 C :   -0.138526
   2 C :   -0.119051
   3 C :    0.041178
   4 C :   -0.148160
   5 H :    0.006882
   6 C :    0.018978
   7 H :    0.021667
   8 H :    0.027287
   9 C :   -0.018281
  10 H :    0.032009
  11 H :    0.021907
  12 C :   -0.043236
  13 H :    0.019232
  14 H :    0.029285
  15 H :    0.030856
  16 S :    0.120346
  17 C :   -0.073372
  18 C :   -0.061015
  19 C :   -0.047413
  20 C :   -0.146689
  21 H :    0.041426
  22 C :    0.117235
  23 H :   -0.005154
  24 H :    0.027348
  25 C :   -0.096323
  26 H :    0.024092
  27 H :    0.032634
  28 C :   -0.041520
  29 H :    0.040823
  30 H :    0.028320
  31 H :    0.034897
  32 H :    0.079885
  33 H :    0.045549
Sum of atomic charges:   -0.0000000

LOEWDIN ATOMIC CHARGES
----------------------
   0 S :    0.401764
   1 C :   -0.209327
   2 C :   -0.068777
   3 C :   -0.070821
   4 C :   -0.195452
   5 H :    0.030055
   6 C :   -0.042158
   7 H :    0.028470
   8 H :    0.033338
   9 C :   -0.036445
  10 H :    0.030417
  11 H :    0.021215
  12 C :   -0.065568
  13 H :    0.021577
  14 H :    0.026908
  15 H :    0.023878
  16 S :    0.426610
  17 C :   -0.193993
  18 C :   -0.084036
  19 C :   -0.042593
  20 C :   -0.195490
  21 H :    0.039897
  22 C :   -0.031413
  23 H :    0.024313
  24 H :    0.031342
  25 C :   -0.038439
  26 H :    0.017364
  27 H :    0.026792
  28 C :   -0.064900
  29 H :    0.036731
  30 H :    0.017174
  31 H :    0.027494
  32 H :    0.051804
  33 H :    0.022266

  Mayer bond orders larger than 0.100000
B(  0-S ,  1-C ) :   1.1106 B(  0-S ,  4-C ) :   1.1664 B(  1-C ,  2-C ) :   1.6330
B(  1-C , 32-H ) :   0.9606 B(  2-C ,  3-C ) :   1.2382 B(  2-C ,  6-C ) :   1.0137
B(  3-C ,  4-C ) :   1.5712 B(  3-C ,  5-H ) :   1.0022 B(  4-C , 20-C ) :   1.0142
B(  6-C ,  7-H ) :   0.9416 B(  6-C ,  8-H ) :   0.9428 B(  6-C ,  9-C ) :   1.0516
B(  9-C , 10-H ) :   0.9542 B(  9-C , 11-H ) :   0.9567 B(  9-C , 12-C ) :   1.0830
B( 12-C , 13-H ) :   0.9745 B( 12-C , 14-H ) :   0.9742 B( 12-C , 15-H ) :   0.9772
B( 16-S , 17-C ) :   1.2006 B( 16-S , 20-C ) :   1.1173 B( 17-C , 18-C ) :   1.5931
B( 17-C , 33-H ) :   0.9667 B( 18-C , 19-C ) :   1.2232 B( 18-C , 21-H ) :   0.9849
B( 19-C , 20-C ) :   1.6251 B( 19-C , 22-C ) :   1.0432 B( 22-C , 23-H ) :   0.9254
B( 22-C , 24-H ) :   0.9319 B( 22-C , 25-C ) :   1.0404 B( 25-C , 26-H ) :   0.9621
B( 25-C , 27-H ) :   0.9561 B( 25-C , 28-C ) :   1.0819 B( 28-C , 29-H ) :   0.9733
B( 28-C , 30-H ) :   0.9757 B( 28-C , 31-H ) :   0.9747

Dispersion correction           -0.013781345
FINAL SINGLE POINT ENERGY     -1339.870433706505

DIPOLE MOMENT
-------------
                                X             Y             Z
Electronic contribution:     26.11498      -7.84540      17.03989
Nuclear contribution   :    -26.71429       8.25929     -17.28663
                        -----------------------------------------
Total Dipole Moment    :     -0.59931       0.41389      -0.24674
                        -----------------------------------------
Magnitude (a.u.)       :      0.76900
Magnitude (Debye)      :      1.95465

Rotational constants in cm-1:     0.016361     0.009014     0.006292
Rotational constants in MHz :   490.496277   270.240832   188.626027

                             ****ORCA TERMINATED NORMALLY****
TOTAL RUN TIME: 0 days 0 hours 0 minutes 29 seconds 550 msec
