                         Program Version 4.2.1 -  RELEASE  -
|  1> ! wB97X-D3 SP def2-SVP
|  2> %pal
|  3> nprocs 16
|  4> end
|  5>
|  6> * xyz 0 1
|  7> S 	 33.0868 	 26.7776 	 51.5644
|  8> C 	 34.4466 	 27.8409 	 51.178
|  9> C 	 35.6342 	 27.4815 	 51.8364
| 10> C 	 35.3427 	 26.3822 	 52.6883
| 11> C 	 34.0901 	 25.8042 	 52.5916
| 12> H 	 36.0969 	 25.8541 	 53.2495
| 13> C 	 36.983 	 28.1742 	 51.8344
| 14> H 	 36.825 	 29.0429 	 51.2008
| 15> H 	 37.6602 	 27.5315 	 51.3603
| 16> C 	 37.5808 	 28.4333 	 53.2433
| 17> H 	 37.6845 	 27.5174 	 53.8059
| 18> H 	 38.634 	 28.8036 	 53.221
| 19> C 	 36.7789 	 29.453 	 53.9964
| 20> H 	 35.7918 	 29.0445 	 54.2146
| 21> H 	 37.3137 	 29.5736 	 55.0024
| 22> H 	 36.6681 	 30.2899 	 53.4039
| 23> S 	 32.1187 	 23.8806 	 52.6101
| 24> C 	 32.4212 	 22.2811 	 53.1916
| 25> C 	 33.6726 	 22.1806 	 53.7735
| 26> C 	 34.4837 	 23.3656 	 53.5866
| 27> C 	 33.6721 	 24.4486 	 53.1399
| 28> H 	 33.887 	 21.2074 	 54.2278
| 29> C 	 35.8991 	 23.354 	 53.9847
| 30> H 	 36.0363 	 22.5724 	 54.7886
| 31> H 	 36.1405 	 24.2132 	 54.5661
| 32> C 	 36.8787 	 23.0384 	 52.8594
| 33> H 	 36.691 	 23.853 	 52.1383
| 34> H 	 36.6443 	 22.1948 	 52.3621
| 35> C 	 38.3456 	 22.9891 	 53.2761
| 36> H 	 38.6703 	 23.7863 	 53.9396
| 37> H 	 39.0889 	 23.1673 	 52.4881
| 38> H 	 38.615 	 21.9585 	 53.5918
| 39> H 	 34.4966 	 28.6229 	 50.4793
| 40> H 	 31.739 	 21.4409 	 53.3135
| 41> *
| 42>
| 43>                          ****END OF INPUT****

CARTESIAN COORDINATES (ANGSTROEM)
---------------------------------
  S     33.086800   26.777600   51.564400
  C     34.446600   27.840900   51.178000
  C     35.634200   27.481500   51.836400
  C     35.342700   26.382200   52.688300
  C     34.090100   25.804200   52.591600
  H     36.096900   25.854100   53.249500
  C     36.983000   28.174200   51.834400
  H     36.825000   29.042900   51.200800
  H     37.660200   27.531500   51.360300
  C     37.580800   28.433300   53.243300
  H     37.684500   27.517400   53.805900
  H     38.634000   28.803600   53.221000
  C     36.778900   29.453000   53.996400
  H     35.791800   29.044500   54.214600
  H     37.313700   29.573600   55.002400
  H     36.668100   30.289900   53.403900
  S     32.118700   23.880600   52.610100
  C     32.421200   22.281100   53.191600
  C     33.672600   22.180600   53.773500
  C     34.483700   23.365600   53.586600
  C     33.672100   24.448600   53.139900
  H     33.887000   21.207400   54.227800
  C     35.899100   23.354000   53.984700
  H     36.036300   22.572400   54.788600
  H     36.140500   24.213200   54.566100
  C     36.878700   23.038400   52.859400
  H     36.691000   23.853000   52.138300
  H     36.644300   22.194800   52.362100
  C     38.345600   22.989100   53.276100
  H     38.670300   23.786300   53.939600
  H     39.088900   23.167300   52.488100
  H     38.615000   21.958500   53.591800
  H     34.496600   28.622900   50.479300
  H     31.739000   21.440900   53.313500

 Total Charge           Charge          ....    0
 Multiplicity           Mult            ....    1
 Number of Electrons    NEL             ....  134
 Basis Dimension        Dim             ....  322

ORBITAL ENERGIES
----------------

  NO   OCC          E(Eh)            E(eV)
   0   2.0000     -88.970300     -2421.0049
   1   2.0000     -88.969540     -2420.9843
   2   2.0000     -10.337926      -281.3093
   3   2.0000     -10.334679      -281.2209
   4   2.0000     -10.316364      -280.7225
   5   2.0000     -10.313668      -280.6492
   6   2.0000     -10.310636      -280.5667
   7   2.0000     -10.302503      -280.3454
   8   2.0000     -10.296820      -280.1907
   9   2.0000     -10.292773      -280.0806
  10   2.0000     -10.291577      -280.0480
  11   2.0000     -10.288685      -279.9693
  12   2.0000     -10.287652      -279.9412
  13   2.0000     -10.282519      -279.8016
  14   2.0000     -10.280780      -279.7542
  15   2.0000     -10.271035      -279.4891
  16   2.0000      -8.084648      -219.9944
  17   2.0000      -8.084565      -219.9922
  18   2.0000      -6.043239      -164.4449
  19   2.0000      -6.043197      -164.4437
  20   2.0000      -6.039167      -164.3341
  21   2.0000      -6.039018      -164.3300
  22   2.0000      -6.035417      -164.2321
  23   2.0000      -6.035207      -164.2263
  24   2.0000      -1.006896       -27.3990
  25   2.0000      -0.985226       -26.8094
  26   2.0000      -0.918699       -24.9991
  27   2.0000      -0.916097       -24.9283
  28   2.0000      -0.866643       -23.5825
  29   2.0000      -0.855411       -23.2769
  30   2.0000      -0.845824       -23.0161
  31   2.0000      -0.816768       -22.2254
  32   2.0000      -0.786232       -21.3945
  33   2.0000      -0.776051       -21.1174
  34   2.0000      -0.714659       -19.4469
  35   2.0000      -0.702841       -19.1253
  36   2.0000      -0.692711       -18.8496
  37   2.0000      -0.659895       -17.9567
  38   2.0000      -0.635811       -17.3013
  39   2.0000      -0.626676       -17.0527
  40   2.0000      -0.599028       -16.3004
  41   2.0000      -0.569617       -15.5001
  42   2.0000      -0.566128       -15.4051
  43   2.0000      -0.557094       -15.1593
  44   2.0000      -0.541754       -14.7419
  45   2.0000      -0.531983       -14.4760
  46   2.0000      -0.519621       -14.1396
  47   2.0000      -0.516475       -14.0540
  48   2.0000      -0.504615       -13.7313
  49   2.0000      -0.498014       -13.5517
  50   2.0000      -0.489524       -13.3206
  51   2.0000      -0.483651       -13.1608
  52   2.0000      -0.470687       -12.8081
  53   2.0000      -0.464355       -12.6357
  54   2.0000      -0.459771       -12.5110
  55   2.0000      -0.453474       -12.3396
  56   2.0000      -0.445057       -12.1106
  57   2.0000      -0.443914       -12.0795
  58   2.0000      -0.435768       -11.8579
  59   2.0000      -0.427596       -11.6355
  60   2.0000      -0.423638       -11.5278
  61   2.0000      -0.415122       -11.2961
  62   2.0000      -0.404660       -11.0114
  63   2.0000      -0.358511        -9.7556
  64   2.0000      -0.337437        -9.1821
  65   2.0000      -0.326370        -8.8810
  66   2.0000      -0.282576        -7.6893
  67   0.0000       0.019877         0.5409
  68   0.0000       0.085495         2.3264
  69   0.0000       0.095008         2.5853
  70   0.0000       0.113758         3.0955
  71   0.0000       0.128034         3.4840

MULLIKEN ATOMIC CHARGES
-----------------------
   0 S :    0.107899
   1 C :   -0.091008
   2 C :   -0.132790
   3 C :   -0.008927
   4 C :   -0.102526
   5 H :   -0.016411
   6 C :    0.132153
   7 H :    0.014990
   8 H :    0.023798
   9 C :   -0.106339
  10 H :    0.023424
  11 H :    0.031345
  12 C :   -0.018478
  13 H :    0.038584
  14 H :    0.040780
  15 H :    0.017268
  16 S :    0.093810
  17 C :   -0.086023
  18 C :   -0.042093
  19 C :   -0.073383
  20 C :   -0.070871
  21 H :    0.027518
  22 C :    0.009073
  23 H :    0.018756
  24 H :    0.027839
  25 C :   -0.000973
  26 H :    0.025102
  27 H :   -0.000560
  28 C :   -0.047480
  29 H :    0.025915
  30 H :    0.024939
  31 H :    0.038744
  32 H :    0.018869
  33 H :    0.057055
Sum of atomic charges:   -0.0000000

LOEWDIN ATOMIC CHARGES
----------------------
   0 S :    0.401989
   1 C :   -0.191167
   2 C :   -0.055891
   3 C :   -0.077248
   4 C :   -0.190451
   5 H :    0.021385
   6 C :   -0.023084
   7 H :    0.029871
   8 H :    0.028361
   9 C :   -0.042446
  10 H :    0.019884
  11 H :    0.028386
  12 C :   -0.058032
  13 H :    0.027166
  14 H :    0.036176
  15 H :    0.013116
  16 S :    0.419459
  17 C :   -0.198545
  18 C :   -0.071388
  19 C :   -0.051896
  20 C :   -0.194225
  21 H :    0.036064
  22 C :   -0.040550
  23 H :    0.035298
  24 H :    0.024481
  25 C :   -0.030019
  26 H :    0.027690
  27 H :    0.011857
  28 C :   -0.072589
  29 H :    0.024775
  30 H :    0.029865
  31 H :    0.030940
  32 H :    0.016219
  33 H :    0.034548

  Mayer bond orders larger than 0.100000
B(  0-S ,  1-C ) :   1.1351 B(  0-S ,  4-C ) :   1.1432 B(  1-C ,  2-C ) :   1.6128
B(  1-C , 32-H ) :   0.9643 B(  2-C ,  3-C ) :   1.2560 B(  2-C ,  6-C ) :   1.0183
B(  3-C ,  4-C ) :   1.5894 B(  3-C ,  5-H ) :   0.9805 B(  4-C , 20-C ) :   1.0409
B(  6-C ,  7-H ) :   0.9413 B(  6-C ,  8-H ) :   0.9230 B(  6-C ,  9-C ) :   1.0759
B(  9-C , 10-H ) :   0.9497 B(  9-C , 11-H ) :   0.9537 B(  9-C , 12-C ) :   1.0815
B( 12-C , 13-H ) :   0.9731 B( 12-C , 14-H ) :   0.9713 B( 12-C , 15-H ) :   0.9759
B( 16-S , 17-C ) :   1.1628 B( 16-S , 20-C ) :   1.1434 B( 17-C , 18-C ) :   1.6277
B( 17-C , 33-H ) :   0.9597 B( 18-C , 19-C ) :   1.2443 B( 18-C , 21-H ) :   0.9841
B( 19-C , 20-C ) :   1.5626 B( 19-C , 22-C ) :   1.0506 B( 22-C , 23-H ) :   0.9320
B( 22-C , 24-H ) :   0.9351 B( 22-C , 25-C ) :   1.0501 B( 25-C , 26-H ) :   0.9526
B( 25-C , 27-H ) :   0.9506 B( 25-C , 28-C ) :   1.0808 B( 28-C , 29-H ) :   0.9725
B( 28-C , 30-H ) :   0.9714 B( 28-C , 31-H ) :   0.9751

Dispersion correction           -0.014785514
FINAL SINGLE POINT ENERGY     -1339.858023127588

DIPOLE MOMENT
-------------
                                X             Y             Z
Electronic contribution:    -29.63791      -3.90469      -7.48032
Nuclear contribution   :     30.40743       3.63501       7.56687
                        -----------------------------------------
Total Dipole Moment    :      0.76952      -0.26968       0.08655
                        -----------------------------------------
Magnitude (a.u.)       :      0.81999
Magnitude (Debye)      :      2.08425

Rotational constants in cm-1:     0.017511     0.010128     0.007058
Rotational constants in MHz :   524.958740   303.620262   211.589327

                             ****ORCA TERMINATED NORMALLY****
TOTAL RUN TIME: 0 days 0 hours 0 minutes 36 seconds 318 msec
