                         Program Version 4.2.1 -  RELEASE  -
|  1> ! wB97X-D3 SP def2-SVP
|  2> %pal
|  3> nprocs 16
|  4> end
|  5>
|  6> * xyz 0 1
|  7> S 	 58.5447 	 -8.75817 	 89.2313
|  8> C 	 58.5287 	 -7.15954 	 89.751
|  9> C 	 57.5433 	 -6.41967 	 89.085
| 10> C 	 57.0063 	 -7.19588 	 87.9585
| 11> C 	 57.4703 	 -8.47899 	 87.9441
| 12> H 	 56.4062 	 -6.80286 	 87.1576
| 13> C 	 57.2141 	 -4.99458 	 89.3099
| 14> H 	 57.3856 	 -5.00278 	 90.4026
| 15> H 	 56.1789 	 -4.73675 	 89.2961
| 16> C 	 58.2236 	 -4.01141 	 88.6345
| 17> H 	 57.9949 	 -2.91709 	 88.7854
| 18> H 	 59.2275 	 -4.32244 	 89.0334
| 19> C 	 58.1753 	 -4.10955 	 87.1758
| 20> H 	 58.9194 	 -3.57346 	 86.6805
| 21> H 	 58.3355 	 -5.06753 	 86.8069
| 22> H 	 57.2005 	 -3.70002 	 86.892
| 23> S 	 55.4602 	 -10.1035 	 87.1036
| 24> C 	 55.7072 	 -11.345 	 85.8887
| 25> C 	 56.9929 	 -11.2831 	 85.3757
| 26> C 	 57.8048 	 -10.3079 	 86.0302
| 27> C 	 57.122 	 -9.62181 	 87.1018
| 28> H 	 57.194 	 -11.959 	 84.5268
| 29> C 	 59.2242 	 -9.95636 	 85.6164
| 30> H 	 59.295 	 -8.85265 	 85.5662
| 31> H 	 59.387 	 -10.3806 	 84.6412
| 32> C 	 60.2783 	 -10.5128 	 86.5338
| 33> H 	 59.7645 	 -11.2496 	 87.1691
| 34> H 	 60.625 	 -9.73783 	 87.2982
| 35> C 	 61.5089 	 -11.1738 	 85.8338
| 36> H 	 61.9383 	 -10.5931 	 85.0367
| 37> H 	 61.2618 	 -12.2255 	 85.4787
| 38> H 	 62.3121 	 -11.3525 	 86.5455
| 39> H 	 59.1529 	 -6.70927 	 90.4894
| 40> H 	 54.93 	 -11.991 	 85.5046
| 41> *
| 42>
| 43>                          ****END OF INPUT****

CARTESIAN COORDINATES (ANGSTROEM)
---------------------------------
  S     58.544700   -8.758170   89.231300
  C     58.528700   -7.159540   89.751000
  C     57.543300   -6.419670   89.085000
  C     57.006300   -7.195880   87.958500
  C     57.470300   -8.478990   87.944100
  H     56.406200   -6.802860   87.157600
  C     57.214100   -4.994580   89.309900
  H     57.385600   -5.002780   90.402600
  H     56.178900   -4.736750   89.296100
  C     58.223600   -4.011410   88.634500
  H     57.994900   -2.917090   88.785400
  H     59.227500   -4.322440   89.033400
  C     58.175300   -4.109550   87.175800
  H     58.919400   -3.573460   86.680500
  H     58.335500   -5.067530   86.806900
  H     57.200500   -3.700020   86.892000
  S     55.460200  -10.103500   87.103600
  C     55.707200  -11.345000   85.888700
  C     56.992900  -11.283100   85.375700
  C     57.804800  -10.307900   86.030200
  C     57.122000   -9.621810   87.101800
  H     57.194000  -11.959000   84.526800
  C     59.224200   -9.956360   85.616400
  H     59.295000   -8.852650   85.566200
  H     59.387000  -10.380600   84.641200
  C     60.278300  -10.512800   86.533800
  H     59.764500  -11.249600   87.169100
  H     60.625000   -9.737830   87.298200
  C     61.508900  -11.173800   85.833800
  H     61.938300  -10.593100   85.036700
  H     61.261800  -12.225500   85.478700
  H     62.312100  -11.352500   86.545500
  H     59.152900   -6.709270   90.489400
  H     54.930000  -11.991000   85.504600

 Total Charge           Charge          ....    0
 Multiplicity           Mult            ....    1
 Number of Electrons    NEL             ....  134
 Basis Dimension        Dim             ....  322

ORBITAL ENERGIES
----------------

  NO   OCC          E(Eh)            E(eV)
   0   2.0000     -88.965352     -2420.8703
   1   2.0000     -88.965077     -2420.8628
   2   2.0000     -10.327092      -281.0145
   3   2.0000     -10.323645      -280.9207
   4   2.0000     -10.317623      -280.7568
   5   2.0000     -10.309880      -280.5461
   6   2.0000     -10.309607      -280.5387
   7   2.0000     -10.303088      -280.3613
   8   2.0000     -10.298124      -280.2262
   9   2.0000     -10.293422      -280.0983
  10   2.0000     -10.291764      -280.0531
  11   2.0000     -10.288468      -279.9634
  12   2.0000     -10.285333      -279.8781
  13   2.0000     -10.283903      -279.8392
  14   2.0000     -10.279782      -279.7271
  15   2.0000     -10.259530      -279.1760
  16   2.0000      -8.081629      -219.9123
  17   2.0000      -8.080061      -219.8696
  18   2.0000      -6.039933      -164.3549
  19   2.0000      -6.038407      -164.3134
  20   2.0000      -6.035695      -164.2396
  21   2.0000      -6.034387      -164.2040
  22   2.0000      -6.032643      -164.1565
  23   2.0000      -6.031177      -164.1167
  24   2.0000      -1.013691       -27.5839
  25   2.0000      -0.986223       -26.8365
  26   2.0000      -0.920548       -25.0494
  27   2.0000      -0.905290       -24.6342
  28   2.0000      -0.873630       -23.7727
  29   2.0000      -0.853761       -23.2320
  30   2.0000      -0.840455       -22.8699
  31   2.0000      -0.819699       -22.3052
  32   2.0000      -0.785619       -21.3778
  33   2.0000      -0.767696       -20.8901
  34   2.0000      -0.702909       -19.1271
  35   2.0000      -0.697833       -18.9890
  36   2.0000      -0.686145       -18.6709
  37   2.0000      -0.658038       -17.9061
  38   2.0000      -0.646439       -17.5905
  39   2.0000      -0.614130       -16.7113
  40   2.0000      -0.594921       -16.1886
  41   2.0000      -0.584552       -15.9065
  42   2.0000      -0.559906       -15.2358
  43   2.0000      -0.553858       -15.0713
  44   2.0000      -0.549901       -14.9636
  45   2.0000      -0.522482       -14.2175
  46   2.0000      -0.517267       -14.0755
  47   2.0000      -0.512423       -13.9437
  48   2.0000      -0.504114       -13.7176
  49   2.0000      -0.499831       -13.6011
  50   2.0000      -0.495719       -13.4892
  51   2.0000      -0.477026       -12.9805
  52   2.0000      -0.466877       -12.7044
  53   2.0000      -0.466624       -12.6975
  54   2.0000      -0.464511       -12.6400
  55   2.0000      -0.444463       -12.0944
  56   2.0000      -0.437960       -11.9175
  57   2.0000      -0.433978       -11.8091
  58   2.0000      -0.433079       -11.7847
  59   2.0000      -0.424341       -11.5469
  60   2.0000      -0.414983       -11.2923
  61   2.0000      -0.411389       -11.1945
  62   2.0000      -0.404223       -10.9995
  63   2.0000      -0.338112        -9.2005
  64   2.0000      -0.335301        -9.1240
  65   2.0000      -0.320461        -8.7202
  66   2.0000      -0.300085        -8.1657
  67   0.0000       0.036238         0.9861
  68   0.0000       0.065349         1.7782
  69   0.0000       0.106339         2.8936
  70   0.0000       0.126106         3.4315
  71   0.0000       0.137380         3.7383

MULLIKEN ATOMIC CHARGES
-----------------------
   0 S :    0.140928
   1 C :   -0.096811
   2 C :   -0.148705
   3 C :    0.047656
   4 C :   -0.173534
   5 H :    0.013642
   6 C :    0.057011
   7 H :    0.021860
   8 H :    0.026901
   9 C :   -0.060320
  10 H :    0.039134
  11 H :    0.025312
  12 C :   -0.001165
  13 H :    0.013246
  14 H :    0.015869
  15 H :    0.020256
  16 S :    0.119335
  17 C :   -0.106029
  18 C :   -0.046347
  19 C :   -0.064348
  20 C :   -0.156429
  21 H :    0.033527
  22 C :    0.123157
  23 H :    0.042957
  24 H :    0.008905
  25 C :   -0.105013
  26 H :    0.034656
  27 H :    0.041753
  28 C :   -0.069222
  29 H :    0.036702
  30 H :    0.038439
  31 H :    0.029821
  32 H :    0.038369
  33 H :    0.058485
Sum of atomic charges:   -0.0000000

LOEWDIN ATOMIC CHARGES
----------------------
   0 S :    0.472824
   1 C :   -0.218280
   2 C :   -0.059834
   3 C :   -0.062188
   4 C :   -0.221929
   5 H :    0.030996
   6 C :   -0.044212
   7 H :    0.038287
   8 H :    0.028099
   9 C :   -0.036306
  10 H :    0.032173
  11 H :    0.025042
  12 C :   -0.061053
  13 H :    0.019522
  14 H :    0.014754
  15 H :    0.027300
  16 S :    0.427482
  17 C :   -0.187368
  18 C :   -0.080323
  19 C :   -0.048282
  20 C :   -0.223252
  21 H :    0.040219
  22 C :   -0.034608
  23 H :    0.038381
  24 H :    0.027279
  25 C :   -0.054505
  26 H :    0.024368
  27 H :    0.024602
  28 C :   -0.072083
  29 H :    0.020982
  30 H :    0.031427
  31 H :    0.026254
  32 H :    0.024634
  33 H :    0.029600

  Mayer bond orders larger than 0.100000
B(  0-S ,  1-C ) :   1.1694 B(  0-S ,  4-C ) :   1.1826 B(  1-C ,  2-C ) :   1.5878
B(  1-C , 32-H ) :   0.9707 B(  2-C ,  3-C ) :   1.2260 B(  2-C ,  6-C ) :   1.0221
B(  3-C ,  4-C ) :   1.5849 B(  3-C ,  5-H ) :   1.0025 B(  4-C , 20-C ) :   0.9985
B(  6-C ,  7-H ) :   0.9334 B(  6-C ,  8-H ) :   0.9476 B(  6-C ,  9-C ) :   1.0592
B(  9-C , 10-H ) :   0.9580 B(  9-C , 11-H ) :   0.9522 B(  9-C , 12-C ) :   1.0899
B( 12-C , 13-H ) :   0.9648 B( 12-C , 14-H ) :   0.9672 B( 12-C , 15-H ) :   0.9725
B( 16-S , 17-C ) :   1.1786 B( 16-S , 20-C ) :   1.1693 B( 17-C , 18-C ) :   1.5778
B( 17-C , 20-C ) :   0.1111 B( 17-C , 33-H ) :   0.9675 B( 18-C , 19-C ) :   1.2787
B( 18-C , 21-H ) :   0.9879 B( 19-C , 20-C ) :   1.5218 B( 19-C , 22-C ) :   1.0574
B( 22-C , 23-H ) :   0.9245 B( 22-C , 24-H ) :   0.9367 B( 22-C , 25-C ) :   1.0450
B( 25-C , 26-H ) :   0.9642 B( 25-C , 27-H ) :   0.9471 B( 25-C , 28-C ) :   1.0807
B( 28-C , 29-H ) :   0.9782 B( 28-C , 30-H ) :   0.9746 B( 28-C , 31-H ) :   0.9747

Dispersion correction           -0.014991301
FINAL SINGLE POINT ENERGY     -1339.866155305174

DIPOLE MOMENT
-------------
                                X             Y             Z
Electronic contribution:    -15.29812     -12.09711       7.07651
Nuclear contribution   :     15.46947      12.39762      -7.37915
                        -----------------------------------------
Total Dipole Moment    :      0.17135       0.30050      -0.30264
                        -----------------------------------------
Magnitude (a.u.)       :      0.45962
Magnitude (Debye)      :      1.16826

Rotational constants in cm-1:     0.019009     0.008764     0.007322
Rotational constants in MHz :   569.877972   262.737747   219.493083

                             ****ORCA TERMINATED NORMALLY****
TOTAL RUN TIME: 0 days 0 hours 0 minutes 30 seconds 714 msec
