                         Program Version 4.2.1 -  RELEASE  -
|  1> ! wB97X-D3 SP def2-SVP
|  2> %pal
|  3> nprocs 16
|  4> end
|  5>
|  6> * xyz 0 1
|  7> S 	 12.4827 	 -9.85198 	 95.4463
|  8> C 	 11.2706 	 -9.96262 	 96.6468
|  9> C 	 10.3001 	 -8.95988 	 96.4783
| 10> C 	 10.724 	 -7.98206 	 95.5065
| 11> C 	 11.7897 	 -8.40768 	 94.7413
| 12> H 	 10.2886 	 -7.06151 	 95.1078
| 13> C 	 8.96665 	 -8.73674 	 97.1298
| 14> H 	 9.14544 	 -8.02698 	 97.938
| 15> H 	 8.66143 	 -9.63097 	 97.6069
| 16> C 	 7.85877 	 -8.33798 	 96.1791
| 17> H 	 7.04444 	 -8.14512 	 96.8221
| 18> H 	 8.08767 	 -7.45041 	 95.631
| 19> C 	 7.6258 	 -9.47499 	 95.1518
| 20> H 	 6.88648 	 -9.17142 	 94.4054
| 21> H 	 8.51469 	 -9.70774 	 94.5662
| 22> H 	 7.24742 	 -10.351 	 95.5946
| 23> S 	 14.0256 	 -7.43567 	 93.4755
| 24> C 	 13.9024 	 -6.15967 	 92.2917
| 25> C 	 12.5471 	 -6.08752 	 91.867
| 26> C 	 11.6146 	 -6.92756 	 92.5913
| 27> C 	 12.2655 	 -7.66019 	 93.591
| 28> H 	 12.3502 	 -5.55509 	 90.9494
| 29> C 	 10.233 	 -7.2635 	 92.0869
| 30> H 	 9.80356 	 -8.08583 	 92.7073
| 31> H 	 10.402 	 -7.63057 	 91.0804
| 32> C 	 9.23066 	 -6.15852 	 92.2021
| 33> H 	 9.65927 	 -5.30986 	 91.6009
| 34> H 	 9.1683 	 -5.80401 	 93.2987
| 35> C 	 7.86565 	 -6.54492 	 91.6241
| 36> H 	 7.34212 	 -5.56051 	 91.5802
| 37> H 	 7.31265 	 -7.059 	 92.4062
| 38> H 	 7.8526 	 -7.0242 	 90.6282
| 39> H 	 11.2161 	 -10.7181 	 97.3814
| 40> H 	 14.6746 	 -5.53067 	 91.7866
| 41> *
| 42>
| 43>                          ****END OF INPUT****

CARTESIAN COORDINATES (ANGSTROEM)
---------------------------------
  S     12.482700   -9.851980   95.446300
  C     11.270600   -9.962620   96.646800
  C     10.300100   -8.959880   96.478300
  C     10.724000   -7.982060   95.506500
  C     11.789700   -8.407680   94.741300
  H     10.288600   -7.061510   95.107800
  C      8.966650   -8.736740   97.129800
  H      9.145440   -8.026980   97.938000
  H      8.661430   -9.630970   97.606900
  C      7.858770   -8.337980   96.179100
  H      7.044440   -8.145120   96.822100
  H      8.087670   -7.450410   95.631000
  C      7.625800   -9.474990   95.151800
  H      6.886480   -9.171420   94.405400
  H      8.514690   -9.707740   94.566200
  H      7.247420  -10.351000   95.594600
  S     14.025600   -7.435670   93.475500
  C     13.902400   -6.159670   92.291700
  C     12.547100   -6.087520   91.867000
  C     11.614600   -6.927560   92.591300
  C     12.265500   -7.660190   93.591000
  H     12.350200   -5.555090   90.949400
  C     10.233000   -7.263500   92.086900
  H      9.803560   -8.085830   92.707300
  H     10.402000   -7.630570   91.080400
  C      9.230660   -6.158520   92.202100
  H      9.659270   -5.309860   91.600900
  H      9.168300   -5.804010   93.298700
  C      7.865650   -6.544920   91.624100
  H      7.342120   -5.560510   91.580200
  H      7.312650   -7.059000   92.406200
  H      7.852600   -7.024200   90.628200
  H     11.216100  -10.718100   97.381400
  H     14.674600   -5.530670   91.786600

 Total Charge           Charge          ....    0
 Multiplicity           Mult            ....    1
 Number of Electrons    NEL             ....  134
 Basis Dimension        Dim             ....  322

ORBITAL ENERGIES
----------------

  NO   OCC          E(Eh)            E(eV)
   0   2.0000     -88.966123     -2420.8913
   1   2.0000     -88.965322     -2420.8695
   2   2.0000     -10.330996      -281.1207
   3   2.0000     -10.327175      -281.0167
   4   2.0000     -10.326437      -280.9966
   5   2.0000     -10.312054      -280.6053
   6   2.0000     -10.307341      -280.4770
   7   2.0000     -10.303319      -280.3676
   8   2.0000     -10.298505      -280.2366
   9   2.0000     -10.294722      -280.1336
  10   2.0000     -10.291036      -280.0333
  11   2.0000     -10.290518      -280.0192
  12   2.0000     -10.285330      -279.8781
  13   2.0000     -10.284101      -279.8446
  14   2.0000     -10.283004      -279.8148
  15   2.0000     -10.273415      -279.5538
  16   2.0000      -8.081362      -219.9050
  17   2.0000      -8.079659      -219.8587
  18   2.0000      -6.039907      -164.3542
  19   2.0000      -6.038226      -164.3085
  20   2.0000      -6.035713      -164.2401
  21   2.0000      -6.034128      -164.1970
  22   2.0000      -6.032158      -164.1434
  23   2.0000      -6.030462      -164.0972
  24   2.0000      -1.006297       -27.3827
  25   2.0000      -0.981646       -26.7119
  26   2.0000      -0.919185       -25.0123
  27   2.0000      -0.914510       -24.8851
  28   2.0000      -0.871443       -23.7132
  29   2.0000      -0.850688       -23.1484
  30   2.0000      -0.843002       -22.9392
  31   2.0000      -0.812032       -22.0965
  32   2.0000      -0.783259       -21.3136
  33   2.0000      -0.774144       -21.0655
  34   2.0000      -0.711701       -19.3664
  35   2.0000      -0.699874       -19.0445
  36   2.0000      -0.689010       -18.7489
  37   2.0000      -0.658582       -17.9209
  38   2.0000      -0.642672       -17.4880
  39   2.0000      -0.622506       -16.9393
  40   2.0000      -0.592428       -16.1208
  41   2.0000      -0.571691       -15.5565
  42   2.0000      -0.566604       -15.4181
  43   2.0000      -0.558456       -15.1964
  44   2.0000      -0.536052       -14.5867
  45   2.0000      -0.528493       -14.3810
  46   2.0000      -0.519390       -14.1333
  47   2.0000      -0.512592       -13.9483
  48   2.0000      -0.510977       -13.9044
  49   2.0000      -0.500790       -13.6272
  50   2.0000      -0.489758       -13.3270
  51   2.0000      -0.483997       -13.1702
  52   2.0000      -0.470179       -12.7942
  53   2.0000      -0.463917       -12.6238
  54   2.0000      -0.462338       -12.5808
  55   2.0000      -0.445051       -12.1105
  56   2.0000      -0.443324       -12.0635
  57   2.0000      -0.437676       -11.9098
  58   2.0000      -0.435505       -11.8507
  59   2.0000      -0.430677       -11.7193
  60   2.0000      -0.421439       -11.4679
  61   2.0000      -0.416395       -11.3307
  62   2.0000      -0.406110       -11.0508
  63   2.0000      -0.350781        -9.5452
  64   2.0000      -0.327350        -8.9076
  65   2.0000      -0.324399        -8.8273
  66   2.0000      -0.285593        -7.7714
  67   0.0000       0.024492         0.6665
  68   0.0000       0.072526         1.9735
  69   0.0000       0.103261         2.8099
  70   0.0000       0.114259         3.1092
  71   0.0000       0.123044         3.3482

MULLIKEN ATOMIC CHARGES
-----------------------
   0 S :    0.116763
   1 C :   -0.091191
   2 C :   -0.124089
   3 C :    0.006155
   4 C :   -0.135453
   5 H :    0.008430
   6 C :    0.104415
   7 H :    0.041692
   8 H :   -0.001727
   9 C :   -0.040809
  10 H :    0.021778
  11 H :    0.021042
  12 C :   -0.054394
  13 H :    0.028771
  14 H :    0.053782
  15 H :    0.019486
  16 S :    0.103466
  17 C :   -0.108769
  18 C :   -0.051915
  19 C :   -0.032783
  20 C :   -0.155630
  21 H :    0.021249
  22 C :    0.054500
  23 H :    0.026510
  24 H :    0.039261
  25 C :   -0.145954
  26 H :    0.029926
  27 H :    0.045302
  28 C :   -0.029424
  29 H :    0.034361
  30 H :    0.033257
  31 H :    0.051581
  32 H :    0.031037
  33 H :    0.079373
Sum of atomic charges:   -0.0000000

LOEWDIN ATOMIC CHARGES
----------------------
   0 S :    0.416891
   1 C :   -0.207754
   2 C :   -0.058026
   3 C :   -0.064179
   4 C :   -0.198365
   5 H :    0.031923
   6 C :   -0.030923
   7 H :    0.036360
   8 H :    0.022121
   9 C :   -0.029045
  10 H :    0.022567
  11 H :    0.017206
  12 C :   -0.059128
  13 H :    0.025429
  14 H :    0.029765
  15 H :    0.018088
  16 S :    0.400056
  17 C :   -0.199118
  18 C :   -0.076165
  19 C :   -0.060376
  20 C :   -0.183934
  21 H :    0.027292
  22 C :   -0.037138
  23 H :    0.032641
  24 H :    0.034844
  25 C :   -0.051986
  26 H :    0.022048
  27 H :    0.032031
  28 C :   -0.071647
  29 H :    0.034150
  30 H :    0.025634
  31 H :    0.032246
  32 H :    0.020866
  33 H :    0.045625

  Mayer bond orders larger than 0.100000
B(  0-S ,  1-C ) :   1.1409 B(  0-S ,  4-C ) :   1.1424 B(  1-C ,  2-C ) :   1.5970
B(  1-C , 32-H ) :   0.9764 B(  2-C ,  3-C ) :   1.2157 B(  2-C ,  6-C ) :   1.0207
B(  3-C ,  4-C ) :   1.5837 B(  3-C ,  5-H ) :   0.9858 B(  4-C , 20-C ) :   1.0564
B(  6-C ,  7-H ) :   0.9306 B(  6-C ,  8-H ) :   0.9357 B(  6-C ,  9-C ) :   1.0816
B(  9-C , 10-H ) :   0.9521 B(  9-C , 11-H ) :   0.9516 B(  9-C , 12-C ) :   1.0750
B( 12-C , 13-H ) :   0.9733 B( 12-C , 14-H ) :   0.9710 B( 12-C , 15-H ) :   0.9736
B( 16-S , 17-C ) :   1.1610 B( 16-S , 20-C ) :   1.1322 B( 17-C , 18-C ) :   1.5972
B( 17-C , 20-C ) :   0.1043 B( 17-C , 33-H ) :   0.9626 B( 18-C , 19-C ) :   1.2413
B( 18-C , 21-H ) :   0.9840 B( 19-C , 20-C ) :   1.5675 B( 19-C , 22-C ) :   1.0354
B( 22-C , 23-H ) :   0.9370 B( 22-C , 24-H ) :   0.9376 B( 22-C , 25-C ) :   1.0587
B( 25-C , 26-H ) :   0.9591 B( 25-C , 27-H ) :   0.9471 B( 25-C , 28-C ) :   1.0789
B( 28-C , 29-H ) :   0.9713 B( 28-C , 30-H ) :   0.9713 B( 28-C , 31-H ) :   0.9716

Dispersion correction           -0.016030924
FINAL SINGLE POINT ENERGY     -1339.868294228547

DIPOLE MOMENT
-------------
                                X             Y             Z
Electronic contribution:     30.98623      -5.30108       4.28751
Nuclear contribution   :    -31.69543       5.49536      -4.48893
                        -----------------------------------------
Total Dipole Moment    :     -0.70920       0.19429      -0.20142
                        -----------------------------------------
Magnitude (a.u.)       :      0.76242
Magnitude (Debye)      :      1.93792

Rotational constants in cm-1:     0.016258     0.011708     0.007328
Rotational constants in MHz :   487.405796   351.000103   219.700536

                             ****ORCA TERMINATED NORMALLY****
TOTAL RUN TIME: 0 days 0 hours 0 minutes 35 seconds 430 msec
