                         Program Version 4.2.1 -  RELEASE  -
|  1> ! wB97X-D3 SP def2-SVP
|  2> %pal
|  3> nprocs 16
|  4> end
|  5>
|  6> * xyz 0 1
|  7> S 	 -3.9192 	 77.6364 	 54.3812
|  8> C 	 -2.55781 	 78.6001 	 54.8103
|  9> C 	 -1.37006 	 78.0148 	 54.3762
| 10> C 	 -1.63519 	 76.7923 	 53.567
| 11> C 	 -2.97954 	 76.5772 	 53.3469
| 12> H 	 -0.921702 	 76.1438 	 53.0292
| 13> C 	 -0.0382848 	 78.5851 	 54.7497
| 14> H 	 0.241602 	 78.1477 	 55.6517
| 15> H 	 -0.0238498 	 79.6383 	 55.0554
| 16> C 	 1.2122 	 78.1995 	 53.944
| 17> H 	 2.03454 	 78.5593 	 54.54
| 18> H 	 1.3087 	 77.1184 	 53.819
| 19> C 	 1.12296 	 78.9358 	 52.5661
| 20> H 	 0.231748 	 78.637 	 52.0372
| 21> H 	 1.09116 	 80.0022 	 52.6709
| 22> H 	 1.90899 	 78.5847 	 51.8678
| 23> S 	 -3.21675 	 73.9204 	 53.1871
| 24> C 	 -4.3592 	 73.2185 	 52.0358
| 25> C 	 -4.7689 	 74.1599 	 51.0968
| 26> C 	 -4.45317 	 75.4922 	 51.5244
| 27> C 	 -3.56757 	 75.5315 	 52.5852
| 28> H 	 -5.42135 	 73.9433 	 50.3
| 29> C 	 -4.94775 	 76.8051 	 50.8393
| 30> H 	 -4.93832 	 77.5943 	 51.624
| 31> H 	 -5.97953 	 76.6494 	 50.7501
| 32> C 	 -4.22958 	 77.2117 	 49.574
| 33> H 	 -4.74093 	 77.9381 	 49.067
| 34> H 	 -4.2933 	 76.3531 	 48.9262
| 35> C 	 -2.73354 	 77.6141 	 49.8065
| 36> H 	 -2.15523 	 76.6939 	 49.9866
| 37> H 	 -2.5853 	 78.1871 	 50.7282
| 38> H 	 -2.33885 	 78.1809 	 48.9364
| 39> H 	 -2.64203 	 79.4101 	 55.476
| 40> H 	 -4.78994 	 72.2159 	 52.0997
| 41> *
| 42>
| 43>                          ****END OF INPUT****

CARTESIAN COORDINATES (ANGSTROEM)
---------------------------------
  S     -3.919200   77.636400   54.381200
  C     -2.557810   78.600100   54.810300
  C     -1.370060   78.014800   54.376200
  C     -1.635190   76.792300   53.567000
  C     -2.979540   76.577200   53.346900
  H     -0.921702   76.143800   53.029200
  C     -0.038285   78.585100   54.749700
  H      0.241602   78.147700   55.651700
  H     -0.023850   79.638300   55.055400
  C      1.212200   78.199500   53.944000
  H      2.034540   78.559300   54.540000
  H      1.308700   77.118400   53.819000
  C      1.122960   78.935800   52.566100
  H      0.231748   78.637000   52.037200
  H      1.091160   80.002200   52.670900
  H      1.908990   78.584700   51.867800
  S     -3.216750   73.920400   53.187100
  C     -4.359200   73.218500   52.035800
  C     -4.768900   74.159900   51.096800
  C     -4.453170   75.492200   51.524400
  C     -3.567570   75.531500   52.585200
  H     -5.421350   73.943300   50.300000
  C     -4.947750   76.805100   50.839300
  H     -4.938320   77.594300   51.624000
  H     -5.979530   76.649400   50.750100
  C     -4.229580   77.211700   49.574000
  H     -4.740930   77.938100   49.067000
  H     -4.293300   76.353100   48.926200
  C     -2.733540   77.614100   49.806500
  H     -2.155230   76.693900   49.986600
  H     -2.585300   78.187100   50.728200
  H     -2.338850   78.180900   48.936400
  H     -2.642030   79.410100   55.476000
  H     -4.789940   72.215900   52.099700

 Total Charge           Charge          ....    0
 Multiplicity           Mult            ....    1
 Number of Electrons    NEL             ....  134
 Basis Dimension        Dim             ....  322

ORBITAL ENERGIES
----------------

  NO   OCC          E(Eh)            E(eV)
   0   2.0000     -88.965342     -2420.8700
   1   2.0000     -88.961947     -2420.7777
   2   2.0000     -10.326936      -281.0102
   3   2.0000     -10.323495      -280.9166
   4   2.0000     -10.321538      -280.8633
   5   2.0000     -10.309585      -280.5381
   6   2.0000     -10.308067      -280.4968
   7   2.0000     -10.305892      -280.4376
   8   2.0000     -10.301923      -280.3296
   9   2.0000     -10.296233      -280.1747
  10   2.0000     -10.288428      -279.9624
  11   2.0000     -10.286712      -279.9157
  12   2.0000     -10.284562      -279.8572
  13   2.0000     -10.277156      -279.6556
  14   2.0000     -10.276003      -279.6243
  15   2.0000     -10.272240      -279.5219
  16   2.0000      -8.079836      -219.8635
  17   2.0000      -8.077014      -219.7867
  18   2.0000      -6.038380      -164.3127
  19   2.0000      -6.035557      -164.2359
  20   2.0000      -6.034361      -164.2033
  21   2.0000      -6.031399      -164.1227
  22   2.0000      -6.030575      -164.1003
  23   2.0000      -6.027785      -164.0244
  24   2.0000      -1.007170       -27.4065
  25   2.0000      -0.981264       -26.7015
  26   2.0000      -0.913413       -24.8552
  27   2.0000      -0.904855       -24.6224
  28   2.0000      -0.875344       -23.8193
  29   2.0000      -0.843555       -22.9543
  30   2.0000      -0.836744       -22.7690
  31   2.0000      -0.815709       -22.1966
  32   2.0000      -0.782530       -21.2937
  33   2.0000      -0.772319       -21.0159
  34   2.0000      -0.711880       -19.3712
  35   2.0000      -0.702588       -19.1184
  36   2.0000      -0.689904       -18.7732
  37   2.0000      -0.668112       -18.1802
  38   2.0000      -0.642739       -17.4898
  39   2.0000      -0.617713       -16.8088
  40   2.0000      -0.592410       -16.1203
  41   2.0000      -0.568914       -15.4809
  42   2.0000      -0.554339       -15.0843
  43   2.0000      -0.549290       -14.9469
  44   2.0000      -0.542919       -14.7736
  45   2.0000      -0.532259       -14.4835
  46   2.0000      -0.517698       -14.0873
  47   2.0000      -0.511357       -13.9147
  48   2.0000      -0.506700       -13.7880
  49   2.0000      -0.492181       -13.3929
  50   2.0000      -0.491342       -13.3701
  51   2.0000      -0.478747       -13.0274
  52   2.0000      -0.469373       -12.7723
  53   2.0000      -0.462930       -12.5970
  54   2.0000      -0.457539       -12.4503
  55   2.0000      -0.451167       -12.2769
  56   2.0000      -0.443080       -12.0568
  57   2.0000      -0.439008       -11.9460
  58   2.0000      -0.433265       -11.7897
  59   2.0000      -0.422035       -11.4842
  60   2.0000      -0.416133       -11.3235
  61   2.0000      -0.414031       -11.2664
  62   2.0000      -0.409338       -11.1386
  63   2.0000      -0.343079        -9.3357
  64   2.0000      -0.333768        -9.0823
  65   2.0000      -0.319367        -8.6904
  66   2.0000      -0.294068        -8.0020
  67   0.0000       0.035861         0.9758
  68   0.0000       0.058784         1.5996
  69   0.0000       0.106720         2.9040
  70   0.0000       0.116607         3.1730
  71   0.0000       0.132255         3.5988

MULLIKEN ATOMIC CHARGES
-----------------------
   0 S :    0.112055
   1 C :   -0.112000
   2 C :   -0.071649
   3 C :    0.008884
   4 C :   -0.146870
   5 H :    0.026630
   6 C :    0.064233
   7 H :    0.016871
   8 H :    0.023298
   9 C :   -0.074668
  10 H :    0.026495
  11 H :    0.034123
  12 C :   -0.044022
  13 H :    0.026588
  14 H :    0.028715
  15 H :    0.032036
  16 S :    0.114384
  17 C :   -0.105539
  18 C :   -0.003247
  19 C :   -0.079550
  20 C :   -0.168804
  21 H :    0.006357
  22 C :    0.077021
  23 H :    0.019236
  24 H :    0.007249
  25 C :    0.009079
  26 H :    0.008667
  27 H :    0.012476
  28 C :   -0.079274
  29 H :    0.039400
  30 H :    0.044509
  31 H :    0.043316
  32 H :    0.033715
  33 H :    0.070284
Sum of atomic charges:    0.0000000

LOEWDIN ATOMIC CHARGES
----------------------
   0 S :    0.414823
   1 C :   -0.201595
   2 C :   -0.051758
   3 C :   -0.071144
   4 C :   -0.196920
   5 H :    0.034078
   6 C :   -0.041706
   7 H :    0.029903
   8 H :    0.035327
   9 C :   -0.031687
  10 H :    0.024288
  11 H :    0.024465
  12 C :   -0.068498
  13 H :    0.023232
  14 H :    0.022007
  15 H :    0.025735
  16 S :    0.402323
  17 C :   -0.175251
  18 C :   -0.064914
  19 C :   -0.046746
  20 C :   -0.206052
  21 H :    0.024423
  22 C :   -0.028016
  23 H :    0.025613
  24 H :    0.022070
  25 C :   -0.030433
  26 H :    0.012356
  27 H :    0.022902
  28 C :   -0.067074
  29 H :    0.028411
  30 H :    0.026891
  31 H :    0.029748
  32 H :    0.018698
  33 H :    0.034502

  Mayer bond orders larger than 0.100000
B(  0-S ,  1-C ) :   1.1368 B(  0-S ,  4-C ) :   1.1431 B(  1-C ,  2-C ) :   1.6120
B(  1-C , 32-H ) :   0.9801 B(  2-C ,  3-C ) :   1.1993 B(  2-C ,  6-C ) :   1.0288
B(  3-C ,  4-C ) :   1.5889 B(  3-C ,  5-H ) :   0.9875 B(  4-C , 20-C ) :   1.0542
B(  6-C ,  7-H ) :   0.9189 B(  6-C ,  8-H ) :   0.9408 B(  6-C ,  9-C ) :   1.0885
B(  9-C , 10-H ) :   0.9542 B(  9-C , 11-H ) :   0.9500 B(  9-C , 12-C ) :   1.0744
B( 12-C , 13-H ) :   0.9763 B( 12-C , 14-H ) :   0.9754 B( 12-C , 15-H ) :   0.9754
B( 16-S , 17-C ) :   1.1585 B( 16-S , 20-C ) :   1.1299 B( 17-C , 18-C ) :   1.6014
B( 17-C , 20-C ) :   0.1013 B( 17-C , 33-H ) :   0.9669 B( 18-C , 19-C ) :   1.2409
B( 18-C , 21-H ) :   0.9909 B( 19-C , 20-C ) :   1.6005 B( 19-C , 22-C ) :   1.0282
B( 22-C , 23-H ) :   0.9319 B( 22-C , 24-H ) :   0.9257 B( 22-C , 25-C ) :   1.0757
B( 25-C , 26-H ) :   0.9537 B( 25-C , 27-H ) :   0.9530 B( 25-C , 28-C ) :   1.0634
B( 28-C , 29-H ) :   0.9759 B( 28-C , 30-H ) :   0.9774 B( 28-C , 31-H ) :   0.9759

Dispersion correction           -0.016010189
FINAL SINGLE POINT ENERGY     -1339.868809276372

DIPOLE MOMENT
-------------
                                X             Y             Z
Electronic contribution:    -14.38643     -14.00266      12.66685
Nuclear contribution   :     14.47341      14.12214     -12.80621
                        -----------------------------------------
Total Dipole Moment    :      0.08698       0.11948      -0.13936
                        -----------------------------------------
Magnitude (a.u.)       :      0.20313
Magnitude (Debye)      :      0.51632

Rotational constants in cm-1:     0.019484     0.009094     0.008271
Rotational constants in MHz :   584.119516   272.644132   247.964102

                             ****ORCA TERMINATED NORMALLY****
TOTAL RUN TIME: 0 days 0 hours 0 minutes 35 seconds 760 msec
