                         Program Version 4.2.1 -  RELEASE  -
|  1> ! wB97X-D3 SP def2-SVP
|  2> %pal
|  3> nprocs 16
|  4> end
|  5>
|  6> * xyz 0 1
|  7> S 	 -46.4003 	 55.6913 	 98.6237
|  8> C 	 -47.4371 	 55.2135 	 99.9438
|  9> C 	 -46.8068 	 54.298 	 100.767
| 10> C 	 -45.5542 	 53.9896 	 100.365
| 11> C 	 -45.184 	 54.5879 	 99.1701
| 12> H 	 -44.9481 	 53.2438 	 100.871
| 13> C 	 -47.476 	 53.5318 	 101.927
| 14> H 	 -47.1241 	 52.5384 	 101.942
| 15> H 	 -48.5273 	 53.4633 	 101.69
| 16> C 	 -47.3152 	 54.0977 	 103.352
| 17> H 	 -46.2221 	 54.2022 	 103.547
| 18> H 	 -47.5254 	 55.1631 	 103.482
| 19> C 	 -47.9524 	 53.2833 	 104.455
| 20> H 	 -47.5968 	 53.5551 	 105.437
| 21> H 	 -49.0507 	 53.3135 	 104.381
| 22> H 	 -47.6681 	 52.2661 	 104.296
| 23> S 	 -44.2439 	 53.579 	 96.8815
| 24> C 	 -42.5602 	 53.3999 	 96.5426
| 25> C 	 -41.8364 	 53.6358 	 97.6831
| 26> C 	 -42.6347 	 54.1482 	 98.733
| 27> C 	 -43.9666 	 54.3755 	 98.379
| 28> H 	 -40.7456 	 53.4404 	 97.7589
| 29> C 	 -42.0524 	 54.466 	 100.093
| 30> H 	 -41.1905 	 53.8197 	 100.263
| 31> H 	 -42.8233 	 54.2395 	 100.914
| 32> C 	 -41.4195 	 55.909 	 100.215
| 33> H 	 -40.7846 	 56.0475 	 99.3779
| 34> H 	 -40.8735 	 56.022 	 101.109
| 35> C 	 -42.5309 	 57.0102 	 100.304
| 36> H 	 -42.116 	 57.957 	 100.147
| 37> H 	 -43.1276 	 56.9698 	 101.231
| 38> H 	 -43.2925 	 56.8002 	 99.5155
| 39> H 	 -48.4585 	 55.3242 	 99.9574
| 40> H 	 -42.1274 	 53.0896 	 95.5991
| 41> *
| 42>
| 43>                          ****END OF INPUT****

CARTESIAN COORDINATES (ANGSTROEM)
---------------------------------
  S    -46.400300   55.691300   98.623700
  C    -47.437100   55.213500   99.943800
  C    -46.806800   54.298000  100.767000
  C    -45.554200   53.989600  100.365000
  C    -45.184000   54.587900   99.170100
  H    -44.948100   53.243800  100.871000
  C    -47.476000   53.531800  101.927000
  H    -47.124100   52.538400  101.942000
  H    -48.527300   53.463300  101.690000
  C    -47.315200   54.097700  103.352000
  H    -46.222100   54.202200  103.547000
  H    -47.525400   55.163100  103.482000
  C    -47.952400   53.283300  104.455000
  H    -47.596800   53.555100  105.437000
  H    -49.050700   53.313500  104.381000
  H    -47.668100   52.266100  104.296000
  S    -44.243900   53.579000   96.881500
  C    -42.560200   53.399900   96.542600
  C    -41.836400   53.635800   97.683100
  C    -42.634700   54.148200   98.733000
  C    -43.966600   54.375500   98.379000
  H    -40.745600   53.440400   97.758900
  C    -42.052400   54.466000  100.093000
  H    -41.190500   53.819700  100.263000
  H    -42.823300   54.239500  100.914000
  C    -41.419500   55.909000  100.215000
  H    -40.784600   56.047500   99.377900
  H    -40.873500   56.022000  101.109000
  C    -42.530900   57.010200  100.304000
  H    -42.116000   57.957000  100.147000
  H    -43.127600   56.969800  101.231000
  H    -43.292500   56.800200   99.515500
  H    -48.458500   55.324200   99.957400
  H    -42.127400   53.089600   95.599100

 Total Charge           Charge          ....    0
 Multiplicity           Mult            ....    1
 Number of Electrons    NEL             ....  134
 Basis Dimension        Dim             ....  322

ORBITAL ENERGIES
----------------

  NO   OCC          E(Eh)            E(eV)
   0   2.0000     -88.971312     -2421.0325
   1   2.0000     -88.962472     -2420.7919
   2   2.0000     -10.329480      -281.0794
   3   2.0000     -10.322800      -280.8977
   4   2.0000     -10.316217      -280.7185
   5   2.0000     -10.306035      -280.4415
   6   2.0000     -10.302554      -280.3468
   7   2.0000     -10.295413      -280.1524
   8   2.0000     -10.295125      -280.1446
   9   2.0000     -10.294875      -280.1378
  10   2.0000     -10.291392      -280.0430
  11   2.0000     -10.287768      -279.9444
  12   2.0000     -10.286346      -279.9057
  13   2.0000     -10.280631      -279.7502
  14   2.0000     -10.277034      -279.6523
  15   2.0000     -10.267327      -279.3882
  16   2.0000      -8.086002      -220.0313
  17   2.0000      -8.078371      -219.8237
  18   2.0000      -6.044270      -164.4729
  19   2.0000      -6.040440      -164.3687
  20   2.0000      -6.037098      -164.2778
  21   2.0000      -6.036765      -164.2687
  22   2.0000      -6.032699      -164.1581
  23   2.0000      -6.029166      -164.0620
  24   2.0000      -1.016269       -27.6541
  25   2.0000      -0.994481       -27.0612
  26   2.0000      -0.912234       -24.8232
  27   2.0000      -0.900648       -24.5079
  28   2.0000      -0.873434       -23.7674
  29   2.0000      -0.857136       -23.3238
  30   2.0000      -0.843029       -22.9400
  31   2.0000      -0.815330       -22.1863
  32   2.0000      -0.783923       -21.3316
  33   2.0000      -0.769773       -20.9466
  34   2.0000      -0.706656       -19.2291
  35   2.0000      -0.702215       -19.1082
  36   2.0000      -0.694901       -18.9092
  37   2.0000      -0.661422       -17.9982
  38   2.0000      -0.644861       -17.5476
  39   2.0000      -0.628383       -17.0992
  40   2.0000      -0.594068       -16.1654
  41   2.0000      -0.573690       -15.6109
  42   2.0000      -0.556737       -15.1496
  43   2.0000      -0.544790       -14.8245
  44   2.0000      -0.539499       -14.6805
  45   2.0000      -0.530255       -14.4290
  46   2.0000      -0.523178       -14.2364
  47   2.0000      -0.508743       -13.8436
  48   2.0000      -0.502203       -13.6656
  49   2.0000      -0.499513       -13.5924
  50   2.0000      -0.496255       -13.5038
  51   2.0000      -0.480769       -13.0824
  52   2.0000      -0.471221       -12.8226
  53   2.0000      -0.467281       -12.7154
  54   2.0000      -0.460602       -12.5336
  55   2.0000      -0.451106       -12.2752
  56   2.0000      -0.441944       -12.0259
  57   2.0000      -0.435395       -11.8477
  58   2.0000      -0.434502       -11.8234
  59   2.0000      -0.430163       -11.7053
  60   2.0000      -0.424000       -11.5376
  61   2.0000      -0.407706       -11.0942
  62   2.0000      -0.406989       -11.0747
  63   2.0000      -0.344978        -9.3873
  64   2.0000      -0.338852        -9.2206
  65   2.0000      -0.324483        -8.8296
  66   2.0000      -0.296432        -8.0663
  67   0.0000       0.024971         0.6795
  68   0.0000       0.068052         1.8518
  69   0.0000       0.110036         2.9942
  70   0.0000       0.119974         3.2647
  71   0.0000       0.130895         3.5618

MULLIKEN ATOMIC CHARGES
-----------------------
   0 S :    0.131580
   1 C :   -0.085208
   2 C :   -0.089711
   3 C :    0.037464
   4 C :   -0.181785
   5 H :    0.014159
   6 C :    0.093127
   7 H :    0.009028
   8 H :    0.013513
   9 C :   -0.090397
  10 H :    0.012865
  11 H :    0.022317
  12 C :   -0.010497
  13 H :    0.034984
  14 H :    0.034976
  15 H :    0.013706
  16 S :    0.108978
  17 C :   -0.082729
  18 C :   -0.040997
  19 C :   -0.058345
  20 C :   -0.121105
  21 H :    0.031581
  22 C :    0.026263
  23 H :    0.018319
  24 H :    0.034020
  25 C :   -0.028543
  26 H :    0.019440
  27 H :    0.023209
  28 C :   -0.051393
  29 H :    0.024451
  30 H :    0.032746
  31 H :    0.028644
  32 H :    0.018924
  33 H :    0.056418
Sum of atomic charges:   -0.0000000

LOEWDIN ATOMIC CHARGES
----------------------
   0 S :    0.434042
   1 C :   -0.191375
   2 C :   -0.060270
   3 C :   -0.064778
   4 C :   -0.203338
   5 H :    0.032911
   6 C :   -0.019781
   7 H :    0.023763
   8 H :    0.026777
   9 C :   -0.050994
  10 H :    0.023823
  11 H :    0.023243
  12 C :   -0.060138
  13 H :    0.028069
  14 H :    0.027492
  15 H :    0.020182
  16 S :    0.436030
  17 C :   -0.188529
  18 C :   -0.077769
  19 C :   -0.059292
  20 C :   -0.221703
  21 H :    0.038696
  22 C :   -0.036002
  23 H :    0.028412
  24 H :    0.034491
  25 C :   -0.024931
  26 H :    0.018665
  27 H :    0.017020
  28 C :   -0.065186
  29 H :    0.014761
  30 H :    0.027321
  31 H :    0.026459
  32 H :    0.010878
  33 H :    0.031052

  Mayer bond orders larger than 0.100000
B(  0-S ,  1-C ) :   1.1534 B(  0-S ,  4-C ) :   1.1859 B(  1-C ,  2-C ) :   1.5778
B(  1-C ,  4-C ) :   0.1150 B(  1-C , 32-H ) :   0.9719 B(  2-C ,  3-C ) :   1.3210
B(  2-C ,  6-C ) :   1.0129 B(  3-C ,  4-C ) :   1.5175 B(  3-C ,  5-H ) :   0.9918
B(  4-C , 20-C ) :   0.9995 B(  6-C ,  7-H ) :   0.9398 B(  6-C ,  8-H ) :   0.9415
B(  6-C ,  9-C ) :   1.0565 B(  9-C , 10-H ) :   0.9509 B(  9-C , 11-H ) :   0.9538
B(  9-C , 12-C ) :   1.0850 B( 12-C , 13-H ) :   0.9719 B( 12-C , 14-H ) :   0.9751
B( 12-C , 15-H ) :   0.9716 B( 16-S , 17-C ) :   1.1798 B( 16-S , 20-C ) :   1.1635
B( 17-C , 18-C ) :   1.5614 B( 17-C , 20-C ) :   0.1058 B( 17-C , 33-H ) :   0.9707
B( 18-C , 19-C ) :   1.2840 B( 18-C , 21-H ) :   0.9867 B( 19-C , 20-C ) :   1.5520
B( 19-C , 22-C ) :   1.0508 B( 22-C , 23-H ) :   0.9319 B( 22-C , 24-H ) :   0.9397
B( 22-C , 25-C ) :   1.0684 B( 25-C , 26-H ) :   0.9553 B( 25-C , 27-H ) :   0.9581
B( 25-C , 28-C ) :   1.0753 B( 28-C , 29-H ) :   0.9757 B( 28-C , 30-H ) :   0.9768
B( 28-C , 31-H ) :   0.9748

Dispersion correction           -0.014717128
FINAL SINGLE POINT ENERGY     -1339.873753532805

DIPOLE MOMENT
-------------
                                X             Y             Z
Electronic contribution:     -1.96898      -1.03217     -26.54469
Nuclear contribution   :      2.19649       0.65665      26.98768
                        -----------------------------------------
Total Dipole Moment    :      0.22751      -0.37552       0.44299
                        -----------------------------------------
Magnitude (a.u.)       :      0.62371
Magnitude (Debye)      :      1.58535

Rotational constants in cm-1:     0.020201     0.008135     0.007110
Rotational constants in MHz :   605.604374   243.875608   213.140751

                             ****ORCA TERMINATED NORMALLY****
TOTAL RUN TIME: 0 days 0 hours 0 minutes 30 seconds 775 msec
