                         Program Version 4.2.1 -  RELEASE  -
|  1> ! wB97X-D3 SP def2-SVP
|  2> %pal
|  3> nprocs 16
|  4> end
|  5>
|  6> * xyz 0 1
|  7> S 	 39.1225 	 14.9028 	 77.8309
|  8> C 	 39.2489 	 13.7051 	 76.4971
|  9> C 	 40.2677 	 14.028 	 75.6443
| 10> C 	 41.2134 	 14.9478 	 76.224
| 11> C 	 40.6725 	 15.5452 	 77.3632
| 12> H 	 42.1297 	 15.316 	 75.7467
| 13> C 	 40.5193 	 13.2379 	 74.3712
| 14> H 	 41.3961 	 13.7514 	 73.963
| 15> H 	 39.7433 	 13.6329 	 73.7042
| 16> C 	 40.3607 	 11.7002 	 74.5049
| 17> H 	 40.867 	 11.322 	 75.3486
| 18> H 	 39.3052 	 11.5388 	 74.702
| 19> C 	 40.7406 	 11.0818 	 73.1622
| 20> H 	 40.2171 	 11.478 	 72.2856
| 21> H 	 41.7973 	 11.241 	 72.9856
| 22> H 	 40.6144 	 9.95967 	 73.1133
| 23> S 	 40.0843 	 18.0807 	 78.4354
| 24> C 	 41.1756 	 18.6443 	 79.6679
| 25> C 	 42.4291 	 18.0523 	 79.4978
| 26> C 	 42.3986 	 16.9182 	 78.6524
| 27> C 	 41.1469 	 16.6953 	 78.0967
| 28> H 	 43.257 	 18.5758 	 80.0238
| 29> C 	 43.5837 	 16.0967 	 78.4268
| 30> H 	 43.2483 	 15.0539 	 78.3174
| 31> H 	 44.2708 	 16.0762 	 79.2696
| 32> C 	 44.4103 	 16.4071 	 77.1846
| 33> H 	 45.0128 	 17.3402 	 77.33
| 34> H 	 43.6916 	 16.7086 	 76.3876
| 35> C 	 45.1953 	 15.1131 	 76.7823
| 36> H 	 44.4543 	 14.2998 	 76.5618
| 37> H 	 45.7984 	 14.9024 	 77.6163
| 38> H 	 45.8821 	 15.209 	 75.8824
| 39> H 	 38.4808 	 13.0058 	 76.1749
| 40> H 	 40.9576 	 19.4171 	 80.3305
| 41> *
| 42>
| 43>                          ****END OF INPUT****

CARTESIAN COORDINATES (ANGSTROEM)
---------------------------------
  S     39.122500   14.902800   77.830900
  C     39.248900   13.705100   76.497100
  C     40.267700   14.028000   75.644300
  C     41.213400   14.947800   76.224000
  C     40.672500   15.545200   77.363200
  H     42.129700   15.316000   75.746700
  C     40.519300   13.237900   74.371200
  H     41.396100   13.751400   73.963000
  H     39.743300   13.632900   73.704200
  C     40.360700   11.700200   74.504900
  H     40.867000   11.322000   75.348600
  H     39.305200   11.538800   74.702000
  C     40.740600   11.081800   73.162200
  H     40.217100   11.478000   72.285600
  H     41.797300   11.241000   72.985600
  H     40.614400    9.959670   73.113300
  S     40.084300   18.080700   78.435400
  C     41.175600   18.644300   79.667900
  C     42.429100   18.052300   79.497800
  C     42.398600   16.918200   78.652400
  C     41.146900   16.695300   78.096700
  H     43.257000   18.575800   80.023800
  C     43.583700   16.096700   78.426800
  H     43.248300   15.053900   78.317400
  H     44.270800   16.076200   79.269600
  C     44.410300   16.407100   77.184600
  H     45.012800   17.340200   77.330000
  H     43.691600   16.708600   76.387600
  C     45.195300   15.113100   76.782300
  H     44.454300   14.299800   76.561800
  H     45.798400   14.902400   77.616300
  H     45.882100   15.209000   75.882400
  H     38.480800   13.005800   76.174900
  H     40.957600   19.417100   80.330500

 Total Charge           Charge          ....    0
 Multiplicity           Mult            ....    1
 Number of Electrons    NEL             ....  134
 Basis Dimension        Dim             ....  322

ORBITAL ENERGIES
----------------

  NO   OCC          E(Eh)            E(eV)
   0   2.0000     -88.967166     -2420.9197
   1   2.0000     -88.964545     -2420.8483
   2   2.0000     -10.330587      -281.1096
   3   2.0000     -10.323802      -280.9249
   4   2.0000     -10.311830      -280.5991
   5   2.0000     -10.310350      -280.5589
   6   2.0000     -10.299453      -280.2624
   7   2.0000     -10.298911      -280.2476
   8   2.0000     -10.297606      -280.2121
   9   2.0000     -10.294465      -280.1266
  10   2.0000     -10.293496      -280.1003
  11   2.0000     -10.292092      -280.0621
  12   2.0000     -10.291858      -280.0557
  13   2.0000     -10.286528      -279.9107
  14   2.0000     -10.283812      -279.8367
  15   2.0000     -10.283310      -279.8231
  16   2.0000      -8.081121      -219.8985
  17   2.0000      -8.079051      -219.8422
  18   2.0000      -6.039677      -164.3480
  19   2.0000      -6.037559      -164.2903
  20   2.0000      -6.035769      -164.2416
  21   2.0000      -6.033755      -164.1868
  22   2.0000      -6.031828      -164.1344
  23   2.0000      -6.029666      -164.0756
  24   2.0000      -1.006111       -27.3777
  25   2.0000      -0.981925       -26.7195
  26   2.0000      -0.914989       -24.8981
  27   2.0000      -0.913553       -24.8590
  28   2.0000      -0.868219       -23.6254
  29   2.0000      -0.850752       -23.1502
  30   2.0000      -0.843847       -22.9623
  31   2.0000      -0.812144       -22.0996
  32   2.0000      -0.779747       -21.2180
  33   2.0000      -0.767427       -20.8828
  34   2.0000      -0.719010       -19.5652
  35   2.0000      -0.704456       -19.1692
  36   2.0000      -0.696056       -18.9406
  37   2.0000      -0.660601       -17.9759
  38   2.0000      -0.634596       -17.2682
  39   2.0000      -0.615121       -16.7383
  40   2.0000      -0.598583       -16.2883
  41   2.0000      -0.568825       -15.4785
  42   2.0000      -0.565661       -15.3924
  43   2.0000      -0.560960       -15.2645
  44   2.0000      -0.528776       -14.3887
  45   2.0000      -0.522100       -14.2071
  46   2.0000      -0.516484       -14.0543
  47   2.0000      -0.510730       -13.8977
  48   2.0000      -0.503556       -13.7025
  49   2.0000      -0.499821       -13.6008
  50   2.0000      -0.491655       -13.3786
  51   2.0000      -0.475283       -12.9331
  52   2.0000      -0.473688       -12.8897
  53   2.0000      -0.463559       -12.6141
  54   2.0000      -0.458159       -12.4671
  55   2.0000      -0.452649       -12.3172
  56   2.0000      -0.440640       -11.9904
  57   2.0000      -0.438848       -11.9417
  58   2.0000      -0.432506       -11.7691
  59   2.0000      -0.426029       -11.5928
  60   2.0000      -0.423978       -11.5370
  61   2.0000      -0.420289       -11.4366
  62   2.0000      -0.415968       -11.3191
  63   2.0000      -0.340529        -9.2663
  64   2.0000      -0.333230        -9.0677
  65   2.0000      -0.324583        -8.8323
  66   2.0000      -0.287228        -7.8159
  67   0.0000       0.021017         0.5719
  68   0.0000       0.066718         1.8155
  69   0.0000       0.107256         2.9186
  70   0.0000       0.114620         3.1190
  71   0.0000       0.127508         3.4697

MULLIKEN ATOMIC CHARGES
-----------------------
   0 S :    0.117074
   1 C :   -0.126838
   2 C :   -0.119363
   3 C :    0.021171
   4 C :   -0.148005
   5 H :    0.017839
   6 C :    0.051562
   7 H :    0.010957
   8 H :    0.032659
   9 C :   -0.022030
  10 H :    0.036159
  11 H :    0.025853
  12 C :   -0.057132
  13 H :    0.033035
  14 H :    0.028916
  15 H :    0.039167
  16 S :    0.111110
  17 C :   -0.091884
  18 C :   -0.047012
  19 C :    0.003259
  20 C :   -0.162443
  21 H :    0.034683
  22 C :    0.046470
  23 H :    0.026795
  24 H :    0.020198
  25 C :   -0.095765
  26 H :    0.034946
  27 H :    0.030564
  28 C :   -0.058386
  29 H :    0.045203
  30 H :    0.030271
  31 H :    0.045993
  32 H :    0.047446
  33 H :    0.037525
Sum of atomic charges:   -0.0000000

LOEWDIN ATOMIC CHARGES
----------------------
   0 S :    0.399955
   1 C :   -0.195504
   2 C :   -0.060378
   3 C :   -0.068389
   4 C :   -0.185156
   5 H :    0.033296
   6 C :   -0.037362
   7 H :    0.028110
   8 H :    0.037757
   9 C :   -0.027624
  10 H :    0.023054
  11 H :    0.025579
  12 C :   -0.069508
  13 H :    0.027507
  14 H :    0.024447
  15 H :    0.030220
  16 S :    0.393724
  17 C :   -0.176430
  18 C :   -0.072870
  19 C :   -0.057851
  20 C :   -0.195976
  21 H :    0.039974
  22 C :   -0.039862
  23 H :    0.034660
  24 H :    0.028406
  25 C :   -0.043283
  26 H :    0.026999
  27 H :    0.018815
  28 C :   -0.065784
  29 H :    0.030965
  30 H :    0.018525
  31 H :    0.031898
  32 H :    0.026732
  33 H :    0.015354

  Mayer bond orders larger than 0.100000
B(  0-S ,  1-C ) :   1.1087 B(  0-S ,  4-C ) :   1.1579 B(  1-C ,  2-C ) :   1.6444
B(  1-C , 32-H ) :   0.9649 B(  2-C ,  3-C ) :   1.2276 B(  2-C ,  6-C ) :   1.0161
B(  3-C ,  4-C ) :   1.5585 B(  3-C ,  5-H ) :   0.9787 B(  4-C , 20-C ) :   1.0712
B(  6-C ,  7-H ) :   0.9493 B(  6-C ,  8-H ) :   0.9230 B(  6-C ,  9-C ) :   1.0535
B(  9-C , 10-H ) :   0.9649 B(  9-C , 11-H ) :   0.9420 B(  9-C , 12-C ) :   1.0816
B( 12-C , 13-H ) :   0.9736 B( 12-C , 14-H ) :   0.9768 B( 12-C , 15-H ) :   0.9741
B( 16-S , 17-C ) :   1.1560 B( 16-S , 20-C ) :   1.1331 B( 17-C , 18-C ) :   1.5923
B( 17-C , 20-C ) :   0.1015 B( 17-C , 33-H ) :   0.9772 B( 18-C , 19-C ) :   1.2378
B( 18-C , 21-H ) :   0.9895 B( 19-C , 20-C ) :   1.5605 B( 19-C , 22-C ) :   1.0761
B( 22-C , 23-H ) :   0.9249 B( 22-C , 24-H ) :   0.9279 B( 22-C , 25-C ) :   1.0435
B( 25-C , 26-H ) :   0.9506 B( 25-C , 27-H ) :   0.9586 B( 25-C , 28-C ) :   1.0629
B( 28-C , 29-H ) :   0.9721 B( 28-C , 30-H ) :   0.9756 B( 28-C , 31-H ) :   0.9750

Dispersion correction           -0.014430890
FINAL SINGLE POINT ENERGY     -1339.864117340443

DIPOLE MOMENT
-------------
                                X             Y             Z
Electronic contribution:    -18.22423      17.80962      17.17646
Nuclear contribution   :     18.66933     -17.99260     -17.54540
                        -----------------------------------------
Total Dipole Moment    :      0.44510      -0.18298      -0.36894
                        -----------------------------------------
Magnitude (a.u.)       :      0.60639
Magnitude (Debye)      :      1.54132

Rotational constants in cm-1:     0.020611     0.008417     0.006328
Rotational constants in MHz :   617.901736   252.330733   189.707883

                             ****ORCA TERMINATED NORMALLY****
TOTAL RUN TIME: 0 days 0 hours 0 minutes 29 seconds 439 msec
