                         Program Version 4.2.1 -  RELEASE  -
|  1> ! wB97X-D3 SP def2-SVP
|  2> %pal
|  3> nprocs 16
|  4> end
|  5>
|  6> * xyz 0 1
|  7> S 	 6.86923 	 -20.7954 	 80.1333
|  8> C 	 7.84829 	 -22.0074 	 80.7854
|  9> C 	 8.82583 	 -21.4982 	 81.661
| 10> C 	 8.7234 	 -20.0566 	 81.7687
| 11> C 	 7.73924 	 -19.5343 	 81.0159
| 12> H 	 9.35555 	 -19.4514 	 82.4432
| 13> C 	 9.72098 	 -22.325 	 82.4888
| 14> H 	 10.6837 	 -21.8745 	 82.4645
| 15> H 	 9.89887 	 -23.2592 	 81.9916
| 16> C 	 9.21462 	 -22.6414 	 83.9503
| 17> H 	 9.29712 	 -21.7206 	 84.4953
| 18> H 	 8.13516 	 -22.8911 	 83.9269
| 19> C 	 10.025 	 -23.7888 	 84.6704
| 20> H 	 9.59696 	 -24.8015 	 84.4285
| 21> H 	 11.0529 	 -23.775 	 84.4193
| 22> H 	 9.86759 	 -23.7609 	 85.7681
| 23> S 	 5.70905 	 -17.8776 	 81.5112
| 24> C 	 5.99633 	 -16.203 	 81.7028
| 25> C 	 7.3084 	 -15.8956 	 81.4375
| 26> C 	 8.07924 	 -17.0167 	 81.1325
| 27> C 	 7.35562 	 -18.1947 	 81.1289
| 28> H 	 7.6408 	 -14.8816 	 81.5602
| 29> C 	 9.59298 	 -16.9306 	 80.9047
| 30> H 	 9.53422 	 -16.4366 	 80.0106
| 31> H 	 9.88185 	 -17.8932 	 80.692
| 32> C 	 10.4822 	 -16.186 	 81.8653
| 33> H 	 10.6086 	 -16.809 	 82.7089
| 34> H 	 10.063 	 -15.2436 	 82.1051
| 35> C 	 11.8085 	 -15.942 	 81.1828
| 36> H 	 11.6445 	 -15.4412 	 80.2519
| 37> H 	 12.2825 	 -16.8553 	 80.7651
| 38> H 	 12.5059 	 -15.4855 	 81.9262
| 39> H 	 7.75295 	 -23.0358 	 80.567
| 40> H 	 5.19243 	 -15.4942 	 81.9473
| 41> *
| 42>
| 43>                          ****END OF INPUT****

CARTESIAN COORDINATES (ANGSTROEM)
---------------------------------
  S      6.869230  -20.795400   80.133300
  C      7.848290  -22.007400   80.785400
  C      8.825830  -21.498200   81.661000
  C      8.723400  -20.056600   81.768700
  C      7.739240  -19.534300   81.015900
  H      9.355550  -19.451400   82.443200
  C      9.720980  -22.325000   82.488800
  H     10.683700  -21.874500   82.464500
  H      9.898870  -23.259200   81.991600
  C      9.214620  -22.641400   83.950300
  H      9.297120  -21.720600   84.495300
  H      8.135160  -22.891100   83.926900
  C     10.025000  -23.788800   84.670400
  H      9.596960  -24.801500   84.428500
  H     11.052900  -23.775000   84.419300
  H      9.867590  -23.760900   85.768100
  S      5.709050  -17.877600   81.511200
  C      5.996330  -16.203000   81.702800
  C      7.308400  -15.895600   81.437500
  C      8.079240  -17.016700   81.132500
  C      7.355620  -18.194700   81.128900
  H      7.640800  -14.881600   81.560200
  C      9.592980  -16.930600   80.904700
  H      9.534220  -16.436600   80.010600
  H      9.881850  -17.893200   80.692000
  C     10.482200  -16.186000   81.865300
  H     10.608600  -16.809000   82.708900
  H     10.063000  -15.243600   82.105100
  C     11.808500  -15.942000   81.182800
  H     11.644500  -15.441200   80.251900
  H     12.282500  -16.855300   80.765100
  H     12.505900  -15.485500   81.926200
  H      7.752950  -23.035800   80.567000
  H      5.192430  -15.494200   81.947300

 Total Charge           Charge          ....    0
 Multiplicity           Mult            ....    1
 Number of Electrons    NEL             ....  134
 Basis Dimension        Dim             ....  322

ORBITAL ENERGIES
----------------

  NO   OCC          E(Eh)            E(eV)
   0   2.0000     -88.966800     -2420.9097
   1   2.0000     -88.959585     -2420.7134
   2   2.0000     -10.319711      -280.8136
   3   2.0000     -10.313281      -280.6386
   4   2.0000     -10.311950      -280.6024
   5   2.0000     -10.308375      -280.5051
   6   2.0000     -10.298711      -280.2422
   7   2.0000     -10.294824      -280.1364
   8   2.0000     -10.292104      -280.0624
   9   2.0000     -10.291913      -280.0572
  10   2.0000     -10.285862      -279.8925
  11   2.0000     -10.285049      -279.8704
  12   2.0000     -10.284666      -279.8600
  13   2.0000     -10.279214      -279.7116
  14   2.0000     -10.278994      -279.7056
  15   2.0000     -10.271840      -279.5110
  16   2.0000      -8.082275      -219.9299
  17   2.0000      -8.075969      -219.7583
  18   2.0000      -6.040813      -164.3789
  19   2.0000      -6.036628      -164.2650
  20   2.0000      -6.034227      -164.1997
  21   2.0000      -6.033031      -164.1671
  22   2.0000      -6.030187      -164.0897
  23   2.0000      -6.026951      -164.0017
  24   2.0000      -1.017073       -27.6760
  25   2.0000      -0.990454       -26.9516
  26   2.0000      -0.921375       -25.0719
  27   2.0000      -0.907549       -24.6957
  28   2.0000      -0.879213       -23.9246
  29   2.0000      -0.857446       -23.3323
  30   2.0000      -0.846635       -23.0381
  31   2.0000      -0.816232       -22.2108
  32   2.0000      -0.782506       -21.2931
  33   2.0000      -0.767806       -20.8931
  34   2.0000      -0.712943       -19.4002
  35   2.0000      -0.705992       -19.2110
  36   2.0000      -0.701203       -19.0807
  37   2.0000      -0.665248       -18.1023
  38   2.0000      -0.642188       -17.4748
  39   2.0000      -0.622462       -16.9381
  40   2.0000      -0.598428       -16.2841
  41   2.0000      -0.578589       -15.7442
  42   2.0000      -0.568139       -15.4599
  43   2.0000      -0.552269       -15.0280
  44   2.0000      -0.537718       -14.6321
  45   2.0000      -0.527430       -14.3521
  46   2.0000      -0.518653       -14.1133
  47   2.0000      -0.515739       -14.0340
  48   2.0000      -0.507160       -13.8005
  49   2.0000      -0.500686       -13.6244
  50   2.0000      -0.497673       -13.5424
  51   2.0000      -0.478550       -13.0220
  52   2.0000      -0.473345       -12.8804
  53   2.0000      -0.462158       -12.5759
  54   2.0000      -0.457019       -12.4361
  55   2.0000      -0.449887       -12.2420
  56   2.0000      -0.444457       -12.0943
  57   2.0000      -0.442426       -12.0390
  58   2.0000      -0.440655       -11.9908
  59   2.0000      -0.429406       -11.6847
  60   2.0000      -0.428618       -11.6633
  61   2.0000      -0.416104       -11.3228
  62   2.0000      -0.409902       -11.1540
  63   2.0000      -0.356054        -9.6887
  64   2.0000      -0.330315        -8.9883
  65   2.0000      -0.324018        -8.8170
  66   2.0000      -0.285531        -7.7697
  67   0.0000       0.035796         0.9741
  68   0.0000       0.075524         2.0551
  69   0.0000       0.120014         3.2657
  70   0.0000       0.124788         3.3956
  71   0.0000       0.134624         3.6633

MULLIKEN ATOMIC CHARGES
-----------------------
   0 S :    0.126012
   1 C :   -0.098278
   2 C :   -0.113089
   3 C :    0.008063
   4 C :   -0.154984
   5 H :    0.027033
   6 C :    0.089590
   7 H :    0.014487
   8 H :    0.004093
   9 C :   -0.068246
  10 H :    0.025764
  11 H :    0.039006
  12 C :   -0.062121
  13 H :    0.035965
  14 H :    0.034244
  15 H :    0.040602
  16 S :    0.111610
  17 C :   -0.108234
  18 C :   -0.044655
  19 C :   -0.033998
  20 C :   -0.160823
  21 H :    0.009452
  22 C :    0.107626
  23 H :    0.001606
  24 H :   -0.011895
  25 C :    0.017391
  26 H :    0.018456
  27 H :    0.017491
  28 C :   -0.056888
  29 H :    0.018429
  30 H :    0.020614
  31 H :    0.048778
  32 H :    0.032707
  33 H :    0.064196
Sum of atomic charges:    0.0000000

LOEWDIN ATOMIC CHARGES
----------------------
   0 S :    0.421924
   1 C :   -0.207981
   2 C :   -0.062544
   3 C :   -0.056180
   4 C :   -0.199037
   5 H :    0.037198
   6 C :   -0.037515
   7 H :    0.026391
   8 H :    0.025940
   9 C :   -0.032983
  10 H :    0.018769
  11 H :    0.029366
  12 C :   -0.070006
  13 H :    0.030812
  14 H :    0.018484
  15 H :    0.031548
  16 S :    0.433829
  17 C :   -0.198172
  18 C :   -0.077541
  19 C :   -0.051853
  20 C :   -0.213376
  21 H :    0.029027
  22 C :   -0.020800
  23 H :    0.024783
  24 H :    0.016308
  25 C :   -0.025815
  26 H :    0.019642
  27 H :    0.020439
  28 C :   -0.065956
  29 H :    0.022062
  30 H :    0.027147
  31 H :    0.032286
  32 H :    0.020741
  33 H :    0.033064

  Mayer bond orders larger than 0.100000
B(  0-S ,  1-C ) :   1.1501 B(  0-S ,  4-C ) :   1.1320 B(  1-C ,  2-C ) :   1.5879
B(  1-C , 32-H ) :   0.9724 B(  2-C ,  3-C ) :   1.2402 B(  2-C ,  6-C ) :   1.0582
B(  3-C ,  4-C ) :   1.5709 B(  3-C ,  5-H ) :   0.9912 B(  4-C , 20-C ) :   1.0706
B(  6-C ,  7-H ) :   0.9268 B(  6-C ,  8-H ) :   0.9340 B(  6-C ,  9-C ) :   1.0453
B(  9-C , 10-H ) :   0.9601 B(  9-C , 11-H ) :   0.9613 B(  9-C , 12-C ) :   1.0689
B( 12-C , 13-H ) :   0.9772 B( 12-C , 14-H ) :   0.9786 B( 12-C , 15-H ) :   0.9761
B( 16-S , 17-C ) :   1.1816 B( 16-S , 20-C ) :   1.1521 B( 17-C , 18-C ) :   1.5693
B( 17-C , 20-C ) :   0.1047 B( 17-C , 33-H ) :   0.9664 B( 18-C , 19-C ) :   1.2660
B( 18-C , 21-H ) :   1.0001 B( 19-C , 20-C ) :   1.5699 B( 19-C , 22-C ) :   1.0065
B( 22-C , 23-H ) :   0.9198 B( 22-C , 24-H ) :   0.9252 B( 22-C , 25-C ) :   1.0809
B( 25-C , 26-H ) :   0.9512 B( 25-C , 27-H ) :   0.9460 B( 25-C , 28-C ) :   1.0871
B( 28-C , 29-H ) :   0.9728 B( 28-C , 30-H ) :   0.9702 B( 28-C , 31-H ) :   0.9718

Dispersion correction           -0.013700281
FINAL SINGLE POINT ENERGY     -1339.872245674088

DIPOLE MOMENT
-------------
                                X             Y             Z
Electronic contribution:    -25.27498       2.97517     -12.28814
Nuclear contribution   :     25.79654      -2.92722      12.63709
                        -----------------------------------------
Total Dipole Moment    :      0.52156       0.04794       0.34895
                        -----------------------------------------
Magnitude (a.u.)       :      0.62936
Magnitude (Debye)      :      1.59971

Rotational constants in cm-1:     0.016711     0.008547     0.006637
Rotational constants in MHz :   500.995646   256.221448   198.981224

                             ****ORCA TERMINATED NORMALLY****
TOTAL RUN TIME: 0 days 0 hours 0 minutes 34 seconds 402 msec
