                         Program Version 4.2.1 -  RELEASE  -
|  1> ! wB97X-D3 SP def2-SVP
|  2> %pal
|  3> nprocs 16
|  4> end
|  5>
|  6> * xyz 0 1
|  7> S 	 14.2846 	 38.4543 	 62.2216
|  8> C 	 16.0277 	 38.6155 	 62.0153
|  9> C 	 16.6175 	 37.3707 	 61.9533
| 10> C 	 15.6498 	 36.3479 	 62.3564
| 11> C 	 14.3794 	 36.741 	 62.6048
| 12> H 	 15.8722 	 35.2901 	 62.512
| 13> C 	 18.0668 	 36.9612 	 61.7833
| 14> H 	 18.432 	 36.6344 	 62.8057
| 15> H 	 18.6663 	 37.882 	 61.6539
| 16> C 	 18.5008 	 36.1228 	 60.55
| 17> H 	 17.8689 	 36.2931 	 59.6883
| 18> H 	 19.481 	 36.4283 	 60.1905
| 19> C 	 18.425 	 34.6128 	 60.824
| 20> H 	 17.4093 	 34.0994 	 60.9806
| 21> H 	 18.7 	 34.0706 	 59.9503
| 22> H 	 19.0904 	 34.3648 	 61.6345
| 23> S 	 11.6229 	 36.2052 	 62.4072
| 24> C 	 10.9852 	 34.9513 	 63.4126
| 25> C 	 11.8763 	 34.3878 	 64.2443
| 26> C 	 13.1607 	 34.8713 	 64.0656
| 27> C 	 13.2325 	 35.8928 	 63.1208
| 28> H 	 11.5896 	 33.5648 	 64.8967
| 29> C 	 14.2993 	 34.3222 	 64.8865
| 30> H 	 15.117 	 34.9168 	 64.5185
| 31> H 	 14.4951 	 33.2424 	 64.6327
| 32> C 	 14.2194 	 34.5868 	 66.3866
| 33> H 	 15.183 	 34.5148 	 66.7334
| 34> H 	 13.6557 	 33.8833 	 66.9837
| 35> C 	 13.6608 	 35.9728 	 66.6661
| 36> H 	 13.8478 	 36.1003 	 67.7007
| 37> H 	 12.6087 	 36.0236 	 66.5098
| 38> H 	 14.1007 	 36.7609 	 66.0456
| 39> H 	 16.53 	 39.5439 	 61.7748
| 40> H 	 10.0102 	 34.4723 	 63.2703
| 41> *
| 42>
| 43>                          ****END OF INPUT****

CARTESIAN COORDINATES (ANGSTROEM)
---------------------------------
  S     14.284600   38.454300   62.221600
  C     16.027700   38.615500   62.015300
  C     16.617500   37.370700   61.953300
  C     15.649800   36.347900   62.356400
  C     14.379400   36.741000   62.604800
  H     15.872200   35.290100   62.512000
  C     18.066800   36.961200   61.783300
  H     18.432000   36.634400   62.805700
  H     18.666300   37.882000   61.653900
  C     18.500800   36.122800   60.550000
  H     17.868900   36.293100   59.688300
  H     19.481000   36.428300   60.190500
  C     18.425000   34.612800   60.824000
  H     17.409300   34.099400   60.980600
  H     18.700000   34.070600   59.950300
  H     19.090400   34.364800   61.634500
  S     11.622900   36.205200   62.407200
  C     10.985200   34.951300   63.412600
  C     11.876300   34.387800   64.244300
  C     13.160700   34.871300   64.065600
  C     13.232500   35.892800   63.120800
  H     11.589600   33.564800   64.896700
  C     14.299300   34.322200   64.886500
  H     15.117000   34.916800   64.518500
  H     14.495100   33.242400   64.632700
  C     14.219400   34.586800   66.386600
  H     15.183000   34.514800   66.733400
  H     13.655700   33.883300   66.983700
  C     13.660800   35.972800   66.666100
  H     13.847800   36.100300   67.700700
  H     12.608700   36.023600   66.509800
  H     14.100700   36.760900   66.045600
  H     16.530000   39.543900   61.774800
  H     10.010200   34.472300   63.270300

 Total Charge           Charge          ....    0
 Multiplicity           Mult            ....    1
 Number of Electrons    NEL             ....  134
 Basis Dimension        Dim             ....  322

ORBITAL ENERGIES
----------------

  NO   OCC          E(Eh)            E(eV)
   0   2.0000     -88.967618     -2420.9320
   1   2.0000     -88.962069     -2420.7810
   2   2.0000     -10.335261      -281.2367
   3   2.0000     -10.331680      -281.1393
   4   2.0000     -10.317888      -280.7640
   5   2.0000     -10.312273      -280.6112
   6   2.0000     -10.305843      -280.4362
   7   2.0000     -10.300435      -280.2891
   8   2.0000     -10.299149      -280.2541
   9   2.0000     -10.292572      -280.0751
  10   2.0000     -10.289239      -279.9844
  11   2.0000     -10.288326      -279.9596
  12   2.0000     -10.284464      -279.8545
  13   2.0000     -10.278993      -279.7056
  14   2.0000     -10.274814      -279.5919
  15   2.0000     -10.262927      -279.2684
  16   2.0000      -8.082200      -219.9278
  17   2.0000      -8.076706      -219.7783
  18   2.0000      -6.040648      -164.3744
  19   2.0000      -6.036869      -164.2716
  20   2.0000      -6.035490      -164.2340
  21   2.0000      -6.032911      -164.1638
  22   2.0000      -6.031318      -164.1205
  23   2.0000      -6.027076      -164.0051
  24   2.0000      -1.006306       -27.3830
  25   2.0000      -0.987001       -26.8577
  26   2.0000      -0.915176       -24.9032
  27   2.0000      -0.906965       -24.6798
  28   2.0000      -0.867743       -23.6125
  29   2.0000      -0.852694       -23.2030
  30   2.0000      -0.841308       -22.8931
  31   2.0000      -0.816947       -22.2303
  32   2.0000      -0.783621       -21.3234
  33   2.0000      -0.774303       -21.0699
  34   2.0000      -0.707440       -19.2504
  35   2.0000      -0.703722       -19.1493
  36   2.0000      -0.692655       -18.8481
  37   2.0000      -0.658644       -17.9226
  38   2.0000      -0.641514       -17.4565
  39   2.0000      -0.617245       -16.7961
  40   2.0000      -0.591206       -16.0875
  41   2.0000      -0.570788       -15.5319
  42   2.0000      -0.559406       -15.2222
  43   2.0000      -0.550157       -14.9705
  44   2.0000      -0.540407       -14.7052
  45   2.0000      -0.534474       -14.5438
  46   2.0000      -0.518794       -14.1171
  47   2.0000      -0.513507       -13.9732
  48   2.0000      -0.502380       -13.6705
  49   2.0000      -0.496567       -13.5123
  50   2.0000      -0.490069       -13.3354
  51   2.0000      -0.483218       -13.1490
  52   2.0000      -0.467294       -12.7157
  53   2.0000      -0.462066       -12.5734
  54   2.0000      -0.459601       -12.5064
  55   2.0000      -0.454729       -12.3738
  56   2.0000      -0.443300       -12.0628
  57   2.0000      -0.435041       -11.8381
  58   2.0000      -0.424485       -11.5508
  59   2.0000      -0.421454       -11.4683
  60   2.0000      -0.419367       -11.4116
  61   2.0000      -0.412162       -11.2155
  62   2.0000      -0.407949       -11.1008
  63   2.0000      -0.355261        -9.6671
  64   2.0000      -0.337058        -9.1718
  65   2.0000      -0.324916        -8.8414
  66   2.0000      -0.291855        -7.9418
  67   0.0000       0.032924         0.8959
  68   0.0000       0.071185         1.9370
  69   0.0000       0.107306         2.9199
  70   0.0000       0.120342         3.2747
  71   0.0000       0.137657         3.7458

MULLIKEN ATOMIC CHARGES
-----------------------
   0 S :    0.088525
   1 C :   -0.120333
   2 C :   -0.062453
   3 C :   -0.007116
   4 C :   -0.114211
   5 H :    0.016316
   6 C :    0.019275
   7 H :    0.051003
   8 H :    0.011745
   9 C :   -0.032147
  10 H :    0.030142
  11 H :    0.031865
  12 C :   -0.074117
  13 H :    0.047246
  14 H :    0.020191
  15 H :    0.030839
  16 S :    0.103800
  17 C :   -0.079978
  18 C :   -0.034894
  19 C :   -0.081041
  20 C :   -0.163496
  21 H :    0.019130
  22 C :    0.088556
  23 H :    0.000975
  24 H :    0.045606
  25 C :   -0.040900
  26 H :    0.009287
  27 H :    0.019809
  28 C :   -0.018404
  29 H :    0.021773
  30 H :    0.028421
  31 H :    0.034975
  32 H :    0.051119
  33 H :    0.058494
Sum of atomic charges:   -0.0000000

LOEWDIN ATOMIC CHARGES
----------------------
   0 S :    0.381130
   1 C :   -0.186636
   2 C :   -0.063108
   3 C :   -0.074833
   4 C :   -0.189750
   5 H :    0.028220
   6 C :   -0.042772
   7 H :    0.041650
   8 H :    0.031091
   9 C :   -0.034698
  10 H :    0.029380
  11 H :    0.027629
  12 C :   -0.075244
  13 H :    0.036161
  14 H :    0.020603
  15 H :    0.020355
  16 S :    0.396576
  17 C :   -0.185164
  18 C :   -0.076190
  19 C :   -0.057625
  20 C :   -0.180930
  21 H :    0.036818
  22 C :   -0.033266
  23 H :    0.026242
  24 H :    0.037490
  25 C :   -0.032711
  26 H :    0.015526
  27 H :    0.020565
  28 C :   -0.054758
  29 H :    0.021596
  30 H :    0.023044
  31 H :    0.029566
  32 H :    0.030291
  33 H :    0.033755

  Mayer bond orders larger than 0.100000
B(  0-S ,  1-C ) :   1.1252 B(  0-S ,  4-C ) :   1.1219 B(  1-C ,  2-C ) :   1.6351
B(  1-C , 32-H ) :   0.9669 B(  2-C ,  3-C ) :   1.1938 B(  2-C ,  6-C ) :   1.0352
B(  3-C ,  4-C ) :   1.6316 B(  3-C ,  5-H ) :   0.9857 B(  4-C , 20-C ) :   1.0131
B(  6-C ,  7-H ) :   0.9481 B(  6-C ,  8-H ) :   0.9387 B(  6-C ,  9-C ) :   1.0466
B(  9-C , 10-H ) :   0.9542 B(  9-C , 11-H ) :   0.9600 B(  9-C , 12-C ) :   1.0823
B( 12-C , 13-H ) :   0.9707 B( 12-C , 14-H ) :   0.9694 B( 12-C , 15-H ) :   0.9787
B( 16-S , 17-C ) :   1.1535 B( 16-S , 20-C ) :   1.1380 B( 17-C , 18-C ) :   1.6241
B( 17-C , 33-H ) :   0.9577 B( 18-C , 19-C ) :   1.2486 B( 18-C , 21-H ) :   0.9910
B( 19-C , 20-C ) :   1.6034 B( 19-C , 22-C ) :   1.0415 B( 22-C , 23-H ) :   0.9186
B( 22-C , 24-H ) :   0.9332 B( 22-C , 25-C ) :   1.0748 B( 25-C , 26-H ) :   0.9551
B( 25-C , 27-H ) :   0.9490 B( 25-C , 28-C ) :   1.0935 B( 28-C , 29-H ) :   0.9712
B( 28-C , 30-H ) :   0.9645 B( 28-C , 31-H ) :   0.9741

Dispersion correction           -0.014923379
FINAL SINGLE POINT ENERGY     -1339.866454580166

DIPOLE MOMENT
-------------
                                X             Y             Z
Electronic contribution:    -20.13160      12.09673      -7.90426
Nuclear contribution   :     20.67948     -12.62614       8.06075
                        -----------------------------------------
Total Dipole Moment    :      0.54789      -0.52941       0.15649
                        -----------------------------------------
Magnitude (a.u.)       :      0.77778
Magnitude (Debye)      :      1.97696

Rotational constants in cm-1:     0.018939     0.008637     0.007514
Rotational constants in MHz :   567.790458   258.937686   225.262288

                             ****ORCA TERMINATED NORMALLY****
TOTAL RUN TIME: 0 days 0 hours 0 minutes 35 seconds 480 msec
