                         Program Version 4.2.1 -  RELEASE  -
|  1> ! wB97X-D3 SP def2-SVP
|  2> %pal
|  3> nprocs 16
|  4> end
|  5>
|  6> * xyz 0 1
|  7> S 	 -76.8076 	 48.1465 	 124.985
|  8> C 	 -78.436 	 48.6473 	 125.371
|  9> C 	 -79.2088 	 48.9853 	 124.253
| 10> C 	 -78.4147 	 48.9683 	 123.047
| 11> C 	 -77.1511 	 48.4716 	 123.31
| 12> H 	 -78.7975 	 49.2399 	 122.023
| 13> C 	 -80.687 	 49.322 	 124.344
| 14> H 	 -80.6738 	 50.3146 	 124.394
| 15> H 	 -81.2157 	 49.0364 	 125.299
| 16> C 	 -81.6704 	 48.7254 	 123.3
| 17> H 	 -82.7031 	 48.8491 	 123.684
| 18> H 	 -81.6941 	 49.2537 	 122.359
| 19> C 	 -81.4877 	 47.2455 	 123.051
| 20> H 	 -80.469 	 47.1567 	 122.54
| 21> H 	 -81.4882 	 46.777 	 123.997
| 22> H 	 -82.238 	 46.7556 	 122.387
| 23> S 	 -75.1519 	 49.4855 	 121.76
| 24> C 	 -74.165 	 48.414 	 120.801
| 25> C 	 -74.544 	 47.1004 	 120.977
| 26> C 	 -75.7156 	 46.9548 	 121.773
| 27> C 	 -76.1307 	 48.1085 	 122.342
| 28> H 	 -74.0182 	 46.368 	 120.416
| 29> C 	 -76.1159 	 45.4949 	 122.084
| 30> H 	 -75.4725 	 44.8348 	 121.553
| 31> H 	 -77.0172 	 45.2923 	 121.505
| 32> C 	 -76.2896 	 45.0852 	 123.576
| 33> H 	 -77.1295 	 45.4861 	 124.131
| 34> H 	 -75.4542 	 45.4481 	 124.212
| 35> C 	 -76.4646 	 43.5809 	 123.643
| 36> H 	 -76.339 	 43.1825 	 124.699
| 37> H 	 -75.771 	 43.0923 	 123.009
| 38> H 	 -77.495 	 43.323 	 123.447
| 39> H 	 -78.8616 	 48.3716 	 126.29
| 40> H 	 -73.3826 	 48.7763 	 120.149
| 41> *
| 42>
| 43>                          ****END OF INPUT****

CARTESIAN COORDINATES (ANGSTROEM)
---------------------------------
  S    -76.807600   48.146500  124.985000
  C    -78.436000   48.647300  125.371000
  C    -79.208800   48.985300  124.253000
  C    -78.414700   48.968300  123.047000
  C    -77.151100   48.471600  123.310000
  H    -78.797500   49.239900  122.023000
  C    -80.687000   49.322000  124.344000
  H    -80.673800   50.314600  124.394000
  H    -81.215700   49.036400  125.299000
  C    -81.670400   48.725400  123.300000
  H    -82.703100   48.849100  123.684000
  H    -81.694100   49.253700  122.359000
  C    -81.487700   47.245500  123.051000
  H    -80.469000   47.156700  122.540000
  H    -81.488200   46.777000  123.997000
  H    -82.238000   46.755600  122.387000
  S    -75.151900   49.485500  121.760000
  C    -74.165000   48.414000  120.801000
  C    -74.544000   47.100400  120.977000
  C    -75.715600   46.954800  121.773000
  C    -76.130700   48.108500  122.342000
  H    -74.018200   46.368000  120.416000
  C    -76.115900   45.494900  122.084000
  H    -75.472500   44.834800  121.553000
  H    -77.017200   45.292300  121.505000
  C    -76.289600   45.085200  123.576000
  H    -77.129500   45.486100  124.131000
  H    -75.454200   45.448100  124.212000
  C    -76.464600   43.580900  123.643000
  H    -76.339000   43.182500  124.699000
  H    -75.771000   43.092300  123.009000
  H    -77.495000   43.323000  123.447000
  H    -78.861600   48.371600  126.290000
  H    -73.382600   48.776300  120.149000

 Total Charge           Charge          ....    0
 Multiplicity           Mult            ....    1
 Number of Electrons    NEL             ....  134
 Basis Dimension        Dim             ....  322

ORBITAL ENERGIES
----------------

  NO   OCC          E(Eh)            E(eV)
   0   2.0000     -88.968023     -2420.9430
   1   2.0000     -88.958446     -2420.6824
   2   2.0000     -10.328485      -281.0524
   3   2.0000     -10.321114      -280.8518
   4   2.0000     -10.314154      -280.6624
   5   2.0000     -10.308038      -280.4960
   6   2.0000     -10.307010      -280.4680
   7   2.0000     -10.304181      -280.3910
   8   2.0000     -10.300906      -280.3019
   9   2.0000     -10.291326      -280.0412
  10   2.0000     -10.289939      -280.0035
  11   2.0000     -10.287173      -279.9282
  12   2.0000     -10.287108      -279.9264
  13   2.0000     -10.282467      -279.8002
  14   2.0000     -10.277947      -279.6772
  15   2.0000     -10.272737      -279.5354
  16   2.0000      -8.082518      -219.9365
  17   2.0000      -8.073251      -219.6843
  18   2.0000      -6.040860      -164.3801
  19   2.0000      -6.037141      -164.2790
  20   2.0000      -6.033372      -164.1764
  21   2.0000      -6.031703      -164.1310
  22   2.0000      -6.027739      -164.0231
  23   2.0000      -6.024083      -163.9236
  24   2.0000      -1.005831       -27.3701
  25   2.0000      -0.982128       -26.7251
  26   2.0000      -0.913335       -24.8531
  27   2.0000      -0.903591       -24.5880
  28   2.0000      -0.867534       -23.6068
  29   2.0000      -0.850214       -23.1355
  30   2.0000      -0.849171       -23.1071
  31   2.0000      -0.814273       -22.1575
  32   2.0000      -0.784026       -21.3344
  33   2.0000      -0.771103       -20.9828
  34   2.0000      -0.707357       -19.2482
  35   2.0000      -0.697921       -18.9914
  36   2.0000      -0.690917       -18.8008
  37   2.0000      -0.662058       -18.0155
  38   2.0000      -0.639934       -17.4135
  39   2.0000      -0.619942       -16.8695
  40   2.0000      -0.595283       -16.1985
  41   2.0000      -0.568618       -15.4729
  42   2.0000      -0.564011       -15.3475
  43   2.0000      -0.560207       -15.2440
  44   2.0000      -0.541291       -14.7293
  45   2.0000      -0.522169       -14.2089
  46   2.0000      -0.510859       -13.9012
  47   2.0000      -0.509179       -13.8555
  48   2.0000      -0.500723       -13.6254
  49   2.0000      -0.496122       -13.5002
  50   2.0000      -0.487857       -13.2753
  51   2.0000      -0.481207       -13.0943
  52   2.0000      -0.476817       -12.9748
  53   2.0000      -0.463731       -12.6188
  54   2.0000      -0.453699       -12.3458
  55   2.0000      -0.452360       -12.3093
  56   2.0000      -0.447308       -12.1719
  57   2.0000      -0.440923       -11.9981
  58   2.0000      -0.429974       -11.7002
  59   2.0000      -0.417432       -11.3589
  60   2.0000      -0.413850       -11.2614
  61   2.0000      -0.412031       -11.2119
  62   2.0000      -0.408504       -11.1160
  63   2.0000      -0.336673        -9.1613
  64   2.0000      -0.327785        -8.9195
  65   2.0000      -0.319917        -8.7054
  66   2.0000      -0.308550        -8.3961
  67   0.0000       0.042382         1.1533
  68   0.0000       0.058789         1.5997
  69   0.0000       0.113188         3.0800
  70   0.0000       0.114492         3.1155
  71   0.0000       0.130567         3.5529

MULLIKEN ATOMIC CHARGES
-----------------------
   0 S :    0.117642
   1 C :   -0.096713
   2 C :   -0.117578
   3 C :    0.048998
   4 C :   -0.172082
   5 H :    0.043248
   6 C :    0.098477
   7 H :    0.013098
   8 H :    0.027476
   9 C :   -0.096435
  10 H :    0.028307
  11 H :    0.023885
  12 C :   -0.058874
  13 H :    0.044126
  14 H :    0.022919
  15 H :    0.045134
  16 S :    0.094930
  17 C :   -0.092576
  18 C :   -0.038483
  19 C :    0.014211
  20 C :   -0.208875
  21 H :    0.010453
  22 C :    0.110958
  23 H :   -0.006722
  24 H :    0.021549
  25 C :   -0.076471
  26 H :    0.038756
  27 H :    0.033956
  28 C :   -0.046338
  29 H :    0.031674
  30 H :    0.022925
  31 H :    0.029343
  32 H :    0.031752
  33 H :    0.057328
Sum of atomic charges:    0.0000000

LOEWDIN ATOMIC CHARGES
----------------------
   0 S :    0.433302
   1 C :   -0.199727
   2 C :   -0.052111
   3 C :   -0.060468
   4 C :   -0.197405
   5 H :    0.045967
   6 C :   -0.026956
   7 H :    0.018148
   8 H :    0.040968
   9 C :   -0.046508
  10 H :    0.027003
  11 H :    0.016146
  12 C :   -0.068205
  13 H :    0.033989
  14 H :    0.017687
  15 H :    0.030785
  16 S :    0.387832
  17 C :   -0.177939
  18 C :   -0.073781
  19 C :   -0.054136
  20 C :   -0.195945
  21 H :    0.026565
  22 C :   -0.025152
  23 H :    0.023652
  24 H :    0.035894
  25 C :   -0.050394
  26 H :    0.019350
  27 H :    0.022333
  28 C :   -0.063315
  29 H :    0.032607
  30 H :    0.014910
  31 H :    0.024035
  32 H :    0.012966
  33 H :    0.027902

  Mayer bond orders larger than 0.100000
B(  0-S ,  1-C ) :   1.1352 B(  0-S ,  4-C ) :   1.1753 B(  1-C ,  2-C ) :   1.6310
B(  1-C , 32-H ) :   0.9672 B(  2-C ,  3-C ) :   1.2263 B(  2-C ,  6-C ) :   1.0043
B(  3-C ,  4-C ) :   1.5939 B(  3-C ,  5-H ) :   0.9813 B(  4-C , 20-C ) :   0.9951
B(  6-C ,  7-H ) :   0.9329 B(  6-C ,  8-H ) :   0.9480 B(  6-C ,  9-C ) :   1.0617
B(  9-C , 10-H ) :   0.9592 B(  9-C , 11-H ) :   0.9541 B(  9-C , 12-C ) :   1.0833
B( 12-C , 13-H ) :   0.9669 B( 12-C , 14-H ) :   0.9751 B( 12-C , 15-H ) :   0.9737
B( 16-S , 17-C ) :   1.1573 B( 16-S , 20-C ) :   1.1325 B( 17-C , 18-C ) :   1.6237
B( 17-C , 33-H ) :   0.9676 B( 18-C , 19-C ) :   1.2173 B( 18-C , 21-H ) :   0.9929
B( 19-C , 20-C ) :   1.6487 B( 19-C , 22-C ) :   1.0333 B( 22-C , 23-H ) :   0.9373
B( 22-C , 24-H ) :   0.9174 B( 22-C , 25-C ) :   1.0504 B( 25-C , 26-H ) :   0.9473
B( 25-C , 27-H ) :   0.9603 B( 25-C , 28-C ) :   1.0854 B( 28-C , 29-H ) :   0.9719
B( 28-C , 30-H ) :   0.9773 B( 28-C , 31-H ) :   0.9772

Dispersion correction           -0.015101606
FINAL SINGLE POINT ENERGY     -1339.861425983041

DIPOLE MOMENT
-------------
                                X             Y             Z
Electronic contribution:     18.24300      17.14204      -0.44075
Nuclear contribution   :    -18.69167     -17.53146       0.29928
                        -----------------------------------------
Total Dipole Moment    :     -0.44867      -0.38942      -0.14147
                        -----------------------------------------
Magnitude (a.u.)       :      0.61071
Magnitude (Debye)      :      1.55231

Rotational constants in cm-1:     0.017705     0.009495     0.007908
Rotational constants in MHz :   530.773175   284.648222   237.085527

                             ****ORCA TERMINATED NORMALLY****
TOTAL RUN TIME: 0 days 0 hours 0 minutes 33 seconds 126 msec
