                         Program Version 4.2.1 -  RELEASE  -
|  1> ! wB97X-D3 SP def2-SVP
|  2> %pal
|  3> nprocs 16
|  4> end
|  5>
|  6> * xyz 0 1
|  7> S 	 -45.0909 	 62.5955 	 137.768
|  8> C 	 -44.4561 	 60.9506 	 137.514
|  9> C 	 -45.4396 	 60.0327 	 137.633
| 10> C 	 -46.7683 	 60.5714 	 137.823
| 11> C 	 -46.7342 	 61.9952 	 137.851
| 12> H 	 -47.6679 	 60.0378 	 138.051
| 13> C 	 -45.2289 	 58.5515 	 137.92
| 14> H 	 -45.4021 	 58.336 	 138.947
| 15> H 	 -44.1672 	 58.3818 	 137.864
| 16> C 	 -45.996 	 57.4526 	 137.188
| 17> H 	 -47.0042 	 57.4433 	 137.567
| 18> H 	 -46.0593 	 57.6063 	 136.142
| 19> C 	 -45.4379 	 55.9964 	 137.444
| 20> H 	 -44.6108 	 55.8314 	 136.817
| 21> H 	 -45.2346 	 55.6802 	 138.466
| 22> H 	 -46.2272 	 55.2792 	 137.159
| 23> S 	 -47.9765 	 63.7571 	 139.535
| 24> C 	 -49.3835 	 64.6125 	 138.873
| 25> C 	 -49.5055 	 64.3264 	 137.515
| 26> C 	 -48.668 	 63.3714 	 136.98
| 27> C 	 -47.8519 	 62.8762 	 137.951
| 28> H 	 -50.1839 	 64.9216 	 136.888
| 29> C 	 -48.7001 	 62.9365 	 135.522
| 30> H 	 -49.5669 	 63.3844 	 135.056
| 31> H 	 -48.6211 	 61.881 	 135.395
| 32> C 	 -47.5367 	 63.4358 	 134.637
| 33> H 	 -46.7234 	 63.1332 	 135.153
| 34> H 	 -47.3468 	 64.4998 	 134.69
| 35> C 	 -47.5387 	 62.8649 	 133.193
| 36> H 	 -46.6764 	 63.1868 	 132.612
| 37> H 	 -48.3553 	 63.2275 	 132.608
| 38> H 	 -47.548 	 61.7134 	 133.222
| 39> H 	 -43.3819 	 60.6813 	 137.639
| 40> H 	 -50.0672 	 65.3223 	 139.325
| 41> *
| 42>
| 43>                          ****END OF INPUT****

CARTESIAN COORDINATES (ANGSTROEM)
---------------------------------
  S    -45.090900   62.595500  137.768000
  C    -44.456100   60.950600  137.514000
  C    -45.439600   60.032700  137.633000
  C    -46.768300   60.571400  137.823000
  C    -46.734200   61.995200  137.851000
  H    -47.667900   60.037800  138.051000
  C    -45.228900   58.551500  137.920000
  H    -45.402100   58.336000  138.947000
  H    -44.167200   58.381800  137.864000
  C    -45.996000   57.452600  137.188000
  H    -47.004200   57.443300  137.567000
  H    -46.059300   57.606300  136.142000
  C    -45.437900   55.996400  137.444000
  H    -44.610800   55.831400  136.817000
  H    -45.234600   55.680200  138.466000
  H    -46.227200   55.279200  137.159000
  S    -47.976500   63.757100  139.535000
  C    -49.383500   64.612500  138.873000
  C    -49.505500   64.326400  137.515000
  C    -48.668000   63.371400  136.980000
  C    -47.851900   62.876200  137.951000
  H    -50.183900   64.921600  136.888000
  C    -48.700100   62.936500  135.522000
  H    -49.566900   63.384400  135.056000
  H    -48.621100   61.881000  135.395000
  C    -47.536700   63.435800  134.637000
  H    -46.723400   63.133200  135.153000
  H    -47.346800   64.499800  134.690000
  C    -47.538700   62.864900  133.193000
  H    -46.676400   63.186800  132.612000
  H    -48.355300   63.227500  132.608000
  H    -47.548000   61.713400  133.222000
  H    -43.381900   60.681300  137.639000
  H    -50.067200   65.322300  139.325000

 Total Charge           Charge          ....    0
 Multiplicity           Mult            ....    1
 Number of Electrons    NEL             ....  134
 Basis Dimension        Dim             ....  322

ORBITAL ENERGIES
----------------

  NO   OCC          E(Eh)            E(eV)
   0   2.0000     -88.969116     -2420.9727
   1   2.0000     -88.967890     -2420.9394
   2   2.0000     -10.330973      -281.1201
   3   2.0000     -10.323975      -280.9296
   4   2.0000     -10.321063      -280.8504
   5   2.0000     -10.315832      -280.7081
   6   2.0000     -10.301568      -280.3199
   7   2.0000     -10.300032      -280.2781
   8   2.0000     -10.297694      -280.2145
   9   2.0000     -10.290774      -280.0262
  10   2.0000     -10.289129      -279.9814
  11   2.0000     -10.285903      -279.8937
  12   2.0000     -10.285843      -279.8920
  13   2.0000     -10.281935      -279.7857
  14   2.0000     -10.279418      -279.7172
  15   2.0000     -10.271637      -279.5054
  16   2.0000      -8.082403      -219.9334
  17   2.0000      -8.081738      -219.9153
  18   2.0000      -6.040983      -164.3835
  19   2.0000      -6.040386      -164.3673
  20   2.0000      -6.037247      -164.2819
  21   2.0000      -6.036368      -164.2579
  22   2.0000      -6.033017      -164.1667
  23   2.0000      -6.032381      -164.1494
  24   2.0000      -1.005239       -27.3540
  25   2.0000      -0.980846       -26.6902
  26   2.0000      -0.909335       -24.7443
  27   2.0000      -0.907373       -24.6909
  28   2.0000      -0.870595       -23.6901
  29   2.0000      -0.851605       -23.1733
  30   2.0000      -0.843588       -22.9552
  31   2.0000      -0.808630       -22.0039
  32   2.0000      -0.784521       -21.3479
  33   2.0000      -0.775344       -21.0982
  34   2.0000      -0.715878       -19.4800
  35   2.0000      -0.703338       -19.1388
  36   2.0000      -0.696268       -18.9464
  37   2.0000      -0.663386       -18.0517
  38   2.0000      -0.640888       -17.4394
  39   2.0000      -0.615469       -16.7478
  40   2.0000      -0.599392       -16.3103
  41   2.0000      -0.573983       -15.6189
  42   2.0000      -0.565655       -15.3923
  43   2.0000      -0.553322       -15.0566
  44   2.0000      -0.519441       -14.1347
  45   2.0000      -0.516457       -14.0535
  46   2.0000      -0.512164       -13.9367
  47   2.0000      -0.510498       -13.8913
  48   2.0000      -0.509528       -13.8650
  49   2.0000      -0.496361       -13.5067
  50   2.0000      -0.490824       -13.3560
  51   2.0000      -0.481777       -13.1098
  52   2.0000      -0.468847       -12.7580
  53   2.0000      -0.466277       -12.6880
  54   2.0000      -0.462357       -12.5814
  55   2.0000      -0.450804       -12.2670
  56   2.0000      -0.446759       -12.1569
  57   2.0000      -0.437151       -11.8955
  58   2.0000      -0.431308       -11.7365
  59   2.0000      -0.429507       -11.6875
  60   2.0000      -0.424001       -11.5376
  61   2.0000      -0.415124       -11.2961
  62   2.0000      -0.411637       -11.2012
  63   2.0000      -0.338441        -9.2094
  64   2.0000      -0.328639        -8.9427
  65   2.0000      -0.327186        -8.9032
  66   2.0000      -0.302996        -8.2449
  67   0.0000       0.032523         0.8850
  68   0.0000       0.049269         1.3407
  69   0.0000       0.105055         2.8587
  70   0.0000       0.109637         2.9834
  71   0.0000       0.131657         3.5826

MULLIKEN ATOMIC CHARGES
-----------------------
   0 S :    0.111581
   1 C :   -0.135480
   2 C :   -0.052916
   3 C :    0.050212
   4 C :   -0.181792
   5 H :    0.016739
   6 C :    0.062575
   7 H :    0.026915
   8 H :   -0.002097
   9 C :   -0.059909
  10 H :    0.023015
  11 H :    0.025602
  12 C :   -0.062731
  13 H :    0.032688
  14 H :    0.031544
  15 H :    0.030764
  16 S :    0.104665
  17 C :   -0.072752
  18 C :   -0.069239
  19 C :    0.027643
  20 C :   -0.216370
  21 H :    0.017733
  22 C :    0.127146
  23 H :    0.010748
  24 H :    0.019117
  25 C :   -0.043867
  26 H :   -0.009044
  27 H :    0.014336
  28 C :   -0.052730
  29 H :    0.035316
  30 H :    0.026202
  31 H :    0.043095
  32 H :    0.066727
  33 H :    0.054564
Sum of atomic charges:    0.0000000

LOEWDIN ATOMIC CHARGES
----------------------
   0 S :    0.396205
   1 C :   -0.199308
   2 C :   -0.063288
   3 C :   -0.054083
   4 C :   -0.195466
   5 H :    0.030606
   6 C :   -0.034343
   7 H :    0.032041
   8 H :    0.022560
   9 C :   -0.032206
  10 H :    0.019877
  11 H :    0.019806
  12 C :   -0.062329
  13 H :    0.018408
  14 H :    0.024730
  15 H :    0.031276
  16 S :    0.375788
  17 C :   -0.178892
  18 C :   -0.072448
  19 C :   -0.050095
  20 C :   -0.183021
  21 H :    0.031731
  22 C :   -0.015474
  23 H :    0.026896
  24 H :    0.031115
  25 C :   -0.037679
  26 H :    0.004174
  27 H :    0.022844
  28 C :   -0.065022
  29 H :    0.029139
  30 H :    0.018958
  31 H :    0.035168
  32 H :    0.039090
  33 H :    0.033242

  Mayer bond orders larger than 0.100000
B(  0-S ,  1-C ) :   1.1105 B(  0-S ,  4-C ) :   1.1536 B(  1-C ,  2-C ) :   1.6576
B(  1-C , 32-H ) :   0.9549 B(  2-C ,  3-C ) :   1.2072 B(  2-C ,  6-C ) :   1.0265
B(  3-C ,  4-C ) :   1.5800 B(  3-C ,  5-H ) :   0.9976 B(  4-C , 20-C ) :   1.0357
B(  6-C ,  7-H ) :   0.9389 B(  6-C ,  8-H ) :   0.9425 B(  6-C ,  9-C ) :   1.0547
B(  9-C , 10-H ) :   0.9560 B(  9-C , 11-H ) :   0.9610 B(  9-C , 12-C ) :   1.0821
B( 12-C , 13-H ) :   0.9794 B( 12-C , 14-H ) :   0.9770 B( 12-C , 15-H ) :   0.9753
B( 16-S , 17-C ) :   1.1371 B( 16-S , 20-C ) :   1.1299 B( 17-C , 18-C ) :   1.6193
B( 17-C , 20-C ) :   0.1123 B( 17-C , 33-H ) :   0.9650 B( 18-C , 19-C ) :   1.2634
B( 18-C , 21-H ) :   0.9745 B( 19-C , 20-C ) :   1.5933 B( 19-C , 22-C ) :   1.0479
B( 22-C , 23-H ) :   0.9308 B( 22-C , 24-H ) :   0.9286 B( 22-C , 25-C ) :   1.0589
B( 25-C , 26-H ) :   0.9488 B( 25-C , 27-H ) :   0.9475 B( 25-C , 28-C ) :   1.0816
B( 28-C , 29-H ) :   0.9728 B( 28-C , 30-H ) :   0.9772 B( 28-C , 31-H ) :   0.9727

Dispersion correction           -0.014161163
FINAL SINGLE POINT ENERGY     -1339.856037076465

DIPOLE MOMENT
-------------
                                X             Y             Z
Electronic contribution:     -0.10157      20.46216      17.83060
Nuclear contribution   :     -0.02503     -20.81340     -18.04024
                        -----------------------------------------
Total Dipole Moment    :     -0.12661      -0.35125      -0.20964
                        -----------------------------------------
Magnitude (a.u.)       :      0.42820
Magnitude (Debye)      :      1.08839

Rotational constants in cm-1:     0.018163     0.008079     0.006927
Rotational constants in MHz :   544.514213   242.212270   207.659076

                             ****ORCA TERMINATED NORMALLY****
TOTAL RUN TIME: 0 days 0 hours 0 minutes 33 seconds 44 msec
