                         Program Version 4.2.1 -  RELEASE  -
|  1> ! wB97X-D3 SP def2-SVP
|  2> %pal
|  3> nprocs 16
|  4> end
|  5>
|  6> * xyz 0 1
|  7> S 	 6.86573 	 -28.2058 	 84.0393
|  8> C 	 7.90524 	 -29.3784 	 83.2526
|  9> C 	 8.84991 	 -28.6795 	 82.5
| 10> C 	 8.70468 	 -27.2537 	 82.4652
| 11> C 	 7.62498 	 -26.7988 	 83.1878
| 12> H 	 9.32145 	 -26.5723 	 81.8925
| 13> C 	 10.0227 	 -29.4296 	 81.8446
| 14> H 	 9.82321 	 -29.3852 	 80.7431
| 15> H 	 10.1678 	 -30.4617 	 82.0837
| 16> C 	 11.3824 	 -28.7279 	 82.1797
| 17> H 	 11.3592 	 -27.5849 	 82.0299
| 18> H 	 11.6621 	 -28.8083 	 83.2489
| 19> C 	 12.5187 	 -29.3737 	 81.285
| 20> H 	 12.2509 	 -29.3266 	 80.1926
| 21> H 	 13.4791 	 -28.8836 	 81.3065
| 22> H 	 12.5816 	 -30.3924 	 81.592
| 23> S 	 5.18509 	 -25.4835 	 83.0626
| 24> C 	 5.09691 	 -23.7606 	 82.716
| 25> C 	 6.41108 	 -23.2717 	 82.7821
| 26> C 	 7.45472 	 -24.2766 	 82.9682
| 27> C 	 6.91969 	 -25.5325 	 83.1169
| 28> H 	 6.49237 	 -22.1818 	 82.5713
| 29> C 	 8.9698 	 -23.9983 	 82.8927
| 30> H 	 9.20445 	 -23.669 	 81.8952
| 31> H 	 9.56297 	 -24.8296 	 83.171
| 32> C 	 9.48626 	 -22.8482 	 83.7953
| 33> H 	 9.04323 	 -22.8562 	 84.8114
| 34> H 	 9.22304 	 -21.813 	 83.4855
| 35> C 	 10.9861 	 -22.919 	 83.8322
| 36> H 	 11.355 	 -22.1453 	 84.5099
| 37> H 	 11.4313 	 -22.7928 	 82.8583
| 38> H 	 11.3789 	 -23.8984 	 84.1646
| 39> H 	 7.81441 	 -30.4797 	 83.3771
| 40> H 	 4.17933 	 -23.1656 	 82.7897
| 41> *
| 42>
| 43>                          ****END OF INPUT****

CARTESIAN COORDINATES (ANGSTROEM)
---------------------------------
  S      6.865730  -28.205800   84.039300
  C      7.905240  -29.378400   83.252600
  C      8.849910  -28.679500   82.500000
  C      8.704680  -27.253700   82.465200
  C      7.624980  -26.798800   83.187800
  H      9.321450  -26.572300   81.892500
  C     10.022700  -29.429600   81.844600
  H      9.823210  -29.385200   80.743100
  H     10.167800  -30.461700   82.083700
  C     11.382400  -28.727900   82.179700
  H     11.359200  -27.584900   82.029900
  H     11.662100  -28.808300   83.248900
  C     12.518700  -29.373700   81.285000
  H     12.250900  -29.326600   80.192600
  H     13.479100  -28.883600   81.306500
  H     12.581600  -30.392400   81.592000
  S      5.185090  -25.483500   83.062600
  C      5.096910  -23.760600   82.716000
  C      6.411080  -23.271700   82.782100
  C      7.454720  -24.276600   82.968200
  C      6.919690  -25.532500   83.116900
  H      6.492370  -22.181800   82.571300
  C      8.969800  -23.998300   82.892700
  H      9.204450  -23.669000   81.895200
  H      9.562970  -24.829600   83.171000
  C      9.486260  -22.848200   83.795300
  H      9.043230  -22.856200   84.811400
  H      9.223040  -21.813000   83.485500
  C     10.986100  -22.919000   83.832200
  H     11.355000  -22.145300   84.509900
  H     11.431300  -22.792800   82.858300
  H     11.378900  -23.898400   84.164600
  H      7.814410  -30.479700   83.377100
  H      4.179330  -23.165600   82.789700

 Total Charge           Charge          ....    0
 Multiplicity           Mult            ....    1
 Number of Electrons    NEL             ....  134
 Basis Dimension        Dim             ....  322

ORBITAL ENERGIES
----------------

  NO   OCC          E(Eh)            E(eV)
   0   2.0000     -88.963054     -2420.8078
   1   2.0000     -88.962727     -2420.7989
   2   2.0000     -10.336575      -281.2725
   3   2.0000     -10.327606      -281.0284
   4   2.0000     -10.322809      -280.8979
   5   2.0000     -10.320848      -280.8446
   6   2.0000     -10.308282      -280.5026
   7   2.0000     -10.306707      -280.4598
   8   2.0000     -10.304398      -280.3969
   9   2.0000     -10.300429      -280.2889
  10   2.0000     -10.300311      -280.2857
  11   2.0000     -10.298192      -280.2280
  12   2.0000     -10.293294      -280.0948
  13   2.0000     -10.287897      -279.9479
  14   2.0000     -10.281937      -279.7857
  15   2.0000     -10.277172      -279.6561
  16   2.0000      -8.077910      -219.8111
  17   2.0000      -8.076751      -219.7796
  18   2.0000      -6.036526      -164.2622
  19   2.0000      -6.035431      -164.2324
  20   2.0000      -6.032291      -164.1470
  21   2.0000      -6.031276      -164.1194
  22   2.0000      -6.028613      -164.0469
  23   2.0000      -6.027444      -164.0151
  24   2.0000      -1.005014       -27.3478
  25   2.0000      -0.979798       -26.6617
  26   2.0000      -0.912343       -24.8261
  27   2.0000      -0.902594       -24.5608
  28   2.0000      -0.870817       -23.6961
  29   2.0000      -0.849632       -23.1197
  30   2.0000      -0.839225       -22.8365
  31   2.0000      -0.816288       -22.2123
  32   2.0000      -0.779526       -21.2120
  33   2.0000      -0.766623       -20.8609
  34   2.0000      -0.708715       -19.2851
  35   2.0000      -0.701026       -19.0759
  36   2.0000      -0.690538       -18.7905
  37   2.0000      -0.657007       -17.8781
  38   2.0000      -0.641300       -17.4507
  39   2.0000      -0.625434       -17.0189
  40   2.0000      -0.597679       -16.2637
  41   2.0000      -0.569602       -15.4997
  42   2.0000      -0.562055       -15.2943
  43   2.0000      -0.555172       -15.1070
  44   2.0000      -0.532510       -14.4903
  45   2.0000      -0.523628       -14.2486
  46   2.0000      -0.514649       -14.0043
  47   2.0000      -0.511169       -13.9096
  48   2.0000      -0.506342       -13.7783
  49   2.0000      -0.499275       -13.5860
  50   2.0000      -0.495938       -13.4952
  51   2.0000      -0.479419       -13.0457
  52   2.0000      -0.476256       -12.9596
  53   2.0000      -0.472098       -12.8464
  54   2.0000      -0.455324       -12.3900
  55   2.0000      -0.447508       -12.1773
  56   2.0000      -0.443956       -12.0806
  57   2.0000      -0.438415       -11.9299
  58   2.0000      -0.433782       -11.8038
  59   2.0000      -0.422683       -11.5018
  60   2.0000      -0.415978       -11.3193
  61   2.0000      -0.413652       -11.2560
  62   2.0000      -0.402768       -10.9599
  63   2.0000      -0.358381        -9.7520
  64   2.0000      -0.328434        -8.9372
  65   2.0000      -0.325770        -8.8646
  66   2.0000      -0.290053        -7.8927
  67   0.0000       0.020768         0.5651
  68   0.0000       0.076526         2.0824
  69   0.0000       0.109117         2.9692
  70   0.0000       0.118804         3.2328
  71   0.0000       0.131202         3.5702

MULLIKEN ATOMIC CHARGES
-----------------------
   0 S :    0.083073
   1 C :   -0.133536
   2 C :   -0.073888
   3 C :    0.026988
   4 C :   -0.150954
   5 H :    0.023021
   6 C :    0.061167
   7 H :    0.044751
   8 H :    0.019788
   9 C :   -0.139328
  10 H :    0.037056
  11 H :    0.044941
  12 C :   -0.050831
  13 H :    0.033458
  14 H :    0.035558
  15 H :    0.030545
  16 S :    0.100200
  17 C :   -0.117117
  18 C :   -0.055840
  19 C :   -0.039352
  20 C :   -0.111872
  21 H :    0.038036
  22 C :    0.080528
  23 H :    0.034405
  24 H :    0.019236
  25 C :   -0.094612
  26 H :    0.035396
  27 H :    0.025323
  28 C :   -0.043832
  29 H :    0.036384
  30 H :    0.020910
  31 H :    0.028981
  32 H :    0.072421
  33 H :    0.078998
Sum of atomic charges:    0.0000000

LOEWDIN ATOMIC CHARGES
----------------------
   0 S :    0.372110
   1 C :   -0.199120
   2 C :   -0.064515
   3 C :   -0.062310
   4 C :   -0.163271
   5 H :    0.031884
   6 C :   -0.029849
   7 H :    0.036824
   8 H :    0.025171
   9 C :   -0.045735
  10 H :    0.024439
  11 H :    0.027199
  12 C :   -0.068802
  13 H :    0.029681
  14 H :    0.023447
  15 H :    0.020221
  16 S :    0.406523
  17 C :   -0.193588
  18 C :   -0.074401
  19 C :   -0.057751
  20 C :   -0.203104
  21 H :    0.036513
  22 C :   -0.023754
  23 H :    0.033323
  24 H :    0.024433
  25 C :   -0.045028
  26 H :    0.026507
  27 H :    0.023472
  28 C :   -0.065514
  29 H :    0.028798
  30 H :    0.021446
  31 H :    0.024266
  32 H :    0.041535
  33 H :    0.038952

  Mayer bond orders larger than 0.100000
B(  0-S ,  1-C ) :   1.1279 B(  0-S ,  4-C ) :   1.1369 B(  1-C ,  2-C ) :   1.6061
B(  1-C , 32-H ) :   0.9693 B(  2-C ,  3-C ) :   1.2383 B(  2-C ,  6-C ) :   1.0144
B(  3-C ,  4-C ) :   1.5668 B(  3-C ,  5-H ) :   0.9823 B(  4-C , 20-C ) :   1.0638
B(  6-C ,  7-H ) :   0.9417 B(  6-C ,  8-H ) :   0.9557 B(  6-C ,  9-C ) :   1.0400
B(  9-C , 10-H ) :   0.9581 B(  9-C , 11-H ) :   0.9603 B(  9-C , 12-C ) :   1.0657
B( 12-C , 13-H ) :   0.9781 B( 12-C , 14-H ) :   0.9764 B( 12-C , 15-H ) :   0.9770
B( 16-S , 17-C ) :   1.1486 B( 16-S , 20-C ) :   1.1390 B( 17-C , 18-C ) :   1.6121
B( 17-C , 33-H ) :   0.9643 B( 18-C , 19-C ) :   1.2286 B( 18-C , 21-H ) :   0.9836
B( 19-C , 20-C ) :   1.5900 B( 19-C , 22-C ) :   1.0476 B( 22-C , 23-H ) :   0.9291
B( 22-C , 24-H ) :   0.9369 B( 22-C , 25-C ) :   1.0531 B( 25-C , 26-H ) :   0.9585
B( 25-C , 27-H ) :   0.9486 B( 25-C , 28-C ) :   1.0961 B( 28-C , 29-H ) :   0.9715
B( 28-C , 30-H ) :   0.9701 B( 28-C , 31-H ) :   0.9727

Dispersion correction           -0.013505226
FINAL SINGLE POINT ENERGY     -1339.877857608863

DIPOLE MOMENT
-------------
                                X             Y             Z
Electronic contribution:    -31.26705      -4.21134       5.89172
Nuclear contribution   :     31.90545       4.41871      -6.17175
                        -----------------------------------------
Total Dipole Moment    :      0.63840       0.20737      -0.28003
                        -----------------------------------------
Magnitude (a.u.)       :      0.72731
Magnitude (Debye)      :      1.84867

Rotational constants in cm-1:     0.016422     0.009155     0.006368
Rotational constants in MHz :   492.331045   274.464192   190.917352

                             ****ORCA TERMINATED NORMALLY****
TOTAL RUN TIME: 0 days 0 hours 0 minutes 33 seconds 870 msec
