                         Program Version 4.2.1 -  RELEASE  -
|  1> ! wB97X-D3 SP def2-SVP
|  2> %pal
|  3> nprocs 16
|  4> end
|  5>
|  6> * xyz 0 1
|  7> S 	 6.10976 	 -14.09 	 52.767
|  8> C 	 4.4374 	 -14.2309 	 52.2938
|  9> C 	 3.85308 	 -15.3668 	 52.8956
| 10> C 	 4.84078 	 -16.1243 	 53.5703
| 11> C 	 6.09805 	 -15.5443 	 53.6548
| 12> H 	 4.68167 	 -17.1459 	 53.9345
| 13> C 	 2.43977 	 -15.9597 	 52.8452
| 14> H 	 2.44246 	 -17.0683 	 52.6431
| 15> H 	 2.10092 	 -15.3937 	 52.0141
| 16> C 	 1.60499 	 -15.6632 	 54.1831
| 17> H 	 0.565767 	 -15.8772 	 53.838
| 18> H 	 1.90592 	 -16.3797 	 54.916
| 19> C 	 1.66277 	 -14.2227 	 54.6387
| 20> H 	 0.879803 	 -13.9386 	 55.4515
| 21> H 	 2.65575 	 -13.8754 	 54.9077
| 22> H 	 1.34857 	 -13.6524 	 53.7898
| 23> S 	 8.40953 	 -16.978 	 52.8723
| 24> C 	 9.26165 	 -17.8748 	 54.095
| 25> C 	 8.65476 	 -17.7537 	 55.3399
| 26> C 	 7.599 	 -16.7983 	 55.3645
| 27> C 	 7.25245 	 -16.313 	 54.0869
| 28> H 	 9.11753 	 -18.2452 	 56.1461
| 29> C 	 6.77136 	 -16.4214 	 56.6092
| 30> H 	 6.19881 	 -17.3643 	 56.6747
| 31> H 	 6.06084 	 -15.7163 	 56.324
| 32> C 	 7.52536 	 -16.1825 	 57.8991
| 33> H 	 8.1642 	 -15.3517 	 57.7867
| 34> H 	 8.2376 	 -16.9756 	 58.123
| 35> C 	 6.80395 	 -16.1682 	 59.1708
| 36> H 	 6.27934 	 -15.1861 	 59.3679
| 37> H 	 7.40858 	 -16.2809 	 60.0353
| 38> H 	 6.19288 	 -17.0265 	 59.2327
| 39> H 	 3.82016 	 -13.5058 	 51.7736
| 40> H 	 10.198 	 -18.4127 	 54.0895
| 41> *
| 42>
| 43>                          ****END OF INPUT****

CARTESIAN COORDINATES (ANGSTROEM)
---------------------------------
  S      6.109760  -14.090000   52.767000
  C      4.437400  -14.230900   52.293800
  C      3.853080  -15.366800   52.895600
  C      4.840780  -16.124300   53.570300
  C      6.098050  -15.544300   53.654800
  H      4.681670  -17.145900   53.934500
  C      2.439770  -15.959700   52.845200
  H      2.442460  -17.068300   52.643100
  H      2.100920  -15.393700   52.014100
  C      1.604990  -15.663200   54.183100
  H      0.565767  -15.877200   53.838000
  H      1.905920  -16.379700   54.916000
  C      1.662770  -14.222700   54.638700
  H      0.879803  -13.938600   55.451500
  H      2.655750  -13.875400   54.907700
  H      1.348570  -13.652400   53.789800
  S      8.409530  -16.978000   52.872300
  C      9.261650  -17.874800   54.095000
  C      8.654760  -17.753700   55.339900
  C      7.599000  -16.798300   55.364500
  C      7.252450  -16.313000   54.086900
  H      9.117530  -18.245200   56.146100
  C      6.771360  -16.421400   56.609200
  H      6.198810  -17.364300   56.674700
  H      6.060840  -15.716300   56.324000
  C      7.525360  -16.182500   57.899100
  H      8.164200  -15.351700   57.786700
  H      8.237600  -16.975600   58.123000
  C      6.803950  -16.168200   59.170800
  H      6.279340  -15.186100   59.367900
  H      7.408580  -16.280900   60.035300
  H      6.192880  -17.026500   59.232700
  H      3.820160  -13.505800   51.773600
  H     10.198000  -18.412700   54.089500

 Total Charge           Charge          ....    0
 Multiplicity           Mult            ....    1
 Number of Electrons    NEL             ....  134
 Basis Dimension        Dim             ....  322

ORBITAL ENERGIES
----------------

  NO   OCC          E(Eh)            E(eV)
   0   2.0000     -88.971317     -2421.0326
   1   2.0000     -88.964467     -2420.8462
   2   2.0000     -10.326996      -281.0119
   3   2.0000     -10.324105      -280.9332
   4   2.0000     -10.321057      -280.8503
   5   2.0000     -10.315835      -280.7081
   6   2.0000     -10.306525      -280.4548
   7   2.0000     -10.302041      -280.3328
   8   2.0000     -10.299764      -280.2708
   9   2.0000     -10.293134      -280.0904
  10   2.0000     -10.290070      -280.0071
  11   2.0000     -10.287872      -279.9472
  12   2.0000     -10.286779      -279.9175
  13   2.0000     -10.281267      -279.7675
  14   2.0000     -10.275934      -279.6224
  15   2.0000     -10.270391      -279.4716
  16   2.0000      -8.086424      -220.0428
  17   2.0000      -8.078249      -219.8203
  18   2.0000      -6.044884      -164.4897
  19   2.0000      -6.040683      -164.3753
  20   2.0000      -6.037389      -164.2857
  21   2.0000      -6.036793      -164.2695
  22   2.0000      -6.032862      -164.1625
  23   2.0000      -6.029047      -164.0587
  24   2.0000      -1.007197       -27.4072
  25   2.0000      -0.980496       -26.6807
  26   2.0000      -0.915409       -24.9095
  27   2.0000      -0.909444       -24.7472
  28   2.0000      -0.868913       -23.6443
  29   2.0000      -0.854987       -23.2654
  30   2.0000      -0.848202       -23.0808
  31   2.0000      -0.811844       -22.0914
  32   2.0000      -0.783976       -21.3331
  33   2.0000      -0.773928       -21.0597
  34   2.0000      -0.708149       -19.2697
  35   2.0000      -0.702149       -19.1064
  36   2.0000      -0.698436       -19.0054
  37   2.0000      -0.651111       -17.7176
  38   2.0000      -0.637875       -17.3575
  39   2.0000      -0.618678       -16.8351
  40   2.0000      -0.590343       -16.0640
  41   2.0000      -0.571814       -15.5598
  42   2.0000      -0.568102       -15.4588
  43   2.0000      -0.553963       -15.0741
  44   2.0000      -0.542100       -14.7513
  45   2.0000      -0.528558       -14.3828
  46   2.0000      -0.521559       -14.1924
  47   2.0000      -0.515737       -14.0339
  48   2.0000      -0.508726       -13.8431
  49   2.0000      -0.504445       -13.7267
  50   2.0000      -0.485936       -13.2230
  51   2.0000      -0.478709       -13.0263
  52   2.0000      -0.469089       -12.7646
  53   2.0000      -0.464976       -12.6526
  54   2.0000      -0.455556       -12.3963
  55   2.0000      -0.450506       -12.2589
  56   2.0000      -0.449510       -12.2318
  57   2.0000      -0.436164       -11.8686
  58   2.0000      -0.428603       -11.6629
  59   2.0000      -0.426868       -11.6157
  60   2.0000      -0.418024       -11.3750
  61   2.0000      -0.411675       -11.2023
  62   2.0000      -0.407936       -11.1005
  63   2.0000      -0.337840        -9.1931
  64   2.0000      -0.326906        -8.8956
  65   2.0000      -0.325906        -8.8684
  66   2.0000      -0.298634        -8.1263
  67   0.0000       0.032288         0.8786
  68   0.0000       0.063201         1.7198
  69   0.0000       0.117927         3.2090
  70   0.0000       0.126099         3.4313
  71   0.0000       0.127881         3.4798

MULLIKEN ATOMIC CHARGES
-----------------------
   0 S :    0.132103
   1 C :   -0.119130
   2 C :   -0.123642
   3 C :    0.016368
   4 C :   -0.174664
   5 H :    0.022707
   6 C :    0.050917
   7 H :    0.054583
   8 H :    0.009138
   9 C :   -0.061245
  10 H :    0.038670
  11 H :    0.033014
  12 C :   -0.061355
  13 H :    0.050181
  14 H :    0.052197
  15 H :    0.013352
  16 S :    0.113249
  17 C :   -0.082681
  18 C :   -0.043054
  19 C :   -0.051367
  20 C :   -0.160997
  21 H :    0.002806
  22 C :    0.128562
  23 H :    0.027725
  24 H :    0.012442
  25 C :   -0.054543
  26 H :    0.016660
  27 H :    0.012335
  28 C :   -0.018350
  29 H :    0.034383
  30 H :    0.014935
  31 H :    0.013008
  32 H :    0.048367
  33 H :    0.053327
Sum of atomic charges:    0.0000000

LOEWDIN ATOMIC CHARGES
----------------------
   0 S :    0.442190
   1 C :   -0.207360
   2 C :   -0.067168
   3 C :   -0.056980
   4 C :   -0.229182
   5 H :    0.032578
   6 C :   -0.028882
   7 H :    0.041912
   8 H :    0.021440
   9 C :   -0.035208
  10 H :    0.030957
  11 H :    0.017628
  12 C :   -0.072567
  13 H :    0.039429
  14 H :    0.026172
  15 H :    0.020409
  16 S :    0.389656
  17 C :   -0.187282
  18 C :   -0.076338
  19 C :   -0.042887
  20 C :   -0.194857
  21 H :    0.021985
  22 C :   -0.022795
  23 H :    0.039221
  24 H :    0.020691
  25 C :   -0.047269
  26 H :    0.020401
  27 H :    0.028214
  28 C :   -0.060461
  29 H :    0.029034
  30 H :    0.023126
  31 H :    0.020509
  32 H :    0.029425
  33 H :    0.034258

  Mayer bond orders larger than 0.100000
B(  0-S ,  1-C ) :   1.1604 B(  0-S ,  4-C ) :   1.1638 B(  1-C ,  2-C ) :   1.5666
B(  1-C , 32-H ) :   0.9644 B(  2-C ,  3-C ) :   1.2791 B(  2-C ,  6-C ) :   1.0090
B(  3-C ,  4-C ) :   1.5327 B(  3-C ,  5-H ) :   0.9886 B(  4-C , 20-C ) :   1.0423
B(  6-C ,  7-H ) :   0.9506 B(  6-C ,  8-H ) :   0.9357 B(  6-C ,  9-C ) :   1.0531
B(  9-C , 10-H ) :   0.9588 B(  9-C , 11-H ) :   0.9594 B(  9-C , 12-C ) :   1.0793
B( 12-C , 13-H ) :   0.9715 B( 12-C , 14-H ) :   0.9695 B( 12-C , 15-H ) :   0.9728
B( 16-S , 17-C ) :   1.1594 B( 16-S , 20-C ) :   1.1187 B( 17-C , 18-C ) :   1.6229
B( 17-C , 20-C ) :   0.1016 B( 17-C , 33-H ) :   0.9618 B( 18-C , 19-C ) :   1.2430
B( 18-C , 21-H ) :   0.9910 B( 19-C , 20-C ) :   1.5892 B( 19-C , 22-C ) :   1.0334
B( 22-C , 23-H ) :   0.9274 B( 22-C , 24-H ) :   0.9300 B( 22-C , 25-C ) :   1.0582
B( 25-C , 26-H ) :   0.9533 B( 25-C , 27-H ) :   0.9487 B( 25-C , 28-C ) :   1.1007
B( 28-C , 29-H ) :   0.9706 B( 28-C , 30-H ) :   0.9705 B( 28-C , 31-H ) :   0.9681

Dispersion correction           -0.014306656
FINAL SINGLE POINT ENERGY     -1339.854088234320

DIPOLE MOMENT
-------------
                                X             Y             Z
Electronic contribution:     18.06469       0.75314     -21.39258
Nuclear contribution   :    -18.49128      -1.00604      21.84507
                        -----------------------------------------
Total Dipole Moment    :     -0.42659      -0.25290       0.45250
                        -----------------------------------------
Magnitude (a.u.)       :      0.67134
Magnitude (Debye)      :      1.70640

Rotational constants in cm-1:     0.016661     0.009124     0.006809
Rotational constants in MHz :   499.486000   273.540246   204.140622

                             ****ORCA TERMINATED NORMALLY****
TOTAL RUN TIME: 0 days 0 hours 0 minutes 29 seconds 979 msec
