                         Program Version 4.2.1 -  RELEASE  -
|  1> ! wB97X-D3 SP def2-SVP
|  2> %pal
|  3> nprocs 16
|  4> end
|  5>
|  6> * xyz 0 1
|  7> S 	 15.3186 	 8.33276 	 88.6916
|  8> C 	 16.4963 	 7.06868 	 88.4994
|  9> C 	 15.8533 	 5.8735 	 88.1611
| 10> C 	 14.449 	 5.99099 	 88.0492
| 11> C 	 13.9677 	 7.16938 	 88.5003
| 12> H 	 13.6822 	 5.28335 	 87.7314
| 13> C 	 16.6481 	 4.61493 	 87.8493
| 14> H 	 16.2931 	 4.22261 	 86.9198
| 15> H 	 16.4775 	 3.85702 	 88.5577
| 16> C 	 18.1739 	 4.87048 	 87.7038
| 17> H 	 18.2999 	 5.44212 	 86.7906
| 18> H 	 18.5761 	 5.51727 	 88.5074
| 19> C 	 19.0584 	 3.53592 	 87.6661
| 20> H 	 18.7238 	 2.93928 	 86.7611
| 21> H 	 20.0783 	 3.86457 	 87.45
| 22> H 	 19.0145 	 3.0411 	 88.6318
| 23> S 	 11.8179 	 7.82979 	 86.8943
| 24> C 	 10.2425 	 7.92792 	 87.4977
| 25> C 	 10.2586 	 7.63086 	 88.8327
| 26> C 	 11.5653 	 7.20963 	 89.3237
| 27> C 	 12.5623 	 7.4967 	 88.4298
| 28> H 	 9.26224 	 7.62783 	 89.3731
| 29> C 	 11.8076 	 6.66731 	 90.7106
| 30> H 	 11.9036 	 7.59473 	 91.3794
| 31> H 	 12.8053 	 6.23981 	 90.6981
| 32> C 	 10.7188 	 5.60053 	 91.1668
| 33> H 	 10.3869 	 4.99869 	 90.2468
| 34> H 	 9.88058 	 6.1714 	 91.4065
| 35> C 	 11.0033 	 4.64742 	 92.3129
| 36> H 	 11.8001 	 4.00292 	 92.1906
| 37> H 	 10.0757 	 4.14221 	 92.5471
| 38> H 	 11.2208 	 5.39248 	 93.0239
| 39> H 	 17.5232 	 7.23891 	 88.6617
| 40> H 	 9.33964 	 8.41868 	 87.0432
| 41> *
| 42>
| 43>                          ****END OF INPUT****

CARTESIAN COORDINATES (ANGSTROEM)
---------------------------------
  S     15.318600    8.332760   88.691600
  C     16.496300    7.068680   88.499400
  C     15.853300    5.873500   88.161100
  C     14.449000    5.990990   88.049200
  C     13.967700    7.169380   88.500300
  H     13.682200    5.283350   87.731400
  C     16.648100    4.614930   87.849300
  H     16.293100    4.222610   86.919800
  H     16.477500    3.857020   88.557700
  C     18.173900    4.870480   87.703800
  H     18.299900    5.442120   86.790600
  H     18.576100    5.517270   88.507400
  C     19.058400    3.535920   87.666100
  H     18.723800    2.939280   86.761100
  H     20.078300    3.864570   87.450000
  H     19.014500    3.041100   88.631800
  S     11.817900    7.829790   86.894300
  C     10.242500    7.927920   87.497700
  C     10.258600    7.630860   88.832700
  C     11.565300    7.209630   89.323700
  C     12.562300    7.496700   88.429800
  H      9.262240    7.627830   89.373100
  C     11.807600    6.667310   90.710600
  H     11.903600    7.594730   91.379400
  H     12.805300    6.239810   90.698100
  C     10.718800    5.600530   91.166800
  H     10.386900    4.998690   90.246800
  H      9.880580    6.171400   91.406500
  C     11.003300    4.647420   92.312900
  H     11.800100    4.002920   92.190600
  H     10.075700    4.142210   92.547100
  H     11.220800    5.392480   93.023900
  H     17.523200    7.238910   88.661700
  H      9.339640    8.418680   87.043200

 Total Charge           Charge          ....    0
 Multiplicity           Mult            ....    1
 Number of Electrons    NEL             ....  134
 Basis Dimension        Dim             ....  322

ORBITAL ENERGIES
----------------

  NO   OCC          E(Eh)            E(eV)
   0   2.0000     -88.963316     -2420.8149
   1   2.0000     -88.958376     -2420.6805
   2   2.0000     -10.324343      -280.9397
   3   2.0000     -10.317704      -280.7590
   4   2.0000     -10.313298      -280.6391
   5   2.0000     -10.313123      -280.6343
   6   2.0000     -10.302914      -280.3566
   7   2.0000     -10.302705      -280.3509
   8   2.0000     -10.295620      -280.1581
   9   2.0000     -10.294698      -280.1330
  10   2.0000     -10.292345      -280.0689
  11   2.0000     -10.291670      -280.0506
  12   2.0000     -10.289015      -279.9783
  13   2.0000     -10.287219      -279.9295
  14   2.0000     -10.286544      -279.9111
  15   2.0000     -10.267699      -279.3983
  16   2.0000      -8.077693      -219.8052
  17   2.0000      -8.074570      -219.7202
  18   2.0000      -6.036243      -164.2545
  19   2.0000      -6.033147      -164.1703
  20   2.0000      -6.032260      -164.1461
  21   2.0000      -6.028777      -164.0514
  22   2.0000      -6.028424      -164.0417
  23   2.0000      -6.025236      -163.9550
  24   2.0000      -1.011891       -27.5350
  25   2.0000      -0.988206       -26.8904
  26   2.0000      -0.907171       -24.6854
  27   2.0000      -0.904258       -24.6061
  28   2.0000      -0.874225       -23.7889
  29   2.0000      -0.852803       -23.2060
  30   2.0000      -0.845447       -23.0058
  31   2.0000      -0.814510       -22.1639
  32   2.0000      -0.780496       -21.2384
  33   2.0000      -0.768179       -20.9032
  34   2.0000      -0.714201       -19.4344
  35   2.0000      -0.700486       -19.0612
  36   2.0000      -0.690575       -18.7915
  37   2.0000      -0.650995       -17.7145
  38   2.0000      -0.641804       -17.4644
  39   2.0000      -0.609535       -16.5863
  40   2.0000      -0.589515       -16.0415
  41   2.0000      -0.572553       -15.5800
  42   2.0000      -0.565415       -15.3857
  43   2.0000      -0.564262       -15.3544
  44   2.0000      -0.531219       -14.4552
  45   2.0000      -0.528727       -14.3874
  46   2.0000      -0.521983       -14.2039
  47   2.0000      -0.511006       -13.9052
  48   2.0000      -0.508673       -13.8417
  49   2.0000      -0.506548       -13.7839
  50   2.0000      -0.493519       -13.4293
  51   2.0000      -0.485056       -13.1990
  52   2.0000      -0.467661       -12.7257
  53   2.0000      -0.463073       -12.6009
  54   2.0000      -0.459226       -12.4962
  55   2.0000      -0.449448       -12.2301
  56   2.0000      -0.437068       -11.8932
  57   2.0000      -0.432325       -11.7642
  58   2.0000      -0.428844       -11.6694
  59   2.0000      -0.424313       -11.5462
  60   2.0000      -0.418835       -11.3971
  61   2.0000      -0.417464       -11.3598
  62   2.0000      -0.406277       -11.0554
  63   2.0000      -0.337647        -9.1878
  64   2.0000      -0.323583        -8.8052
  65   2.0000      -0.319399        -8.6913
  66   2.0000      -0.313424        -8.5287
  67   0.0000       0.045155         1.2287
  68   0.0000       0.054630         1.4865
  69   0.0000       0.115867         3.1529
  70   0.0000       0.121845         3.3156
  71   0.0000       0.139581         3.7982

MULLIKEN ATOMIC CHARGES
-----------------------
   0 S :    0.105608
   1 C :   -0.114188
   2 C :   -0.084816
   3 C :    0.024552
   4 C :   -0.178054
   5 H :    0.026765
   6 C :    0.136651
   7 H :    0.018602
   8 H :    0.019278
   9 C :   -0.160142
  10 H :    0.033717
  11 H :    0.038672
  12 C :   -0.051289
  13 H :    0.045580
  14 H :    0.035513
  15 H :    0.049226
  16 S :    0.109739
  17 C :   -0.104225
  18 C :   -0.061590
  19 C :   -0.073696
  20 C :   -0.156203
  21 H :    0.041326
  22 C :    0.067678
  23 H :    0.056611
  24 H :    0.025003
  25 C :   -0.133272
  26 H :    0.037740
  27 H :    0.018335
  28 C :    0.027049
  29 H :    0.026457
  30 H :    0.035769
  31 H :    0.018170
  32 H :    0.039595
  33 H :    0.079838
Sum of atomic charges:    0.0000000

LOEWDIN ATOMIC CHARGES
----------------------
   0 S :    0.391635
   1 C :   -0.190238
   2 C :   -0.061745
   3 C :   -0.054200
   4 C :   -0.189357
   5 H :    0.039671
   6 C :   -0.025730
   7 H :    0.029953
   8 H :    0.022779
   9 C :   -0.042781
  10 H :    0.022708
  11 H :    0.020618
  12 C :   -0.065965
  13 H :    0.033209
  14 H :    0.026887
  15 H :    0.025978
  16 S :    0.427280
  17 C :   -0.218014
  18 C :   -0.088135
  19 C :   -0.052490
  20 C :   -0.214187
  21 H :    0.039719
  22 C :   -0.038156
  23 H :    0.044815
  24 H :    0.026774
  25 C :   -0.040135
  26 H :    0.026918
  27 H :    0.013388
  28 C :   -0.050342
  29 H :    0.014965
  30 H :    0.032013
  31 H :    0.025001
  32 H :    0.018742
  33 H :    0.048421

  Mayer bond orders larger than 0.100000
B(  0-S ,  1-C ) :   1.1436 B(  0-S ,  4-C ) :   1.1283 B(  1-C ,  2-C ) :   1.6010
B(  1-C , 32-H ) :   0.9703 B(  2-C ,  3-C ) :   1.2257 B(  2-C ,  6-C ) :   1.0114
B(  3-C ,  4-C ) :   1.6037 B(  3-C ,  5-H ) :   0.9986 B(  4-C , 20-C ) :   1.0213
B(  6-C ,  7-H ) :   0.9341 B(  6-C ,  8-H ) :   0.9345 B(  6-C ,  9-C ) :   1.0751
B(  9-C , 10-H ) :   0.9587 B(  9-C , 11-H ) :   0.9508 B(  9-C , 12-C ) :   1.0752
B( 12-C , 13-H ) :   0.9758 B( 12-C , 14-H ) :   0.9749 B( 12-C , 15-H ) :   0.9774
B( 16-S , 17-C ) :   1.1699 B( 16-S , 20-C ) :   1.1376 B( 17-C , 18-C ) :   1.6266
B( 17-C , 33-H ) :   0.9549 B( 18-C , 19-C ) :   1.2185 B( 18-C , 21-H ) :   0.9793
B( 19-C , 20-C ) :   1.6078 B( 19-C , 22-C ) :   1.0553 B( 22-C , 23-H ) :   0.9348
B( 22-C , 24-H ) :   0.9298 B( 22-C , 25-C ) :   1.0325 B( 25-C , 26-H ) :   0.9636
B( 25-C , 27-H ) :   0.9540 B( 25-C , 28-C ) :   1.0805 B( 28-C , 29-H ) :   0.9784
B( 28-C , 30-H ) :   0.9707 B( 28-C , 31-H ) :   0.9730

Dispersion correction           -0.013567583
FINAL SINGLE POINT ENERGY     -1339.856845676577

DIPOLE MOMENT
-------------
                                X             Y             Z
Electronic contribution:     -7.40154      20.88699     -11.23266
Nuclear contribution   :      7.37465     -21.39863      11.47102
                        -----------------------------------------
Total Dipole Moment    :     -0.02689      -0.51164       0.23837
                        -----------------------------------------
Magnitude (a.u.)       :      0.56508
Magnitude (Debye)      :      1.43631

Rotational constants in cm-1:     0.019364     0.007291     0.006118
Rotational constants in MHz :   580.513638   218.583927   183.419207

                             ****ORCA TERMINATED NORMALLY****
TOTAL RUN TIME: 0 days 0 hours 0 minutes 31 seconds 566 msec
