                         Program Version 4.2.1 -  RELEASE  -
|  1> ! wB97X-D3 SP def2-SVP
|  2> %pal
|  3> nprocs 16
|  4> end
|  5>
|  6> * xyz 0 1
|  7> S 	 35.5657 	 20.0036 	 50.2774
|  8> C 	 34.7961 	 21.0492 	 51.4285
|  9> C 	 33.732 	 20.4453 	 52.1117
| 10> C 	 33.5933 	 19.0985 	 51.7486
| 11> C 	 34.5682 	 18.7095 	 50.8365
| 12> H 	 32.7688 	 18.3994 	 52.1113
| 13> C 	 32.8061 	 21.08 	 53.1932
| 14> H 	 33.118 	 22.1255 	 53.2586
| 15> H 	 32.9015 	 20.6439 	 54.2144
| 16> C 	 31.3065 	 21.0964 	 52.7572
| 17> H 	 31.3203 	 21.3094 	 51.651
| 18> H 	 30.8244 	 20.093 	 52.9091
| 19> C 	 30.4696 	 22.1991 	 53.4185
| 20> H 	 30.5612 	 22.3384 	 54.5128
| 21> H 	 30.6827 	 23.2288 	 53.2085
| 22> H 	 29.418 	 21.95 	 53.2601
| 23> S 	 34.7228 	 17.1164 	 48.4615
| 24> C 	 35.0984 	 15.5124 	 48.6107
| 25> C 	 35.078 	 15.0935 	 49.9385
| 26> C 	 34.7497 	 16.1438 	 50.8738
| 27> C 	 34.6766 	 17.3823 	 50.2491
| 28> H 	 35.1359 	 14.0152 	 50.0591
| 29> C 	 34.729 	 15.9484 	 52.3281
| 30> H 	 34.8585 	 14.8228 	 52.516
| 31> H 	 33.8031 	 16.073 	 52.8151
| 32> C 	 35.7599 	 16.7193 	 53.1943
| 33> H 	 35.6594 	 17.8239 	 53.2421
| 34> H 	 36.6966 	 16.4906 	 52.6869
| 35> C 	 35.7969 	 16.166 	 54.6071
| 36> H 	 35.8338 	 15.086 	 54.6682
| 37> H 	 34.8538 	 16.476 	 54.9423
| 38> H 	 36.6345 	 16.5653 	 55.1327
| 39> H 	 35.103 	 22.0456 	 51.6721
| 40> H 	 35.2809 	 14.7666 	 47.8339
| 41> *
| 42>
| 43>                          ****END OF INPUT****

CARTESIAN COORDINATES (ANGSTROEM)
---------------------------------
  S     35.565700   20.003600   50.277400
  C     34.796100   21.049200   51.428500
  C     33.732000   20.445300   52.111700
  C     33.593300   19.098500   51.748600
  C     34.568200   18.709500   50.836500
  H     32.768800   18.399400   52.111300
  C     32.806100   21.080000   53.193200
  H     33.118000   22.125500   53.258600
  H     32.901500   20.643900   54.214400
  C     31.306500   21.096400   52.757200
  H     31.320300   21.309400   51.651000
  H     30.824400   20.093000   52.909100
  C     30.469600   22.199100   53.418500
  H     30.561200   22.338400   54.512800
  H     30.682700   23.228800   53.208500
  H     29.418000   21.950000   53.260100
  S     34.722800   17.116400   48.461500
  C     35.098400   15.512400   48.610700
  C     35.078000   15.093500   49.938500
  C     34.749700   16.143800   50.873800
  C     34.676600   17.382300   50.249100
  H     35.135900   14.015200   50.059100
  C     34.729000   15.948400   52.328100
  H     34.858500   14.822800   52.516000
  H     33.803100   16.073000   52.815100
  C     35.759900   16.719300   53.194300
  H     35.659400   17.823900   53.242100
  H     36.696600   16.490600   52.686900
  C     35.796900   16.166000   54.607100
  H     35.833800   15.086000   54.668200
  H     34.853800   16.476000   54.942300
  H     36.634500   16.565300   55.132700
  H     35.103000   22.045600   51.672100
  H     35.280900   14.766600   47.833900

 Total Charge           Charge          ....    0
 Multiplicity           Mult            ....    1
 Number of Electrons    NEL             ....  134
 Basis Dimension        Dim             ....  322

ORBITAL ENERGIES
----------------

  NO   OCC          E(Eh)            E(eV)
   0   2.0000     -88.974263     -2421.1128
   1   2.0000     -88.963976     -2420.8329
   2   2.0000     -10.327955      -281.0379
   3   2.0000     -10.324919      -280.9553
   4   2.0000     -10.314394      -280.6689
   5   2.0000     -10.310346      -280.5588
   6   2.0000     -10.303439      -280.3708
   7   2.0000     -10.301568      -280.3199
   8   2.0000     -10.300675      -280.2956
   9   2.0000     -10.298440      -280.2348
  10   2.0000     -10.297121      -280.1989
  11   2.0000     -10.290247      -280.0118
  12   2.0000     -10.287389      -279.9341
  13   2.0000     -10.279850      -279.7289
  14   2.0000     -10.279261      -279.7129
  15   2.0000     -10.265833      -279.3475
  16   2.0000      -8.089197      -220.1182
  17   2.0000      -8.079581      -219.8566
  18   2.0000      -6.047546      -164.5621
  19   2.0000      -6.043720      -164.4580
  20   2.0000      -6.040073      -164.3587
  21   2.0000      -6.037988      -164.3020
  22   2.0000      -6.033874      -164.1900
  23   2.0000      -6.030486      -164.0979
  24   2.0000      -1.009665       -27.4744
  25   2.0000      -0.988282       -26.8925
  26   2.0000      -0.913025       -24.8447
  27   2.0000      -0.905886       -24.6504
  28   2.0000      -0.867812       -23.6144
  29   2.0000      -0.856235       -23.2993
  30   2.0000      -0.848673       -23.0936
  31   2.0000      -0.808606       -22.0033
  32   2.0000      -0.784399       -21.3446
  33   2.0000      -0.771433       -20.9918
  34   2.0000      -0.708259       -19.2727
  35   2.0000      -0.696616       -18.9559
  36   2.0000      -0.687666       -18.7123
  37   2.0000      -0.654819       -17.8185
  38   2.0000      -0.636644       -17.3240
  39   2.0000      -0.622897       -16.9499
  40   2.0000      -0.599906       -16.3243
  41   2.0000      -0.568687       -15.4748
  42   2.0000      -0.563734       -15.3400
  43   2.0000      -0.559804       -15.2330
  44   2.0000      -0.526790       -14.3347
  45   2.0000      -0.524304       -14.2670
  46   2.0000      -0.516381       -14.0514
  47   2.0000      -0.508002       -13.8234
  48   2.0000      -0.501185       -13.6379
  49   2.0000      -0.496289       -13.5047
  50   2.0000      -0.492937       -13.4135
  51   2.0000      -0.477276       -12.9873
  52   2.0000      -0.476370       -12.9627
  53   2.0000      -0.465060       -12.6549
  54   2.0000      -0.460268       -12.5245
  55   2.0000      -0.454820       -12.3763
  56   2.0000      -0.439572       -11.9614
  57   2.0000      -0.435098       -11.8396
  58   2.0000      -0.431313       -11.7366
  59   2.0000      -0.426690       -11.6108
  60   2.0000      -0.415755       -11.3133
  61   2.0000      -0.414233       -11.2718
  62   2.0000      -0.410216       -11.1625
  63   2.0000      -0.345133        -9.3915
  64   2.0000      -0.338031        -9.1983
  65   2.0000      -0.325764        -8.8645
  66   2.0000      -0.287248        -7.8164
  67   0.0000       0.028423         0.7734
  68   0.0000       0.069738         1.8977
  69   0.0000       0.114551         3.1171
  70   0.0000       0.118862         3.2344
  71   0.0000       0.130000         3.5375

MULLIKEN ATOMIC CHARGES
-----------------------
   0 S :    0.145133
   1 C :   -0.111140
   2 C :   -0.093410
   3 C :   -0.003758
   4 C :   -0.177866
   5 H :    0.045904
   6 C :    0.071629
   7 H :    0.009752
   8 H :    0.050735
   9 C :   -0.110326
  10 H :    0.051592
  11 H :    0.045469
  12 C :   -0.053451
  13 H :    0.018132
  14 H :    0.026548
  15 H :    0.039779
  16 S :    0.119187
  17 C :   -0.091782
  18 C :   -0.060428
  19 C :    0.025986
  20 C :   -0.161022
  21 H :    0.017648
  22 C :    0.023328
  23 H :    0.016976
  24 H :    0.005803
  25 C :   -0.092879
  26 H :    0.058807
  27 H :    0.022573
  28 C :    0.003007
  29 H :    0.019663
  30 H :    0.009295
  31 H :    0.034867
  32 H :    0.033553
  33 H :    0.060697
Sum of atomic charges:   -0.0000000

LOEWDIN ATOMIC CHARGES
----------------------
   0 S :    0.438727
   1 C :   -0.205389
   2 C :   -0.064613
   3 C :   -0.066696
   4 C :   -0.201643
   5 H :    0.046583
   6 C :   -0.032065
   7 H :    0.026295
   8 H :    0.035027
   9 C :   -0.046236
  10 H :    0.035572
  11 H :    0.028192
  12 C :   -0.078739
  13 H :    0.026448
  14 H :    0.023490
  15 H :    0.030918
  16 S :    0.420020
  17 C :   -0.219396
  18 C :   -0.083071
  19 C :   -0.055183
  20 C :   -0.188160
  21 H :    0.030641
  22 C :   -0.041932
  23 H :    0.039164
  24 H :    0.018421
  25 C :   -0.036687
  26 H :    0.031294
  27 H :    0.019485
  28 C :   -0.054320
  29 H :    0.021559
  30 H :    0.017608
  31 H :    0.025497
  32 H :    0.021758
  33 H :    0.037430

  Mayer bond orders larger than 0.100000
B(  0-S ,  1-C ) :   1.1464 B(  0-S ,  4-C ) :   1.1710 B(  1-C ,  2-C ) :   1.5995
B(  1-C ,  4-C ) :   0.1013 B(  1-C , 32-H ) :   0.9652 B(  2-C ,  3-C ) :   1.2631
B(  2-C ,  6-C ) :   1.0230 B(  3-C ,  4-C ) :   1.5434 B(  3-C ,  5-H ) :   0.9841
B(  4-C , 20-C ) :   1.0667 B(  6-C ,  7-H ) :   0.9415 B(  6-C ,  8-H ) :   0.9436
B(  6-C ,  9-C ) :   1.0496 B(  9-C , 10-H ) :   0.9580 B(  9-C , 11-H ) :   0.9557
B(  9-C , 12-C ) :   1.0800 B( 12-C , 13-H ) :   0.9714 B( 12-C , 14-H ) :   0.9733
B( 12-C , 15-H ) :   0.9753 B( 16-S , 17-C ) :   1.1802 B( 16-S , 20-C ) :   1.1313
B( 17-C , 18-C ) :   1.6021 B( 17-C , 33-H ) :   0.9601 B( 18-C , 19-C ) :   1.2467
B( 18-C , 21-H ) :   0.9874 B( 19-C , 20-C ) :   1.5683 B( 19-C , 22-C ) :   1.0634
B( 22-C , 23-H ) :   0.9331 B( 22-C , 24-H ) :   0.9214 B( 22-C , 25-C ) :   1.0521
B( 25-C , 26-H ) :   0.9509 B( 25-C , 27-H ) :   0.9577 B( 25-C , 28-C ) :   1.0780
B( 28-C , 29-H ) :   0.9741 B( 28-C , 30-H ) :   0.9763 B( 28-C , 31-H ) :   0.9728

Dispersion correction           -0.014502885
FINAL SINGLE POINT ENERGY     -1339.868552288588

DIPOLE MOMENT
-------------
                                X             Y             Z
Electronic contribution:     11.35744      -2.75922     -25.93693
Nuclear contribution   :    -11.63112       2.73097      26.46094
                        -----------------------------------------
Total Dipole Moment    :     -0.27368      -0.02825       0.52401
                        -----------------------------------------
Magnitude (a.u.)       :      0.59185
Magnitude (Debye)      :      1.50436

Rotational constants in cm-1:     0.018398     0.008430     0.007064
Rotational constants in MHz :   551.572882   252.726738   211.766906

                             ****ORCA TERMINATED NORMALLY****
TOTAL RUN TIME: 0 days 0 hours 0 minutes 32 seconds 930 msec
