                         Program Version 4.2.1 -  RELEASE  -
|  1> ! wB97X-D3 SP def2-SVP
|  2> %pal
|  3> nprocs 16
|  4> end
|  5>
|  6> * xyz 0 1
|  7> S 	 -1.38828 	 -8.28926 	 83.2828
|  8> C 	 -3.10983 	 -8.24695 	 82.8854
|  9> C 	 -3.89141 	 -8.89884 	 83.8391
| 10> C 	 -3.15978 	 -9.17591 	 85.0815
| 11> C 	 -1.8249 	 -8.72381 	 84.9478
| 12> H 	 -3.50503 	 -9.61615 	 86.0388
| 13> C 	 -5.40585 	 -9.167 	 83.7302
| 14> H 	 -5.84049 	 -8.34064 	 83.1436
| 15> H 	 -5.85419 	 -9.12122 	 84.7811
| 16> C 	 -5.70829 	 -10.5366 	 83.1285
| 17> H 	 -6.72781 	 -10.747 	 83.2202
| 18> H 	 -5.41116 	 -10.5225 	 82.1017
| 19> C 	 -5.07483 	 -11.6786 	 83.9157
| 20> H 	 -5.2722 	 -11.5751 	 85.0037
| 21> H 	 -5.48314 	 -12.593 	 83.5972
| 22> H 	 -4.00843 	 -11.8147 	 83.8088
| 23> S 	 0.771325 	 -9.50229 	 85.43
| 24> C 	 1.33549 	 -9.64383 	 87.0498
| 25> C 	 0.617477 	 -8.82191 	 87.8867
| 26> C 	 -0.66366 	 -8.42428 	 87.3248
| 27> C 	 -0.719085 	 -8.71618 	 85.9395
| 28> H 	 1.02493 	 -8.78925 	 88.8544
| 29> C 	 -1.69653 	 -7.77611 	 88.2457
| 30> H 	 -1.52852 	 -7.95366 	 89.3967
| 31> H 	 -2.60707 	 -8.42198 	 88.0437
| 32> C 	 -2.01853 	 -6.28419 	 87.9955
| 33> H 	 -2.99054 	 -6.14033 	 88.5933
| 34> H 	 -2.29154 	 -6.11051 	 86.9329
| 35> C 	 -0.967432 	 -5.3323 	 88.6913
| 36> H 	 -0.0202835 	 -5.59439 	 88.2531
| 37> H 	 -1.0044 	 -5.58879 	 89.7383
| 38> H 	 -1.28648 	 -4.3259 	 88.3915
| 39> H 	 -3.45372 	 -7.9871 	 81.8973
| 40> H 	 2.23965 	 -10.1411 	 87.4296
| 41> *
| 42>
| 43>                          ****END OF INPUT****

CARTESIAN COORDINATES (ANGSTROEM)
---------------------------------
  S     -1.388280   -8.289260   83.282800
  C     -3.109830   -8.246950   82.885400
  C     -3.891410   -8.898840   83.839100
  C     -3.159780   -9.175910   85.081500
  C     -1.824900   -8.723810   84.947800
  H     -3.505030   -9.616150   86.038800
  C     -5.405850   -9.167000   83.730200
  H     -5.840490   -8.340640   83.143600
  H     -5.854190   -9.121220   84.781100
  C     -5.708290  -10.536600   83.128500
  H     -6.727810  -10.747000   83.220200
  H     -5.411160  -10.522500   82.101700
  C     -5.074830  -11.678600   83.915700
  H     -5.272200  -11.575100   85.003700
  H     -5.483140  -12.593000   83.597200
  H     -4.008430  -11.814700   83.808800
  S      0.771325   -9.502290   85.430000
  C      1.335490   -9.643830   87.049800
  C      0.617477   -8.821910   87.886700
  C     -0.663660   -8.424280   87.324800
  C     -0.719085   -8.716180   85.939500
  H      1.024930   -8.789250   88.854400
  C     -1.696530   -7.776110   88.245700
  H     -1.528520   -7.953660   89.396700
  H     -2.607070   -8.421980   88.043700
  C     -2.018530   -6.284190   87.995500
  H     -2.990540   -6.140330   88.593300
  H     -2.291540   -6.110510   86.932900
  C     -0.967432   -5.332300   88.691300
  H     -0.020283   -5.594390   88.253100
  H     -1.004400   -5.588790   89.738300
  H     -1.286480   -4.325900   88.391500
  H     -3.453720   -7.987100   81.897300
  H      2.239650  -10.141100   87.429600

 Total Charge           Charge          ....    0
 Multiplicity           Mult            ....    1
 Number of Electrons    NEL             ....  134
 Basis Dimension        Dim             ....  322

ORBITAL ENERGIES
----------------

  NO   OCC          E(Eh)            E(eV)
   0   2.0000     -88.966050     -2420.8893
   1   2.0000     -88.965060     -2420.8624
   2   2.0000     -10.338830      -281.3339
   3   2.0000     -10.332115      -281.1511
   4   2.0000     -10.315231      -280.6917
   5   2.0000     -10.315210      -280.6911
   6   2.0000     -10.313696      -280.6499
   7   2.0000     -10.309634      -280.5394
   8   2.0000     -10.306064      -280.4423
   9   2.0000     -10.305721      -280.4329
  10   2.0000     -10.298749      -280.2432
  11   2.0000     -10.293220      -280.0928
  12   2.0000     -10.289612      -279.9946
  13   2.0000     -10.279032      -279.7067
  14   2.0000     -10.278668      -279.6968
  15   2.0000     -10.270411      -279.4721
  16   2.0000      -8.080357      -219.8777
  17   2.0000      -8.080232      -219.8743
  18   2.0000      -6.038923      -164.3274
  19   2.0000      -6.038808      -164.3243
  20   2.0000      -6.035264      -164.2279
  21   2.0000      -6.034699      -164.2125
  22   2.0000      -6.030865      -164.1082
  23   2.0000      -6.030762      -164.1054
  24   2.0000      -1.001539       -27.2533
  25   2.0000      -0.977607       -26.6020
  26   2.0000      -0.912003       -24.8169
  27   2.0000      -0.900395       -24.5010
  28   2.0000      -0.865309       -23.5463
  29   2.0000      -0.845954       -23.0196
  30   2.0000      -0.839907       -22.8550
  31   2.0000      -0.812625       -22.1126
  32   2.0000      -0.780948       -21.2507
  33   2.0000      -0.769005       -20.9257
  34   2.0000      -0.703837       -19.1524
  35   2.0000      -0.701206       -19.0808
  36   2.0000      -0.679404       -18.4875
  37   2.0000      -0.657532       -17.8924
  38   2.0000      -0.636007       -17.3066
  39   2.0000      -0.609329       -16.5807
  40   2.0000      -0.587317       -15.9817
  41   2.0000      -0.576340       -15.6830
  42   2.0000      -0.552300       -15.0289
  43   2.0000      -0.546329       -14.8664
  44   2.0000      -0.544372       -14.8131
  45   2.0000      -0.538696       -14.6587
  46   2.0000      -0.513643       -13.9769
  47   2.0000      -0.509268       -13.8579
  48   2.0000      -0.497036       -13.5250
  49   2.0000      -0.493397       -13.4260
  50   2.0000      -0.485842       -13.2204
  51   2.0000      -0.474133       -12.9018
  52   2.0000      -0.471791       -12.8381
  53   2.0000      -0.461765       -12.5653
  54   2.0000      -0.457719       -12.4552
  55   2.0000      -0.447973       -12.1900
  56   2.0000      -0.439700       -11.9649
  57   2.0000      -0.437520       -11.9055
  58   2.0000      -0.433047       -11.7838
  59   2.0000      -0.427964       -11.6455
  60   2.0000      -0.418689       -11.3931
  61   2.0000      -0.416883       -11.3440
  62   2.0000      -0.398801       -10.8519
  63   2.0000      -0.349068        -9.4986
  64   2.0000      -0.331117        -9.0102
  65   2.0000      -0.324668        -8.8347
  66   2.0000      -0.284050        -7.7294
  67   0.0000       0.025206         0.6859
  68   0.0000       0.059228         1.6117
  69   0.0000       0.096275         2.6198
  70   0.0000       0.112489         3.0610
  71   0.0000       0.132660         3.6099

MULLIKEN ATOMIC CHARGES
-----------------------
   0 S :    0.089725
   1 C :   -0.103684
   2 C :   -0.094349
   3 C :    0.015370
   4 C :   -0.148349
   5 H :    0.036921
   6 C :    0.016586
   7 H :    0.035726
   8 H :    0.035237
   9 C :   -0.013504
  10 H :    0.020032
  11 H :    0.025819
  12 C :   -0.055815
  13 H :    0.023585
  14 H :    0.017348
  15 H :    0.042585
  16 S :    0.103317
  17 C :   -0.110097
  18 C :   -0.023225
  19 C :   -0.036715
  20 C :   -0.124197
  21 H :    0.003444
  22 C :   -0.009718
  23 H :    0.041663
  24 H :    0.033834
  25 C :   -0.112215
  26 H :    0.030829
  27 H :    0.052617
  28 C :   -0.017207
  29 H :    0.036727
  30 H :    0.031919
  31 H :    0.048359
  32 H :    0.042492
  33 H :    0.064940
Sum of atomic charges:    0.0000000

LOEWDIN ATOMIC CHARGES
----------------------
   0 S :    0.378493
   1 C :   -0.195533
   2 C :   -0.053500
   3 C :   -0.068736
   4 C :   -0.172937
   5 H :    0.038653
   6 C :   -0.034509
   7 H :    0.032083
   8 H :    0.034303
   9 C :   -0.032695
  10 H :    0.019649
  11 H :    0.022357
  12 C :   -0.061930
  13 H :    0.026152
  14 H :    0.018975
  15 H :    0.025610
  16 S :    0.408725
  17 C :   -0.193998
  18 C :   -0.073924
  19 C :   -0.053053
  20 C :   -0.206029
  21 H :    0.023849
  22 C :   -0.050597
  23 H :    0.040364
  24 H :    0.035997
  25 C :   -0.046188
  26 H :    0.027598
  27 H :    0.029259
  28 C :   -0.057519
  29 H :    0.023484
  30 H :    0.024510
  31 H :    0.031632
  32 H :    0.022693
  33 H :    0.036763

  Mayer bond orders larger than 0.100000
B(  0-S ,  1-C ) :   1.1160 B(  0-S ,  4-C ) :   1.1469 B(  1-C ,  2-C ) :   1.6487
B(  1-C , 32-H ) :   0.9683 B(  2-C ,  3-C ) :   1.1886 B(  2-C ,  6-C ) :   1.0096
B(  3-C ,  4-C ) :   1.5973 B(  3-C ,  5-H ) :   0.9843 B(  4-C , 20-C ) :   1.0258
B(  6-C ,  7-H ) :   0.9479 B(  6-C ,  8-H ) :   0.9465 B(  6-C ,  9-C ) :   1.0791
B(  9-C , 10-H ) :   0.9551 B(  9-C , 11-H ) :   0.9531 B(  9-C , 12-C ) :   1.0818
B( 12-C , 13-H ) :   0.9730 B( 12-C , 14-H ) :   0.9725 B( 12-C , 15-H ) :   0.9709
B( 16-S , 17-C ) :   1.1647 B( 16-S , 20-C ) :   1.1295 B( 17-C , 18-C ) :   1.6321
B( 17-C , 33-H ) :   0.9613 B( 18-C , 19-C ) :   1.2118 B( 18-C , 21-H ) :   0.9954
B( 19-C , 20-C ) :   1.5983 B( 19-C , 22-C ) :   1.0273 B( 22-C , 23-H ) :   0.9442
B( 22-C , 24-H ) :   0.9310 B( 22-C , 25-C ) :   1.0700 B( 25-C , 26-H ) :   0.9561
B( 25-C , 27-H ) :   0.9593 B( 25-C , 28-C ) :   1.0501 B( 28-C , 29-H ) :   0.9821
B( 28-C , 30-H ) :   0.9747 B( 28-C , 31-H ) :   0.9761

Dispersion correction           -0.014545453
FINAL SINGLE POINT ENERGY     -1339.853047109893

DIPOLE MOMENT
-------------
                                X             Y             Z
Electronic contribution:     19.14553      -1.77976     -10.53291
Nuclear contribution   :    -19.61200       1.61252      10.93960
                        -----------------------------------------
Total Dipole Moment    :     -0.46647      -0.16724       0.40669
                        -----------------------------------------
Magnitude (a.u.)       :      0.64106
Magnitude (Debye)      :      1.62946

Rotational constants in cm-1:     0.019605     0.008253     0.007221
Rotational constants in MHz :   587.728369   247.416510   216.471190

                             ****ORCA TERMINATED NORMALLY****
TOTAL RUN TIME: 0 days 0 hours 0 minutes 34 seconds 489 msec
