                         Program Version 4.2.1 -  RELEASE  -
|  1> ! wB97X-D3 SP def2-SVP
|  2> %pal
|  3> nprocs 16
|  4> end
|  5>
|  6> * xyz 0 1
|  7> S 	 45.5139 	 24.0204 	 82.3636
|  8> C 	 46.374 	 24.5076 	 80.925
|  9> C 	 47.235 	 23.5128 	 80.4703
| 10> C 	 47.0932 	 22.3016 	 81.2375
| 11> C 	 46.1642 	 22.4114 	 82.2794
| 12> H 	 47.6218 	 21.3302 	 81.0479
| 13> C 	 48.0996 	 23.5667 	 79.186
| 14> H 	 48.7456 	 22.7034 	 79.1414
| 15> H 	 48.816 	 24.4016 	 79.2136
| 16> C 	 47.2029 	 23.7641 	 77.9495
| 17> H 	 46.3845 	 23.0616 	 78.0799
| 18> H 	 46.8185 	 24.7753 	 77.8647
| 19> C 	 47.8406 	 23.4588 	 76.6172
| 20> H 	 48.843 	 23.926 	 76.6005
| 21> H 	 47.8832 	 22.3461 	 76.6851
| 22> H 	 47.2305 	 23.8241 	 75.8094
| 23> S 	 46.1568 	 21.4581 	 84.8376
| 24> C 	 45.4757 	 19.9001 	 85.266
| 25> C 	 45.0974 	 19.253 	 84.0565
| 26> C 	 45.3472 	 19.9699 	 82.895
| 27> C 	 45.8126 	 21.2759 	 83.1332
| 28> H 	 44.5369 	 18.3182 	 84.1035
| 29> C 	 44.71 	 19.5745 	 81.6123
| 30> H 	 44.6825 	 20.3432 	 80.7655
| 31> H 	 43.61 	 19.3433 	 81.7887
| 32> C 	 45.4348 	 18.3229 	 81.0683
| 33> H 	 45.5328 	 17.5302 	 81.7775
| 34> H 	 46.3794 	 18.64 	 80.8169
| 35> C 	 44.8261 	 17.6565 	 79.8415
| 36> H 	 45.3856 	 16.7479 	 79.5417
| 37> H 	 44.8562 	 18.3125 	 78.9625
| 38> H 	 43.7939 	 17.3957 	 80.1662
| 39> H 	 46.2113 	 25.5013 	 80.4318
| 40> H 	 45.1573 	 19.4798 	 86.2061
| 41> *
| 42>
| 43>                          ****END OF INPUT****

CARTESIAN COORDINATES (ANGSTROEM)
---------------------------------
  S     45.513900   24.020400   82.363600
  C     46.374000   24.507600   80.925000
  C     47.235000   23.512800   80.470300
  C     47.093200   22.301600   81.237500
  C     46.164200   22.411400   82.279400
  H     47.621800   21.330200   81.047900
  C     48.099600   23.566700   79.186000
  H     48.745600   22.703400   79.141400
  H     48.816000   24.401600   79.213600
  C     47.202900   23.764100   77.949500
  H     46.384500   23.061600   78.079900
  H     46.818500   24.775300   77.864700
  C     47.840600   23.458800   76.617200
  H     48.843000   23.926000   76.600500
  H     47.883200   22.346100   76.685100
  H     47.230500   23.824100   75.809400
  S     46.156800   21.458100   84.837600
  C     45.475700   19.900100   85.266000
  C     45.097400   19.253000   84.056500
  C     45.347200   19.969900   82.895000
  C     45.812600   21.275900   83.133200
  H     44.536900   18.318200   84.103500
  C     44.710000   19.574500   81.612300
  H     44.682500   20.343200   80.765500
  H     43.610000   19.343300   81.788700
  C     45.434800   18.322900   81.068300
  H     45.532800   17.530200   81.777500
  H     46.379400   18.640000   80.816900
  C     44.826100   17.656500   79.841500
  H     45.385600   16.747900   79.541700
  H     44.856200   18.312500   78.962500
  H     43.793900   17.395700   80.166200
  H     46.211300   25.501300   80.431800
  H     45.157300   19.479800   86.206100

 Total Charge           Charge          ....    0
 Multiplicity           Mult            ....    1
 Number of Electrons    NEL             ....  134
 Basis Dimension        Dim             ....  322

ORBITAL ENERGIES
----------------

  NO   OCC          E(Eh)            E(eV)
   0   2.0000     -88.972561     -2421.0665
   1   2.0000     -88.966235     -2420.8943
   2   2.0000     -10.331478      -281.1338
   3   2.0000     -10.329352      -281.0760
   4   2.0000     -10.321531      -280.8631
   5   2.0000     -10.319789      -280.8157
   6   2.0000     -10.307701      -280.4868
   7   2.0000     -10.302002      -280.3317
   8   2.0000     -10.300079      -280.2794
   9   2.0000     -10.297163      -280.2000
  10   2.0000     -10.297118      -280.1988
  11   2.0000     -10.294145      -280.1179
  12   2.0000     -10.282860      -279.8108
  13   2.0000     -10.280216      -279.7389
  14   2.0000     -10.279345      -279.7152
  15   2.0000     -10.272847      -279.5384
  16   2.0000      -8.087191      -220.0637
  17   2.0000      -8.080618      -219.8848
  18   2.0000      -6.045684      -164.5114
  19   2.0000      -6.041634      -164.4012
  20   2.0000      -6.039097      -164.3322
  21   2.0000      -6.038051      -164.3037
  22   2.0000      -6.034904      -164.2181
  23   2.0000      -6.031697      -164.1308
  24   2.0000      -1.006457       -27.3871
  25   2.0000      -0.984624       -26.7930
  26   2.0000      -0.914640       -24.8886
  27   2.0000      -0.910561       -24.7776
  28   2.0000      -0.868276       -23.6270
  29   2.0000      -0.853672       -23.2296
  30   2.0000      -0.850352       -23.1392
  31   2.0000      -0.809731       -22.0339
  32   2.0000      -0.779910       -21.2224
  33   2.0000      -0.767190       -20.8763
  34   2.0000      -0.702541       -19.1171
  35   2.0000      -0.694263       -18.8919
  36   2.0000      -0.690256       -18.7828
  37   2.0000      -0.661526       -18.0011
  38   2.0000      -0.641063       -17.4442
  39   2.0000      -0.615996       -16.7621
  40   2.0000      -0.595294       -16.1988
  41   2.0000      -0.575296       -15.6546
  42   2.0000      -0.568431       -15.4678
  43   2.0000      -0.566292       -15.4096
  44   2.0000      -0.528167       -14.3722
  45   2.0000      -0.523625       -14.2486
  46   2.0000      -0.519493       -14.1361
  47   2.0000      -0.509892       -13.8749
  48   2.0000      -0.507121       -13.7995
  49   2.0000      -0.498720       -13.5709
  50   2.0000      -0.496151       -13.5010
  51   2.0000      -0.477840       -13.0027
  52   2.0000      -0.473171       -12.8756
  53   2.0000      -0.464914       -12.6509
  54   2.0000      -0.461585       -12.5604
  55   2.0000      -0.443108       -12.0576
  56   2.0000      -0.441461       -12.0128
  57   2.0000      -0.434382       -11.8201
  58   2.0000      -0.425420       -11.5763
  59   2.0000      -0.424514       -11.5516
  60   2.0000      -0.423639       -11.5278
  61   2.0000      -0.418020       -11.3749
  62   2.0000      -0.412164       -11.2155
  63   2.0000      -0.340048        -9.2532
  64   2.0000      -0.333232        -9.0677
  65   2.0000      -0.330210        -8.9855
  66   2.0000      -0.294057        -8.0017
  67   0.0000       0.026884         0.7316
  68   0.0000       0.063321         1.7231
  69   0.0000       0.114321         3.1108
  70   0.0000       0.119451         3.2504
  71   0.0000       0.128652         3.5008

MULLIKEN ATOMIC CHARGES
-----------------------
   0 S :    0.135101
   1 C :   -0.154245
   2 C :   -0.078203
   3 C :    0.010983
   4 C :   -0.159186
   5 H :    0.037862
   6 C :    0.087025
   7 H :    0.012610
   8 H :    0.029772
   9 C :   -0.103187
  10 H :    0.031136
  11 H :    0.025794
  12 C :   -0.041841
  13 H :    0.033852
  14 H :    0.036369
  15 H :    0.040632
  16 S :    0.110373
  17 C :   -0.083480
  18 C :   -0.069750
  19 C :    0.039019
  20 C :   -0.177646
  21 H :    0.026419
  22 C :   -0.014634
  23 H :    0.045913
  24 H :    0.041158
  25 C :   -0.061253
  26 H :    0.019718
  27 H :   -0.002489
  28 C :   -0.043397
  29 H :    0.037845
  30 H :    0.029016
  31 H :    0.030803
  32 H :    0.071853
  33 H :    0.056056
Sum of atomic charges:   -0.0000000

LOEWDIN ATOMIC CHARGES
----------------------
   0 S :    0.424796
   1 C :   -0.204885
   2 C :   -0.062480
   3 C :   -0.062611
   4 C :   -0.214021
   5 H :    0.040877
   6 C :   -0.028379
   7 H :    0.025300
   8 H :    0.031822
   9 C :   -0.044161
  10 H :    0.022232
  11 H :    0.019261
  12 C :   -0.063886
  13 H :    0.026037
  14 H :    0.030962
  15 H :    0.025541
  16 S :    0.416973
  17 C :   -0.195551
  18 C :   -0.067318
  19 C :   -0.069371
  20 C :   -0.193632
  21 H :    0.032651
  22 C :   -0.034469
  23 H :    0.037547
  24 H :    0.034200
  25 C :   -0.039146
  26 H :    0.019097
  27 H :    0.009554
  28 C :   -0.066014
  29 H :    0.029000
  30 H :    0.021704
  31 H :    0.026554
  32 H :    0.039663
  33 H :    0.032155

  Mayer bond orders larger than 0.100000
B(  0-S ,  1-C ) :   1.1505 B(  0-S ,  4-C ) :   1.1630 B(  1-C ,  2-C ) :   1.5879
B(  1-C , 32-H ) :   0.9645 B(  2-C ,  3-C ) :   1.2579 B(  2-C ,  6-C ) :   1.0247
B(  3-C ,  4-C ) :   1.5476 B(  3-C ,  5-H ) :   0.9874 B(  4-C , 20-C ) :   1.0343
B(  6-C ,  7-H ) :   0.9476 B(  6-C ,  8-H ) :   0.9319 B(  6-C ,  9-C ) :   1.0578
B(  9-C , 10-H ) :   0.9660 B(  9-C , 11-H ) :   0.9518 B(  9-C , 12-C ) :   1.0824
B( 12-C , 13-H ) :   0.9726 B( 12-C , 14-H ) :   0.9814 B( 12-C , 15-H ) :   0.9741
B( 16-S , 17-C ) :   1.1647 B( 16-S , 20-C ) :   1.1675 B( 17-C , 18-C ) :   1.5722
B( 17-C , 20-C ) :   0.1179 B( 17-C , 33-H ) :   0.9690 B( 18-C , 19-C ) :   1.2818
B( 18-C , 21-H ) :   0.9805 B( 19-C , 20-C ) :   1.5348 B( 19-C , 22-C ) :   1.0469
B( 22-C , 23-H ) :   0.9463 B( 22-C , 24-H ) :   0.9468 B( 22-C , 25-C ) :   1.0356
B( 25-C , 26-H ) :   0.9627 B( 25-C , 27-H ) :   0.9509 B( 25-C , 28-C ) :   1.0871
B( 28-C , 29-H ) :   0.9733 B( 28-C , 30-H ) :   0.9733 B( 28-C , 31-H ) :   0.9745

Dispersion correction           -0.013829230
FINAL SINGLE POINT ENERGY     -1339.873144954855

DIPOLE MOMENT
-------------
                                X             Y             Z
Electronic contribution:     -2.48130      11.84350      29.34858
Nuclear contribution   :      2.43625     -12.03253     -29.94114
                        -----------------------------------------
Total Dipole Moment    :     -0.04505      -0.18903      -0.59255
                        -----------------------------------------
Magnitude (a.u.)       :      0.62360
Magnitude (Debye)      :      1.58507

Rotational constants in cm-1:     0.017338     0.008744     0.006279
Rotational constants in MHz :   519.779317   262.129668   188.227845

                             ****ORCA TERMINATED NORMALLY****
TOTAL RUN TIME: 0 days 0 hours 0 minutes 29 seconds 771 msec
