                         Program Version 4.2.1 -  RELEASE  -
|  1> ! wB97X-D3 SP def2-SVP
|  2> %pal
|  3> nprocs 16
|  4> end
|  5>
|  6> * xyz 0 1
|  7> S 	 -93.4479 	 53.2855 	 126.625
|  8> C 	 -92.4085 	 52.1462 	 125.839
|  9> C 	 -92.879 	 51.8154 	 124.561
| 10> C 	 -94.2286 	 52.3067 	 124.357
| 11> C 	 -94.6682 	 53.0688 	 125.373
| 12> H 	 -94.8414 	 52.0708 	 123.508
| 13> C 	 -92.1488 	 51.1517 	 123.394
| 14> H 	 -92.8631 	 50.9962 	 122.5
| 15> H 	 -91.91 	 50.1112 	 123.715
| 16> C 	 -90.9149 	 51.8906 	 122.995
| 17> H 	 -90.213 	 52.0098 	 123.764
| 18> H 	 -90.2932 	 51.2062 	 122.384
| 19> C 	 -91.2984 	 53.1858 	 122.367
| 20> H 	 -92.1588 	 53.0102 	 121.698
| 21> H 	 -91.5159 	 53.9843 	 123.049
| 22> H 	 -90.3893 	 53.5734 	 121.826
| 23> S 	 -96.8827 	 53.5201 	 126.959
| 24> C 	 -98.1469 	 54.5603 	 126.378
| 25> C 	 -98.0188 	 54.8158 	 125.016
| 26> C 	 -96.7434 	 54.3726 	 124.562
| 27> C 	 -95.9679 	 53.7064 	 125.504
| 28> H 	 -98.7829 	 55.3452 	 124.515
| 29> C 	 -96.3677 	 54.6051 	 123.155
| 30> H 	 -95.3842 	 54.2537 	 122.851
| 31> H 	 -96.4682 	 55.7157 	 123.05
| 32> C 	 -97.2841 	 53.8933 	 122.131
| 33> H 	 -98.3394 	 54.0204 	 122.291
| 34> H 	 -97.0682 	 52.825 	 122.105
| 35> C 	 -97.1011 	 54.2936 	 120.726
| 36> H 	 -97.3454 	 55.326 	 120.639
| 37> H 	 -97.7747 	 53.8534 	 120.032
| 38> H 	 -96.0524 	 54.2221 	 120.447
| 39> H 	 -91.4969 	 51.8174 	 126.178
| 40> H 	 -99.0222 	 54.8412 	 126.992
| 41> *
| 42>
| 43>                          ****END OF INPUT****

CARTESIAN COORDINATES (ANGSTROEM)
---------------------------------
  S    -93.447900   53.285500  126.625000
  C    -92.408500   52.146200  125.839000
  C    -92.879000   51.815400  124.561000
  C    -94.228600   52.306700  124.357000
  C    -94.668200   53.068800  125.373000
  H    -94.841400   52.070800  123.508000
  C    -92.148800   51.151700  123.394000
  H    -92.863100   50.996200  122.500000
  H    -91.910000   50.111200  123.715000
  C    -90.914900   51.890600  122.995000
  H    -90.213000   52.009800  123.764000
  H    -90.293200   51.206200  122.384000
  C    -91.298400   53.185800  122.367000
  H    -92.158800   53.010200  121.698000
  H    -91.515900   53.984300  123.049000
  H    -90.389300   53.573400  121.826000
  S    -96.882700   53.520100  126.959000
  C    -98.146900   54.560300  126.378000
  C    -98.018800   54.815800  125.016000
  C    -96.743400   54.372600  124.562000
  C    -95.967900   53.706400  125.504000
  H    -98.782900   55.345200  124.515000
  C    -96.367700   54.605100  123.155000
  H    -95.384200   54.253700  122.851000
  H    -96.468200   55.715700  123.050000
  C    -97.284100   53.893300  122.131000
  H    -98.339400   54.020400  122.291000
  H    -97.068200   52.825000  122.105000
  C    -97.101100   54.293600  120.726000
  H    -97.345400   55.326000  120.639000
  H    -97.774700   53.853400  120.032000
  H    -96.052400   54.222100  120.447000
  H    -91.496900   51.817400  126.178000
  H    -99.022200   54.841200  126.992000

 Total Charge           Charge          ....    0
 Multiplicity           Mult            ....    1
 Number of Electrons    NEL             ....  134
 Basis Dimension        Dim             ....  322

ORBITAL ENERGIES
----------------

  NO   OCC          E(Eh)            E(eV)
   0   2.0000     -88.965998     -2420.8879
   1   2.0000     -88.963273     -2420.8137
   2   2.0000     -10.324743      -280.9505
   3   2.0000     -10.320524      -280.8357
   4   2.0000     -10.319179      -280.7991
   5   2.0000     -10.309236      -280.5286
   6   2.0000     -10.302872      -280.3554
   7   2.0000     -10.299849      -280.2731
   8   2.0000     -10.298991      -280.2498
   9   2.0000     -10.292442      -280.0716
  10   2.0000     -10.290723      -280.0248
  11   2.0000     -10.289362      -279.9878
  12   2.0000     -10.279810      -279.7279
  13   2.0000     -10.279229      -279.7120
  14   2.0000     -10.276437      -279.6361
  15   2.0000     -10.266661      -279.3700
  16   2.0000      -8.080839      -219.8908
  17   2.0000      -8.078669      -219.8317
  18   2.0000      -6.039415      -164.3408
  19   2.0000      -6.037050      -164.2765
  20   2.0000      -6.035367      -164.2307
  21   2.0000      -6.033106      -164.1692
  22   2.0000      -6.031492      -164.1253
  23   2.0000      -6.029496      -164.0709
  24   2.0000      -1.009677       -27.4747
  25   2.0000      -0.986485       -26.8436
  26   2.0000      -0.920846       -25.0575
  27   2.0000      -0.917940       -24.9784
  28   2.0000      -0.870889       -23.6981
  29   2.0000      -0.861201       -23.4345
  30   2.0000      -0.847584       -23.0639
  31   2.0000      -0.815982       -22.2040
  32   2.0000      -0.781361       -21.2619
  33   2.0000      -0.769578       -20.9413
  34   2.0000      -0.709428       -19.3045
  35   2.0000      -0.701463       -19.0878
  36   2.0000      -0.692129       -18.8338
  37   2.0000      -0.665173       -18.1003
  38   2.0000      -0.644361       -17.5339
  39   2.0000      -0.618731       -16.8365
  40   2.0000      -0.601146       -16.3580
  41   2.0000      -0.576530       -15.6882
  42   2.0000      -0.569229       -15.4895
  43   2.0000      -0.562366       -15.3028
  44   2.0000      -0.545778       -14.8514
  45   2.0000      -0.530092       -14.4245
  46   2.0000      -0.519625       -14.1397
  47   2.0000      -0.512825       -13.9547
  48   2.0000      -0.508471       -13.8362
  49   2.0000      -0.499653       -13.5962
  50   2.0000      -0.489841       -13.3292
  51   2.0000      -0.477318       -12.9885
  52   2.0000      -0.471622       -12.8335
  53   2.0000      -0.466140       -12.6843
  54   2.0000      -0.459890       -12.5142
  55   2.0000      -0.457408       -12.4467
  56   2.0000      -0.443106       -12.0575
  57   2.0000      -0.438192       -11.9238
  58   2.0000      -0.428886       -11.6706
  59   2.0000      -0.425079       -11.5670
  60   2.0000      -0.421010       -11.4563
  61   2.0000      -0.417582       -11.3630
  62   2.0000      -0.405354       -11.0302
  63   2.0000      -0.349382        -9.5072
  64   2.0000      -0.327419        -8.9095
  65   2.0000      -0.325213        -8.8495
  66   2.0000      -0.291427        -7.9301
  67   0.0000       0.030299         0.8245
  68   0.0000       0.074785         2.0350
  69   0.0000       0.107575         2.9273
  70   0.0000       0.113814         3.0970
  71   0.0000       0.126805         3.4505

MULLIKEN ATOMIC CHARGES
-----------------------
   0 S :    0.118976
   1 C :   -0.076866
   2 C :   -0.095921
   3 C :    0.021642
   4 C :   -0.144327
   5 H :    0.004431
   6 C :    0.008853
   7 H :    0.040083
   8 H :    0.035138
   9 C :   -0.027922
  10 H :    0.005705
  11 H :    0.019028
  12 C :   -0.042354
  13 H :    0.028801
  14 H :    0.044720
  15 H :    0.034477
  16 S :    0.113416
  17 C :   -0.110025
  18 C :   -0.023555
  19 C :   -0.012604
  20 C :   -0.134850
  21 H :    0.009500
  22 C :    0.048616
  23 H :    0.017028
  24 H :    0.036390
  25 C :   -0.085950
  26 H :    0.018886
  27 H :    0.025826
  28 C :   -0.003195
  29 H :    0.002725
  30 H :    0.027791
  31 H :    0.018401
  32 H :    0.008311
  33 H :    0.068827
Sum of atomic charges:   -0.0000000

LOEWDIN ATOMIC CHARGES
----------------------
   0 S :    0.408353
   1 C :   -0.191166
   2 C :   -0.053893
   3 C :   -0.062204
   4 C :   -0.186085
   5 H :    0.029125
   6 C :   -0.039212
   7 H :    0.036080
   8 H :    0.033381
   9 C :   -0.049174
  10 H :    0.017365
  11 H :    0.027427
  12 C :   -0.063024
  13 H :    0.025443
  14 H :    0.027418
  15 H :    0.033354
  16 S :    0.419960
  17 C :   -0.186063
  18 C :   -0.065641
  19 C :   -0.055224
  20 C :   -0.215347
  21 H :    0.027450
  22 C :   -0.031467
  23 H :    0.026840
  24 H :    0.038037
  25 C :   -0.040746
  26 H :    0.019056
  27 H :    0.022609
  28 C :   -0.060340
  29 H :    0.017967
  30 H :    0.024771
  31 H :    0.021979
  32 H :    0.008862
  33 H :    0.034110

  Mayer bond orders larger than 0.100000
B(  0-S ,  1-C ) :   1.1343 B(  0-S ,  4-C ) :   1.1413 B(  1-C ,  2-C ) :   1.6167
B(  1-C , 32-H ) :   0.9789 B(  2-C ,  3-C ) :   1.2167 B(  2-C ,  6-C ) :   1.0070
B(  3-C ,  4-C ) :   1.6037 B(  3-C ,  5-H ) :   0.9962 B(  4-C , 20-C ) :   1.0330
B(  6-C ,  7-H ) :   0.9529 B(  6-C ,  8-H ) :   0.9302 B(  6-C ,  9-C ) :   1.0886
B(  9-C , 10-H ) :   0.9459 B(  9-C , 11-H ) :   0.9489 B(  9-C , 12-C ) :   1.0677
B( 12-C , 13-H ) :   0.9767 B( 12-C , 14-H ) :   0.9724 B( 12-C , 15-H ) :   0.9702
B( 16-S , 17-C ) :   1.1762 B( 16-S , 20-C ) :   1.1413 B( 17-C , 18-C ) :   1.5822
B( 17-C , 33-H ) :   0.9645 B( 18-C , 19-C ) :   1.2369 B( 18-C , 21-H ) :   1.0024
B( 19-C , 20-C ) :   1.5789 B( 19-C , 22-C ) :   1.0617 B( 22-C , 23-H ) :   0.9324
B( 22-C , 24-H ) :   0.9308 B( 22-C , 25-C ) :   1.0611 B( 25-C , 26-H ) :   0.9531
B( 25-C , 27-H ) :   0.9524 B( 25-C , 28-C ) :   1.1008 B( 28-C , 29-H ) :   0.9674
B( 28-C , 30-H ) :   0.9691 B( 28-C , 31-H ) :   0.9688

Dispersion correction           -0.014743768
FINAL SINGLE POINT ENERGY     -1339.871317043074

DIPOLE MOMENT
-------------
                                X             Y             Z
Electronic contribution:     -6.27299       0.30589      29.63224
Nuclear contribution   :      6.28360      -0.32557     -30.28742
                        -----------------------------------------
Total Dipole Moment    :      0.01060      -0.01968      -0.65518
                        -----------------------------------------
Magnitude (a.u.)       :      0.65556
Magnitude (Debye)      :      1.66630

Rotational constants in cm-1:     0.017782     0.009986     0.006844
Rotational constants in MHz :   533.082156   299.357767   205.182706

                             ****ORCA TERMINATED NORMALLY****
TOTAL RUN TIME: 0 days 0 hours 0 minutes 34 seconds 584 msec
