                         Program Version 4.2.1 -  RELEASE  -
|  1> ! wB97X-D3 SP def2-SVP
|  2> %pal
|  3> nprocs 16
|  4> end
|  5>
|  6> * xyz 0 1
|  7> S 	 -67.4811 	 37.7777 	 132.077
|  8> C 	 -68.3144 	 39.2482 	 131.542
|  9> C 	 -68.3704 	 40.228 	 132.565
| 10> C 	 -67.8439 	 39.7071 	 133.81
| 11> C 	 -67.463 	 38.3419 	 133.765
| 12> H 	 -67.8645 	 40.2207 	 134.722
| 13> C 	 -68.6691 	 41.7012 	 132.436
| 14> H 	 -68.3009 	 42.005 	 131.459
| 15> H 	 -68.167 	 42.2573 	 133.21
| 16> C 	 -70.1501 	 41.9975 	 132.672
| 17> H 	 -70.3842 	 42.9678 	 132.266
| 18> H 	 -70.6377 	 41.2226 	 132.109
| 19> C 	 -70.6566 	 41.7629 	 134.047
| 20> H 	 -70.1784 	 40.8513 	 134.452
| 21> H 	 -70.5407 	 42.5829 	 134.761
| 22> H 	 -71.7541 	 41.5717 	 134.002
| 23> S 	 -68.4064 	 35.9652 	 134.815
| 24> C 	 -67.8599 	 35.3768 	 136.423
| 25> C 	 -66.9339 	 36.2894 	 136.902
| 26> C 	 -66.6791 	 37.4764 	 136.104
| 27> C 	 -67.4136 	 37.4534 	 134.946
| 28> H 	 -66.4896 	 35.9766 	 137.807
| 29> C 	 -65.8888 	 38.7029 	 136.652
| 30> H 	 -66.0336 	 38.6496 	 137.768
| 31> H 	 -66.2466 	 39.6755 	 136.378
| 32> C 	 -64.4142 	 38.7189 	 136.312
| 33> H 	 -64.0859 	 37.845 	 136.868
| 34> H 	 -63.8833 	 39.5215 	 136.783
| 35> C 	 -64.0775 	 38.8508 	 134.821
| 36> H 	 -64.4478 	 38.0358 	 134.203
| 37> H 	 -63.0107 	 38.978 	 134.577
| 38> H 	 -64.6162 	 39.7704 	 134.388
| 39> H 	 -68.5439 	 39.5058 	 130.517
| 40> H 	 -68.2276 	 34.519 	 136.961
| 41> *
| 42>
| 43>                          ****END OF INPUT****

CARTESIAN COORDINATES (ANGSTROEM)
---------------------------------
  S    -67.481100   37.777700  132.077000
  C    -68.314400   39.248200  131.542000
  C    -68.370400   40.228000  132.565000
  C    -67.843900   39.707100  133.810000
  C    -67.463000   38.341900  133.765000
  H    -67.864500   40.220700  134.722000
  C    -68.669100   41.701200  132.436000
  H    -68.300900   42.005000  131.459000
  H    -68.167000   42.257300  133.210000
  C    -70.150100   41.997500  132.672000
  H    -70.384200   42.967800  132.266000
  H    -70.637700   41.222600  132.109000
  C    -70.656600   41.762900  134.047000
  H    -70.178400   40.851300  134.452000
  H    -70.540700   42.582900  134.761000
  H    -71.754100   41.571700  134.002000
  S    -68.406400   35.965200  134.815000
  C    -67.859900   35.376800  136.423000
  C    -66.933900   36.289400  136.902000
  C    -66.679100   37.476400  136.104000
  C    -67.413600   37.453400  134.946000
  H    -66.489600   35.976600  137.807000
  C    -65.888800   38.702900  136.652000
  H    -66.033600   38.649600  137.768000
  H    -66.246600   39.675500  136.378000
  C    -64.414200   38.718900  136.312000
  H    -64.085900   37.845000  136.868000
  H    -63.883300   39.521500  136.783000
  C    -64.077500   38.850800  134.821000
  H    -64.447800   38.035800  134.203000
  H    -63.010700   38.978000  134.577000
  H    -64.616200   39.770400  134.388000
  H    -68.543900   39.505800  130.517000
  H    -68.227600   34.519000  136.961000

 Total Charge           Charge          ....    0
 Multiplicity           Mult            ....    1
 Number of Electrons    NEL             ....  134
 Basis Dimension        Dim             ....  322

ORBITAL ENERGIES
----------------

  NO   OCC          E(Eh)            E(eV)
   0   2.0000     -88.974508     -2421.1194
   1   2.0000     -88.963055     -2420.8078
   2   2.0000     -10.338595      -281.3275
   3   2.0000     -10.335214      -281.2355
   4   2.0000     -10.322612      -280.8925
   5   2.0000     -10.321480      -280.8617
   6   2.0000     -10.310482      -280.5625
   7   2.0000     -10.308078      -280.4971
   8   2.0000     -10.297678      -280.2141
   9   2.0000     -10.297344      -280.2050
  10   2.0000     -10.296445      -280.1805
  11   2.0000     -10.290747      -280.0255
  12   2.0000     -10.280644      -279.7505
  13   2.0000     -10.278733      -279.6985
  14   2.0000     -10.277964      -279.6776
  15   2.0000     -10.276774      -279.6452
  16   2.0000      -8.087675      -220.0768
  17   2.0000      -8.076478      -219.7722
  18   2.0000      -6.046352      -164.5296
  19   2.0000      -6.042372      -164.4213
  20   2.0000      -6.038366      -164.3123
  21   2.0000      -6.035222      -164.2267
  22   2.0000      -6.031112      -164.1149
  23   2.0000      -6.027081      -164.0052
  24   2.0000      -0.997218       -27.1357
  25   2.0000      -0.974925       -26.5290
  26   2.0000      -0.919696       -25.0262
  27   2.0000      -0.906971       -24.6799
  28   2.0000      -0.866300       -23.5732
  29   2.0000      -0.848408       -23.0863
  30   2.0000      -0.838235       -22.8095
  31   2.0000      -0.813717       -22.1424
  32   2.0000      -0.782913       -21.3041
  33   2.0000      -0.775263       -21.0960
  34   2.0000      -0.706304       -19.2195
  35   2.0000      -0.697469       -18.9791
  36   2.0000      -0.690228       -18.7820
  37   2.0000      -0.661262       -17.9939
  38   2.0000      -0.641445       -17.4546
  39   2.0000      -0.617235       -16.7958
  40   2.0000      -0.596675       -16.2364
  41   2.0000      -0.579786       -15.7768
  42   2.0000      -0.556927       -15.1548
  43   2.0000      -0.550707       -14.9855
  44   2.0000      -0.549445       -14.9512
  45   2.0000      -0.536894       -14.6096
  46   2.0000      -0.514792       -14.0082
  47   2.0000      -0.509163       -13.8550
  48   2.0000      -0.504347       -13.7240
  49   2.0000      -0.490965       -13.3598
  50   2.0000      -0.486955       -13.2507
  51   2.0000      -0.481047       -13.0900
  52   2.0000      -0.466477       -12.6935
  53   2.0000      -0.462925       -12.5968
  54   2.0000      -0.459864       -12.5135
  55   2.0000      -0.447818       -12.1858
  56   2.0000      -0.440834       -11.9957
  57   2.0000      -0.437497       -11.9049
  58   2.0000      -0.433519       -11.7967
  59   2.0000      -0.422428       -11.4948
  60   2.0000      -0.412445       -11.2232
  61   2.0000      -0.409979       -11.1561
  62   2.0000      -0.407061       -11.0767
  63   2.0000      -0.349709        -9.5161
  64   2.0000      -0.331352        -9.0165
  65   2.0000      -0.326898        -8.8954
  66   2.0000      -0.290711        -7.9106
  67   0.0000       0.020773         0.5653
  68   0.0000       0.061910         1.6847
  69   0.0000       0.095821         2.6074
  70   0.0000       0.111619         3.0373
  71   0.0000       0.128869         3.5067

MULLIKEN ATOMIC CHARGES
-----------------------
   0 S :    0.122333
   1 C :   -0.111910
   2 C :   -0.135419
   3 C :    0.051192
   4 C :   -0.150231
   5 H :    0.003989
   6 C :    0.082404
   7 H :    0.028230
   8 H :    0.021277
   9 C :   -0.038322
  10 H :    0.026549
  11 H :    0.015899
  12 C :   -0.071810
  13 H :    0.036146
  14 H :    0.030894
  15 H :    0.039592
  16 S :    0.083905
  17 C :   -0.102943
  18 C :   -0.028071
  19 C :   -0.003282
  20 C :   -0.153190
  21 H :    0.006660
  22 C :    0.041654
  23 H :    0.035904
  24 H :    0.016116
  25 C :   -0.040100
  26 H :    0.017183
  27 H :    0.021485
  28 C :   -0.070246
  29 H :    0.039059
  30 H :    0.041095
  31 H :    0.032982
  32 H :    0.049310
  33 H :    0.061668
Sum of atomic charges:   -0.0000000

LOEWDIN ATOMIC CHARGES
----------------------
   0 S :    0.397468
   1 C :   -0.193552
   2 C :   -0.058588
   3 C :   -0.051534
   4 C :   -0.187689
   5 H :    0.017299
   6 C :   -0.026659
   7 H :    0.031675
   8 H :    0.028006
   9 C :   -0.041947
  10 H :    0.020955
  11 H :    0.023845
  12 C :   -0.070177
  13 H :    0.030926
  14 H :    0.021001
  15 H :    0.034455
  16 S :    0.365238
  17 C :   -0.172576
  18 C :   -0.064977
  19 C :   -0.060687
  20 C :   -0.171377
  21 H :    0.023742
  22 C :   -0.025703
  23 H :    0.039106
  24 H :    0.020322
  25 C :   -0.045673
  26 H :    0.021718
  27 H :    0.022032
  28 C :   -0.072753
  29 H :    0.023303
  30 H :    0.028209
  31 H :    0.034178
  32 H :    0.027195
  33 H :    0.033220

  Mayer bond orders larger than 0.100000
B(  0-S ,  1-C ) :   1.1380 B(  0-S ,  4-C ) :   1.1494 B(  1-C ,  2-C ) :   1.5947
B(  1-C , 32-H ) :   0.9642 B(  2-C ,  3-C ) :   1.2608 B(  2-C ,  6-C ) :   1.0198
B(  3-C ,  4-C ) :   1.5433 B(  3-C ,  5-H ) :   0.9860 B(  4-C , 20-C ) :   1.0372
B(  6-C ,  7-H ) :   0.9418 B(  6-C ,  8-H ) :   0.9472 B(  6-C ,  9-C ) :   1.0648
B(  9-C , 10-H ) :   0.9550 B(  9-C , 11-H ) :   0.9569 B(  9-C , 12-C ) :   1.0794
B( 12-C , 13-H ) :   0.9682 B( 12-C , 14-H ) :   0.9741 B( 12-C , 15-H ) :   0.9723
B( 16-S , 17-C ) :   1.1230 B( 16-S , 20-C ) :   1.1284 B( 17-C , 18-C ) :   1.6522
B( 17-C , 33-H ) :   0.9699 B( 18-C , 19-C ) :   1.2032 B( 18-C , 21-H ) :   0.9900
B( 19-C , 20-C ) :   1.6300 B( 19-C , 22-C ) :   1.0082 B( 22-C , 23-H ) :   0.9418
B( 22-C , 24-H ) :   0.9492 B( 22-C , 25-C ) :   1.0786 B( 25-C , 26-H ) :   0.9550
B( 25-C , 27-H ) :   0.9536 B( 25-C , 28-C ) :   1.0677 B( 28-C , 29-H ) :   0.9737
B( 28-C , 30-H ) :   0.9754 B( 28-C , 31-H ) :   0.9694

Dispersion correction           -0.015311720
FINAL SINGLE POINT ENERGY     -1339.861564715608

DIPOLE MOMENT
-------------
                                X             Y             Z
Electronic contribution:     -3.05495     -21.17205      -6.23534
Nuclear contribution   :      3.10522      21.73454       6.54725
                        -----------------------------------------
Total Dipole Moment    :      0.05027       0.56249       0.31191
                        -----------------------------------------
Magnitude (a.u.)       :      0.64514
Magnitude (Debye)      :      1.63982

Rotational constants in cm-1:     0.018418     0.008903     0.008111
Rotational constants in MHz :   552.168091   266.916379   243.151492

                             ****ORCA TERMINATED NORMALLY****
TOTAL RUN TIME: 0 days 0 hours 0 minutes 35 seconds 2 msec
