                         Program Version 4.2.1 -  RELEASE  -
|  1> ! wB97X-D3 SP def2-SVP
|  2> %pal
|  3> nprocs 16
|  4> end
|  5>
|  6> * xyz 0 1
|  7> S 	 28.1349 	 -9.73025 	 78.45
|  8> C 	 29.54 	 -9.74752 	 77.4359
|  9> C 	 30.2255 	 -8.54594 	 77.5313
| 10> C 	 29.8434 	 -7.84914 	 78.6735
| 11> C 	 28.7367 	 -8.35589 	 79.3635
| 12> H 	 30.3176 	 -6.97131 	 79.0654
| 13> C 	 31.3473 	 -8.08024 	 76.5991
| 14> H 	 31.5884 	 -8.98603 	 75.9733
| 15> H 	 32.2208 	 -7.84797 	 77.2637
| 16> C 	 30.9768 	 -6.84679 	 75.7227
| 17> H 	 30.6428 	 -5.94463 	 76.3574
| 18> H 	 31.8427 	 -6.48934 	 75.1332
| 19> C 	 30.0146 	 -7.16855 	 74.5718
| 20> H 	 30.4984 	 -7.82261 	 73.8793
| 21> H 	 29.1008 	 -7.61502 	 74.8768
| 22> H 	 29.7602 	 -6.26936 	 73.9491
| 23> S 	 27.8034 	 -8.79188 	 81.9354
| 24> C 	 27.0004 	 -7.51113 	 82.8074
| 25> C 	 27.0236 	 -6.34269 	 82.1254
| 26> C 	 27.6665 	 -6.47865 	 80.8086
| 27> C 	 28.054 	 -7.79936 	 80.5403
| 28> H 	 26.5538 	 -5.43928 	 82.5834
| 29> C 	 27.7451 	 -5.32086 	 79.8973
| 30> H 	 26.867 	 -4.70124 	 80.0972
| 31> H 	 27.7004 	 -5.64503 	 78.8988
| 32> C 	 29.0112 	 -4.50392 	 80.1987
| 33> H 	 28.8882 	 -3.52767 	 79.7257
| 34> H 	 29.8885 	 -5.00946 	 79.8608
| 35> C 	 29.4413 	 -4.33734 	 81.7193
| 36> H 	 28.6871 	 -4.11454 	 82.4394
| 37> H 	 30.3001 	 -3.68557 	 81.8809
| 38> H 	 29.8078 	 -5.2702 	 81.9747
| 39> H 	 29.7177 	 -10.4141 	 76.5803
| 40> H 	 26.5459 	 -7.68781 	 83.8053
| 41> *
| 42>
| 43>                          ****END OF INPUT****

CARTESIAN COORDINATES (ANGSTROEM)
---------------------------------
  S     28.134900   -9.730250   78.450000
  C     29.540000   -9.747520   77.435900
  C     30.225500   -8.545940   77.531300
  C     29.843400   -7.849140   78.673500
  C     28.736700   -8.355890   79.363500
  H     30.317600   -6.971310   79.065400
  C     31.347300   -8.080240   76.599100
  H     31.588400   -8.986030   75.973300
  H     32.220800   -7.847970   77.263700
  C     30.976800   -6.846790   75.722700
  H     30.642800   -5.944630   76.357400
  H     31.842700   -6.489340   75.133200
  C     30.014600   -7.168550   74.571800
  H     30.498400   -7.822610   73.879300
  H     29.100800   -7.615020   74.876800
  H     29.760200   -6.269360   73.949100
  S     27.803400   -8.791880   81.935400
  C     27.000400   -7.511130   82.807400
  C     27.023600   -6.342690   82.125400
  C     27.666500   -6.478650   80.808600
  C     28.054000   -7.799360   80.540300
  H     26.553800   -5.439280   82.583400
  C     27.745100   -5.320860   79.897300
  H     26.867000   -4.701240   80.097200
  H     27.700400   -5.645030   78.898800
  C     29.011200   -4.503920   80.198700
  H     28.888200   -3.527670   79.725700
  H     29.888500   -5.009460   79.860800
  C     29.441300   -4.337340   81.719300
  H     28.687100   -4.114540   82.439400
  H     30.300100   -3.685570   81.880900
  H     29.807800   -5.270200   81.974700
  H     29.717700  -10.414100   76.580300
  H     26.545900   -7.687810   83.805300

 Total Charge           Charge          ....    0
 Multiplicity           Mult            ....    1
 Number of Electrons    NEL             ....  134
 Basis Dimension        Dim             ....  322

ORBITAL ENERGIES
----------------

  NO   OCC          E(Eh)            E(eV)
   0   2.0000     -88.967171     -2420.9198
   1   2.0000     -88.961584     -2420.7678
   2   2.0000     -10.331374      -281.1310
   3   2.0000     -10.327046      -281.0132
   4   2.0000     -10.318163      -280.7715
   5   2.0000     -10.314515      -280.6722
   6   2.0000     -10.306066      -280.4423
   7   2.0000     -10.305145      -280.4172
   8   2.0000     -10.299219      -280.2560
   9   2.0000     -10.298686      -280.2415
  10   2.0000     -10.298344      -280.2322
  11   2.0000     -10.290996      -280.0322
  12   2.0000     -10.288720      -279.9703
  13   2.0000     -10.285905      -279.8937
  14   2.0000     -10.275385      -279.6074
  15   2.0000     -10.269358      -279.4434
  16   2.0000      -8.081873      -219.9190
  17   2.0000      -8.077075      -219.7884
  18   2.0000      -6.040289      -164.3646
  19   2.0000      -6.036418      -164.2593
  20   2.0000      -6.035635      -164.2380
  21   2.0000      -6.032685      -164.1577
  22   2.0000      -6.031428      -164.1235
  23   2.0000      -6.027779      -164.0242
  24   2.0000      -1.007916       -27.4268
  25   2.0000      -0.988068       -26.8867
  26   2.0000      -0.913190       -24.8492
  27   2.0000      -0.906957       -24.6796
  28   2.0000      -0.869186       -23.6518
  29   2.0000      -0.849455       -23.1149
  30   2.0000      -0.841254       -22.8917
  31   2.0000      -0.816957       -22.2305
  32   2.0000      -0.786778       -21.4093
  33   2.0000      -0.774188       -21.0667
  34   2.0000      -0.711081       -19.3495
  35   2.0000      -0.696719       -18.9587
  36   2.0000      -0.688373       -18.7316
  37   2.0000      -0.659625       -17.9493
  38   2.0000      -0.638061       -17.3625
  39   2.0000      -0.620289       -16.8789
  40   2.0000      -0.593561       -16.1516
  41   2.0000      -0.567799       -15.4506
  42   2.0000      -0.563031       -15.3209
  43   2.0000      -0.549845       -14.9621
  44   2.0000      -0.543397       -14.7866
  45   2.0000      -0.540630       -14.7113
  46   2.0000      -0.520959       -14.1760
  47   2.0000      -0.509503       -13.8643
  48   2.0000      -0.500001       -13.6057
  49   2.0000      -0.488894       -13.3035
  50   2.0000      -0.485002       -13.1976
  51   2.0000      -0.482530       -13.1303
  52   2.0000      -0.471757       -12.8372
  53   2.0000      -0.465142       -12.6571
  54   2.0000      -0.463075       -12.6009
  55   2.0000      -0.449561       -12.2332
  56   2.0000      -0.441683       -12.0188
  57   2.0000      -0.439663       -11.9638
  58   2.0000      -0.436603       -11.8806
  59   2.0000      -0.428268       -11.6538
  60   2.0000      -0.419462       -11.4141
  61   2.0000      -0.414984       -11.2923
  62   2.0000      -0.414295       -11.2735
  63   2.0000      -0.346203        -9.4207
  64   2.0000      -0.331415        -9.0183
  65   2.0000      -0.324662        -8.8345
  66   2.0000      -0.296144        -8.0585
  67   0.0000       0.028937         0.7874
  68   0.0000       0.074043         2.0148
  69   0.0000       0.114674         3.1204
  70   0.0000       0.121265         3.2998
  71   0.0000       0.126934         3.4540

MULLIKEN ATOMIC CHARGES
-----------------------
   0 S :    0.120674
   1 C :   -0.115822
   2 C :   -0.105917
   3 C :    0.046960
   4 C :   -0.155787
   5 H :   -0.017862
   6 C :    0.048610
   7 H :    0.026230
   8 H :    0.048280
   9 C :   -0.090488
  10 H :    0.046502
  11 H :    0.035759
  12 C :   -0.049748
  13 H :    0.018562
  14 H :    0.031770
  15 H :    0.037529
  16 S :    0.105287
  17 C :   -0.107632
  18 C :   -0.041948
  19 C :   -0.095159
  20 C :   -0.154738
  21 H :    0.041872
  22 C :    0.140587
  23 H :    0.022136
  24 H :    0.024418
  25 C :   -0.083901
  26 H :    0.035699
  27 H :    0.021611
  28 C :   -0.031026
  29 H :    0.021521
  30 H :    0.032426
  31 H :    0.017441
  32 H :    0.054662
  33 H :    0.071493
Sum of atomic charges:   -0.0000000

LOEWDIN ATOMIC CHARGES
----------------------
   0 S :    0.416362
   1 C :   -0.207073
   2 C :   -0.071886
   3 C :   -0.060496
   4 C :   -0.194887
   5 H :    0.023235
   6 C :   -0.032610
   7 H :    0.034016
   8 H :    0.038452
   9 C :   -0.048871
  10 H :    0.031651
  11 H :    0.029205
  12 C :   -0.066139
  13 H :    0.020173
  14 H :    0.017028
  15 H :    0.033374
  16 S :    0.409376
  17 C :   -0.187549
  18 C :   -0.078333
  19 C :   -0.046197
  20 C :   -0.217828
  21 H :    0.040823
  22 C :   -0.028116
  23 H :    0.034750
  24 H :    0.027979
  25 C :   -0.027591
  26 H :    0.022236
  27 H :    0.018127
  28 C :   -0.061822
  29 H :    0.016065
  30 H :    0.029205
  31 H :    0.017674
  32 H :    0.031902
  33 H :    0.037766

  Mayer bond orders larger than 0.100000
B(  0-S ,  1-C ) :   1.1561 B(  0-S ,  4-C ) :   1.1631 B(  1-C ,  2-C ) :   1.5813
B(  1-C ,  4-C ) :   0.1065 B(  1-C , 32-H ) :   0.9588 B(  2-C ,  3-C ) :   1.2699
B(  2-C ,  6-C ) :   1.0174 B(  3-C ,  4-C ) :   1.5440 B(  3-C ,  5-H ) :   1.0027
B(  4-C , 20-C ) :   1.0387 B(  6-C ,  7-H ) :   0.9432 B(  6-C ,  8-H ) :   0.9436
B(  6-C ,  9-C ) :   1.0618 B(  9-C , 10-H ) :   0.9577 B(  9-C , 11-H ) :   0.9576
B(  9-C , 12-C ) :   1.0664 B( 12-C , 13-H ) :   0.9745 B( 12-C , 14-H ) :   0.9804
B( 12-C , 15-H ) :   0.9730 B( 16-S , 17-C ) :   1.1509 B( 16-S , 20-C ) :   1.1404
B( 17-C , 18-C ) :   1.6340 B( 17-C , 33-H ) :   0.9621 B( 18-C , 19-C ) :   1.2099
B( 18-C , 21-H ) :   0.9803 B( 19-C , 20-C ) :   1.5888 B( 19-C , 22-C ) :   1.0583
B( 22-C , 23-H ) :   0.9262 B( 22-C , 24-H ) :   0.9307 B( 22-C , 25-C ) :   1.0630
B( 25-C , 26-H ) :   0.9591 B( 25-C , 27-H ) :   0.9560 B( 25-C , 28-C ) :   1.0740
B( 28-C , 29-H ) :   0.9738 B( 28-C , 30-H ) :   0.9738 B( 28-C , 31-H ) :   0.9670

Dispersion correction           -0.015603968
FINAL SINGLE POINT ENERGY     -1339.878770140578

DIPOLE MOMENT
-------------
                                X             Y             Z
Electronic contribution:    -11.56689     -20.89745      13.24659
Nuclear contribution   :     11.76757      21.52266     -13.48223
                        -----------------------------------------
Total Dipole Moment    :      0.20068       0.62521      -0.23564
                        -----------------------------------------
Magnitude (a.u.)       :      0.69763
Magnitude (Debye)      :      1.77325

Rotational constants in cm-1:     0.020772     0.009199     0.007025
Rotational constants in MHz :   622.724604   275.773233   210.589447

                             ****ORCA TERMINATED NORMALLY****
TOTAL RUN TIME: 0 days 0 hours 0 minutes 32 seconds 104 msec
