                         Program Version 4.2.1 -  RELEASE  -
|  1> ! wB97X-D3 SP def2-SVP
|  2> %pal
|  3> nprocs 16
|  4> end
|  5>
|  6> * xyz 0 1
|  7> S 	 59.9468 	 6.56206 	 77.6289
|  8> C 	 59.3656 	 7.41555 	 79.0102
|  9> C 	 58.5469 	 8.50545 	 78.6168
| 10> C 	 58.334 	 8.52182 	 77.2116
| 11> C 	 58.8219 	 7.40323 	 76.554
| 12> H 	 57.789 	 9.25416 	 76.5637
| 13> C 	 58.0054 	 9.61901 	 79.5567
| 14> H 	 57.6149 	 9.24862 	 80.5509
| 15> H 	 57.0574 	 10.0633 	 79.1424
| 16> C 	 58.8816 	 10.8091 	 79.8977
| 17> H 	 59.699 	 10.4745 	 80.4084
| 18> H 	 59.3542 	 11.2674 	 79.0657
| 19> C 	 58.1486 	 11.9523 	 80.5545
| 20> H 	 57.6412 	 11.6116 	 81.4951
| 21> H 	 58.7868 	 12.8118 	 80.8184
| 22> H 	 57.3582 	 12.3927 	 79.9741
| 23> S 	 56.9685 	 7.47479 	 74.4931
| 24> C 	 57.2237 	 6.51639 	 73.0259
| 25> C 	 58.4366 	 5.85939 	 73.042
| 26> C 	 59.2185 	 6.19501 	 74.1885
| 27> C 	 58.5945 	 7.02649 	 75.1274
| 28> H 	 58.6613 	 5.12948 	 72.3025
| 29> C 	 60.6467 	 5.72167 	 74.3459
| 30> H 	 60.97 	 5.09222 	 73.5599
| 31> H 	 60.8026 	 5.21831 	 75.2701
| 32> C 	 61.6228 	 6.91631 	 74.383
| 33> H 	 61.2708 	 7.69285 	 75.0676
| 34> H 	 61.5561 	 7.43956 	 73.4369
| 35> C 	 63.0838 	 6.57611 	 74.5994
| 36> H 	 63.6367 	 6.14406 	 73.7801
| 37> H 	 63.2096 	 5.82949 	 75.427
| 38> H 	 63.5462 	 7.47271 	 74.8409
| 39> H 	 59.4181 	 7.21904 	 80.1147
| 40> H 	 56.406 	 6.257 	 72.4406
| 41> *
| 42>
| 43>                          ****END OF INPUT****

CARTESIAN COORDINATES (ANGSTROEM)
---------------------------------
  S     59.946800    6.562060   77.628900
  C     59.365600    7.415550   79.010200
  C     58.546900    8.505450   78.616800
  C     58.334000    8.521820   77.211600
  C     58.821900    7.403230   76.554000
  H     57.789000    9.254160   76.563700
  C     58.005400    9.619010   79.556700
  H     57.614900    9.248620   80.550900
  H     57.057400   10.063300   79.142400
  C     58.881600   10.809100   79.897700
  H     59.699000   10.474500   80.408400
  H     59.354200   11.267400   79.065700
  C     58.148600   11.952300   80.554500
  H     57.641200   11.611600   81.495100
  H     58.786800   12.811800   80.818400
  H     57.358200   12.392700   79.974100
  S     56.968500    7.474790   74.493100
  C     57.223700    6.516390   73.025900
  C     58.436600    5.859390   73.042000
  C     59.218500    6.195010   74.188500
  C     58.594500    7.026490   75.127400
  H     58.661300    5.129480   72.302500
  C     60.646700    5.721670   74.345900
  H     60.970000    5.092220   73.559900
  H     60.802600    5.218310   75.270100
  C     61.622800    6.916310   74.383000
  H     61.270800    7.692850   75.067600
  H     61.556100    7.439560   73.436900
  C     63.083800    6.576110   74.599400
  H     63.636700    6.144060   73.780100
  H     63.209600    5.829490   75.427000
  H     63.546200    7.472710   74.840900
  H     59.418100    7.219040   80.114700
  H     56.406000    6.257000   72.440600

 Total Charge           Charge          ....    0
 Multiplicity           Mult            ....    1
 Number of Electrons    NEL             ....  134
 Basis Dimension        Dim             ....  322

ORBITAL ENERGIES
----------------

  NO   OCC          E(Eh)            E(eV)
   0   2.0000     -88.974120     -2421.1089
   1   2.0000     -88.965973     -2420.8872
   2   2.0000     -10.339108      -281.3414
   3   2.0000     -10.338118      -281.3145
   4   2.0000     -10.322016      -280.8763
   5   2.0000     -10.316797      -280.7343
   6   2.0000     -10.310872      -280.5731
   7   2.0000     -10.308006      -280.4951
   8   2.0000     -10.301568      -280.3199
   9   2.0000     -10.299919      -280.2751
  10   2.0000     -10.297151      -280.1997
  11   2.0000     -10.284164      -279.8463
  12   2.0000     -10.279862      -279.7293
  13   2.0000     -10.278221      -279.6846
  14   2.0000     -10.273069      -279.5444
  15   2.0000     -10.269843      -279.4566
  16   2.0000      -8.088011      -220.0860
  17   2.0000      -8.079679      -219.8592
  18   2.0000      -6.046691      -164.5388
  19   2.0000      -6.042640      -164.4286
  20   2.0000      -6.038646      -164.3199
  21   2.0000      -6.038304      -164.3106
  22   2.0000      -6.034310      -164.2019
  23   2.0000      -6.030405      -164.0957
  24   2.0000      -1.004008       -27.3204
  25   2.0000      -0.982264       -26.7288
  26   2.0000      -0.912378       -24.8271
  27   2.0000      -0.909227       -24.7413
  28   2.0000      -0.869476       -23.6596
  29   2.0000      -0.853677       -23.2297
  30   2.0000      -0.846709       -23.0401
  31   2.0000      -0.814119       -22.1533
  32   2.0000      -0.782974       -21.3058
  33   2.0000      -0.771112       -20.9830
  34   2.0000      -0.708127       -19.2691
  35   2.0000      -0.703912       -19.1544
  36   2.0000      -0.690927       -18.8011
  37   2.0000      -0.673314       -18.3218
  38   2.0000      -0.634026       -17.2527
  39   2.0000      -0.618142       -16.8205
  40   2.0000      -0.600522       -16.3410
  41   2.0000      -0.573226       -15.5983
  42   2.0000      -0.566818       -15.4239
  43   2.0000      -0.558679       -15.2024
  44   2.0000      -0.526825       -14.3356
  45   2.0000      -0.521586       -14.1931
  46   2.0000      -0.519828       -14.1452
  47   2.0000      -0.516064       -14.0428
  48   2.0000      -0.507868       -13.8198
  49   2.0000      -0.493290       -13.4231
  50   2.0000      -0.491040       -13.3619
  51   2.0000      -0.484404       -13.1813
  52   2.0000      -0.472858       -12.8671
  53   2.0000      -0.460426       -12.5288
  54   2.0000      -0.459484       -12.5032
  55   2.0000      -0.451878       -12.2962
  56   2.0000      -0.447787       -12.1849
  57   2.0000      -0.439530       -11.9602
  58   2.0000      -0.431369       -11.7382
  59   2.0000      -0.427114       -11.6224
  60   2.0000      -0.417597       -11.3634
  61   2.0000      -0.409859       -11.1528
  62   2.0000      -0.408664       -11.1203
  63   2.0000      -0.360004        -9.7962
  64   2.0000      -0.332998        -9.0613
  65   2.0000      -0.331571        -9.0225
  66   2.0000      -0.281901        -7.6709
  67   0.0000       0.014386         0.3915
  68   0.0000       0.064987         1.7684
  69   0.0000       0.101477         2.7613
  70   0.0000       0.115048         3.1306
  71   0.0000       0.124789         3.3957

MULLIKEN ATOMIC CHARGES
-----------------------
   0 S :    0.114057
   1 C :   -0.108847
   2 C :   -0.068635
   3 C :   -0.012558
   4 C :   -0.122272
   5 H :    0.038525
   6 C :    0.003186
   7 H :    0.027581
   8 H :    0.022273
   9 C :    0.021166
  10 H :   -0.001950
  11 H :    0.009286
  12 C :   -0.074197
  13 H :    0.024610
  14 H :    0.038995
  15 H :    0.027904
  16 S :    0.071752
  17 C :   -0.067693
  18 C :   -0.013640
  19 C :   -0.067239
  20 C :   -0.131505
  21 H :    0.015635
  22 C :    0.104480
  23 H :    0.006434
  24 H :    0.021052
  25 C :   -0.113831
  26 H :    0.036379
  27 H :    0.018058
  28 C :   -0.008133
  29 H :    0.027843
  30 H :    0.024600
  31 H :    0.021234
  32 H :    0.069721
  33 H :    0.045728
Sum of atomic charges:   -0.0000000

LOEWDIN ATOMIC CHARGES
----------------------
   0 S :    0.421076
   1 C :   -0.219243
   2 C :   -0.061748
   3 C :   -0.075460
   4 C :   -0.184234
   5 H :    0.037610
   6 C :   -0.037195
   7 H :    0.033811
   8 H :    0.031760
   9 C :   -0.040262
  10 H :    0.011970
  11 H :    0.022908
  12 C :   -0.065997
  13 H :    0.024800
  14 H :    0.031544
  15 H :    0.022257
  16 S :    0.380950
  17 C :   -0.164283
  18 C :   -0.061108
  19 C :   -0.054692
  20 C :   -0.175648
  21 H :    0.031487
  22 C :   -0.028944
  23 H :    0.024568
  24 H :    0.017980
  25 C :   -0.042768
  26 H :    0.022336
  27 H :    0.023221
  28 C :   -0.061839
  29 H :    0.022848
  30 H :    0.027311
  31 H :    0.021476
  32 H :    0.047028
  33 H :    0.016479

  Mayer bond orders larger than 0.100000
B(  0-S ,  1-C ) :   1.1460 B(  0-S ,  4-C ) :   1.1405 B(  1-C ,  2-C ) :   1.5898
B(  1-C , 32-H ) :   0.9591 B(  2-C ,  3-C ) :   1.2597 B(  2-C ,  6-C ) :   1.0197
B(  3-C ,  4-C ) :   1.5476 B(  3-C ,  5-H ) :   0.9811 B(  4-C , 20-C ) :   1.0658
B(  6-C ,  7-H ) :   0.9428 B(  6-C ,  8-H ) :   0.9493 B(  6-C ,  9-C ) :   1.0612
B(  9-C , 10-H ) :   0.9472 B(  9-C , 11-H ) :   0.9465 B(  9-C , 12-C ) :   1.0831
B( 12-C , 13-H ) :   0.9742 B( 12-C , 14-H ) :   0.9723 B( 12-C , 15-H ) :   0.9739
B( 16-S , 17-C ) :   1.1537 B( 16-S , 20-C ) :   1.1255 B( 17-C , 18-C ) :   1.6022
B( 17-C , 33-H ) :   0.9699 B( 18-C , 19-C ) :   1.2515 B( 18-C , 21-H ) :   0.9974
B( 19-C , 20-C ) :   1.5700 B( 19-C , 22-C ) :   1.0519 B( 22-C , 23-H ) :   0.9339
B( 22-C , 24-H ) :   0.9290 B( 22-C , 25-C ) :   1.0606 B( 25-C , 26-H ) :   0.9599
B( 25-C , 27-H ) :   0.9472 B( 25-C , 28-C ) :   1.0838 B( 28-C , 29-H ) :   0.9746
B( 28-C , 30-H ) :   0.9726 B( 28-C , 31-H ) :   0.9700

Dispersion correction           -0.013962365
FINAL SINGLE POINT ENERGY     -1339.860652869887

DIPOLE MOMENT
-------------
                                X             Y             Z
Electronic contribution:    -11.01610     -12.37067      -8.94326
Nuclear contribution   :     11.12540      12.43888       8.95112
                        -----------------------------------------
Total Dipole Moment    :      0.10930       0.06821       0.00787
                        -----------------------------------------
Magnitude (a.u.)       :      0.12908
Magnitude (Debye)      :      0.32808

Rotational constants in cm-1:     0.020131     0.007804     0.006329
Rotational constants in MHz :   603.503824   233.955348   189.726395

                             ****ORCA TERMINATED NORMALLY****
TOTAL RUN TIME: 0 days 0 hours 0 minutes 30 seconds 662 msec
