                         Program Version 4.2.1 -  RELEASE  -
|  1> ! wB97X-D3 SP def2-SVP
|  2> %pal
|  3> nprocs 16
|  4> end
|  5>
|  6> * xyz 0 1
|  7> S 	 -55.9169 	 54.3414 	 136.285
|  8> C 	 -54.4385 	 54.6933 	 135.398
|  9> C 	 -53.9733 	 53.5353 	 134.807
| 10> C 	 -54.9992 	 52.5105 	 134.864
| 11> C 	 -56.1196 	 52.7883 	 135.615
| 12> H 	 -55.0033 	 51.4838 	 134.364
| 13> C 	 -52.7037 	 53.3751 	 133.988
| 14> H 	 -52.4439 	 52.3372 	 133.792
| 15> H 	 -51.8197 	 53.7079 	 134.56
| 16> C 	 -52.8137 	 53.994 	 132.618
| 17> H 	 -52.858 	 55.1516 	 132.689
| 18> H 	 -51.896 	 53.7354 	 132.117
| 19> C 	 -54.0706 	 53.4731 	 131.795
| 20> H 	 -53.9834 	 52.3866 	 131.716
| 21> H 	 -54.9734 	 53.7732 	 132.298
| 22> H 	 -53.9939 	 53.8641 	 130.713
| 23> S 	 -57.568 	 50.7937 	 134.522
| 24> C 	 -58.778 	 49.955 	 135.487
| 25> C 	 -58.902 	 50.4717 	 136.751
| 26> C 	 -58.0449 	 51.6411 	 136.927
| 27> C 	 -57.2362 	 51.8705 	 135.824
| 28> H 	 -59.5907 	 50.0768 	 137.405
| 29> C 	 -57.8412 	 52.2763 	 138.298
| 30> H 	 -58.8282 	 52.6094 	 138.527
| 31> H 	 -57.1605 	 53.1517 	 138.244
| 32> C 	 -57.3503 	 51.3592 	 139.471
| 33> H 	 -56.3663 	 50.8784 	 139.224
| 34> H 	 -58.0973 	 50.5202 	 139.469
| 35> C 	 -57.3501 	 52.0333 	 140.88
| 36> H 	 -58.3308 	 52.3799 	 141.156
| 37> H 	 -56.6995 	 52.9519 	 140.71
| 38> H 	 -57.0354 	 51.3939 	 141.664
| 39> H 	 -53.9351 	 55.6411 	 135.336
| 40> H 	 -59.4534 	 49.2248 	 135.199
| 41> *
| 42>
| 43>                          ****END OF INPUT****

CARTESIAN COORDINATES (ANGSTROEM)
---------------------------------
  S    -55.916900   54.341400  136.285000
  C    -54.438500   54.693300  135.398000
  C    -53.973300   53.535300  134.807000
  C    -54.999200   52.510500  134.864000
  C    -56.119600   52.788300  135.615000
  H    -55.003300   51.483800  134.364000
  C    -52.703700   53.375100  133.988000
  H    -52.443900   52.337200  133.792000
  H    -51.819700   53.707900  134.560000
  C    -52.813700   53.994000  132.618000
  H    -52.858000   55.151600  132.689000
  H    -51.896000   53.735400  132.117000
  C    -54.070600   53.473100  131.795000
  H    -53.983400   52.386600  131.716000
  H    -54.973400   53.773200  132.298000
  H    -53.993900   53.864100  130.713000
  S    -57.568000   50.793700  134.522000
  C    -58.778000   49.955000  135.487000
  C    -58.902000   50.471700  136.751000
  C    -58.044900   51.641100  136.927000
  C    -57.236200   51.870500  135.824000
  H    -59.590700   50.076800  137.405000
  C    -57.841200   52.276300  138.298000
  H    -58.828200   52.609400  138.527000
  H    -57.160500   53.151700  138.244000
  C    -57.350300   51.359200  139.471000
  H    -56.366300   50.878400  139.224000
  H    -58.097300   50.520200  139.469000
  C    -57.350100   52.033300  140.880000
  H    -58.330800   52.379900  141.156000
  H    -56.699500   52.951900  140.710000
  H    -57.035400   51.393900  141.664000
  H    -53.935100   55.641100  135.336000
  H    -59.453400   49.224800  135.199000

 Total Charge           Charge          ....    0
 Multiplicity           Mult            ....    1
 Number of Electrons    NEL             ....  134
 Basis Dimension        Dim             ....  322

ORBITAL ENERGIES
----------------

  NO   OCC          E(Eh)            E(eV)
   0   2.0000     -88.969121     -2420.9729
   1   2.0000     -88.966512     -2420.9019
   2   2.0000     -10.328813      -281.0613
   3   2.0000     -10.327107      -281.0149
   4   2.0000     -10.315615      -280.7022
   5   2.0000     -10.313119      -280.6342
   6   2.0000     -10.305980      -280.4400
   7   2.0000     -10.305691      -280.4321
   8   2.0000     -10.296272      -280.1758
   9   2.0000     -10.294922      -280.1391
  10   2.0000     -10.292889      -280.0837
  11   2.0000     -10.292498      -280.0731
  12   2.0000     -10.292432      -280.0713
  13   2.0000     -10.291805      -280.0542
  14   2.0000     -10.283313      -279.8232
  15   2.0000     -10.281573      -279.7758
  16   2.0000      -8.083927      -219.9748
  17   2.0000      -8.081339      -219.9044
  18   2.0000      -6.042537      -164.4258
  19   2.0000      -6.039950      -164.3554
  20   2.0000      -6.038459      -164.3148
  21   2.0000      -6.035765      -164.2415
  22   2.0000      -6.034544      -164.2083
  23   2.0000      -6.032027      -164.1398
  24   2.0000      -1.012412       -27.5491
  25   2.0000      -0.987708       -26.8769
  26   2.0000      -0.913429       -24.8557
  27   2.0000      -0.901389       -24.5280
  28   2.0000      -0.873813       -23.7777
  29   2.0000      -0.848856       -23.0985
  30   2.0000      -0.834850       -22.7174
  31   2.0000      -0.816689       -22.2232
  32   2.0000      -0.783745       -21.3268
  33   2.0000      -0.772985       -21.0340
  34   2.0000      -0.705947       -19.2098
  35   2.0000      -0.697452       -18.9786
  36   2.0000      -0.692212       -18.8360
  37   2.0000      -0.669294       -18.2124
  38   2.0000      -0.634885       -17.2761
  39   2.0000      -0.610623       -16.6159
  40   2.0000      -0.593412       -16.1476
  41   2.0000      -0.581679       -15.8283
  42   2.0000      -0.561291       -15.2735
  43   2.0000      -0.547055       -14.8861
  44   2.0000      -0.542386       -14.7591
  45   2.0000      -0.524750       -14.2792
  46   2.0000      -0.519546       -14.1376
  47   2.0000      -0.517246       -14.0750
  48   2.0000      -0.503215       -13.6932
  49   2.0000      -0.496568       -13.5123
  50   2.0000      -0.491345       -13.3702
  51   2.0000      -0.473388       -12.8815
  52   2.0000      -0.470910       -12.8141
  53   2.0000      -0.464923       -12.6512
  54   2.0000      -0.460303       -12.5255
  55   2.0000      -0.452107       -12.3024
  56   2.0000      -0.441836       -12.0230
  57   2.0000      -0.438440       -11.9306
  58   2.0000      -0.431908       -11.7528
  59   2.0000      -0.424358       -11.5474
  60   2.0000      -0.416096       -11.3225
  61   2.0000      -0.411210       -11.1896
  62   2.0000      -0.404752       -11.0139
  63   2.0000      -0.361142        -9.8272
  64   2.0000      -0.332266        -9.0414
  65   2.0000      -0.327978        -8.9247
  66   2.0000      -0.287831        -7.8323
  67   0.0000       0.027410         0.7459
  68   0.0000       0.079073         2.1517
  69   0.0000       0.104150         2.8341
  70   0.0000       0.121690         3.3114
  71   0.0000       0.129731         3.5302

MULLIKEN ATOMIC CHARGES
-----------------------
   0 S :    0.105304
   1 C :   -0.124906
   2 C :   -0.069787
   3 C :   -0.061183
   4 C :   -0.103053
   5 H :    0.038963
   6 C :    0.069874
   7 H :    0.017192
   8 H :    0.036014
   9 C :   -0.100456
  10 H :    0.038213
  11 H :    0.027516
  12 C :   -0.076108
  13 H :    0.029403
  14 H :    0.063207
  15 H :    0.049374
  16 S :    0.103917
  17 C :   -0.050495
  18 C :   -0.019888
  19 C :   -0.054289
  20 C :   -0.122516
  21 H :   -0.005268
  22 C :    0.055435
  23 H :    0.019514
  24 H :    0.024327
  25 C :   -0.109751
  26 H :    0.047182
  27 H :    0.022363
  28 C :   -0.031265
  29 H :    0.022696
  30 H :    0.043084
  31 H :    0.039612
  32 H :    0.048308
  33 H :    0.027469
Sum of atomic charges:   -0.0000000

LOEWDIN ATOMIC CHARGES
----------------------
   0 S :    0.428730
   1 C :   -0.193146
   2 C :   -0.059371
   3 C :   -0.088042
   4 C :   -0.209833
   5 H :    0.031631
   6 C :   -0.040096
   7 H :    0.030283
   8 H :    0.035530
   9 C :   -0.041792
  10 H :    0.025983
  11 H :    0.019232
  12 C :   -0.066469
  13 H :    0.022036
  14 H :    0.026433
  15 H :    0.036898
  16 S :    0.420812
  17 C :   -0.170170
  18 C :   -0.052419
  19 C :   -0.058413
  20 C :   -0.194369
  21 H :    0.019016
  22 C :   -0.037132
  23 H :    0.027619
  24 H :    0.016277
  25 C :   -0.043186
  26 H :    0.029644
  27 H :    0.019410
  28 C :   -0.062870
  29 H :    0.021417
  30 H :    0.035649
  31 H :    0.023669
  32 H :    0.029348
  33 H :    0.017692

  Mayer bond orders larger than 0.100000
B(  0-S ,  1-C ) :   1.1381 B(  0-S ,  4-C ) :   1.1462 B(  1-C ,  2-C ) :   1.5952
B(  1-C , 32-H ) :   0.9757 B(  2-C ,  3-C ) :   1.2374 B(  2-C ,  6-C ) :   1.0295
B(  3-C ,  4-C ) :   1.5704 B(  3-C ,  5-H ) :   0.9717 B(  4-C , 20-C ) :   1.0481
B(  6-C ,  7-H ) :   0.9397 B(  6-C ,  8-H ) :   0.9369 B(  6-C ,  9-C ) :   1.0768
B(  9-C , 10-H ) :   0.9574 B(  9-C , 11-H ) :   0.9576 B(  9-C , 12-C ) :   1.0643
B( 12-C , 13-H ) :   0.9754 B( 12-C , 14-H ) :   0.9718 B( 12-C , 15-H ) :   0.9744
B( 16-S , 17-C ) :   1.1326 B( 16-S , 20-C ) :   1.1371 B( 17-C , 18-C ) :   1.6491
B( 17-C , 33-H ) :   0.9723 B( 18-C , 19-C ) :   1.2053 B( 18-C , 21-H ) :   0.9993
B( 19-C , 20-C ) :   1.6021 B( 19-C , 22-C ) :   1.0509 B( 22-C , 23-H ) :   0.9225
B( 22-C , 24-H ) :   0.9366 B( 22-C , 25-C ) :   1.0553 B( 25-C , 26-H ) :   0.9591
B( 25-C , 27-H ) :   0.9532 B( 25-C , 28-C ) :   1.0720 B( 28-C , 29-H ) :   0.9748
B( 28-C , 30-H ) :   0.9769 B( 28-C , 31-H ) :   0.9751

Dispersion correction           -0.014423957
FINAL SINGLE POINT ENERGY     -1339.874543715318

DIPOLE MOMENT
-------------
                                X             Y             Z
Electronic contribution:     -8.40536      -0.96315      -4.54805
Nuclear contribution   :      8.55838       0.76420       4.66547
                        -----------------------------------------
Total Dipole Moment    :      0.15302      -0.19895       0.11742
                        -----------------------------------------
Magnitude (a.u.)       :      0.27710
Magnitude (Debye)      :      0.70433

Rotational constants in cm-1:     0.021536     0.008405     0.006550
Rotational constants in MHz :   645.640628   251.968004   196.353798

                             ****ORCA TERMINATED NORMALLY****
TOTAL RUN TIME: 0 days 0 hours 0 minutes 34 seconds 570 msec
