                         Program Version 4.2.1 -  RELEASE  -
|  1> ! wB97X-D3 SP def2-SVP
|  2> %pal
|  3> nprocs 16
|  4> end
|  5>
|  6> * xyz 0 1
|  7> S 	 -102.806 	 48.8716 	 119.345
|  8> C 	 -104.123 	 47.7933 	 118.724
|  9> C 	 -103.98 	 47.6059 	 117.373
| 10> C 	 -102.944 	 48.4354 	 116.828
| 11> C 	 -102.255 	 49.2018 	 117.719
| 12> H 	 -102.682 	 48.5561 	 115.777
| 13> C 	 -104.658 	 46.5604 	 116.524
| 14> H 	 -103.926 	 46.2011 	 115.777
| 15> H 	 -105.426 	 47.0343 	 115.964
| 16> C 	 -105.241 	 45.3189 	 117.191
| 17> H 	 -104.515 	 44.8112 	 117.832
| 18> H 	 -106.011 	 45.6283 	 117.899
| 19> C 	 -106.005 	 44.5073 	 116.155
| 20> H 	 -106.562 	 43.6621 	 116.647
| 21> H 	 -106.919 	 45.1105 	 115.817
| 22> H 	 -105.47 	 44.1582 	 115.307
| 23> S 	 -99.6869 	 49.44 	 116.973
| 24> C 	 -98.8478 	 50.9435 	 117.278
| 25> C 	 -99.7645 	 51.928 	 117.549
| 26> C 	 -101.145 	 51.4803 	 117.73
| 27> C 	 -101.154 	 50.1244 	 117.452
| 28> H 	 -99.4283 	 52.9246 	 117.834
| 29> C 	 -102.282 	 52.3445 	 118.107
| 30> H 	 -101.917 	 53.4043 	 118.125
| 31> H 	 -102.582 	 52.0679 	 119.187
| 32> C 	 -103.537 	 52.3125 	 117.23
| 33> H 	 -104.231 	 52.9526 	 117.805
| 34> H 	 -104.039 	 51.2797 	 117.096
| 35> C 	 -103.27 	 52.8628 	 115.812
| 36> H 	 -102.966 	 53.9686 	 115.885
| 37> H 	 -104.141 	 52.6741 	 115.165
| 38> H 	 -102.537 	 52.1898 	 115.326
| 39> H 	 -104.746 	 47.1539 	 119.418
| 40> H 	 -97.7951 	 51.0944 	 117.124
| 41> *
| 42>
| 43>                          ****END OF INPUT****

CARTESIAN COORDINATES (ANGSTROEM)
---------------------------------
  S    -102.806000   48.871600  119.345000
  C    -104.123000   47.793300  118.724000
  C    -103.980000   47.605900  117.373000
  C    -102.944000   48.435400  116.828000
  C    -102.255000   49.201800  117.719000
  H    -102.682000   48.556100  115.777000
  C    -104.658000   46.560400  116.524000
  H    -103.926000   46.201100  115.777000
  H    -105.426000   47.034300  115.964000
  C    -105.241000   45.318900  117.191000
  H    -104.515000   44.811200  117.832000
  H    -106.011000   45.628300  117.899000
  C    -106.005000   44.507300  116.155000
  H    -106.562000   43.662100  116.647000
  H    -106.919000   45.110500  115.817000
  H    -105.470000   44.158200  115.307000
  S    -99.686900   49.440000  116.973000
  C    -98.847800   50.943500  117.278000
  C    -99.764500   51.928000  117.549000
  C    -101.145000   51.480300  117.730000
  C    -101.154000   50.124400  117.452000
  H    -99.428300   52.924600  117.834000
  C    -102.282000   52.344500  118.107000
  H    -101.917000   53.404300  118.125000
  H    -102.582000   52.067900  119.187000
  C    -103.537000   52.312500  117.230000
  H    -104.231000   52.952600  117.805000
  H    -104.039000   51.279700  117.096000
  C    -103.270000   52.862800  115.812000
  H    -102.966000   53.968600  115.885000
  H    -104.141000   52.674100  115.165000
  H    -102.537000   52.189800  115.326000
  H    -104.746000   47.153900  119.418000
  H    -97.795100   51.094400  117.124000

 Total Charge           Charge          ....    0
 Multiplicity           Mult            ....    1
 Number of Electrons    NEL             ....  134
 Basis Dimension        Dim             ....  322

ORBITAL ENERGIES
----------------

  NO   OCC          E(Eh)            E(eV)
   0   2.0000     -88.965695     -2420.8796
   1   2.0000     -88.962006     -2420.7793
   2   2.0000     -10.325057      -280.9591
   3   2.0000     -10.320323      -280.8303
   4   2.0000     -10.318647      -280.7847
   5   2.0000     -10.314940      -280.6838
   6   2.0000     -10.302345      -280.3411
   7   2.0000     -10.302008      -280.3319
   8   2.0000     -10.298503      -280.2365
   9   2.0000     -10.295289      -280.1491
  10   2.0000     -10.290199      -280.0106
  11   2.0000     -10.289877      -280.0018
  12   2.0000     -10.289692      -279.9968
  13   2.0000     -10.288790      -279.9722
  14   2.0000     -10.286895      -279.9206
  15   2.0000     -10.282179      -279.7923
  16   2.0000      -8.081651      -219.9129
  17   2.0000      -8.075892      -219.7562
  18   2.0000      -6.040070      -164.3587
  19   2.0000      -6.035972      -164.2472
  20   2.0000      -6.034532      -164.2080
  21   2.0000      -6.032449      -164.1513
  22   2.0000      -6.030606      -164.1011
  23   2.0000      -6.026472      -163.9886
  24   2.0000      -1.010812       -27.5056
  25   2.0000      -0.982913       -26.7464
  26   2.0000      -0.916060       -24.9272
  27   2.0000      -0.908451       -24.7202
  28   2.0000      -0.869550       -23.6617
  29   2.0000      -0.848629       -23.0924
  30   2.0000      -0.842084       -22.9143
  31   2.0000      -0.812578       -22.1114
  32   2.0000      -0.780529       -21.2393
  33   2.0000      -0.770009       -20.9530
  34   2.0000      -0.711635       -19.3646
  35   2.0000      -0.699924       -19.0459
  36   2.0000      -0.679358       -18.4863
  37   2.0000      -0.664000       -18.0684
  38   2.0000      -0.636933       -17.3318
  39   2.0000      -0.609783       -16.5930
  40   2.0000      -0.588536       -16.0149
  41   2.0000      -0.575020       -15.6471
  42   2.0000      -0.565954       -15.4004
  43   2.0000      -0.552577       -15.0364
  44   2.0000      -0.542344       -14.7579
  45   2.0000      -0.519233       -14.1290
  46   2.0000      -0.516494       -14.0545
  47   2.0000      -0.511367       -13.9150
  48   2.0000      -0.502535       -13.6747
  49   2.0000      -0.494988       -13.4693
  50   2.0000      -0.487402       -13.2629
  51   2.0000      -0.478903       -13.0316
  52   2.0000      -0.471944       -12.8422
  53   2.0000      -0.462474       -12.5846
  54   2.0000      -0.456108       -12.4113
  55   2.0000      -0.451624       -12.2893
  56   2.0000      -0.437641       -11.9088
  57   2.0000      -0.432568       -11.7708
  58   2.0000      -0.426819       -11.6143
  59   2.0000      -0.424153       -11.5418
  60   2.0000      -0.417578       -11.3629
  61   2.0000      -0.415535       -11.3073
  62   2.0000      -0.414273       -11.2730
  63   2.0000      -0.339448        -9.2368
  64   2.0000      -0.328651        -8.9430
  65   2.0000      -0.323805        -8.8112
  66   2.0000      -0.303945        -8.2708
  67   0.0000       0.041662         1.1337
  68   0.0000       0.063666         1.7325
  69   0.0000       0.107536         2.9262
  70   0.0000       0.115358         3.1390
  71   0.0000       0.128175         3.4878

MULLIKEN ATOMIC CHARGES
-----------------------
   0 S :    0.094956
   1 C :   -0.166654
   2 C :   -0.043473
   3 C :    0.005834
   4 C :   -0.146787
   5 H :    0.009876
   6 C :    0.060633
   7 H :    0.033555
   8 H :    0.024278
   9 C :   -0.075879
  10 H :    0.038350
  11 H :    0.022501
  12 C :   -0.068537
  13 H :    0.036249
  14 H :    0.034952
  15 H :    0.037685
  16 S :    0.130714
  17 C :   -0.098009
  18 C :   -0.024088
  19 C :   -0.040842
  20 C :   -0.182910
  21 H :    0.018521
  22 C :    0.046163
  23 H :    0.022820
  24 H :    0.055337
  25 C :   -0.099119
  26 H :    0.032621
  27 H :    0.060901
  28 C :   -0.073009
  29 H :    0.048558
  30 H :    0.035001
  31 H :    0.042501
  32 H :    0.072245
  33 H :    0.055055
Sum of atomic charges:   -0.0000000

LOEWDIN ATOMIC CHARGES
----------------------
   0 S :    0.375706
   1 C :   -0.192396
   2 C :   -0.062238
   3 C :   -0.073779
   4 C :   -0.187424
   5 H :    0.031120
   6 C :   -0.032037
   7 H :    0.036100
   8 H :    0.029512
   9 C :   -0.046155
  10 H :    0.024991
  11 H :    0.024064
  12 C :   -0.067849
  13 H :    0.032609
  14 H :    0.035523
  15 H :    0.017624
  16 S :    0.436863
  17 C :   -0.188460
  18 C :   -0.066609
  19 C :   -0.058113
  20 C :   -0.224680
  21 H :    0.028614
  22 C :   -0.046137
  23 H :    0.035763
  24 H :    0.044999
  25 C :   -0.050224
  26 H :    0.025129
  27 H :    0.037765
  28 C :   -0.078152
  29 H :    0.033428
  30 H :    0.027355
  31 H :    0.029629
  32 H :    0.039004
  33 H :    0.028454

  Mayer bond orders larger than 0.100000
B(  0-S ,  1-C ) :   1.1095 B(  0-S ,  4-C ) :   1.1365 B(  1-C ,  2-C ) :   1.6487
B(  1-C , 32-H ) :   0.9568 B(  2-C ,  3-C ) :   1.2070 B(  2-C ,  6-C ) :   1.0023
B(  3-C ,  4-C ) :   1.6227 B(  3-C ,  5-H ) :   0.9961 B(  4-C , 20-C ) :   1.0084
B(  6-C ,  7-H ) :   0.9491 B(  6-C ,  8-H ) :   0.9281 B(  6-C ,  9-C ) :   1.0777
B(  9-C , 10-H ) :   0.9591 B(  9-C , 11-H ) :   0.9433 B(  9-C , 12-C ) :   1.0813
B( 12-C , 13-H ) :   0.9716 B( 12-C , 14-H ) :   0.9711 B( 12-C , 15-H ) :   0.9795
B( 16-S , 17-C ) :   1.1452 B( 16-S , 20-C ) :   1.1741 B( 17-C , 18-C ) :   1.6213
B( 17-C , 33-H ) :   0.9710 B( 18-C , 19-C ) :   1.2328 B( 18-C , 21-H ) :   0.9803
B( 19-C , 20-C ) :   1.5691 B( 19-C , 22-C ) :   1.0560 B( 22-C , 23-H ) :   0.9309
B( 22-C , 24-H ) :   0.9156 B( 22-C , 25-C ) :   1.0698 B( 25-C , 26-H ) :   0.9538
B( 25-C , 27-H ) :   0.9510 B( 25-C , 28-C ) :   1.0709 B( 28-C , 29-H ) :   0.9723
B( 28-C , 30-H ) :   0.9732 B( 28-C , 31-H ) :   0.9717

Dispersion correction           -0.014975676
FINAL SINGLE POINT ENERGY     -1339.883597673487

DIPOLE MOMENT
-------------
                                X             Y             Z
Electronic contribution:     19.99483       2.52098       9.55367
Nuclear contribution   :    -20.26535      -2.55496      -9.77938
                        -----------------------------------------
Total Dipole Moment    :     -0.27052      -0.03398      -0.22571
                        -----------------------------------------
Magnitude (a.u.)       :      0.35395
Magnitude (Debye)      :      0.89967

Rotational constants in cm-1:     0.023077     0.007535     0.006840
Rotational constants in MHz :   691.838749   225.892099   205.058731

                             ****ORCA TERMINATED NORMALLY****
TOTAL RUN TIME: 0 days 0 hours 0 minutes 33 seconds 396 msec
