                         Program Version 4.2.1 -  RELEASE  -
|  1> ! wB97X-D3 SP def2-SVP
|  2> %pal
|  3> nprocs 16
|  4> end
|  5>
|  6> * xyz 0 1
|  7> S 	 -29.2083 	 60.2974 	 106.458
|  8> C 	 -28.6468 	 60.9019 	 107.958
|  9> C 	 -29.5274 	 61.7652 	 108.596
| 10> C 	 -30.7503 	 61.9612 	 107.819
| 11> C 	 -30.7812 	 61.1881 	 106.681
| 12> H 	 -31.5669 	 62.572 	 108.091
| 13> C 	 -29.1722 	 62.4349 	 109.918
| 14> H 	 -28.4676 	 61.8255 	 110.393
| 15> H 	 -30.1376 	 62.4073 	 110.405
| 16> C 	 -28.5841 	 63.8621 	 109.977
| 17> H 	 -29.2761 	 64.5639 	 109.443
| 18> H 	 -28.6686 	 64.222 	 111.039
| 19> C 	 -27.1916 	 64.0921 	 109.553
| 20> H 	 -26.4375 	 63.8247 	 110.315
| 21> H 	 -26.8728 	 63.566 	 108.615
| 22> H 	 -26.9938 	 65.255 	 109.413
| 23> S 	 -32.8053 	 59.4197 	 106.202
| 24> C 	 -34.0603 	 59.8568 	 105.109
| 25> C 	 -33.8531 	 61.0722 	 104.484
| 26> C 	 -32.6711 	 61.7143 	 105.007
| 27> C 	 -31.9538 	 60.9237 	 105.874
| 28> H 	 -34.625 	 61.5054 	 103.826
| 29> C 	 -32.2194 	 63.0162 	 104.509
| 30> H 	 -31.2374 	 63.1589 	 104.912
| 31> H 	 -32.8225 	 63.8791 	 104.881
| 32> C 	 -32.2677 	 63.3549 	 103.027
| 33> H 	 -33.2085 	 63.3185 	 102.594
| 34> H 	 -31.7188 	 62.5887 	 102.513
| 35> C 	 -31.8594 	 64.8264 	 102.695
| 36> H 	 -30.7661 	 64.9984 	 102.775
| 37> H 	 -32.2974 	 65.4958 	 103.408
| 38> H 	 -32.1001 	 65.0233 	 101.63
| 39> H 	 -27.6528 	 60.7578 	 108.289
| 40> H 	 -34.9668 	 59.3256 	 104.904
| 41> *
| 42>
| 43>                          ****END OF INPUT****

CARTESIAN COORDINATES (ANGSTROEM)
---------------------------------
  S    -29.208300   60.297400  106.458000
  C    -28.646800   60.901900  107.958000
  C    -29.527400   61.765200  108.596000
  C    -30.750300   61.961200  107.819000
  C    -30.781200   61.188100  106.681000
  H    -31.566900   62.572000  108.091000
  C    -29.172200   62.434900  109.918000
  H    -28.467600   61.825500  110.393000
  H    -30.137600   62.407300  110.405000
  C    -28.584100   63.862100  109.977000
  H    -29.276100   64.563900  109.443000
  H    -28.668600   64.222000  111.039000
  C    -27.191600   64.092100  109.553000
  H    -26.437500   63.824700  110.315000
  H    -26.872800   63.566000  108.615000
  H    -26.993800   65.255000  109.413000
  S    -32.805300   59.419700  106.202000
  C    -34.060300   59.856800  105.109000
  C    -33.853100   61.072200  104.484000
  C    -32.671100   61.714300  105.007000
  C    -31.953800   60.923700  105.874000
  H    -34.625000   61.505400  103.826000
  C    -32.219400   63.016200  104.509000
  H    -31.237400   63.158900  104.912000
  H    -32.822500   63.879100  104.881000
  C    -32.267700   63.354900  103.027000
  H    -33.208500   63.318500  102.594000
  H    -31.718800   62.588700  102.513000
  C    -31.859400   64.826400  102.695000
  H    -30.766100   64.998400  102.775000
  H    -32.297400   65.495800  103.408000
  H    -32.100100   65.023300  101.630000
  H    -27.652800   60.757800  108.289000
  H    -34.966800   59.325600  104.904000

 Total Charge           Charge          ....    0
 Multiplicity           Mult            ....    1
 Number of Electrons    NEL             ....  134
 Basis Dimension        Dim             ....  322

ORBITAL ENERGIES
----------------

  NO   OCC          E(Eh)            E(eV)
   0   2.0000     -88.965145     -2420.8647
   1   2.0000     -88.964310     -2420.8419
   2   2.0000     -10.331660      -281.1388
   3   2.0000     -10.321614      -280.8654
   4   2.0000     -10.313792      -280.6526
   5   2.0000     -10.310529      -280.5637
   6   2.0000     -10.303206      -280.3645
   7   2.0000     -10.300384      -280.2877
   8   2.0000     -10.298619      -280.2397
   9   2.0000     -10.293336      -280.0959
  10   2.0000     -10.291892      -280.0566
  11   2.0000     -10.289054      -279.9794
  12   2.0000     -10.289008      -279.9781
  13   2.0000     -10.282541      -279.8022
  14   2.0000     -10.281741      -279.7804
  15   2.0000     -10.277316      -279.6600
  16   2.0000      -8.079688      -219.8595
  17   2.0000      -8.079545      -219.8556
  18   2.0000      -6.038134      -164.3060
  19   2.0000      -6.038022      -164.3029
  20   2.0000      -6.034293      -164.2015
  21   2.0000      -6.033997      -164.1934
  22   2.0000      -6.030456      -164.0971
  23   2.0000      -6.030286      -164.0924
  24   2.0000      -1.005324       -27.3563
  25   2.0000      -0.981904       -26.7190
  26   2.0000      -0.912491       -24.8301
  27   2.0000      -0.910560       -24.7776
  28   2.0000      -0.872938       -23.7539
  29   2.0000      -0.851826       -23.1794
  30   2.0000      -0.849616       -23.1192
  31   2.0000      -0.817528       -22.2461
  32   2.0000      -0.781652       -21.2698
  33   2.0000      -0.769106       -20.9285
  34   2.0000      -0.709121       -19.2962
  35   2.0000      -0.701539       -19.0898
  36   2.0000      -0.689764       -18.7694
  37   2.0000      -0.656514       -17.8647
  38   2.0000      -0.647251       -17.6126
  39   2.0000      -0.619855       -16.8671
  40   2.0000      -0.599926       -16.3248
  41   2.0000      -0.567847       -15.4519
  42   2.0000      -0.564591       -15.3633
  43   2.0000      -0.552361       -15.0305
  44   2.0000      -0.543891       -14.8000
  45   2.0000      -0.526892       -14.3375
  46   2.0000      -0.517638       -14.0856
  47   2.0000      -0.516366       -14.0510
  48   2.0000      -0.500571       -13.6212
  49   2.0000      -0.496997       -13.5240
  50   2.0000      -0.487451       -13.2642
  51   2.0000      -0.476406       -12.9637
  52   2.0000      -0.471444       -12.8287
  53   2.0000      -0.463540       -12.6136
  54   2.0000      -0.458338       -12.4720
  55   2.0000      -0.450401       -12.2560
  56   2.0000      -0.449455       -12.2303
  57   2.0000      -0.439801       -11.9676
  58   2.0000      -0.430617       -11.7177
  59   2.0000      -0.425184       -11.5698
  60   2.0000      -0.419644       -11.4191
  61   2.0000      -0.414705       -11.2847
  62   2.0000      -0.404465       -11.0061
  63   2.0000      -0.344415        -9.3720
  64   2.0000      -0.326478        -8.8839
  65   2.0000      -0.321302        -8.7431
  66   2.0000      -0.302449        -8.2301
  67   0.0000       0.041546         1.1305
  68   0.0000       0.056518         1.5379
  69   0.0000       0.114716         3.1216
  70   0.0000       0.121638         3.3099
  71   0.0000       0.125955         3.4274

MULLIKEN ATOMIC CHARGES
-----------------------
   0 S :    0.108579
   1 C :   -0.096834
   2 C :   -0.123172
   3 C :    0.078628
   4 C :   -0.196284
   5 H :    0.004096
   6 C :    0.111248
   7 H :    0.005373
   8 H :    0.025905
   9 C :   -0.065877
  10 H :    0.027431
  11 H :    0.034145
  12 C :   -0.100008
  13 H :    0.033639
  14 H :    0.045362
  15 H :    0.047481
  16 S :    0.123961
  17 C :   -0.077870
  18 C :   -0.050890
  19 C :   -0.008430
  20 C :   -0.164827
  21 H :    0.032817
  22 C :    0.070581
  23 H :    0.018437
  24 H :    0.019376
  25 C :   -0.060997
  26 H :    0.010655
  27 H :    0.023629
  28 C :   -0.062936
  29 H :    0.033367
  30 H :    0.027395
  31 H :    0.043369
  32 H :    0.036064
  33 H :    0.046590
Sum of atomic charges:    0.0000000

LOEWDIN ATOMIC CHARGES
----------------------
   0 S :    0.388461
   1 C :   -0.196907
   2 C :   -0.064759
   3 C :   -0.040340
   4 C :   -0.182014
   5 H :    0.028425
   6 C :   -0.027024
   7 H :    0.022639
   8 H :    0.035417
   9 C :   -0.054252
  10 H :    0.025889
  11 H :    0.033128
  12 C :   -0.083752
  13 H :    0.024210
  14 H :    0.028165
  15 H :    0.042701
  16 S :    0.418275
  17 C :   -0.186368
  18 C :   -0.076917
  19 C :   -0.052004
  20 C :   -0.206197
  21 H :    0.037297
  22 C :   -0.039465
  23 H :    0.027873
  24 H :    0.035176
  25 C :   -0.035740
  26 H :    0.012976
  27 H :    0.021000
  28 C :   -0.061317
  29 H :    0.026226
  30 H :    0.020816
  31 H :    0.032289
  32 H :    0.019073
  33 H :    0.027020

  Mayer bond orders larger than 0.100000
B(  0-S ,  1-C ) :   1.1459 B(  0-S ,  4-C ) :   1.1244 B(  1-C ,  2-C ) :   1.6234
B(  1-C , 32-H ) :   0.9672 B(  2-C ,  3-C ) :   1.2138 B(  2-C ,  6-C ) :   1.0227
B(  3-C ,  4-C ) :   1.6053 B(  3-C ,  5-H ) :   0.9989 B(  4-C , 20-C ) :   1.0231
B(  6-C ,  7-H ) :   0.9398 B(  6-C ,  8-H ) :   0.9307 B(  6-C ,  9-C ) :   1.0724
B(  9-C , 10-H ) :   0.9554 B(  9-C , 11-H ) :   0.9486 B(  9-C , 12-C ) :   1.0823
B( 12-C , 13-H ) :   0.9714 B( 12-C , 14-H ) :   0.9743 B( 12-C , 15-H ) :   0.9697
B( 16-S , 17-C ) :   1.1668 B( 16-S , 20-C ) :   1.1262 B( 17-C , 18-C ) :   1.6254
B( 17-C , 33-H ) :   0.9639 B( 18-C , 19-C ) :   1.2170 B( 18-C , 21-H ) :   0.9850
B( 19-C , 20-C ) :   1.6139 B( 19-C , 22-C ) :   1.0784 B( 22-C , 23-H ) :   0.9315
B( 22-C , 24-H ) :   0.9132 B( 22-C , 25-C ) :   1.0677 B( 25-C , 26-H ) :   0.9485
B( 25-C , 27-H ) :   0.9544 B( 25-C , 28-C ) :   1.0758 B( 28-C , 29-H ) :   0.9778
B( 28-C , 30-H ) :   0.9728 B( 28-C , 31-H ) :   0.9771

Dispersion correction           -0.013673067
FINAL SINGLE POINT ENERGY     -1339.871962919927

DIPOLE MOMENT
-------------
                                X             Y             Z
Electronic contribution:     -6.92311     -25.77650      -0.79196
Nuclear contribution   :      6.78047      26.35463       0.96353
                        -----------------------------------------
Total Dipole Moment    :     -0.14265       0.57813       0.17156
                        -----------------------------------------
Magnitude (a.u.)       :      0.61969
Magnitude (Debye)      :      1.57513

Rotational constants in cm-1:     0.018153     0.007934     0.006357
Rotational constants in MHz :   544.221597   237.865666   190.582998

                             ****ORCA TERMINATED NORMALLY****
TOTAL RUN TIME: 0 days 0 hours 0 minutes 28 seconds 773 msec
