                         Program Version 4.2.1 -  RELEASE  -
|  1> ! wB97X-D3 SP def2-SVP
|  2> %pal
|  3> nprocs 16
|  4> end
|  5>
|  6> * xyz 0 1
|  7> S 	 55.4016 	 7.67051 	 63.6904
|  8> C 	 56.1821 	 8.70176 	 64.9084
|  9> C 	 55.5956 	 9.94205 	 64.8477
| 10> C 	 54.511 	 10.0603 	 63.8886
| 11> C 	 54.2761 	 8.8694 	 63.1879
| 12> H 	 53.8503 	 10.992 	 63.8032
| 13> C 	 55.8819 	 11.1376 	 65.6835
| 14> H 	 56.1393 	 10.7268 	 66.7395
| 15> H 	 54.994 	 11.689 	 65.811
| 16> C 	 57.029 	 11.9757 	 65.0824
| 17> H 	 57.86 	 11.4037 	 64.5985
| 18> H 	 56.5044 	 12.505 	 64.2223
| 19> C 	 57.6109 	 13.0737 	 66.0085
| 20> H 	 56.6915 	 13.5325 	 66.3849
| 21> H 	 58.1429 	 12.7663 	 66.8806
| 22> H 	 58.0692 	 13.9062 	 65.4328
| 23> S 	 52.469 	 6.9258 	 62.5082
| 24> C 	 51.4267 	 7.13354 	 61.1209
| 25> C 	 51.692 	 8.34986 	 60.5167
| 26> C 	 52.6537 	 9.14775 	 61.2407
| 27> C 	 53.2876 	 8.44612 	 62.2458
| 28> H 	 51.1124 	 8.57425 	 59.7156
| 29> C 	 53.0636 	 10.5066 	 60.6182
| 30> H 	 53.4391 	 11.1448 	 61.4324
| 31> H 	 52.1716 	 10.9983 	 60.3035
| 32> C 	 54.1687 	 10.517 	 59.5328
| 33> H 	 53.9364 	 9.81681 	 58.679
| 34> H 	 55.0333 	 10.207 	 60.0414
| 35> C 	 54.4422 	 11.8683 	 58.9154
| 36> H 	 53.6161 	 12.2837 	 58.4384
| 37> H 	 55.2899 	 11.6072 	 58.2081
| 38> H 	 54.8155 	 12.6689 	 59.6037
| 39> H 	 57.027 	 8.37588 	 65.5184
| 40> H 	 50.6562 	 6.43863 	 60.8054
| 41> *
| 42>
| 43>                          ****END OF INPUT****

CARTESIAN COORDINATES (ANGSTROEM)
---------------------------------
  S     55.401600    7.670510   63.690400
  C     56.182100    8.701760   64.908400
  C     55.595600    9.942050   64.847700
  C     54.511000   10.060300   63.888600
  C     54.276100    8.869400   63.187900
  H     53.850300   10.992000   63.803200
  C     55.881900   11.137600   65.683500
  H     56.139300   10.726800   66.739500
  H     54.994000   11.689000   65.811000
  C     57.029000   11.975700   65.082400
  H     57.860000   11.403700   64.598500
  H     56.504400   12.505000   64.222300
  C     57.610900   13.073700   66.008500
  H     56.691500   13.532500   66.384900
  H     58.142900   12.766300   66.880600
  H     58.069200   13.906200   65.432800
  S     52.469000    6.925800   62.508200
  C     51.426700    7.133540   61.120900
  C     51.692000    8.349860   60.516700
  C     52.653700    9.147750   61.240700
  C     53.287600    8.446120   62.245800
  H     51.112400    8.574250   59.715600
  C     53.063600   10.506600   60.618200
  H     53.439100   11.144800   61.432400
  H     52.171600   10.998300   60.303500
  C     54.168700   10.517000   59.532800
  H     53.936400    9.816810   58.679000
  H     55.033300   10.207000   60.041400
  C     54.442200   11.868300   58.915400
  H     53.616100   12.283700   58.438400
  H     55.289900   11.607200   58.208100
  H     54.815500   12.668900   59.603700
  H     57.027000    8.375880   65.518400
  H     50.656200    6.438630   60.805400

 Total Charge           Charge          ....    0
 Multiplicity           Mult            ....    1
 Number of Electrons    NEL             ....  134
 Basis Dimension        Dim             ....  322

ORBITAL ENERGIES
----------------

  NO   OCC          E(Eh)            E(eV)
   0   2.0000     -88.965299     -2420.8688
   1   2.0000     -88.962967     -2420.8054
   2   2.0000     -10.331418      -281.1322
   3   2.0000     -10.326444      -280.9968
   4   2.0000     -10.318422      -280.7785
   5   2.0000     -10.316221      -280.7187
   6   2.0000     -10.305984      -280.4401
   7   2.0000     -10.303128      -280.3624
   8   2.0000     -10.301687      -280.3232
   9   2.0000     -10.296314      -280.1769
  10   2.0000     -10.294510      -280.1279
  11   2.0000     -10.289849      -280.0010
  12   2.0000     -10.288521      -279.9649
  13   2.0000     -10.284248      -279.8486
  14   2.0000     -10.279554      -279.7209
  15   2.0000     -10.278385      -279.6891
  16   2.0000      -8.080161      -219.8723
  17   2.0000      -8.078059      -219.8152
  18   2.0000      -6.038689      -164.3211
  19   2.0000      -6.036632      -164.2651
  20   2.0000      -6.034553      -164.2085
  21   2.0000      -6.032319      -164.1477
  22   2.0000      -6.030957      -164.1107
  23   2.0000      -6.028905      -164.0548
  24   2.0000      -1.010164       -27.4879
  25   2.0000      -0.983675       -26.7671
  26   2.0000      -0.914033       -24.8721
  27   2.0000      -0.906088       -24.6559
  28   2.0000      -0.872514       -23.7423
  29   2.0000      -0.852397       -23.1949
  30   2.0000      -0.842555       -22.9271
  31   2.0000      -0.814417       -22.1614
  32   2.0000      -0.781980       -21.2788
  33   2.0000      -0.773078       -21.0365
  34   2.0000      -0.707698       -19.2574
  35   2.0000      -0.698469       -19.0063
  36   2.0000      -0.692641       -18.8477
  37   2.0000      -0.667554       -18.1651
  38   2.0000      -0.637770       -17.3546
  39   2.0000      -0.617763       -16.8102
  40   2.0000      -0.592393       -16.1198
  41   2.0000      -0.573193       -15.5974
  42   2.0000      -0.567508       -15.4427
  43   2.0000      -0.554856       -15.0984
  44   2.0000      -0.531335       -14.4584
  45   2.0000      -0.524960       -14.2849
  46   2.0000      -0.520720       -14.1695
  47   2.0000      -0.513622       -13.9764
  48   2.0000      -0.507981       -13.8229
  49   2.0000      -0.504141       -13.7184
  50   2.0000      -0.491994       -13.3878
  51   2.0000      -0.484225       -13.1764
  52   2.0000      -0.476165       -12.9571
  53   2.0000      -0.464391       -12.6367
  54   2.0000      -0.457836       -12.4584
  55   2.0000      -0.444523       -12.0961
  56   2.0000      -0.439524       -11.9601
  57   2.0000      -0.430894       -11.7252
  58   2.0000      -0.428530       -11.6609
  59   2.0000      -0.419463       -11.4142
  60   2.0000      -0.416946       -11.3457
  61   2.0000      -0.415901       -11.3172
  62   2.0000      -0.411915       -11.2088
  63   2.0000      -0.354874        -9.6566
  64   2.0000      -0.330304        -8.9880
  65   2.0000      -0.327591        -8.9142
  66   2.0000      -0.290349        -7.9008
  67   0.0000       0.025047         0.6816
  68   0.0000       0.075750         2.0613
  69   0.0000       0.114458         3.1146
  70   0.0000       0.117166         3.1882
  71   0.0000       0.128244         3.4897

MULLIKEN ATOMIC CHARGES
-----------------------
   0 S :    0.087311
   1 C :   -0.124731
   2 C :   -0.092294
   3 C :   -0.008557
   4 C :   -0.144954
   5 H :    0.049746
   6 C :    0.052263
   7 H :    0.035751
   8 H :    0.017169
   9 C :   -0.109919
  10 H :    0.046239
  11 H :    0.027812
  12 C :   -0.027287
  13 H :    0.011671
  14 H :    0.039974
  15 H :    0.043207
  16 S :    0.107436
  17 C :   -0.098527
  18 C :    0.006368
  19 C :   -0.047183
  20 C :   -0.111213
  21 H :   -0.020510
  22 C :    0.069111
  23 H :    0.003991
  24 H :    0.009041
  25 C :   -0.049312
  26 H :    0.036064
  27 H :    0.025072
  28 C :   -0.056214
  29 H :    0.021909
  30 H :    0.046468
  31 H :    0.033702
  32 H :    0.057242
  33 H :    0.063154
Sum of atomic charges:   -0.0000000

LOEWDIN ATOMIC CHARGES
----------------------
   0 S :    0.409820
   1 C :   -0.195971
   2 C :   -0.061556
   3 C :   -0.082523
   4 C :   -0.195035
   5 H :    0.042919
   6 C :   -0.035843
   7 H :    0.036476
   8 H :    0.022508
   9 C :   -0.045228
  10 H :    0.026668
  11 H :    0.031102
  12 C :   -0.071978
  13 H :    0.025619
  14 H :    0.021096
  15 H :    0.033335
  16 S :    0.410274
  17 C :   -0.181367
  18 C :   -0.058054
  19 C :   -0.051625
  20 C :   -0.207751
  21 H :    0.014121
  22 C :   -0.033298
  23 H :    0.027113
  24 H :    0.021284
  25 C :   -0.035923
  26 H :    0.030241
  27 H :    0.021720
  28 C :   -0.065542
  29 H :    0.012672
  30 H :    0.039965
  31 H :    0.027577
  32 H :    0.034229
  33 H :    0.032957

  Mayer bond orders larger than 0.100000
B(  0-S ,  1-C ) :   1.1174 B(  0-S ,  4-C ) :   1.1726 B(  1-C ,  2-C ) :   1.6060
B(  1-C , 32-H ) :   0.9760 B(  2-C ,  3-C ) :   1.2458 B(  2-C ,  6-C ) :   1.0276
B(  3-C ,  4-C ) :   1.5520 B(  3-C ,  5-H ) :   0.9731 B(  4-C , 20-C ) :   1.0487
B(  6-C ,  7-H ) :   0.9474 B(  6-C ,  8-H ) :   0.9369 B(  6-C ,  9-C ) :   1.0443
B(  9-C , 10-H ) :   0.9653 B(  9-C , 11-H ) :   0.9518 B(  9-C , 12-C ) :   1.0734
B( 12-C , 13-H ) :   0.9678 B( 12-C , 14-H ) :   0.9787 B( 12-C , 15-H ) :   0.9741
B( 16-S , 17-C ) :   1.1538 B( 16-S , 20-C ) :   1.1365 B( 17-C , 18-C ) :   1.6059
B( 17-C , 33-H ) :   0.9687 B( 18-C , 19-C ) :   1.2228 B( 18-C , 21-H ) :   1.0089
B( 19-C , 20-C ) :   1.5892 B( 19-C , 22-C ) :   1.0576 B( 22-C , 23-H ) :   0.9306
B( 22-C , 24-H ) :   0.9335 B( 22-C , 25-C ) :   1.0633 B( 25-C , 26-H ) :   0.9567
B( 25-C , 27-H ) :   0.9530 B( 25-C , 28-C ) :   1.0828 B( 28-C , 29-H ) :   0.9763
B( 28-C , 30-H ) :   0.9736 B( 28-C , 31-H ) :   0.9732

Dispersion correction           -0.013587675
FINAL SINGLE POINT ENERGY     -1339.870261081108

DIPOLE MOMENT
-------------
                                X             Y             Z
Electronic contribution:    -10.77126     -28.48695       3.33917
Nuclear contribution   :     10.68503      29.11003      -3.46634
                        -----------------------------------------
Total Dipole Moment    :     -0.08624       0.62307      -0.12718
                        -----------------------------------------
Magnitude (a.u.)       :      0.64174
Magnitude (Debye)      :      1.63117

Rotational constants in cm-1:     0.018127     0.008480     0.006312
Rotational constants in MHz :   543.422379   254.216026   189.222871

                             ****ORCA TERMINATED NORMALLY****
TOTAL RUN TIME: 0 days 0 hours 0 minutes 29 seconds 174 msec
