                         Program Version 4.2.1 -  RELEASE  -
|  1> ! wB97X-D3 SP def2-SVP
|  2> %pal
|  3> nprocs 16
|  4> end
|  5>
|  6> * xyz 0 1
|  7> S 	 58.834 	 6.89794 	 75.6115
|  8> C 	 58.7329 	 8.47409 	 76.3268
|  9> C 	 58.22 	 9.44052 	 75.4351
| 10> C 	 57.9366 	 8.86072 	 74.0987
| 11> C 	 58.1672 	 7.47271 	 74.0675
| 12> H 	 57.53 	 9.42871 	 73.2199
| 13> C 	 58.1963 	 10.9252 	 75.6812
| 14> H 	 57.3712 	 11.1828 	 76.3984
| 15> H 	 57.8709 	 11.4508 	 74.8013
| 16> C 	 59.5101 	 11.5369 	 76.0661
| 17> H 	 59.7499 	 11.2283 	 77.0831
| 18> H 	 60.3367 	 10.9862 	 75.4618
| 19> C 	 59.6767 	 13.0131 	 75.8652
| 20> H 	 59.1556 	 13.5993 	 76.6435
| 21> H 	 60.754 	 13.3333 	 75.921
| 22> H 	 59.2865 	 13.402 	 74.954
| 23> S 	 56.6099 	 5.27717 	 73.6197
| 24> C 	 56.4657 	 4.67239 	 71.9841
| 25> C 	 57.3718 	 5.15728 	 71.1277
| 26> C 	 58.0058 	 6.33738 	 71.7006
| 27> C 	 57.7946 	 6.45811 	 73.069
| 28> H 	 57.2803 	 4.73818 	 70.1322
| 29> C 	 58.9004 	 7.28735 	 70.8686
| 30> H 	 59.4815 	 6.80651 	 70.0101
| 31> H 	 59.6021 	 7.68529 	 71.514
| 32> C 	 58.1247 	 8.4084 	 70.1989
| 33> H 	 58.8029 	 9.12236 	 69.771
| 34> H 	 57.7748 	 9.00743 	 70.9727
| 35> C 	 56.9611 	 7.97527 	 69.2294
| 36> H 	 56.5401 	 8.91799 	 68.7724
| 37> H 	 56.011 	 7.49782 	 69.6103
| 38> H 	 57.2889 	 7.45713 	 68.381
| 39> H 	 59.0667 	 8.72323 	 77.3158
| 40> H 	 55.716 	 3.98695 	 71.6498
| 41> *
| 42>
| 43>                          ****END OF INPUT****

CARTESIAN COORDINATES (ANGSTROEM)
---------------------------------
  S     58.834000    6.897940   75.611500
  C     58.732900    8.474090   76.326800
  C     58.220000    9.440520   75.435100
  C     57.936600    8.860720   74.098700
  C     58.167200    7.472710   74.067500
  H     57.530000    9.428710   73.219900
  C     58.196300   10.925200   75.681200
  H     57.371200   11.182800   76.398400
  H     57.870900   11.450800   74.801300
  C     59.510100   11.536900   76.066100
  H     59.749900   11.228300   77.083100
  H     60.336700   10.986200   75.461800
  C     59.676700   13.013100   75.865200
  H     59.155600   13.599300   76.643500
  H     60.754000   13.333300   75.921000
  H     59.286500   13.402000   74.954000
  S     56.609900    5.277170   73.619700
  C     56.465700    4.672390   71.984100
  C     57.371800    5.157280   71.127700
  C     58.005800    6.337380   71.700600
  C     57.794600    6.458110   73.069000
  H     57.280300    4.738180   70.132200
  C     58.900400    7.287350   70.868600
  H     59.481500    6.806510   70.010100
  H     59.602100    7.685290   71.514000
  C     58.124700    8.408400   70.198900
  H     58.802900    9.122360   69.771000
  H     57.774800    9.007430   70.972700
  C     56.961100    7.975270   69.229400
  H     56.540100    8.917990   68.772400
  H     56.011000    7.497820   69.610300
  H     57.288900    7.457130   68.381000
  H     59.066700    8.723230   77.315800
  H     55.716000    3.986950   71.649800

 Total Charge           Charge          ....    0
 Multiplicity           Mult            ....    1
 Number of Electrons    NEL             ....  134
 Basis Dimension        Dim             ....  322

ORBITAL ENERGIES
----------------

  NO   OCC          E(Eh)            E(eV)
   0   2.0000     -88.968248     -2420.9491
   1   2.0000     -88.961924     -2420.7770
   2   2.0000     -10.336981      -281.2836
   3   2.0000     -10.327850      -281.0351
   4   2.0000     -10.316069      -280.7145
   5   2.0000     -10.311119      -280.5798
   6   2.0000     -10.310171      -280.5540
   7   2.0000     -10.309120      -280.5254
   8   2.0000     -10.308177      -280.4998
   9   2.0000     -10.291580      -280.0481
  10   2.0000     -10.291001      -280.0324
  11   2.0000     -10.289364      -279.9878
  12   2.0000     -10.289312      -279.9864
  13   2.0000     -10.283333      -279.8237
  14   2.0000     -10.282951      -279.8133
  15   2.0000     -10.280651      -279.7507
  16   2.0000      -8.082611      -219.9390
  17   2.0000      -8.076917      -219.7841
  18   2.0000      -6.041191      -164.3892
  19   2.0000      -6.037088      -164.2775
  20   2.0000      -6.035429      -164.2324
  21   2.0000      -6.033401      -164.1772
  22   2.0000      -6.031572      -164.1274
  23   2.0000      -6.027442      -164.0150
  24   2.0000      -1.002733       -27.2857
  25   2.0000      -0.978869       -26.6364
  26   2.0000      -0.916014       -24.9260
  27   2.0000      -0.906356       -24.6632
  28   2.0000      -0.870339       -23.6831
  29   2.0000      -0.847024       -23.0487
  30   2.0000      -0.839518       -22.8445
  31   2.0000      -0.816704       -22.2237
  32   2.0000      -0.785008       -21.3612
  33   2.0000      -0.773436       -21.0463
  34   2.0000      -0.710102       -19.3229
  35   2.0000      -0.702015       -19.1028
  36   2.0000      -0.691947       -18.8288
  37   2.0000      -0.658098       -17.9077
  38   2.0000      -0.638962       -17.3870
  39   2.0000      -0.611884       -16.6502
  40   2.0000      -0.591447       -16.0941
  41   2.0000      -0.573172       -15.5968
  42   2.0000      -0.562112       -15.2959
  43   2.0000      -0.554475       -15.0880
  44   2.0000      -0.540421       -14.7056
  45   2.0000      -0.522745       -14.2246
  46   2.0000      -0.521374       -14.1873
  47   2.0000      -0.504481       -13.7276
  48   2.0000      -0.499859       -13.6018
  49   2.0000      -0.493981       -13.4419
  50   2.0000      -0.490948       -13.3594
  51   2.0000      -0.482767       -13.1368
  52   2.0000      -0.473296       -12.8790
  53   2.0000      -0.467517       -12.7218
  54   2.0000      -0.456378       -12.4187
  55   2.0000      -0.448945       -12.2164
  56   2.0000      -0.442280       -12.0351
  57   2.0000      -0.434076       -11.8118
  58   2.0000      -0.432942       -11.7809
  59   2.0000      -0.425433       -11.5766
  60   2.0000      -0.423359       -11.5202
  61   2.0000      -0.413597       -11.2545
  62   2.0000      -0.403775       -10.9873
  63   2.0000      -0.350001        -9.5240
  64   2.0000      -0.327427        -8.9098
  65   2.0000      -0.326647        -8.8885
  66   2.0000      -0.293606        -7.9894
  67   0.0000       0.036078         0.9817
  68   0.0000       0.061499         1.6735
  69   0.0000       0.112909         3.0724
  70   0.0000       0.121917         3.3175
  71   0.0000       0.125406         3.4125

MULLIKEN ATOMIC CHARGES
-----------------------
   0 S :    0.112700
   1 C :   -0.106073
   2 C :   -0.115461
   3 C :    0.025270
   4 C :   -0.167670
   5 H :    0.044884
   6 C :    0.081129
   7 H :    0.041858
   8 H :   -0.000921
   9 C :   -0.100850
  10 H :    0.022818
  11 H :    0.042366
  12 C :   -0.040794
  13 H :    0.028419
  14 H :    0.042701
  15 H :    0.021236
  16 S :    0.104932
  17 C :   -0.098514
  18 C :   -0.009059
  19 C :   -0.053873
  20 C :   -0.134155
  21 H :    0.024986
  22 C :    0.076034
  23 H :    0.035192
  24 H :    0.009913
  25 C :   -0.017710
  26 H :    0.019528
  27 H :   -0.016679
  28 C :   -0.065659
  29 H :    0.025832
  30 H :    0.054187
  31 H :    0.020060
  32 H :    0.046585
  33 H :    0.046789
Sum of atomic charges:    0.0000000

LOEWDIN ATOMIC CHARGES
----------------------
   0 S :    0.407034
   1 C :   -0.201836
   2 C :   -0.057545
   3 C :   -0.066361
   4 C :   -0.188428
   5 H :    0.039579
   6 C :   -0.042620
   7 H :    0.038304
   8 H :    0.024218
   9 C :   -0.051705
  10 H :    0.020440
  11 H :    0.035332
  12 C :   -0.069002
  13 H :    0.026932
  14 H :    0.036461
  15 H :    0.018766
  16 S :    0.393576
  17 C :   -0.172694
  18 C :   -0.072738
  19 C :   -0.041126
  20 C :   -0.203963
  21 H :    0.038078
  22 C :   -0.027798
  23 H :    0.036823
  24 H :    0.019818
  25 C :   -0.036588
  26 H :    0.026507
  27 H :    0.010619
  28 C :   -0.074042
  29 H :    0.033296
  30 H :    0.036258
  31 H :    0.013884
  32 H :    0.025117
  33 H :    0.025403

  Mayer bond orders larger than 0.100000
B(  0-S ,  1-C ) :   1.1389 B(  0-S ,  4-C ) :   1.1548 B(  1-C ,  2-C ) :   1.6060
B(  1-C , 32-H ) :   0.9719 B(  2-C ,  3-C ) :   1.2357 B(  2-C ,  6-C ) :   1.0388
B(  3-C ,  4-C ) :   1.5800 B(  3-C ,  5-H ) :   0.9759 B(  4-C , 20-C ) :   1.0128
B(  6-C ,  7-H ) :   0.9251 B(  6-C ,  8-H ) :   0.9403 B(  6-C ,  9-C ) :   1.0600
B(  9-C , 10-H ) :   0.9469 B(  9-C , 11-H ) :   0.9580 B(  9-C , 12-C ) :   1.0903
B( 12-C , 13-H ) :   0.9715 B( 12-C , 14-H ) :   0.9733 B( 12-C , 15-H ) :   0.9736
B( 16-S , 17-C ) :   1.1451 B( 16-S , 20-C ) :   1.1190 B( 17-C , 18-C ) :   1.6762
B( 17-C , 33-H ) :   0.9635 B( 18-C , 19-C ) :   1.1766 B( 18-C , 21-H ) :   0.9870
B( 19-C , 20-C ) :   1.6512 B( 19-C , 22-C ) :   1.0366 B( 22-C , 23-H ) :   0.9486
B( 22-C , 24-H ) :   0.9285 B( 22-C , 25-C ) :   1.0854 B( 25-C , 26-H ) :   0.9479
B( 25-C , 27-H ) :   0.9455 B( 25-C , 28-C ) :   1.0674 B( 28-C , 29-H ) :   0.9709
B( 28-C , 30-H ) :   0.9736 B( 28-C , 31-H ) :   0.9782

Dispersion correction           -0.014414663
FINAL SINGLE POINT ENERGY     -1339.862061715245

DIPOLE MOMENT
-------------
                                X             Y             Z
Electronic contribution:     -4.47755     -25.88786      10.83512
Nuclear contribution   :      4.43935      26.48021     -11.26522
                        -----------------------------------------
Total Dipole Moment    :     -0.03821       0.59235      -0.43010
                        -----------------------------------------
Magnitude (a.u.)       :      0.73302
Magnitude (Debye)      :      1.86320

Rotational constants in cm-1:     0.020778     0.007993     0.006223
Rotational constants in MHz :   622.920575   239.611823   186.559435

                             ****ORCA TERMINATED NORMALLY****
TOTAL RUN TIME: 0 days 0 hours 0 minutes 29 seconds 688 msec
