                         Program Version 4.2.1 -  RELEASE  -
|  1> ! wB97X-D3 SP def2-SVP
|  2> %pal
|  3> nprocs 16
|  4> end
|  5>
|  6> * xyz 0 1
|  7> S 	 1.23342 	 77.8999 	 47.9186
|  8> C 	 2.25452 	 76.5022 	 48.2384
|  9> C 	 3.56094 	 76.8783 	 48.3421
| 10> C 	 3.71788 	 78.327 	 48.2752
| 11> C 	 2.55858 	 79.0194 	 47.9558
| 12> H 	 4.65588 	 78.8677 	 48.2969
| 13> C 	 4.76642 	 75.9767 	 48.7771
| 14> H 	 5.5867 	 76.3744 	 48.238
| 15> H 	 4.47315 	 74.9618 	 48.4766
| 16> C 	 5.05144 	 75.9168 	 50.3503
| 17> H 	 6.03828 	 75.5417 	 50.6099
| 18> H 	 5.01369 	 76.9837 	 50.5247
| 19> C 	 3.97994 	 75.1586 	 51.2256
| 20> H 	 4.16205 	 75.139 	 52.3259
| 21> H 	 3.00647 	 75.6477 	 51.0999
| 22> H 	 3.88932 	 74.0888 	 50.8817
| 23> S 	 3.40535 	 81.2339 	 46.6665
| 24> C 	 3.05176 	 82.7386 	 47.2679
| 25> C 	 2.36715 	 82.752 	 48.5011
| 26> C 	 1.94977 	 81.4143 	 48.8285
| 27> C 	 2.44238 	 80.4592 	 47.9354
| 28> H 	 1.97632 	 83.6711 	 48.918
| 29> C 	 1.15101 	 81.2306 	 50.1481
| 30> H 	 0.824655 	 80.1726 	 50.1409
| 31> H 	 0.247395 	 81.8277 	 50.0762
| 32> C 	 1.98333 	 81.4556 	 51.4365
| 33> H 	 1.34672 	 81.2566 	 52.3118
| 34> H 	 2.31841 	 82.4529 	 51.4563
| 35> C 	 3.2281 	 80.5422 	 51.4612
| 36> H 	 3.8836 	 80.9309 	 50.6136
| 37> H 	 3.0505 	 79.459 	 51.344
| 38> H 	 3.87537 	 80.6237 	 52.3043
| 39> H 	 2.08732 	 75.4392 	 48.2158
| 40> H 	 3.48152 	 83.7188 	 46.9501
| 41> *
| 42>
| 43>                          ****END OF INPUT****

CARTESIAN COORDINATES (ANGSTROEM)
---------------------------------
  S      1.233420   77.899900   47.918600
  C      2.254520   76.502200   48.238400
  C      3.560940   76.878300   48.342100
  C      3.717880   78.327000   48.275200
  C      2.558580   79.019400   47.955800
  H      4.655880   78.867700   48.296900
  C      4.766420   75.976700   48.777100
  H      5.586700   76.374400   48.238000
  H      4.473150   74.961800   48.476600
  C      5.051440   75.916800   50.350300
  H      6.038280   75.541700   50.609900
  H      5.013690   76.983700   50.524700
  C      3.979940   75.158600   51.225600
  H      4.162050   75.139000   52.325900
  H      3.006470   75.647700   51.099900
  H      3.889320   74.088800   50.881700
  S      3.405350   81.233900   46.666500
  C      3.051760   82.738600   47.267900
  C      2.367150   82.752000   48.501100
  C      1.949770   81.414300   48.828500
  C      2.442380   80.459200   47.935400
  H      1.976320   83.671100   48.918000
  C      1.151010   81.230600   50.148100
  H      0.824655   80.172600   50.140900
  H      0.247395   81.827700   50.076200
  C      1.983330   81.455600   51.436500
  H      1.346720   81.256600   52.311800
  H      2.318410   82.452900   51.456300
  C      3.228100   80.542200   51.461200
  H      3.883600   80.930900   50.613600
  H      3.050500   79.459000   51.344000
  H      3.875370   80.623700   52.304300
  H      2.087320   75.439200   48.215800
  H      3.481520   83.718800   46.950100

 Total Charge           Charge          ....    0
 Multiplicity           Mult            ....    1
 Number of Electrons    NEL             ....  134
 Basis Dimension        Dim             ....  322

ORBITAL ENERGIES
----------------

  NO   OCC          E(Eh)            E(eV)
   0   2.0000     -88.970753     -2421.0173
   1   2.0000     -88.968706     -2420.9616
   2   2.0000     -10.329078      -281.0685
   3   2.0000     -10.327873      -281.0357
   4   2.0000     -10.317810      -280.7619
   5   2.0000     -10.313790      -280.6525
   6   2.0000     -10.309010      -280.5224
   7   2.0000     -10.302335      -280.3408
   8   2.0000     -10.299299      -280.2582
   9   2.0000     -10.294767      -280.1349
  10   2.0000     -10.294095      -280.1166
  11   2.0000     -10.293724      -280.1065
  12   2.0000     -10.293722      -280.1064
  13   2.0000     -10.287614      -279.9402
  14   2.0000     -10.286617      -279.9131
  15   2.0000     -10.275003      -279.5971
  16   2.0000      -8.086648      -220.0489
  17   2.0000      -8.082950      -219.9483
  18   2.0000      -6.044892      -164.4899
  19   2.0000      -6.041658      -164.4019
  20   2.0000      -6.040901      -164.3813
  21   2.0000      -6.037702      -164.2942
  22   2.0000      -6.037354      -164.2847
  23   2.0000      -6.033672      -164.1846
  24   2.0000      -1.009906       -27.4809
  25   2.0000      -0.987053       -26.8591
  26   2.0000      -0.906669       -24.6717
  27   2.0000      -0.901103       -24.5203
  28   2.0000      -0.868484       -23.6326
  29   2.0000      -0.848452       -23.0875
  30   2.0000      -0.839051       -22.8317
  31   2.0000      -0.807564       -21.9749
  32   2.0000      -0.781486       -21.2653
  33   2.0000      -0.774878       -21.0855
  34   2.0000      -0.709619       -19.3097
  35   2.0000      -0.698115       -18.9967
  36   2.0000      -0.690512       -18.7898
  37   2.0000      -0.660370       -17.9696
  38   2.0000      -0.635184       -17.2842
  39   2.0000      -0.614972       -16.7342
  40   2.0000      -0.592413       -16.1204
  41   2.0000      -0.566885       -15.4257
  42   2.0000      -0.551762       -15.0142
  43   2.0000      -0.545970       -14.8566
  44   2.0000      -0.545422       -14.8417
  45   2.0000      -0.542478       -14.7616
  46   2.0000      -0.512826       -13.9547
  47   2.0000      -0.506506       -13.7827
  48   2.0000      -0.500974       -13.6322
  49   2.0000      -0.490310       -13.3420
  50   2.0000      -0.484093       -13.1728
  51   2.0000      -0.476904       -12.9772
  52   2.0000      -0.470593       -12.8055
  53   2.0000      -0.460302       -12.5254
  54   2.0000      -0.453422       -12.3382
  55   2.0000      -0.449478       -12.2309
  56   2.0000      -0.445317       -12.1177
  57   2.0000      -0.442463       -12.0400
  58   2.0000      -0.435664       -11.8550
  59   2.0000      -0.421677       -11.4744
  60   2.0000      -0.417425       -11.3587
  61   2.0000      -0.413159       -11.2426
  62   2.0000      -0.411179       -11.1888
  63   2.0000      -0.343298        -9.3416
  64   2.0000      -0.332770        -9.0551
  65   2.0000      -0.328951        -8.9512
  66   2.0000      -0.300839        -8.1863
  67   0.0000       0.038114         1.0371
  68   0.0000       0.061132         1.6635
  69   0.0000       0.108551         2.9538
  70   0.0000       0.116163         3.1610
  71   0.0000       0.126411         3.4398

MULLIKEN ATOMIC CHARGES
-----------------------
   0 S :    0.119850
   1 C :   -0.094033
   2 C :   -0.134578
   3 C :    0.028142
   4 C :   -0.151951
   5 H :    0.014103
   6 C :    0.076639
   7 H :    0.030291
   8 H :    0.017176
   9 C :   -0.054427
  10 H :    0.038656
  11 H :    0.025355
  12 C :   -0.097092
  13 H :    0.048596
  14 H :    0.042153
  15 H :    0.037061
  16 S :    0.135224
  17 C :   -0.088388
  18 C :   -0.064709
  19 C :   -0.054944
  20 C :   -0.191998
  21 H :    0.028947
  22 C :    0.077813
  23 H :    0.016508
  24 H :    0.037360
  25 C :   -0.038912
  26 H :    0.038442
  27 H :    0.019881
  28 C :   -0.084542
  29 H :    0.044655
  30 H :    0.044752
  31 H :    0.024078
  32 H :    0.040103
  33 H :    0.069789
Sum of atomic charges:    0.0000000

LOEWDIN ATOMIC CHARGES
----------------------
   0 S :    0.413389
   1 C :   -0.199551
   2 C :   -0.067399
   3 C :   -0.064765
   4 C :   -0.209711
   5 H :    0.026547
   6 C :   -0.019163
   7 H :    0.026948
   8 H :    0.023704
   9 C :   -0.036670
  10 H :    0.023375
  11 H :    0.022023
  12 C :   -0.077136
  13 H :    0.032288
  14 H :    0.026286
  15 H :    0.027537
  16 S :    0.452770
  17 C :   -0.217196
  18 C :   -0.084078
  19 C :   -0.046135
  20 C :   -0.205806
  21 H :    0.031575
  22 C :   -0.028637
  23 H :    0.026345
  24 H :    0.031060
  25 C :   -0.031826
  26 H :    0.027150
  27 H :    0.016187
  28 C :   -0.071968
  29 H :    0.035479
  30 H :    0.027085
  31 H :    0.018684
  32 H :    0.032939
  33 H :    0.038671

  Mayer bond orders larger than 0.100000
B(  0-S ,  1-C ) :   1.1290 B(  0-S ,  4-C ) :   1.1397 B(  1-C ,  2-C ) :   1.6440
B(  1-C , 32-H ) :   0.9600 B(  2-C ,  3-C ) :   1.2206 B(  2-C ,  6-C ) :   1.0246
B(  3-C ,  4-C ) :   1.5945 B(  3-C ,  5-H ) :   0.9863 B(  4-C , 20-C ) :   1.0192
B(  6-C ,  7-H ) :   0.9419 B(  6-C ,  8-H ) :   0.9447 B(  6-C ,  9-C ) :   1.0437
B(  9-C , 10-H ) :   0.9620 B(  9-C , 11-H ) :   0.9597 B(  9-C , 12-C ) :   1.0666
B( 12-C , 13-H ) :   0.9763 B( 12-C , 14-H ) :   0.9759 B( 12-C , 15-H ) :   0.9761
B( 16-S , 17-C ) :   1.2030 B( 16-S , 20-C ) :   1.1467 B( 17-C , 18-C ) :   1.5857
B( 17-C , 33-H ) :   0.9552 B( 18-C , 19-C ) :   1.2570 B( 18-C , 21-H ) :   0.9836
B( 19-C , 20-C ) :   1.5892 B( 19-C , 22-C ) :   1.0288 B( 22-C , 23-H ) :   0.9348
B( 22-C , 24-H ) :   0.9396 B( 22-C , 25-C ) :   1.0663 B( 25-C , 26-H ) :   0.9577
B( 25-C , 27-H ) :   0.9569 B( 25-C , 28-C ) :   1.0712 B( 28-C , 29-H ) :   0.9698
B( 28-C , 30-H ) :   0.9767 B( 28-C , 31-H ) :   0.9746

Dispersion correction           -0.016210090
FINAL SINGLE POINT ENERGY     -1339.871873015922

DIPOLE MOMENT
-------------
                                X             Y             Z
Electronic contribution:     -7.74845       8.70403     -22.88033
Nuclear contribution   :      8.07192      -8.60521      23.33387
                        -----------------------------------------
Total Dipole Moment    :      0.32347       0.09883       0.45354
                        -----------------------------------------
Magnitude (a.u.)       :      0.56577
Magnitude (Debye)      :      1.43809

Rotational constants in cm-1:     0.020264     0.008979     0.007836
Rotational constants in MHz :   607.487583   269.181861   234.931529

                             ****ORCA TERMINATED NORMALLY****
TOTAL RUN TIME: 0 days 0 hours 0 minutes 35 seconds 862 msec
