                         Program Version 4.2.1 -  RELEASE  -
|  1> ! wB97X-D3 SP def2-SVP
|  2> %pal
|  3> nprocs 16
|  4> end
|  5>
|  6> * xyz 0 1
|  7> S 	 -53.3481 	 29.5918 	 94.8063
|  8> C 	 -52.5147 	 28.1878 	 95.4248
|  9> C 	 -51.865 	 28.4748 	 96.6346
| 10> C 	 -52.1161 	 29.8517 	 96.9785
| 11> C 	 -52.714 	 30.6684 	 96.0321
| 12> H 	 -51.9299 	 30.3021 	 97.9459
| 13> C 	 -51.0974 	 27.4752 	 97.4124
| 14> H 	 -51.6735 	 26.5835 	 97.21
| 15> H 	 -51.0928 	 27.5811 	 98.5041
| 16> C 	 -49.5867 	 27.443 	 96.9389
| 17> H 	 -49.5292 	 26.9665 	 96.0001
| 18> H 	 -49.3306 	 28.5141 	 96.9136
| 19> C 	 -48.7863 	 26.5635 	 97.8739
| 20> H 	 -48.5517 	 26.9509 	 98.8131
| 21> H 	 -49.2586 	 25.6315 	 98.0326
| 22> H 	 -47.754 	 26.4176 	 97.5942
| 23> S 	 -54.7784 	 32.0335 	 96.9255
| 24> C 	 -54.9064 	 33.7646 	 96.5836
| 25> C 	 -53.7408 	 34.3047 	 96.2915
| 26> C 	 -52.6983 	 33.3376 	 96.0238
| 27> C 	 -53.1774 	 32.0559 	 96.2193
| 28> H 	 -53.6486 	 35.3464 	 96.034
| 29> C 	 -51.2463 	 33.6608 	 95.7336
| 30> H 	 -51.0958 	 34.6855 	 95.3858
| 31> H 	 -50.9652 	 33.107 	 94.8378
| 32> C 	 -50.3663 	 33.2196 	 96.9136
| 33> H 	 -50.4137 	 32.1518 	 97.0979
| 34> H 	 -50.6989 	 33.779 	 97.8342
| 35> C 	 -48.8716 	 33.525 	 96.6251
| 36> H 	 -48.3281 	 33.2735 	 97.49
| 37> H 	 -48.6312 	 34.5809 	 96.5457
| 38> H 	 -48.5344 	 32.969 	 95.7436
| 39> H 	 -52.4004 	 27.2653 	 94.8965
| 40> H 	 -55.7191 	 34.4925 	 96.5531
| 41> *
| 42>
| 43>                          ****END OF INPUT****

CARTESIAN COORDINATES (ANGSTROEM)
---------------------------------
  S    -53.348100   29.591800   94.806300
  C    -52.514700   28.187800   95.424800
  C    -51.865000   28.474800   96.634600
  C    -52.116100   29.851700   96.978500
  C    -52.714000   30.668400   96.032100
  H    -51.929900   30.302100   97.945900
  C    -51.097400   27.475200   97.412400
  H    -51.673500   26.583500   97.210000
  H    -51.092800   27.581100   98.504100
  C    -49.586700   27.443000   96.938900
  H    -49.529200   26.966500   96.000100
  H    -49.330600   28.514100   96.913600
  C    -48.786300   26.563500   97.873900
  H    -48.551700   26.950900   98.813100
  H    -49.258600   25.631500   98.032600
  H    -47.754000   26.417600   97.594200
  S    -54.778400   32.033500   96.925500
  C    -54.906400   33.764600   96.583600
  C    -53.740800   34.304700   96.291500
  C    -52.698300   33.337600   96.023800
  C    -53.177400   32.055900   96.219300
  H    -53.648600   35.346400   96.034000
  C    -51.246300   33.660800   95.733600
  H    -51.095800   34.685500   95.385800
  H    -50.965200   33.107000   94.837800
  C    -50.366300   33.219600   96.913600
  H    -50.413700   32.151800   97.097900
  H    -50.698900   33.779000   97.834200
  C    -48.871600   33.525000   96.625100
  H    -48.328100   33.273500   97.490000
  H    -48.631200   34.580900   96.545700
  H    -48.534400   32.969000   95.743600
  H    -52.400400   27.265300   94.896500
  H    -55.719100   34.492500   96.553100

 Total Charge           Charge          ....    0
 Multiplicity           Mult            ....    1
 Number of Electrons    NEL             ....  134
 Basis Dimension        Dim             ....  322

ORBITAL ENERGIES
----------------

  NO   OCC          E(Eh)            E(eV)
   0   2.0000     -88.964112     -2420.8366
   1   2.0000     -88.961954     -2420.7778
   2   2.0000     -10.329064      -281.0681
   3   2.0000     -10.324040      -280.9314
   4   2.0000     -10.315079      -280.6876
   5   2.0000     -10.308733      -280.5149
   6   2.0000     -10.304190      -280.3913
   7   2.0000     -10.302768      -280.3526
   8   2.0000     -10.294275      -280.1215
   9   2.0000     -10.291625      -280.0493
  10   2.0000     -10.290491      -280.0185
  11   2.0000     -10.288505      -279.9644
  12   2.0000     -10.288211      -279.9565
  13   2.0000     -10.284432      -279.8536
  14   2.0000     -10.271670      -279.5063
  15   2.0000     -10.267617      -279.3961
  16   2.0000      -8.078766      -219.8344
  17   2.0000      -8.076644      -219.7767
  18   2.0000      -6.037324      -164.2839
  19   2.0000      -6.035416      -164.2320
  20   2.0000      -6.033183      -164.1713
  21   2.0000      -6.031353      -164.1215
  22   2.0000      -6.029551      -164.0724
  23   2.0000      -6.026893      -164.0001
  24   2.0000      -1.007214       -27.4077
  25   2.0000      -0.984699       -26.7950
  26   2.0000      -0.914869       -24.8949
  27   2.0000      -0.906255       -24.6605
  28   2.0000      -0.874094       -23.7853
  29   2.0000      -0.848997       -23.1024
  30   2.0000      -0.844127       -22.9699
  31   2.0000      -0.820029       -22.3141
  32   2.0000      -0.781938       -21.2776
  33   2.0000      -0.769018       -20.9261
  34   2.0000      -0.711449       -19.3595
  35   2.0000      -0.704841       -19.1797
  36   2.0000      -0.691987       -18.8299
  37   2.0000      -0.657069       -17.8798
  38   2.0000      -0.645086       -17.5537
  39   2.0000      -0.615085       -16.7373
  40   2.0000      -0.591951       -16.1078
  41   2.0000      -0.574909       -15.6441
  42   2.0000      -0.570529       -15.5249
  43   2.0000      -0.562861       -15.3162
  44   2.0000      -0.533253       -14.5106
  45   2.0000      -0.522965       -14.2306
  46   2.0000      -0.516461       -14.0536
  47   2.0000      -0.513633       -13.9767
  48   2.0000      -0.506856       -13.7923
  49   2.0000      -0.497625       -13.5411
  50   2.0000      -0.495647       -13.4872
  51   2.0000      -0.473737       -12.8911
  52   2.0000      -0.467762       -12.7285
  53   2.0000      -0.454292       -12.3619
  54   2.0000      -0.453776       -12.3479
  55   2.0000      -0.450871       -12.2688
  56   2.0000      -0.446619       -12.1531
  57   2.0000      -0.438173       -11.9233
  58   2.0000      -0.434930       -11.8351
  59   2.0000      -0.423864       -11.5339
  60   2.0000      -0.422089       -11.4856
  61   2.0000      -0.419451       -11.4138
  62   2.0000      -0.416352       -11.3295
  63   2.0000      -0.338311        -9.2059
  64   2.0000      -0.323269        -8.7966
  65   2.0000      -0.316187        -8.6039
  66   2.0000      -0.309516        -8.4224
  67   0.0000       0.039898         1.0857
  68   0.0000       0.053567         1.4576
  69   0.0000       0.108252         2.9457
  70   0.0000       0.119228         3.2443
  71   0.0000       0.135348         3.6830

MULLIKEN ATOMIC CHARGES
-----------------------
   0 S :    0.118469
   1 C :   -0.115910
   2 C :   -0.094633
   3 C :    0.032145
   4 C :   -0.155286
   5 H :    0.017583
   6 C :    0.040578
   7 H :    0.024385
   8 H :    0.029469
   9 C :   -0.046312
  10 H :    0.023524
  11 H :    0.042461
  12 C :   -0.000624
  13 H :    0.004792
  14 H :    0.022207
  15 H :    0.018499
  16 S :    0.113557
  17 C :   -0.054756
  18 C :   -0.046491
  19 C :   -0.026794
  20 C :   -0.211209
  21 H :    0.014873
  22 C :    0.095739
  23 H :    0.013076
  24 H :    0.023888
  25 C :   -0.104023
  26 H :    0.037195
  27 H :    0.038177
  28 C :   -0.022811
  29 H :    0.017658
  30 H :    0.022728
  31 H :    0.037958
  32 H :    0.045066
  33 H :    0.044821
Sum of atomic charges:   -0.0000000

LOEWDIN ATOMIC CHARGES
----------------------
   0 S :    0.414019
   1 C :   -0.193557
   2 C :   -0.064770
   3 C :   -0.064753
   4 C :   -0.214140
   5 H :    0.027124
   6 C :   -0.035771
   7 H :    0.030302
   8 H :    0.031991
   9 C :   -0.024535
  10 H :    0.020175
  11 H :    0.030434
  12 C :   -0.066590
  13 H :    0.017523
  14 H :    0.023172
  15 H :    0.027660
  16 S :    0.396780
  17 C :   -0.179751
  18 C :   -0.076166
  19 C :   -0.045674
  20 C :   -0.197717
  21 H :    0.030411
  22 C :   -0.034996
  23 H :    0.028333
  24 H :    0.034220
  25 C :   -0.035131
  26 H :    0.024744
  27 H :    0.029572
  28 C :   -0.065004
  29 H :    0.019672
  30 H :    0.022587
  31 H :    0.027449
  32 H :    0.024781
  33 H :    0.037609

  Mayer bond orders larger than 0.100000
B(  0-S ,  1-C ) :   1.1639 B(  0-S ,  4-C ) :   1.1543 B(  1-C ,  2-C ) :   1.5781
B(  1-C ,  4-C ) :   0.1028 B(  1-C , 32-H ) :   0.9678 B(  2-C ,  3-C ) :   1.2518
B(  2-C ,  6-C ) :   1.0298 B(  3-C ,  4-C ) :   1.5666 B(  3-C ,  5-H ) :   0.9859
B(  4-C , 20-C ) :   1.0045 B(  6-C ,  7-H ) :   0.9334 B(  6-C ,  8-H ) :   0.9524
B(  6-C ,  9-C ) :   1.0429 B(  9-C , 10-H ) :   0.9557 B(  9-C , 11-H ) :   0.9623
B(  9-C , 12-C ) :   1.0881 B( 12-C , 13-H ) :   0.9684 B( 12-C , 14-H ) :   0.9694
B( 12-C , 15-H ) :   0.9682 B( 16-S , 17-C ) :   1.1109 B( 16-S , 20-C ) :   1.1375
B( 17-C , 18-C ) :   1.6954 B( 17-C , 33-H ) :   0.9565 B( 18-C , 19-C ) :   1.2037
B( 18-C , 21-H ) :   0.9822 B( 19-C , 20-C ) :   1.6424 B( 19-C , 22-C ) :   1.0494
B( 22-C , 23-H ) :   0.9370 B( 22-C , 24-H ) :   0.9226 B( 22-C , 25-C ) :   1.0603
B( 25-C , 26-H ) :   0.9503 B( 25-C , 27-H ) :   0.9563 B( 25-C , 28-C ) :   1.0878
B( 28-C , 29-H ) :   0.9717 B( 28-C , 30-H ) :   0.9743 B( 28-C , 31-H ) :   0.9741

Dispersion correction           -0.014110682
FINAL SINGLE POINT ENERGY     -1339.852680060924

DIPOLE MOMENT
-------------
                                X             Y             Z
Electronic contribution:    -27.98104       4.46266      -7.60665
Nuclear contribution   :     28.54717      -4.44013       7.81447
                        -----------------------------------------
Total Dipole Moment    :      0.56614       0.02253       0.20782
                        -----------------------------------------
Magnitude (a.u.)       :      0.60350
Magnitude (Debye)      :      1.53397

Rotational constants in cm-1:     0.018716     0.008676     0.006679
Rotational constants in MHz :   561.078498   260.102342   200.237259

                             ****ORCA TERMINATED NORMALLY****
TOTAL RUN TIME: 0 days 0 hours 0 minutes 30 seconds 58 msec
