                         Program Version 4.2.1 -  RELEASE  -
|  1> ! wB97X-D3 SP def2-SVP
|  2> %pal
|  3> nprocs 16
|  4> end
|  5>
|  6> * xyz 0 1
|  7> S 	 4.9145 	 -13.2491 	 57.0598
|  8> C 	 5.14419 	 -12.4121 	 58.5596
|  9> C 	 4.01676 	 -12.3809 	 59.3277
| 10> C 	 2.93334 	 -13.0938 	 58.7265
| 11> C 	 3.23443 	 -13.5165 	 57.4178
| 12> H 	 1.98588 	 -13.1602 	 59.1812
| 13> C 	 3.94147 	 -11.7831 	 60.7436
| 14> H 	 3.45713 	 -10.8264 	 60.6872
| 15> H 	 4.96004 	 -11.6112 	 61.1529
| 16> C 	 3.38813 	 -12.695 	 61.8189
| 17> H 	 3.5565 	 -12.1241 	 62.7112
| 18> H 	 2.29934 	 -12.8381 	 61.6283
| 19> C 	 3.94891 	 -14.1792 	 61.9039
| 20> H 	 5.01521 	 -14.2462 	 61.9175
| 21> H 	 3.55402 	 -14.7136 	 62.786
| 22> H 	 3.51336 	 -14.7012 	 61.0195
| 23> S 	 1.01269 	 -13.1523 	 55.8415
| 24> C 	 0.395064 	 -14.4919 	 54.9364
| 25> C 	 1.15617 	 -15.6231 	 55.1379
| 26> C 	 2.20502 	 -15.4132 	 56.0524
| 27> C 	 2.30303 	 -14.1612 	 56.5611
| 28> H 	 0.968991 	 -16.6119 	 54.6526
| 29> C 	 3.16964 	 -16.4896 	 56.4112
| 30> H 	 2.57261 	 -17.3084 	 56.8339
| 31> H 	 3.83081 	 -16.1495 	 57.2035
| 32> C 	 4.12038 	 -16.9624 	 55.2866
| 33> H 	 3.45377 	 -17.1928 	 54.4488
| 34> H 	 4.60929 	 -17.8484 	 55.6801
| 35> C 	 5.23972 	 -15.9896 	 54.9796
| 36> H 	 5.91073 	 -15.8036 	 55.8237
| 37> H 	 4.81238 	 -15.1535 	 54.6153
| 38> H 	 5.83687 	 -16.4831 	 54.1562
| 39> H 	 6.01665 	 -11.8535 	 58.8095
| 40> H 	 -0.538388 	 -14.4324 	 54.3768
| 41> *
| 42>
| 43>                          ****END OF INPUT****

CARTESIAN COORDINATES (ANGSTROEM)
---------------------------------
  S      4.914500  -13.249100   57.059800
  C      5.144190  -12.412100   58.559600
  C      4.016760  -12.380900   59.327700
  C      2.933340  -13.093800   58.726500
  C      3.234430  -13.516500   57.417800
  H      1.985880  -13.160200   59.181200
  C      3.941470  -11.783100   60.743600
  H      3.457130  -10.826400   60.687200
  H      4.960040  -11.611200   61.152900
  C      3.388130  -12.695000   61.818900
  H      3.556500  -12.124100   62.711200
  H      2.299340  -12.838100   61.628300
  C      3.948910  -14.179200   61.903900
  H      5.015210  -14.246200   61.917500
  H      3.554020  -14.713600   62.786000
  H      3.513360  -14.701200   61.019500
  S      1.012690  -13.152300   55.841500
  C      0.395064  -14.491900   54.936400
  C      1.156170  -15.623100   55.137900
  C      2.205020  -15.413200   56.052400
  C      2.303030  -14.161200   56.561100
  H      0.968991  -16.611900   54.652600
  C      3.169640  -16.489600   56.411200
  H      2.572610  -17.308400   56.833900
  H      3.830810  -16.149500   57.203500
  C      4.120380  -16.962400   55.286600
  H      3.453770  -17.192800   54.448800
  H      4.609290  -17.848400   55.680100
  C      5.239720  -15.989600   54.979600
  H      5.910730  -15.803600   55.823700
  H      4.812380  -15.153500   54.615300
  H      5.836870  -16.483100   54.156200
  H      6.016650  -11.853500   58.809500
  H     -0.538388  -14.432400   54.376800

 Total Charge           Charge          ....    0
 Multiplicity           Mult            ....    1
 Number of Electrons    NEL             ....  134
 Basis Dimension        Dim             ....  322

ORBITAL ENERGIES
----------------

  NO   OCC          E(Eh)            E(eV)
   0   2.0000     -88.969150     -2420.9736
   1   2.0000     -88.960690     -2420.7434
   2   2.0000     -10.328056      -281.0407
   3   2.0000     -10.318455      -280.7794
   4   2.0000     -10.318089      -280.7695
   5   2.0000     -10.307914      -280.4926
   6   2.0000     -10.297241      -280.2022
   7   2.0000     -10.294021      -280.1145
   8   2.0000     -10.293442      -280.0988
   9   2.0000     -10.292742      -280.0798
  10   2.0000     -10.292565      -280.0749
  11   2.0000     -10.289826      -280.0004
  12   2.0000     -10.281756      -279.7808
  13   2.0000     -10.281072      -279.7622
  14   2.0000     -10.281015      -279.7607
  15   2.0000     -10.267461      -279.3918
  16   2.0000      -8.083711      -219.9690
  17   2.0000      -8.075562      -219.7472
  18   2.0000      -6.042132      -164.4148
  19   2.0000      -6.038170      -164.3070
  20   2.0000      -6.034630      -164.2106
  21   2.0000      -6.034019      -164.1940
  22   2.0000      -6.030010      -164.0849
  23   2.0000      -6.026402      -163.9867
  24   2.0000      -1.009711       -27.4756
  25   2.0000      -0.987160       -26.8620
  26   2.0000      -0.911477       -24.8026
  27   2.0000      -0.909160       -24.7395
  28   2.0000      -0.872388       -23.7389
  29   2.0000      -0.850639       -23.1471
  30   2.0000      -0.843411       -22.9504
  31   2.0000      -0.810526       -22.0555
  32   2.0000      -0.786362       -21.3980
  33   2.0000      -0.774110       -21.0646
  34   2.0000      -0.709755       -19.3134
  35   2.0000      -0.695834       -18.9346
  36   2.0000      -0.688244       -18.7281
  37   2.0000      -0.660881       -17.9835
  38   2.0000      -0.641557       -17.4576
  39   2.0000      -0.618807       -16.8386
  40   2.0000      -0.601460       -16.3666
  41   2.0000      -0.566396       -15.4124
  42   2.0000      -0.557982       -15.1834
  43   2.0000      -0.555966       -15.1286
  44   2.0000      -0.544135       -14.8067
  45   2.0000      -0.538513       -14.6537
  46   2.0000      -0.515528       -14.0282
  47   2.0000      -0.509954       -13.8766
  48   2.0000      -0.502451       -13.6724
  49   2.0000      -0.493343       -13.4245
  50   2.0000      -0.491156       -13.3650
  51   2.0000      -0.482313       -13.1244
  52   2.0000      -0.473990       -12.8979
  53   2.0000      -0.465735       -12.6733
  54   2.0000      -0.462250       -12.5785
  55   2.0000      -0.447557       -12.1787
  56   2.0000      -0.442342       -12.0367
  57   2.0000      -0.441261       -12.0073
  58   2.0000      -0.433037       -11.7835
  59   2.0000      -0.420417       -11.4401
  60   2.0000      -0.417509       -11.3610
  61   2.0000      -0.407942       -11.1007
  62   2.0000      -0.404608       -11.0099
  63   2.0000      -0.335843        -9.1388
  64   2.0000      -0.332740        -9.0543
  65   2.0000      -0.328043        -8.9265
  66   2.0000      -0.302494        -8.2313
  67   0.0000       0.036952         1.0055
  68   0.0000       0.061782         1.6812
  69   0.0000       0.112072         3.0496
  70   0.0000       0.119792         3.2597
  71   0.0000       0.135341         3.6828

MULLIKEN ATOMIC CHARGES
-----------------------
   0 S :    0.129307
   1 C :   -0.116833
   2 C :   -0.083104
   3 C :    0.046403
   4 C :   -0.172632
   5 H :   -0.000030
   6 C :    0.076671
   7 H :    0.042992
   8 H :    0.017238
   9 C :   -0.109703
  10 H :    0.032845
  11 H :    0.034044
  12 C :   -0.056124
  13 H :    0.032660
  14 H :    0.040911
  15 H :    0.044071
  16 S :    0.099504
  17 C :   -0.094690
  18 C :   -0.043848
  19 C :   -0.022011
  20 C :   -0.176863
  21 H :    0.033610
  22 C :    0.042482
  23 H :    0.031878
  24 H :    0.014450
  25 C :   -0.067593
  26 H :    0.025429
  27 H :    0.026050
  28 C :   -0.022898
  29 H :    0.040067
  30 H :    0.015515
  31 H :    0.037898
  32 H :    0.036656
  33 H :    0.065649
Sum of atomic charges:   -0.0000000

LOEWDIN ATOMIC CHARGES
----------------------
   0 S :    0.438435
   1 C :   -0.199760
   2 C :   -0.065042
   3 C :   -0.048456
   4 C :   -0.202940
   5 H :    0.023764
   6 C :   -0.031900
   7 H :    0.032421
   8 H :    0.031142
   9 C :   -0.042574
  10 H :    0.022290
  11 H :    0.022756
  12 C :   -0.065367
  13 H :    0.018590
  14 H :    0.030423
  15 H :    0.032984
  16 S :    0.396120
  17 C :   -0.183706
  18 C :   -0.081539
  19 C :   -0.062931
  20 C :   -0.193718
  21 H :    0.038930
  22 C :   -0.036336
  23 H :    0.033264
  24 H :    0.024019
  25 C :   -0.034743
  26 H :    0.020747
  27 H :    0.023621
  28 C :   -0.060144
  29 H :    0.023741
  30 H :    0.003717
  31 H :    0.036209
  32 H :    0.023646
  33 H :    0.032334

  Mayer bond orders larger than 0.100000
B(  0-S ,  1-C ) :   1.1434 B(  0-S ,  4-C ) :   1.1550 B(  1-C ,  2-C ) :   1.6211
B(  1-C , 32-H ) :   0.9657 B(  2-C ,  3-C ) :   1.2553 B(  2-C ,  6-C ) :   1.0084
B(  3-C ,  4-C ) :   1.5441 B(  3-C ,  5-H ) :   0.9977 B(  4-C , 20-C ) :   1.0552
B(  6-C ,  7-H ) :   0.9361 B(  6-C ,  8-H ) :   0.9487 B(  6-C ,  9-C ) :   1.0720
B(  9-C , 10-H ) :   0.9605 B(  9-C , 11-H ) :   0.9541 B(  9-C , 12-C ) :   1.0684
B( 12-C , 13-H ) :   0.9794 B( 12-C , 14-H ) :   0.9755 B( 12-C , 15-H ) :   0.9713
B( 16-S , 17-C ) :   1.1723 B( 16-S , 20-C ) :   1.1185 B( 17-C , 18-C ) :   1.5841
B( 17-C , 33-H ) :   0.9662 B( 18-C , 19-C ) :   1.2418 B( 18-C , 21-H ) :   0.9838
B( 19-C , 20-C ) :   1.6123 B( 19-C , 22-C ) :   1.0568 B( 22-C , 23-H ) :   0.9303
B( 22-C , 24-H ) :   0.9291 B( 22-C , 25-C ) :   1.0682 B( 25-C , 26-H ) :   0.9585
B( 25-C , 27-H ) :   0.9537 B( 25-C , 28-C ) :   1.0797 B( 28-C , 29-H ) :   0.9684
B( 28-C , 30-H ) :   0.9770 B( 28-C , 31-H ) :   0.9690

Dispersion correction           -0.015660493
FINAL SINGLE POINT ENERGY     -1339.885692686626

DIPOLE MOMENT
-------------
                                X             Y             Z
Electronic contribution:     -7.83192      10.33329     -12.96209
Nuclear contribution   :      7.86333     -10.53970      13.31218
                        -----------------------------------------
Total Dipole Moment    :      0.03140      -0.20640       0.35008
                        -----------------------------------------
Magnitude (a.u.)       :      0.40761
Magnitude (Debye)      :      1.03606

Rotational constants in cm-1:     0.020430     0.008966     0.007811
Rotational constants in MHz :   612.476060   268.788621   234.166070

                             ****ORCA TERMINATED NORMALLY****
TOTAL RUN TIME: 0 days 0 hours 0 minutes 29 seconds 926 msec
