                         Program Version 4.2.1 -  RELEASE  -
|  1> ! wB97X-D3 SP def2-SVP
|  2> %pal
|  3> nprocs 16
|  4> end
|  5>
|  6> * xyz 0 1
|  7> S 	 40.6698 	 13.9107 	 83.8259
|  8> C 	 39.8824 	 15.2947 	 84.6936
|  9> C 	 38.6967 	 14.7882 	 85.3008
| 10> C 	 38.5493 	 13.3885 	 85.1344
| 11> C 	 39.4981 	 12.7582 	 84.3394
| 12> H 	 37.8096 	 12.7131 	 85.5975
| 13> C 	 37.8187 	 15.5802 	 86.278
| 14> H 	 37.4923 	 14.9111 	 87.0754
| 15> H 	 36.9238 	 15.9133 	 85.8528
| 16> C 	 38.4882 	 16.7337 	 87.0424
| 17> H 	 38.9703 	 17.4521 	 86.3994
| 18> H 	 37.6811 	 17.2541 	 87.5118
| 19> C 	 39.5005 	 16.2667 	 88.1216
| 20> H 	 39.855 	 17.1042 	 88.7885
| 21> H 	 39.0167 	 15.4224 	 88.6339
| 22> H 	 40.325 	 15.8154 	 87.5966
| 23> S 	 38.6326 	 10.4933 	 82.9727
| 24> C 	 39.5239 	 8.97047 	 83.2876
| 25> C 	 40.5751 	 9.16374 	 84.1402
| 26> C 	 40.6421 	 10.4642 	 84.6693
| 27> C 	 39.6828 	 11.3084 	 84.1843
| 28> H 	 41.213 	 8.31047 	 84.3781
| 29> C 	 41.6478 	 10.7795 	 85.8586
| 30> H 	 42.2642 	 11.6328 	 85.4881
| 31> H 	 42.4056 	 10.0037 	 85.9431
| 32> C 	 40.927 	 11.032 	 87.2155
| 33> H 	 40.3008 	 11.9316 	 87.1257
| 34> H 	 41.6705 	 11.172 	 88.0152
| 35> C 	 40.0722 	 9.92551 	 87.7821
| 36> H 	 40.7876 	 9.13812 	 88.033
| 37> H 	 39.4007 	 9.62773 	 87.0158
| 38> H 	 39.5251 	 10.2422 	 88.6584
| 39> H 	 40.1417 	 16.2978 	 84.7
| 40> H 	 39.2618 	 8.03498 	 82.8767
| 41> *
| 42>
| 43>                          ****END OF INPUT****

CARTESIAN COORDINATES (ANGSTROEM)
---------------------------------
  S     40.669800   13.910700   83.825900
  C     39.882400   15.294700   84.693600
  C     38.696700   14.788200   85.300800
  C     38.549300   13.388500   85.134400
  C     39.498100   12.758200   84.339400
  H     37.809600   12.713100   85.597500
  C     37.818700   15.580200   86.278000
  H     37.492300   14.911100   87.075400
  H     36.923800   15.913300   85.852800
  C     38.488200   16.733700   87.042400
  H     38.970300   17.452100   86.399400
  H     37.681100   17.254100   87.511800
  C     39.500500   16.266700   88.121600
  H     39.855000   17.104200   88.788500
  H     39.016700   15.422400   88.633900
  H     40.325000   15.815400   87.596600
  S     38.632600   10.493300   82.972700
  C     39.523900    8.970470   83.287600
  C     40.575100    9.163740   84.140200
  C     40.642100   10.464200   84.669300
  C     39.682800   11.308400   84.184300
  H     41.213000    8.310470   84.378100
  C     41.647800   10.779500   85.858600
  H     42.264200   11.632800   85.488100
  H     42.405600   10.003700   85.943100
  C     40.927000   11.032000   87.215500
  H     40.300800   11.931600   87.125700
  H     41.670500   11.172000   88.015200
  C     40.072200    9.925510   87.782100
  H     40.787600    9.138120   88.033000
  H     39.400700    9.627730   87.015800
  H     39.525100   10.242200   88.658400
  H     40.141700   16.297800   84.700000
  H     39.261800    8.034980   82.876700

 Total Charge           Charge          ....    0
 Multiplicity           Mult            ....    1
 Number of Electrons    NEL             ....  134
 Basis Dimension        Dim             ....  322

ORBITAL ENERGIES
----------------

  NO   OCC          E(Eh)            E(eV)
   0   2.0000     -88.969865     -2420.9931
   1   2.0000     -88.966645     -2420.9055
   2   2.0000     -10.330151      -281.0977
   3   2.0000     -10.329220      -281.0724
   4   2.0000     -10.321217      -280.8546
   5   2.0000     -10.318188      -280.7722
   6   2.0000     -10.309337      -280.5313
   7   2.0000     -10.306562      -280.4558
   8   2.0000     -10.299987      -280.2769
   9   2.0000     -10.295828      -280.1637
  10   2.0000     -10.293517      -280.1008
  11   2.0000     -10.290661      -280.0231
  12   2.0000     -10.283905      -279.8393
  13   2.0000     -10.283189      -279.8198
  14   2.0000     -10.279461      -279.7183
  15   2.0000     -10.267798      -279.4010
  16   2.0000      -8.083433      -219.9614
  17   2.0000      -8.080137      -219.8717
  18   2.0000      -6.042008      -164.4114
  19   2.0000      -6.038679      -164.3208
  20   2.0000      -6.037877      -164.2990
  21   2.0000      -6.034928      -164.2187
  22   2.0000      -6.034389      -164.2041
  23   2.0000      -6.030824      -164.1071
  24   2.0000      -1.002591       -27.2819
  25   2.0000      -0.979838       -26.6628
  26   2.0000      -0.912941       -24.8424
  27   2.0000      -0.901203       -24.5230
  28   2.0000      -0.865783       -23.5592
  29   2.0000      -0.848425       -23.0868
  30   2.0000      -0.843096       -22.9418
  31   2.0000      -0.812134       -22.0993
  32   2.0000      -0.784901       -21.3582
  33   2.0000      -0.776306       -21.1243
  34   2.0000      -0.710627       -19.3371
  35   2.0000      -0.701665       -19.0933
  36   2.0000      -0.682521       -18.5723
  37   2.0000      -0.664244       -18.0750
  38   2.0000      -0.641572       -17.4581
  39   2.0000      -0.606253       -16.4970
  40   2.0000      -0.590507       -16.0685
  41   2.0000      -0.580219       -15.7886
  42   2.0000      -0.558653       -15.2017
  43   2.0000      -0.557628       -15.1738
  44   2.0000      -0.549092       -14.9416
  45   2.0000      -0.538545       -14.6546
  46   2.0000      -0.520280       -14.1575
  47   2.0000      -0.510681       -13.8963
  48   2.0000      -0.501636       -13.6502
  49   2.0000      -0.491430       -13.3725
  50   2.0000      -0.483207       -13.1487
  51   2.0000      -0.477968       -13.0062
  52   2.0000      -0.469309       -12.7706
  53   2.0000      -0.464098       -12.6287
  54   2.0000      -0.459047       -12.4913
  55   2.0000      -0.447004       -12.1636
  56   2.0000      -0.441396       -12.0110
  57   2.0000      -0.437919       -11.9164
  58   2.0000      -0.432216       -11.7612
  59   2.0000      -0.425472       -11.5777
  60   2.0000      -0.417572       -11.3627
  61   2.0000      -0.416414       -11.3312
  62   2.0000      -0.403512       -10.9801
  63   2.0000      -0.338278        -9.2050
  64   2.0000      -0.333535        -9.0759
  65   2.0000      -0.327863        -8.9216
  66   2.0000      -0.306538        -8.3413
  67   0.0000       0.030778         0.8375
  68   0.0000       0.056423         1.5353
  69   0.0000       0.105728         2.8770
  70   0.0000       0.115334         3.1384
  71   0.0000       0.123744         3.3672

MULLIKEN ATOMIC CHARGES
-----------------------
   0 S :    0.117952
   1 C :   -0.101175
   2 C :   -0.075683
   3 C :    0.020522
   4 C :   -0.152257
   5 H :    0.023344
   6 C :    0.080817
   7 H :    0.018970
   8 H :    0.027198
   9 C :   -0.086857
  10 H :    0.021187
  11 H :    0.020462
  12 C :   -0.053341
  13 H :    0.055266
  14 H :    0.024513
  15 H :    0.032010
  16 S :    0.097836
  17 C :   -0.076677
  18 C :   -0.038850
  19 C :   -0.026867
  20 C :   -0.203160
  21 H :    0.026218
  22 C :    0.090702
  23 H :    0.038708
  24 H :    0.010345
  25 C :   -0.089021
  26 H :    0.038774
  27 H :    0.028417
  28 C :   -0.030334
  29 H :    0.023597
  30 H :    0.033540
  31 H :    0.036473
  32 H :    0.026821
  33 H :    0.040551
Sum of atomic charges:    0.0000000

LOEWDIN ATOMIC CHARGES
----------------------
   0 S :    0.411175
   1 C :   -0.176178
   2 C :   -0.056759
   3 C :   -0.068810
   4 C :   -0.210629
   5 H :    0.036144
   6 C :   -0.025597
   7 H :    0.032151
   8 H :    0.025955
   9 C :   -0.039526
  10 H :    0.015758
  11 H :    0.021757
  12 C :   -0.067055
  13 H :    0.034815
  14 H :    0.024450
  15 H :    0.022544
  16 S :    0.370878
  17 C :   -0.156663
  18 C :   -0.074331
  19 C :   -0.054981
  20 C :   -0.189330
  21 H :    0.036889
  22 C :   -0.026687
  23 H :    0.036137
  24 H :    0.023885
  25 C :   -0.042887
  26 H :    0.024321
  27 H :    0.025052
  28 C :   -0.059378
  29 H :    0.024381
  30 H :    0.019735
  31 H :    0.027365
  32 H :    0.015104
  33 H :    0.020317

  Mayer bond orders larger than 0.100000
B(  0-S ,  1-C ) :   1.1413 B(  0-S ,  4-C ) :   1.1636 B(  1-C ,  2-C ) :   1.5748
B(  1-C ,  4-C ) :   0.1060 B(  1-C , 32-H ) :   0.9788 B(  2-C ,  3-C ) :   1.2669
B(  2-C ,  6-C ) :   1.0060 B(  3-C ,  4-C ) :   1.5672 B(  3-C ,  5-H ) :   0.9849
B(  4-C , 20-C ) :   1.0131 B(  6-C ,  7-H ) :   0.9487 B(  6-C ,  8-H ) :   0.9313
B(  6-C ,  9-C ) :   1.0876 B(  9-C , 10-H ) :   0.9534 B(  9-C , 11-H ) :   0.9522
B(  9-C , 12-C ) :   1.0696 B( 12-C , 13-H ) :   0.9748 B( 12-C , 14-H ) :   0.9739
B( 12-C , 15-H ) :   0.9754 B( 16-S , 17-C ) :   1.1420 B( 16-S , 20-C ) :   1.1296
B( 17-C , 18-C ) :   1.6336 B( 17-C , 20-C ) :   0.1023 B( 17-C , 33-H ) :   0.9714
B( 18-C , 19-C ) :   1.2269 B( 18-C , 21-H ) :   0.9879 B( 19-C , 20-C ) :   1.6312
B( 19-C , 22-C ) :   1.0171 B( 22-C , 23-H ) :   0.9315 B( 22-C , 24-H ) :   0.9414
B( 22-C , 25-C ) :   1.0647 B( 25-C , 26-H ) :   0.9575 B( 25-C , 27-H ) :   0.9590
B( 25-C , 28-C ) :   1.0748 B( 28-C , 29-H ) :   0.9768 B( 28-C , 30-H ) :   0.9757
B( 28-C , 31-H ) :   0.9723

Dispersion correction           -0.015769433
FINAL SINGLE POINT ENERGY     -1339.874944831820

DIPOLE MOMENT
-------------
                                X             Y             Z
Electronic contribution:     -0.83313      -7.09478     -25.76052
Nuclear contribution   :      0.83857       7.07125      26.33740
                        -----------------------------------------
Total Dipole Moment    :      0.00544      -0.02354       0.57688
                        -----------------------------------------
Magnitude (a.u.)       :      0.57739
Magnitude (Debye)      :      1.46760

Rotational constants in cm-1:     0.021592     0.008651     0.007384
Rotational constants in MHz :   647.303179   259.338263   221.380639

                             ****ORCA TERMINATED NORMALLY****
TOTAL RUN TIME: 0 days 0 hours 0 minutes 29 seconds 905 msec
