                         Program Version 4.2.1 -  RELEASE  -
|  1> ! wB97X-D3 SP def2-SVP
|  2> %pal
|  3> nprocs 16
|  4> end
|  5>
|  6> * xyz 0 1
|  7> S 	 36.2332 	 12.7046 	 78.5644
|  8> C 	 35.3255 	 13.9625 	 79.2009
|  9> C 	 35.7793 	 15.2187 	 78.8345
| 10> C 	 36.7657 	 15.1422 	 77.8703
| 11> C 	 37.1559 	 13.8603 	 77.574
| 12> H 	 37.2537 	 16.0137 	 77.5008
| 13> C 	 35.2947 	 16.5641 	 79.2729
| 14> H 	 34.2256 	 16.5788 	 79.5245
| 15> H 	 35.4904 	 17.4058 	 78.5512
| 16> C 	 35.9463 	 17.136 	 80.532
| 17> H 	 35.9637 	 16.3718 	 81.3151
| 18> H 	 36.9847 	 17.326 	 80.2545
| 19> C 	 35.1536 	 18.3668 	 80.9377
| 20> H 	 35.1288 	 19.1039 	 80.0537
| 21> H 	 34.1608 	 18.0919 	 81.3229
| 22> H 	 35.64 	 18.9169 	 81.7164
| 23> S 	 37.6108 	 12.2657 	 75.3912
| 24> C 	 39.1254 	 12.2579 	 74.5675
| 25> C 	 39.9955 	 13.1656 	 75.1584
| 26> C 	 39.442 	 13.6936 	 76.3695
| 27> C 	 38.1551 	 13.3479 	 76.6602
| 28> H 	 40.9556 	 13.3886 	 74.6561
| 29> C 	 40.3113 	 14.645 	 77.212
| 30> H 	 39.7609 	 15.4575 	 77.7876
| 31> H 	 40.8741 	 15.1101 	 76.4361
| 32> C 	 41.4123 	 14.0715 	 78.0797
| 33> H 	 41.9612 	 14.9589 	 78.4124
| 34> H 	 42.2266 	 13.5332 	 77.5512
| 35> C 	 40.8216 	 13.2341 	 79.2267
| 36> H 	 41.5774 	 13.2054 	 80.0122
| 37> H 	 40.4743 	 12.2112 	 78.9832
| 38> H 	 39.9816 	 13.7555 	 79.6242
| 39> H 	 34.6157 	 13.7678 	 79.9801
| 40> H 	 39.3739 	 11.7894 	 73.6223
| 41> *
| 42>
| 43>                          ****END OF INPUT****

CARTESIAN COORDINATES (ANGSTROEM)
---------------------------------
  S     36.233200   12.704600   78.564400
  C     35.325500   13.962500   79.200900
  C     35.779300   15.218700   78.834500
  C     36.765700   15.142200   77.870300
  C     37.155900   13.860300   77.574000
  H     37.253700   16.013700   77.500800
  C     35.294700   16.564100   79.272900
  H     34.225600   16.578800   79.524500
  H     35.490400   17.405800   78.551200
  C     35.946300   17.136000   80.532000
  H     35.963700   16.371800   81.315100
  H     36.984700   17.326000   80.254500
  C     35.153600   18.366800   80.937700
  H     35.128800   19.103900   80.053700
  H     34.160800   18.091900   81.322900
  H     35.640000   18.916900   81.716400
  S     37.610800   12.265700   75.391200
  C     39.125400   12.257900   74.567500
  C     39.995500   13.165600   75.158400
  C     39.442000   13.693600   76.369500
  C     38.155100   13.347900   76.660200
  H     40.955600   13.388600   74.656100
  C     40.311300   14.645000   77.212000
  H     39.760900   15.457500   77.787600
  H     40.874100   15.110100   76.436100
  C     41.412300   14.071500   78.079700
  H     41.961200   14.958900   78.412400
  H     42.226600   13.533200   77.551200
  C     40.821600   13.234100   79.226700
  H     41.577400   13.205400   80.012200
  H     40.474300   12.211200   78.983200
  H     39.981600   13.755500   79.624200
  H     34.615700   13.767800   79.980100
  H     39.373900   11.789400   73.622300

 Total Charge           Charge          ....    0
 Multiplicity           Mult            ....    1
 Number of Electrons    NEL             ....  134
 Basis Dimension        Dim             ....  322

ORBITAL ENERGIES
----------------

  NO   OCC          E(Eh)            E(eV)
   0   2.0000     -88.967580     -2420.9309
   1   2.0000     -88.960696     -2420.7436
   2   2.0000     -10.328963      -281.0654
   3   2.0000     -10.321824      -280.8711
   4   2.0000     -10.316938      -280.7381
   5   2.0000     -10.309098      -280.5248
   6   2.0000     -10.302001      -280.3317
   7   2.0000     -10.296150      -280.1725
   8   2.0000     -10.294504      -280.1277
   9   2.0000     -10.291341      -280.0416
  10   2.0000     -10.288694      -279.9696
  11   2.0000     -10.288383      -279.9611
  12   2.0000     -10.285697      -279.8881
  13   2.0000     -10.284701      -279.8609
  14   2.0000     -10.284581      -279.8577
  15   2.0000     -10.268937      -279.4320
  16   2.0000      -8.083338      -219.9588
  17   2.0000      -8.076094      -219.7617
  18   2.0000      -6.041488      -164.3972
  19   2.0000      -6.037713      -164.2945
  20   2.0000      -6.034563      -164.2088
  21   2.0000      -6.034395      -164.2042
  22   2.0000      -6.030420      -164.0961
  23   2.0000      -6.026898      -164.0002
  24   2.0000      -1.013758       -27.5858
  25   2.0000      -0.992038       -26.9947
  26   2.0000      -0.918563       -24.9954
  27   2.0000      -0.907237       -24.6872
  28   2.0000      -0.872775       -23.7494
  29   2.0000      -0.860997       -23.4289
  30   2.0000      -0.842921       -22.9371
  31   2.0000      -0.813700       -22.1419
  32   2.0000      -0.779839       -21.2205
  33   2.0000      -0.770789       -20.9742
  34   2.0000      -0.706125       -19.2146
  35   2.0000      -0.696514       -18.9531
  36   2.0000      -0.689128       -18.7521
  37   2.0000      -0.662964       -18.0402
  38   2.0000      -0.647407       -17.6168
  39   2.0000      -0.631160       -17.1747
  40   2.0000      -0.592219       -16.1151
  41   2.0000      -0.579849       -15.7785
  42   2.0000      -0.565624       -15.3914
  43   2.0000      -0.546901       -14.8819
  44   2.0000      -0.538073       -14.6417
  45   2.0000      -0.520355       -14.1596
  46   2.0000      -0.515363       -14.0237
  47   2.0000      -0.509297       -13.8587
  48   2.0000      -0.504696       -13.7335
  49   2.0000      -0.498167       -13.5558
  50   2.0000      -0.491422       -13.3723
  51   2.0000      -0.481629       -13.1058
  52   2.0000      -0.472733       -12.8637
  53   2.0000      -0.468110       -12.7379
  54   2.0000      -0.459039       -12.4911
  55   2.0000      -0.448409       -12.2018
  56   2.0000      -0.447281       -12.1711
  57   2.0000      -0.435663       -11.8550
  58   2.0000      -0.430228       -11.7071
  59   2.0000      -0.426540       -11.6067
  60   2.0000      -0.423089       -11.5128
  61   2.0000      -0.409576       -11.1451
  62   2.0000      -0.405287       -11.0284
  63   2.0000      -0.349729        -9.5166
  64   2.0000      -0.333038        -9.0624
  65   2.0000      -0.326289        -8.8788
  66   2.0000      -0.292834        -7.9684
  67   0.0000       0.032984         0.8975
  68   0.0000       0.066968         1.8223
  69   0.0000       0.114815         3.1243
  70   0.0000       0.118501         3.2246
  71   0.0000       0.127590         3.4719

MULLIKEN ATOMIC CHARGES
-----------------------
   0 S :    0.126489
   1 C :   -0.108440
   2 C :   -0.049717
   3 C :    0.050160
   4 C :   -0.168711
   5 H :    0.000183
   6 C :    0.007830
   7 H :    0.021099
   8 H :    0.028731
   9 C :   -0.068455
  10 H :    0.025018
  11 H :    0.019633
  12 C :   -0.047764
  13 H :    0.037284
  14 H :    0.041595
  15 H :    0.028911
  16 S :    0.101238
  17 C :   -0.083214
  18 C :   -0.066418
  19 C :   -0.033883
  20 C :   -0.125382
  21 H :    0.035342
  22 C :    0.046286
  23 H :    0.039786
  24 H :    0.003974
  25 C :   -0.073392
  26 H :    0.024183
  27 H :    0.025191
  28 C :   -0.030335
  29 H :    0.025825
  30 H :    0.050480
  31 H :    0.016888
  32 H :    0.040894
  33 H :    0.058691
Sum of atomic charges:    0.0000000

LOEWDIN ATOMIC CHARGES
----------------------
   0 S :    0.435651
   1 C :   -0.210093
   2 C :   -0.071501
   3 C :   -0.049273
   4 C :   -0.186514
   5 H :    0.029287
   6 C :   -0.037184
   7 H :    0.028573
   8 H :    0.033921
   9 C :   -0.041389
  10 H :    0.019963
  11 H :    0.019648
  12 C :   -0.066911
  13 H :    0.034222
  14 H :    0.028873
  15 H :    0.021586
  16 S :    0.413760
  17 C :   -0.190646
  18 C :   -0.079138
  19 C :   -0.057853
  20 C :   -0.209897
  21 H :    0.038584
  22 C :   -0.037803
  23 H :    0.034401
  24 H :    0.026098
  25 C :   -0.043861
  26 H :    0.026527
  27 H :    0.023699
  28 C :   -0.065419
  29 H :    0.024520
  30 H :    0.032270
  31 H :    0.020009
  32 H :    0.022651
  33 H :    0.033238

  Mayer bond orders larger than 0.100000
B(  0-S ,  1-C ) :   1.1764 B(  0-S ,  4-C ) :   1.1684 B(  1-C ,  2-C ) :   1.5617
B(  1-C ,  4-C ) :   0.1071 B(  1-C , 32-H ) :   0.9695 B(  2-C ,  3-C ) :   1.2893
B(  2-C ,  6-C ) :   1.0217 B(  3-C ,  4-C ) :   1.5457 B(  3-C ,  5-H ) :   1.0027
B(  4-C , 20-C ) :   1.0206 B(  6-C ,  7-H ) :   0.9455 B(  6-C ,  8-H ) :   0.9478
B(  6-C ,  9-C ) :   1.0498 B(  9-C , 10-H ) :   0.9556 B(  9-C , 11-H ) :   0.9539
B(  9-C , 12-C ) :   1.0839 B( 12-C , 13-H ) :   0.9691 B( 12-C , 14-H ) :   0.9718
B( 12-C , 15-H ) :   0.9724 B( 16-S , 17-C ) :   1.1709 B( 16-S , 20-C ) :   1.1290
B( 17-C , 18-C ) :   1.6017 B( 17-C , 33-H ) :   0.9652 B( 18-C , 19-C ) :   1.2437
B( 18-C , 21-H ) :   0.9867 B( 19-C , 20-C ) :   1.6095 B( 19-C , 22-C ) :   1.0268
B( 22-C , 23-H ) :   0.9446 B( 22-C , 24-H ) :   0.9208 B( 22-C , 25-C ) :   1.0953
B( 25-C , 26-H ) :   0.9509 B( 25-C , 27-H ) :   0.9520 B( 25-C , 28-C ) :   1.0672
B( 28-C , 29-H ) :   0.9741 B( 28-C , 30-H ) :   0.9751 B( 28-C , 31-H ) :   0.9751

Dispersion correction           -0.014355969
FINAL SINGLE POINT ENERGY     -1339.879068232117

DIPOLE MOMENT
-------------
                                X             Y             Z
Electronic contribution:     -7.74862     -20.75715     -16.26112
Nuclear contribution   :      8.07559      21.36914      16.45129
                        -----------------------------------------
Total Dipole Moment    :      0.32697       0.61199       0.19017
                        -----------------------------------------
Magnitude (a.u.)       :      0.71945
Magnitude (Debye)      :      1.82869

Rotational constants in cm-1:     0.020659     0.008149     0.006902
Rotational constants in MHz :   619.347920   244.286373   206.925599

                             ****ORCA TERMINATED NORMALLY****
TOTAL RUN TIME: 0 days 0 hours 0 minutes 31 seconds 350 msec
