                         Program Version 4.2.1 -  RELEASE  -
|  1> ! wB97X-D3 SP def2-SVP
|  2> %pal
|  3> nprocs 16
|  4> end
|  5>
|  6> * xyz 0 1
|  7> S 	 54.3293 	 4.86395 	 81.0676
|  8> C 	 54.2317 	 3.26603 	 80.2588
|  9> C 	 53.1794 	 2.49021 	 80.6606
| 10> C 	 52.4278 	 3.22617 	 81.681
| 11> C 	 52.7898 	 4.52683 	 81.9311
| 12> H 	 51.4771 	 2.8018 	 82.0573
| 13> C 	 52.9066 	 1.02387 	 80.3277
| 14> H 	 53.7525 	 0.687752 	 79.7171
| 15> H 	 51.9396 	 0.828365 	 80.008
| 16> C 	 53.3522 	 0.0987319 	 81.4868
| 17> H 	 53.4593 	 -0.891556 	 81.1183
| 18> H 	 54.3268 	 0.28573 	 81.8968
| 19> C 	 52.3054 	 0.146472 	 82.5903
| 20> H 	 51.3396 	 -0.0614046 	 82.1192
| 21> H 	 52.578 	 -0.728829 	 83.1594
| 22> H 	 52.3453 	 1.00702 	 83.1844
| 23> S 	 53.0645 	 6.10426 	 84.2099
| 24> C 	 51.8728 	 7.15721 	 84.7411
| 25> C 	 50.7143 	 7.06487 	 83.9789
| 26> C 	 50.918 	 6.14084 	 82.8422
| 27> C 	 52.1556 	 5.54587 	 82.7418
| 28> H 	 49.8368 	 7.60696 	 84.2558
| 29> C 	 49.7319 	 5.92876 	 81.8965
| 30> H 	 50.2359 	 5.54643 	 81.0453
| 31> H 	 49.2561 	 6.88791 	 81.6991
| 32> C 	 48.6784 	 4.8929 	 82.3646
| 33> H 	 48.1605 	 5.08877 	 83.2825
| 34> H 	 49.2276 	 3.9432 	 82.6556
| 35> C 	 47.5405 	 4.5812 	 81.3442
| 36> H 	 47.9594 	 4.68002 	 80.352
| 37> H 	 46.6272 	 5.26043 	 81.3461
| 38> H 	 47.1342 	 3.59266 	 81.4334
| 39> H 	 54.8818 	 2.93418 	 79.4562
| 40> H 	 51.9549 	 7.67395 	 85.7462
| 41> *
| 42>
| 43>                          ****END OF INPUT****

CARTESIAN COORDINATES (ANGSTROEM)
---------------------------------
  S     54.329300    4.863950   81.067600
  C     54.231700    3.266030   80.258800
  C     53.179400    2.490210   80.660600
  C     52.427800    3.226170   81.681000
  C     52.789800    4.526830   81.931100
  H     51.477100    2.801800   82.057300
  C     52.906600    1.023870   80.327700
  H     53.752500    0.687752   79.717100
  H     51.939600    0.828365   80.008000
  C     53.352200    0.098732   81.486800
  H     53.459300   -0.891556   81.118300
  H     54.326800    0.285730   81.896800
  C     52.305400    0.146472   82.590300
  H     51.339600   -0.061405   82.119200
  H     52.578000   -0.728829   83.159400
  H     52.345300    1.007020   83.184400
  S     53.064500    6.104260   84.209900
  C     51.872800    7.157210   84.741100
  C     50.714300    7.064870   83.978900
  C     50.918000    6.140840   82.842200
  C     52.155600    5.545870   82.741800
  H     49.836800    7.606960   84.255800
  C     49.731900    5.928760   81.896500
  H     50.235900    5.546430   81.045300
  H     49.256100    6.887910   81.699100
  C     48.678400    4.892900   82.364600
  H     48.160500    5.088770   83.282500
  H     49.227600    3.943200   82.655600
  C     47.540500    4.581200   81.344200
  H     47.959400    4.680020   80.352000
  H     46.627200    5.260430   81.346100
  H     47.134200    3.592660   81.433400
  H     54.881800    2.934180   79.456200
  H     51.954900    7.673950   85.746200

 Total Charge           Charge          ....    0
 Multiplicity           Mult            ....    1
 Number of Electrons    NEL             ....  134
 Basis Dimension        Dim             ....  322

ORBITAL ENERGIES
----------------

  NO   OCC          E(Eh)            E(eV)
   0   2.0000     -88.965529     -2420.8751
   1   2.0000     -88.958361     -2420.6801
   2   2.0000     -10.336350      -281.2664
   3   2.0000     -10.331554      -281.1359
   4   2.0000     -10.320489      -280.8348
   5   2.0000     -10.318741      -280.7872
   6   2.0000     -10.311362      -280.5864
   7   2.0000     -10.305284      -280.4210
   8   2.0000     -10.301054      -280.3059
   9   2.0000     -10.295244      -280.1478
  10   2.0000     -10.293039      -280.0878
  11   2.0000     -10.291713      -280.0517
  12   2.0000     -10.289976      -280.0045
  13   2.0000     -10.282307      -279.7958
  14   2.0000     -10.280705      -279.7522
  15   2.0000     -10.268417      -279.4178
  16   2.0000      -8.079092      -219.8433
  17   2.0000      -8.074205      -219.7103
  18   2.0000      -6.037808      -164.2971
  19   2.0000      -6.033942      -164.1919
  20   2.0000      -6.032683      -164.1577
  21   2.0000      -6.029505      -164.0712
  22   2.0000      -6.028448      -164.0424
  23   2.0000      -6.024997      -163.9485
  24   2.0000      -1.001065       -27.2404
  25   2.0000      -0.979701       -26.6590
  26   2.0000      -0.919424       -25.0188
  27   2.0000      -0.903941       -24.5975
  28   2.0000      -0.871929       -23.7264
  29   2.0000      -0.846691       -23.0396
  30   2.0000      -0.838247       -22.8099
  31   2.0000      -0.814766       -22.1709
  32   2.0000      -0.786493       -21.4016
  33   2.0000      -0.774392       -21.0723
  34   2.0000      -0.706755       -19.2318
  35   2.0000      -0.704864       -19.1803
  36   2.0000      -0.694754       -18.9052
  37   2.0000      -0.659603       -17.9487
  38   2.0000      -0.639022       -17.3887
  39   2.0000      -0.616677       -16.7806
  40   2.0000      -0.592046       -16.1104
  41   2.0000      -0.581446       -15.8220
  42   2.0000      -0.561602       -15.2820
  43   2.0000      -0.549291       -14.9470
  44   2.0000      -0.541310       -14.7298
  45   2.0000      -0.528026       -14.3683
  46   2.0000      -0.524095       -14.2614
  47   2.0000      -0.513795       -13.9811
  48   2.0000      -0.507243       -13.8028
  49   2.0000      -0.504077       -13.7166
  50   2.0000      -0.492308       -13.3964
  51   2.0000      -0.476940       -12.9782
  52   2.0000      -0.472854       -12.8670
  53   2.0000      -0.464286       -12.6339
  54   2.0000      -0.457321       -12.4443
  55   2.0000      -0.451504       -12.2860
  56   2.0000      -0.447080       -12.1657
  57   2.0000      -0.437531       -11.9058
  58   2.0000      -0.433261       -11.7896
  59   2.0000      -0.422963       -11.5094
  60   2.0000      -0.414465       -11.2782
  61   2.0000      -0.408152       -11.1064
  62   2.0000      -0.396065       -10.7775
  63   2.0000      -0.343647        -9.3511
  64   2.0000      -0.332037        -9.0352
  65   2.0000      -0.323366        -8.7992
  66   2.0000      -0.302163        -8.2223
  67   0.0000       0.033985         0.9248
  68   0.0000       0.060639         1.6501
  69   0.0000       0.112393         3.0584
  70   0.0000       0.118803         3.2328
  71   0.0000       0.124266         3.3814

MULLIKEN ATOMIC CHARGES
-----------------------
   0 S :    0.100003
   1 C :   -0.114286
   2 C :   -0.110715
   3 C :    0.029069
   4 C :   -0.156244
   5 H :    0.025388
   6 C :    0.099887
   7 H :    0.021325
   8 H :    0.025595
   9 C :   -0.091997
  10 H :    0.019356
  11 H :    0.025489
  12 C :   -0.023393
  13 H :    0.020544
  14 H :    0.022674
  15 H :    0.047489
  16 S :    0.086403
  17 C :   -0.099959
  18 C :   -0.032267
  19 C :   -0.071004
  20 C :   -0.132765
  21 H :    0.016162
  22 C :    0.103200
  23 H :    0.020047
  24 H :    0.030880
  25 C :   -0.083549
  26 H :    0.021330
  27 H :    0.027145
  28 C :   -0.055833
  29 H :    0.022817
  30 H :    0.040210
  31 H :    0.031370
  32 H :    0.047677
  33 H :    0.087955
Sum of atomic charges:   -0.0000000

LOEWDIN ATOMIC CHARGES
----------------------
   0 S :    0.365194
   1 C :   -0.174964
   2 C :   -0.062505
   3 C :   -0.058746
   4 C :   -0.186548
   5 H :    0.031610
   6 C :   -0.021578
   7 H :    0.039342
   8 H :    0.020124
   9 C :   -0.029494
  10 H :    0.017885
  11 H :    0.024610
  12 C :   -0.060352
  13 H :    0.023360
  14 H :    0.026600
  15 H :    0.018836
  16 S :    0.404313
  17 C :   -0.206041
  18 C :   -0.082000
  19 C :   -0.042255
  20 C :   -0.192683
  21 H :    0.028444
  22 C :   -0.025771
  23 H :    0.027790
  24 H :    0.031510
  25 C :   -0.044379
  26 H :    0.019327
  27 H :    0.028423
  28 C :   -0.071877
  29 H :    0.021631
  30 H :    0.031402
  31 H :    0.024180
  32 H :    0.028536
  33 H :    0.046075

  Mayer bond orders larger than 0.100000
B(  0-S ,  1-C ) :   1.1218 B(  0-S ,  4-C ) :   1.1111 B(  1-C ,  2-C ) :   1.6786
B(  1-C , 32-H ) :   0.9563 B(  2-C ,  3-C ) :   1.1984 B(  2-C ,  6-C ) :   1.0380
B(  3-C ,  4-C ) :   1.6296 B(  3-C ,  5-H ) :   0.9750 B(  4-C , 20-C ) :   1.0319
B(  6-C ,  7-H ) :   0.9414 B(  6-C ,  8-H ) :   0.9438 B(  6-C ,  9-C ) :   1.0525
B(  9-C , 10-H ) :   0.9623 B(  9-C , 11-H ) :   0.9510 B(  9-C , 12-C ) :   1.0863
B( 12-C , 13-H ) :   0.9747 B( 12-C , 14-H ) :   0.9700 B( 12-C , 15-H ) :   0.9696
B( 16-S , 17-C ) :   1.1920 B( 16-S , 20-C ) :   1.1054 B( 17-C , 18-C ) :   1.5908
B( 17-C , 33-H ) :   0.9543 B( 18-C , 19-C ) :   1.2126 B( 18-C , 21-H ) :   1.0004
B( 19-C , 20-C ) :   1.6337 B( 19-C , 22-C ) :   1.0492 B( 22-C , 23-H ) :   0.9265
B( 22-C , 24-H ) :   0.9397 B( 22-C , 25-C ) :   1.0640 B( 25-C , 26-H ) :   0.9570
B( 25-C , 27-H ) :   0.9529 B( 25-C , 28-C ) :   1.0691 B( 28-C , 29-H ) :   0.9775
B( 28-C , 30-H ) :   0.9768 B( 28-C , 31-H ) :   0.9760

Dispersion correction           -0.014286874
FINAL SINGLE POINT ENERGY     -1339.852541688387

DIPOLE MOMENT
-------------
                                X             Y             Z
Electronic contribution:     19.67916      18.90963       4.71346
Nuclear contribution   :    -20.19651     -19.48551      -4.74922
                        -----------------------------------------
Total Dipole Moment    :     -0.51736      -0.57587      -0.03576
                        -----------------------------------------
Magnitude (a.u.)       :      0.77496
Magnitude (Debye)      :      1.96979

Rotational constants in cm-1:     0.016232     0.009359     0.007277
Rotational constants in MHz :   486.629380   280.561279   218.152956

                             ****ORCA TERMINATED NORMALLY****
TOTAL RUN TIME: 0 days 0 hours 0 minutes 30 seconds 66 msec
