                         Program Version 4.2.1 -  RELEASE  -
|  1> ! wB97X-D3 SP def2-SVP
|  2> %pal
|  3> nprocs 16
|  4> end
|  5>
|  6> * xyz 0 1
|  7> S 	 27.9417 	 33.1135 	 57.8468
|  8> C 	 27.3135 	 31.6117 	 57.174
|  9> C 	 27.858 	 31.3389 	 55.9271
| 10> C 	 28.8314 	 32.3314 	 55.6175
| 11> C 	 28.935 	 33.4222 	 56.4621
| 12> H 	 29.4437 	 32.3324 	 54.7702
| 13> C 	 27.5257 	 30.1766 	 54.9929
| 14> H 	 28.3536 	 29.5416 	 55.0363
| 15> H 	 27.4681 	 30.5293 	 53.9973
| 16> C 	 26.2944 	 29.3778 	 55.3418
| 17> H 	 26.251 	 29.3067 	 56.4658
| 18> H 	 25.4142 	 29.9213 	 55.0551
| 19> C 	 26.3248 	 27.9787 	 54.792
| 20> H 	 25.321 	 27.588 	 54.6648
| 21> H 	 26.7888 	 27.8694 	 53.7969
| 22> H 	 26.9123 	 27.2229 	 55.3738
| 23> S 	 29.5943 	 35.8552 	 55.328
| 24> C 	 31.0787 	 36.5658 	 55.69
| 25> C 	 31.7208 	 35.9236 	 56.6996
| 26> C 	 30.9781 	 34.781 	 57.1572
| 27> C 	 29.8592 	 34.5799 	 56.4428
| 28> H 	 32.6496 	 36.2542 	 57.0266
| 29> C 	 31.6492 	 33.8902 	 58.1871
| 30> H 	 31.1644 	 32.9217 	 58.0811
| 31> H 	 31.2055 	 34.0417 	 59.1612
| 32> C 	 33.1608 	 33.7739 	 58.1743
| 33> H 	 33.5858 	 33.3207 	 59.0987
| 34> H 	 33.6223 	 34.8219 	 58.0903
| 35> C 	 33.7565 	 33.0239 	 56.8801
| 36> H 	 34.8926 	 32.8215 	 56.9191
| 37> H 	 33.5545 	 33.5744 	 55.959
| 38> H 	 33.2747 	 32.0249 	 56.8229
| 39> H 	 26.5047 	 31.1487 	 57.6464
| 40> H 	 31.4582 	 37.5406 	 55.2756
| 41> *
| 42>
| 43>                          ****END OF INPUT****

CARTESIAN COORDINATES (ANGSTROEM)
---------------------------------
  S     27.941700   33.113500   57.846800
  C     27.313500   31.611700   57.174000
  C     27.858000   31.338900   55.927100
  C     28.831400   32.331400   55.617500
  C     28.935000   33.422200   56.462100
  H     29.443700   32.332400   54.770200
  C     27.525700   30.176600   54.992900
  H     28.353600   29.541600   55.036300
  H     27.468100   30.529300   53.997300
  C     26.294400   29.377800   55.341800
  H     26.251000   29.306700   56.465800
  H     25.414200   29.921300   55.055100
  C     26.324800   27.978700   54.792000
  H     25.321000   27.588000   54.664800
  H     26.788800   27.869400   53.796900
  H     26.912300   27.222900   55.373800
  S     29.594300   35.855200   55.328000
  C     31.078700   36.565800   55.690000
  C     31.720800   35.923600   56.699600
  C     30.978100   34.781000   57.157200
  C     29.859200   34.579900   56.442800
  H     32.649600   36.254200   57.026600
  C     31.649200   33.890200   58.187100
  H     31.164400   32.921700   58.081100
  H     31.205500   34.041700   59.161200
  C     33.160800   33.773900   58.174300
  H     33.585800   33.320700   59.098700
  H     33.622300   34.821900   58.090300
  C     33.756500   33.023900   56.880100
  H     34.892600   32.821500   56.919100
  H     33.554500   33.574400   55.959000
  H     33.274700   32.024900   56.822900
  H     26.504700   31.148700   57.646400
  H     31.458200   37.540600   55.275600

 Total Charge           Charge          ....    0
 Multiplicity           Mult            ....    1
 Number of Electrons    NEL             ....  134
 Basis Dimension        Dim             ....  322

ORBITAL ENERGIES
----------------

  NO   OCC          E(Eh)            E(eV)
   0   2.0000     -88.962693     -2420.7979
   1   2.0000     -88.961390     -2420.7625
   2   2.0000     -10.327549      -281.0269
   3   2.0000     -10.319683      -280.8128
   4   2.0000     -10.312382      -280.6142
   5   2.0000     -10.311490      -280.5899
   6   2.0000     -10.303681      -280.3774
   7   2.0000     -10.300452      -280.2895
   8   2.0000     -10.298454      -280.2352
   9   2.0000     -10.288525      -279.9650
  10   2.0000     -10.287949      -279.9493
  11   2.0000     -10.287460      -279.9360
  12   2.0000     -10.287022      -279.9241
  13   2.0000     -10.285961      -279.8952
  14   2.0000     -10.282491      -279.8008
  15   2.0000     -10.281818      -279.7825
  16   2.0000      -8.079500      -219.8544
  17   2.0000      -8.076361      -219.7690
  18   2.0000      -6.037901      -164.2996
  19   2.0000      -6.034762      -164.2142
  20   2.0000      -6.033646      -164.1839
  21   2.0000      -6.030719      -164.1042
  22   2.0000      -6.030315      -164.0932
  23   2.0000      -6.027344      -164.0124
  24   2.0000      -1.016353       -27.6564
  25   2.0000      -0.990399       -26.9501
  26   2.0000      -0.919587       -25.0232
  27   2.0000      -0.905648       -24.6439
  28   2.0000      -0.870595       -23.6901
  29   2.0000      -0.848773       -23.0963
  30   2.0000      -0.840789       -22.8790
  31   2.0000      -0.816642       -22.2220
  32   2.0000      -0.785953       -21.3869
  33   2.0000      -0.775668       -21.1070
  34   2.0000      -0.712880       -19.3984
  35   2.0000      -0.700914       -19.0728
  36   2.0000      -0.690533       -18.7904
  37   2.0000      -0.659475       -17.9452
  38   2.0000      -0.649623       -17.6771
  39   2.0000      -0.616212       -16.7680
  40   2.0000      -0.603211       -16.4142
  41   2.0000      -0.579544       -15.7702
  42   2.0000      -0.571361       -15.5475
  43   2.0000      -0.545697       -14.8492
  44   2.0000      -0.529748       -14.4152
  45   2.0000      -0.522663       -14.2224
  46   2.0000      -0.519025       -14.1234
  47   2.0000      -0.516936       -14.0665
  48   2.0000      -0.509267       -13.8578
  49   2.0000      -0.498931       -13.5766
  50   2.0000      -0.485880       -13.2215
  51   2.0000      -0.481068       -13.0905
  52   2.0000      -0.474595       -12.9144
  53   2.0000      -0.461202       -12.5499
  54   2.0000      -0.454782       -12.3752
  55   2.0000      -0.449704       -12.2371
  56   2.0000      -0.447924       -12.1886
  57   2.0000      -0.442158       -12.0317
  58   2.0000      -0.432897       -11.7797
  59   2.0000      -0.423439       -11.5224
  60   2.0000      -0.419817       -11.4238
  61   2.0000      -0.418206       -11.3800
  62   2.0000      -0.405213       -11.0264
  63   2.0000      -0.336167        -9.1476
  64   2.0000      -0.332124        -9.0376
  65   2.0000      -0.325513        -8.8577
  66   2.0000      -0.308805        -8.4030
  67   0.0000       0.046933         1.2771
  68   0.0000       0.069172         1.8823
  69   0.0000       0.122359         3.3296
  70   0.0000       0.127925         3.4810
  71   0.0000       0.135116         3.6767

MULLIKEN ATOMIC CHARGES
-----------------------
   0 S :    0.098127
   1 C :   -0.135667
   2 C :   -0.081698
   3 C :    0.054836
   4 C :   -0.177898
   5 H :   -0.018065
   6 C :    0.132067
   7 H :    0.018868
   8 H :    0.024434
   9 C :   -0.084491
  10 H :    0.035281
  11 H :    0.032879
  12 C :   -0.063923
  13 H :    0.031423
  14 H :    0.026502
  15 H :    0.039182
  16 S :    0.130935
  17 C :   -0.098955
  18 C :   -0.031766
  19 C :   -0.011869
  20 C :   -0.189141
  21 H :   -0.015135
  22 C :    0.124285
  23 H :    0.007810
  24 H :    0.026604
  25 C :   -0.100310
  26 H :    0.043138
  27 H :    0.042043
  28 C :   -0.096354
  29 H :    0.048378
  30 H :    0.046241
  31 H :    0.036750
  32 H :    0.036056
  33 H :    0.069435
Sum of atomic charges:   -0.0000000

LOEWDIN ATOMIC CHARGES
----------------------
   0 S :    0.406043
   1 C :   -0.188478
   2 C :   -0.055772
   3 C :   -0.056695
   4 C :   -0.198725
   5 H :    0.019887
   6 C :   -0.020925
   7 H :    0.028407
   8 H :    0.029182
   9 C :   -0.043028
  10 H :    0.030848
  11 H :    0.024239
  12 C :   -0.072151
  13 H :    0.026975
  14 H :    0.025552
  15 H :    0.031328
  16 S :    0.445816
  17 C :   -0.207001
  18 C :   -0.070913
  19 C :   -0.050103
  20 C :   -0.222858
  21 H :    0.017567
  22 C :   -0.044416
  23 H :    0.032183
  24 H :    0.037942
  25 C :   -0.044924
  26 H :    0.031366
  27 H :    0.028223
  28 C :   -0.076912
  29 H :    0.034166
  30 H :    0.024421
  31 H :    0.024963
  32 H :    0.012037
  33 H :    0.041753

  Mayer bond orders larger than 0.100000
B(  0-S ,  1-C ) :   1.1497 B(  0-S ,  4-C ) :   1.1563 B(  1-C ,  2-C ) :   1.5933
B(  1-C ,  4-C ) :   0.1017 B(  1-C , 32-H ) :   0.9726 B(  2-C ,  3-C ) :   1.2479
B(  2-C ,  6-C ) :   0.9992 B(  3-C ,  4-C ) :   1.6032 B(  3-C ,  5-H ) :   1.0036
B(  4-C , 20-C ) :   0.9698 B(  6-C ,  7-H ) :   0.9341 B(  6-C ,  8-H ) :   0.9323
B(  6-C ,  9-C ) :   1.0754 B(  9-C , 10-H ) :   0.9503 B(  9-C , 11-H ) :   0.9586
B(  9-C , 12-C ) :   1.0832 B( 12-C , 13-H ) :   0.9726 B( 12-C , 14-H ) :   0.9745
B( 12-C , 15-H ) :   0.9734 B( 16-S , 17-C ) :   1.1737 B( 16-S , 20-C ) :   1.1515
B( 17-C , 18-C ) :   1.6148 B( 17-C , 33-H ) :   0.9561 B( 18-C , 19-C ) :   1.2290
B( 18-C , 21-H ) :   1.0037 B( 19-C , 20-C ) :   1.6272 B( 19-C , 22-C ) :   1.0298
B( 22-C , 23-H ) :   0.9175 B( 22-C , 24-H ) :   0.9168 B( 22-C , 25-C ) :   1.0633
B( 25-C , 26-H ) :   0.9545 B( 25-C , 27-H ) :   0.9544 B( 25-C , 28-C ) :   1.0576
B( 28-C , 29-H ) :   0.9776 B( 28-C , 30-H ) :   0.9767 B( 28-C , 31-H ) :   0.9772

Dispersion correction           -0.014133571
FINAL SINGLE POINT ENERGY     -1339.877268720314

DIPOLE MOMENT
-------------
                                X             Y             Z
Electronic contribution:     -7.09445      21.92143       2.31942
Nuclear contribution   :      7.32689     -22.34849      -2.47384
                        -----------------------------------------
Total Dipole Moment    :      0.23244      -0.42706      -0.15442
                        -----------------------------------------
Magnitude (a.u.)       :      0.51015
Magnitude (Debye)      :      1.29671

Rotational constants in cm-1:     0.022912     0.006911     0.006298
Rotational constants in MHz :   686.871377   207.183788   188.815850

                             ****ORCA TERMINATED NORMALLY****
TOTAL RUN TIME: 0 days 0 hours 0 minutes 33 seconds 723 msec
