                         Program Version 4.2.1 -  RELEASE  -
|  1> ! wB97X-D3 SP def2-SVP
|  2> %pal
|  3> nprocs 16
|  4> end
|  5>
|  6> * xyz 0 1
|  7> S 	 -1.65431 	 -16.8048 	 83.6651
|  8> C 	 -2.84295 	 -18.0957 	 83.4702
|  9> C 	 -2.25782 	 -19.247 	 82.9644
| 10> C 	 -0.794758 	 -19.1481 	 82.8933
| 11> C 	 -0.331977 	 -17.8645 	 83.0248
| 12> H 	 -0.241745 	 -19.9952 	 82.5385
| 13> C 	 -2.97916 	 -20.5491 	 82.6733
| 14> H 	 -3.61919 	 -20.88 	 83.5599
| 15> H 	 -2.16263 	 -21.2829 	 82.5639
| 16> C 	 -4.06156 	 -20.5601 	 81.537
| 17> H 	 -4.60386 	 -21.5196 	 81.4245
| 18> H 	 -4.8982 	 -19.8712 	 81.7616
| 19> C 	 -3.47261 	 -20.2729 	 80.2184
| 20> H 	 -2.70012 	 -21.0558 	 79.9494
| 21> H 	 -4.24576 	 -20.232 	 79.4718
| 22> H 	 -2.91356 	 -19.288 	 80.2171
| 23> S 	 1.93458 	 -17.2081 	 84.4496
| 24> C 	 3.49355 	 -17.4616 	 83.6722
| 25> C 	 3.35341 	 -17.7754 	 82.3532
| 26> C 	 1.98424 	 -17.9544 	 81.9437
| 27> C 	 1.0944 	 -17.5597 	 82.9581
| 28> H 	 4.27889 	 -18.073 	 81.8417
| 29> C 	 1.62934 	 -18.3846 	 80.5666
| 30> H 	 1.76194 	 -17.5018 	 79.9551
| 31> H 	 0.597326 	 -18.6147 	 80.5687
| 32> C 	 2.38058 	 -19.5882 	 80.0896
| 33> H 	 3.45514 	 -19.4142 	 80.1328
| 34> H 	 2.14884 	 -19.6956 	 78.9546
| 35> C 	 2.00675 	 -20.7811 	 80.8846
| 36> H 	 2.01801 	 -20.5849 	 81.9697
| 37> H 	 2.46837 	 -21.7752 	 80.6614
| 38> H 	 0.987059 	 -20.9305 	 80.7065
| 39> H 	 -3.93806 	 -17.8974 	 83.7282
| 40> H 	 4.39913 	 -17.278 	 84.1019
| 41> *
| 42>
| 43>                          ****END OF INPUT****

CARTESIAN COORDINATES (ANGSTROEM)
---------------------------------
  S     -1.654310  -16.804800   83.665100
  C     -2.842950  -18.095700   83.470200
  C     -2.257820  -19.247000   82.964400
  C     -0.794758  -19.148100   82.893300
  C     -0.331977  -17.864500   83.024800
  H     -0.241745  -19.995200   82.538500
  C     -2.979160  -20.549100   82.673300
  H     -3.619190  -20.880000   83.559900
  H     -2.162630  -21.282900   82.563900
  C     -4.061560  -20.560100   81.537000
  H     -4.603860  -21.519600   81.424500
  H     -4.898200  -19.871200   81.761600
  C     -3.472610  -20.272900   80.218400
  H     -2.700120  -21.055800   79.949400
  H     -4.245760  -20.232000   79.471800
  H     -2.913560  -19.288000   80.217100
  S      1.934580  -17.208100   84.449600
  C      3.493550  -17.461600   83.672200
  C      3.353410  -17.775400   82.353200
  C      1.984240  -17.954400   81.943700
  C      1.094400  -17.559700   82.958100
  H      4.278890  -18.073000   81.841700
  C      1.629340  -18.384600   80.566600
  H      1.761940  -17.501800   79.955100
  H      0.597326  -18.614700   80.568700
  C      2.380580  -19.588200   80.089600
  H      3.455140  -19.414200   80.132800
  H      2.148840  -19.695600   78.954600
  C      2.006750  -20.781100   80.884600
  H      2.018010  -20.584900   81.969700
  H      2.468370  -21.775200   80.661400
  H      0.987059  -20.930500   80.706500
  H     -3.938060  -17.897400   83.728200
  H      4.399130  -17.278000   84.101900

 Total Charge           Charge          ....    0
 Multiplicity           Mult            ....    1
 Number of Electrons    NEL             ....  134
 Basis Dimension        Dim             ....  322

ORBITAL ENERGIES
----------------

  NO   OCC          E(Eh)            E(eV)
   0   2.0000     -88.966431     -2420.8997
   1   2.0000     -88.964320     -2420.8422
   2   2.0000     -10.333811      -281.1973
   3   2.0000     -10.326186      -280.9898
   4   2.0000     -10.323836      -280.9259
   5   2.0000     -10.311290      -280.5845
   6   2.0000     -10.305553      -280.4284
   7   2.0000     -10.305143      -280.4172
   8   2.0000     -10.301118      -280.3077
   9   2.0000     -10.297364      -280.2055
  10   2.0000     -10.293721      -280.1064
  11   2.0000     -10.290904      -280.0297
  12   2.0000     -10.290079      -280.0073
  13   2.0000     -10.282369      -279.7975
  14   2.0000     -10.276955      -279.6502
  15   2.0000     -10.275861      -279.6204
  16   2.0000      -8.080055      -219.8695
  17   2.0000      -8.079079      -219.8429
  18   2.0000      -6.038796      -164.3240
  19   2.0000      -6.037664      -164.2932
  20   2.0000      -6.034712      -164.2129
  21   2.0000      -6.033584      -164.1822
  22   2.0000      -6.030644      -164.1022
  23   2.0000      -6.029763      -164.0782
  24   2.0000      -1.003293       -27.3010
  25   2.0000      -0.978502       -26.6264
  26   2.0000      -0.925940       -25.1961
  27   2.0000      -0.909396       -24.7459
  28   2.0000      -0.872491       -23.7417
  29   2.0000      -0.851050       -23.1583
  30   2.0000      -0.846485       -23.0340
  31   2.0000      -0.816683       -22.2231
  32   2.0000      -0.782623       -21.2963
  33   2.0000      -0.768390       -20.9089
  34   2.0000      -0.708248       -19.2724
  35   2.0000      -0.702640       -19.1198
  36   2.0000      -0.694705       -18.9039
  37   2.0000      -0.653411       -17.7802
  38   2.0000      -0.636402       -17.3174
  39   2.0000      -0.616259       -16.7693
  40   2.0000      -0.602502       -16.3949
  41   2.0000      -0.569329       -15.4922
  42   2.0000      -0.566087       -15.4040
  43   2.0000      -0.551575       -15.0091
  44   2.0000      -0.542666       -14.7667
  45   2.0000      -0.535214       -14.5639
  46   2.0000      -0.524727       -14.2785
  47   2.0000      -0.515064       -14.0156
  48   2.0000      -0.500761       -13.6264
  49   2.0000      -0.494628       -13.4595
  50   2.0000      -0.491597       -13.3770
  51   2.0000      -0.473602       -12.8874
  52   2.0000      -0.470325       -12.7982
  53   2.0000      -0.465440       -12.6653
  54   2.0000      -0.459350       -12.4995
  55   2.0000      -0.449390       -12.2285
  56   2.0000      -0.443065       -12.0564
  57   2.0000      -0.438045       -11.9198
  58   2.0000      -0.433552       -11.7976
  59   2.0000      -0.424645       -11.5552
  60   2.0000      -0.423212       -11.5162
  61   2.0000      -0.412283       -11.2188
  62   2.0000      -0.409385       -11.1399
  63   2.0000      -0.347530        -9.4568
  64   2.0000      -0.329257        -8.9595
  65   2.0000      -0.322688        -8.7808
  66   2.0000      -0.298031        -8.1098
  67   0.0000       0.030354         0.8260
  68   0.0000       0.063165         1.7188
  69   0.0000       0.109632         2.9832
  70   0.0000       0.119939         3.2637
  71   0.0000       0.121330         3.3016

MULLIKEN ATOMIC CHARGES
-----------------------
   0 S :    0.094098
   1 C :   -0.151579
   2 C :   -0.099134
   3 C :    0.060185
   4 C :   -0.154177
   5 H :   -0.010171
   6 C :    0.032073
   7 H :    0.048528
   8 H :    0.022611
   9 C :   -0.068990
  10 H :    0.030358
  11 H :    0.028386
  12 C :   -0.068818
  13 H :    0.031152
  14 H :    0.029600
  15 H :    0.047836
  16 S :    0.102683
  17 C :   -0.059122
  18 C :   -0.030439
  19 C :   -0.126454
  20 C :   -0.109410
  21 H :    0.032315
  22 C :    0.124123
  23 H :    0.043727
  24 H :    0.004663
  25 C :   -0.089416
  26 H :    0.028094
  27 H :    0.042391
  28 C :   -0.046746
  29 H :    0.055779
  30 H :    0.044517
  31 H :    0.007654
  32 H :    0.083187
  33 H :    0.020494
Sum of atomic charges:    0.0000000

LOEWDIN ATOMIC CHARGES
----------------------
   0 S :    0.369344
   1 C :   -0.195945
   2 C :   -0.070958
   3 C :   -0.050428
   4 C :   -0.180048
   5 H :    0.025350
   6 C :   -0.038367
   7 H :    0.042603
   8 H :    0.028543
   9 C :   -0.049745
  10 H :    0.028562
  11 H :    0.025263
  12 C :   -0.073881
  13 H :    0.027819
  14 H :    0.021024
  15 H :    0.030736
  16 S :    0.403093
  17 C :   -0.160497
  18 C :   -0.074508
  19 C :   -0.049993
  20 C :   -0.205243
  21 H :    0.036906
  22 C :   -0.029715
  23 H :    0.039931
  24 H :    0.024341
  25 C :   -0.043700
  26 H :    0.017675
  27 H :    0.036039
  28 C :   -0.069980
  29 H :    0.031682
  30 H :    0.033886
  31 H :    0.015428
  32 H :    0.044546
  33 H :    0.010240

  Mayer bond orders larger than 0.100000
B(  0-S ,  1-C ) :   1.1314 B(  0-S ,  4-C ) :   1.1222 B(  1-C ,  2-C ) :   1.6207
B(  1-C , 32-H ) :   0.9591 B(  2-C ,  3-C ) :   1.2260 B(  2-C ,  6-C ) :   1.0201
B(  3-C ,  4-C ) :   1.5916 B(  3-C ,  5-H ) :   0.9794 B(  4-C , 20-C ) :   1.0281
B(  6-C ,  7-H ) :   0.9418 B(  6-C ,  8-H ) :   0.9469 B(  6-C ,  9-C ) :   1.0602
B(  9-C , 10-H ) :   0.9530 B(  9-C , 11-H ) :   0.9527 B(  9-C , 12-C ) :   1.0878
B( 12-C , 13-H ) :   0.9726 B( 12-C , 14-H ) :   0.9710 B( 12-C , 15-H ) :   0.9720
B( 16-S , 17-C ) :   1.1543 B( 16-S , 20-C ) :   1.1415 B( 17-C , 18-C ) :   1.6394
B( 17-C , 33-H ) :   0.9734 B( 18-C , 19-C ) :   1.2173 B( 18-C , 21-H ) :   0.9830
B( 19-C , 20-C ) :   1.5893 B( 19-C , 22-C ) :   1.0412 B( 22-C , 23-H ) :   0.9257
B( 22-C , 24-H ) :   0.9267 B( 22-C , 25-C ) :   1.0709 B( 25-C , 26-H ) :   0.9547
B( 25-C , 27-H ) :   0.9515 B( 25-C , 28-C ) :   1.0707 B( 28-C , 29-H ) :   0.9662
B( 28-C , 30-H ) :   0.9663 B( 28-C , 31-H ) :   0.9626

Dispersion correction           -0.015724088
FINAL SINGLE POINT ENERGY     -1339.871114535672

DIPOLE MOMENT
-------------
                                X             Y             Z
Electronic contribution:      6.23160      20.80416      19.91385
Nuclear contribution   :     -6.24183     -21.40783     -20.34491
                        -----------------------------------------
Total Dipole Moment    :     -0.01023      -0.60367      -0.43106
                        -----------------------------------------
Magnitude (a.u.)       :      0.74184
Magnitude (Debye)      :      1.88562

Rotational constants in cm-1:     0.019341     0.009821     0.007187
Rotational constants in MHz :   579.818417   294.417864   215.452147

                             ****ORCA TERMINATED NORMALLY****
TOTAL RUN TIME: 0 days 0 hours 0 minutes 36 seconds 901 msec
