                         Program Version 4.2.1 -  RELEASE  -
|  1> ! wB97X-D3 SP def2-SVP
|  2> %pal
|  3> nprocs 16
|  4> end
|  5>
|  6> * xyz 0 1
|  7> S 	 12.1692 	 -3.21927 	 64.3685
|  8> C 	 11.5225 	 -4.53347 	 63.4106
|  9> C 	 11.9459 	 -5.72539 	 63.962
| 10> C 	 12.718 	 -5.60986 	 65.164
| 11> C 	 13.0117 	 -4.31981 	 65.5301
| 12> H 	 13.1523 	 -6.46583 	 65.7732
| 13> C 	 11.5828 	 -6.99912 	 63.3421
| 14> H 	 10.5019 	 -6.74948 	 63.2081
| 15> H 	 11.5925 	 -7.8301 	 64.0475
| 16> C 	 12.2086 	 -7.24554 	 61.9604
| 17> H 	 12.1342 	 -6.28082 	 61.4194
| 18> H 	 13.291 	 -7.53702 	 61.9723
| 19> C 	 11.3539 	 -8.20844 	 61.1658
| 20> H 	 11.3718 	 -9.17292 	 61.6441
| 21> H 	 10.3079 	 -7.80628 	 60.8772
| 22> H 	 11.936 	 -8.35232 	 60.2599
| 23> S 	 13.3013 	 -4.54171 	 68.3036
| 24> C 	 14.7467 	 -3.83384 	 69.0945
| 25> C 	 15.4552 	 -3.1701 	 68.1363
| 26> C 	 14.9445 	 -3.25965 	 66.7895
| 27> C 	 13.7785 	 -3.96505 	 66.7294
| 28> H 	 16.3482 	 -2.65765 	 68.4829
| 29> C 	 15.5116 	 -2.31699 	 65.7413
| 30> H 	 15.0498 	 -2.60053 	 64.7885
| 31> H 	 16.5765 	 -2.52932 	 65.5561
| 32> C 	 15.3253 	 -0.790485 	 65.9867
| 33> H 	 16.0344 	 -0.290952 	 65.3002
| 34> H 	 15.6705 	 -0.542682 	 67.0046
| 35> C 	 13.925 	 -0.250954 	 65.7753
| 36> H 	 13.856 	 0.811968 	 65.9804
| 37> H 	 13.2442 	 -0.792203 	 66.4544
| 38> H 	 13.6591 	 -0.389084 	 64.7161
| 39> H 	 11.0073 	 -4.44699 	 62.4824
| 40> H 	 15.0368 	 -3.74888 	 70.1294
| 41> *
| 42>
| 43>                          ****END OF INPUT****

CARTESIAN COORDINATES (ANGSTROEM)
---------------------------------
  S     12.169200   -3.219270   64.368500
  C     11.522500   -4.533470   63.410600
  C     11.945900   -5.725390   63.962000
  C     12.718000   -5.609860   65.164000
  C     13.011700   -4.319810   65.530100
  H     13.152300   -6.465830   65.773200
  C     11.582800   -6.999120   63.342100
  H     10.501900   -6.749480   63.208100
  H     11.592500   -7.830100   64.047500
  C     12.208600   -7.245540   61.960400
  H     12.134200   -6.280820   61.419400
  H     13.291000   -7.537020   61.972300
  C     11.353900   -8.208440   61.165800
  H     11.371800   -9.172920   61.644100
  H     10.307900   -7.806280   60.877200
  H     11.936000   -8.352320   60.259900
  S     13.301300   -4.541710   68.303600
  C     14.746700   -3.833840   69.094500
  C     15.455200   -3.170100   68.136300
  C     14.944500   -3.259650   66.789500
  C     13.778500   -3.965050   66.729400
  H     16.348200   -2.657650   68.482900
  C     15.511600   -2.316990   65.741300
  H     15.049800   -2.600530   64.788500
  H     16.576500   -2.529320   65.556100
  C     15.325300   -0.790485   65.986700
  H     16.034400   -0.290952   65.300200
  H     15.670500   -0.542682   67.004600
  C     13.925000   -0.250954   65.775300
  H     13.856000    0.811968   65.980400
  H     13.244200   -0.792203   66.454400
  H     13.659100   -0.389084   64.716100
  H     11.007300   -4.446990   62.482400
  H     15.036800   -3.748880   70.129400

 Total Charge           Charge          ....    0
 Multiplicity           Mult            ....    1
 Number of Electrons    NEL             ....  134
 Basis Dimension        Dim             ....  322

ORBITAL ENERGIES
----------------

  NO   OCC          E(Eh)            E(eV)
   0   2.0000     -88.966810     -2420.9100
   1   2.0000     -88.966664     -2420.9060
   2   2.0000     -10.333429      -281.1869
   3   2.0000     -10.328318      -281.0478
   4   2.0000     -10.318772      -280.7881
   5   2.0000     -10.311473      -280.5895
   6   2.0000     -10.300071      -280.2792
   7   2.0000     -10.297276      -280.2031
   8   2.0000     -10.296189      -280.1735
   9   2.0000     -10.291647      -280.0499
  10   2.0000     -10.291427      -280.0440
  11   2.0000     -10.290049      -280.0065
  12   2.0000     -10.286591      -279.9124
  13   2.0000     -10.286257      -279.9033
  14   2.0000     -10.281566      -279.7756
  15   2.0000     -10.272520      -279.5295
  16   2.0000      -8.080644      -219.8855
  17   2.0000      -8.079831      -219.8634
  18   2.0000      -6.039467      -164.3423
  19   2.0000      -6.038543      -164.3171
  20   2.0000      -6.035187      -164.2258
  21   2.0000      -6.034437      -164.2054
  22   2.0000      -6.031150      -164.1159
  23   2.0000      -6.030590      -164.1007
  24   2.0000      -1.004251       -27.3271
  25   2.0000      -0.983727       -26.7686
  26   2.0000      -0.916192       -24.9309
  27   2.0000      -0.902495       -24.5581
  28   2.0000      -0.873334       -23.7646
  29   2.0000      -0.849407       -23.1135
  30   2.0000      -0.843630       -22.9563
  31   2.0000      -0.820950       -22.3392
  32   2.0000      -0.778328       -21.1794
  33   2.0000      -0.764628       -20.8066
  34   2.0000      -0.709065       -19.2946
  35   2.0000      -0.697210       -18.9721
  36   2.0000      -0.690051       -18.7773
  37   2.0000      -0.659340       -17.9415
  38   2.0000      -0.634909       -17.2767
  39   2.0000      -0.612701       -16.6725
  40   2.0000      -0.592325       -16.1180
  41   2.0000      -0.576835       -15.6965
  42   2.0000      -0.559592       -15.2273
  43   2.0000      -0.548922       -14.9369
  44   2.0000      -0.536929       -14.6106
  45   2.0000      -0.526468       -14.3259
  46   2.0000      -0.520877       -14.1738
  47   2.0000      -0.515474       -14.0268
  48   2.0000      -0.508910       -13.8481
  49   2.0000      -0.504312       -13.7230
  50   2.0000      -0.487566       -13.2673
  51   2.0000      -0.476747       -12.9730
  52   2.0000      -0.468052       -12.7364
  53   2.0000      -0.462398       -12.5825
  54   2.0000      -0.455202       -12.3867
  55   2.0000      -0.438426       -11.9302
  56   2.0000      -0.436001       -11.8642
  57   2.0000      -0.434922       -11.8348
  58   2.0000      -0.434077       -11.8118
  59   2.0000      -0.422281       -11.4909
  60   2.0000      -0.416140       -11.3237
  61   2.0000      -0.412467       -11.2238
  62   2.0000      -0.408528       -11.1166
  63   2.0000      -0.346295        -9.4232
  64   2.0000      -0.332814        -9.0563
  65   2.0000      -0.322540        -8.7768
  66   2.0000      -0.298632        -8.1262
  67   0.0000       0.032626         0.8878
  68   0.0000       0.064131         1.7451
  69   0.0000       0.109873         2.9898
  70   0.0000       0.119826         3.2606
  71   0.0000       0.126149         3.4327

MULLIKEN ATOMIC CHARGES
-----------------------
   0 S :    0.099837
   1 C :   -0.116598
   2 C :   -0.087772
   3 C :   -0.000439
   4 C :   -0.138626
   5 H :    0.043374
   6 C :    0.044282
   7 H :    0.034424
   8 H :    0.021729
   9 C :   -0.084586
  10 H :    0.022870
  11 H :    0.046282
  12 C :   -0.047948
  13 H :    0.031302
  14 H :    0.052199
  15 H :    0.025694
  16 S :    0.106767
  17 C :   -0.092404
  18 C :   -0.043558
  19 C :   -0.019702
  20 C :   -0.164286
  21 H :    0.022873
  22 C :    0.052112
  23 H :    0.013971
  24 H :    0.028003
  25 C :   -0.069243
  26 H :    0.028988
  27 H :    0.023608
  28 C :   -0.047833
  29 H :    0.034884
  30 H :    0.043555
  31 H :    0.034438
  32 H :    0.045927
  33 H :    0.055874
Sum of atomic charges:    0.0000000

LOEWDIN ATOMIC CHARGES
----------------------
   0 S :    0.392701
   1 C :   -0.198136
   2 C :   -0.067304
   3 C :   -0.070000
   4 C :   -0.176521
   5 H :    0.044989
   6 C :   -0.044684
   7 H :    0.043615
   8 H :    0.027381
   9 C :   -0.042174
  10 H :    0.025187
  11 H :    0.031874
  12 C :   -0.069897
  13 H :    0.021919
  14 H :    0.036578
  15 H :    0.025463
  16 S :    0.391939
  17 C :   -0.176788
  18 C :   -0.068046
  19 C :   -0.061617
  20 C :   -0.197537
  21 H :    0.031397
  22 C :   -0.035929
  23 H :    0.022601
  24 H :    0.033537
  25 C :   -0.039825
  26 H :    0.026002
  27 H :    0.020487
  28 C :   -0.068075
  29 H :    0.026503
  30 H :    0.028033
  31 H :    0.024296
  32 H :    0.026439
  33 H :    0.035590

  Mayer bond orders larger than 0.100000
B(  0-S ,  1-C ) :   1.1276 B(  0-S ,  4-C ) :   1.1309 B(  1-C ,  2-C ) :   1.6027
B(  1-C , 32-H ) :   0.9704 B(  2-C ,  3-C ) :   1.2444 B(  2-C ,  6-C ) :   1.0104
B(  3-C ,  4-C ) :   1.5830 B(  3-C ,  5-H ) :   0.9835 B(  4-C , 20-C ) :   1.0332
B(  6-C ,  7-H ) :   0.9452 B(  6-C ,  8-H ) :   0.9430 B(  6-C ,  9-C ) :   1.0524
B(  9-C , 10-H ) :   0.9560 B(  9-C , 11-H ) :   0.9530 B(  9-C , 12-C ) :   1.0850
B( 12-C , 13-H ) :   0.9728 B( 12-C , 14-H ) :   0.9727 B( 12-C , 15-H ) :   0.9716
B( 16-S , 17-C ) :   1.1210 B( 16-S , 20-C ) :   1.1311 B( 17-C , 18-C ) :   1.6588
B( 17-C , 33-H ) :   0.9666 B( 18-C , 19-C ) :   1.2056 B( 18-C , 21-H ) :   0.9843
B( 19-C , 20-C ) :   1.6098 B( 19-C , 22-C ) :   1.0618 B( 22-C , 23-H ) :   0.9307
B( 22-C , 24-H ) :   0.9303 B( 22-C , 25-C ) :   1.0617 B( 25-C , 26-H ) :   0.9522
B( 25-C , 27-H ) :   0.9549 B( 25-C , 28-C ) :   1.0797 B( 28-C , 29-H ) :   0.9711
B( 28-C , 30-H ) :   0.9758 B( 28-C , 31-H ) :   0.9721

Dispersion correction           -0.014809191
FINAL SINGLE POINT ENERGY     -1339.878931824317

DIPOLE MOMENT
-------------
                                X             Y             Z
Electronic contribution:     -1.88937       1.67643      16.44815
Nuclear contribution   :      2.18181      -1.79241     -16.70525
                        -----------------------------------------
Total Dipole Moment    :      0.29245      -0.11598      -0.25710
                        -----------------------------------------
Magnitude (a.u.)       :      0.40630
Magnitude (Debye)      :      1.03272

Rotational constants in cm-1:     0.023957     0.007488     0.006370
Rotational constants in MHz :   718.207813   224.473773   190.976940

                             ****ORCA TERMINATED NORMALLY****
TOTAL RUN TIME: 0 days 0 hours 0 minutes 32 seconds 833 msec
