                         Program Version 4.2.1 -  RELEASE  -
|  1> ! wB97X-D3 SP def2-SVP
|  2> %pal
|  3> nprocs 16
|  4> end
|  5>
|  6> * xyz 0 1
|  7> S 	 3.55098 	 16.6609 	 88.4673
|  8> C 	 3.44802 	 17.8247 	 87.1308
|  9> C 	 4.38335 	 17.4991 	 86.0882
| 10> C 	 5.26656 	 16.4534 	 86.4449
| 11> C 	 4.93026 	 15.8643 	 87.6418
| 12> H 	 6.01822 	 16.1843 	 85.8185
| 13> C 	 4.36721 	 18.1312 	 84.6995
| 14> H 	 5.29599 	 18.7197 	 84.6346
| 15> H 	 3.41425 	 18.6856 	 84.4884
| 16> C 	 4.41475 	 17.1695 	 83.5232
| 17> H 	 5.41969 	 16.781 	 83.5004
| 18> H 	 3.63909 	 16.3657 	 83.6556
| 19> C 	 4.08974 	 17.9635 	 82.1919
| 20> H 	 3.14542 	 18.3989 	 82.0989
| 21> H 	 4.88625 	 18.5653 	 81.9923
| 22> H 	 4.11449 	 17.2715 	 81.4275
| 23> S 	 4.97917 	 13.4539 	 88.9885
| 24> C 	 6.45908 	 12.639 	 89.3774
| 25> C 	 7.58937 	 13.4156 	 89.023
| 26> C 	 7.19347 	 14.6834 	 88.5088
| 27> C 	 5.78389 	 14.8427 	 88.3489
| 28> H 	 8.53618 	 13.0334 	 89.3579
| 29> C 	 8.25184 	 15.7117 	 88.1959
| 30> H 	 7.89731 	 16.3254 	 87.3419
| 31> H 	 9.10058 	 15.1031 	 87.8213
| 32> C 	 8.77603 	 16.6386 	 89.3418
| 33> H 	 9.5537 	 17.2737 	 88.8745
| 34> H 	 9.45761 	 16.1024 	 90.0776
| 35> C 	 7.80358 	 17.4899 	 90.1824
| 36> H 	 7.32078 	 18.2082 	 89.6399
| 37> H 	 8.25414 	 18.023 	 91.014
| 38> H 	 7.11525 	 16.8147 	 90.6495
| 39> H 	 2.72321 	 18.577 	 86.9668
| 40> H 	 6.57729 	 11.6969 	 89.95
| 41> *
| 42>
| 43>                          ****END OF INPUT****

CARTESIAN COORDINATES (ANGSTROEM)
---------------------------------
  S      3.550980   16.660900   88.467300
  C      3.448020   17.824700   87.130800
  C      4.383350   17.499100   86.088200
  C      5.266560   16.453400   86.444900
  C      4.930260   15.864300   87.641800
  H      6.018220   16.184300   85.818500
  C      4.367210   18.131200   84.699500
  H      5.295990   18.719700   84.634600
  H      3.414250   18.685600   84.488400
  C      4.414750   17.169500   83.523200
  H      5.419690   16.781000   83.500400
  H      3.639090   16.365700   83.655600
  C      4.089740   17.963500   82.191900
  H      3.145420   18.398900   82.098900
  H      4.886250   18.565300   81.992300
  H      4.114490   17.271500   81.427500
  S      4.979170   13.453900   88.988500
  C      6.459080   12.639000   89.377400
  C      7.589370   13.415600   89.023000
  C      7.193470   14.683400   88.508800
  C      5.783890   14.842700   88.348900
  H      8.536180   13.033400   89.357900
  C      8.251840   15.711700   88.195900
  H      7.897310   16.325400   87.341900
  H      9.100580   15.103100   87.821300
  C      8.776030   16.638600   89.341800
  H      9.553700   17.273700   88.874500
  H      9.457610   16.102400   90.077600
  C      7.803580   17.489900   90.182400
  H      7.320780   18.208200   89.639900
  H      8.254140   18.023000   91.014000
  H      7.115250   16.814700   90.649500
  H      2.723210   18.577000   86.966800
  H      6.577290   11.696900   89.950000

 Total Charge           Charge          ....    0
 Multiplicity           Mult            ....    1
 Number of Electrons    NEL             ....  134
 Basis Dimension        Dim             ....  322

ORBITAL ENERGIES
----------------

  NO   OCC          E(Eh)            E(eV)
   0   2.0000     -88.973110     -2421.0814
   1   2.0000     -88.966924     -2420.9131
   2   2.0000     -10.338314      -281.3198
   3   2.0000     -10.330504      -281.1073
   4   2.0000     -10.319914      -280.8191
   5   2.0000     -10.317707      -280.7591
   6   2.0000     -10.306827      -280.4630
   7   2.0000     -10.304039      -280.3872
   8   2.0000     -10.295268      -280.1485
   9   2.0000     -10.294942      -280.1396
  10   2.0000     -10.294887      -280.1381
  11   2.0000     -10.291880      -280.0563
  12   2.0000     -10.291626      -280.0494
  13   2.0000     -10.289527      -279.9923
  14   2.0000     -10.265552      -279.3399
  15   2.0000     -10.262259      -279.2503
  16   2.0000      -8.086180      -220.0362
  17   2.0000      -8.081994      -219.9222
  18   2.0000      -6.044803      -164.4874
  19   2.0000      -6.040959      -164.3828
  20   2.0000      -6.040324      -164.3656
  21   2.0000      -6.036882      -164.2719
  22   2.0000      -6.036232      -164.2542
  23   2.0000      -6.033161      -164.1707
  24   2.0000      -0.999980       -27.2109
  25   2.0000      -0.978390       -26.6234
  26   2.0000      -0.912030       -24.8176
  27   2.0000      -0.898855       -24.4591
  28   2.0000      -0.861430       -23.4407
  29   2.0000      -0.853211       -23.2170
  30   2.0000      -0.846234       -23.0272
  31   2.0000      -0.814401       -22.1610
  32   2.0000      -0.784646       -21.3513
  33   2.0000      -0.771888       -21.0041
  34   2.0000      -0.707935       -19.2639
  35   2.0000      -0.694551       -18.8997
  36   2.0000      -0.688017       -18.7219
  37   2.0000      -0.657494       -17.8913
  38   2.0000      -0.639696       -17.4070
  39   2.0000      -0.629978       -17.1426
  40   2.0000      -0.584496       -15.9050
  41   2.0000      -0.583166       -15.8688
  42   2.0000      -0.564535       -15.3618
  43   2.0000      -0.541772       -14.7424
  44   2.0000      -0.536487       -14.5986
  45   2.0000      -0.522335       -14.2135
  46   2.0000      -0.517453       -14.0806
  47   2.0000      -0.508095       -13.8260
  48   2.0000      -0.503890       -13.7115
  49   2.0000      -0.499653       -13.5962
  50   2.0000      -0.491543       -13.3756
  51   2.0000      -0.479664       -13.0523
  52   2.0000      -0.472003       -12.8438
  53   2.0000      -0.463285       -12.6066
  54   2.0000      -0.457558       -12.4508
  55   2.0000      -0.453009       -12.3270
  56   2.0000      -0.444325       -12.0907
  57   2.0000      -0.441409       -12.0114
  58   2.0000      -0.434832       -11.8324
  59   2.0000      -0.421604       -11.4724
  60   2.0000      -0.415875       -11.3165
  61   2.0000      -0.413671       -11.2566
  62   2.0000      -0.405927       -11.0458
  63   2.0000      -0.345472        -9.4008
  64   2.0000      -0.334256        -9.0956
  65   2.0000      -0.326848        -8.8940
  66   2.0000      -0.286440        -7.7944
  67   0.0000       0.026256         0.7145
  68   0.0000       0.065270         1.7761
  69   0.0000       0.109013         2.9664
  70   0.0000       0.116238         3.1630
  71   0.0000       0.125642         3.4189

MULLIKEN ATOMIC CHARGES
-----------------------
   0 S :    0.114522
   1 C :   -0.097352
   2 C :   -0.097864
   3 C :    0.058780
   4 C :   -0.096748
   5 H :   -0.023394
   6 C :    0.041287
   7 H :    0.039275
   8 H :    0.030838
   9 C :   -0.133390
  10 H :    0.028604
  11 H :    0.048011
  12 C :    0.036519
  13 H :    0.027704
  14 H :    0.007984
  15 H :    0.003810
  16 S :    0.114731
  17 C :   -0.121884
  18 C :   -0.036602
  19 C :   -0.059239
  20 C :   -0.152793
  21 H :    0.020740
  22 C :    0.066052
  23 H :    0.022995
  24 H :    0.028888
  25 C :   -0.099664
  26 H :    0.024575
  27 H :    0.022913
  28 C :    0.006263
  29 H :    0.016450
  30 H :    0.022664
  31 H :    0.032233
  32 H :    0.031711
  33 H :    0.071383
Sum of atomic charges:   -0.0000000

LOEWDIN ATOMIC CHARGES
----------------------
   0 S :    0.387248
   1 C :   -0.192366
   2 C :   -0.054107
   3 C :   -0.049332
   4 C :   -0.174161
   5 H :    0.015783
   6 C :   -0.041366
   7 H :    0.034740
   8 H :    0.034570
   9 C :   -0.034973
  10 H :    0.018239
  11 H :    0.029640
  12 C :   -0.046232
  13 H :    0.021414
  14 H :    0.015146
  15 H :    0.020579
  16 S :    0.431557
  17 C :   -0.202120
  18 C :   -0.072543
  19 C :   -0.061662
  20 C :   -0.214795
  21 H :    0.032015
  22 C :   -0.037481
  23 H :    0.030182
  24 H :    0.037925
  25 C :   -0.046449
  26 H :    0.023971
  27 H :    0.026177
  28 C :   -0.057020
  29 H :    0.012726
  30 H :    0.029280
  31 H :    0.026934
  32 H :    0.018971
  33 H :    0.037509

  Mayer bond orders larger than 0.100000
B(  0-S ,  1-C ) :   1.1297 B(  0-S ,  4-C ) :   1.1470 B(  1-C ,  2-C ) :   1.6026
B(  1-C ,  4-C ) :   0.1062 B(  1-C , 32-H ) :   0.9696 B(  2-C ,  3-C ) :   1.2485
B(  2-C ,  6-C ) :   1.0217 B(  3-C ,  4-C ) :   1.5636 B(  3-C ,  5-H ) :   1.0088
B(  4-C , 20-C ) :   1.0040 B(  6-C ,  7-H ) :   0.9313 B(  6-C ,  8-H ) :   0.9537
B(  6-C ,  9-C ) :   1.0671 B(  9-C , 10-H ) :   0.9493 B(  9-C , 11-H ) :   0.9616
B(  9-C , 12-C ) :   1.0903 B( 12-C , 13-H ) :   0.9745 B( 12-C , 14-H ) :   0.9708
B( 12-C , 15-H ) :   0.9671 B( 16-S , 17-C ) :   1.1886 B( 16-S , 20-C ) :   1.1591
B( 17-C , 18-C ) :   1.5678 B( 17-C , 20-C ) :   0.1072 B( 17-C , 33-H ) :   0.9617
B( 18-C , 19-C ) :   1.2796 B( 18-C , 21-H ) :   0.9932 B( 19-C , 20-C ) :   1.5400
B( 19-C , 22-C ) :   1.0425 B( 22-C , 23-H ) :   0.9372 B( 22-C , 24-H ) :   0.9315
B( 22-C , 25-C ) :   1.0668 B( 25-C , 26-H ) :   0.9541 B( 25-C , 27-H ) :   0.9569
B( 25-C , 28-C ) :   1.0758 B( 28-C , 29-H ) :   0.9769 B( 28-C , 30-H ) :   0.9711
B( 28-C , 31-H ) :   0.9730

Dispersion correction           -0.014362246
FINAL SINGLE POINT ENERGY     -1339.850782390438

DIPOLE MOMENT
-------------
                                X             Y             Z
Electronic contribution:    -12.05790     -14.32560      15.09627
Nuclear contribution   :     12.47012      14.53743     -15.54762
                        -----------------------------------------
Total Dipole Moment    :      0.41222       0.21184      -0.45135
                        -----------------------------------------
Magnitude (a.u.)       :      0.64693
Magnitude (Debye)      :      1.64437

Rotational constants in cm-1:     0.019133     0.007761     0.007277
Rotational constants in MHz :   573.601461   232.659051   218.151289

                             ****ORCA TERMINATED NORMALLY****
TOTAL RUN TIME: 0 days 0 hours 0 minutes 34 seconds 434 msec
