                         Program Version 4.2.1 -  RELEASE  -
|  1> ! wB97X-D3 SP def2-SVP
|  2> %pal
|  3> nprocs 16
|  4> end
|  5>
|  6> * xyz 0 1
|  7> S 	 0.830174 	 77.3555 	 46.1215
|  8> C 	 0.794877 	 78.6596 	 47.2221
|  9> C 	 1.3286 	 78.3433 	 48.4821
| 10> C 	 1.51252 	 76.9108 	 48.6202
| 11> C 	 1.25382 	 76.2262 	 47.4237
| 12> H 	 1.87353 	 76.4812 	 49.5488
| 13> C 	 1.6166 	 79.3555 	 49.6238
| 14> H 	 0.767751 	 79.4181 	 50.3091
| 15> H 	 1.64655 	 80.3652 	 49.138
| 16> C 	 2.88792 	 79.1413 	 50.44
| 17> H 	 3.08297 	 80.0767 	 50.9757
| 18> H 	 2.83757 	 78.2775 	 51.0714
| 19> C 	 4.13503 	 78.9075 	 49.5226
| 20> H 	 4.08669 	 78.1111 	 48.7828
| 21> H 	 4.27728 	 79.7712 	 48.8687
| 22> H 	 5.03186 	 78.8121 	 50.1464
| 23> S 	 2.13959 	 74.2522 	 45.6982
| 24> C 	 1.7054 	 72.5843 	 46.047
| 25> C 	 1.20157 	 72.3895 	 47.2793
| 26> C 	 1.10902 	 73.6565 	 47.9691
| 27> C 	 1.47986 	 74.7664 	 47.215
| 28> H 	 0.86271 	 71.3449 	 47.5524
| 29> C 	 0.446831 	 73.6902 	 49.34
| 30> H 	 -0.421676 	 73.0158 	 49.2666
| 31> H 	 0.159075 	 74.7075 	 49.4691
| 32> C 	 1.24701 	 73.0853 	 50.4628
| 33> H 	 1.30014 	 72.0101 	 50.516
| 34> H 	 0.790885 	 73.4461 	 51.4095
| 35> C 	 2.77712 	 73.3837 	 50.4457
| 36> H 	 3.353 	 73.1978 	 51.358
| 37> H 	 2.90875 	 74.4556 	 50.2671
| 38> H 	 3.23823 	 72.8195 	 49.6436
| 39> H 	 0.662137 	 79.6974 	 46.8195
| 40> H 	 1.92795 	 71.8514 	 45.3126
| 41> *
| 42>
| 43>                          ****END OF INPUT****

CARTESIAN COORDINATES (ANGSTROEM)
---------------------------------
  S      0.830174   77.355500   46.121500
  C      0.794877   78.659600   47.222100
  C      1.328600   78.343300   48.482100
  C      1.512520   76.910800   48.620200
  C      1.253820   76.226200   47.423700
  H      1.873530   76.481200   49.548800
  C      1.616600   79.355500   49.623800
  H      0.767751   79.418100   50.309100
  H      1.646550   80.365200   49.138000
  C      2.887920   79.141300   50.440000
  H      3.082970   80.076700   50.975700
  H      2.837570   78.277500   51.071400
  C      4.135030   78.907500   49.522600
  H      4.086690   78.111100   48.782800
  H      4.277280   79.771200   48.868700
  H      5.031860   78.812100   50.146400
  S      2.139590   74.252200   45.698200
  C      1.705400   72.584300   46.047000
  C      1.201570   72.389500   47.279300
  C      1.109020   73.656500   47.969100
  C      1.479860   74.766400   47.215000
  H      0.862710   71.344900   47.552400
  C      0.446831   73.690200   49.340000
  H     -0.421676   73.015800   49.266600
  H      0.159075   74.707500   49.469100
  C      1.247010   73.085300   50.462800
  H      1.300140   72.010100   50.516000
  H      0.790885   73.446100   51.409500
  C      2.777120   73.383700   50.445700
  H      3.353000   73.197800   51.358000
  H      2.908750   74.455600   50.267100
  H      3.238230   72.819500   49.643600
  H      0.662137   79.697400   46.819500
  H      1.927950   71.851400   45.312600

 Total Charge           Charge          ....    0
 Multiplicity           Mult            ....    1
 Number of Electrons    NEL             ....  134
 Basis Dimension        Dim             ....  322

ORBITAL ENERGIES
----------------

  NO   OCC          E(Eh)            E(eV)
   0   2.0000     -88.971389     -2421.0346
   1   2.0000     -88.960900     -2420.7492
   2   2.0000     -10.338494      -281.3247
   3   2.0000     -10.328069      -281.0411
   4   2.0000     -10.317824      -280.7623
   5   2.0000     -10.312664      -280.6218
   6   2.0000     -10.308403      -280.5059
   7   2.0000     -10.303964      -280.3851
   8   2.0000     -10.300787      -280.2987
   9   2.0000     -10.298774      -280.2439
  10   2.0000     -10.298545      -280.2376
  11   2.0000     -10.290790      -280.0266
  12   2.0000     -10.285996      -279.8962
  13   2.0000     -10.285618      -279.8859
  14   2.0000     -10.274509      -279.5836
  15   2.0000     -10.272983      -279.5421
  16   2.0000      -8.086191      -220.0364
  17   2.0000      -8.076463      -219.7717
  18   2.0000      -6.044722      -164.4852
  19   2.0000      -6.040708      -164.3760
  20   2.0000      -6.036912      -164.2727
  21   2.0000      -6.034937      -164.2190
  22   2.0000      -6.030971      -164.1111
  23   2.0000      -6.027116      -164.0062
  24   2.0000      -1.005805       -27.3693
  25   2.0000      -0.985243       -26.8098
  26   2.0000      -0.910123       -24.7657
  27   2.0000      -0.907860       -24.7041
  28   2.0000      -0.868935       -23.6449
  29   2.0000      -0.847334       -23.0571
  30   2.0000      -0.839978       -22.8570
  31   2.0000      -0.814666       -22.1682
  32   2.0000      -0.782274       -21.2867
  33   2.0000      -0.772642       -21.0247
  34   2.0000      -0.706789       -19.2327
  35   2.0000      -0.693578       -18.8732
  36   2.0000      -0.689371       -18.7587
  37   2.0000      -0.657460       -17.8904
  38   2.0000      -0.636068       -17.3083
  39   2.0000      -0.624789       -17.0014
  40   2.0000      -0.594809       -16.1856
  41   2.0000      -0.564810       -15.3693
  42   2.0000      -0.553918       -15.0729
  43   2.0000      -0.550993       -14.9933
  44   2.0000      -0.542396       -14.7593
  45   2.0000      -0.540768       -14.7151
  46   2.0000      -0.522969       -14.2307
  47   2.0000      -0.509725       -13.8703
  48   2.0000      -0.495090       -13.4721
  49   2.0000      -0.492944       -13.4137
  50   2.0000      -0.489301       -13.3146
  51   2.0000      -0.479212       -13.0400
  52   2.0000      -0.468511       -12.7488
  53   2.0000      -0.465137       -12.6570
  54   2.0000      -0.455056       -12.3827
  55   2.0000      -0.450656       -12.2630
  56   2.0000      -0.442028       -12.0282
  57   2.0000      -0.440568       -11.9885
  58   2.0000      -0.432082       -11.7575
  59   2.0000      -0.424572       -11.5532
  60   2.0000      -0.421321       -11.4647
  61   2.0000      -0.409887       -11.1536
  62   2.0000      -0.408455       -11.1146
  63   2.0000      -0.356613        -9.7039
  64   2.0000      -0.332738        -9.0543
  65   2.0000      -0.327605        -8.9146
  66   2.0000      -0.287656        -7.8275
  67   0.0000       0.028013         0.7623
  68   0.0000       0.073886         2.0105
  69   0.0000       0.109366         2.9760
  70   0.0000       0.123957         3.3731
  71   0.0000       0.125823         3.4238

MULLIKEN ATOMIC CHARGES
-----------------------
   0 S :    0.123967
   1 C :   -0.137824
   2 C :   -0.115442
   3 C :    0.018882
   4 C :   -0.127345
   5 H :    0.012725
   6 C :    0.066334
   7 H :    0.045001
   8 H :    0.021089
   9 C :   -0.074804
  10 H :    0.043175
  11 H :    0.035424
  12 C :   -0.076278
  13 H :    0.045584
  14 H :    0.018015
  15 H :    0.037379
  16 S :    0.081958
  17 C :   -0.093490
  18 C :   -0.028081
  19 C :   -0.099328
  20 C :   -0.131736
  21 H :    0.049162
  22 C :    0.116488
  23 H :    0.031525
  24 H :    0.019714
  25 C :   -0.087522
  26 H :    0.027399
  27 H :    0.034399
  28 C :   -0.057663
  29 H :    0.035020
  30 H :    0.011667
  31 H :    0.040833
  32 H :    0.068468
  33 H :    0.045306
Sum of atomic charges:    0.0000000

LOEWDIN ATOMIC CHARGES
----------------------
   0 S :    0.419739
   1 C :   -0.221695
   2 C :   -0.061943
   3 C :   -0.062522
   4 C :   -0.185181
   5 H :    0.028646
   6 C :   -0.035516
   7 H :    0.033136
   8 H :    0.033204
   9 C :   -0.038998
  10 H :    0.034124
  11 H :    0.019188
  12 C :   -0.071043
  13 H :    0.026207
  14 H :    0.022998
  15 H :    0.026013
  16 S :    0.391676
  17 C :   -0.166620
  18 C :   -0.079255
  19 C :   -0.054762
  20 C :   -0.203843
  21 H :    0.049595
  22 C :   -0.029744
  23 H :    0.039448
  24 H :    0.025728
  25 C :   -0.044098
  26 H :    0.021596
  27 H :    0.028722
  28 C :   -0.070215
  29 H :    0.026232
  30 H :    0.017965
  31 H :    0.026227
  32 H :    0.036003
  33 H :    0.018985

  Mayer bond orders larger than 0.100000
B(  0-S ,  1-C ) :   1.1549 B(  0-S ,  4-C ) :   1.1575 B(  1-C ,  2-C ) :   1.6031
B(  1-C , 32-H ) :   0.9566 B(  2-C ,  3-C ) :   1.2583 B(  2-C ,  6-C ) :   1.0122
B(  3-C ,  4-C ) :   1.5368 B(  3-C ,  5-H ) :   0.9910 B(  4-C , 20-C ) :   1.0456
B(  6-C ,  7-H ) :   0.9416 B(  6-C ,  8-H ) :   0.9415 B(  6-C ,  9-C ) :   1.0780
B(  9-C , 10-H ) :   0.9553 B(  9-C , 11-H ) :   0.9547 B(  9-C , 12-C ) :   1.0757
B( 12-C , 13-H ) :   0.9721 B( 12-C , 14-H ) :   0.9751 B( 12-C , 15-H ) :   0.9769
B( 16-S , 17-C ) :   1.1488 B( 16-S , 20-C ) :   1.1267 B( 17-C , 18-C ) :   1.6402
B( 17-C , 33-H ) :   0.9705 B( 18-C , 19-C ) :   1.2026 B( 18-C , 21-H ) :   0.9851
B( 19-C , 20-C ) :   1.6156 B( 19-C , 22-C ) :   1.0521 B( 22-C , 23-H ) :   0.9341
B( 22-C , 24-H ) :   0.9295 B( 22-C , 25-C ) :   1.0655 B( 25-C , 26-H ) :   0.9578
B( 25-C , 27-H ) :   0.9576 B( 25-C , 28-C ) :   1.0772 B( 28-C , 29-H ) :   0.9735
B( 28-C , 30-H ) :   0.9785 B( 28-C , 31-H ) :   0.9663

Dispersion correction           -0.015395584
FINAL SINGLE POINT ENERGY     -1339.881545002423

DIPOLE MOMENT
-------------
                                X             Y             Z
Electronic contribution:     -7.92469      -3.08729     -25.11632
Nuclear contribution   :      7.96136       3.07483      25.62246
                        -----------------------------------------
Total Dipole Moment    :      0.03667      -0.01246       0.50614
                        -----------------------------------------
Magnitude (a.u.)       :      0.50762
Magnitude (Debye)      :      1.29027

Rotational constants in cm-1:     0.018636     0.009780     0.007473
Rotational constants in MHz :   558.698958   293.188111   224.031162

                             ****ORCA TERMINATED NORMALLY****
TOTAL RUN TIME: 0 days 0 hours 0 minutes 36 seconds 11 msec
