                         Program Version 4.2.1 -  RELEASE  -
|  1> ! wB97X-D3 SP def2-SVP
|  2> %pal
|  3> nprocs 16
|  4> end
|  5>
|  6> * xyz 0 1
|  7> S 	 57.0263 	 12.942 	 74.5926
|  8> C 	 58.474 	 13.52 	 75.484
|  9> C 	 58.6246 	 12.7009 	 76.533
| 10> C 	 57.6372 	 11.7076 	 76.7397
| 11> C 	 56.8251 	 11.5864 	 75.6525
| 12> H 	 57.6249 	 11.0983 	 77.6324
| 13> C 	 59.764 	 12.697 	 77.5786
| 14> H 	 59.3772 	 12.8467 	 78.6118
| 15> H 	 60.3316 	 13.5964 	 77.4725
| 16> C 	 60.7564 	 11.5394 	 77.4979
| 17> H 	 60.2036 	 10.7269 	 77.151
| 18> H 	 61.429 	 11.6933 	 76.6917
| 19> C 	 61.4395 	 11.0201 	 78.8014
| 20> H 	 60.6377 	 10.9432 	 79.5949
| 21> H 	 61.7867 	 9.99865 	 78.6725
| 22> H 	 62.175 	 11.7643 	 79.1559
| 23> S 	 54.0917 	 11.1085 	 74.9951
| 24> C 	 53.5986 	 9.47544 	 74.7022
| 25> C 	 54.5764 	 8.5763 	 75.1524
| 26> C 	 55.8815 	 9.19275 	 75.4059
| 27> C 	 55.7748 	 10.5811 	 75.3815
| 28> H 	 54.2475 	 7.54675 	 74.9802
| 29> C 	 57.1047 	 8.38409 	 75.564
| 30> H 	 56.7975 	 7.3624 	 75.4727
| 31> H 	 57.5632 	 8.43725 	 76.5361
| 32> C 	 58.079 	 8.53108 	 74.4055
| 33> H 	 58.425 	 9.58481 	 74.4382
| 34> H 	 57.5883 	 8.32572 	 73.4298
| 35> C 	 59.2573 	 7.59102 	 74.4117
| 36> H 	 60.0131 	 7.84281 	 75.0944
| 37> H 	 59.7375 	 7.40576 	 73.399
| 38> H 	 58.9812 	 6.54314 	 74.7535
| 39> H 	 59.094 	 14.3956 	 75.098
| 40> H 	 52.6021 	 9.18481 	 74.4142
| 41> *
| 42>
| 43>                          ****END OF INPUT****

CARTESIAN COORDINATES (ANGSTROEM)
---------------------------------
  S     57.026300   12.942000   74.592600
  C     58.474000   13.520000   75.484000
  C     58.624600   12.700900   76.533000
  C     57.637200   11.707600   76.739700
  C     56.825100   11.586400   75.652500
  H     57.624900   11.098300   77.632400
  C     59.764000   12.697000   77.578600
  H     59.377200   12.846700   78.611800
  H     60.331600   13.596400   77.472500
  C     60.756400   11.539400   77.497900
  H     60.203600   10.726900   77.151000
  H     61.429000   11.693300   76.691700
  C     61.439500   11.020100   78.801400
  H     60.637700   10.943200   79.594900
  H     61.786700    9.998650   78.672500
  H     62.175000   11.764300   79.155900
  S     54.091700   11.108500   74.995100
  C     53.598600    9.475440   74.702200
  C     54.576400    8.576300   75.152400
  C     55.881500    9.192750   75.405900
  C     55.774800   10.581100   75.381500
  H     54.247500    7.546750   74.980200
  C     57.104700    8.384090   75.564000
  H     56.797500    7.362400   75.472700
  H     57.563200    8.437250   76.536100
  C     58.079000    8.531080   74.405500
  H     58.425000    9.584810   74.438200
  H     57.588300    8.325720   73.429800
  C     59.257300    7.591020   74.411700
  H     60.013100    7.842810   75.094400
  H     59.737500    7.405760   73.399000
  H     58.981200    6.543140   74.753500
  H     59.094000   14.395600   75.098000
  H     52.602100    9.184810   74.414200

 Total Charge           Charge          ....    0
 Multiplicity           Mult            ....    1
 Number of Electrons    NEL             ....  134
 Basis Dimension        Dim             ....  322

ORBITAL ENERGIES
----------------

  NO   OCC          E(Eh)            E(eV)
   0   2.0000     -88.965997     -2420.8879
   1   2.0000     -88.961664     -2420.7699
   2   2.0000     -10.332300      -281.1562
   3   2.0000     -10.331713      -281.1402
   4   2.0000     -10.321733      -280.8686
   5   2.0000     -10.318808      -280.7890
   6   2.0000     -10.310531      -280.5638
   7   2.0000     -10.299583      -280.2659
   8   2.0000     -10.299275      -280.2575
   9   2.0000     -10.291404      -280.0433
  10   2.0000     -10.290184      -280.0101
  11   2.0000     -10.288454      -279.9631
  12   2.0000     -10.286124      -279.8997
  13   2.0000     -10.285118      -279.8723
  14   2.0000     -10.279032      -279.7067
  15   2.0000     -10.277729      -279.6712
  16   2.0000      -8.080187      -219.8731
  17   2.0000      -8.076552      -219.7741
  18   2.0000      -6.038723      -164.3220
  19   2.0000      -6.035165      -164.2252
  20   2.0000      -6.034776      -164.2146
  21   2.0000      -6.031049      -164.1132
  22   2.0000      -6.030946      -164.1104
  23   2.0000      -6.027150      -164.0071
  24   2.0000      -1.007652       -27.4196
  25   2.0000      -0.983042       -26.7499
  26   2.0000      -0.915850       -24.9215
  27   2.0000      -0.908861       -24.7314
  28   2.0000      -0.868026       -23.6202
  29   2.0000      -0.851959       -23.1830
  30   2.0000      -0.842411       -22.9232
  31   2.0000      -0.814158       -22.1544
  32   2.0000      -0.784519       -21.3479
  33   2.0000      -0.775029       -21.0896
  34   2.0000      -0.708169       -19.2702
  35   2.0000      -0.701851       -19.0983
  36   2.0000      -0.689428       -18.7603
  37   2.0000      -0.658667       -17.9232
  38   2.0000      -0.639829       -17.4106
  39   2.0000      -0.628852       -17.1119
  40   2.0000      -0.596279       -16.2256
  41   2.0000      -0.570153       -15.5147
  42   2.0000      -0.561883       -15.2896
  43   2.0000      -0.554785       -15.0965
  44   2.0000      -0.529670       -14.4131
  45   2.0000      -0.524093       -14.2613
  46   2.0000      -0.520730       -14.1698
  47   2.0000      -0.517386       -14.0788
  48   2.0000      -0.511366       -13.9150
  49   2.0000      -0.495796       -13.4913
  50   2.0000      -0.491433       -13.3726
  51   2.0000      -0.486696       -13.2437
  52   2.0000      -0.464352       -12.6357
  53   2.0000      -0.461179       -12.5493
  54   2.0000      -0.456570       -12.4239
  55   2.0000      -0.449195       -12.2232
  56   2.0000      -0.447562       -12.1788
  57   2.0000      -0.436777       -11.8853
  58   2.0000      -0.430393       -11.7116
  59   2.0000      -0.425509       -11.5787
  60   2.0000      -0.416788       -11.3414
  61   2.0000      -0.409562       -11.1447
  62   2.0000      -0.405993       -11.0476
  63   2.0000      -0.345845        -9.4109
  64   2.0000      -0.331776        -9.0281
  65   2.0000      -0.328512        -8.9393
  66   2.0000      -0.299214        -8.1420
  67   0.0000       0.026384         0.7179
  68   0.0000       0.072223         1.9653
  69   0.0000       0.106353         2.8940
  70   0.0000       0.115381         3.1397
  71   0.0000       0.127376         3.4661

MULLIKEN ATOMIC CHARGES
-----------------------
   0 S :    0.086908
   1 C :   -0.162030
   2 C :   -0.079857
   3 C :    0.045330
   4 C :   -0.154028
   5 H :    0.017969
   6 C :    0.061434
   7 H :    0.028353
   8 H :   -0.000188
   9 C :   -0.035271
  10 H :   -0.001703
  11 H :    0.017704
  12 C :   -0.063823
  13 H :    0.027964
  14 H :    0.043630
  15 H :    0.047725
  16 S :    0.107128
  17 C :   -0.107628
  18 C :   -0.042154
  19 C :   -0.034997
  20 C :   -0.140856
  21 H :    0.030500
  22 C :    0.115745
  23 H :   -0.003038
  24 H :    0.029466
  25 C :   -0.092721
  26 H :    0.050353
  27 H :    0.037784
  28 C :   -0.054095
  29 H :    0.018112
  30 H :    0.046565
  31 H :    0.017311
  32 H :    0.082659
  33 H :    0.059752
Sum of atomic charges:    0.0000000

LOEWDIN ATOMIC CHARGES
----------------------
   0 S :    0.386719
   1 C :   -0.189681
   2 C :   -0.068417
   3 C :   -0.062113
   4 C :   -0.188323
   5 H :    0.034066
   6 C :   -0.032802
   7 H :    0.033365
   8 H :    0.020744
   9 C :   -0.043206
  10 H :    0.013310
  11 H :    0.021381
  12 C :   -0.063675
  13 H :    0.028296
  14 H :    0.028916
  15 H :    0.027431
  16 S :    0.388119
  17 C :   -0.186254
  18 C :   -0.076829
  19 C :   -0.045956
  20 C :   -0.184537
  21 H :    0.034623
  22 C :   -0.034396
  23 H :    0.028447
  24 H :    0.029563
  25 C :   -0.041373
  26 H :    0.029331
  27 H :    0.032810
  28 C :   -0.073733
  29 H :    0.013955
  30 H :    0.035836
  31 H :    0.026250
  32 H :    0.049752
  33 H :    0.028382

  Mayer bond orders larger than 0.100000
B(  0-S ,  1-C ) :   1.1030 B(  0-S ,  4-C ) :   1.1597 B(  1-C ,  2-C ) :   1.6496
B(  1-C , 32-H ) :   0.9653 B(  2-C ,  3-C ) :   1.2126 B(  2-C ,  6-C ) :   1.0241
B(  3-C ,  4-C ) :   1.5708 B(  3-C ,  5-H ) :   1.0014 B(  4-C , 20-C ) :   1.0319
B(  6-C ,  7-H ) :   0.9451 B(  6-C ,  8-H ) :   0.9379 B(  6-C ,  9-C ) :   1.0500
B(  9-C , 10-H ) :   0.9591 B(  9-C , 11-H ) :   0.9490 B(  9-C , 12-C ) :   1.0746
B( 12-C , 13-H ) :   0.9750 B( 12-C , 14-H ) :   0.9751 B( 12-C , 15-H ) :   0.9790
B( 16-S , 17-C ) :   1.1553 B( 16-S , 20-C ) :   1.1311 B( 17-C , 18-C ) :   1.6352
B( 17-C , 33-H ) :   0.9658 B( 18-C , 19-C ) :   1.2162 B( 18-C , 21-H ) :   0.9814
B( 19-C , 20-C ) :   1.6024 B( 19-C , 22-C ) :   1.0606 B( 22-C , 23-H ) :   0.9163
B( 22-C , 24-H ) :   0.9245 B( 22-C , 25-C ) :   1.0656 B( 25-C , 26-H ) :   0.9543
B( 25-C , 27-H ) :   0.9555 B( 25-C , 28-C ) :   1.0848 B( 28-C , 29-H ) :   0.9728
B( 28-C , 30-H ) :   0.9765 B( 28-C , 31-H ) :   0.9684

Dispersion correction           -0.014744326
FINAL SINGLE POINT ENERGY     -1339.864949538631

DIPOLE MOMENT
-------------
                                X             Y             Z
Electronic contribution:    -26.35328      14.73609      -9.58781
Nuclear contribution   :     26.77728     -15.19015       9.82701
                        -----------------------------------------
Total Dipole Moment    :      0.42401      -0.45406       0.23920
                        -----------------------------------------
Magnitude (a.u.)       :      0.66571
Magnitude (Debye)      :      1.69210

Rotational constants in cm-1:     0.017989     0.009461     0.007215
Rotational constants in MHz :   539.285924   283.646858   216.304591

                             ****ORCA TERMINATED NORMALLY****
TOTAL RUN TIME: 0 days 0 hours 0 minutes 30 seconds 128 msec
