                         Program Version 4.2.1 -  RELEASE  -
|  1> ! wB97X-D3 SP def2-SVP
|  2> %pal
|  3> nprocs 16
|  4> end
|  5>
|  6> * xyz 0 1
|  7> S 	 -45.452 	 62.9315 	 145.494
|  8> C 	 -44.3918 	 63.4496 	 144.225
|  9> C 	 -44.5007 	 64.8277 	 143.981
| 10> C 	 -45.4008 	 65.388 	 144.887
| 11> C 	 -45.989 	 64.5082 	 145.838
| 12> H 	 -45.7241 	 66.417 	 144.924
| 13> C 	 -43.9272 	 65.6909 	 142.888
| 14> H 	 -44.3065 	 66.7003 	 143.048
| 15> H 	 -44.5293 	 65.3336 	 142.038
| 16> C 	 -42.4618 	 65.5676 	 142.583
| 17> H 	 -42.1584 	 64.4858 	 142.537
| 18> H 	 -42.2896 	 65.9815 	 141.573
| 19> C 	 -41.5783 	 66.224 	 143.622
| 20> H 	 -40.4934 	 66.1768 	 143.399
| 21> H 	 -41.811 	 67.2976 	 143.634
| 22> H 	 -41.7154 	 65.8285 	 144.648
| 23> S 	 -48.6534 	 64.0435 	 146.72
| 24> C 	 -49.2013 	 64.8402 	 148.146
| 25> C 	 -48.3305 	 65.8514 	 148.408
| 26> C 	 -47.0785 	 65.7857 	 147.726
| 27> C 	 -47.0621 	 64.8534 	 146.741
| 28> H 	 -48.6391 	 66.5812 	 149.159
| 29> C 	 -45.9846 	 66.8076 	 147.921
| 30> H 	 -45.7293 	 67.2921 	 147.033
| 31> H 	 -45.1105 	 66.2221 	 148.35
| 32> C 	 -46.2708 	 67.9182 	 148.979
| 33> H 	 -46.4785 	 67.4724 	 149.943
| 34> H 	 -47.1739 	 68.5895 	 148.687
| 35> C 	 -45.0276 	 68.8356 	 149.051
| 36> H 	 -45.082 	 69.6069 	 149.843
| 37> H 	 -44.9788 	 69.3936 	 148.074
| 38> H 	 -44.0914 	 68.3681 	 149.329
| 39> H 	 -43.9933 	 62.7726 	 143.419
| 40> H 	 -50.0977 	 64.5212 	 148.714
| 41> *
| 42>
| 43>                          ****END OF INPUT****

CARTESIAN COORDINATES (ANGSTROEM)
---------------------------------
  S    -45.452000   62.931500  145.494000
  C    -44.391800   63.449600  144.225000
  C    -44.500700   64.827700  143.981000
  C    -45.400800   65.388000  144.887000
  C    -45.989000   64.508200  145.838000
  H    -45.724100   66.417000  144.924000
  C    -43.927200   65.690900  142.888000
  H    -44.306500   66.700300  143.048000
  H    -44.529300   65.333600  142.038000
  C    -42.461800   65.567600  142.583000
  H    -42.158400   64.485800  142.537000
  H    -42.289600   65.981500  141.573000
  C    -41.578300   66.224000  143.622000
  H    -40.493400   66.176800  143.399000
  H    -41.811000   67.297600  143.634000
  H    -41.715400   65.828500  144.648000
  S    -48.653400   64.043500  146.720000
  C    -49.201300   64.840200  148.146000
  C    -48.330500   65.851400  148.408000
  C    -47.078500   65.785700  147.726000
  C    -47.062100   64.853400  146.741000
  H    -48.639100   66.581200  149.159000
  C    -45.984600   66.807600  147.921000
  H    -45.729300   67.292100  147.033000
  H    -45.110500   66.222100  148.350000
  C    -46.270800   67.918200  148.979000
  H    -46.478500   67.472400  149.943000
  H    -47.173900   68.589500  148.687000
  C    -45.027600   68.835600  149.051000
  H    -45.082000   69.606900  149.843000
  H    -44.978800   69.393600  148.074000
  H    -44.091400   68.368100  149.329000
  H    -43.993300   62.772600  143.419000
  H    -50.097700   64.521200  148.714000

 Total Charge           Charge          ....    0
 Multiplicity           Mult            ....    1
 Number of Electrons    NEL             ....  134
 Basis Dimension        Dim             ....  322

ORBITAL ENERGIES
----------------

  NO   OCC          E(Eh)            E(eV)
   0   2.0000     -88.970547     -2421.0117
   1   2.0000     -88.957994     -2420.6701
   2   2.0000     -10.325463      -280.9701
   3   2.0000     -10.321986      -280.8755
   4   2.0000     -10.316475      -280.7256
   5   2.0000     -10.316004      -280.7127
   6   2.0000     -10.300623      -280.2942
   7   2.0000     -10.297007      -280.1958
   8   2.0000     -10.295903      -280.1658
   9   2.0000     -10.293857      -280.1101
  10   2.0000     -10.292331      -280.0686
  11   2.0000     -10.291134      -280.0360
  12   2.0000     -10.290480      -280.0182
  13   2.0000     -10.289090      -279.9804
  14   2.0000     -10.283337      -279.8238
  15   2.0000     -10.279365      -279.7157
  16   2.0000      -8.085742      -220.0242
  17   2.0000      -8.073150      -219.6816
  18   2.0000      -6.043979      -164.4650
  19   2.0000      -6.039944      -164.3552
  20   2.0000      -6.036993      -164.2749
  21   2.0000      -6.031681      -164.1304
  22   2.0000      -6.027623      -164.0200
  23   2.0000      -6.023815      -163.9163
  24   2.0000      -1.010864       -27.5070
  25   2.0000      -0.990013       -26.9396
  26   2.0000      -0.919854       -25.0305
  27   2.0000      -0.906974       -24.6800
  28   2.0000      -0.871731       -23.7210
  29   2.0000      -0.855327       -23.2746
  30   2.0000      -0.841744       -22.9050
  31   2.0000      -0.807839       -21.9824
  32   2.0000      -0.784491       -21.3471
  33   2.0000      -0.771827       -21.0025
  34   2.0000      -0.706802       -19.2330
  35   2.0000      -0.701422       -19.0867
  36   2.0000      -0.695776       -18.9330
  37   2.0000      -0.648897       -17.6574
  38   2.0000      -0.636677       -17.3249
  39   2.0000      -0.611773       -16.6472
  40   2.0000      -0.598192       -16.2776
  41   2.0000      -0.578235       -15.7346
  42   2.0000      -0.572789       -15.5864
  43   2.0000      -0.556838       -15.1523
  44   2.0000      -0.543047       -14.7771
  45   2.0000      -0.524637       -14.2761
  46   2.0000      -0.512155       -13.9365
  47   2.0000      -0.509965       -13.8769
  48   2.0000      -0.502007       -13.6603
  49   2.0000      -0.500427       -13.6173
  50   2.0000      -0.489012       -13.3067
  51   2.0000      -0.476305       -12.9609
  52   2.0000      -0.470914       -12.8142
  53   2.0000      -0.466641       -12.6980
  54   2.0000      -0.461991       -12.5714
  55   2.0000      -0.446542       -12.1510
  56   2.0000      -0.441633       -12.0174
  57   2.0000      -0.435618       -11.8538
  58   2.0000      -0.432067       -11.7571
  59   2.0000      -0.425849       -11.5879
  60   2.0000      -0.419721       -11.4212
  61   2.0000      -0.418627       -11.3914
  62   2.0000      -0.409956       -11.1555
  63   2.0000      -0.338092        -9.1999
  64   2.0000      -0.331526        -9.0213
  65   2.0000      -0.324843        -8.8394
  66   2.0000      -0.294534        -8.0147
  67   0.0000       0.023026         0.6266
  68   0.0000       0.073431         1.9982
  69   0.0000       0.119217         3.2441
  70   0.0000       0.122754         3.3403
  71   0.0000       0.133694         3.6380

MULLIKEN ATOMIC CHARGES
-----------------------
   0 S :    0.142530
   1 C :   -0.150951
   2 C :   -0.094982
   3 C :    0.001848
   4 C :   -0.180461
   5 H :    0.009153
   6 C :    0.074204
   7 H :    0.017912
   8 H :    0.042718
   9 C :   -0.059248
  10 H :    0.033452
  11 H :    0.032395
  12 C :   -0.066158
  13 H :    0.039049
  14 H :    0.022622
  15 H :    0.048950
  16 S :    0.092155
  17 C :   -0.108620
  18 C :   -0.043306
  19 C :   -0.025786
  20 C :   -0.150686
  21 H :    0.022753
  22 C :    0.074897
  23 H :    0.014951
  24 H :    0.049327
  25 C :   -0.117300
  26 H :    0.032895
  27 H :    0.046809
  28 C :   -0.050942
  29 H :    0.028020
  30 H :    0.039452
  31 H :    0.031728
  32 H :    0.072565
  33 H :    0.078054
Sum of atomic charges:   -0.0000000

LOEWDIN ATOMIC CHARGES
----------------------
   0 S :    0.457777
   1 C :   -0.229163
   2 C :   -0.064457
   3 C :   -0.061082
   4 C :   -0.220493
   5 H :    0.025186
   6 C :   -0.033654
   7 H :    0.030193
   8 H :    0.043146
   9 C :   -0.046182
  10 H :    0.029789
  11 H :    0.028616
  12 C :   -0.072031
  13 H :    0.028836
  14 H :    0.023308
  15 H :    0.031594
  16 S :    0.389231
  17 C :   -0.191377
  18 C :   -0.082632
  19 C :   -0.060407
  20 C :   -0.193619
  21 H :    0.031752
  22 C :   -0.027168
  23 H :    0.018165
  24 H :    0.048587
  25 C :   -0.045099
  26 H :    0.018714
  27 H :    0.032752
  28 C :   -0.072441
  29 H :    0.026201
  30 H :    0.031163
  31 H :    0.023051
  32 H :    0.039761
  33 H :    0.041979

  Mayer bond orders larger than 0.100000
B(  0-S ,  1-C ) :   1.1765 B(  0-S ,  4-C ) :   1.1876 B(  1-C ,  2-C ) :   1.5359
B(  1-C ,  4-C ) :   0.1101 B(  1-C , 32-H ) :   0.9548 B(  2-C ,  3-C ) :   1.3239
B(  2-C ,  6-C ) :   1.0047 B(  3-C ,  4-C ) :   1.4889 B(  3-C ,  5-H ) :   0.9890
B(  4-C , 20-C ) :   1.0786 B(  6-C ,  7-H ) :   0.9449 B(  6-C ,  8-H ) :   0.9246
B(  6-C ,  9-C ) :   1.0751 B(  9-C , 10-H ) :   0.9531 B(  9-C , 11-H ) :   0.9510
B(  9-C , 12-C ) :   1.0770 B( 12-C , 13-H ) :   0.9743 B( 12-C , 14-H ) :   0.9733
B( 12-C , 15-H ) :   0.9749 B( 16-S , 17-C ) :   1.1639 B( 16-S , 20-C ) :   1.1227
B( 17-C , 18-C ) :   1.5856 B( 17-C , 33-H ) :   0.9626 B( 18-C , 19-C ) :   1.2512
B( 18-C , 21-H ) :   0.9850 B( 19-C , 20-C ) :   1.6119 B( 19-C , 22-C ) :   1.0282
B( 22-C , 23-H ) :   0.9422 B( 22-C , 24-H ) :   0.9182 B( 22-C , 25-C ) :   1.0883
B( 25-C , 26-H ) :   0.9510 B( 25-C , 27-H ) :   0.9499 B( 25-C , 28-C ) :   1.0793
B( 28-C , 29-H ) :   0.9732 B( 28-C , 30-H ) :   0.9743 B( 28-C , 31-H ) :   0.9746

Dispersion correction           -0.013726020
FINAL SINGLE POINT ENERGY     -1339.875205355512

DIPOLE MOMENT
-------------
                                X             Y             Z
Electronic contribution:    -19.44888     -22.78452       0.84127
Nuclear contribution   :     19.65264      23.36890      -0.96485
                        -----------------------------------------
Total Dipole Moment    :      0.20376       0.58439      -0.12358
                        -----------------------------------------
Magnitude (a.u.)       :      0.63111
Magnitude (Debye)      :      1.60415

Rotational constants in cm-1:     0.017617     0.008764     0.006299
Rotational constants in MHz :   528.146944   262.733807   188.835790

                             ****ORCA TERMINATED NORMALLY****
TOTAL RUN TIME: 0 days 0 hours 0 minutes 34 seconds 390 msec
