                         Program Version 4.2.1 -  RELEASE  -
|  1> ! wB97X-D3 SP def2-SVP
|  2> %pal
|  3> nprocs 16
|  4> end
|  5>
|  6> * xyz 0 1
|  7> S 	 51.8476 	 19.3981 	 91.0464
|  8> C 	 50.4245 	 20.3774 	 90.5163
|  9> C 	 50.7801 	 21.213 	 89.4712
| 10> C 	 51.987 	 20.7663 	 88.8769
| 11> C 	 52.6662 	 19.7695 	 89.5994
| 12> H 	 52.4185 	 21.0848 	 87.9415
| 13> C 	 49.8702 	 22.2109 	 88.7907
| 14> H 	 50.4832 	 22.6863 	 88.0052
| 15> H 	 49.8182 	 23.0015 	 89.5966
| 16> C 	 48.508 	 21.7131 	 88.1904
| 17> H 	 48.7167 	 21.3497 	 87.1498
| 18> H 	 48.2584 	 20.8313 	 88.7802
| 19> C 	 47.4229 	 22.8617 	 88.0873
| 20> H 	 47.895 	 23.6861 	 87.5535
| 21> H 	 46.5079 	 22.6101 	 87.4874
| 22> H 	 47.1048 	 23.2748 	 89.0524
| 23> S 	 55.2485 	 20.3073 	 88.6987
| 24> C 	 56.3061 	 19.0125 	 88.2009
| 25> C 	 55.708 	 17.7631 	 88.3917
| 26> C 	 54.3328 	 17.871 	 88.8547
| 27> C 	 53.9656 	 19.1643 	 89.1802
| 28> H 	 56.1895 	 16.8796 	 88.1615
| 29> C 	 53.4173 	 16.6879 	 89.073
| 30> H 	 53.093 	 16.7807 	 90.1334
| 31> H 	 54.0003 	 15.8016 	 89.0484
| 32> C 	 52.1759 	 16.5903 	 88.1448
| 33> H 	 52.5033 	 16.3132 	 87.1431
| 34> H 	 51.6169 	 17.5279 	 88.2046
| 35> C 	 51.2022 	 15.5672 	 88.5457
| 36> H 	 50.8963 	 15.562 	 89.6387
| 37> H 	 51.6261 	 14.5839 	 88.3804
| 38> H 	 50.2992 	 15.6906 	 88.0024
| 39> H 	 49.5962 	 20.5662 	 91.1535
| 40> H 	 57.3542 	 19.1299 	 87.9228
| 41> *
| 42>
| 43>                          ****END OF INPUT****

CARTESIAN COORDINATES (ANGSTROEM)
---------------------------------
  S     51.847600   19.398100   91.046400
  C     50.424500   20.377400   90.516300
  C     50.780100   21.213000   89.471200
  C     51.987000   20.766300   88.876900
  C     52.666200   19.769500   89.599400
  H     52.418500   21.084800   87.941500
  C     49.870200   22.210900   88.790700
  H     50.483200   22.686300   88.005200
  H     49.818200   23.001500   89.596600
  C     48.508000   21.713100   88.190400
  H     48.716700   21.349700   87.149800
  H     48.258400   20.831300   88.780200
  C     47.422900   22.861700   88.087300
  H     47.895000   23.686100   87.553500
  H     46.507900   22.610100   87.487400
  H     47.104800   23.274800   89.052400
  S     55.248500   20.307300   88.698700
  C     56.306100   19.012500   88.200900
  C     55.708000   17.763100   88.391700
  C     54.332800   17.871000   88.854700
  C     53.965600   19.164300   89.180200
  H     56.189500   16.879600   88.161500
  C     53.417300   16.687900   89.073000
  H     53.093000   16.780700   90.133400
  H     54.000300   15.801600   89.048400
  C     52.175900   16.590300   88.144800
  H     52.503300   16.313200   87.143100
  H     51.616900   17.527900   88.204600
  C     51.202200   15.567200   88.545700
  H     50.896300   15.562000   89.638700
  H     51.626100   14.583900   88.380400
  H     50.299200   15.690600   88.002400
  H     49.596200   20.566200   91.153500
  H     57.354200   19.129900   87.922800

 Total Charge           Charge          ....    0
 Multiplicity           Mult            ....    1
 Number of Electrons    NEL             ....  134
 Basis Dimension        Dim             ....  322

ORBITAL ENERGIES
----------------

  NO   OCC          E(Eh)            E(eV)
   0   2.0000     -88.970315     -2421.0053
   1   2.0000     -88.965270     -2420.8681
   2   2.0000     -10.331353      -281.1304
   3   2.0000     -10.328231      -281.0454
   4   2.0000     -10.320905      -280.8461
   5   2.0000     -10.314583      -280.6741
   6   2.0000     -10.304545      -280.4009
   7   2.0000     -10.303963      -280.3851
   8   2.0000     -10.301240      -280.3110
   9   2.0000     -10.300367      -280.2872
  10   2.0000     -10.293617      -280.1036
  11   2.0000     -10.292198      -280.0650
  12   2.0000     -10.289687      -279.9966
  13   2.0000     -10.286946      -279.9220
  14   2.0000     -10.278564      -279.6939
  15   2.0000     -10.268193      -279.4117
  16   2.0000      -8.084491      -219.9902
  17   2.0000      -8.079394      -219.8515
  18   2.0000      -6.042954      -164.4371
  19   2.0000      -6.039091      -164.3320
  20   2.0000      -6.037989      -164.3020
  21   2.0000      -6.035331      -164.2297
  22   2.0000      -6.033893      -164.1906
  23   2.0000      -6.030188      -164.0898
  24   2.0000      -1.003138       -27.2968
  25   2.0000      -0.980670       -26.6854
  26   2.0000      -0.909937       -24.7607
  27   2.0000      -0.906032       -24.6544
  28   2.0000      -0.862312       -23.4647
  29   2.0000      -0.854098       -23.2412
  30   2.0000      -0.846351       -23.0304
  31   2.0000      -0.809040       -22.0151
  32   2.0000      -0.782078       -21.2814
  33   2.0000      -0.770395       -20.9635
  34   2.0000      -0.709564       -19.3082
  35   2.0000      -0.700106       -19.0509
  36   2.0000      -0.684721       -18.6322
  37   2.0000      -0.667844       -18.1729
  38   2.0000      -0.638695       -17.3798
  39   2.0000      -0.608847       -16.5676
  40   2.0000      -0.590600       -16.0710
  41   2.0000      -0.573306       -15.6004
  42   2.0000      -0.570288       -15.5183
  43   2.0000      -0.550602       -14.9826
  44   2.0000      -0.526979       -14.3398
  45   2.0000      -0.518743       -14.1157
  46   2.0000      -0.516836       -14.0638
  47   2.0000      -0.511156       -13.9093
  48   2.0000      -0.506896       -13.7933
  49   2.0000      -0.502590       -13.6762
  50   2.0000      -0.489610       -13.3230
  51   2.0000      -0.479934       -13.0597
  52   2.0000      -0.470085       -12.7917
  53   2.0000      -0.463874       -12.6227
  54   2.0000      -0.459737       -12.5101
  55   2.0000      -0.445820       -12.1314
  56   2.0000      -0.441774       -12.0213
  57   2.0000      -0.435913       -11.8618
  58   2.0000      -0.426274       -11.5995
  59   2.0000      -0.423671       -11.5287
  60   2.0000      -0.421170       -11.4606
  61   2.0000      -0.418034       -11.3753
  62   2.0000      -0.414532       -11.2800
  63   2.0000      -0.340078        -9.2540
  64   2.0000      -0.332863        -9.0577
  65   2.0000      -0.328909        -8.9501
  66   2.0000      -0.294661        -8.0181
  67   0.0000       0.026910         0.7323
  68   0.0000       0.064730         1.7614
  69   0.0000       0.102525         2.7898
  70   0.0000       0.116410         3.1677
  71   0.0000       0.129548         3.5252

MULLIKEN ATOMIC CHARGES
-----------------------
   0 S :    0.113957
   1 C :   -0.128935
   2 C :   -0.085931
   3 C :    0.017471
   4 C :   -0.156969
   5 H :    0.008532
   6 C :    0.025727
   7 H :    0.024661
   8 H :    0.045694
   9 C :   -0.051500
  10 H :    0.041698
  11 H :    0.035854
  12 C :   -0.071850
  13 H :    0.032274
  14 H :    0.048081
  15 H :    0.038697
  16 S :    0.101212
  17 C :   -0.097261
  18 C :    0.002167
  19 C :   -0.040536
  20 C :   -0.154760
  21 H :   -0.010756
  22 C :    0.068298
  23 H :    0.028236
  24 H :   -0.001695
  25 C :   -0.049066
  26 H :    0.028571
  27 H :    0.044068
  28 C :   -0.040483
  29 H :    0.028963
  30 H :    0.016736
  31 H :    0.028907
  32 H :    0.043712
  33 H :    0.066224
Sum of atomic charges:    0.0000000

LOEWDIN ATOMIC CHARGES
----------------------
   0 S :    0.412967
   1 C :   -0.186079
   2 C :   -0.060130
   3 C :   -0.069734
   4 C :   -0.208777
   5 H :    0.025600
   6 C :   -0.041269
   7 H :    0.030527
   8 H :    0.040813
   9 C :   -0.036675
  10 H :    0.033681
  11 H :    0.022195
  12 C :   -0.071050
  13 H :    0.026336
  14 H :    0.032897
  15 H :    0.024920
  16 S :    0.399256
  17 C :   -0.186124
  18 C :   -0.062581
  19 C :   -0.049760
  20 C :   -0.191641
  21 H :    0.017441
  22 C :   -0.033422
  23 H :    0.032083
  24 H :    0.020461
  25 C :   -0.037481
  26 H :    0.027029
  27 H :    0.030169
  28 C :   -0.065417
  29 H :    0.029113
  30 H :    0.019148
  31 H :    0.022963
  32 H :    0.018984
  33 H :    0.033557

  Mayer bond orders larger than 0.100000
B(  0-S ,  1-C ) :   1.1315 B(  0-S ,  4-C ) :   1.1758 B(  1-C ,  2-C ) :   1.5913
B(  1-C ,  4-C ) :   0.1020 B(  1-C , 32-H ) :   0.9698 B(  2-C ,  3-C ) :   1.2478
B(  2-C ,  6-C ) :   1.0263 B(  3-C ,  4-C ) :   1.5593 B(  3-C ,  5-H ) :   0.9921
B(  4-C , 20-C ) :   1.0096 B(  6-C ,  7-H ) :   0.9433 B(  6-C ,  8-H ) :   0.9374
B(  6-C ,  9-C ) :   1.0353 B(  9-C , 10-H ) :   0.9568 B(  9-C , 11-H ) :   0.9675
B(  9-C , 12-C ) :   1.0586 B( 12-C , 13-H ) :   0.9757 B( 12-C , 14-H ) :   0.9773
B( 12-C , 15-H ) :   0.9800 B( 16-S , 17-C ) :   1.1636 B( 16-S , 20-C ) :   1.1268
B( 17-C , 18-C ) :   1.5965 B( 17-C , 33-H ) :   0.9640 B( 18-C , 19-C ) :   1.2402
B( 18-C , 21-H ) :   1.0000 B( 19-C , 20-C ) :   1.6022 B( 19-C , 22-C ) :   1.0396
B( 22-C , 23-H ) :   0.9361 B( 22-C , 24-H ) :   0.9292 B( 22-C , 25-C ) :   1.0629
B( 25-C , 26-H ) :   0.9500 B( 25-C , 27-H ) :   0.9552 B( 25-C , 28-C ) :   1.0994
B( 28-C , 29-H ) :   0.9700 B( 28-C , 30-H ) :   0.9718 B( 28-C , 31-H ) :   0.9716

Dispersion correction           -0.014438757
FINAL SINGLE POINT ENERGY     -1339.876231660518

DIPOLE MOMENT
-------------
                                X             Y             Z
Electronic contribution:     22.44594       3.50998       9.33050
Nuclear contribution   :    -22.71845      -3.55273      -9.65865
                        -----------------------------------------
Total Dipole Moment    :     -0.27250      -0.04275      -0.32816
                        -----------------------------------------
Magnitude (a.u.)       :      0.42869
Magnitude (Debye)      :      1.08963

Rotational constants in cm-1:     0.019479     0.007992     0.006728
Rotational constants in MHz :   583.965739   239.584185   201.711376

                             ****ORCA TERMINATED NORMALLY****
TOTAL RUN TIME: 0 days 0 hours 0 minutes 29 seconds 624 msec
