                         Program Version 4.2.1 -  RELEASE  -
|  1> ! wB97X-D3 SP def2-SVP
|  2> %pal
|  3> nprocs 16
|  4> end
|  5>
|  6> * xyz 0 1
|  7> S 	 -30.9376 	 28.5123 	 45.9967
|  8> C 	 -29.9253 	 28.9302 	 47.3271
|  9> C 	 -30.5283 	 29.9161 	 48.1148
| 10> C 	 -31.8903 	 30.1895 	 47.8073
| 11> C 	 -32.2891 	 29.5145 	 46.6503
| 12> H 	 -32.6232 	 30.8182 	 48.1898
| 13> C 	 -29.8369 	 30.5973 	 49.322
| 14> H 	 -28.7522 	 30.4602 	 49.2957
| 15> H 	 -30.1841 	 30.1589 	 50.3028
| 16> C 	 -30.0482 	 32.1607 	 49.5034
| 17> H 	 -31.0459 	 32.4624 	 49.6774
| 18> H 	 -29.5396 	 32.4348 	 50.4639
| 19> C 	 -29.4832 	 32.9414 	 48.2733
| 20> H 	 -30.0351 	 32.7577 	 47.3282
| 21> H 	 -29.6398 	 33.9791 	 48.4422
| 22> H 	 -28.4768 	 32.6419 	 48.0966
| 23> S 	 -33.6119 	 29.5587 	 44.2227
| 24> C 	 -35.3014 	 29.9691 	 44.188
| 25> C 	 -35.8344 	 30.0911 	 45.4368
| 26> C 	 -34.8115 	 29.8997 	 46.4572
| 27> C 	 -33.5565 	 29.6646 	 45.9759
| 28> H 	 -36.9201 	 30.2976 	 45.5657
| 29> C 	 -35.3185 	 29.7581 	 47.8798
| 30> H 	 -36.2598 	 30.2769 	 47.8145
| 31> H 	 -34.7676 	 30.4768 	 48.5485
| 32> C 	 -35.5069 	 28.2813 	 48.3317
| 33> H 	 -34.5327 	 27.7553 	 48.2678
| 34> H 	 -36.1521 	 27.7097 	 47.6718
| 35> C 	 -35.9563 	 28.1814 	 49.8115
| 36> H 	 -37.0132 	 28.3664 	 49.9248
| 37> H 	 -35.4915 	 28.8291 	 50.4431
| 38> H 	 -35.8178 	 27.2213 	 50.2335
| 39> H 	 -28.9722 	 28.4946 	 47.5845
| 40> H 	 -35.8588 	 30.2018 	 43.3158
| 41> *
| 42>
| 43>                          ****END OF INPUT****

CARTESIAN COORDINATES (ANGSTROEM)
---------------------------------
  S    -30.937600   28.512300   45.996700
  C    -29.925300   28.930200   47.327100
  C    -30.528300   29.916100   48.114800
  C    -31.890300   30.189500   47.807300
  C    -32.289100   29.514500   46.650300
  H    -32.623200   30.818200   48.189800
  C    -29.836900   30.597300   49.322000
  H    -28.752200   30.460200   49.295700
  H    -30.184100   30.158900   50.302800
  C    -30.048200   32.160700   49.503400
  H    -31.045900   32.462400   49.677400
  H    -29.539600   32.434800   50.463900
  C    -29.483200   32.941400   48.273300
  H    -30.035100   32.757700   47.328200
  H    -29.639800   33.979100   48.442200
  H    -28.476800   32.641900   48.096600
  S    -33.611900   29.558700   44.222700
  C    -35.301400   29.969100   44.188000
  C    -35.834400   30.091100   45.436800
  C    -34.811500   29.899700   46.457200
  C    -33.556500   29.664600   45.975900
  H    -36.920100   30.297600   45.565700
  C    -35.318500   29.758100   47.879800
  H    -36.259800   30.276900   47.814500
  H    -34.767600   30.476800   48.548500
  C    -35.506900   28.281300   48.331700
  H    -34.532700   27.755300   48.267800
  H    -36.152100   27.709700   47.671800
  C    -35.956300   28.181400   49.811500
  H    -37.013200   28.366400   49.924800
  H    -35.491500   28.829100   50.443100
  H    -35.817800   27.221300   50.233500
  H    -28.972200   28.494600   47.584500
  H    -35.858800   30.201800   43.315800

 Total Charge           Charge          ....    0
 Multiplicity           Mult            ....    1
 Number of Electrons    NEL             ....  134
 Basis Dimension        Dim             ....  322

ORBITAL ENERGIES
----------------

  NO   OCC          E(Eh)            E(eV)
   0   2.0000     -88.969477     -2420.9825
   1   2.0000     -88.964203     -2420.8390
   2   2.0000     -10.334790      -281.2239
   3   2.0000     -10.326257      -280.9917
   4   2.0000     -10.314899      -280.6827
   5   2.0000     -10.312971      -280.6302
   6   2.0000     -10.306814      -280.4627
   7   2.0000     -10.301135      -280.3081
   8   2.0000     -10.298809      -280.2448
   9   2.0000     -10.296322      -280.1772
  10   2.0000     -10.294710      -280.1333
  11   2.0000     -10.293187      -280.0918
  12   2.0000     -10.290661      -280.0231
  13   2.0000     -10.290249      -280.0119
  14   2.0000     -10.271225      -279.4942
  15   2.0000     -10.264503      -279.3113
  16   2.0000      -8.083525      -219.9639
  17   2.0000      -8.079318      -219.8494
  18   2.0000      -6.042093      -164.4137
  19   2.0000      -6.038164      -164.3068
  20   2.0000      -6.037955      -164.3011
  21   2.0000      -6.034240      -164.2000
  22   2.0000      -6.033856      -164.1896
  23   2.0000      -6.029850      -164.0806
  24   2.0000      -1.007048       -27.4032
  25   2.0000      -0.983113       -26.7519
  26   2.0000      -0.904510       -24.6130
  27   2.0000      -0.898537       -24.4504
  28   2.0000      -0.873673       -23.7739
  29   2.0000      -0.852113       -23.1872
  30   2.0000      -0.843461       -22.9517
  31   2.0000      -0.815852       -22.2005
  32   2.0000      -0.780795       -21.2465
  33   2.0000      -0.769912       -20.9504
  34   2.0000      -0.714815       -19.4511
  35   2.0000      -0.701866       -19.0987
  36   2.0000      -0.693716       -18.8770
  37   2.0000      -0.665925       -18.1207
  38   2.0000      -0.644716       -17.5436
  39   2.0000      -0.618802       -16.8385
  40   2.0000      -0.590452       -16.0670
  41   2.0000      -0.564466       -15.3599
  42   2.0000      -0.553498       -15.0615
  43   2.0000      -0.546639       -14.8748
  44   2.0000      -0.529644       -14.4123
  45   2.0000      -0.527077       -14.3425
  46   2.0000      -0.521626       -14.1942
  47   2.0000      -0.513172       -13.9641
  48   2.0000      -0.507040       -13.7973
  49   2.0000      -0.502784       -13.6815
  50   2.0000      -0.490867       -13.3572
  51   2.0000      -0.484329       -13.1793
  52   2.0000      -0.469582       -12.7780
  53   2.0000      -0.465459       -12.6658
  54   2.0000      -0.457197       -12.4410
  55   2.0000      -0.449314       -12.2265
  56   2.0000      -0.447643       -12.1810
  57   2.0000      -0.438107       -11.9215
  58   2.0000      -0.430493       -11.7143
  59   2.0000      -0.425001       -11.5649
  60   2.0000      -0.416890       -11.3441
  61   2.0000      -0.412638       -11.2285
  62   2.0000      -0.407501       -11.0887
  63   2.0000      -0.363218        -9.8837
  64   2.0000      -0.334028        -9.0894
  65   2.0000      -0.327818        -8.9204
  66   2.0000      -0.282261        -7.6807
  67   0.0000       0.022695         0.6175
  68   0.0000       0.073689         2.0052
  69   0.0000       0.107183         2.9166
  70   0.0000       0.118186         3.2160
  71   0.0000       0.137698         3.7469

MULLIKEN ATOMIC CHARGES
-----------------------
   0 S :    0.110509
   1 C :   -0.106120
   2 C :   -0.063874
   3 C :    0.050421
   4 C :   -0.143499
   5 H :   -0.021283
   6 C :    0.029932
   7 H :    0.020768
   8 H :    0.045983
   9 C :   -0.090850
  10 H :    0.019643
  11 H :    0.033109
  12 C :   -0.040244
  13 H :    0.043128
  14 H :    0.028791
  15 H :    0.026713
  16 S :    0.096174
  17 C :   -0.072971
  18 C :   -0.046622
  19 C :   -0.099692
  20 C :   -0.117555
  21 H :    0.039111
  22 C :    0.061062
  23 H :    0.003615
  24 H :    0.026228
  25 C :   -0.049325
  26 H :    0.040644
  27 H :    0.030344
  28 C :    0.009540
  29 H :    0.018970
  30 H :    0.004271
  31 H :    0.019359
  32 H :    0.048808
  33 H :    0.044909
Sum of atomic charges:   -0.0000000

LOEWDIN ATOMIC CHARGES
----------------------
   0 S :    0.394110
   1 C :   -0.207148
   2 C :   -0.061747
   3 C :   -0.050508
   4 C :   -0.166161
   5 H :    0.021954
   6 C :   -0.035927
   7 H :    0.025379
   8 H :    0.035621
   9 C :   -0.038993
  10 H :    0.012198
  11 H :    0.029673
  12 C :   -0.063619
  13 H :    0.032977
  14 H :    0.021530
  15 H :    0.020062
  16 S :    0.398274
  17 C :   -0.179926
  18 C :   -0.076475
  19 C :   -0.065245
  20 C :   -0.194237
  21 H :    0.041366
  22 C :   -0.036691
  23 H :    0.025456
  24 H :    0.030678
  25 C :   -0.030182
  26 H :    0.031474
  27 H :    0.026984
  28 C :   -0.056329
  29 H :    0.023936
  30 H :    0.011591
  31 H :    0.023512
  32 H :    0.031551
  33 H :    0.024864

  Mayer bond orders larger than 0.100000
B(  0-S ,  1-C ) :   1.1353 B(  0-S ,  4-C ) :   1.1356 B(  1-C ,  2-C ) :   1.6058
B(  1-C ,  4-C ) :   0.1021 B(  1-C , 32-H ) :   0.9691 B(  2-C ,  3-C ) :   1.2181
B(  2-C ,  6-C ) :   1.0203 B(  3-C ,  4-C ) :   1.5691 B(  3-C ,  5-H ) :   1.0057
B(  4-C , 20-C ) :   1.0911 B(  6-C ,  7-H ) :   0.9498 B(  6-C ,  8-H ) :   0.9431
B(  6-C ,  9-C ) :   1.0691 B(  9-C , 10-H ) :   0.9569 B(  9-C , 11-H ) :   0.9571
B(  9-C , 12-C ) :   1.0700 B( 12-C , 13-H ) :   0.9734 B( 12-C , 14-H ) :   0.9756
B( 12-C , 15-H ) :   0.9789 B( 16-S , 17-C ) :   1.1494 B( 16-S , 20-C ) :   1.1092
B( 17-C , 18-C ) :   1.6392 B( 17-C , 33-H ) :   0.9671 B( 18-C , 19-C ) :   1.2250
B( 18-C , 21-H ) :   0.9817 B( 19-C , 20-C ) :   1.6200 B( 19-C , 22-C ) :   1.0460
B( 22-C , 23-H ) :   0.9261 B( 22-C , 24-H ) :   0.9332 B( 22-C , 25-C ) :   1.0474
B( 25-C , 26-H ) :   0.9606 B( 25-C , 27-H ) :   0.9560 B( 25-C , 28-C ) :   1.0785
B( 28-C , 29-H ) :   0.9744 B( 28-C , 30-H ) :   0.9742 B( 28-C , 31-H ) :   0.9731

Dispersion correction           -0.014402862
FINAL SINGLE POINT ENERGY     -1339.871659571192

DIPOLE MOMENT
-------------
                                X             Y             Z
Electronic contribution:      2.56797      -8.54080     -23.89316
Nuclear contribution   :     -2.88105       8.78582      24.44671
                        -----------------------------------------
Total Dipole Moment    :     -0.31307       0.24502       0.55355
                        -----------------------------------------
Magnitude (a.u.)       :      0.68152
Magnitude (Debye)      :      1.73229

Rotational constants in cm-1:     0.016914     0.009067     0.007485
Rotational constants in MHz :   507.054380   271.814291   224.388933

                             ****ORCA TERMINATED NORMALLY****
TOTAL RUN TIME: 0 days 0 hours 0 minutes 32 seconds 688 msec
