                         Program Version 4.2.1 -  RELEASE  -
|  1> ! wB97X-D3 SP def2-SVP
|  2> %pal
|  3> nprocs 16
|  4> end
|  5>
|  6> * xyz 0 1
|  7> S 	 8.05236 	 20.3788 	 39.0584
|  8> C 	 7.96734 	 18.6097 	 39.0938
|  9> C 	 8.17033 	 18.1849 	 40.3994
| 10> C 	 8.03315 	 19.2225 	 41.3829
| 11> C 	 7.97875 	 20.46 	 40.8397
| 12> H 	 8.08734 	 19.0787 	 42.4805
| 13> C 	 8.35316 	 16.7315 	 40.763
| 14> H 	 7.9966 	 16.0566 	 40.0216
| 15> H 	 7.72862 	 16.4771 	 41.5977
| 16> C 	 9.82007 	 16.3127 	 40.951
| 17> H 	 10.3989 	 16.3282 	 39.9319
| 18> H 	 10.3247 	 16.9711 	 41.5955
| 19> C 	 9.90489 	 14.851 	 41.4593
| 20> H 	 10.9316 	 14.4072 	 41.5469
| 21> H 	 9.39152 	 14.779 	 42.4706
| 22> H 	 9.22081 	 14.0877 	 40.9498
| 23> S 	 6.18841 	 22.4935 	 41.1845
| 24> C 	 6.43088 	 23.6272 	 42.5225
| 25> C 	 7.56501 	 23.2699 	 43.2401
| 26> C 	 8.22699 	 22.1005 	 42.7361
| 27> C 	 7.59123 	 21.6221 	 41.6521
| 28> H 	 7.74226 	 23.7825 	 44.2254
| 29> C 	 9.41242 	 21.4721 	 43.4535
| 30> H 	 9.92564 	 20.7987 	 42.7672
| 31> H 	 8.90217 	 20.893 	 44.1593
| 32> C 	 10.4838 	 22.4906 	 44.1177
| 33> H 	 9.97361 	 23.2085 	 44.798
| 34> H 	 10.8088 	 23.0717 	 43.3194
| 35> C 	 11.5694 	 21.7341 	 44.8764
| 36> H 	 11.005 	 21.4895 	 45.7709
| 37> H 	 12.42 	 22.4557 	 44.9842
| 38> H 	 11.9152 	 20.7786 	 44.2975
| 39> H 	 7.99969 	 17.9676 	 38.2564
| 40> H 	 5.81327 	 24.4974 	 42.7054
| 41> *
| 42>
| 43>                          ****END OF INPUT****

CARTESIAN COORDINATES (ANGSTROEM)
---------------------------------
  S      8.052360   20.378800   39.058400
  C      7.967340   18.609700   39.093800
  C      8.170330   18.184900   40.399400
  C      8.033150   19.222500   41.382900
  C      7.978750   20.460000   40.839700
  H      8.087340   19.078700   42.480500
  C      8.353160   16.731500   40.763000
  H      7.996600   16.056600   40.021600
  H      7.728620   16.477100   41.597700
  C      9.820070   16.312700   40.951000
  H     10.398900   16.328200   39.931900
  H     10.324700   16.971100   41.595500
  C      9.904890   14.851000   41.459300
  H     10.931600   14.407200   41.546900
  H      9.391520   14.779000   42.470600
  H      9.220810   14.087700   40.949800
  S      6.188410   22.493500   41.184500
  C      6.430880   23.627200   42.522500
  C      7.565010   23.269900   43.240100
  C      8.226990   22.100500   42.736100
  C      7.591230   21.622100   41.652100
  H      7.742260   23.782500   44.225400
  C      9.412420   21.472100   43.453500
  H      9.925640   20.798700   42.767200
  H      8.902170   20.893000   44.159300
  C     10.483800   22.490600   44.117700
  H      9.973610   23.208500   44.798000
  H     10.808800   23.071700   43.319400
  C     11.569400   21.734100   44.876400
  H     11.005000   21.489500   45.770900
  H     12.420000   22.455700   44.984200
  H     11.915200   20.778600   44.297500
  H      7.999690   17.967600   38.256400
  H      5.813270   24.497400   42.705400

 Total Charge           Charge          ....    0
 Multiplicity           Mult            ....    1
 Number of Electrons    NEL             ....  134
 Basis Dimension        Dim             ....  322

ORBITAL ENERGIES
----------------

  NO   OCC          E(Eh)            E(eV)
   0   2.0000     -88.966161     -2420.8923
   1   2.0000     -88.963187     -2420.8114
   2   2.0000     -10.327653      -281.0297
   3   2.0000     -10.318068      -280.7689
   4   2.0000     -10.317842      -280.7627
   5   2.0000     -10.315153      -280.6896
   6   2.0000     -10.302346      -280.3411
   7   2.0000     -10.297587      -280.2116
   8   2.0000     -10.297253      -280.2025
   9   2.0000     -10.294973      -280.1405
  10   2.0000     -10.294871      -280.1377
  11   2.0000     -10.292741      -280.0797
  12   2.0000     -10.292162      -280.0640
  13   2.0000     -10.291456      -280.0447
  14   2.0000     -10.289190      -279.9831
  15   2.0000     -10.287468      -279.9362
  16   2.0000      -8.079938      -219.8663
  17   2.0000      -8.078318      -219.8222
  18   2.0000      -6.038655      -164.3202
  19   2.0000      -6.036831      -164.2705
  20   2.0000      -6.034684      -164.2121
  21   2.0000      -6.032782      -164.1603
  22   2.0000      -6.030430      -164.0964
  23   2.0000      -6.029028      -164.0582
  24   2.0000      -1.008736       -27.4491
  25   2.0000      -0.983438       -26.7607
  26   2.0000      -0.910222       -24.7684
  27   2.0000      -0.904347       -24.6085
  28   2.0000      -0.869593       -23.6628
  29   2.0000      -0.853865       -23.2349
  30   2.0000      -0.842563       -22.9273
  31   2.0000      -0.815248       -22.1840
  32   2.0000      -0.777787       -21.1647
  33   2.0000      -0.767524       -20.8854
  34   2.0000      -0.703262       -19.1367
  35   2.0000      -0.700826       -19.0704
  36   2.0000      -0.699580       -19.0365
  37   2.0000      -0.656356       -17.8604
  38   2.0000      -0.643423       -17.5084
  39   2.0000      -0.619611       -16.8605
  40   2.0000      -0.592549       -16.1241
  41   2.0000      -0.570982       -15.5372
  42   2.0000      -0.564986       -15.3740
  43   2.0000      -0.555695       -15.1212
  44   2.0000      -0.530675       -14.4404
  45   2.0000      -0.525889       -14.3102
  46   2.0000      -0.520115       -14.1531
  47   2.0000      -0.513477       -13.9724
  48   2.0000      -0.506517       -13.7830
  49   2.0000      -0.493649       -13.4329
  50   2.0000      -0.486838       -13.2475
  51   2.0000      -0.479207       -13.0399
  52   2.0000      -0.469936       -12.7876
  53   2.0000      -0.459366       -12.5000
  54   2.0000      -0.455077       -12.3833
  55   2.0000      -0.449791       -12.2394
  56   2.0000      -0.445559       -12.1243
  57   2.0000      -0.441549       -12.0152
  58   2.0000      -0.430955       -11.7269
  59   2.0000      -0.426571       -11.6076
  60   2.0000      -0.422191       -11.4884
  61   2.0000      -0.415975       -11.3193
  62   2.0000      -0.407630       -11.0922
  63   2.0000      -0.347691        -9.4611
  64   2.0000      -0.329774        -8.9736
  65   2.0000      -0.325797        -8.8654
  66   2.0000      -0.297837        -8.1045
  67   0.0000       0.033136         0.9017
  68   0.0000       0.072620         1.9761
  69   0.0000       0.113202         3.0804
  70   0.0000       0.120653         3.2831
  71   0.0000       0.131185         3.5697

MULLIKEN ATOMIC CHARGES
-----------------------
   0 S :    0.100438
   1 C :   -0.098548
   2 C :   -0.077657
   3 C :    0.013414
   4 C :   -0.144818
   5 H :    0.032327
   6 C :    0.061424
   7 H :    0.005365
   8 H :    0.019664
   9 C :   -0.054847
  10 H :    0.043544
  11 H :    0.023086
  12 C :   -0.102272
  13 H :    0.055167
  14 H :    0.026514
  15 H :    0.033302
  16 S :    0.115328
  17 C :   -0.109242
  18 C :   -0.057479
  19 C :   -0.043548
  20 C :   -0.162863
  21 H :    0.041265
  22 C :    0.061726
  23 H :    0.033316
  24 H :    0.028047
  25 C :   -0.081739
  26 H :    0.031427
  27 H :    0.023282
  28 C :   -0.061559
  29 H :    0.041981
  30 H :    0.054381
  31 H :    0.051042
  32 H :    0.038986
  33 H :    0.059546
Sum of atomic charges:    0.0000000

LOEWDIN ATOMIC CHARGES
----------------------
   0 S :    0.375827
   1 C :   -0.178329
   2 C :   -0.058840
   3 C :   -0.062016
   4 C :   -0.181324
   5 H :    0.039208
   6 C :   -0.033462
   7 H :    0.026584
   8 H :    0.027061
   9 C :   -0.036867
  10 H :    0.035645
  11 H :    0.014064
  12 C :   -0.088086
  13 H :    0.031286
  14 H :    0.027331
  15 H :    0.030163
  16 S :    0.409963
  17 C :   -0.180843
  18 C :   -0.077662
  19 C :   -0.062210
  20 C :   -0.208371
  21 H :    0.039326
  22 C :   -0.024666
  23 H :    0.029615
  24 H :    0.023369
  25 C :   -0.034816
  26 H :    0.023932
  27 H :    0.012689
  28 C :   -0.071717
  29 H :    0.029332
  30 H :    0.035218
  31 H :    0.036835
  32 H :    0.022233
  33 H :    0.029528

  Mayer bond orders larger than 0.100000
B(  0-S ,  1-C ) :   1.1186 B(  0-S ,  4-C ) :   1.1349 B(  1-C ,  2-C ) :   1.6275
B(  1-C , 32-H ) :   0.9724 B(  2-C ,  3-C ) :   1.2175 B(  2-C ,  6-C ) :   1.0371
B(  3-C ,  4-C ) :   1.5943 B(  3-C ,  5-H ) :   0.9859 B(  4-C , 20-C ) :   1.0154
B(  6-C ,  7-H ) :   0.9388 B(  6-C ,  8-H ) :   0.9472 B(  6-C ,  9-C ) :   1.0476
B(  9-C , 10-H ) :   0.9551 B(  9-C , 11-H ) :   0.9604 B(  9-C , 12-C ) :   1.0680
B( 12-C , 13-H ) :   0.9749 B( 12-C , 14-H ) :   0.9715 B( 12-C , 15-H ) :   0.9726
B( 16-S , 17-C ) :   1.1461 B( 16-S , 20-C ) :   1.1391 B( 17-C , 18-C ) :   1.6284
B( 17-C , 33-H ) :   0.9687 B( 18-C , 19-C ) :   1.2258 B( 18-C , 21-H ) :   0.9769
B( 19-C , 20-C ) :   1.6439 B( 19-C , 22-C ) :   1.0262 B( 22-C , 23-H ) :   0.9292
B( 22-C , 24-H ) :   0.9332 B( 22-C , 25-C ) :   1.0491 B( 25-C , 26-H ) :   0.9555
B( 25-C , 27-H ) :   0.9631 B( 25-C , 28-C ) :   1.0655 B( 28-C , 29-H ) :   0.9791
B( 28-C , 30-H ) :   0.9728 B( 28-C , 31-H ) :   0.9737

Dispersion correction           -0.013636471
FINAL SINGLE POINT ENERGY     -1339.861856731060

DIPOLE MOMENT
-------------
                                X             Y             Z
Electronic contribution:    -19.03507      17.69261     -16.64552
Nuclear contribution   :     19.30811     -18.03129      17.21576
                        -----------------------------------------
Total Dipole Moment    :      0.27303      -0.33868       0.57025
                        -----------------------------------------
Magnitude (a.u.)       :      0.71724
Magnitude (Debye)      :      1.82307

Rotational constants in cm-1:     0.016480     0.008678     0.006256
Rotational constants in MHz :   494.061240   260.145289   187.560703

                             ****ORCA TERMINATED NORMALLY****
TOTAL RUN TIME: 0 days 0 hours 0 minutes 33 seconds 729 msec
