                         Program Version 4.2.1 -  RELEASE  -
|  1> ! wB97X-D3 SP def2-SVP
|  2> %pal
|  3> nprocs 16
|  4> end
|  5>
|  6> * xyz 0 1
|  7> S 	 41.2159 	 15.1988 	 81.6629
|  8> C 	 39.9246 	 16.3274 	 82.1166
|  9> C 	 38.7814 	 16.1302 	 81.3348
| 10> C 	 39.1096 	 15.3563 	 80.217
| 11> C 	 40.3685 	 14.8044 	 80.1481
| 12> H 	 38.4083 	 15.2114 	 79.4065
| 13> C 	 37.4364 	 16.8219 	 81.5147
| 14> H 	 37.309 	 16.8468 	 82.6398
| 15> H 	 36.7073 	 16.1146 	 81.1315
| 16> C 	 37.3426 	 18.2588 	 80.9647
| 17> H 	 38.3597 	 18.6677 	 80.9709
| 18> H 	 37.0939 	 18.2203 	 79.9176
| 19> C 	 36.1936 	 19.1113 	 81.6453
| 20> H 	 35.2084 	 18.5955 	 81.7034
| 21> H 	 36.4348 	 19.4323 	 82.627
| 22> H 	 35.9016 	 20.0196 	 81.1165
| 23> S 	 40.3443 	 11.9804 	 79.6813
| 24> C 	 41.1223 	 11.3949 	 78.1933
| 25> C 	 41.8592 	 12.4264 	 77.5914
| 26> C 	 41.7088 	 13.7109 	 78.2199
| 27> C 	 40.8164 	 13.6991 	 79.3055
| 28> H 	 42.3663 	 12.2173 	 76.7353
| 29> C 	 42.5972 	 14.8477 	 77.7859
| 30> H 	 42.1597 	 15.847 	 78.0296
| 31> H 	 42.6583 	 14.7285 	 76.7413
| 32> C 	 44.0675 	 14.7665 	 78.2497
| 33> H 	 44.5223 	 15.5207 	 77.6348
| 34> H 	 44.6151 	 13.9085 	 77.9234
| 35> C 	 44.1141 	 15.1092 	 79.7549
| 36> H 	 43.6681 	 16.1218 	 79.8275
| 37> H 	 45.116 	 15.2808 	 80.101
| 38> H 	 43.495 	 14.4474 	 80.4313
| 39> H 	 39.8657 	 16.958 	 83.0113
| 40> H 	 41.1396 	 10.4025 	 77.8342
| 41> *
| 42>
| 43>                          ****END OF INPUT****

CARTESIAN COORDINATES (ANGSTROEM)
---------------------------------
  S     41.215900   15.198800   81.662900
  C     39.924600   16.327400   82.116600
  C     38.781400   16.130200   81.334800
  C     39.109600   15.356300   80.217000
  C     40.368500   14.804400   80.148100
  H     38.408300   15.211400   79.406500
  C     37.436400   16.821900   81.514700
  H     37.309000   16.846800   82.639800
  H     36.707300   16.114600   81.131500
  C     37.342600   18.258800   80.964700
  H     38.359700   18.667700   80.970900
  H     37.093900   18.220300   79.917600
  C     36.193600   19.111300   81.645300
  H     35.208400   18.595500   81.703400
  H     36.434800   19.432300   82.627000
  H     35.901600   20.019600   81.116500
  S     40.344300   11.980400   79.681300
  C     41.122300   11.394900   78.193300
  C     41.859200   12.426400   77.591400
  C     41.708800   13.710900   78.219900
  C     40.816400   13.699100   79.305500
  H     42.366300   12.217300   76.735300
  C     42.597200   14.847700   77.785900
  H     42.159700   15.847000   78.029600
  H     42.658300   14.728500   76.741300
  C     44.067500   14.766500   78.249700
  H     44.522300   15.520700   77.634800
  H     44.615100   13.908500   77.923400
  C     44.114100   15.109200   79.754900
  H     43.668100   16.121800   79.827500
  H     45.116000   15.280800   80.101000
  H     43.495000   14.447400   80.431300
  H     39.865700   16.958000   83.011300
  H     41.139600   10.402500   77.834200

 Total Charge           Charge          ....    0
 Multiplicity           Mult            ....    1
 Number of Electrons    NEL             ....  134
 Basis Dimension        Dim             ....  322

ORBITAL ENERGIES
----------------

  NO   OCC          E(Eh)            E(eV)
   0   2.0000     -88.967065     -2420.9169
   1   2.0000     -88.964075     -2420.8356
   2   2.0000     -10.329904      -281.0910
   3   2.0000     -10.327413      -281.0232
   4   2.0000     -10.320702      -280.8406
   5   2.0000     -10.319779      -280.8154
   6   2.0000     -10.304661      -280.4041
   7   2.0000     -10.298762      -280.2435
   8   2.0000     -10.298444      -280.2349
   9   2.0000     -10.293806      -280.1087
  10   2.0000     -10.291065      -280.0341
  11   2.0000     -10.288713      -279.9701
  12   2.0000     -10.287451      -279.9358
  13   2.0000     -10.283432      -279.8264
  14   2.0000     -10.282465      -279.8001
  15   2.0000     -10.274529      -279.5841
  16   2.0000      -8.080432      -219.8797
  17   2.0000      -8.077178      -219.7912
  18   2.0000      -6.038958      -164.3284
  19   2.0000      -6.035842      -164.2436
  20   2.0000      -6.035130      -164.2242
  21   2.0000      -6.031974      -164.1384
  22   2.0000      -6.031228      -164.1181
  23   2.0000      -6.027803      -164.0249
  24   2.0000      -0.997749       -27.1501
  25   2.0000      -0.974271       -26.5113
  26   2.0000      -0.906932       -24.6789
  27   2.0000      -0.906354       -24.6632
  28   2.0000      -0.863006       -23.4836
  29   2.0000      -0.845013       -22.9940
  30   2.0000      -0.840955       -22.8836
  31   2.0000      -0.810294       -22.0492
  32   2.0000      -0.782866       -21.3029
  33   2.0000      -0.768428       -20.9100
  34   2.0000      -0.710500       -19.3337
  35   2.0000      -0.707854       -19.2617
  36   2.0000      -0.694723       -18.9044
  37   2.0000      -0.661706       -18.0059
  38   2.0000      -0.635905       -17.3038
  39   2.0000      -0.617646       -16.8070
  40   2.0000      -0.592307       -16.1175
  41   2.0000      -0.570918       -15.5355
  42   2.0000      -0.556126       -15.1330
  43   2.0000      -0.552975       -15.0472
  44   2.0000      -0.535576       -14.5738
  45   2.0000      -0.517333       -14.0773
  46   2.0000      -0.513982       -13.9862
  47   2.0000      -0.505760       -13.7624
  48   2.0000      -0.505224       -13.7478
  49   2.0000      -0.499099       -13.5812
  50   2.0000      -0.491165       -13.3653
  51   2.0000      -0.474392       -12.9089
  52   2.0000      -0.464368       -12.6361
  53   2.0000      -0.460348       -12.5267
  54   2.0000      -0.451911       -12.2971
  55   2.0000      -0.448451       -12.2030
  56   2.0000      -0.443134       -12.0583
  57   2.0000      -0.438486       -11.9318
  58   2.0000      -0.429024       -11.6743
  59   2.0000      -0.423401       -11.5213
  60   2.0000      -0.422173       -11.4879
  61   2.0000      -0.419939       -11.4271
  62   2.0000      -0.411025       -11.1846
  63   2.0000      -0.334916        -9.1135
  64   2.0000      -0.324278        -8.8241
  65   2.0000      -0.313581        -8.5330
  66   2.0000      -0.310870        -8.4592
  67   0.0000       0.032358         0.8805
  68   0.0000       0.045710         1.2438
  69   0.0000       0.102754         2.7961
  70   0.0000       0.115465         3.1419
  71   0.0000       0.125507         3.4152

MULLIKEN ATOMIC CHARGES
-----------------------
   0 S :    0.096651
   1 C :   -0.106891
   2 C :   -0.126116
   3 C :    0.032412
   4 C :   -0.149557
   5 H :    0.008776
   6 C :    0.044350
   7 H :    0.034185
   8 H :    0.032490
   9 C :   -0.035484
  10 H :    0.038995
  11 H :    0.025506
  12 C :   -0.059710
  13 H :    0.034726
  14 H :    0.027851
  15 H :    0.029965
  16 S :    0.101953
  17 C :   -0.080440
  18 C :   -0.002616
  19 C :   -0.013013
  20 C :   -0.173676
  21 H :   -0.018638
  22 C :    0.051782
  23 H :    0.041638
  24 H :    0.005677
  25 C :   -0.036729
  26 H :    0.018714
  27 H :    0.019955
  28 C :   -0.048543
  29 H :    0.020904
  30 H :    0.026957
  31 H :    0.058254
  32 H :    0.051959
  33 H :    0.047712
Sum of atomic charges:   -0.0000000

LOEWDIN ATOMIC CHARGES
----------------------
   0 S :    0.405999
   1 C :   -0.185914
   2 C :   -0.072214
   3 C :   -0.051910
   4 C :   -0.197941
   5 H :    0.030975
   6 C :   -0.033513
   7 H :    0.036570
   8 H :    0.031276
   9 C :   -0.037803
  10 H :    0.029454
  11 H :    0.024281
  12 C :   -0.069160
  13 H :    0.032100
  14 H :    0.017735
  15 H :    0.027243
  16 S :    0.365707
  17 C :   -0.162151
  18 C :   -0.059792
  19 C :   -0.043466
  20 C :   -0.194101
  21 H :    0.013088
  22 C :   -0.028446
  23 H :    0.036622
  24 H :    0.023228
  25 C :   -0.033441
  26 H :    0.024834
  27 H :    0.018414
  28 C :   -0.071297
  29 H :    0.026214
  30 H :    0.020425
  31 H :    0.022582
  32 H :    0.030887
  33 H :    0.023516

  Mayer bond orders larger than 0.100000
B(  0-S ,  1-C ) :   1.1617 B(  0-S ,  4-C ) :   1.1293 B(  1-C ,  2-C ) :   1.5810
B(  1-C ,  4-C ) :   0.1070 B(  1-C , 32-H ) :   0.9632 B(  2-C ,  3-C ) :   1.2735
B(  2-C ,  6-C ) :   1.0246 B(  3-C ,  4-C ) :   1.5732 B(  3-C ,  5-H ) :   0.9970
B(  4-C , 20-C ) :   1.0500 B(  6-C ,  7-H ) :   0.9452 B(  6-C ,  8-H ) :   0.9371
B(  6-C ,  9-C ) :   1.0483 B(  9-C , 10-H ) :   0.9621 B(  9-C , 11-H ) :   0.9548
B(  9-C , 12-C ) :   1.0640 B( 12-C , 13-H ) :   0.9759 B( 12-C , 14-H ) :   0.9798
B( 12-C , 15-H ) :   0.9769 B( 16-S , 17-C ) :   1.1500 B( 16-S , 20-C ) :   1.1108
B( 17-C , 18-C ) :   1.6148 B( 17-C , 33-H ) :   0.9711 B( 18-C , 19-C ) :   1.2251
B( 18-C , 21-H ) :   1.0022 B( 19-C , 20-C ) :   1.5918 B( 19-C , 22-C ) :   1.0578
B( 22-C , 23-H ) :   0.9362 B( 22-C , 24-H ) :   0.9214 B( 22-C , 25-C ) :   1.0818
B( 25-C , 26-H ) :   0.9506 B( 25-C , 27-H ) :   0.9538 B( 25-C , 28-C ) :   1.0636
B( 28-C , 29-H ) :   0.9702 B( 28-C , 30-H ) :   0.9720 B( 28-C , 31-H ) :   0.9730

Dispersion correction           -0.014861834
FINAL SINGLE POINT ENERGY     -1339.861056018920

DIPOLE MOMENT
-------------
                                X             Y             Z
Electronic contribution:      3.29696     -19.68880       2.15202
Nuclear contribution   :     -3.42217      20.06587      -2.47710
                        -----------------------------------------
Total Dipole Moment    :     -0.12522       0.37707      -0.32507
                        -----------------------------------------
Magnitude (a.u.)       :      0.51336
Magnitude (Debye)      :      1.30485

Rotational constants in cm-1:     0.023018     0.007336     0.006576
Rotational constants in MHz :   690.057633   219.935906   197.152650

                             ****ORCA TERMINATED NORMALLY****
TOTAL RUN TIME: 0 days 0 hours 0 minutes 30 seconds 138 msec
