                         Program Version 4.2.1 -  RELEASE  -
|  1> ! wB97X-D3 SP def2-SVP
|  2> %pal
|  3> nprocs 16
|  4> end
|  5>
|  6> * xyz 0 1
|  7> S 	 -50.1972 	 31.9307 	 91.8892
|  8> C 	 -50.8118 	 30.3335 	 91.5574
|  9> C 	 -51.9457 	 30.1003 	 92.3197
| 10> C 	 -52.1087 	 31.1468 	 93.2159
| 11> C 	 -51.1854 	 32.157 	 93.2107
| 12> H 	 -52.9249 	 31.3486 	 93.8973
| 13> C 	 -52.9698 	 28.9946 	 92.1224
| 14> H 	 -53.6007 	 29.0585 	 92.9939
| 15> H 	 -52.605 	 27.9208 	 92.192
| 16> C 	 -53.7885 	 29.1474 	 90.8466
| 17> H 	 -52.9814 	 29.2535 	 90.1407
| 18> H 	 -54.2456 	 28.1485 	 90.5557
| 19> C 	 -54.786 	 30.3029 	 90.6936
| 20> H 	 -55.5066 	 30.2523 	 89.854
| 21> H 	 -55.3903 	 30.4567 	 91.5607
| 22> H 	 -54.2575 	 31.2408 	 90.3914
| 23> S 	 -51.8256 	 34.8087 	 93.1165
| 24> C 	 -51.7981 	 35.7196 	 94.5813
| 25> C 	 -51.3349 	 34.9599 	 95.6104
| 26> C 	 -51.1428 	 33.6272 	 95.2588
| 27> C 	 -51.3443 	 33.4043 	 93.9386
| 28> H 	 -51.0392 	 35.3643 	 96.6039
| 29> C 	 -50.7301 	 32.5937 	 96.2498
| 30> H 	 -49.6922 	 32.6322 	 96.5726
| 31> H 	 -50.6741 	 31.6711 	 95.646
| 32> C 	 -51.6203 	 32.3106 	 97.4988
| 33> H 	 -51.5211 	 31.2462 	 97.5879
| 34> H 	 -52.6569 	 32.4741 	 97.4041
| 35> C 	 -50.9888 	 32.8436 	 98.77
| 36> H 	 -51.6303 	 32.5871 	 99.6153
| 37> H 	 -50.9568 	 33.9108 	 98.9162
| 38> H 	 -50.0325 	 32.4635 	 98.9672
| 39> H 	 -50.5946 	 29.7781 	 90.6955
| 40> H 	 -52.1334 	 36.7059 	 94.7118
| 41> *
| 42>
| 43>                          ****END OF INPUT****

CARTESIAN COORDINATES (ANGSTROEM)
---------------------------------
  S    -50.197200   31.930700   91.889200
  C    -50.811800   30.333500   91.557400
  C    -51.945700   30.100300   92.319700
  C    -52.108700   31.146800   93.215900
  C    -51.185400   32.157000   93.210700
  H    -52.924900   31.348600   93.897300
  C    -52.969800   28.994600   92.122400
  H    -53.600700   29.058500   92.993900
  H    -52.605000   27.920800   92.192000
  C    -53.788500   29.147400   90.846600
  H    -52.981400   29.253500   90.140700
  H    -54.245600   28.148500   90.555700
  C    -54.786000   30.302900   90.693600
  H    -55.506600   30.252300   89.854000
  H    -55.390300   30.456700   91.560700
  H    -54.257500   31.240800   90.391400
  S    -51.825600   34.808700   93.116500
  C    -51.798100   35.719600   94.581300
  C    -51.334900   34.959900   95.610400
  C    -51.142800   33.627200   95.258800
  C    -51.344300   33.404300   93.938600
  H    -51.039200   35.364300   96.603900
  C    -50.730100   32.593700   96.249800
  H    -49.692200   32.632200   96.572600
  H    -50.674100   31.671100   95.646000
  C    -51.620300   32.310600   97.498800
  H    -51.521100   31.246200   97.587900
  H    -52.656900   32.474100   97.404100
  C    -50.988800   32.843600   98.770000
  H    -51.630300   32.587100   99.615300
  H    -50.956800   33.910800   98.916200
  H    -50.032500   32.463500   98.967200
  H    -50.594600   29.778100   90.695500
  H    -52.133400   36.705900   94.711800

 Total Charge           Charge          ....    0
 Multiplicity           Mult            ....    1
 Number of Electrons    NEL             ....  134
 Basis Dimension        Dim             ....  322

ORBITAL ENERGIES
----------------

  NO   OCC          E(Eh)            E(eV)
   0   2.0000     -88.965962     -2420.8869
   1   2.0000     -88.965141     -2420.8645
   2   2.0000     -10.316120      -280.7159
   3   2.0000     -10.315575      -280.7011
   4   2.0000     -10.308527      -280.5093
   5   2.0000     -10.308523      -280.5092
   6   2.0000     -10.298143      -280.2267
   7   2.0000     -10.296164      -280.1729
   8   2.0000     -10.289942      -280.0036
   9   2.0000     -10.288858      -279.9741
  10   2.0000     -10.286559      -279.9115
  11   2.0000     -10.283415      -279.8260
  12   2.0000     -10.283021      -279.8152
  13   2.0000     -10.280541      -279.7477
  14   2.0000     -10.279676      -279.7242
  15   2.0000     -10.270199      -279.4663
  16   2.0000      -8.082186      -219.9275
  17   2.0000      -8.081393      -219.9059
  18   2.0000      -6.040388      -164.3673
  19   2.0000      -6.039730      -164.3494
  20   2.0000      -6.036422      -164.2594
  21   2.0000      -6.035732      -164.2406
  22   2.0000      -6.033229      -164.1725
  23   2.0000      -6.032195      -164.1444
  24   2.0000      -1.024475       -27.8774
  25   2.0000      -1.000696       -27.2303
  26   2.0000      -0.914716       -24.8907
  27   2.0000      -0.909590       -24.7512
  28   2.0000      -0.872861       -23.7518
  29   2.0000      -0.857632       -23.3374
  30   2.0000      -0.847823       -23.0704
  31   2.0000      -0.816254       -22.2114
  32   2.0000      -0.788241       -21.4491
  33   2.0000      -0.777621       -21.1602
  34   2.0000      -0.709812       -19.3150
  35   2.0000      -0.706329       -19.2202
  36   2.0000      -0.698442       -19.0056
  37   2.0000      -0.662753       -18.0344
  38   2.0000      -0.648070       -17.6349
  39   2.0000      -0.614631       -16.7250
  40   2.0000      -0.604747       -16.4560
  41   2.0000      -0.578749       -15.7486
  42   2.0000      -0.546335       -14.8665
  43   2.0000      -0.543830       -14.7984
  44   2.0000      -0.542083       -14.7508
  45   2.0000      -0.539006       -14.6671
  46   2.0000      -0.519117       -14.1259
  47   2.0000      -0.512068       -13.9341
  48   2.0000      -0.510154       -13.8820
  49   2.0000      -0.500562       -13.6210
  50   2.0000      -0.489828       -13.3289
  51   2.0000      -0.479466       -13.0469
  52   2.0000      -0.475273       -12.9328
  53   2.0000      -0.472660       -12.8617
  54   2.0000      -0.465538       -12.6679
  55   2.0000      -0.450704       -12.2643
  56   2.0000      -0.446747       -12.1566
  57   2.0000      -0.441054       -12.0017
  58   2.0000      -0.429883       -11.6977
  59   2.0000      -0.417572       -11.3627
  60   2.0000      -0.415753       -11.3132
  61   2.0000      -0.410688       -11.1754
  62   2.0000      -0.408509       -11.1161
  63   2.0000      -0.340973        -9.2784
  64   2.0000      -0.334217        -9.0945
  65   2.0000      -0.329271        -8.9599
  66   2.0000      -0.300890        -8.1876
  67   0.0000       0.042358         1.1526
  68   0.0000       0.064359         1.7513
  69   0.0000       0.119523         3.2524
  70   0.0000       0.130856         3.5608
  71   0.0000       0.135507         3.6873

MULLIKEN ATOMIC CHARGES
-----------------------
   0 S :    0.118963
   1 C :   -0.108452
   2 C :   -0.065074
   3 C :    0.019862
   4 C :   -0.181807
   5 H :    0.004213
   6 C :    0.066109
   7 H :    0.009939
   8 H :    0.046323
   9 C :   -0.071436
  10 H :    0.009155
  11 H :    0.035088
  12 C :   -0.047799
  13 H :    0.032239
  14 H :    0.030378
  15 H :    0.041321
  16 S :    0.129461
  17 C :   -0.075872
  18 C :   -0.035511
  19 C :   -0.015819
  20 C :   -0.173551
  21 H :    0.027363
  22 C :    0.047735
  23 H :    0.025039
  24 H :    0.018431
  25 C :   -0.022806
  26 H :    0.020188
  27 H :    0.022265
  28 C :   -0.035587
  29 H :    0.019049
  30 H :    0.019128
  31 H :    0.021790
  32 H :    0.033054
  33 H :    0.036620
Sum of atomic charges:   -0.0000000

LOEWDIN ATOMIC CHARGES
----------------------
   0 S :    0.454601
   1 C :   -0.193791
   2 C :   -0.065254
   3 C :   -0.067272
   4 C :   -0.231564
   5 H :    0.028709
   6 C :   -0.033400
   7 H :    0.022929
   8 H :    0.043989
   9 C :   -0.047770
  10 H :    0.019801
  11 H :    0.029513
  12 C :   -0.073309
  13 H :    0.032181
  14 H :    0.020652
  15 H :    0.035089
  16 S :    0.438879
  17 C :   -0.185367
  18 C :   -0.070838
  19 C :   -0.065193
  20 C :   -0.217578
  21 H :    0.038235
  22 C :   -0.036349
  23 H :    0.033772
  24 H :    0.033171
  25 C :   -0.032469
  26 H :    0.030301
  27 H :    0.020265
  28 C :   -0.063723
  29 H :    0.027989
  30 H :    0.018846
  31 H :    0.017749
  32 H :    0.016236
  33 H :    0.020972

  Mayer bond orders larger than 0.100000
B(  0-S ,  1-C ) :   1.1762 B(  0-S ,  4-C ) :   1.1843 B(  1-C ,  2-C ) :   1.5457
B(  1-C ,  4-C ) :   0.1026 B(  1-C , 32-H ) :   0.9739 B(  2-C ,  3-C ) :   1.3010
B(  2-C ,  6-C ) :   1.0124 B(  3-C ,  4-C ) :   1.5349 B(  3-C ,  5-H ) :   0.9945
B(  4-C , 20-C ) :   1.0004 B(  6-C ,  7-H ) :   0.9415 B(  6-C ,  8-H ) :   0.9417
B(  6-C ,  9-C ) :   1.0653 B(  9-C , 10-H ) :   0.9577 B(  9-C , 11-H ) :   0.9568
B(  9-C , 12-C ) :   1.0681 B( 12-C , 13-H ) :   0.9739 B( 12-C , 14-H ) :   0.9787
B( 12-C , 15-H ) :   0.9731 B( 16-S , 17-C ) :   1.1617 B( 16-S , 20-C ) :   1.1601
B( 17-C , 18-C ) :   1.5906 B( 17-C , 33-H ) :   0.9739 B( 18-C , 19-C ) :   1.2672
B( 18-C , 21-H ) :   0.9863 B( 19-C , 20-C ) :   1.6065 B( 19-C , 22-C ) :   1.0596
B( 22-C , 23-H ) :   0.9276 B( 22-C , 24-H ) :   0.9239 B( 22-C , 25-C ) :   1.0511
B( 25-C , 26-H ) :   0.9536 B( 25-C , 27-H ) :   0.9646 B( 25-C , 28-C ) :   1.0837
B( 28-C , 29-H ) :   0.9671 B( 28-C , 30-H ) :   0.9759 B( 28-C , 31-H ) :   0.9747

Dispersion correction           -0.014410206
FINAL SINGLE POINT ENERGY     -1339.859726948105

DIPOLE MOMENT
-------------
                                X             Y             Z
Electronic contribution:     10.74654      13.71756     -11.86125
Nuclear contribution   :    -11.09181     -13.94992      12.12899
                        -----------------------------------------
Total Dipole Moment    :     -0.34528      -0.23236       0.26775
                        -----------------------------------------
Magnitude (a.u.)       :      0.49487
Magnitude (Debye)      :      1.25785

Rotational constants in cm-1:     0.020067     0.008134     0.007112
Rotational constants in MHz :   601.589404   243.842023   213.213787

                             ****ORCA TERMINATED NORMALLY****
TOTAL RUN TIME: 0 days 0 hours 0 minutes 30 seconds 69 msec
