                         Program Version 4.2.1 -  RELEASE  -
|  1> ! wB97X-D3 SP def2-SVP
|  2> %pal
|  3> nprocs 16
|  4> end
|  5>
|  6> * xyz 0 1
|  7> S 	 -75.8254 	 42.5766 	 119.243
|  8> C 	 -77.43 	 41.8154 	 119.203
|  9> C 	 -77.8898 	 41.5843 	 120.472
| 10> C 	 -77.029 	 42.2287 	 121.447
| 11> C 	 -75.8301 	 42.8059 	 120.979
| 12> H 	 -77.217 	 42.3311 	 122.463
| 13> C 	 -79.2185 	 40.9985 	 120.813
| 14> H 	 -79.9756 	 41.2878 	 120.063
| 15> H 	 -79.6029 	 41.5215 	 121.742
| 16> C 	 -79.2777 	 39.4558 	 120.97
| 17> H 	 -80.2805 	 39.1971 	 121.218
| 18> H 	 -79.1039 	 39.0348 	 119.96
| 19> C 	 -78.3003 	 39.0053 	 122.038
| 20> H 	 -77.3067 	 39.1167 	 121.642
| 21> H 	 -78.3658 	 39.4837 	 122.99
| 22> H 	 -78.4464 	 37.9539 	 122.248
| 23> S 	 -74.7557 	 45.1626 	 121.544
| 24> C 	 -73.6212 	 45.2738 	 122.815
| 25> C 	 -73.1895 	 44.0568 	 123.255
| 26> C 	 -73.9904 	 43.005 	 122.768
| 27> C 	 -74.7783 	 43.4015 	 121.734
| 28> H 	 -72.3403 	 43.9765 	 123.938
| 29> C 	 -73.9195 	 41.5989 	 123.271
| 30> H 	 -74.9727 	 41.4724 	 123.603
| 31> H 	 -73.3722 	 41.4958 	 124.178
| 32> C 	 -73.4876 	 40.5096 	 122.304
| 33> H 	 -74.1325 	 40.4323 	 121.356
| 34> H 	 -73.5438 	 39.5998 	 122.786
| 35> C 	 -72.0281 	 40.6055 	 121.841
| 36> H 	 -71.8301 	 40.0347 	 120.931
| 37> H 	 -71.2917 	 40.2802 	 122.636
| 38> H 	 -71.8293 	 41.6802 	 121.74
| 39> H 	 -78.0336 	 41.4815 	 118.416
| 40> H 	 -73.1832 	 46.1593 	 123.339
| 41> *
| 42>
| 43>                          ****END OF INPUT****

CARTESIAN COORDINATES (ANGSTROEM)
---------------------------------
  S    -75.825400   42.576600  119.243000
  C    -77.430000   41.815400  119.203000
  C    -77.889800   41.584300  120.472000
  C    -77.029000   42.228700  121.447000
  C    -75.830100   42.805900  120.979000
  H    -77.217000   42.331100  122.463000
  C    -79.218500   40.998500  120.813000
  H    -79.975600   41.287800  120.063000
  H    -79.602900   41.521500  121.742000
  C    -79.277700   39.455800  120.970000
  H    -80.280500   39.197100  121.218000
  H    -79.103900   39.034800  119.960000
  C    -78.300300   39.005300  122.038000
  H    -77.306700   39.116700  121.642000
  H    -78.365800   39.483700  122.990000
  H    -78.446400   37.953900  122.248000
  S    -74.755700   45.162600  121.544000
  C    -73.621200   45.273800  122.815000
  C    -73.189500   44.056800  123.255000
  C    -73.990400   43.005000  122.768000
  C    -74.778300   43.401500  121.734000
  H    -72.340300   43.976500  123.938000
  C    -73.919500   41.598900  123.271000
  H    -74.972700   41.472400  123.603000
  H    -73.372200   41.495800  124.178000
  C    -73.487600   40.509600  122.304000
  H    -74.132500   40.432300  121.356000
  H    -73.543800   39.599800  122.786000
  C    -72.028100   40.605500  121.841000
  H    -71.830100   40.034700  120.931000
  H    -71.291700   40.280200  122.636000
  H    -71.829300   41.680200  121.740000
  H    -78.033600   41.481500  118.416000
  H    -73.183200   46.159300  123.339000

 Total Charge           Charge          ....    0
 Multiplicity           Mult            ....    1
 Number of Electrons    NEL             ....  134
 Basis Dimension        Dim             ....  322

ORBITAL ENERGIES
----------------

  NO   OCC          E(Eh)            E(eV)
   0   2.0000     -88.966032     -2420.8888
   1   2.0000     -88.964915     -2420.8584
   2   2.0000     -10.328418      -281.0505
   3   2.0000     -10.320500      -280.8351
   4   2.0000     -10.316720      -280.7322
   5   2.0000     -10.310405      -280.5604
   6   2.0000     -10.302457      -280.3441
   7   2.0000     -10.298484      -280.2360
   8   2.0000     -10.294609      -280.1305
   9   2.0000     -10.290024      -280.0058
  10   2.0000     -10.289962      -280.0041
  11   2.0000     -10.289661      -279.9959
  12   2.0000     -10.286870      -279.9200
  13   2.0000     -10.280773      -279.7541
  14   2.0000     -10.275917      -279.6219
  15   2.0000     -10.269934      -279.4591
  16   2.0000      -8.081393      -219.9059
  17   2.0000      -8.078830      -219.8361
  18   2.0000      -6.039816      -164.3517
  19   2.0000      -6.037507      -164.2889
  20   2.0000      -6.035830      -164.2433
  21   2.0000      -6.033316      -164.1749
  22   2.0000      -6.032163      -164.1435
  23   2.0000      -6.029567      -164.0729
  24   2.0000      -1.013066       -27.5669
  25   2.0000      -0.984297       -26.7841
  26   2.0000      -0.913739       -24.8641
  27   2.0000      -0.913177       -24.8488
  28   2.0000      -0.874394       -23.7935
  29   2.0000      -0.852833       -23.2068
  30   2.0000      -0.841482       -22.8979
  31   2.0000      -0.813577       -22.1386
  32   2.0000      -0.785435       -21.3728
  33   2.0000      -0.775388       -21.0994
  34   2.0000      -0.713005       -19.4018
  35   2.0000      -0.704438       -19.1687
  36   2.0000      -0.689850       -18.7718
  37   2.0000      -0.664030       -18.0692
  38   2.0000      -0.639821       -17.4104
  39   2.0000      -0.610510       -16.6128
  40   2.0000      -0.594182       -16.1685
  41   2.0000      -0.577845       -15.7240
  42   2.0000      -0.557822       -15.1791
  43   2.0000      -0.548149       -14.9159
  44   2.0000      -0.545833       -14.8529
  45   2.0000      -0.543133       -14.7794
  46   2.0000      -0.518601       -14.1118
  47   2.0000      -0.509096       -13.8532
  48   2.0000      -0.504564       -13.7299
  49   2.0000      -0.500552       -13.6207
  50   2.0000      -0.487209       -13.2576
  51   2.0000      -0.478751       -13.0275
  52   2.0000      -0.471806       -12.8385
  53   2.0000      -0.465868       -12.6769
  54   2.0000      -0.462670       -12.5899
  55   2.0000      -0.447981       -12.1902
  56   2.0000      -0.440375       -11.9832
  57   2.0000      -0.434492       -11.8231
  58   2.0000      -0.430866       -11.7244
  59   2.0000      -0.426299       -11.6002
  60   2.0000      -0.414782       -11.2868
  61   2.0000      -0.413427       -11.2499
  62   2.0000      -0.410431       -11.1684
  63   2.0000      -0.338168        -9.2020
  64   2.0000      -0.331658        -9.0249
  65   2.0000      -0.325590        -8.8598
  66   2.0000      -0.298861        -8.1324
  67   0.0000       0.035827         0.9749
  68   0.0000       0.059314         1.6140
  69   0.0000       0.118266         3.2182
  70   0.0000       0.120824         3.2878
  71   0.0000       0.123937         3.3725

MULLIKEN ATOMIC CHARGES
-----------------------
   0 S :    0.109525
   1 C :   -0.079042
   2 C :   -0.079185
   3 C :    0.061612
   4 C :   -0.170881
   5 H :   -0.021067
   6 C :   -0.006067
   7 H :    0.029076
   8 H :    0.034499
   9 C :   -0.035511
  10 H :    0.019669
  11 H :    0.029453
  12 C :   -0.036327
  13 H :    0.042881
  14 H :    0.024522
  15 H :    0.026196
  16 S :    0.125074
  17 C :   -0.087156
  18 C :   -0.056862
  19 C :   -0.041505
  20 C :   -0.174023
  21 H :    0.021303
  22 C :    0.096296
  23 H :    0.030619
  24 H :    0.003846
  25 C :   -0.046191
  26 H :    0.054359
  27 H :    0.010836
  28 C :   -0.076331
  29 H :    0.045563
  30 H :    0.026630
  31 H :    0.032125
  32 H :    0.019585
  33 H :    0.066478
Sum of atomic charges:    0.0000000

LOEWDIN ATOMIC CHARGES
----------------------
   0 S :    0.394682
   1 C :   -0.181555
   2 C :   -0.067084
   3 C :   -0.054554
   4 C :   -0.205614
   5 H :    0.013528
   6 C :   -0.040277
   7 H :    0.031274
   8 H :    0.034936
   9 C :   -0.032865
  10 H :    0.017886
  11 H :    0.027047
  12 C :   -0.063147
  13 H :    0.028181
  14 H :    0.022060
  15 H :    0.025500
  16 S :    0.426036
  17 C :   -0.197909
  18 C :   -0.082351
  19 C :   -0.046718
  20 C :   -0.202386
  21 H :    0.033722
  22 C :   -0.031234
  23 H :    0.043258
  24 H :    0.025711
  25 C :   -0.039646
  26 H :    0.036047
  27 H :    0.013300
  28 C :   -0.070860
  29 H :    0.028490
  30 H :    0.025768
  31 H :    0.024761
  32 H :    0.021285
  33 H :    0.042729

  Mayer bond orders larger than 0.100000
B(  0-S ,  1-C ) :   1.1301 B(  0-S ,  4-C ) :   1.1324 B(  1-C ,  2-C ) :   1.6245
B(  1-C , 32-H ) :   0.9681 B(  2-C ,  3-C ) :   1.2212 B(  2-C ,  6-C ) :   1.0168
B(  3-C ,  4-C ) :   1.5823 B(  3-C ,  5-H ) :   1.0031 B(  4-C , 20-C ) :   1.0317
B(  6-C ,  7-H ) :   0.9463 B(  6-C ,  8-H ) :   0.9489 B(  6-C ,  9-C ) :   1.0707
B(  9-C , 10-H ) :   0.9557 B(  9-C , 11-H ) :   0.9551 B(  9-C , 12-C ) :   1.0774
B( 12-C , 13-H ) :   0.9712 B( 12-C , 14-H ) :   0.9757 B( 12-C , 15-H ) :   0.9719
B( 16-S , 17-C ) :   1.1762 B( 16-S , 20-C ) :   1.1286 B( 17-C , 18-C ) :   1.6146
B( 17-C , 33-H ) :   0.9552 B( 18-C , 19-C ) :   1.2257 B( 18-C , 21-H ) :   0.9891
B( 19-C , 20-C ) :   1.6153 B( 19-C , 22-C ) :   1.0419 B( 22-C , 23-H ) :   0.9172
B( 22-C , 24-H ) :   0.9313 B( 22-C , 25-C ) :   1.0833 B( 25-C , 26-H ) :   0.9541
B( 25-C , 27-H ) :   0.9517 B( 25-C , 28-C ) :   1.0667 B( 28-C , 29-H ) :   0.9752
B( 28-C , 30-H ) :   0.9733 B( 28-C , 31-H ) :   0.9803

Dispersion correction           -0.015698055
FINAL SINGLE POINT ENERGY     -1339.867903982907

DIPOLE MOMENT
-------------
                                X             Y             Z
Electronic contribution:      3.38331      23.36264      -9.07940
Nuclear contribution   :     -3.57423     -23.76801       9.66343
                        -----------------------------------------
Total Dipole Moment    :     -0.19092      -0.40537       0.58403
                        -----------------------------------------
Magnitude (a.u.)       :      0.73612
Magnitude (Debye)      :      1.87106

Rotational constants in cm-1:     0.019820     0.009285     0.007778
Rotational constants in MHz :   594.180604   278.352959   233.181717

                             ****ORCA TERMINATED NORMALLY****
TOTAL RUN TIME: 0 days 0 hours 0 minutes 36 seconds 614 msec
