                         Program Version 4.2.1 -  RELEASE  -
|  1> ! wB97X-D3 SP def2-SVP
|  2> %pal
|  3> nprocs 16
|  4> end
|  5>
|  6> * xyz 0 1
|  7> S 	 -62.9994 	 47.6163 	 120.988
|  8> C 	 -64.0844 	 47.0043 	 122.264
|  9> C 	 -65.2778 	 47.6275 	 122.29
| 10> C 	 -65.2452 	 48.7904 	 121.426
| 11> C 	 -64.0467 	 48.9226 	 120.655
| 12> H 	 -66.0889 	 49.4439 	 121.365
| 13> C 	 -66.4505 	 47.3067 	 123.177
| 14> H 	 -67.1896 	 48.1079 	 123.18
| 15> H 	 -66.0879 	 47.2138 	 124.238
| 16> C 	 -67.1982 	 45.9572 	 122.837
| 17> H 	 -68.0003 	 46.2868 	 122.164
| 18> H 	 -66.6373 	 45.1711 	 122.402
| 19> C 	 -67.8189 	 45.3439 	 124.123
| 20> H 	 -68.4986 	 44.5901 	 123.767
| 21> H 	 -67.1467 	 45.0244 	 124.886
| 22> H 	 -68.4278 	 46.0943 	 124.553
| 23> S 	 -63.525 	 48.9128 	 118.004
| 24> C 	 -63.4796 	 50.3799 	 117.061
| 25> C 	 -63.8047 	 51.4785 	 117.85
| 26> C 	 -64.0133 	 51.1189 	 119.213
| 27> C 	 -63.8779 	 49.7535 	 119.487
| 28> H 	 -63.8475 	 52.4059 	 117.281
| 29> C 	 -64.177 	 52.1574 	 120.285
| 30> H 	 -63.7217 	 53.0512 	 119.951
| 31> H 	 -63.5394 	 51.9693 	 121.085
| 32> C 	 -65.5702 	 52.3957 	 120.704
| 33> H 	 -66.0305 	 51.4625 	 120.81
| 34> H 	 -66.1155 	 52.9581 	 119.917
| 35> C 	 -65.7049 	 53.1713 	 122.038
| 36> H 	 -65.1469 	 54.0672 	 122.004
| 37> H 	 -65.4619 	 52.5947 	 122.91
| 38> H 	 -66.8132 	 53.4152 	 122.156
| 39> H 	 -63.829 	 46.0421 	 122.735
| 40> H 	 -63.2602 	 50.2844 	 116.027
| 41> *
| 42>
| 43>                          ****END OF INPUT****

CARTESIAN COORDINATES (ANGSTROEM)
---------------------------------
  S    -62.999400   47.616300  120.988000
  C    -64.084400   47.004300  122.264000
  C    -65.277800   47.627500  122.290000
  C    -65.245200   48.790400  121.426000
  C    -64.046700   48.922600  120.655000
  H    -66.088900   49.443900  121.365000
  C    -66.450500   47.306700  123.177000
  H    -67.189600   48.107900  123.180000
  H    -66.087900   47.213800  124.238000
  C    -67.198200   45.957200  122.837000
  H    -68.000300   46.286800  122.164000
  H    -66.637300   45.171100  122.402000
  C    -67.818900   45.343900  124.123000
  H    -68.498600   44.590100  123.767000
  H    -67.146700   45.024400  124.886000
  H    -68.427800   46.094300  124.553000
  S    -63.525000   48.912800  118.004000
  C    -63.479600   50.379900  117.061000
  C    -63.804700   51.478500  117.850000
  C    -64.013300   51.118900  119.213000
  C    -63.877900   49.753500  119.487000
  H    -63.847500   52.405900  117.281000
  C    -64.177000   52.157400  120.285000
  H    -63.721700   53.051200  119.951000
  H    -63.539400   51.969300  121.085000
  C    -65.570200   52.395700  120.704000
  H    -66.030500   51.462500  120.810000
  H    -66.115500   52.958100  119.917000
  C    -65.704900   53.171300  122.038000
  H    -65.146900   54.067200  122.004000
  H    -65.461900   52.594700  122.910000
  H    -66.813200   53.415200  122.156000
  H    -63.829000   46.042100  122.735000
  H    -63.260200   50.284400  116.027000

 Total Charge           Charge          ....    0
 Multiplicity           Mult            ....    1
 Number of Electrons    NEL             ....  134
 Basis Dimension        Dim             ....  322

ORBITAL ENERGIES
----------------

  NO   OCC          E(Eh)            E(eV)
   0   2.0000     -88.967531     -2420.9296
   1   2.0000     -88.959947     -2420.7232
   2   2.0000     -10.332135      -281.1517
   3   2.0000     -10.324973      -280.9568
   4   2.0000     -10.314105      -280.6611
   5   2.0000     -10.313763      -280.6518
   6   2.0000     -10.301836      -280.3272
   7   2.0000     -10.301527      -280.3188
   8   2.0000     -10.300296      -280.2853
   9   2.0000     -10.298492      -280.2362
  10   2.0000     -10.296388      -280.1790
  11   2.0000     -10.288709      -279.9700
  12   2.0000     -10.276095      -279.6268
  13   2.0000     -10.275438      -279.6089
  14   2.0000     -10.272870      -279.5390
  15   2.0000     -10.270884      -279.4850
  16   2.0000      -8.082593      -219.9385
  17   2.0000      -8.075349      -219.7414
  18   2.0000      -6.041079      -164.3861
  19   2.0000      -6.037012      -164.2755
  20   2.0000      -6.033712      -164.1857
  21   2.0000      -6.033391      -164.1769
  22   2.0000      -6.029619      -164.0743
  23   2.0000      -6.026358      -163.9855
  24   2.0000      -1.008379       -27.4394
  25   2.0000      -0.983753       -26.7693
  26   2.0000      -0.916263       -24.9328
  27   2.0000      -0.911395       -24.8003
  28   2.0000      -0.873077       -23.7576
  29   2.0000      -0.848286       -23.0830
  30   2.0000      -0.845927       -23.0189
  31   2.0000      -0.810135       -22.0449
  32   2.0000      -0.784060       -21.3354
  33   2.0000      -0.774749       -21.0820
  34   2.0000      -0.706715       -19.2307
  35   2.0000      -0.704785       -19.1782
  36   2.0000      -0.697507       -18.9801
  37   2.0000      -0.666460       -18.1353
  38   2.0000      -0.638471       -17.3737
  39   2.0000      -0.619507       -16.8576
  40   2.0000      -0.599776       -16.3207
  41   2.0000      -0.578086       -15.7305
  42   2.0000      -0.570194       -15.5158
  43   2.0000      -0.555851       -15.1255
  44   2.0000      -0.529326       -14.4037
  45   2.0000      -0.526243       -14.3198
  46   2.0000      -0.517030       -14.0691
  47   2.0000      -0.514460       -13.9992
  48   2.0000      -0.506079       -13.7711
  49   2.0000      -0.504294       -13.7225
  50   2.0000      -0.493607       -13.4317
  51   2.0000      -0.481825       -13.1111
  52   2.0000      -0.476237       -12.9591
  53   2.0000      -0.468136       -12.7386
  54   2.0000      -0.458946       -12.4886
  55   2.0000      -0.445825       -12.1315
  56   2.0000      -0.439098       -11.9485
  57   2.0000      -0.437212       -11.8972
  58   2.0000      -0.431398       -11.7389
  59   2.0000      -0.429512       -11.6876
  60   2.0000      -0.419947       -11.4273
  61   2.0000      -0.417014       -11.3475
  62   2.0000      -0.409445       -11.1416
  63   2.0000      -0.345707        -9.4072
  64   2.0000      -0.333110        -9.0644
  65   2.0000      -0.327275        -8.9056
  66   2.0000      -0.289292        -7.8720
  67   0.0000       0.027031         0.7356
  68   0.0000       0.069009         1.8778
  69   0.0000       0.111693         3.0393
  70   0.0000       0.121151         3.2967
  71   0.0000       0.135437         3.6854

MULLIKEN ATOMIC CHARGES
-----------------------
   0 S :    0.106393
   1 C :   -0.141616
   2 C :   -0.048493
   3 C :    0.028708
   4 C :   -0.129223
   5 H :    0.002466
   6 C :    0.028779
   7 H :    0.024630
   8 H :    0.044930
   9 C :   -0.080800
  10 H :    0.037324
  11 H :    0.035383
  12 C :   -0.037996
  13 H :    0.031599
  14 H :    0.038699
  15 H :    0.012806
  16 S :    0.091382
  17 C :   -0.110275
  18 C :   -0.028585
  19 C :   -0.048519
  20 C :   -0.145311
  21 H :    0.028334
  22 C :    0.130401
  23 H :   -0.009642
  24 H :    0.004619
  25 C :   -0.050908
  26 H :   -0.002001
  27 H :    0.026282
  28 C :   -0.041812
  29 H :    0.025793
  30 H :    0.033647
  31 H :    0.034344
  32 H :    0.056122
  33 H :    0.052542
Sum of atomic charges:    0.0000000

LOEWDIN ATOMIC CHARGES
----------------------
   0 S :    0.416570
   1 C :   -0.186286
   2 C :   -0.064655
   3 C :   -0.055714
   4 C :   -0.212383
   5 H :    0.020556
   6 C :   -0.032205
   7 H :    0.029115
   8 H :    0.038433
   9 C :   -0.030339
  10 H :    0.028861
  11 H :    0.017691
  12 C :   -0.060017
  13 H :    0.027167
  14 H :    0.021740
  15 H :    0.017922
  16 S :    0.410044
  17 C :   -0.181439
  18 C :   -0.072598
  19 C :   -0.054897
  20 C :   -0.201115
  21 H :    0.038414
  22 C :   -0.031527
  23 H :    0.024746
  24 H :    0.025225
  25 C :   -0.034931
  26 H :    0.010782
  27 H :    0.027760
  28 C :   -0.059506
  29 H :    0.017139
  30 H :    0.022137
  31 H :    0.033812
  32 H :    0.028945
  33 H :    0.020551

  Mayer bond orders larger than 0.100000
B(  0-S ,  1-C ) :   1.1304 B(  0-S ,  4-C ) :   1.1716 B(  1-C ,  2-C ) :   1.6151
B(  1-C , 32-H ) :   0.9645 B(  2-C ,  3-C ) :   1.2693 B(  2-C ,  6-C ) :   1.0184
B(  3-C ,  4-C ) :   1.5192 B(  3-C ,  5-H ) :   0.9881 B(  4-C , 20-C ) :   1.0533
B(  6-C ,  7-H ) :   0.9429 B(  6-C ,  8-H ) :   0.9541 B(  6-C ,  9-C ) :   1.0348
B(  9-C , 10-H ) :   0.9590 B(  9-C , 11-H ) :   0.9713 B(  9-C , 12-C ) :   1.0792
B( 12-C , 13-H ) :   0.9732 B( 12-C , 14-H ) :   0.9782 B( 12-C , 15-H ) :   0.9736
B( 16-S , 17-C ) :   1.1739 B( 16-S , 20-C ) :   1.1519 B( 17-C , 18-C ) :   1.5745
B( 17-C , 20-C ) :   0.1056 B( 17-C , 33-H ) :   0.9751 B( 18-C , 19-C ) :   1.2457
B( 18-C , 21-H ) :   0.9992 B( 19-C , 20-C ) :   1.5744 B( 19-C , 22-C ) :   1.0448
B( 22-C , 23-H ) :   0.9183 B( 22-C , 24-H ) :   0.9315 B( 22-C , 25-C ) :   1.0651
B( 25-C , 26-H ) :   0.9565 B( 25-C , 27-H ) :   0.9465 B( 25-C , 28-C ) :   1.0888
B( 28-C , 29-H ) :   0.9748 B( 28-C , 30-H ) :   0.9754 B( 28-C , 31-H ) :   0.9747

Dispersion correction           -0.013807878
FINAL SINGLE POINT ENERGY     -1339.868892678110

DIPOLE MOMENT
-------------
                                X             Y             Z
Electronic contribution:     20.27784      -5.86237     -18.50805
Nuclear contribution   :    -20.77446       5.96928      18.73511
                        -----------------------------------------
Total Dipole Moment    :     -0.49662       0.10691       0.22706
                        -----------------------------------------
Magnitude (a.u.)       :      0.55643
Magnitude (Debye)      :      1.41433

Rotational constants in cm-1:     0.018994     0.008140     0.006425
Rotational constants in MHz :   569.410932   244.044569   192.615495

                             ****ORCA TERMINATED NORMALLY****
TOTAL RUN TIME: 0 days 0 hours 0 minutes 34 seconds 750 msec
