                         Program Version 4.2.1 -  RELEASE  -
|  1> ! wB97X-D3 SP def2-SVP
|  2> %pal
|  3> nprocs 16
|  4> end
|  5>
|  6> * xyz 0 1
|  7> S 	 -16.6757 	 40.0255 	 33.6378
|  8> C 	 -15.3082 	 39.18 	 34.0363
|  9> C 	 -14.431 	 39.0482 	 33.0032
| 10> C 	 -14.8419 	 39.6512 	 31.759
| 11> C 	 -16.076 	 40.3246 	 31.972
| 12> H 	 -14.2468 	 39.7457 	 30.896
| 13> C 	 -13.179 	 38.2331 	 33.0408
| 14> H 	 -13.2676 	 37.5703 	 33.9274
| 15> H 	 -12.3695 	 38.8841 	 33.2969
| 16> C 	 -12.9216 	 37.2911 	 31.7953
| 17> H 	 -12.6714 	 37.9652 	 31.0206
| 18> H 	 -11.987 	 36.6859 	 31.7868
| 19> C 	 -14.1695 	 36.425 	 31.5089
| 20> H 	 -14.0605 	 35.8423 	 30.585
| 21> H 	 -14.3771 	 35.6379 	 32.3026
| 22> H 	 -15.0185 	 37.0709 	 31.3937
| 23> S 	 -18.5493 	 41.181 	 30.9771
| 24> C 	 -18.6695 	 42.3195 	 29.6798
| 25> C 	 -17.414 	 42.8298 	 29.3988
| 26> C 	 -16.3589 	 42.1445 	 30.1129
| 27> C 	 -16.7973 	 41.2708 	 31.1082
| 28> H 	 -17.1619 	 43.6797 	 28.6912
| 29> C 	 -14.9094 	 42.66 	 29.8666
| 30> H 	 -14.2124 	 42.417 	 30.7084
| 31> H 	 -15.0201 	 43.7736 	 29.9955
| 32> C 	 -14.3237 	 42.3282 	 28.4647
| 33> H 	 -14.706 	 42.9112 	 27.616
| 34> H 	 -14.7285 	 41.4091 	 28.206
| 35> C 	 -12.778 	 42.3314 	 28.3656
| 36> H 	 -12.3601 	 43.2317 	 27.8837
| 37> H 	 -12.281 	 41.4734 	 27.7761
| 38> H 	 -12.3918 	 42.2502 	 29.3977
| 39> H 	 -15.0182 	 38.8631 	 34.9967
| 40> H 	 -19.6092 	 42.6851 	 29.3147
| 41> *
| 42>
| 43>                          ****END OF INPUT****

CARTESIAN COORDINATES (ANGSTROEM)
---------------------------------
  S    -16.675700   40.025500   33.637800
  C    -15.308200   39.180000   34.036300
  C    -14.431000   39.048200   33.003200
  C    -14.841900   39.651200   31.759000
  C    -16.076000   40.324600   31.972000
  H    -14.246800   39.745700   30.896000
  C    -13.179000   38.233100   33.040800
  H    -13.267600   37.570300   33.927400
  H    -12.369500   38.884100   33.296900
  C    -12.921600   37.291100   31.795300
  H    -12.671400   37.965200   31.020600
  H    -11.987000   36.685900   31.786800
  C    -14.169500   36.425000   31.508900
  H    -14.060500   35.842300   30.585000
  H    -14.377100   35.637900   32.302600
  H    -15.018500   37.070900   31.393700
  S    -18.549300   41.181000   30.977100
  C    -18.669500   42.319500   29.679800
  C    -17.414000   42.829800   29.398800
  C    -16.358900   42.144500   30.112900
  C    -16.797300   41.270800   31.108200
  H    -17.161900   43.679700   28.691200
  C    -14.909400   42.660000   29.866600
  H    -14.212400   42.417000   30.708400
  H    -15.020100   43.773600   29.995500
  C    -14.323700   42.328200   28.464700
  H    -14.706000   42.911200   27.616000
  H    -14.728500   41.409100   28.206000
  C    -12.778000   42.331400   28.365600
  H    -12.360100   43.231700   27.883700
  H    -12.281000   41.473400   27.776100
  H    -12.391800   42.250200   29.397700
  H    -15.018200   38.863100   34.996700
  H    -19.609200   42.685100   29.314700

 Total Charge           Charge          ....    0
 Multiplicity           Mult            ....    1
 Number of Electrons    NEL             ....  134
 Basis Dimension        Dim             ....  322

ORBITAL ENERGIES
----------------

  NO   OCC          E(Eh)            E(eV)
   0   2.0000     -88.968644     -2420.9599
   1   2.0000     -88.963719     -2420.8259
   2   2.0000     -10.340735      -281.3857
   3   2.0000     -10.332101      -281.1508
   4   2.0000     -10.320652      -280.8392
   5   2.0000     -10.308077      -280.4970
   6   2.0000     -10.303183      -280.3639
   7   2.0000     -10.302888      -280.3558
   8   2.0000     -10.302071      -280.3336
   9   2.0000     -10.299936      -280.2755
  10   2.0000     -10.296071      -280.1703
  11   2.0000     -10.291059      -280.0340
  12   2.0000     -10.289843      -280.0009
  13   2.0000     -10.289093      -279.9805
  14   2.0000     -10.285860      -279.8925
  15   2.0000     -10.278261      -279.6857
  16   2.0000      -8.084455      -219.9892
  17   2.0000      -8.078907      -219.8382
  18   2.0000      -6.042835      -164.4339
  19   2.0000      -6.038792      -164.3239
  20   2.0000      -6.037504      -164.2888
  21   2.0000      -6.035298      -164.2288
  22   2.0000      -6.033201      -164.1717
  23   2.0000      -6.029697      -164.0764
  24   2.0000      -1.008320       -27.4378
  25   2.0000      -0.989317       -26.9207
  26   2.0000      -0.908133       -24.7115
  27   2.0000      -0.902016       -24.5451
  28   2.0000      -0.871948       -23.7269
  29   2.0000      -0.848457       -23.0877
  30   2.0000      -0.843133       -22.9428
  31   2.0000      -0.816203       -22.2100
  32   2.0000      -0.776518       -21.1301
  33   2.0000      -0.768139       -20.9021
  34   2.0000      -0.713295       -19.4097
  35   2.0000      -0.703511       -19.1435
  36   2.0000      -0.696257       -18.9461
  37   2.0000      -0.662707       -18.0332
  38   2.0000      -0.642753       -17.4902
  39   2.0000      -0.622216       -16.9314
  40   2.0000      -0.597353       -16.2548
  41   2.0000      -0.561444       -15.2777
  42   2.0000      -0.556471       -15.1424
  43   2.0000      -0.553998       -15.0751
  44   2.0000      -0.538497       -14.6532
  45   2.0000      -0.521029       -14.1779
  46   2.0000      -0.515019       -14.0144
  47   2.0000      -0.511228       -13.9112
  48   2.0000      -0.509234       -13.8570
  49   2.0000      -0.500061       -13.6074
  50   2.0000      -0.486654       -13.2425
  51   2.0000      -0.478275       -13.0145
  52   2.0000      -0.468743       -12.7552
  53   2.0000      -0.464990       -12.6530
  54   2.0000      -0.455961       -12.4073
  55   2.0000      -0.451354       -12.2820
  56   2.0000      -0.445552       -12.1241
  57   2.0000      -0.442725       -12.0472
  58   2.0000      -0.437391       -11.9020
  59   2.0000      -0.426235       -11.5985
  60   2.0000      -0.417923       -11.3723
  61   2.0000      -0.406964       -11.0740
  62   2.0000      -0.405661       -11.0386
  63   2.0000      -0.359491        -9.7823
  64   2.0000      -0.332506        -9.0479
  65   2.0000      -0.327254        -8.9050
  66   2.0000      -0.287178        -7.8145
  67   0.0000       0.024303         0.6613
  68   0.0000       0.073821         2.0088
  69   0.0000       0.116049         3.1579
  70   0.0000       0.117059         3.1853
  71   0.0000       0.122935         3.3452

MULLIKEN ATOMIC CHARGES
-----------------------
   0 S :    0.122221
   1 C :   -0.062707
   2 C :   -0.157913
   3 C :    0.052473
   4 C :   -0.145746
   5 H :    0.004268
   6 C :    0.073101
   7 H :    0.015000
   8 H :    0.034712
   9 C :   -0.074618
  10 H :    0.014447
  11 H :    0.033664
  12 C :   -0.062058
  13 H :    0.033422
  14 H :    0.042075
  15 H :    0.047675
  16 S :    0.088537
  17 C :   -0.078013
  18 C :   -0.039268
  19 C :   -0.073871
  20 C :   -0.111631
  21 H :    0.046737
  22 C :   -0.008692
  23 H :    0.038733
  24 H :    0.043955
  25 C :   -0.025677
  26 H :    0.026814
  27 H :    0.012242
  28 C :   -0.094905
  29 H :    0.043634
  30 H :    0.046204
  31 H :    0.030014
  32 H :    0.024926
  33 H :    0.060245
Sum of atomic charges:   -0.0000000

LOEWDIN ATOMIC CHARGES
----------------------
   0 S :    0.432505
   1 C :   -0.220479
   2 C :   -0.069525
   3 C :   -0.049456
   4 C :   -0.171858
   5 H :    0.026170
   6 C :   -0.034151
   7 H :    0.028301
   8 H :    0.028328
   9 C :   -0.042752
  10 H :    0.013865
  11 H :    0.030744
  12 C :   -0.067786
  13 H :    0.026725
  14 H :    0.033439
  15 H :    0.024887
  16 S :    0.406703
  17 C :   -0.185332
  18 C :   -0.077885
  19 C :   -0.061880
  20 C :   -0.204542
  21 H :    0.043022
  22 C :   -0.037837
  23 H :    0.032145
  24 H :    0.037298
  25 C :   -0.048514
  26 H :    0.028964
  27 H :    0.016284
  28 C :   -0.077579
  29 H :    0.027147
  30 H :    0.036274
  31 H :    0.024576
  32 H :    0.023485
  33 H :    0.028714

  Mayer bond orders larger than 0.100000
B(  0-S ,  1-C ) :   1.1485 B(  0-S ,  4-C ) :   1.1677 B(  1-C ,  2-C ) :   1.6276
B(  1-C , 32-H ) :   0.9628 B(  2-C ,  3-C ) :   1.2392 B(  2-C ,  6-C ) :   1.0149
B(  3-C ,  4-C ) :   1.5405 B(  3-C ,  5-H ) :   1.0012 B(  4-C , 20-C ) :   1.0356
B(  6-C ,  7-H ) :   0.9483 B(  6-C ,  8-H ) :   0.9341 B(  6-C ,  9-C ) :   1.0559
B(  9-C , 10-H ) :   0.9516 B(  9-C , 11-H ) :   0.9580 B(  9-C , 12-C ) :   1.0725
B( 12-C , 13-H ) :   0.9734 B( 12-C , 14-H ) :   0.9754 B( 12-C , 15-H ) :   0.9711
B( 16-S , 17-C ) :   1.1674 B( 16-S , 20-C ) :   1.1293 B( 17-C , 18-C ) :   1.5766
B( 17-C , 33-H ) :   0.9719 B( 18-C , 19-C ) :   1.2587 B( 18-C , 21-H ) :   0.9780
B( 19-C , 20-C ) :   1.5985 B( 19-C , 22-C ) :   1.0321 B( 22-C , 23-H ) :   0.9501
B( 22-C , 24-H ) :   0.9449 B( 22-C , 25-C ) :   1.0375 B( 25-C , 26-H ) :   0.9516
B( 25-C , 27-H ) :   0.9626 B( 25-C , 28-C ) :   1.0645 B( 28-C , 29-H ) :   0.9798
B( 28-C , 30-H ) :   0.9777 B( 28-C , 31-H ) :   0.9800

Dispersion correction           -0.014482132
FINAL SINGLE POINT ENERGY     -1339.865876982061

DIPOLE MOMENT
-------------
                                X             Y             Z
Electronic contribution:    -25.21972       5.82105      12.64308
Nuclear contribution   :     25.79912      -5.68302     -12.94212
                        -----------------------------------------
Total Dipole Moment    :      0.57940       0.13802      -0.29904
                        -----------------------------------------
Magnitude (a.u.)       :      0.66647
Magnitude (Debye)      :      1.69403

Rotational constants in cm-1:     0.016321     0.009905     0.007067
Rotational constants in MHz :   489.282910   296.932488   211.858368

                             ****ORCA TERMINATED NORMALLY****
TOTAL RUN TIME: 0 days 0 hours 0 minutes 34 seconds 135 msec
