                         Program Version 4.2.1 -  RELEASE  -
|  1> ! wB97X-D3 SP def2-SVP
|  2> %pal
|  3> nprocs 16
|  4> end
|  5>
|  6> * xyz 0 1
|  7> S 	 -3.88429 	 77.8571 	 54.2565
|  8> C 	 -2.98803 	 78.9498 	 55.2041
|  9> C 	 -1.84146 	 78.3363 	 55.7105
| 10> C 	 -1.71573 	 76.9531 	 55.2928
| 11> C 	 -2.74322 	 76.5717 	 54.4529
| 12> H 	 -0.919218 	 76.2213 	 55.3247
| 13> C 	 -0.74868 	 78.8632 	 56.5623
| 14> H 	 -0.351661 	 77.9873 	 57.1198
| 15> H 	 -1.29224 	 79.6262 	 57.1726
| 16> C 	 0.389453 	 79.5719 	 55.8914
| 17> H 	 1.11973 	 79.791 	 56.5892
| 18> H 	 0.856464 	 78.9716 	 55.1399
| 19> C 	 0.0226211 	 80.9158 	 55.2333
| 20> H 	 -0.437391 	 81.7088 	 55.9275
| 21> H 	 0.9641 	 81.3419 	 54.8163
| 22> H 	 -0.670299 	 80.828 	 54.4145
| 23> S 	 -2.94643 	 73.7961 	 54.8871
| 24> C 	 -3.07948 	 72.6462 	 53.5409
| 25> C 	 -3.03906 	 73.3452 	 52.3689
| 26> C 	 -3.01912 	 74.7408 	 52.5057
| 27> C 	 -2.81774 	 75.2305 	 53.8383
| 28> H 	 -2.99911 	 72.8357 	 51.4544
| 29> C 	 -3.09587 	 75.622 	 51.3501
| 30> H 	 -3.18577 	 76.7485 	 51.4904
| 31> H 	 -4.10532 	 75.4509 	 50.8738
| 32> C 	 -2.04418 	 75.327 	 50.3104
| 33> H 	 -2.29503 	 76.0766 	 49.503
| 34> H 	 -2.15631 	 74.3376 	 49.9059
| 35> C 	 -0.601119 	 75.4211 	 50.8603
| 36> H 	 -0.48889 	 74.8899 	 51.8417
| 37> H 	 -0.350755 	 76.41 	 51.2544
| 38> H 	 0.165409 	 75.1976 	 50.0918
| 39> H 	 -3.28413 	 79.9216 	 55.4781
| 40> H 	 -3.04577 	 71.577 	 53.6783
| 41> *
| 42>
| 43>                          ****END OF INPUT****

CARTESIAN COORDINATES (ANGSTROEM)
---------------------------------
  S     -3.884290   77.857100   54.256500
  C     -2.988030   78.949800   55.204100
  C     -1.841460   78.336300   55.710500
  C     -1.715730   76.953100   55.292800
  C     -2.743220   76.571700   54.452900
  H     -0.919218   76.221300   55.324700
  C     -0.748680   78.863200   56.562300
  H     -0.351661   77.987300   57.119800
  H     -1.292240   79.626200   57.172600
  C      0.389453   79.571900   55.891400
  H      1.119730   79.791000   56.589200
  H      0.856464   78.971600   55.139900
  C      0.022621   80.915800   55.233300
  H     -0.437391   81.708800   55.927500
  H      0.964100   81.341900   54.816300
  H     -0.670299   80.828000   54.414500
  S     -2.946430   73.796100   54.887100
  C     -3.079480   72.646200   53.540900
  C     -3.039060   73.345200   52.368900
  C     -3.019120   74.740800   52.505700
  C     -2.817740   75.230500   53.838300
  H     -2.999110   72.835700   51.454400
  C     -3.095870   75.622000   51.350100
  H     -3.185770   76.748500   51.490400
  H     -4.105320   75.450900   50.873800
  C     -2.044180   75.327000   50.310400
  H     -2.295030   76.076600   49.503000
  H     -2.156310   74.337600   49.905900
  C     -0.601119   75.421100   50.860300
  H     -0.488890   74.889900   51.841700
  H     -0.350755   76.410000   51.254400
  H      0.165409   75.197600   50.091800
  H     -3.284130   79.921600   55.478100
  H     -3.045770   71.577000   53.678300

 Total Charge           Charge          ....    0
 Multiplicity           Mult            ....    1
 Number of Electrons    NEL             ....  134
 Basis Dimension        Dim             ....  322

ORBITAL ENERGIES
----------------

  NO   OCC          E(Eh)            E(eV)
   0   2.0000     -88.969135     -2420.9732
   1   2.0000     -88.962501     -2420.7927
   2   2.0000     -10.333815      -281.1974
   3   2.0000     -10.329754      -281.0869
   4   2.0000     -10.321379      -280.8590
   5   2.0000     -10.313205      -280.6366
   6   2.0000     -10.303123      -280.3622
   7   2.0000     -10.302859      -280.3551
   8   2.0000     -10.292609      -280.0761
   9   2.0000     -10.291051      -280.0337
  10   2.0000     -10.289979      -280.0046
  11   2.0000     -10.289576      -279.9936
  12   2.0000     -10.286844      -279.9193
  13   2.0000     -10.282700      -279.8065
  14   2.0000     -10.278087      -279.6810
  15   2.0000     -10.277003      -279.6515
  16   2.0000      -8.084577      -219.9925
  17   2.0000      -8.076345      -219.7685
  18   2.0000      -6.043097      -164.4410
  19   2.0000      -6.038724      -164.3220
  20   2.0000      -6.035544      -164.2355
  21   2.0000      -6.034939      -164.2190
  22   2.0000      -6.030791      -164.1062
  23   2.0000      -6.027236      -164.0094
  24   2.0000      -1.008225       -27.4352
  25   2.0000      -0.987329       -26.8666
  26   2.0000      -0.918655       -24.9979
  27   2.0000      -0.913251       -24.8508
  28   2.0000      -0.873621       -23.7724
  29   2.0000      -0.851590       -23.1729
  30   2.0000      -0.838679       -22.8216
  31   2.0000      -0.816805       -22.2264
  32   2.0000      -0.780468       -21.2376
  33   2.0000      -0.772247       -21.0139
  34   2.0000      -0.708816       -19.2879
  35   2.0000      -0.704183       -19.1618
  36   2.0000      -0.693400       -18.8684
  37   2.0000      -0.660108       -17.9625
  38   2.0000      -0.644740       -17.5443
  39   2.0000      -0.615895       -16.7594
  40   2.0000      -0.605484       -16.4761
  41   2.0000      -0.574899       -15.6438
  42   2.0000      -0.555745       -15.1226
  43   2.0000      -0.549970       -14.9654
  44   2.0000      -0.546135       -14.8611
  45   2.0000      -0.531204       -14.4548
  46   2.0000      -0.523443       -14.2436
  47   2.0000      -0.513262       -13.9666
  48   2.0000      -0.510683       -13.8964
  49   2.0000      -0.498805       -13.5732
  50   2.0000      -0.490842       -13.3565
  51   2.0000      -0.478477       -13.0200
  52   2.0000      -0.470352       -12.7989
  53   2.0000      -0.463877       -12.6227
  54   2.0000      -0.454780       -12.3752
  55   2.0000      -0.448237       -12.1972
  56   2.0000      -0.438993       -11.9456
  57   2.0000      -0.437639       -11.9088
  58   2.0000      -0.432254       -11.7622
  59   2.0000      -0.423526       -11.5247
  60   2.0000      -0.416548       -11.3348
  61   2.0000      -0.410508       -11.1705
  62   2.0000      -0.404201       -10.9989
  63   2.0000      -0.348732        -9.4895
  64   2.0000      -0.332232        -9.0405
  65   2.0000      -0.321561        -8.7501
  66   2.0000      -0.295585        -8.0433
  67   0.0000       0.029971         0.8155
  68   0.0000       0.067582         1.8390
  69   0.0000       0.110546         3.0081
  70   0.0000       0.117661         3.2017
  71   0.0000       0.132120         3.5952

MULLIKEN ATOMIC CHARGES
-----------------------
   0 S :    0.134556
   1 C :   -0.095589
   2 C :   -0.095349
   3 C :    0.002627
   4 C :   -0.139187
   5 H :    0.019331
   6 C :    0.059111
   7 H :    0.039470
   8 H :    0.022472
   9 C :    0.010143
  10 H :    0.016500
  11 H :    0.016841
  12 C :   -0.108769
  13 H :    0.035398
  14 H :    0.037820
  15 H :    0.036249
  16 S :    0.085288
  17 C :   -0.088449
  18 C :   -0.007887
  19 C :   -0.030703
  20 C :   -0.160217
  21 H :    0.003732
  22 C :    0.010833
  23 H :    0.035504
  24 H :    0.036866
  25 C :   -0.079313
  26 H :    0.037535
  27 H :    0.027947
  28 C :   -0.064765
  29 H :    0.047890
  30 H :    0.015754
  31 H :    0.046904
  32 H :    0.028579
  33 H :    0.062880
Sum of atomic charges:    0.0000000

LOEWDIN ATOMIC CHARGES
----------------------
   0 S :    0.441982
   1 C :   -0.209717
   2 C :   -0.060046
   3 C :   -0.064892
   4 C :   -0.204924
   5 H :    0.033543
   6 C :   -0.037606
   7 H :    0.039767
   8 H :    0.035100
   9 C :   -0.033224
  10 H :    0.018309
  11 H :    0.023361
  12 C :   -0.072629
  13 H :    0.028788
  14 H :    0.030768
  15 H :    0.018759
  16 S :    0.385418
  17 C :   -0.166718
  18 C :   -0.067729
  19 C :   -0.060062
  20 C :   -0.193986
  21 H :    0.025825
  22 C :   -0.052284
  23 H :    0.033568
  24 H :    0.040407
  25 C :   -0.042337
  26 H :    0.032245
  27 H :    0.016655
  28 C :   -0.079874
  29 H :    0.035223
  30 H :    0.023551
  31 H :    0.029837
  32 H :    0.021307
  33 H :    0.031612

  Mayer bond orders larger than 0.100000
B(  0-S ,  1-C ) :   1.1479 B(  0-S ,  4-C ) :   1.1564 B(  1-C ,  2-C ) :   1.5882
B(  1-C , 32-H ) :   0.9761 B(  2-C ,  3-C ) :   1.2292 B(  2-C ,  6-C ) :   1.0270
B(  3-C ,  4-C ) :   1.5701 B(  3-C ,  5-H ) :   0.9921 B(  4-C , 20-C ) :   1.0392
B(  6-C ,  7-H ) :   0.9357 B(  6-C ,  8-H ) :   0.9327 B(  6-C ,  9-C ) :   1.0901
B(  9-C , 10-H ) :   0.9500 B(  9-C , 11-H ) :   0.9466 B(  9-C , 12-C ) :   1.0778
B( 12-C , 13-H ) :   0.9742 B( 12-C , 14-H ) :   0.9731 B( 12-C , 15-H ) :   0.9761
B( 16-S , 17-C ) :   1.1630 B( 16-S , 20-C ) :   1.1361 B( 17-C , 18-C ) :   1.5758
B( 17-C , 20-C ) :   0.1075 B( 17-C , 33-H ) :   0.9695 B( 18-C , 19-C ) :   1.2602
B( 18-C , 21-H ) :   1.0004 B( 19-C , 20-C ) :   1.5334 B( 19-C , 22-C ) :   1.0598
B( 22-C , 23-H ) :   0.9412 B( 22-C , 24-H ) :   0.9221 B( 22-C , 25-C ) :   1.0774
B( 25-C , 26-H ) :   0.9539 B( 25-C , 27-H ) :   0.9549 B( 25-C , 28-C ) :   1.0666
B( 28-C , 29-H ) :   0.9665 B( 28-C , 30-H ) :   0.9711 B( 28-C , 31-H ) :   0.9756

Dispersion correction           -0.015060828
FINAL SINGLE POINT ENERGY     -1339.870522266103

DIPOLE MOMENT
-------------
                                X             Y             Z
Electronic contribution:    -17.04581     -12.85971       8.55074
Nuclear contribution   :     17.40497      12.98166      -8.81182
                        -----------------------------------------
Total Dipole Moment    :      0.35915       0.12195      -0.26108
                        -----------------------------------------
Magnitude (a.u.)       :      0.46046
Magnitude (Debye)      :      1.17041

Rotational constants in cm-1:     0.021431     0.008095     0.007290
Rotational constants in MHz :   642.494955   242.672095   218.542845

                             ****ORCA TERMINATED NORMALLY****
TOTAL RUN TIME: 0 days 0 hours 0 minutes 34 seconds 491 msec
