                         Program Version 4.2.1 -  RELEASE  -
|  1> ! wB97X-D3 SP def2-SVP
|  2> %pal
|  3> nprocs 16
|  4> end
|  5>
|  6> * xyz 0 1
|  7> S 	 -33.8617 	 46.9529 	 94.7012
|  8> C 	 -32.2476 	 46.7246 	 95.2433
|  9> C 	 -31.5365 	 47.9061 	 95.4498
| 10> C 	 -32.2995 	 49.0052 	 94.9668
| 11> C 	 -33.6006 	 48.6663 	 94.6559
| 12> H 	 -32.035 	 50.0398 	 94.823
| 13> C 	 -30.1138 	 48.0121 	 95.867
| 14> H 	 -29.8128 	 48.918 	 95.356
| 15> H 	 -29.5581 	 47.1964 	 95.4099
| 16> C 	 -29.9141 	 48.1693 	 97.3736
| 17> H 	 -30.3516 	 47.3045 	 97.9245
| 18> H 	 -28.8319 	 48.1348 	 97.5628
| 19> C 	 -30.3754 	 49.5649 	 97.8518
| 20> H 	 -29.9072 	 49.7573 	 98.8288
| 21> H 	 -29.9404 	 50.3305 	 97.2343
| 22> H 	 -31.4604 	 49.6989 	 97.9931
| 23> S 	 -35.4322 	 49.4555 	 92.8025
| 24> C 	 -36.1798 	 51.0241 	 92.9154
| 25> C 	 -35.7082 	 51.7124 	 94.036
| 26> C 	 -34.9559 	 50.9114 	 94.9354
| 27> C 	 -34.6077 	 49.7176 	 94.3665
| 28> H 	 -36.1307 	 52.7127 	 94.2819
| 29> C 	 -34.4303 	 51.3967 	 96.2788
| 30> H 	 -33.4753 	 51.9226 	 96.0558
| 31> H 	 -34.3047 	 50.5104 	 96.8811
| 32> C 	 -35.3725 	 52.3948 	 97.0849
| 33> H 	 -36.2811 	 51.8848 	 97.2412
| 34> H 	 -35.6136 	 53.1864 	 96.4315
| 35> C 	 -34.8151 	 53.0095 	 98.3129
| 36> H 	 -35.6193 	 53.5495 	 98.7033
| 37> H 	 -33.9077 	 53.6297 	 98.1546
| 38> H 	 -34.5779 	 52.3125 	 99.0763
| 39> H 	 -31.9214 	 45.8188 	 95.702
| 40> H 	 -36.6654 	 51.5698 	 92.1056
| 41> *
| 42>
| 43>                          ****END OF INPUT****

CARTESIAN COORDINATES (ANGSTROEM)
---------------------------------
  S    -33.861700   46.952900   94.701200
  C    -32.247600   46.724600   95.243300
  C    -31.536500   47.906100   95.449800
  C    -32.299500   49.005200   94.966800
  C    -33.600600   48.666300   94.655900
  H    -32.035000   50.039800   94.823000
  C    -30.113800   48.012100   95.867000
  H    -29.812800   48.918000   95.356000
  H    -29.558100   47.196400   95.409900
  C    -29.914100   48.169300   97.373600
  H    -30.351600   47.304500   97.924500
  H    -28.831900   48.134800   97.562800
  C    -30.375400   49.564900   97.851800
  H    -29.907200   49.757300   98.828800
  H    -29.940400   50.330500   97.234300
  H    -31.460400   49.698900   97.993100
  S    -35.432200   49.455500   92.802500
  C    -36.179800   51.024100   92.915400
  C    -35.708200   51.712400   94.036000
  C    -34.955900   50.911400   94.935400
  C    -34.607700   49.717600   94.366500
  H    -36.130700   52.712700   94.281900
  C    -34.430300   51.396700   96.278800
  H    -33.475300   51.922600   96.055800
  H    -34.304700   50.510400   96.881100
  C    -35.372500   52.394800   97.084900
  H    -36.281100   51.884800   97.241200
  H    -35.613600   53.186400   96.431500
  C    -34.815100   53.009500   98.312900
  H    -35.619300   53.549500   98.703300
  H    -33.907700   53.629700   98.154600
  H    -34.577900   52.312500   99.076300
  H    -31.921400   45.818800   95.702000
  H    -36.665400   51.569800   92.105600

 Total Charge           Charge          ....    0
 Multiplicity           Mult            ....    1
 Number of Electrons    NEL             ....  134
 Basis Dimension        Dim             ....  322

ORBITAL ENERGIES
----------------

  NO   OCC          E(Eh)            E(eV)
   0   2.0000     -88.968824     -2420.9648
   1   2.0000     -88.961211     -2420.7576
   2   2.0000     -10.325802      -280.9793
   3   2.0000     -10.324573      -280.9459
   4   2.0000     -10.316636      -280.7299
   5   2.0000     -10.306457      -280.4529
   6   2.0000     -10.301865      -280.3280
   7   2.0000     -10.296923      -280.1935
   8   2.0000     -10.294954      -280.1399
   9   2.0000     -10.294119      -280.1172
  10   2.0000     -10.292459      -280.0720
  11   2.0000     -10.288385      -279.9612
  12   2.0000     -10.286945      -279.9220
  13   2.0000     -10.280013      -279.7334
  14   2.0000     -10.279279      -279.7134
  15   2.0000     -10.271363      -279.4980
  16   2.0000      -8.084117      -219.9800
  17   2.0000      -8.075888      -219.7561
  18   2.0000      -6.042419      -164.4226
  19   2.0000      -6.038607      -164.3189
  20   2.0000      -6.035015      -164.2211
  21   2.0000      -6.034301      -164.2017
  22   2.0000      -6.030451      -164.0969
  23   2.0000      -6.026708      -163.9951
  24   2.0000      -1.007036       -27.4028
  25   2.0000      -0.984595       -26.7922
  26   2.0000      -0.915603       -24.9148
  27   2.0000      -0.908903       -24.7325
  28   2.0000      -0.866397       -23.5759
  29   2.0000      -0.857232       -23.3265
  30   2.0000      -0.849242       -23.1091
  31   2.0000      -0.811131       -22.0720
  32   2.0000      -0.783333       -21.3156
  33   2.0000      -0.772358       -21.0169
  34   2.0000      -0.706986       -19.2381
  35   2.0000      -0.705371       -19.1941
  36   2.0000      -0.692644       -18.8478
  37   2.0000      -0.655112       -17.8265
  38   2.0000      -0.642426       -17.4813
  39   2.0000      -0.609550       -16.5867
  40   2.0000      -0.590132       -16.0583
  41   2.0000      -0.573821       -15.6145
  42   2.0000      -0.572071       -15.5668
  43   2.0000      -0.551602       -15.0099
  44   2.0000      -0.539883       -14.6910
  45   2.0000      -0.527570       -14.3559
  46   2.0000      -0.519832       -14.1453
  47   2.0000      -0.509265       -13.8578
  48   2.0000      -0.500433       -13.6175
  49   2.0000      -0.495206       -13.4752
  50   2.0000      -0.490525       -13.3479
  51   2.0000      -0.480169       -13.0661
  52   2.0000      -0.475270       -12.9328
  53   2.0000      -0.464607       -12.6426
  54   2.0000      -0.461292       -12.5524
  55   2.0000      -0.450666       -12.2633
  56   2.0000      -0.448237       -12.1971
  57   2.0000      -0.436663       -11.8822
  58   2.0000      -0.432009       -11.7556
  59   2.0000      -0.429242       -11.6803
  60   2.0000      -0.420396       -11.4396
  61   2.0000      -0.417129       -11.3507
  62   2.0000      -0.413404       -11.2493
  63   2.0000      -0.342265        -9.3135
  64   2.0000      -0.331873        -9.0307
  65   2.0000      -0.330183        -8.9847
  66   2.0000      -0.288541        -7.8516
  67   0.0000       0.032073         0.8728
  68   0.0000       0.065910         1.7935
  69   0.0000       0.111198         3.0258
  70   0.0000       0.123476         3.3599
  71   0.0000       0.129100         3.5130

MULLIKEN ATOMIC CHARGES
-----------------------
   0 S :    0.131526
   1 C :   -0.100576
   2 C :   -0.104034
   3 C :    0.025404
   4 C :   -0.153360
   5 H :    0.010716
   6 C :    0.064358
   7 H :    0.016386
   8 H :    0.032306
   9 C :   -0.061980
  10 H :    0.038002
  11 H :    0.029930
  12 C :   -0.058265
  13 H :    0.027579
  14 H :    0.022339
  15 H :    0.053931
  16 S :    0.089118
  17 C :   -0.083761
  18 C :   -0.077429
  19 C :   -0.047722
  20 C :   -0.166812
  21 H :    0.037953
  22 C :    0.051192
  23 H :    0.043276
  24 H :    0.040739
  25 C :   -0.080482
  26 H :    0.020383
  27 H :    0.012292
  28 C :    0.009448
  29 H :    0.020042
  30 H :    0.036765
  31 H :    0.015502
  32 H :    0.039667
  33 H :    0.065566
Sum of atomic charges:   -0.0000000

LOEWDIN ATOMIC CHARGES
----------------------
   0 S :    0.427999
   1 C :   -0.209244
   2 C :   -0.059741
   3 C :   -0.060105
   4 C :   -0.209312
   5 H :    0.030834
   6 C :   -0.034712
   7 H :    0.030516
   8 H :    0.032460
   9 C :   -0.038581
  10 H :    0.027944
  11 H :    0.026002
  12 C :   -0.067821
  13 H :    0.028626
  14 H :    0.022335
  15 H :    0.029222
  16 S :    0.389679
  17 C :   -0.192889
  18 C :   -0.079414
  19 C :   -0.064437
  20 C :   -0.178575
  21 H :    0.035064
  22 C :   -0.027516
  23 H :    0.034803
  24 H :    0.030681
  25 C :   -0.034545
  26 H :    0.021173
  27 H :    0.015677
  28 C :   -0.056924
  29 H :    0.025450
  30 H :    0.031216
  31 H :    0.020003
  32 H :    0.020675
  33 H :    0.033458

  Mayer bond orders larger than 0.100000
B(  0-S ,  1-C ) :   1.1491 B(  0-S ,  4-C ) :   1.1650 B(  1-C ,  2-C ) :   1.6072
B(  1-C , 32-H ) :   0.9615 B(  2-C ,  3-C ) :   1.2417 B(  2-C ,  6-C ) :   1.0080
B(  3-C ,  4-C ) :   1.5707 B(  3-C ,  5-H ) :   0.9929 B(  4-C , 20-C ) :   1.0104
B(  6-C ,  7-H ) :   0.9442 B(  6-C ,  8-H ) :   0.9447 B(  6-C ,  9-C ) :   1.0703
B(  9-C , 10-H ) :   0.9567 B(  9-C , 11-H ) :   0.9552 B(  9-C , 12-C ) :   1.0740
B( 12-C , 13-H ) :   0.9733 B( 12-C , 14-H ) :   0.9730 B( 12-C , 15-H ) :   0.9745
B( 16-S , 17-C ) :   1.1560 B( 16-S , 20-C ) :   1.1363 B( 17-C , 18-C ) :   1.6290
B( 17-C , 20-C ) :   0.1001 B( 17-C , 33-H ) :   0.9610 B( 18-C , 19-C ) :   1.2316
B( 18-C , 21-H ) :   0.9728 B( 19-C , 20-C ) :   1.6286 B( 19-C , 22-C ) :   1.0327
B( 22-C , 23-H ) :   0.9350 B( 22-C , 24-H ) :   0.9377 B( 22-C , 25-C ) :   1.0659
B( 25-C , 26-H ) :   0.9566 B( 25-C , 27-H ) :   0.9488 B( 25-C , 28-C ) :   1.1010
B( 28-C , 29-H ) :   0.9663 B( 28-C , 30-H ) :   0.9707 B( 28-C , 31-H ) :   0.9697

Dispersion correction           -0.014503146
FINAL SINGLE POINT ENERGY     -1339.875268355140

DIPOLE MOMENT
-------------
                                X             Y             Z
Electronic contribution:    -13.27889     -16.14956     -23.28114
Nuclear contribution   :     13.68620      16.66224      23.82215
                        -----------------------------------------
Total Dipole Moment    :      0.40732       0.51268       0.54101
                        -----------------------------------------
Magnitude (a.u.)       :      0.84938
Magnitude (Debye)      :      2.15895

Rotational constants in cm-1:     0.015705     0.010229     0.006769
Rotational constants in MHz :   470.819338   306.671775   202.934074

                             ****ORCA TERMINATED NORMALLY****
TOTAL RUN TIME: 0 days 0 hours 0 minutes 30 seconds 766 msec
