                         Program Version 4.2.1 -  RELEASE  -
|  1> ! wB97X-D3 SP def2-SVP
|  2> %pal
|  3> nprocs 16
|  4> end
|  5>
|  6> * xyz 0 1
|  7> S 	 40.249 	 14.6683 	 81.3513
|  8> C 	 39.0924 	 16.0798 	 81.4743
|  9> C 	 38.82 	 16.5111 	 80.1892
| 10> C 	 39.3936 	 15.6804 	 79.1531
| 11> C 	 39.9996 	 14.5183 	 79.6281
| 12> H 	 39.1161 	 15.743 	 78.0853
| 13> C 	 37.9052 	 17.6783 	 79.784
| 14> H 	 36.9009 	 17.2222 	 79.7101
| 15> H 	 38.1643 	 17.889 	 78.7364
| 16> C 	 38.0084 	 18.9347 	 80.6509
| 17> H 	 37.9278 	 18.6441 	 81.7649
| 18> H 	 39.0373 	 19.2798 	 80.5821
| 19> C 	 37.2318 	 20.1452 	 80.1925
| 20> H 	 37.4502 	 20.3766 	 79.1536
| 21> H 	 36.1803 	 20.019 	 80.4615
| 22> H 	 37.5568 	 21.0712 	 80.624
| 23> S 	 39.8725 	 11.7517 	 79.4968
| 24> C 	 40.5928 	 10.9881 	 78.1143
| 25> C 	 41.2351 	 11.9073 	 77.3286
| 26> C 	 41.0423 	 13.2622 	 77.6803
| 27> C 	 40.4054 	 13.3663 	 78.8728
| 28> H 	 41.8296 	 11.6116 	 76.5304
| 29> C 	 41.6141 	 14.4887 	 76.953
| 30> H 	 40.9693 	 15.3726 	 77.0671
| 31> H 	 41.5451 	 14.3105 	 75.8594
| 32> C 	 43.058 	 14.739 	 77.3581
| 33> H 	 43.44 	 15.3672 	 76.6032
| 34> H 	 43.6186 	 13.8647 	 77.3754
| 35> C 	 43.3539 	 15.5637 	 78.6407
| 36> H 	 42.6477 	 16.3359 	 78.8486
| 37> H 	 44.3126 	 15.9249 	 78.6736
| 38> H 	 43.4388 	 14.9751 	 79.5695
| 39> H 	 38.8121 	 16.6942 	 82.2924
| 40> H 	 40.5736 	 9.90338 	 77.9623
| 41> *
| 42>
| 43>                          ****END OF INPUT****

CARTESIAN COORDINATES (ANGSTROEM)
---------------------------------
  S     40.249000   14.668300   81.351300
  C     39.092400   16.079800   81.474300
  C     38.820000   16.511100   80.189200
  C     39.393600   15.680400   79.153100
  C     39.999600   14.518300   79.628100
  H     39.116100   15.743000   78.085300
  C     37.905200   17.678300   79.784000
  H     36.900900   17.222200   79.710100
  H     38.164300   17.889000   78.736400
  C     38.008400   18.934700   80.650900
  H     37.927800   18.644100   81.764900
  H     39.037300   19.279800   80.582100
  C     37.231800   20.145200   80.192500
  H     37.450200   20.376600   79.153600
  H     36.180300   20.019000   80.461500
  H     37.556800   21.071200   80.624000
  S     39.872500   11.751700   79.496800
  C     40.592800   10.988100   78.114300
  C     41.235100   11.907300   77.328600
  C     41.042300   13.262200   77.680300
  C     40.405400   13.366300   78.872800
  H     41.829600   11.611600   76.530400
  C     41.614100   14.488700   76.953000
  H     40.969300   15.372600   77.067100
  H     41.545100   14.310500   75.859400
  C     43.058000   14.739000   77.358100
  H     43.440000   15.367200   76.603200
  H     43.618600   13.864700   77.375400
  C     43.353900   15.563700   78.640700
  H     42.647700   16.335900   78.848600
  H     44.312600   15.924900   78.673600
  H     43.438800   14.975100   79.569500
  H     38.812100   16.694200   82.292400
  H     40.573600    9.903380   77.962300

 Total Charge           Charge          ....    0
 Multiplicity           Mult            ....    1
 Number of Electrons    NEL             ....  134
 Basis Dimension        Dim             ....  322

ORBITAL ENERGIES
----------------

  NO   OCC          E(Eh)            E(eV)
   0   2.0000     -88.964640     -2420.8509
   1   2.0000     -88.963332     -2420.8153
   2   2.0000     -10.330662      -281.1116
   3   2.0000     -10.324520      -280.9445
   4   2.0000     -10.318874      -280.7908
   5   2.0000     -10.313372      -280.6411
   6   2.0000     -10.303310      -280.3673
   7   2.0000     -10.300854      -280.3005
   8   2.0000     -10.297164      -280.2001
   9   2.0000     -10.296552      -280.1834
  10   2.0000     -10.294365      -280.1239
  11   2.0000     -10.293688      -280.1055
  12   2.0000     -10.288337      -279.9599
  13   2.0000     -10.278592      -279.6947
  14   2.0000     -10.277457      -279.6638
  15   2.0000     -10.263041      -279.2715
  16   2.0000      -8.077998      -219.8135
  17   2.0000      -8.077755      -219.8069
  18   2.0000      -6.036756      -164.2685
  19   2.0000      -6.036327      -164.2568
  20   2.0000      -6.032762      -164.1598
  21   2.0000      -6.032337      -164.1482
  22   2.0000      -6.028473      -164.0431
  23   2.0000      -6.028413      -164.0415
  24   2.0000      -1.004888       -27.3444
  25   2.0000      -0.978238       -26.6192
  26   2.0000      -0.911849       -24.8127
  27   2.0000      -0.909080       -24.7373
  28   2.0000      -0.870398       -23.6847
  29   2.0000      -0.851647       -23.1745
  30   2.0000      -0.841307       -22.8931
  31   2.0000      -0.810451       -22.0535
  32   2.0000      -0.789087       -21.4722
  33   2.0000      -0.776878       -21.1399
  34   2.0000      -0.713054       -19.4032
  35   2.0000      -0.706373       -19.2214
  36   2.0000      -0.694324       -18.8935
  37   2.0000      -0.664074       -18.0704
  38   2.0000      -0.631373       -17.1805
  39   2.0000      -0.612764       -16.6742
  40   2.0000      -0.600474       -16.3397
  41   2.0000      -0.569569       -15.4988
  42   2.0000      -0.564245       -15.3539
  43   2.0000      -0.551193       -14.9987
  44   2.0000      -0.544124       -14.8064
  45   2.0000      -0.525220       -14.2920
  46   2.0000      -0.518915       -14.1204
  47   2.0000      -0.510446       -13.8899
  48   2.0000      -0.504145       -13.7185
  49   2.0000      -0.500371       -13.6158
  50   2.0000      -0.493802       -13.4370
  51   2.0000      -0.478578       -13.0228
  52   2.0000      -0.473542       -12.8857
  53   2.0000      -0.465897       -12.6777
  54   2.0000      -0.460608       -12.5338
  55   2.0000      -0.449280       -12.2255
  56   2.0000      -0.446525       -12.1506
  57   2.0000      -0.435249       -11.8437
  58   2.0000      -0.428789       -11.6679
  59   2.0000      -0.425347       -11.5743
  60   2.0000      -0.415930       -11.3180
  61   2.0000      -0.411289       -11.1918
  62   2.0000      -0.403992       -10.9932
  63   2.0000      -0.348924        -9.4947
  64   2.0000      -0.333796        -9.0831
  65   2.0000      -0.325514        -8.8577
  66   2.0000      -0.288808        -7.8589
  67   0.0000       0.023869         0.6495
  68   0.0000       0.070481         1.9179
  69   0.0000       0.105771         2.8782
  70   0.0000       0.119023         3.2388
  71   0.0000       0.132799         3.6136

MULLIKEN ATOMIC CHARGES
-----------------------
   0 S :    0.097635
   1 C :   -0.105025
   2 C :   -0.111396
   3 C :    0.010883
   4 C :   -0.146197
   5 H :    0.033078
   6 C :    0.074309
   7 H :    0.050744
   8 H :    0.014773
   9 C :   -0.124531
  10 H :    0.041028
  11 H :    0.027520
  12 C :   -0.010128
  13 H :    0.025908
  14 H :    0.039897
  15 H :    0.021022
  16 S :    0.103496
  17 C :   -0.089822
  18 C :   -0.006758
  19 C :   -0.032413
  20 C :   -0.163997
  21 H :   -0.012802
  22 C :    0.075050
  23 H :    0.015093
  24 H :    0.023727
  25 C :   -0.017186
  26 H :    0.016627
  27 H :    0.012514
  28 C :   -0.012425
  29 H :    0.028599
  30 H :    0.005301
  31 H :    0.017132
  32 H :    0.031527
  33 H :    0.066815
Sum of atomic charges:    0.0000000

LOEWDIN ATOMIC CHARGES
----------------------
   0 S :    0.375892
   1 C :   -0.186289
   2 C :   -0.054148
   3 C :   -0.080643
   4 C :   -0.180382
   5 H :    0.031925
   6 C :   -0.034115
   7 H :    0.038272
   8 H :    0.028546
   9 C :   -0.053985
  10 H :    0.029738
  11 H :    0.027190
  12 C :   -0.064424
  13 H :    0.029239
  14 H :    0.027244
  15 H :    0.025708
  16 S :    0.385297
  17 C :   -0.181625
  18 C :   -0.066452
  19 C :   -0.050542
  20 C :   -0.180435
  21 H :    0.019357
  22 C :   -0.025842
  23 H :    0.030955
  24 H :    0.034253
  25 C :   -0.026876
  26 H :    0.021759
  27 H :    0.018327
  28 C :   -0.061474
  29 H :    0.023378
  30 H :    0.015371
  31 H :    0.027782
  32 H :    0.022046
  33 H :    0.034951

  Mayer bond orders larger than 0.100000
B(  0-S ,  1-C ) :   1.0892 B(  0-S ,  4-C ) :   1.1479 B(  1-C ,  2-C ) :   1.6447
B(  1-C , 32-H ) :   0.9734 B(  2-C ,  3-C ) :   1.2336 B(  2-C ,  6-C ) :   1.0061
B(  3-C ,  4-C ) :   1.5836 B(  3-C ,  5-H ) :   0.9714 B(  4-C , 20-C ) :   1.0623
B(  6-C ,  7-H ) :   0.9360 B(  6-C ,  8-H ) :   0.9412 B(  6-C ,  9-C ) :   1.0574
B(  9-C , 10-H ) :   0.9520 B(  9-C , 11-H ) :   0.9575 B(  9-C , 12-C ) :   1.0923
B( 12-C , 13-H ) :   0.9673 B( 12-C , 14-H ) :   0.9750 B( 12-C , 15-H ) :   0.9713
B( 16-S , 17-C ) :   1.1504 B( 16-S , 20-C ) :   1.1204 B( 17-C , 18-C ) :   1.6068
B( 17-C , 20-C ) :   0.1004 B( 17-C , 33-H ) :   0.9671 B( 18-C , 19-C ) :   1.2332
B( 18-C , 21-H ) :   0.9983 B( 19-C , 20-C ) :   1.6171 B( 19-C , 22-C ) :   1.0410
B( 22-C , 23-H ) :   0.9316 B( 22-C , 24-H ) :   0.9294 B( 22-C , 25-C ) :   1.0804
B( 25-C , 26-H ) :   0.9531 B( 25-C , 27-H ) :   0.9535 B( 25-C , 28-C ) :   1.0832
B( 28-C , 29-H ) :   0.9752 B( 28-C , 30-H ) :   0.9694 B( 28-C , 31-H ) :   0.9690

Dispersion correction           -0.014858276
FINAL SINGLE POINT ENERGY     -1339.861405942209

DIPOLE MOMENT
-------------
                                X             Y             Z
Electronic contribution:     -1.29173     -25.63768       7.46696
Nuclear contribution   :      1.38489      26.11578      -8.06307
                        -----------------------------------------
Total Dipole Moment    :      0.09316       0.47810      -0.59611
                        -----------------------------------------
Magnitude (a.u.)       :      0.76981
Magnitude (Debye)      :      1.95671

Rotational constants in cm-1:     0.022470     0.007717     0.006786
Rotational constants in MHz :   673.631851   231.341443   203.432200

                             ****ORCA TERMINATED NORMALLY****
TOTAL RUN TIME: 0 days 0 hours 0 minutes 30 seconds 660 msec
