                         Program Version 4.2.1 -  RELEASE  -
|  1> ! wB97X-D3 SP def2-SVP
|  2> %pal
|  3> nprocs 16
|  4> end
|  5>
|  6> * xyz 0 1
|  7> S 	 55.4646 	 23.6796 	 46.1652
|  8> C 	 56.7959 	 24.1387 	 45.1429
|  9> C 	 57.3083 	 23.0932 	 44.4598
| 10> C 	 56.3698 	 21.9725 	 44.4598
| 11> C 	 55.3192 	 22.1222 	 45.3287
| 12> H 	 56.3447 	 21.0151 	 44.1012
| 13> C 	 58.59 	 23.1788 	 43.689
| 14> H 	 58.8181 	 24.2388 	 43.4544
| 15> H 	 58.4769 	 22.5623 	 42.7728
| 16> C 	 59.9431 	 22.6467 	 44.3712
| 17> H 	 60.6769 	 22.4592 	 43.5604
| 18> H 	 60.3761 	 23.4743 	 44.9997
| 19> C 	 59.7431 	 21.3514 	 45.1978
| 20> H 	 59.3268 	 21.5956 	 46.1575
| 21> H 	 59.1234 	 20.673 	 44.6554
| 22> H 	 60.6621 	 20.7424 	 45.3458
| 23> S 	 54.3523 	 20.7613 	 47.4779
| 24> C 	 53.1647 	 19.4917 	 47.2268
| 25> C 	 52.6641 	 19.4302 	 45.9486
| 26> C 	 53.4013 	 20.3298 	 45.0706
| 27> C 	 54.2551 	 21.1874 	 45.7601
| 28> H 	 51.875 	 18.6954 	 45.7701
| 29> C 	 52.9021 	 20.561 	 43.6093
| 30> H 	 53.7667 	 20.824 	 43.0294
| 31> H 	 52.2541 	 21.4441 	 43.6564
| 32> C 	 52.2364 	 19.3847 	 42.896
| 33> H 	 51.1205 	 19.2986 	 43.2522
| 34> H 	 52.6519 	 18.4221 	 43.2219
| 35> C 	 52.1426 	 19.415 	 41.3395
| 36> H 	 51.6208 	 18.5178 	 40.9758
| 37> H 	 53.0922 	 19.4186 	 40.8414
| 38> H 	 51.6773 	 20.2872 	 40.9848
| 39> H 	 57.2451 	 25.0946 	 45.1017
| 40> H 	 52.8559 	 18.9141 	 48.0978
| 41> *
| 42>
| 43>                          ****END OF INPUT****

CARTESIAN COORDINATES (ANGSTROEM)
---------------------------------
  S     55.464600   23.679600   46.165200
  C     56.795900   24.138700   45.142900
  C     57.308300   23.093200   44.459800
  C     56.369800   21.972500   44.459800
  C     55.319200   22.122200   45.328700
  H     56.344700   21.015100   44.101200
  C     58.590000   23.178800   43.689000
  H     58.818100   24.238800   43.454400
  H     58.476900   22.562300   42.772800
  C     59.943100   22.646700   44.371200
  H     60.676900   22.459200   43.560400
  H     60.376100   23.474300   44.999700
  C     59.743100   21.351400   45.197800
  H     59.326800   21.595600   46.157500
  H     59.123400   20.673000   44.655400
  H     60.662100   20.742400   45.345800
  S     54.352300   20.761300   47.477900
  C     53.164700   19.491700   47.226800
  C     52.664100   19.430200   45.948600
  C     53.401300   20.329800   45.070600
  C     54.255100   21.187400   45.760100
  H     51.875000   18.695400   45.770100
  C     52.902100   20.561000   43.609300
  H     53.766700   20.824000   43.029400
  H     52.254100   21.444100   43.656400
  C     52.236400   19.384700   42.896000
  H     51.120500   19.298600   43.252200
  H     52.651900   18.422100   43.221900
  C     52.142600   19.415000   41.339500
  H     51.620800   18.517800   40.975800
  H     53.092200   19.418600   40.841400
  H     51.677300   20.287200   40.984800
  H     57.245100   25.094600   45.101700
  H     52.855900   18.914100   48.097800

 Total Charge           Charge          ....    0
 Multiplicity           Mult            ....    1
 Number of Electrons    NEL             ....  134
 Basis Dimension        Dim             ....  322

ORBITAL ENERGIES
----------------

  NO   OCC          E(Eh)            E(eV)
   0   2.0000     -88.964569     -2420.8490
   1   2.0000     -88.959973     -2420.7239
   2   2.0000     -10.331588      -281.1368
   3   2.0000     -10.330630      -281.1107
   4   2.0000     -10.319542      -280.8090
   5   2.0000     -10.314245      -280.6649
   6   2.0000     -10.307310      -280.4762
   7   2.0000     -10.302670      -280.3499
   8   2.0000     -10.300141      -280.2811
   9   2.0000     -10.298444      -280.2349
  10   2.0000     -10.298196      -280.2282
  11   2.0000     -10.296050      -280.1698
  12   2.0000     -10.294669      -280.1322
  13   2.0000     -10.290760      -280.0258
  14   2.0000     -10.277390      -279.6620
  15   2.0000     -10.273825      -279.5650
  16   2.0000      -8.079316      -219.8494
  17   2.0000      -8.075042      -219.7331
  18   2.0000      -6.037808      -164.2971
  19   2.0000      -6.033870      -164.1899
  20   2.0000      -6.033625      -164.1833
  21   2.0000      -6.030031      -164.0855
  22   2.0000      -6.029625      -164.0744
  23   2.0000      -6.025580      -163.9644
  24   2.0000      -1.004560       -27.3355
  25   2.0000      -0.982546       -26.7364
  26   2.0000      -0.903583       -24.5878
  27   2.0000      -0.901608       -24.5340
  28   2.0000      -0.868616       -23.6362
  29   2.0000      -0.848445       -23.0874
  30   2.0000      -0.840507       -22.8714
  31   2.0000      -0.821130       -22.3441
  32   2.0000      -0.784365       -21.3436
  33   2.0000      -0.772599       -21.0235
  34   2.0000      -0.705427       -19.1957
  35   2.0000      -0.696656       -18.9570
  36   2.0000      -0.694739       -18.9048
  37   2.0000      -0.656497       -17.8642
  38   2.0000      -0.647475       -17.6187
  39   2.0000      -0.609344       -16.5811
  40   2.0000      -0.593126       -16.1398
  41   2.0000      -0.569625       -15.5003
  42   2.0000      -0.561760       -15.2863
  43   2.0000      -0.550121       -14.9695
  44   2.0000      -0.533961       -14.5298
  45   2.0000      -0.527827       -14.3629
  46   2.0000      -0.517890       -14.0925
  47   2.0000      -0.512134       -13.9359
  48   2.0000      -0.502626       -13.6771
  49   2.0000      -0.493939       -13.4408
  50   2.0000      -0.486689       -13.2435
  51   2.0000      -0.479384       -13.0447
  52   2.0000      -0.473755       -12.8915
  53   2.0000      -0.466812       -12.7026
  54   2.0000      -0.459903       -12.5146
  55   2.0000      -0.453045       -12.3280
  56   2.0000      -0.439669       -11.9640
  57   2.0000      -0.432604       -11.7717
  58   2.0000      -0.430607       -11.7174
  59   2.0000      -0.422899       -11.5077
  60   2.0000      -0.418752       -11.3948
  61   2.0000      -0.415670       -11.3109
  62   2.0000      -0.412055       -11.2126
  63   2.0000      -0.350267        -9.5312
  64   2.0000      -0.331513        -9.0209
  65   2.0000      -0.325179        -8.8486
  66   2.0000      -0.293843        -7.9959
  67   0.0000       0.034787         0.9466
  68   0.0000       0.060780         1.6539
  69   0.0000       0.111208         3.0261
  70   0.0000       0.116820         3.1788
  71   0.0000       0.125847         3.4245

MULLIKEN ATOMIC CHARGES
-----------------------
   0 S :    0.088878
   1 C :   -0.093025
   2 C :   -0.069752
   3 C :    0.084495
   4 C :   -0.179691
   5 H :   -0.025663
   6 C :    0.040563
   7 H :    0.031266
   8 H :    0.033939
   9 C :   -0.102873
  10 H :    0.036801
  11 H :    0.036864
  12 C :   -0.040882
  13 H :    0.047223
  14 H :    0.017295
  15 H :    0.034831
  16 S :    0.093465
  17 C :   -0.104346
  18 C :   -0.025364
  19 C :   -0.067317
  20 C :   -0.124246
  21 H :    0.035651
  22 C :    0.091094
  23 H :    0.014460
  24 H :    0.055793
  25 C :   -0.142229
  26 H :    0.035760
  27 H :    0.033533
  28 C :   -0.014842
  29 H :    0.037806
  30 H :    0.022826
  31 H :    0.023295
  32 H :    0.031479
  33 H :    0.062918
Sum of atomic charges:   -0.0000000

LOEWDIN ATOMIC CHARGES
----------------------
   0 S :    0.381632
   1 C :   -0.183587
   2 C :   -0.064948
   3 C :   -0.056275
   4 C :   -0.178443
   5 H :    0.017942
   6 C :   -0.035434
   7 H :    0.034749
   8 H :    0.032979
   9 C :   -0.040704
  10 H :    0.025662
  11 H :    0.024642
  12 C :   -0.068723
  13 H :    0.027650
  14 H :    0.019191
  15 H :    0.030613
  16 S :    0.391675
  17 C :   -0.173827
  18 C :   -0.075602
  19 C :   -0.052033
  20 C :   -0.196333
  21 H :    0.039669
  22 C :   -0.031035
  23 H :    0.025992
  24 H :    0.041163
  25 C :   -0.051887
  26 H :    0.030698
  27 H :    0.022923
  28 C :   -0.060471
  29 H :    0.032856
  30 H :    0.020898
  31 H :    0.018829
  32 H :    0.022162
  33 H :    0.027379

  Mayer bond orders larger than 0.100000
B(  0-S ,  1-C ) :   1.1264 B(  0-S ,  4-C ) :   1.1246 B(  1-C ,  2-C ) :   1.6535
B(  1-C , 32-H ) :   0.9716 B(  2-C ,  3-C ) :   1.1526 B(  2-C ,  6-C ) :   1.0416
B(  3-C ,  4-C ) :   1.6457 B(  3-C ,  5-H ) :   1.0018 B(  4-C , 20-C ) :   0.9978
B(  6-C ,  7-H ) :   0.9458 B(  6-C ,  8-H ) :   0.9392 B(  6-C ,  9-C ) :   1.0548
B(  9-C , 10-H ) :   0.9608 B(  9-C , 11-H ) :   0.9612 B(  9-C , 12-C ) :   1.0783
B( 12-C , 13-H ) :   0.9717 B( 12-C , 14-H ) :   0.9761 B( 12-C , 15-H ) :   0.9742
B( 16-S , 17-C ) :   1.1586 B( 16-S , 20-C ) :   1.1331 B( 17-C , 18-C ) :   1.6315
B( 17-C , 33-H ) :   0.9635 B( 18-C , 19-C ) :   1.1912 B( 18-C , 21-H ) :   0.9889
B( 19-C , 20-C ) :   1.6414 B( 19-C , 22-C ) :   1.0309 B( 22-C , 23-H ) :   0.9377
B( 22-C , 24-H ) :   0.9387 B( 22-C , 25-C ) :   1.0598 B( 25-C , 26-H ) :   0.9479
B( 25-C , 27-H ) :   0.9622 B( 25-C , 28-C ) :   1.0837 B( 28-C , 29-H ) :   0.9740
B( 28-C , 30-H ) :   0.9731 B( 28-C , 31-H ) :   0.9754

Dispersion correction           -0.013862965
FINAL SINGLE POINT ENERGY     -1339.865362342794

DIPOLE MOMENT
-------------
                                X             Y             Z
Electronic contribution:     -6.82487       8.73155      20.47730
Nuclear contribution   :      6.91075      -9.08437     -20.94255
                        -----------------------------------------
Total Dipole Moment    :      0.08588      -0.35282      -0.46525
                        -----------------------------------------
Magnitude (a.u.)       :      0.59019
Magnitude (Debye)      :      1.50013

Rotational constants in cm-1:     0.017840     0.007980     0.006700
Rotational constants in MHz :   534.833443   239.222472   200.853792

                             ****ORCA TERMINATED NORMALLY****
TOTAL RUN TIME: 0 days 0 hours 0 minutes 28 seconds 419 msec
