                         Program Version 4.2.1 -  RELEASE  -
|  1> ! wB97X-D3 SP def2-SVP
|  2> %pal
|  3> nprocs 16
|  4> end
|  5>
|  6> * xyz 0 1
|  7> S 	 34.8712 	 10.3907 	 87.1527
|  8> C 	 34.5125 	 11.147 	 85.609
|  9> C 	 34.7995 	 10.2606 	 84.5802
| 10> C 	 35.065 	 8.90153 	 85.0929
| 11> C 	 35.1367 	 8.88873 	 86.4622
| 12> H 	 35.32 	 8.04107 	 84.5229
| 13> C 	 34.6886 	 10.4989 	 83.1161
| 14> H 	 34.2908 	 11.5166 	 82.9566
| 15> H 	 33.9487 	 9.79803 	 82.7006
| 16> C 	 35.8701 	 10.3269 	 82.154
| 17> H 	 36.5809 	 11.1287 	 82.4143
| 18> H 	 36.2193 	 9.30212 	 82.3562
| 19> C 	 35.6205 	 10.5637 	 80.729
| 20> H 	 36.4136 	 10.4329 	 79.978
| 21> H 	 34.8198 	 9.83578 	 80.3799
| 22> H 	 35.2126 	 11.5904 	 80.581
| 23> S 	 34.3279 	 7.29048 	 88.6379
| 24> C 	 34.993 	 5.69166 	 88.8525
| 25> C 	 36.1001 	 5.54394 	 87.9652
| 26> C 	 36.3723 	 6.7138 	 87.1584
| 27> C 	 35.4228 	 7.69477 	 87.2903
| 28> H 	 36.6613 	 4.64482 	 87.9837
| 29> C 	 37.5702 	 6.69628 	 86.2562
| 30> H 	 37.2093 	 6.86362 	 85.2388
| 31> H 	 38.0174 	 5.76744 	 86.1958
| 32> C 	 38.7396 	 7.66617 	 86.5879
| 33> H 	 39.0592 	 7.54067 	 87.6785
| 34> H 	 38.4945 	 8.72164 	 86.489
| 35> C 	 39.902 	 7.54399 	 85.6445
| 36> H 	 40.0878 	 6.49007 	 85.4891
| 37> H 	 40.8138 	 8.04159 	 85.9526
| 38> H 	 39.5657 	 7.9184 	 84.6686
| 39> H 	 34.1814 	 12.114 	 85.5642
| 40> H 	 34.8011 	 4.89195 	 89.6166
| 41> *
| 42>
| 43>                          ****END OF INPUT****

CARTESIAN COORDINATES (ANGSTROEM)
---------------------------------
  S     34.871200   10.390700   87.152700
  C     34.512500   11.147000   85.609000
  C     34.799500   10.260600   84.580200
  C     35.065000    8.901530   85.092900
  C     35.136700    8.888730   86.462200
  H     35.320000    8.041070   84.522900
  C     34.688600   10.498900   83.116100
  H     34.290800   11.516600   82.956600
  H     33.948700    9.798030   82.700600
  C     35.870100   10.326900   82.154000
  H     36.580900   11.128700   82.414300
  H     36.219300    9.302120   82.356200
  C     35.620500   10.563700   80.729000
  H     36.413600   10.432900   79.978000
  H     34.819800    9.835780   80.379900
  H     35.212600   11.590400   80.581000
  S     34.327900    7.290480   88.637900
  C     34.993000    5.691660   88.852500
  C     36.100100    5.543940   87.965200
  C     36.372300    6.713800   87.158400
  C     35.422800    7.694770   87.290300
  H     36.661300    4.644820   87.983700
  C     37.570200    6.696280   86.256200
  H     37.209300    6.863620   85.238800
  H     38.017400    5.767440   86.195800
  C     38.739600    7.666170   86.587900
  H     39.059200    7.540670   87.678500
  H     38.494500    8.721640   86.489000
  C     39.902000    7.543990   85.644500
  H     40.087800    6.490070   85.489100
  H     40.813800    8.041590   85.952600
  H     39.565700    7.918400   84.668600
  H     34.181400   12.114000   85.564200
  H     34.801100    4.891950   89.616600

 Total Charge           Charge          ....    0
 Multiplicity           Mult            ....    1
 Number of Electrons    NEL             ....  134
 Basis Dimension        Dim             ....  322

ORBITAL ENERGIES
----------------

  NO   OCC          E(Eh)            E(eV)
   0   2.0000     -88.967717     -2420.9347
   1   2.0000     -88.965178     -2420.8656
   2   2.0000     -10.329831      -281.0890
   3   2.0000     -10.327694      -281.0308
   4   2.0000     -10.326264      -280.9919
   5   2.0000     -10.312286      -280.6116
   6   2.0000     -10.309673      -280.5405
   7   2.0000     -10.304928      -280.4113
   8   2.0000     -10.295710      -280.1605
   9   2.0000     -10.293818      -280.1090
  10   2.0000     -10.292652      -280.0773
  11   2.0000     -10.288167      -279.9553
  12   2.0000     -10.287752      -279.9440
  13   2.0000     -10.285772      -279.8901
  14   2.0000     -10.285590      -279.8851
  15   2.0000     -10.273630      -279.5597
  16   2.0000      -8.081669      -219.9134
  17   2.0000      -8.081480      -219.9083
  18   2.0000      -6.040325      -164.3656
  19   2.0000      -6.039913      -164.3544
  20   2.0000      -6.036133      -164.2515
  21   2.0000      -6.035724      -164.2404
  22   2.0000      -6.032451      -164.1513
  23   2.0000      -6.032278      -164.1466
  24   2.0000      -1.010403       -27.4945
  25   2.0000      -0.983300       -26.7570
  26   2.0000      -0.920675       -25.0528
  27   2.0000      -0.910651       -24.7801
  28   2.0000      -0.872033       -23.7292
  29   2.0000      -0.857225       -23.3263
  30   2.0000      -0.848464       -23.0879
  31   2.0000      -0.814597       -22.1663
  32   2.0000      -0.783624       -21.3235
  33   2.0000      -0.775992       -21.1158
  34   2.0000      -0.703377       -19.1399
  35   2.0000      -0.696185       -18.9442
  36   2.0000      -0.689300       -18.7568
  37   2.0000      -0.663000       -18.0411
  38   2.0000      -0.649991       -17.6872
  39   2.0000      -0.622411       -16.9367
  40   2.0000      -0.595351       -16.2003
  41   2.0000      -0.581285       -15.8176
  42   2.0000      -0.570462       -15.5231
  43   2.0000      -0.563088       -15.3224
  44   2.0000      -0.528893       -14.3919
  45   2.0000      -0.525996       -14.3131
  46   2.0000      -0.520744       -14.1702
  47   2.0000      -0.516136       -14.0448
  48   2.0000      -0.510134       -13.8815
  49   2.0000      -0.503664       -13.7054
  50   2.0000      -0.498532       -13.5657
  51   2.0000      -0.487089       -13.2544
  52   2.0000      -0.477501       -12.9935
  53   2.0000      -0.465054       -12.6548
  54   2.0000      -0.456592       -12.4245
  55   2.0000      -0.454961       -12.3801
  56   2.0000      -0.439767       -11.9667
  57   2.0000      -0.432570       -11.7708
  58   2.0000      -0.430877       -11.7248
  59   2.0000      -0.423476       -11.5234
  60   2.0000      -0.418220       -11.3803
  61   2.0000      -0.411678       -11.2023
  62   2.0000      -0.408542       -11.1170
  63   2.0000      -0.344211        -9.3665
  64   2.0000      -0.329077        -8.9546
  65   2.0000      -0.327008        -8.8983
  66   2.0000      -0.298158        -8.1133
  67   0.0000       0.029858         0.8125
  68   0.0000       0.071644         1.9495
  69   0.0000       0.107004         2.9117
  70   0.0000       0.117601         3.2001
  71   0.0000       0.127165         3.4603

MULLIKEN ATOMIC CHARGES
-----------------------
   0 S :    0.112720
   1 C :   -0.099944
   2 C :   -0.042374
   3 C :    0.019819
   4 C :   -0.128796
   5 H :    0.004803
   6 C :    0.027229
   7 H :    0.009818
   8 H :    0.029559
   9 C :   -0.052753
  10 H :    0.030790
  11 H :    0.027016
  12 C :   -0.068134
  13 H :    0.046850
  14 H :    0.022847
  15 H :    0.031529
  16 S :    0.111817
  17 C :   -0.106040
  18 C :   -0.052944
  19 C :   -0.022212
  20 C :   -0.146911
  21 H :    0.009527
  22 C :    0.116075
  23 H :    0.009655
  24 H :   -0.014020
  25 C :   -0.095872
  26 H :    0.037808
  27 H :    0.033739
  28 C :   -0.027210
  29 H :    0.011408
  30 H :    0.042570
  31 H :    0.024127
  32 H :    0.016888
  33 H :    0.080615
Sum of atomic charges:    0.0000000

LOEWDIN ATOMIC CHARGES
----------------------
   0 S :    0.433663
   1 C :   -0.180988
   2 C :   -0.049893
   3 C :   -0.062595
   4 C :   -0.209892
   5 H :    0.024465
   6 C :   -0.040254
   7 H :    0.027270
   8 H :    0.033807
   9 C :   -0.047513
  10 H :    0.028062
  11 H :    0.023154
  12 C :   -0.073598
  13 H :    0.031795
  14 H :    0.026144
  15 H :    0.028878
  16 S :    0.401794
  17 C :   -0.201187
  18 C :   -0.069901
  19 C :   -0.053745
  20 C :   -0.191498
  21 H :    0.022863
  22 C :   -0.025677
  23 H :    0.029941
  24 H :    0.018348
  25 C :   -0.043409
  26 H :    0.029209
  27 H :    0.024291
  28 C :   -0.062927
  29 H :    0.017184
  30 H :    0.028587
  31 H :    0.026254
  32 H :    0.009794
  33 H :    0.047573

  Mayer bond orders larger than 0.100000
B(  0-S ,  1-C ) :   1.1299 B(  0-S ,  4-C ) :   1.1794 B(  1-C ,  2-C ) :   1.5977
B(  1-C , 32-H ) :   0.9890 B(  2-C ,  3-C ) :   1.2053 B(  2-C ,  6-C ) :   1.0491
B(  3-C ,  4-C ) :   1.5855 B(  3-C ,  5-H ) :   0.9972 B(  4-C , 20-C ) :   1.0071
B(  6-C ,  7-H ) :   0.9383 B(  6-C ,  8-H ) :   0.9352 B(  6-C ,  9-C ) :   1.0613
B(  9-C , 10-H ) :   0.9504 B(  9-C , 11-H ) :   0.9511 B(  9-C , 12-C ) :   1.0953
B( 12-C , 13-H ) :   0.9725 B( 12-C , 14-H ) :   0.9685 B( 12-C , 15-H ) :   0.9695
B( 16-S , 17-C ) :   1.1615 B( 16-S , 20-C ) :   1.1279 B( 17-C , 18-C ) :   1.5932
B( 17-C , 20-C ) :   0.1025 B( 17-C , 33-H ) :   0.9606 B( 18-C , 19-C ) :   1.2499
B( 18-C , 21-H ) :   0.9921 B( 19-C , 20-C ) :   1.5925 B( 19-C , 22-C ) :   1.0525
B( 22-C , 23-H ) :   0.9241 B( 22-C , 24-H ) :   0.9256 B( 22-C , 25-C ) :   1.0560
B( 25-C , 26-H ) :   0.9556 B( 25-C , 27-H ) :   0.9568 B( 25-C , 28-C ) :   1.0836
B( 28-C , 29-H ) :   0.9735 B( 28-C , 30-H ) :   0.9728 B( 28-C , 31-H ) :   0.9729

Dispersion correction           -0.013791636
FINAL SINGLE POINT ENERGY     -1339.869620771289

DIPOLE MOMENT
-------------
                                X             Y             Z
Electronic contribution:    -17.00810      -0.80015      26.18189
Nuclear contribution   :     17.39834       0.63579     -26.73389
                        -----------------------------------------
Total Dipole Moment    :      0.39024      -0.16436      -0.55200
                        -----------------------------------------
Magnitude (a.u.)       :      0.69570
Magnitude (Debye)      :      1.76834

Rotational constants in cm-1:     0.017619     0.008654     0.006753
Rotational constants in MHz :   528.210549   259.434090   202.445744

                             ****ORCA TERMINATED NORMALLY****
TOTAL RUN TIME: 0 days 0 hours 0 minutes 28 seconds 44 msec
