                         Program Version 4.2.1 -  RELEASE  -
|  1> ! wB97X-D3 SP def2-SVP
|  2> %pal
|  3> nprocs 16
|  4> end
|  5>
|  6> * xyz 0 1
|  7> S 	 -35.0173 	 59.9818 	 100.644
|  8> C 	 -36.3688 	 58.8278 	 100.645
|  9> C 	 -36.0356 	 57.73 	 101.469
| 10> C 	 -34.8111 	 57.905 	 102.139
| 11> C 	 -34.0605 	 59.026 	 101.731
| 12> H 	 -34.4134 	 57.2189 	 102.885
| 13> C 	 -36.9265 	 56.4958 	 101.726
| 14> H 	 -37.9636 	 56.8411 	 101.809
| 15> H 	 -36.7774 	 56.2333 	 102.728
| 16> C 	 -36.654 	 55.3051 	 100.848
| 17> H 	 -35.6598 	 54.8934 	 100.932
| 18> H 	 -37.2941 	 54.559 	 101.239
| 19> C 	 -36.9781 	 55.71 	 99.3613
| 20> H 	 -36.2151 	 56.3812 	 98.9499
| 21> H 	 -36.9933 	 54.7523 	 98.7655
| 22> H 	 -37.9739 	 56.1438 	 99.232
| 23> S 	 -32.0393 	 59.7911 	 103.505
| 24> C 	 -30.3864 	 59.6536 	 103.085
| 25> C 	 -30.2384 	 59.5138 	 101.795
| 26> C 	 -31.5242 	 59.2928 	 101.109
| 27> C 	 -32.6008 	 59.3098 	 101.928
| 28> H 	 -29.2493 	 59.4587 	 101.375
| 29> C 	 -31.5159 	 58.9879 	 99.659
| 30> H 	 -30.7874 	 59.668 	 99.2337
| 31> H 	 -32.4991 	 59.2804 	 99.2322
| 32> C 	 -31.408 	 57.5045 	 99.2997
| 33> H 	 -32.3008 	 57.0646 	 99.7283
| 34> H 	 -30.5885 	 56.9666 	 99.7359
| 35> C 	 -31.5202 	 57.2251 	 97.8553
| 36> H 	 -30.987 	 57.9113 	 97.1889
| 37> H 	 -32.5659 	 57.368 	 97.5542
| 38> H 	 -31.1928 	 56.2567 	 97.5726
| 39> H 	 -37.3951 	 58.9635 	 100.255
| 40> H 	 -29.6157 	 59.7361 	 103.741
| 41> *
| 42>
| 43>                          ****END OF INPUT****

CARTESIAN COORDINATES (ANGSTROEM)
---------------------------------
  S    -35.017300   59.981800  100.644000
  C    -36.368800   58.827800  100.645000
  C    -36.035600   57.730000  101.469000
  C    -34.811100   57.905000  102.139000
  C    -34.060500   59.026000  101.731000
  H    -34.413400   57.218900  102.885000
  C    -36.926500   56.495800  101.726000
  H    -37.963600   56.841100  101.809000
  H    -36.777400   56.233300  102.728000
  C    -36.654000   55.305100  100.848000
  H    -35.659800   54.893400  100.932000
  H    -37.294100   54.559000  101.239000
  C    -36.978100   55.710000   99.361300
  H    -36.215100   56.381200   98.949900
  H    -36.993300   54.752300   98.765500
  H    -37.973900   56.143800   99.232000
  S    -32.039300   59.791100  103.505000
  C    -30.386400   59.653600  103.085000
  C    -30.238400   59.513800  101.795000
  C    -31.524200   59.292800  101.109000
  C    -32.600800   59.309800  101.928000
  H    -29.249300   59.458700  101.375000
  C    -31.515900   58.987900   99.659000
  H    -30.787400   59.668000   99.233700
  H    -32.499100   59.280400   99.232200
  C    -31.408000   57.504500   99.299700
  H    -32.300800   57.064600   99.728300
  H    -30.588500   56.966600   99.735900
  C    -31.520200   57.225100   97.855300
  H    -30.987000   57.911300   97.188900
  H    -32.565900   57.368000   97.554200
  H    -31.192800   56.256700   97.572600
  H    -37.395100   58.963500  100.255000
  H    -29.615700   59.736100  103.741000

 Total Charge           Charge          ....    0
 Multiplicity           Mult            ....    1
 Number of Electrons    NEL             ....  134
 Basis Dimension        Dim             ....  322

ORBITAL ENERGIES
----------------

  NO   OCC          E(Eh)            E(eV)
   0   2.0000     -88.971596     -2421.0402
   1   2.0000     -88.953751     -2420.5546
   2   2.0000     -10.336970      -281.2833
   3   2.0000     -10.325475      -280.9705
   4   2.0000     -10.322867      -280.8995
   5   2.0000     -10.304085      -280.3884
   6   2.0000     -10.300098      -280.2799
   7   2.0000     -10.298237      -280.2293
   8   2.0000     -10.298222      -280.2289
   9   2.0000     -10.288272      -279.9581
  10   2.0000     -10.286315      -279.9049
  11   2.0000     -10.285141      -279.8729
  12   2.0000     -10.283637      -279.8320
  13   2.0000     -10.282493      -279.8009
  14   2.0000     -10.275035      -279.5979
  15   2.0000     -10.267258      -279.3863
  16   2.0000      -8.085263      -220.0112
  17   2.0000      -8.070195      -219.6012
  18   2.0000      -6.043744      -164.4586
  19   2.0000      -6.039593      -164.3457
  20   2.0000      -6.036431      -164.2596
  21   2.0000      -6.028812      -164.0523
  22   2.0000      -6.024488      -163.9347
  23   2.0000      -6.020704      -163.8317
  24   2.0000      -1.010536       -27.4981
  25   2.0000      -0.987896       -26.8820
  26   2.0000      -0.915721       -24.9180
  27   2.0000      -0.913166       -24.8485
  28   2.0000      -0.870445       -23.6860
  29   2.0000      -0.851264       -23.1641
  30   2.0000      -0.844716       -22.9859
  31   2.0000      -0.815973       -22.2038
  32   2.0000      -0.783885       -21.3306
  33   2.0000      -0.772072       -21.0092
  34   2.0000      -0.710515       -19.3341
  35   2.0000      -0.701530       -19.0896
  36   2.0000      -0.692655       -18.8481
  37   2.0000      -0.665383       -18.1060
  38   2.0000      -0.636920       -17.3315
  39   2.0000      -0.620480       -16.8841
  40   2.0000      -0.600662       -16.3448
  41   2.0000      -0.577465       -15.7136
  42   2.0000      -0.563690       -15.3388
  43   2.0000      -0.549714       -14.9585
  44   2.0000      -0.543274       -14.7832
  45   2.0000      -0.526467       -14.3259
  46   2.0000      -0.522328       -14.2133
  47   2.0000      -0.515257       -14.0209
  48   2.0000      -0.512117       -13.9354
  49   2.0000      -0.501440       -13.6449
  50   2.0000      -0.485645       -13.2151
  51   2.0000      -0.478642       -13.0245
  52   2.0000      -0.469971       -12.7886
  53   2.0000      -0.463553       -12.6139
  54   2.0000      -0.456492       -12.4218
  55   2.0000      -0.451059       -12.2739
  56   2.0000      -0.448502       -12.2044
  57   2.0000      -0.441641       -12.0176
  58   2.0000      -0.432370       -11.7654
  59   2.0000      -0.417887       -11.3713
  60   2.0000      -0.414209       -11.2712
  61   2.0000      -0.410338       -11.1659
  62   2.0000      -0.408587       -11.1182
  63   2.0000      -0.341474        -9.2920
  64   2.0000      -0.334934        -9.1140
  65   2.0000      -0.322850        -8.7852
  66   2.0000      -0.303747        -8.2654
  67   0.0000       0.034102         0.9280
  68   0.0000       0.072321         1.9680
  69   0.0000       0.114205         3.1077
  70   0.0000       0.121501         3.3062
  71   0.0000       0.128376         3.4933

MULLIKEN ATOMIC CHARGES
-----------------------
   0 S :    0.122932
   1 C :   -0.129310
   2 C :   -0.130508
   3 C :    0.057851
   4 C :   -0.165727
   5 H :    0.017171
   6 C :    0.068143
   7 H :    0.025621
   8 H :   -0.001018
   9 C :   -0.013430
  10 H :    0.030515
  11 H :    0.021307
  12 C :   -0.086249
  13 H :    0.057792
  14 H :    0.036933
  15 H :    0.029759
  16 S :    0.083830
  17 C :   -0.030117
  18 C :   -0.018799
  19 C :   -0.064254
  20 C :   -0.143700
  21 H :    0.013229
  22 C :    0.066780
  23 H :    0.022444
  24 H :    0.006833
  25 C :   -0.039016
  26 H :    0.022114
  27 H :    0.017919
  28 C :   -0.016586
  29 H :    0.016185
  30 H :    0.024049
  31 H :    0.022154
  32 H :    0.063310
  33 H :    0.011842
Sum of atomic charges:    0.0000000

LOEWDIN ATOMIC CHARGES
----------------------
   0 S :    0.422239
   1 C :   -0.203659
   2 C :   -0.062842
   3 C :   -0.058730
   4 C :   -0.203495
   5 H :    0.033733
   6 C :   -0.031545
   7 H :    0.032838
   8 H :    0.021383
   9 C :   -0.031047
  10 H :    0.026483
  11 H :    0.021750
  12 C :   -0.069040
  13 H :    0.029075
  14 H :    0.029529
  15 H :    0.022594
  16 S :    0.402860
  17 C :   -0.168337
  18 C :   -0.071160
  19 C :   -0.055806
  20 C :   -0.203510
  21 H :    0.032094
  22 C :   -0.034921
  23 H :    0.028050
  24 H :    0.025749
  25 C :   -0.039491
  26 H :    0.029842
  27 H :    0.017707
  28 C :   -0.063280
  29 H :    0.022159
  30 H :    0.027348
  31 H :    0.021418
  32 H :    0.037891
  33 H :    0.012121

  Mayer bond orders larger than 0.100000
B(  0-S ,  1-C ) :   1.1518 B(  0-S ,  4-C ) :   1.1810 B(  1-C ,  2-C ) :   1.5626
B(  1-C ,  4-C ) :   0.1143 B(  1-C , 32-H ) :   0.9661 B(  2-C ,  3-C ) :   1.3016
B(  2-C ,  6-C ) :   1.0072 B(  3-C ,  4-C ) :   1.5329 B(  3-C ,  5-H ) :   0.9900
B(  4-C , 20-C ) :   0.9837 B(  6-C ,  7-H ) :   0.9444 B(  6-C ,  8-H ) :   0.9343
B(  6-C ,  9-C ) :   1.0777 B(  9-C , 10-H ) :   0.9539 B(  9-C , 11-H ) :   0.9527
B(  9-C , 12-C ) :   1.0690 B( 12-C , 13-H ) :   0.9740 B( 12-C , 14-H ) :   0.9756
B( 12-C , 15-H ) :   0.9772 B( 16-S , 17-C ) :   1.1452 B( 16-S , 20-C ) :   1.1196
B( 17-C , 18-C ) :   1.6538 B( 17-C , 33-H ) :   0.9762 B( 18-C , 19-C ) :   1.1860
B( 18-C , 21-H ) :   0.9984 B( 19-C , 20-C ) :   1.6633 B( 19-C , 22-C ) :   1.0643
B( 22-C , 23-H ) :   0.9274 B( 22-C , 24-H ) :   0.9260 B( 22-C , 25-C ) :   1.0614
B( 25-C , 26-H ) :   0.9510 B( 25-C , 27-H ) :   0.9590 B( 25-C , 28-C ) :   1.0913
B( 28-C , 29-H ) :   0.9717 B( 28-C , 30-H ) :   0.9729 B( 28-C , 31-H ) :   0.9717

Dispersion correction           -0.015004358
FINAL SINGLE POINT ENERGY     -1339.868508361481

DIPOLE MOMENT
-------------
                                X             Y             Z
Electronic contribution:      4.71480      20.47906      17.23281
Nuclear contribution   :     -4.74307     -21.08142     -17.39305
                        -----------------------------------------
Total Dipole Moment    :     -0.02827      -0.60237      -0.16025
                        -----------------------------------------
Magnitude (a.u.)       :      0.62396
Magnitude (Debye)      :      1.58598

Rotational constants in cm-1:     0.018910     0.009065     0.007439
Rotational constants in MHz :   566.907644   271.753731   223.018134

                             ****ORCA TERMINATED NORMALLY****
TOTAL RUN TIME: 0 days 0 hours 0 minutes 31 seconds 109 msec
