                         Program Version 4.2.1 -  RELEASE  -
|  1> ! wB97X-D3 SP def2-SVP
|  2> %pal
|  3> nprocs 16
|  4> end
|  5>
|  6> * xyz 0 1
|  7> S 	 8.58938 	 3.78518 	 86.361
|  8> C 	 9.37851 	 4.11732 	 87.8999
|  9> C 	 10.749 	 3.9308 	 87.8531
| 10> C 	 11.1091 	 3.76586 	 86.4418
| 11> C 	 10.104 	 3.61196 	 85.5689
| 12> H 	 12.0986 	 3.84673 	 86.0396
| 13> C 	 11.842 	 4.29773 	 88.8825
| 14> H 	 11.4615 	 3.95728 	 89.7911
| 15> H 	 11.9742 	 5.32506 	 88.8388
| 16> C 	 13.146 	 3.38186 	 88.7312
| 17> H 	 13.686 	 3.52665 	 87.7648
| 18> H 	 13.8678 	 3.68094 	 89.4576
| 19> C 	 12.8835 	 1.82858 	 88.843
| 20> H 	 12.4997 	 1.45245 	 89.8345
| 21> H 	 12.3755 	 1.38879 	 87.968
| 22> H 	 13.8058 	 1.25842 	 88.7159
| 23> S 	 9.25628 	 4.56658 	 83.2843
| 24> C 	 9.91011 	 4.11205 	 81.7392
| 25> C 	 10.8923 	 3.20765 	 81.8919
| 26> C 	 11.1378 	 2.80997 	 83.2812
| 27> C 	 10.2556 	 3.47637 	 84.1213
| 28> H 	 11.3835 	 2.81406 	 81.0222
| 29> C 	 12.2389 	 1.93303 	 83.7031
| 30> H 	 12.6755 	 2.46437 	 84.511
| 31> H 	 12.9468 	 1.95296 	 82.9467
| 32> C 	 11.7519 	 0.495401 	 83.9948
| 33> H 	 11.362 	 0.484399 	 85.0155
| 34> H 	 12.6414 	 -0.0473679 	 84.2666
| 35> C 	 10.9185 	 -0.155455 	 82.8983
| 36> H 	 9.85623 	 0.236738 	 82.8295
| 37> H 	 10.9553 	 -1.23105 	 83.0666
| 38> H 	 11.2882 	 -0.106388 	 81.8897
| 39> H 	 8.85123 	 4.32661 	 88.8544
| 40> H 	 9.52356 	 4.52516 	 80.7586
| 41> *
| 42>
| 43>                          ****END OF INPUT****

CARTESIAN COORDINATES (ANGSTROEM)
---------------------------------
  S      8.589380    3.785180   86.361000
  C      9.378510    4.117320   87.899900
  C     10.749000    3.930800   87.853100
  C     11.109100    3.765860   86.441800
  C     10.104000    3.611960   85.568900
  H     12.098600    3.846730   86.039600
  C     11.842000    4.297730   88.882500
  H     11.461500    3.957280   89.791100
  H     11.974200    5.325060   88.838800
  C     13.146000    3.381860   88.731200
  H     13.686000    3.526650   87.764800
  H     13.867800    3.680940   89.457600
  C     12.883500    1.828580   88.843000
  H     12.499700    1.452450   89.834500
  H     12.375500    1.388790   87.968000
  H     13.805800    1.258420   88.715900
  S      9.256280    4.566580   83.284300
  C      9.910110    4.112050   81.739200
  C     10.892300    3.207650   81.891900
  C     11.137800    2.809970   83.281200
  C     10.255600    3.476370   84.121300
  H     11.383500    2.814060   81.022200
  C     12.238900    1.933030   83.703100
  H     12.675500    2.464370   84.511000
  H     12.946800    1.952960   82.946700
  C     11.751900    0.495401   83.994800
  H     11.362000    0.484399   85.015500
  H     12.641400   -0.047368   84.266600
  C     10.918500   -0.155455   82.898300
  H      9.856230    0.236738   82.829500
  H     10.955300   -1.231050   83.066600
  H     11.288200   -0.106388   81.889700
  H      8.851230    4.326610   88.854400
  H      9.523560    4.525160   80.758600

 Total Charge           Charge          ....    0
 Multiplicity           Mult            ....    1
 Number of Electrons    NEL             ....  134
 Basis Dimension        Dim             ....  322

ORBITAL ENERGIES
----------------

  NO   OCC          E(Eh)            E(eV)
   0   2.0000     -88.964190     -2420.8387
   1   2.0000     -88.957022     -2420.6436
   2   2.0000     -10.319624      -280.8112
   3   2.0000     -10.319019      -280.7948
   4   2.0000     -10.316949      -280.7385
   5   2.0000     -10.313548      -280.6459
   6   2.0000     -10.304011      -280.3864
   7   2.0000     -10.299566      -280.2654
   8   2.0000     -10.299195      -280.2553
   9   2.0000     -10.293682      -280.1053
  10   2.0000     -10.289432      -279.9897
  11   2.0000     -10.286979      -279.9229
  12   2.0000     -10.284448      -279.8541
  13   2.0000     -10.284005      -279.8420
  14   2.0000     -10.279942      -279.7314
  15   2.0000     -10.277906      -279.6760
  16   2.0000      -8.079338      -219.8500
  17   2.0000      -8.073377      -219.6878
  18   2.0000      -6.037986      -164.3020
  19   2.0000      -6.033843      -164.1892
  20   2.0000      -6.031834      -164.1346
  21   2.0000      -6.029865      -164.0810
  22   2.0000      -6.027559      -164.0182
  23   2.0000      -6.024183      -163.9263
  24   2.0000      -1.013168       -27.5697
  25   2.0000      -0.986070       -26.8323
  26   2.0000      -0.914074       -24.8732
  27   2.0000      -0.904777       -24.6202
  28   2.0000      -0.869904       -23.6713
  29   2.0000      -0.847103       -23.0509
  30   2.0000      -0.838095       -22.8057
  31   2.0000      -0.817986       -22.2585
  32   2.0000      -0.786201       -21.3936
  33   2.0000      -0.776425       -21.1276
  34   2.0000      -0.714881       -19.4529
  35   2.0000      -0.706081       -19.2134
  36   2.0000      -0.686277       -18.6746
  37   2.0000      -0.664018       -18.0688
  38   2.0000      -0.635906       -17.3039
  39   2.0000      -0.621268       -16.9056
  40   2.0000      -0.589559       -16.0427
  41   2.0000      -0.566158       -15.4059
  42   2.0000      -0.561904       -15.2902
  43   2.0000      -0.551119       -14.9967
  44   2.0000      -0.545649       -14.8479
  45   2.0000      -0.531714       -14.4687
  46   2.0000      -0.513730       -13.9793
  47   2.0000      -0.505038       -13.7428
  48   2.0000      -0.498449       -13.5635
  49   2.0000      -0.495060       -13.4713
  50   2.0000      -0.490121       -13.3369
  51   2.0000      -0.484575       -13.1860
  52   2.0000      -0.471435       -12.8284
  53   2.0000      -0.469221       -12.7682
  54   2.0000      -0.452723       -12.3192
  55   2.0000      -0.449289       -12.2258
  56   2.0000      -0.446306       -12.1446
  57   2.0000      -0.436245       -11.8708
  58   2.0000      -0.434389       -11.8203
  59   2.0000      -0.426008       -11.5923
  60   2.0000      -0.417742       -11.3673
  61   2.0000      -0.415259       -11.2998
  62   2.0000      -0.407272       -11.0824
  63   2.0000      -0.352526        -9.5927
  64   2.0000      -0.327653        -8.9159
  65   2.0000      -0.323525        -8.8036
  66   2.0000      -0.293256        -7.9799
  67   0.0000       0.037436         1.0187
  68   0.0000       0.083491         2.2719
  69   0.0000       0.115118         3.1325
  70   0.0000       0.116075         3.1586
  71   0.0000       0.130165         3.5420

MULLIKEN ATOMIC CHARGES
-----------------------
   0 S :    0.113178
   1 C :   -0.145725
   2 C :   -0.092202
   3 C :   -0.015390
   4 C :   -0.109451
   5 H :    0.006830
   6 C :    0.134365
   7 H :    0.007986
   8 H :    0.046302
   9 C :   -0.096172
  10 H :    0.033824
  11 H :    0.029921
  12 C :   -0.086285
  13 H :    0.047399
  14 H :    0.044810
  15 H :    0.022525
  16 S :    0.090767
  17 C :   -0.105126
  18 C :   -0.030262
  19 C :   -0.098663
  20 C :   -0.144900
  21 H :    0.010150
  22 C :    0.150021
  23 H :   -0.003778
  24 H :   -0.009608
  25 C :   -0.044317
  26 H :    0.026989
  27 H :    0.009007
  28 C :   -0.043101
  29 H :    0.063953
  30 H :    0.032411
  31 H :    0.020138
  32 H :    0.059348
  33 H :    0.075054
Sum of atomic charges:    0.0000000

LOEWDIN ATOMIC CHARGES
----------------------
   0 S :    0.405050
   1 C :   -0.197551
   2 C :   -0.058756
   3 C :   -0.068431
   4 C :   -0.208792
   5 H :    0.022700
   6 C :   -0.012007
   7 H :    0.023724
   8 H :    0.028375
   9 C :   -0.036969
  10 H :    0.025156
  11 H :    0.021133
  12 C :   -0.081025
  13 H :    0.030904
  14 H :    0.030771
  15 H :    0.028028
  16 S :    0.422301
  17 C :   -0.199045
  18 C :   -0.073803
  19 C :   -0.054336
  20 C :   -0.206710
  21 H :    0.028301
  22 C :   -0.027413
  23 H :    0.026565
  24 H :    0.019610
  25 C :   -0.040150
  26 H :    0.029999
  27 H :    0.021455
  28 C :   -0.070898
  29 H :    0.040649
  30 H :    0.031270
  31 H :    0.022635
  32 H :    0.034435
  33 H :    0.042825

  Mayer bond orders larger than 0.100000
B(  0-S ,  1-C ) :   1.1308 B(  0-S ,  4-C ) :   1.1292 B(  1-C ,  2-C ) :   1.6490
B(  1-C , 32-H ) :   0.9627 B(  2-C ,  3-C ) :   1.1904 B(  2-C ,  6-C ) :   1.0092
B(  3-C ,  4-C ) :   1.6416 B(  3-C ,  5-H ) :   0.9881 B(  4-C , 20-C ) :   1.0092
B(  6-C ,  7-H ) :   0.9344 B(  6-C ,  8-H ) :   0.9531 B(  6-C ,  9-C ) :   1.0571
B(  9-C , 10-H ) :   0.9560 B(  9-C , 11-H ) :   0.9616 B(  9-C , 12-C ) :   1.0738
B( 12-C , 13-H ) :   0.9762 B( 12-C , 14-H ) :   0.9711 B( 12-C , 15-H ) :   0.9702
B( 16-S , 17-C ) :   1.1447 B( 16-S , 20-C ) :   1.1624 B( 17-C , 18-C ) :   1.6278
B( 17-C , 33-H ) :   0.9609 B( 18-C , 19-C ) :   1.2142 B( 18-C , 21-H ) :   0.9944
B( 19-C , 20-C ) :   1.5968 B( 19-C , 22-C ) :   1.0458 B( 22-C , 23-H ) :   0.9267
B( 22-C , 24-H ) :   0.9159 B( 22-C , 25-C ) :   1.0757 B( 25-C , 26-H ) :   0.9498
B( 25-C , 27-H ) :   0.9528 B( 25-C , 28-C ) :   1.0660 B( 28-C , 29-H ) :   0.9694
B( 28-C , 30-H ) :   0.9703 B( 28-C , 31-H ) :   0.9751

Dispersion correction           -0.015461563
FINAL SINGLE POINT ENERGY     -1339.859772703475

DIPOLE MOMENT
-------------
                                X             Y             Z
Electronic contribution:    -19.73592      16.29502      -7.74037
Nuclear contribution   :     20.47726     -16.48869       7.86499
                        -----------------------------------------
Total Dipole Moment    :      0.74134      -0.19367       0.12461
                        -----------------------------------------
Magnitude (a.u.)       :      0.77629
Magnitude (Debye)      :      1.97316

Rotational constants in cm-1:     0.018829     0.009938     0.007600
Rotational constants in MHz :   564.472235   297.926666   227.835290

                             ****ORCA TERMINATED NORMALLY****
TOTAL RUN TIME: 0 days 0 hours 0 minutes 37 seconds 417 msec
