                         Program Version 4.2.1 -  RELEASE  -
|  1> ! wB97X-D3 SP def2-SVP
|  2> %pal
|  3> nprocs 16
|  4> end
|  5>
|  6> * xyz 0 1
|  7> S 	 -40.7793 	 15.0415 	 74.9282
|  8> C 	 -39.326 	 15.7529 	 75.5768
|  9> C 	 -39.6325 	 16.7983 	 76.4504
| 10> C 	 -41.0093 	 17.1278 	 76.3199
| 11> C 	 -41.7795 	 16.3315 	 75.4807
| 12> H 	 -41.6054 	 17.9221 	 76.6482
| 13> C 	 -38.6978 	 17.5973 	 77.3427
| 14> H 	 -38.0247 	 16.8803 	 77.7953
| 15> H 	 -39.2519 	 17.9607 	 78.1433
| 16> C 	 -38.0418 	 18.8687 	 76.6981
| 17> H 	 -37.6261 	 18.514 	 75.7723
| 18> H 	 -38.8528 	 19.5182 	 76.471
| 19> C 	 -37.0495 	 19.5881 	 77.6183
| 20> H 	 -36.2124 	 18.9724 	 77.9543
| 21> H 	 -36.7718 	 20.5179 	 77.156
| 22> H 	 -37.519 	 19.8674 	 78.5462
| 23> S 	 -44.1042 	 15.0463 	 75.6866
| 24> C 	 -45.5997 	 15.735 	 75.456
| 25> C 	 -45.4498 	 17.0335 	 75.1178
| 26> C 	 -44.0934 	 17.4966 	 74.9032
| 27> C 	 -43.1851 	 16.423 	 75.1411
| 28> H 	 -46.3078 	 17.6085 	 74.9357
| 29> C 	 -43.7442 	 18.9607 	 74.6025
| 30> H 	 -44.1516 	 19.0864 	 73.6328
| 31> H 	 -42.6812 	 19.1917 	 74.5086
| 32> C 	 -44.3038 	 19.9003 	 75.6099
| 33> H 	 -43.7819 	 19.8816 	 76.6253
| 34> H 	 -45.2326 	 19.6448 	 75.9853
| 35> C 	 -44.2691 	 21.3498 	 75.0808
| 36> H 	 -43.3228 	 21.4896 	 74.7196
| 37> H 	 -44.5872 	 22.0619 	 75.7535
| 38> H 	 -44.8727 	 21.3392 	 74.2134
| 39> H 	 -38.2887 	 15.4048 	 75.4439
| 40> H 	 -46.5074 	 15.1579 	 75.5217
| 41> *
| 42>
| 43>                          ****END OF INPUT****

CARTESIAN COORDINATES (ANGSTROEM)
---------------------------------
  S    -40.779300   15.041500   74.928200
  C    -39.326000   15.752900   75.576800
  C    -39.632500   16.798300   76.450400
  C    -41.009300   17.127800   76.319900
  C    -41.779500   16.331500   75.480700
  H    -41.605400   17.922100   76.648200
  C    -38.697800   17.597300   77.342700
  H    -38.024700   16.880300   77.795300
  H    -39.251900   17.960700   78.143300
  C    -38.041800   18.868700   76.698100
  H    -37.626100   18.514000   75.772300
  H    -38.852800   19.518200   76.471000
  C    -37.049500   19.588100   77.618300
  H    -36.212400   18.972400   77.954300
  H    -36.771800   20.517900   77.156000
  H    -37.519000   19.867400   78.546200
  S    -44.104200   15.046300   75.686600
  C    -45.599700   15.735000   75.456000
  C    -45.449800   17.033500   75.117800
  C    -44.093400   17.496600   74.903200
  C    -43.185100   16.423000   75.141100
  H    -46.307800   17.608500   74.935700
  C    -43.744200   18.960700   74.602500
  H    -44.151600   19.086400   73.632800
  H    -42.681200   19.191700   74.508600
  C    -44.303800   19.900300   75.609900
  H    -43.781900   19.881600   76.625300
  H    -45.232600   19.644800   75.985300
  C    -44.269100   21.349800   75.080800
  H    -43.322800   21.489600   74.719600
  H    -44.587200   22.061900   75.753500
  H    -44.872700   21.339200   74.213400
  H    -38.288700   15.404800   75.443900
  H    -46.507400   15.157900   75.521700

 Total Charge           Charge          ....    0
 Multiplicity           Mult            ....    1
 Number of Electrons    NEL             ....  134
 Basis Dimension        Dim             ....  322

ORBITAL ENERGIES
----------------

  NO   OCC          E(Eh)            E(eV)
   0   2.0000     -88.962941     -2420.8047
   1   2.0000     -88.957997     -2420.6702
   2   2.0000     -10.327404      -281.0230
   3   2.0000     -10.323136      -280.9068
   4   2.0000     -10.316231      -280.7189
   5   2.0000     -10.313236      -280.6374
   6   2.0000     -10.309657      -280.5400
   7   2.0000     -10.302683      -280.3503
   8   2.0000     -10.291954      -280.0583
   9   2.0000     -10.288600      -279.9670
  10   2.0000     -10.285967      -279.8954
  11   2.0000     -10.285653      -279.8869
  12   2.0000     -10.285507      -279.8829
  13   2.0000     -10.282014      -279.7878
  14   2.0000     -10.278053      -279.6801
  15   2.0000     -10.263250      -279.2772
  16   2.0000      -8.078212      -219.8193
  17   2.0000      -8.075163      -219.7364
  18   2.0000      -6.036677      -164.2663
  19   2.0000      -6.033518      -164.1804
  20   2.0000      -6.032558      -164.1542
  21   2.0000      -6.029101      -164.0602
  22   2.0000      -6.029059      -164.0590
  23   2.0000      -6.026132      -163.9794
  24   2.0000      -1.013284       -27.5729
  25   2.0000      -0.990135       -26.9430
  26   2.0000      -0.921515       -25.0757
  27   2.0000      -0.910873       -24.7861
  28   2.0000      -0.873870       -23.7792
  29   2.0000      -0.854511       -23.2524
  30   2.0000      -0.846334       -23.0299
  31   2.0000      -0.815440       -22.1892
  32   2.0000      -0.788545       -21.4574
  33   2.0000      -0.777342       -21.1526
  34   2.0000      -0.714567       -19.4443
  35   2.0000      -0.708245       -19.2723
  36   2.0000      -0.697643       -18.9838
  37   2.0000      -0.662562       -18.0292
  38   2.0000      -0.643863       -17.5204
  39   2.0000      -0.619414       -16.8551
  40   2.0000      -0.606317       -16.4987
  41   2.0000      -0.573802       -15.6140
  42   2.0000      -0.564229       -15.3535
  43   2.0000      -0.558353       -15.1936
  44   2.0000      -0.546036       -14.8584
  45   2.0000      -0.530476       -14.4350
  46   2.0000      -0.522225       -14.2105
  47   2.0000      -0.514278       -13.9942
  48   2.0000      -0.504952       -13.7404
  49   2.0000      -0.501096       -13.6355
  50   2.0000      -0.496368       -13.5068
  51   2.0000      -0.483417       -13.1545
  52   2.0000      -0.479585       -13.0502
  53   2.0000      -0.467898       -12.7322
  54   2.0000      -0.462171       -12.5763
  55   2.0000      -0.455505       -12.3949
  56   2.0000      -0.448078       -12.1928
  57   2.0000      -0.442681       -12.0460
  58   2.0000      -0.438022       -11.9192
  59   2.0000      -0.423792       -11.5320
  60   2.0000      -0.420513       -11.4428
  61   2.0000      -0.413466       -11.2510
  62   2.0000      -0.406480       -11.0609
  63   2.0000      -0.347044        -9.4436
  64   2.0000      -0.328238        -8.9318
  65   2.0000      -0.325849        -8.8668
  66   2.0000      -0.292575        -7.9614
  67   0.0000       0.033358         0.9077
  68   0.0000       0.070961         1.9309
  69   0.0000       0.116623         3.1735
  70   0.0000       0.122771         3.3408
  71   0.0000       0.132649         3.6096

MULLIKEN ATOMIC CHARGES
-----------------------
   0 S :    0.115427
   1 C :   -0.123525
   2 C :   -0.092508
   3 C :    0.061199
   4 C :   -0.189773
   5 H :   -0.027857
   6 C :    0.092305
   7 H :    0.020482
   8 H :   -0.000382
   9 C :   -0.050148
  10 H :    0.024110
  11 H :    0.018961
  12 C :   -0.014944
  13 H :    0.034286
  14 H :    0.034976
  15 H :    0.014521
  16 S :    0.097136
  17 C :   -0.070771
  18 C :   -0.036936
  19 C :   -0.056281
  20 C :   -0.128974
  21 H :   -0.000755
  22 C :    0.096408
  23 H :    0.024503
  24 H :    0.030084
  25 C :   -0.099292
  26 H :    0.025689
  27 H :    0.001818
  28 C :    0.051290
  29 H :    0.000756
  30 H :    0.024006
  31 H :    0.008168
  32 H :    0.055031
  33 H :    0.060989
Sum of atomic charges:    0.0000000

LOEWDIN ATOMIC CHARGES
----------------------
   0 S :    0.420654
   1 C :   -0.201747
   2 C :   -0.062514
   3 C :   -0.061437
   4 C :   -0.213291
   5 H :    0.020153
   6 C :   -0.027846
   7 H :    0.028198
   8 H :    0.021097
   9 C :   -0.028232
  10 H :    0.019743
  11 H :    0.021656
  12 C :   -0.061904
  13 H :    0.027650
  14 H :    0.027440
  15 H :    0.022997
  16 S :    0.445707
  17 C :   -0.205177
  18 C :   -0.076575
  19 C :   -0.044494
  20 C :   -0.208709
  21 H :    0.020333
  22 C :   -0.027814
  23 H :    0.030838
  24 H :    0.034470
  25 C :   -0.039479
  26 H :    0.029501
  27 H :    0.008274
  28 C :   -0.040724
  29 H :    0.014282
  30 H :    0.017598
  31 H :    0.021660
  32 H :    0.034661
  33 H :    0.033032

  Mayer bond orders larger than 0.100000
B(  0-S ,  1-C ) :   1.1584 B(  0-S ,  4-C ) :   1.1548 B(  1-C ,  2-C ) :   1.5828
B(  1-C ,  4-C ) :   0.1057 B(  1-C , 32-H ) :   0.9692 B(  2-C ,  3-C ) :   1.2301
B(  2-C ,  6-C ) :   1.0303 B(  3-C ,  4-C ) :   1.5798 B(  3-C ,  5-H ) :   1.0048
B(  4-C , 20-C ) :   1.0089 B(  6-C ,  7-H ) :   0.9395 B(  6-C ,  8-H ) :   0.9327
B(  6-C ,  9-C ) :   1.0542 B(  9-C , 10-H ) :   0.9608 B(  9-C , 11-H ) :   0.9538
B(  9-C , 12-C ) :   1.0848 B( 12-C , 13-H ) :   0.9760 B( 12-C , 14-H ) :   0.9730
B( 12-C , 15-H ) :   0.9703 B( 16-S , 17-C ) :   1.1874 B( 16-S , 20-C ) :   1.1698
B( 17-C , 18-C ) :   1.5655 B( 17-C , 33-H ) :   0.9719 B( 18-C , 19-C ) :   1.2612
B( 18-C , 21-H ) :   1.0009 B( 19-C , 20-C ) :   1.5636 B( 19-C , 22-C ) :   1.0258
B( 22-C , 23-H ) :   0.9345 B( 22-C , 24-H ) :   0.9391 B( 22-C , 25-C ) :   1.0565
B( 25-C , 26-H ) :   0.9467 B( 25-C , 27-H ) :   0.9586 B( 25-C , 28-C ) :   1.0757
B( 28-C , 29-H ) :   0.9697 B( 28-C , 30-H ) :   0.9721 B( 28-C , 31-H ) :   0.9739

Dispersion correction           -0.013554701
FINAL SINGLE POINT ENERGY     -1339.853210786381

DIPOLE MOMENT
-------------
                                X             Y             Z
Electronic contribution:     -9.56894     -29.44444      -6.47530
Nuclear contribution   :      9.51552      30.17480       6.71455
                        -----------------------------------------
Total Dipole Moment    :     -0.05341       0.73036       0.23925
                        -----------------------------------------
Magnitude (a.u.)       :      0.77041
Magnitude (Debye)      :      1.95822

Rotational constants in cm-1:     0.016735     0.008766     0.006143
Rotational constants in MHz :   501.696697   262.804784   184.174447

                             ****ORCA TERMINATED NORMALLY****
TOTAL RUN TIME: 0 days 0 hours 0 minutes 29 seconds 280 msec
