                         Program Version 4.2.1 -  RELEASE  -
|  1> ! wB97X-D3 SP def2-SVP
|  2> %pal
|  3> nprocs 16
|  4> end
|  5>
|  6> * xyz 0 1
|  7> S 	 -74.6114 	 35.5156 	 123.204
|  8> C 	 -73.3635 	 34.3213 	 123.154
|  9> C 	 -72.2988 	 34.709 	 122.31
| 10> C 	 -72.4248 	 36.0597 	 121.899
| 11> C 	 -73.5751 	 36.6724 	 122.359
| 12> H 	 -71.6937 	 36.6284 	 121.342
| 13> C 	 -71.2269 	 33.7262 	 121.762
| 14> H 	 -71.8981 	 33.1671 	 121.066
| 15> H 	 -70.7261 	 32.9529 	 122.424
| 16> C 	 -69.9516 	 34.3606 	 121.231
| 17> H 	 -69.4101 	 33.7118 	 120.579
| 18> H 	 -70.1985 	 35.2359 	 120.557
| 19> C 	 -69.0683 	 34.7737 	 122.444
| 20> H 	 -69.3842 	 35.7627 	 122.806
| 21> H 	 -69.0959 	 33.9719 	 123.212
| 22> H 	 -67.9725 	 34.7541 	 122.126
| 23> S 	 -74.0335 	 38.8284 	 123.929
| 24> C 	 -74.3788 	 40.3561 	 123.15
| 25> C 	 -74.2176 	 40.3199 	 121.763
| 26> C 	 -74.0723 	 38.9785 	 121.27
| 27> C 	 -73.847 	 38.0806 	 122.317
| 28> H 	 -74.2195 	 41.271 	 121.175
| 29> C 	 -73.863 	 38.5972 	 119.853
| 30> H 	 -74.7206 	 38.9729 	 119.252
| 31> H 	 -74.0192 	 37.5651 	 119.663
| 32> C 	 -72.5387 	 38.9813 	 119.266
| 33> H 	 -71.7391 	 39.1429 	 119.99
| 34> H 	 -72.7528 	 39.9672 	 118.861
| 35> C 	 -72.0759 	 38.0618 	 118.167
| 36> H 	 -72.884 	 37.8378 	 117.449
| 37> H 	 -71.7338 	 37.1427 	 118.548
| 38> H 	 -71.2584 	 38.4644 	 117.6
| 39> H 	 -73.4436 	 33.4066 	 123.703
| 40> H 	 -74.5235 	 41.2414 	 123.678
| 41> *
| 42>
| 43>                          ****END OF INPUT****

CARTESIAN COORDINATES (ANGSTROEM)
---------------------------------
  S    -74.611400   35.515600  123.204000
  C    -73.363500   34.321300  123.154000
  C    -72.298800   34.709000  122.310000
  C    -72.424800   36.059700  121.899000
  C    -73.575100   36.672400  122.359000
  H    -71.693700   36.628400  121.342000
  C    -71.226900   33.726200  121.762000
  H    -71.898100   33.167100  121.066000
  H    -70.726100   32.952900  122.424000
  C    -69.951600   34.360600  121.231000
  H    -69.410100   33.711800  120.579000
  H    -70.198500   35.235900  120.557000
  C    -69.068300   34.773700  122.444000
  H    -69.384200   35.762700  122.806000
  H    -69.095900   33.971900  123.212000
  H    -67.972500   34.754100  122.126000
  S    -74.033500   38.828400  123.929000
  C    -74.378800   40.356100  123.150000
  C    -74.217600   40.319900  121.763000
  C    -74.072300   38.978500  121.270000
  C    -73.847000   38.080600  122.317000
  H    -74.219500   41.271000  121.175000
  C    -73.863000   38.597200  119.853000
  H    -74.720600   38.972900  119.252000
  H    -74.019200   37.565100  119.663000
  C    -72.538700   38.981300  119.266000
  H    -71.739100   39.142900  119.990000
  H    -72.752800   39.967200  118.861000
  C    -72.075900   38.061800  118.167000
  H    -72.884000   37.837800  117.449000
  H    -71.733800   37.142700  118.548000
  H    -71.258400   38.464400  117.600000
  H    -73.443600   33.406600  123.703000
  H    -74.523500   41.241400  123.678000

 Total Charge           Charge          ....    0
 Multiplicity           Mult            ....    1
 Number of Electrons    NEL             ....  134
 Basis Dimension        Dim             ....  322

ORBITAL ENERGIES
----------------

  NO   OCC          E(Eh)            E(eV)
   0   2.0000     -88.965718     -2420.8803
   1   2.0000     -88.964296     -2420.8416
   2   2.0000     -10.324347      -280.9398
   3   2.0000     -10.323491      -280.9165
   4   2.0000     -10.313733      -280.6510
   5   2.0000     -10.311735      -280.5966
   6   2.0000     -10.307055      -280.4692
   7   2.0000     -10.304237      -280.3925
   8   2.0000     -10.301280      -280.3121
   9   2.0000     -10.299645      -280.2676
  10   2.0000     -10.293941      -280.1124
  11   2.0000     -10.290861      -280.0286
  12   2.0000     -10.288400      -279.9616
  13   2.0000     -10.283271      -279.8220
  14   2.0000     -10.281509      -279.7741
  15   2.0000     -10.273597      -279.5588
  16   2.0000      -8.080466      -219.8807
  17   2.0000      -8.078582      -219.8294
  18   2.0000      -6.038829      -164.3249
  19   2.0000      -6.036985      -164.2747
  20   2.0000      -6.034930      -164.2188
  21   2.0000      -6.033254      -164.1732
  22   2.0000      -6.031437      -164.1237
  23   2.0000      -6.029372      -164.0676
  24   2.0000      -1.003592       -27.3091
  25   2.0000      -0.979192       -26.6452
  26   2.0000      -0.918765       -25.0009
  27   2.0000      -0.910455       -24.7747
  28   2.0000      -0.867592       -23.6084
  29   2.0000      -0.854168       -23.2431
  30   2.0000      -0.844857       -22.9897
  31   2.0000      -0.809765       -22.0348
  32   2.0000      -0.783142       -21.3104
  33   2.0000      -0.766526       -20.8582
  34   2.0000      -0.708800       -19.2874
  35   2.0000      -0.701884       -19.0992
  36   2.0000      -0.690852       -18.7990
  37   2.0000      -0.657214       -17.8837
  38   2.0000      -0.642035       -17.4707
  39   2.0000      -0.625246       -17.0138
  40   2.0000      -0.604191       -16.4409
  41   2.0000      -0.568578       -15.4718
  42   2.0000      -0.565582       -15.3903
  43   2.0000      -0.552918       -15.0457
  44   2.0000      -0.536967       -14.6116
  45   2.0000      -0.528218       -14.3735
  46   2.0000      -0.519792       -14.1443
  47   2.0000      -0.508019       -13.8239
  48   2.0000      -0.503027       -13.6881
  49   2.0000      -0.491960       -13.3869
  50   2.0000      -0.485177       -13.2023
  51   2.0000      -0.479849       -13.0574
  52   2.0000      -0.470574       -12.8050
  53   2.0000      -0.462852       -12.5949
  54   2.0000      -0.459580       -12.5058
  55   2.0000      -0.450922       -12.2702
  56   2.0000      -0.442648       -12.0451
  57   2.0000      -0.442484       -12.0406
  58   2.0000      -0.435435       -11.8488
  59   2.0000      -0.430041       -11.7020
  60   2.0000      -0.420073       -11.4308
  61   2.0000      -0.415244       -11.2994
  62   2.0000      -0.401787       -10.9332
  63   2.0000      -0.341668        -9.2973
  64   2.0000      -0.330415        -8.9911
  65   2.0000      -0.320835        -8.7304
  66   2.0000      -0.291416        -7.9298
  67   0.0000       0.028304         0.7702
  68   0.0000       0.063203         1.7198
  69   0.0000       0.110073         2.9952
  70   0.0000       0.116858         3.1799
  71   0.0000       0.126088         3.4310

MULLIKEN ATOMIC CHARGES
-----------------------
   0 S :    0.127876
   1 C :   -0.133780
   2 C :   -0.055095
   3 C :    0.030967
   4 C :   -0.161364
   5 H :    0.007816
   6 C :    0.002448
   7 H :    0.056797
   8 H :    0.039569
   9 C :   -0.079126
  10 H :    0.023638
  11 H :    0.031754
  12 C :   -0.073145
  13 H :    0.055223
  14 H :    0.033065
  15 H :    0.042760
  16 S :    0.110071
  17 C :   -0.070404
  18 C :   -0.055633
  19 C :   -0.021145
  20 C :   -0.181118
  21 H :    0.039292
  22 C :    0.073639
  23 H :    0.025557
  24 H :    0.005296
  25 C :   -0.059642
  26 H :    0.036803
  27 H :    0.020805
  28 C :   -0.028935
  29 H :    0.030143
  30 H :    0.017411
  31 H :    0.026908
  32 H :    0.046217
  33 H :    0.035335
Sum of atomic charges:   -0.0000000

LOEWDIN ATOMIC CHARGES
----------------------
   0 S :    0.412121
   1 C :   -0.203099
   2 C :   -0.061281
   3 C :   -0.060737
   4 C :   -0.198922
   5 H :    0.029784
   6 C :   -0.043179
   7 H :    0.040159
   8 H :    0.036903
   9 C :   -0.050413
  10 H :    0.020720
  11 H :    0.023410
  12 C :   -0.067618
  13 H :    0.030285
  14 H :    0.026025
  15 H :    0.033992
  16 S :    0.395297
  17 C :   -0.173418
  18 C :   -0.073411
  19 C :   -0.048519
  20 C :   -0.188079
  21 H :    0.040208
  22 C :   -0.038656
  23 H :    0.037197
  24 H :    0.023713
  25 C :   -0.041712
  26 H :    0.025181
  27 H :    0.024941
  28 C :   -0.058391
  29 H :    0.028926
  30 H :    0.016194
  31 H :    0.025552
  32 H :    0.022925
  33 H :    0.013901

  Mayer bond orders larger than 0.100000
B(  0-S ,  1-C ) :   1.1563 B(  0-S ,  4-C ) :   1.1552 B(  1-C ,  2-C ) :   1.5732
B(  1-C ,  4-C ) :   0.1023 B(  1-C , 32-H ) :   0.9771 B(  2-C ,  3-C ) :   1.2659
B(  2-C ,  6-C ) :   0.9863 B(  3-C ,  4-C ) :   1.5485 B(  3-C ,  5-H ) :   0.9899
B(  4-C , 20-C ) :   1.0593 B(  6-C ,  7-H ) :   0.9434 B(  6-C ,  8-H ) :   0.9552
B(  6-C ,  9-C ) :   1.0675 B(  9-C , 10-H ) :   0.9564 B(  9-C , 11-H ) :   0.9492
B(  9-C , 12-C ) :   1.0597 B( 12-C , 13-H ) :   0.9771 B( 12-C , 14-H ) :   0.9747
B( 12-C , 15-H ) :   0.9766 B( 16-S , 17-C ) :   1.1575 B( 16-S , 20-C ) :   1.1328
B( 17-C , 18-C ) :   1.6207 B( 17-C , 20-C ) :   0.1017 B( 17-C , 33-H ) :   0.9731
B( 18-C , 19-C ) :   1.2144 B( 18-C , 21-H ) :   0.9821 B( 19-C , 20-C ) :   1.5960
B( 19-C , 22-C ) :   1.0735 B( 22-C , 23-H ) :   0.9160 B( 22-C , 24-H ) :   0.9325
B( 22-C , 25-C ) :   1.0358 B( 25-C , 26-H ) :   0.9612 B( 25-C , 27-H ) :   0.9481
B( 25-C , 28-C ) :   1.0971 B( 28-C , 29-H ) :   0.9703 B( 28-C , 30-H ) :   0.9732
B( 28-C , 31-H ) :   0.9704

Dispersion correction           -0.015001736
FINAL SINGLE POINT ENERGY     -1339.865807520924

DIPOLE MOMENT
-------------
                                X             Y             Z
Electronic contribution:    -20.61845       4.89578      19.74423
Nuclear contribution   :     21.09404      -4.93063     -20.26881
                        -----------------------------------------
Total Dipole Moment    :      0.47559      -0.03485      -0.52458
                        -----------------------------------------
Magnitude (a.u.)       :      0.70893
Magnitude (Debye)      :      1.80196

Rotational constants in cm-1:     0.016745     0.010091     0.007607
Rotational constants in MHz :   501.992760   302.511811   228.049983

                             ****ORCA TERMINATED NORMALLY****
TOTAL RUN TIME: 0 days 0 hours 0 minutes 35 seconds 476 msec
