                         Program Version 4.2.1 -  RELEASE  -
|  1> ! wB97X-D3 SP def2-SVP
|  2> %pal
|  3> nprocs 16
|  4> end
|  5>
|  6> * xyz 0 1
|  7> S 	 -69.0822 	 59.9481 	 126.578
|  8> C 	 -69.6882 	 60.0305 	 128.178
|  9> C 	 -69.1734 	 58.8428 	 128.844
| 10> C 	 -68.3439 	 57.9988 	 128.045
| 11> C 	 -68.3329 	 58.346 	 126.759
| 12> H 	 -67.7913 	 57.1024 	 128.345
| 13> C 	 -69.3342 	 58.5867 	 130.342
| 14> H 	 -69.9272 	 57.7279 	 130.504
| 15> H 	 -69.8818 	 59.496 	 130.695
| 16> C 	 -68.0449 	 58.3475 	 131.207
| 17> H 	 -68.4761 	 58.092 	 132.174
| 18> H 	 -67.502 	 57.4436 	 130.9
| 19> C 	 -67.1067 	 59.5607 	 131.249
| 20> H 	 -66.5741 	 59.5513 	 130.291
| 21> H 	 -67.5583 	 60.5274 	 131.305
| 22> H 	 -66.3345 	 59.4087 	 132.073
| 23> S 	 -66.169 	 58.404 	 125.043
| 24> C 	 -66.0234 	 57.197 	 123.781
| 25> C 	 -66.9518 	 56.2136 	 124.079
| 26> C 	 -67.7918 	 56.3515 	 125.227
| 27> C 	 -67.6215 	 57.6496 	 125.711
| 28> H 	 -66.7631 	 55.2812 	 123.597
| 29> C 	 -68.7304 	 55.3067 	 125.711
| 30> H 	 -69.3055 	 54.9667 	 124.848
| 31> H 	 -69.4344 	 55.8168 	 126.41
| 32> C 	 -67.9642 	 54.2915 	 126.425
| 33> H 	 -67.5007 	 54.9511 	 127.179
| 34> H 	 -67.1849 	 53.8648 	 125.927
| 35> C 	 -68.861 	 53.1681 	 127.097
| 36> H 	 -68.3222 	 52.4854 	 127.732
| 37> H 	 -69.3529 	 52.4442 	 126.359
| 38> H 	 -69.6574 	 53.6858 	 127.677
| 39> H 	 -70.2896 	 60.8573 	 128.586
| 40> H 	 -65.2685 	 57.1775 	 123.037
| 41> *
| 42>
| 43>                          ****END OF INPUT****

CARTESIAN COORDINATES (ANGSTROEM)
---------------------------------
  S    -69.082200   59.948100  126.578000
  C    -69.688200   60.030500  128.178000
  C    -69.173400   58.842800  128.844000
  C    -68.343900   57.998800  128.045000
  C    -68.332900   58.346000  126.759000
  H    -67.791300   57.102400  128.345000
  C    -69.334200   58.586700  130.342000
  H    -69.927200   57.727900  130.504000
  H    -69.881800   59.496000  130.695000
  C    -68.044900   58.347500  131.207000
  H    -68.476100   58.092000  132.174000
  H    -67.502000   57.443600  130.900000
  C    -67.106700   59.560700  131.249000
  H    -66.574100   59.551300  130.291000
  H    -67.558300   60.527400  131.305000
  H    -66.334500   59.408700  132.073000
  S    -66.169000   58.404000  125.043000
  C    -66.023400   57.197000  123.781000
  C    -66.951800   56.213600  124.079000
  C    -67.791800   56.351500  125.227000
  C    -67.621500   57.649600  125.711000
  H    -66.763100   55.281200  123.597000
  C    -68.730400   55.306700  125.711000
  H    -69.305500   54.966700  124.848000
  H    -69.434400   55.816800  126.410000
  C    -67.964200   54.291500  126.425000
  H    -67.500700   54.951100  127.179000
  H    -67.184900   53.864800  125.927000
  C    -68.861000   53.168100  127.097000
  H    -68.322200   52.485400  127.732000
  H    -69.352900   52.444200  126.359000
  H    -69.657400   53.685800  127.677000
  H    -70.289600   60.857300  128.586000
  H    -65.268500   57.177500  123.037000

 Total Charge           Charge          ....    0
 Multiplicity           Mult            ....    1
 Number of Electrons    NEL             ....  134
 Basis Dimension        Dim             ....  322

ORBITAL ENERGIES
----------------

  NO   OCC          E(Eh)            E(eV)
   0   2.0000     -88.964395     -2420.8443
   1   2.0000     -88.962491     -2420.7924
   2   2.0000     -10.327224      -281.0180
   3   2.0000     -10.325093      -280.9601
   4   2.0000     -10.324350      -280.9399
   5   2.0000     -10.317967      -280.7662
   6   2.0000     -10.307651      -280.4854
   7   2.0000     -10.303929      -280.3842
   8   2.0000     -10.292627      -280.0766
   9   2.0000     -10.290445      -280.0172
  10   2.0000     -10.290116      -280.0083
  11   2.0000     -10.289977      -280.0045
  12   2.0000     -10.289971      -280.0043
  13   2.0000     -10.289273      -279.9853
  14   2.0000     -10.283732      -279.8346
  15   2.0000     -10.278162      -279.6830
  16   2.0000      -8.079275      -219.8483
  17   2.0000      -8.077138      -219.7901
  18   2.0000      -6.037721      -164.2947
  19   2.0000      -6.035647      -164.2383
  20   2.0000      -6.033641      -164.1837
  21   2.0000      -6.031676      -164.1302
  22   2.0000      -6.030171      -164.0893
  23   2.0000      -6.027873      -164.0268
  24   2.0000      -1.008878       -27.4530
  25   2.0000      -0.985341       -26.8125
  26   2.0000      -0.924758       -25.1639
  27   2.0000      -0.903626       -24.5889
  28   2.0000      -0.874681       -23.8013
  29   2.0000      -0.845982       -23.0203
  30   2.0000      -0.843813       -22.9613
  31   2.0000      -0.815182       -22.1822
  32   2.0000      -0.782882       -21.3033
  33   2.0000      -0.768175       -20.9031
  34   2.0000      -0.710041       -19.3212
  35   2.0000      -0.704276       -19.1643
  36   2.0000      -0.694412       -18.8959
  37   2.0000      -0.658755       -17.9256
  38   2.0000      -0.644425       -17.5357
  39   2.0000      -0.620680       -16.8895
  40   2.0000      -0.602625       -16.3983
  41   2.0000      -0.575219       -15.6525
  42   2.0000      -0.560485       -15.2516
  43   2.0000      -0.548503       -14.9255
  44   2.0000      -0.534656       -14.5487
  45   2.0000      -0.532417       -14.4878
  46   2.0000      -0.525268       -14.2933
  47   2.0000      -0.517640       -14.0857
  48   2.0000      -0.509430       -13.8623
  49   2.0000      -0.506002       -13.7690
  50   2.0000      -0.484526       -13.1846
  51   2.0000      -0.477853       -13.0030
  52   2.0000      -0.471376       -12.8268
  53   2.0000      -0.466780       -12.7017
  54   2.0000      -0.456470       -12.4212
  55   2.0000      -0.447881       -12.1875
  56   2.0000      -0.440220       -11.9790
  57   2.0000      -0.438459       -11.9311
  58   2.0000      -0.431525       -11.7424
  59   2.0000      -0.424979       -11.5643
  60   2.0000      -0.418554       -11.3894
  61   2.0000      -0.417697       -11.3661
  62   2.0000      -0.404734       -11.0134
  63   2.0000      -0.347674        -9.4607
  64   2.0000      -0.328620        -8.9422
  65   2.0000      -0.321244        -8.7415
  66   2.0000      -0.297008        -8.0820
  67   0.0000       0.030691         0.8351
  68   0.0000       0.060315         1.6413
  69   0.0000       0.111470         3.0332
  70   0.0000       0.122832         3.3424
  71   0.0000       0.126837         3.4514

MULLIKEN ATOMIC CHARGES
-----------------------
   0 S :    0.114973
   1 C :   -0.127142
   2 C :   -0.116268
   3 C :    0.026160
   4 C :   -0.155281
   5 H :    0.028382
   6 C :    0.061029
   7 H :    0.026285
   8 H :    0.018810
   9 C :   -0.083936
  10 H :    0.026594
  11 H :    0.031209
  12 C :   -0.050317
  13 H :    0.038313
  14 H :    0.029115
  15 H :    0.044688
  16 S :    0.101681
  17 C :   -0.080175
  18 C :   -0.021876
  19 C :   -0.056891
  20 C :   -0.186162
  21 H :    0.007568
  22 C :    0.106553
  23 H :    0.030697
  24 H :    0.033757
  25 C :   -0.055673
  26 H :    0.015227
  27 H :    0.010417
  28 C :   -0.050482
  29 H :    0.032700
  30 H :    0.040198
  31 H :    0.035329
  32 H :    0.074487
  33 H :    0.050029
Sum of atomic charges:   -0.0000000

LOEWDIN ATOMIC CHARGES
----------------------
   0 S :    0.415641
   1 C :   -0.218534
   2 C :   -0.065866
   3 C :   -0.066377
   4 C :   -0.194011
   5 H :    0.036998
   6 C :   -0.033934
   7 H :    0.023758
   8 H :    0.030762
   9 C :   -0.040902
  10 H :    0.022779
  11 H :    0.023744
  12 C :   -0.069092
  13 H :    0.030445
  14 H :    0.020551
  15 H :    0.034259
  16 S :    0.395347
  17 C :   -0.176083
  18 C :   -0.072846
  19 C :   -0.048986
  20 C :   -0.192783
  21 H :    0.022785
  22 C :   -0.031141
  23 H :    0.030606
  24 H :    0.037705
  25 C :   -0.033283
  26 H :    0.029407
  27 H :    0.010290
  28 C :   -0.069522
  29 H :    0.021328
  30 H :    0.033089
  31 H :    0.028189
  32 H :    0.040194
  33 H :    0.025484

  Mayer bond orders larger than 0.100000
B(  0-S ,  1-C ) :   1.1624 B(  0-S ,  4-C ) :   1.1472 B(  1-C ,  2-C ) :   1.5494
B(  1-C ,  4-C ) :   0.1009 B(  1-C , 32-H ) :   0.9706 B(  2-C ,  3-C ) :   1.2454
B(  2-C ,  6-C ) :   1.0310 B(  3-C ,  4-C ) :   1.5788 B(  3-C ,  5-H ) :   0.9900
B(  4-C , 20-C ) :   1.0364 B(  6-C ,  7-H ) :   0.9367 B(  6-C ,  8-H ) :   0.9456
B(  6-C ,  9-C ) :   1.0762 B(  9-C , 10-H ) :   0.9567 B(  9-C , 11-H ) :   0.9526
B(  9-C , 12-C ) :   1.0656 B( 12-C , 13-H ) :   0.9736 B( 12-C , 14-H ) :   0.9792
B( 12-C , 15-H ) :   0.9752 B( 16-S , 17-C ) :   1.1419 B( 16-S , 20-C ) :   1.1617
B( 17-C , 18-C ) :   1.6033 B( 17-C , 20-C ) :   0.1048 B( 17-C , 33-H ) :   0.9766
B( 18-C , 19-C ) :   1.2469 B( 18-C , 21-H ) :   0.9805 B( 19-C , 20-C ) :   1.5637
B( 19-C , 22-C ) :   1.0529 B( 22-C , 23-H ) :   0.9279 B( 22-C , 24-H ) :   0.9245
B( 22-C , 25-C ) :   1.0511 B( 25-C , 26-H ) :   0.9457 B( 25-C , 27-H ) :   0.9626
B( 25-C , 28-C ) :   1.0730 B( 28-C , 29-H ) :   0.9773 B( 28-C , 30-H ) :   0.9746
B( 28-C , 31-H ) :   0.9744

Dispersion correction           -0.014715865
FINAL SINGLE POINT ENERGY     -1339.857230000378

DIPOLE MOMENT
-------------
                                X             Y             Z
Electronic contribution:      2.81441      16.53196     -19.87818
Nuclear contribution   :     -2.76590     -17.10029      20.27245
                        -----------------------------------------
Total Dipole Moment    :      0.04852      -0.56833       0.39427
                        -----------------------------------------
Magnitude (a.u.)       :      0.69340
Magnitude (Debye)      :      1.76248

Rotational constants in cm-1:     0.016926     0.009350     0.007349
Rotational constants in MHz :   507.423581   280.317169   220.328989

                             ****ORCA TERMINATED NORMALLY****
TOTAL RUN TIME: 0 days 0 hours 0 minutes 33 seconds 562 msec
