                         Program Version 4.2.1 -  RELEASE  -
|  1> ! wB97X-D3 SP def2-SVP
|  2> %pal
|  3> nprocs 16
|  4> end
|  5>
|  6> * xyz 0 1
|  7> S 	 43.1507 	 18.6908 	 48.1237
|  8> C 	 42.0684 	 17.6093 	 47.337
|  9> C 	 42.4417 	 17.2787 	 46.0316
| 10> C 	 43.6607 	 17.8991 	 45.6757
| 11> C 	 44.2241 	 18.6695 	 46.7116
| 12> H 	 44.2214 	 17.7025 	 44.8161
| 13> C 	 41.7235 	 16.3895 	 45.0725
| 14> H 	 41.3986 	 15.4135 	 45.4812
| 15> H 	 42.4512 	 16.1055 	 44.2914
| 16> C 	 40.5031 	 16.9792 	 44.3703
| 17> H 	 40.9036 	 17.7334 	 43.6701
| 18> H 	 39.9597 	 16.2725 	 43.7314
| 19> C 	 39.4435 	 17.4277 	 45.3737
| 20> H 	 39.9079 	 18.0899 	 46.0806
| 21> H 	 38.5291 	 17.8433 	 44.9877
| 22> H 	 39.0101 	 16.7367 	 46.1377
| 23> S 	 46.8064 	 19.1274 	 47.8897
| 24> C 	 47.9265 	 20.1803 	 47.0526
| 25> C 	 47.2881 	 20.8245 	 46.0636
| 26> C 	 45.9379 	 20.4338 	 45.83
| 27> C 	 45.4773 	 19.4394 	 46.6725
| 28> H 	 47.7732 	 21.6557 	 45.595
| 29> C 	 45.1074 	 21.0545 	 44.7073
| 30> H 	 44.9534 	 22.0601 	 45.0295
| 31> H 	 44.0918 	 20.648 	 44.7348
| 32> C 	 45.6933 	 20.9686 	 43.309
| 33> H 	 46.486 	 21.7325 	 43.0922
| 34> H 	 44.8379 	 21.1952 	 42.6916
| 35> C 	 46.2635 	 19.6633 	 43.0096
| 36> H 	 47.1235 	 19.2099 	 43.6371
| 37> H 	 46.5472 	 19.6693 	 41.9058
| 38> H 	 45.3877 	 18.9521 	 43.0327
| 39> H 	 41.1666 	 17.1424 	 47.8567
| 40> H 	 48.9089 	 20.5374 	 47.4484
| 41> *
| 42>
| 43>                          ****END OF INPUT****

CARTESIAN COORDINATES (ANGSTROEM)
---------------------------------
  S     43.150700   18.690800   48.123700
  C     42.068400   17.609300   47.337000
  C     42.441700   17.278700   46.031600
  C     43.660700   17.899100   45.675700
  C     44.224100   18.669500   46.711600
  H     44.221400   17.702500   44.816100
  C     41.723500   16.389500   45.072500
  H     41.398600   15.413500   45.481200
  H     42.451200   16.105500   44.291400
  C     40.503100   16.979200   44.370300
  H     40.903600   17.733400   43.670100
  H     39.959700   16.272500   43.731400
  C     39.443500   17.427700   45.373700
  H     39.907900   18.089900   46.080600
  H     38.529100   17.843300   44.987700
  H     39.010100   16.736700   46.137700
  S     46.806400   19.127400   47.889700
  C     47.926500   20.180300   47.052600
  C     47.288100   20.824500   46.063600
  C     45.937900   20.433800   45.830000
  C     45.477300   19.439400   46.672500
  H     47.773200   21.655700   45.595000
  C     45.107400   21.054500   44.707300
  H     44.953400   22.060100   45.029500
  H     44.091800   20.648000   44.734800
  C     45.693300   20.968600   43.309000
  H     46.486000   21.732500   43.092200
  H     44.837900   21.195200   42.691600
  C     46.263500   19.663300   43.009600
  H     47.123500   19.209900   43.637100
  H     46.547200   19.669300   41.905800
  H     45.387700   18.952100   43.032700
  H     41.166600   17.142400   47.856700
  H     48.908900   20.537400   47.448400

 Total Charge           Charge          ....    0
 Multiplicity           Mult            ....    1
 Number of Electrons    NEL             ....  134
 Basis Dimension        Dim             ....  322

ORBITAL ENERGIES
----------------

  NO   OCC          E(Eh)            E(eV)
   0   2.0000     -88.972561     -2421.0665
   1   2.0000     -88.959133     -2420.7011
   2   2.0000     -10.335295      -281.2377
   3   2.0000     -10.331660      -281.1388
   4   2.0000     -10.321680      -280.8672
   5   2.0000     -10.318959      -280.7931
   6   2.0000     -10.303261      -280.3660
   7   2.0000     -10.302699      -280.3507
   8   2.0000     -10.295494      -280.1546
   9   2.0000     -10.293858      -280.1101
  10   2.0000     -10.290657      -280.0230
  11   2.0000     -10.287400      -279.9344
  12   2.0000     -10.285565      -279.8845
  13   2.0000     -10.285377      -279.8793
  14   2.0000     -10.284379      -279.8522
  15   2.0000     -10.273114      -279.5456
  16   2.0000      -8.087134      -220.0621
  17   2.0000      -8.073164      -219.6820
  18   2.0000      -6.045529      -164.5072
  19   2.0000      -6.041535      -164.3985
  20   2.0000      -6.038158      -164.3066
  21   2.0000      -6.031949      -164.1377
  22   2.0000      -6.027754      -164.0235
  23   2.0000      -6.023664      -163.9122
  24   2.0000      -1.003026       -27.2937
  25   2.0000      -0.984848       -26.7991
  26   2.0000      -0.917323       -24.9616
  27   2.0000      -0.915411       -24.9096
  28   2.0000      -0.867898       -23.6167
  29   2.0000      -0.854492       -23.2519
  30   2.0000      -0.844223       -22.9725
  31   2.0000      -0.811791       -22.0900
  32   2.0000      -0.785882       -21.3849
  33   2.0000      -0.775516       -21.1029
  34   2.0000      -0.709070       -19.2948
  35   2.0000      -0.698173       -18.9983
  36   2.0000      -0.686679       -18.6855
  37   2.0000      -0.655271       -17.8308
  38   2.0000      -0.642503       -17.4834
  39   2.0000      -0.619512       -16.8578
  40   2.0000      -0.595038       -16.1918
  41   2.0000      -0.573713       -15.6115
  42   2.0000      -0.559098       -15.2138
  43   2.0000      -0.552997       -15.0478
  44   2.0000      -0.549086       -14.9414
  45   2.0000      -0.543306       -14.7841
  46   2.0000      -0.515354       -14.0235
  47   2.0000      -0.505394       -13.7525
  48   2.0000      -0.498517       -13.5653
  49   2.0000      -0.494788       -13.4639
  50   2.0000      -0.493192       -13.4204
  51   2.0000      -0.480540       -13.0762
  52   2.0000      -0.472757       -12.8644
  53   2.0000      -0.462385       -12.5821
  54   2.0000      -0.458859       -12.4862
  55   2.0000      -0.450956       -12.2711
  56   2.0000      -0.445407       -12.1201
  57   2.0000      -0.439408       -11.9569
  58   2.0000      -0.428166       -11.6510
  59   2.0000      -0.427302       -11.6275
  60   2.0000      -0.409590       -11.1455
  61   2.0000      -0.408747       -11.1226
  62   2.0000      -0.403225       -10.9723
  63   2.0000      -0.344099        -9.3634
  64   2.0000      -0.335192        -9.1210
  65   2.0000      -0.326831        -8.8935
  66   2.0000      -0.296956        -8.0806
  67   0.0000       0.027620         0.7516
  68   0.0000       0.063872         1.7380
  69   0.0000       0.115926         3.1545
  70   0.0000       0.118958         3.2370
  71   0.0000       0.125659         3.4194

MULLIKEN ATOMIC CHARGES
-----------------------
   0 S :    0.133471
   1 C :   -0.141432
   2 C :   -0.085371
   3 C :    0.058019
   4 C :   -0.174787
   5 H :   -0.006763
   6 C :    0.044937
   7 H :    0.033527
   8 H :    0.022592
   9 C :   -0.033943
  10 H :    0.031676
  11 H :    0.030472
  12 C :   -0.071665
  13 H :    0.025257
  14 H :    0.030816
  15 H :    0.017682
  16 S :    0.075800
  17 C :   -0.088541
  18 C :   -0.031912
  19 C :   -0.050930
  20 C :   -0.168656
  21 H :    0.011024
  22 C :    0.095635
  23 H :    0.024052
  24 H :    0.022700
  25 C :   -0.061220
  26 H :    0.032745
  27 H :    0.032045
  28 C :   -0.093328
  29 H :    0.075864
  30 H :    0.037733
  31 H :    0.020680
  32 H :    0.076312
  33 H :    0.075505
Sum of atomic charges:   -0.0000000

LOEWDIN ATOMIC CHARGES
----------------------
   0 S :    0.423556
   1 C :   -0.212897
   2 C :   -0.069695
   3 C :   -0.045696
   4 C :   -0.189928
   5 H :    0.022551
   6 C :   -0.036595
   7 H :    0.033266
   8 H :    0.033202
   9 C :   -0.037913
  10 H :    0.027658
  11 H :    0.026154
  12 C :   -0.081574
  13 H :    0.020387
  14 H :    0.023756
  15 H :    0.029745
  16 S :    0.359485
  17 C :   -0.181664
  18 C :   -0.079984
  19 C :   -0.050442
  20 C :   -0.182703
  21 H :    0.029072
  22 C :   -0.031270
  23 H :    0.031633
  24 H :    0.031803
  25 C :   -0.051946
  26 H :    0.025261
  27 H :    0.030698
  28 C :   -0.082770
  29 H :    0.042689
  30 H :    0.033033
  31 H :    0.024078
  32 H :    0.042745
  33 H :    0.044304

  Mayer bond orders larger than 0.100000
B(  0-S ,  1-C ) :   1.1636 B(  0-S ,  4-C ) :   1.1632 B(  1-C ,  2-C ) :   1.5736
B(  1-C ,  4-C ) :   0.1020 B(  1-C , 32-H ) :   0.9530 B(  2-C ,  3-C ) :   1.2756
B(  2-C ,  6-C ) :   1.0261 B(  3-C ,  4-C ) :   1.5438 B(  3-C ,  5-H ) :   1.0008
B(  4-C , 20-C ) :   1.0439 B(  6-C ,  7-H ) :   0.9417 B(  6-C ,  8-H ) :   0.9400
B(  6-C ,  9-C ) :   1.0763 B(  9-C , 10-H ) :   0.9543 B(  9-C , 11-H ) :   0.9564
B(  9-C , 12-C ) :   1.0645 B( 12-C , 13-H ) :   0.9702 B( 12-C , 14-H ) :   0.9734
B( 12-C , 15-H ) :   0.9709 B( 16-S , 17-C ) :   1.1441 B( 16-S , 20-C ) :   1.1051
B( 17-C , 18-C ) :   1.6374 B( 17-C , 33-H ) :   0.9556 B( 18-C , 19-C ) :   1.2191
B( 18-C , 21-H ) :   0.9926 B( 19-C , 20-C ) :   1.6155 B( 19-C , 22-C ) :   1.0439
B( 22-C , 23-H ) :   0.9255 B( 22-C , 24-H ) :   0.9313 B( 22-C , 25-C ) :   1.0692
B( 25-C , 26-H ) :   0.9464 B( 25-C , 27-H ) :   0.9511 B( 25-C , 28-C ) :   1.1008
B( 28-C , 29-H ) :   0.9609 B( 28-C , 30-H ) :   0.9652 B( 28-C , 31-H ) :   0.9682

Dispersion correction           -0.015326228
FINAL SINGLE POINT ENERGY     -1339.870491279663

DIPOLE MOMENT
-------------
                                X             Y             Z
Electronic contribution:     12.74908       1.68932      23.39651
Nuclear contribution   :    -12.95459      -1.52096     -23.98710
                        -----------------------------------------
Total Dipole Moment    :     -0.20551       0.16835      -0.59059
                        -----------------------------------------
Magnitude (a.u.)       :      0.64759
Magnitude (Debye)      :      1.64604

Rotational constants in cm-1:     0.021381     0.008653     0.006803
Rotational constants in MHz :   640.996145   259.411272   203.944206

                             ****ORCA TERMINATED NORMALLY****
TOTAL RUN TIME: 0 days 0 hours 0 minutes 35 seconds 990 msec
