                         Program Version 4.2.1 -  RELEASE  -
|  1> ! wB97X-D3 SP def2-SVP
|  2> %pal
|  3> nprocs 16
|  4> end
|  5>
|  6> * xyz 0 1
|  7> S 	 53.4076 	 2.72864 	 80.06
|  8> C 	 52.3033 	 1.9875 	 81.2505
|  9> C 	 52.9928 	 1.51982 	 82.3616
| 10> C 	 54.3603 	 1.71524 	 82.254
| 11> C 	 54.8029 	 2.24823 	 81.0072
| 12> H 	 55.1677 	 1.50848 	 82.9888
| 13> C 	 52.3661 	 0.894248 	 83.5873
| 14> H 	 51.3203 	 1.06522 	 83.4498
| 15> H 	 52.5928 	 1.49969 	 84.4377
| 16> C 	 52.783 	 -0.585742 	 83.7583
| 17> H 	 52.6203 	 -1.06711 	 82.8535
| 18> H 	 53.8278 	 -0.55222 	 83.9752
| 19> C 	 52.0915 	 -1.25269 	 84.899
| 20> H 	 51.0325 	 -1.12001 	 84.8318
| 21> H 	 52.4486 	 -2.32429 	 85.0088
| 22> H 	 52.3212 	 -0.732199 	 85.7832
| 23> S 	 56.8027 	 3.98355 	 80.4475
| 24> C 	 58.4418 	 3.45161 	 80.3654
| 25> C 	 58.5214 	 2.05888 	 80.5072
| 26> C 	 57.218 	 1.42207 	 80.7235
| 27> C 	 56.2098 	 2.3903 	 80.7341
| 28> H 	 59.5279 	 1.63268 	 80.5723
| 29> C 	 57.1244 	 -0.0561274 	 80.999
| 30> H 	 56.6622 	 -0.229327 	 81.9282
| 31> H 	 58.1776 	 -0.28482 	 81.1598
| 32> C 	 56.5101 	 -1.02553 	 79.9757
| 33> H 	 57.1015 	 -1.10936 	 79.1137
| 34> H 	 55.5823 	 -0.661873 	 79.7199
| 35> C 	 56.3885 	 -2.45557 	 80.5156
| 36> H 	 55.7353 	 -2.54303 	 81.4235
| 37> H 	 57.3738 	 -2.81704 	 80.8224
| 38> H 	 55.9929 	 -3.13337 	 79.7448
| 39> H 	 51.1957 	 1.98484 	 81.2917
| 40> H 	 59.2241 	 4.16421 	 80.3767
| 41> *
| 42>
| 43>                          ****END OF INPUT****

CARTESIAN COORDINATES (ANGSTROEM)
---------------------------------
  S     53.407600    2.728640   80.060000
  C     52.303300    1.987500   81.250500
  C     52.992800    1.519820   82.361600
  C     54.360300    1.715240   82.254000
  C     54.802900    2.248230   81.007200
  H     55.167700    1.508480   82.988800
  C     52.366100    0.894248   83.587300
  H     51.320300    1.065220   83.449800
  H     52.592800    1.499690   84.437700
  C     52.783000   -0.585742   83.758300
  H     52.620300   -1.067110   82.853500
  H     53.827800   -0.552220   83.975200
  C     52.091500   -1.252690   84.899000
  H     51.032500   -1.120010   84.831800
  H     52.448600   -2.324290   85.008800
  H     52.321200   -0.732199   85.783200
  S     56.802700    3.983550   80.447500
  C     58.441800    3.451610   80.365400
  C     58.521400    2.058880   80.507200
  C     57.218000    1.422070   80.723500
  C     56.209800    2.390300   80.734100
  H     59.527900    1.632680   80.572300
  C     57.124400   -0.056127   80.999000
  H     56.662200   -0.229327   81.928200
  H     58.177600   -0.284820   81.159800
  C     56.510100   -1.025530   79.975700
  H     57.101500   -1.109360   79.113700
  H     55.582300   -0.661873   79.719900
  C     56.388500   -2.455570   80.515600
  H     55.735300   -2.543030   81.423500
  H     57.373800   -2.817040   80.822400
  H     55.992900   -3.133370   79.744800
  H     51.195700    1.984840   81.291700
  H     59.224100    4.164210   80.376700

 Total Charge           Charge          ....    0
 Multiplicity           Mult            ....    1
 Number of Electrons    NEL             ....  134
 Basis Dimension        Dim             ....  322

ORBITAL ENERGIES
----------------

  NO   OCC          E(Eh)            E(eV)
   0   2.0000     -88.973442     -2421.0904
   1   2.0000     -88.963890     -2420.8305
   2   2.0000     -10.329485      -281.0796
   3   2.0000     -10.324543      -280.9451
   4   2.0000     -10.318046      -280.7683
   5   2.0000     -10.315576      -280.7011
   6   2.0000     -10.309061      -280.5238
   7   2.0000     -10.300804      -280.2991
   8   2.0000     -10.296125      -280.1718
   9   2.0000     -10.292308      -280.0679
  10   2.0000     -10.287138      -279.9273
  11   2.0000     -10.285752      -279.8895
  12   2.0000     -10.280268      -279.7403
  13   2.0000     -10.278015      -279.6790
  14   2.0000     -10.274499      -279.5833
  15   2.0000     -10.273367      -279.5525
  16   2.0000      -8.086697      -220.0502
  17   2.0000      -8.079789      -219.8622
  18   2.0000      -6.045315      -164.5014
  19   2.0000      -6.041343      -164.3933
  20   2.0000      -6.038149      -164.3064
  21   2.0000      -6.037498      -164.2887
  22   2.0000      -6.033996      -164.1934
  23   2.0000      -6.030786      -164.1060
  24   2.0000      -1.005857       -27.3708
  25   2.0000      -0.982207       -26.7272
  26   2.0000      -0.918411       -24.9912
  27   2.0000      -0.910707       -24.7816
  28   2.0000      -0.871896       -23.7255
  29   2.0000      -0.854625       -23.2555
  30   2.0000      -0.849327       -23.1114
  31   2.0000      -0.808957       -22.0128
  32   2.0000      -0.782878       -21.3032
  33   2.0000      -0.771690       -20.9988
  34   2.0000      -0.713789       -19.4232
  35   2.0000      -0.705656       -19.2019
  36   2.0000      -0.695521       -18.9261
  37   2.0000      -0.665249       -18.1023
  38   2.0000      -0.633803       -17.2466
  39   2.0000      -0.616641       -16.7797
  40   2.0000      -0.596297       -16.2261
  41   2.0000      -0.577346       -15.7104
  42   2.0000      -0.568601       -15.4724
  43   2.0000      -0.560557       -15.2535
  44   2.0000      -0.533742       -14.5239
  45   2.0000      -0.521708       -14.1964
  46   2.0000      -0.517621       -14.0852
  47   2.0000      -0.513460       -13.9719
  48   2.0000      -0.502145       -13.6641
  49   2.0000      -0.497719       -13.5436
  50   2.0000      -0.492723       -13.4077
  51   2.0000      -0.485171       -13.2022
  52   2.0000      -0.468408       -12.7460
  53   2.0000      -0.464477       -12.6391
  54   2.0000      -0.459874       -12.5138
  55   2.0000      -0.444781       -12.1031
  56   2.0000      -0.444568       -12.0973
  57   2.0000      -0.437280       -11.8990
  58   2.0000      -0.434530       -11.8242
  59   2.0000      -0.428952       -11.6724
  60   2.0000      -0.426476       -11.6050
  61   2.0000      -0.425276       -11.5723
  62   2.0000      -0.417736       -11.3672
  63   2.0000      -0.339136        -9.2284
  64   2.0000      -0.335004        -9.1159
  65   2.0000      -0.328847        -8.9484
  66   2.0000      -0.291338        -7.9277
  67   0.0000       0.029933         0.8145
  68   0.0000       0.064331         1.7505
  69   0.0000       0.112983         3.0744
  70   0.0000       0.118879         3.2349
  71   0.0000       0.132243         3.5985

MULLIKEN ATOMIC CHARGES
-----------------------
   0 S :    0.128775
   1 C :   -0.132394
   2 C :   -0.094650
   3 C :   -0.004368
   4 C :   -0.157179
   5 H :    0.032176
   6 C :    0.093889
   7 H :   -0.006776
   8 H :    0.023518
   9 C :   -0.046794
  10 H :    0.022013
  11 H :    0.021200
  12 C :   -0.003503
  13 H :    0.019392
  14 H :    0.049174
  15 H :    0.005572
  16 S :    0.112693
  17 C :   -0.092530
  18 C :   -0.048967
  19 C :   -0.036754
  20 C :   -0.184706
  21 H :    0.031714
  22 C :    0.094162
  23 H :    0.003160
  24 H :    0.003347
  25 C :    0.014522
  26 H :    0.014985
  27 H :    0.016768
  28 C :   -0.080885
  29 H :    0.033948
  30 H :    0.023637
  31 H :    0.042069
  32 H :    0.053362
  33 H :    0.049430
Sum of atomic charges:    0.0000000

LOEWDIN ATOMIC CHARGES
----------------------
   0 S :    0.402614
   1 C :   -0.203244
   2 C :   -0.066474
   3 C :   -0.064814
   4 C :   -0.204083
   5 H :    0.036006
   6 C :   -0.022918
   7 H :    0.020920
   8 H :    0.028656
   9 C :   -0.028678
  10 H :    0.017384
  11 H :    0.021988
  12 C :   -0.060999
  13 H :    0.021699
  14 H :    0.037184
  15 H :    0.018020
  16 S :    0.429430
  17 C :   -0.189457
  18 C :   -0.073110
  19 C :   -0.049965
  20 C :   -0.210963
  21 H :    0.034495
  22 C :   -0.028915
  23 H :    0.022463
  24 H :    0.030865
  25 C :   -0.022304
  26 H :    0.020072
  27 H :    0.015803
  28 C :   -0.065527
  29 H :    0.025990
  30 H :    0.021686
  31 H :    0.029459
  32 H :    0.036358
  33 H :    0.020357

  Mayer bond orders larger than 0.100000
B(  0-S ,  1-C ) :   1.1321 B(  0-S ,  4-C ) :   1.1505 B(  1-C ,  2-C ) :   1.5966
B(  1-C ,  4-C ) :   0.1096 B(  1-C , 32-H ) :   0.9563 B(  2-C ,  3-C ) :   1.2705
B(  2-C ,  6-C ) :   1.0251 B(  3-C ,  4-C ) :   1.5346 B(  3-C ,  5-H ) :   0.9862
B(  4-C , 20-C ) :   1.0648 B(  6-C ,  7-H ) :   0.9312 B(  6-C ,  8-H ) :   0.9342
B(  6-C ,  9-C ) :   1.0567 B(  9-C , 10-H ) :   0.9573 B(  9-C , 11-H ) :   0.9520
B(  9-C , 12-C ) :   1.0972 B( 12-C , 13-H ) :   0.9718 B( 12-C , 14-H ) :   0.9712
B( 12-C , 15-H ) :   0.9671 B( 16-S , 17-C ) :   1.1721 B( 16-S , 20-C ) :   1.1613
B( 17-C , 18-C ) :   1.5931 B( 17-C , 33-H ) :   0.9742 B( 18-C , 19-C ) :   1.2437
B( 18-C , 21-H ) :   0.9844 B( 19-C , 20-C ) :   1.5721 B( 19-C , 22-C ) :   1.0402
B( 22-C , 23-H ) :   0.9284 B( 22-C , 24-H ) :   0.9215 B( 22-C , 25-C ) :   1.0697
B( 25-C , 26-H ) :   0.9500 B( 25-C , 27-H ) :   0.9543 B( 25-C , 28-C ) :   1.0868
B( 28-C , 29-H ) :   0.9748 B( 28-C , 30-H ) :   0.9750 B( 28-C , 31-H ) :   0.9741

Dispersion correction           -0.014353883
FINAL SINGLE POINT ENERGY     -1339.873964274644

DIPOLE MOMENT
-------------
                                X             Y             Z
Electronic contribution:      4.11330      28.26437     -14.21685
Nuclear contribution   :     -3.98952     -28.70272      14.74237
                        -----------------------------------------
Total Dipole Moment    :      0.12378      -0.43835       0.52552
                        -----------------------------------------
Magnitude (a.u.)       :      0.69545
Magnitude (Debye)      :      1.76769

Rotational constants in cm-1:     0.017090     0.009303     0.007142
Rotational constants in MHz :   512.334674   278.903380   214.097873

                             ****ORCA TERMINATED NORMALLY****
TOTAL RUN TIME: 0 days 0 hours 0 minutes 30 seconds 562 msec
