                         Program Version 4.2.1 -  RELEASE  -
|  1> ! wB97X-D3 SP def2-SVP
|  2> %pal
|  3> nprocs 16
|  4> end
|  5>
|  6> * xyz 0 1
|  7> S 	 66.9557 	 22.4366 	 73.0074
|  8> C 	 66.7198 	 21.3639 	 74.3486
|  9> C 	 67.9045 	 21.2731 	 75.1024
| 10> C 	 68.9246 	 22.141 	 74.6637
| 11> C 	 68.6621 	 22.7016 	 73.4377
| 12> H 	 69.8545 	 22.2976 	 75.0778
| 13> C 	 68.0197 	 20.6262 	 76.4604
| 14> H 	 69.0639 	 20.6358 	 76.789
| 15> H 	 67.8543 	 19.5605 	 76.2637
| 16> C 	 67.129 	 21.1775 	 77.5908
| 17> H 	 67.3012 	 22.2523 	 77.7699
| 18> H 	 66.0908 	 21.034 	 77.2875
| 19> C 	 67.2459 	 20.6678 	 79.0127
| 20> H 	 67.0427 	 19.593 	 78.9741
| 21> H 	 68.2328 	 20.5033 	 79.4633
| 22> H 	 66.5782 	 21.1481 	 79.7615
| 23> S 	 68.6865 	 24.762 	 71.5837
| 24> C 	 70.1573 	 25.414 	 70.9824
| 25> C 	 71.2318 	 24.7893 	 71.5805
| 26> C 	 70.8954 	 23.7638 	 72.557
| 27> C 	 69.5143 	 23.5435 	 72.6039
| 28> H 	 72.1996 	 25.1285 	 71.3833
| 29> C 	 72.0295 	 22.9951 	 73.2228
| 30> H 	 72.7397 	 22.8562 	 72.4339
| 31> H 	 71.8303 	 21.9189 	 73.5596
| 32> C 	 72.6248 	 23.6481 	 74.4536
| 33> H 	 71.8279 	 23.9937 	 75.0639
| 34> H 	 73.1578 	 24.465 	 74.0464
| 35> C 	 73.6638 	 22.7278 	 75.2192
| 36> H 	 74.2914 	 23.2542 	 75.9584
| 37> H 	 74.3456 	 22.2694 	 74.5872
| 38> H 	 73.0612 	 22.0291 	 75.7976
| 39> H 	 65.7878 	 20.8203 	 74.567
| 40> H 	 70.1264 	 26.214 	 70.222
| 41> *
| 42>
| 43>                          ****END OF INPUT****

CARTESIAN COORDINATES (ANGSTROEM)
---------------------------------
  S     66.955700   22.436600   73.007400
  C     66.719800   21.363900   74.348600
  C     67.904500   21.273100   75.102400
  C     68.924600   22.141000   74.663700
  C     68.662100   22.701600   73.437700
  H     69.854500   22.297600   75.077800
  C     68.019700   20.626200   76.460400
  H     69.063900   20.635800   76.789000
  H     67.854300   19.560500   76.263700
  C     67.129000   21.177500   77.590800
  H     67.301200   22.252300   77.769900
  H     66.090800   21.034000   77.287500
  C     67.245900   20.667800   79.012700
  H     67.042700   19.593000   78.974100
  H     68.232800   20.503300   79.463300
  H     66.578200   21.148100   79.761500
  S     68.686500   24.762000   71.583700
  C     70.157300   25.414000   70.982400
  C     71.231800   24.789300   71.580500
  C     70.895400   23.763800   72.557000
  C     69.514300   23.543500   72.603900
  H     72.199600   25.128500   71.383300
  C     72.029500   22.995100   73.222800
  H     72.739700   22.856200   72.433900
  H     71.830300   21.918900   73.559600
  C     72.624800   23.648100   74.453600
  H     71.827900   23.993700   75.063900
  H     73.157800   24.465000   74.046400
  C     73.663800   22.727800   75.219200
  H     74.291400   23.254200   75.958400
  H     74.345600   22.269400   74.587200
  H     73.061200   22.029100   75.797600
  H     65.787800   20.820300   74.567000
  H     70.126400   26.214000   70.222000

 Total Charge           Charge          ....    0
 Multiplicity           Mult            ....    1
 Number of Electrons    NEL             ....  134
 Basis Dimension        Dim             ....  322

ORBITAL ENERGIES
----------------

  NO   OCC          E(Eh)            E(eV)
   0   2.0000     -88.967835     -2420.9379
   1   2.0000     -88.962717     -2420.7986
   2   2.0000     -10.334555      -281.2175
   3   2.0000     -10.331627      -281.1379
   4   2.0000     -10.321227      -280.8549
   5   2.0000     -10.318470      -280.7799
   6   2.0000     -10.311758      -280.5972
   7   2.0000     -10.301657      -280.3223
   8   2.0000     -10.295884      -280.1653
   9   2.0000     -10.294211      -280.1197
  10   2.0000     -10.293237      -280.0932
  11   2.0000     -10.288515      -279.9647
  12   2.0000     -10.287258      -279.9305
  13   2.0000     -10.283996      -279.8418
  14   2.0000     -10.281181      -279.7652
  15   2.0000     -10.279662      -279.7238
  16   2.0000      -8.082188      -219.9275
  17   2.0000      -8.077893      -219.8107
  18   2.0000      -6.040712      -164.3761
  19   2.0000      -6.036729      -164.2677
  20   2.0000      -6.036476      -164.2609
  21   2.0000      -6.032981      -164.1658
  22   2.0000      -6.032251      -164.1459
  23   2.0000      -6.028649      -164.0479
  24   2.0000      -1.005943       -27.3731
  25   2.0000      -0.984186       -26.7811
  26   2.0000      -0.913099       -24.8467
  27   2.0000      -0.908906       -24.7326
  28   2.0000      -0.869657       -23.6646
  29   2.0000      -0.856853       -23.3161
  30   2.0000      -0.847278       -23.0556
  31   2.0000      -0.816232       -22.2108
  32   2.0000      -0.785561       -21.3762
  33   2.0000      -0.771420       -20.9914
  34   2.0000      -0.710338       -19.3293
  35   2.0000      -0.703755       -19.1501
  36   2.0000      -0.693685       -18.8761
  37   2.0000      -0.668996       -18.2043
  38   2.0000      -0.643621       -17.5138
  39   2.0000      -0.621404       -16.9093
  40   2.0000      -0.601156       -16.3583
  41   2.0000      -0.574382       -15.6297
  42   2.0000      -0.567547       -15.4437
  43   2.0000      -0.554729       -15.0949
  44   2.0000      -0.532605       -14.4929
  45   2.0000      -0.526258       -14.3202
  46   2.0000      -0.517818       -14.0905
  47   2.0000      -0.514142       -13.9905
  48   2.0000      -0.507316       -13.8048
  49   2.0000      -0.504232       -13.7208
  50   2.0000      -0.498308       -13.5596
  51   2.0000      -0.480533       -13.0760
  52   2.0000      -0.476601       -12.9690
  53   2.0000      -0.464109       -12.6290
  54   2.0000      -0.459885       -12.5141
  55   2.0000      -0.451374       -12.2825
  56   2.0000      -0.444926       -12.1070
  57   2.0000      -0.444401       -12.0928
  58   2.0000      -0.436919       -11.8892
  59   2.0000      -0.424784       -11.5590
  60   2.0000      -0.416236       -11.3263
  61   2.0000      -0.408558       -11.1174
  62   2.0000      -0.400171       -10.8892
  63   2.0000      -0.361886        -9.8474
  64   2.0000      -0.334952        -9.1145
  65   2.0000      -0.328802        -8.9471
  66   2.0000      -0.282232        -7.6799
  67   0.0000       0.017680         0.4811
  68   0.0000       0.080007         2.1771
  69   0.0000       0.099098         2.6966
  70   0.0000       0.119517         3.2522
  71   0.0000       0.128706         3.5023

MULLIKEN ATOMIC CHARGES
-----------------------
   0 S :    0.105021
   1 C :   -0.129181
   2 C :   -0.075309
   3 C :    0.035963
   4 C :   -0.114704
   5 H :   -0.034962
   6 C :    0.065688
   7 H :    0.011806
   8 H :    0.028710
   9 C :   -0.054747
  10 H :    0.035924
  11 H :    0.026978
  12 C :   -0.066945
  13 H :    0.008639
  14 H :    0.022030
  15 H :    0.053287
  16 S :    0.077414
  17 C :   -0.089942
  18 C :   -0.008558
  19 C :   -0.037518
  20 C :   -0.109079
  21 H :   -0.002583
  22 C :   -0.005965
  23 H :    0.024132
  24 H :    0.033098
  25 C :   -0.047685
  26 H :    0.033348
  27 H :    0.014107
  28 C :   -0.027314
  29 H :    0.035268
  30 H :    0.022244
  31 H :    0.030351
  32 H :    0.065341
  33 H :    0.075142
Sum of atomic charges:   -0.0000000

LOEWDIN ATOMIC CHARGES
----------------------
   0 S :    0.403162
   1 C :   -0.204367
   2 C :   -0.062607
   3 C :   -0.054597
   4 C :   -0.173769
   5 H :    0.018178
   6 C :   -0.036143
   7 H :    0.027485
   8 H :    0.033245
   9 C :   -0.044287
  10 H :    0.029751
  11 H :    0.024494
  12 C :   -0.082092
  13 H :    0.022218
  14 H :    0.025406
  15 H :    0.035450
  16 S :    0.393069
  17 C :   -0.189581
  18 C :   -0.067281
  19 C :   -0.053278
  20 C :   -0.178721
  21 H :    0.020026
  22 C :   -0.039465
  23 H :    0.027373
  24 H :    0.033392
  25 C :   -0.032641
  26 H :    0.020435
  27 H :    0.017159
  28 C :   -0.057284
  29 H :    0.030852
  30 H :    0.015866
  31 H :    0.025016
  32 H :    0.035921
  33 H :    0.037615

  Mayer bond orders larger than 0.100000
B(  0-S ,  1-C ) :   1.1500 B(  0-S ,  4-C ) :   1.1462 B(  1-C ,  2-C ) :   1.5699
B(  1-C ,  4-C ) :   0.1029 B(  1-C , 32-H ) :   0.9697 B(  2-C ,  3-C ) :   1.2601
B(  2-C ,  6-C ) :   1.0378 B(  3-C ,  4-C ) :   1.5572 B(  3-C ,  5-H ) :   1.0019
B(  4-C , 20-C ) :   1.0750 B(  6-C ,  7-H ) :   0.9419 B(  6-C ,  8-H ) :   0.9279
B(  6-C ,  9-C ) :   1.0606 B(  9-C , 10-H ) :   0.9596 B(  9-C , 11-H ) :   0.9527
B(  9-C , 12-C ) :   1.0795 B( 12-C , 13-H ) :   0.9671 B( 12-C , 14-H ) :   0.9711
B( 12-C , 15-H ) :   0.9740 B( 16-S , 17-C ) :   1.1596 B( 16-S , 20-C ) :   1.1294
B( 17-C , 18-C ) :   1.5926 B( 17-C , 33-H ) :   0.9671 B( 18-C , 19-C ) :   1.2353
B( 18-C , 21-H ) :   0.9987 B( 19-C , 20-C ) :   1.5940 B( 19-C , 22-C ) :   1.0299
B( 22-C , 23-H ) :   0.9369 B( 22-C , 24-H ) :   0.9504 B( 22-C , 25-C ) :   1.0478
B( 25-C , 26-H ) :   0.9605 B( 25-C , 27-H ) :   0.9531 B( 25-C , 28-C ) :   1.0775
B( 28-C , 29-H ) :   0.9766 B( 28-C , 30-H ) :   0.9754 B( 28-C , 31-H ) :   0.9767

Dispersion correction           -0.013651303
FINAL SINGLE POINT ENERGY     -1339.866688407137

DIPOLE MOMENT
-------------
                                X             Y             Z
Electronic contribution:    -14.45184      10.56192     -26.30838
Nuclear contribution   :     14.98189     -10.65495      26.72424
                        -----------------------------------------
Total Dipole Moment    :      0.53005      -0.09304       0.41586
                        -----------------------------------------
Magnitude (a.u.)       :      0.68011
Magnitude (Debye)      :      1.72870

Rotational constants in cm-1:     0.017326     0.008612     0.006074
Rotational constants in MHz :   519.434012   258.166685   182.098656

                             ****ORCA TERMINATED NORMALLY****
TOTAL RUN TIME: 0 days 0 hours 0 minutes 27 seconds 611 msec
