                         Program Version 4.2.1 -  RELEASE  -
|  1> ! wB97X-D3 SP def2-SVP
|  2> %pal
|  3> nprocs 16
|  4> end
|  5>
|  6> * xyz 0 1
|  7> S 	 3.17029 	 15.1785 	 86.6247
|  8> C 	 2.29661 	 16.1199 	 85.4334
|  9> C 	 1.05007 	 15.553 	 85.0736
| 10> C 	 0.697922 	 14.4703 	 85.9404
| 11> C 	 1.71107 	 14.1943 	 86.8757
| 12> H 	 -0.20021 	 13.9232 	 85.973
| 13> C 	 0.0823439 	 16.0645 	 83.9685
| 14> H 	 -0.60534 	 15.2358 	 83.6636
| 15> H 	 0.725199 	 16.3553 	 83.0991
| 16> C 	 -0.757885 	 17.3208 	 84.3624
| 17> H 	 0.0972705 	 17.9881 	 84.6588
| 18> H 	 -1.29152 	 17.7852 	 83.5396
| 19> C 	 -1.76094 	 17.1303 	 85.5009
| 20> H 	 -2.00023 	 18.1525 	 85.7834
| 21> H 	 -2.67416 	 16.6597 	 85.1297
| 22> H 	 -1.25501 	 16.695 	 86.3886
| 23> S 	 2.04904 	 14.2566 	 89.5912
| 24> C 	 1.34513 	 13.0503 	 90.6378
| 25> C 	 0.961604 	 11.9971 	 89.7845
| 26> C 	 0.905851 	 12.2737 	 88.4166
| 27> C 	 1.50597 	 13.467 	 88.0919
| 28> H 	 0.686192 	 11.082 	 90.3049
| 29> C 	 0.106623 	 11.3467 	 87.496
| 30> H 	 -0.651339 	 12.0606 	 87.1978
| 31> H 	 -0.390852 	 10.604 	 88.0984
| 32> C 	 0.98027 	 10.724 	 86.4424
| 33> H 	 1.70052 	 11.4666 	 86.1048
| 34> H 	 0.448885 	 10.4182 	 85.5486
| 35> C 	 1.71176 	 9.41606 	 86.9165
| 36> H 	 2.20779 	 9.563 	 87.8133
| 37> H 	 2.40217 	 9.09231 	 86.2213
| 38> H 	 1.01993 	 8.59566 	 87.0224
| 39> H 	 2.73343 	 17.0179 	 84.9902
| 40> H 	 1.42046 	 12.9541 	 91.7059
| 41> *
| 42>
| 43>                          ****END OF INPUT****

CARTESIAN COORDINATES (ANGSTROEM)
---------------------------------
  S      3.170290   15.178500   86.624700
  C      2.296610   16.119900   85.433400
  C      1.050070   15.553000   85.073600
  C      0.697922   14.470300   85.940400
  C      1.711070   14.194300   86.875700
  H     -0.200210   13.923200   85.973000
  C      0.082344   16.064500   83.968500
  H     -0.605340   15.235800   83.663600
  H      0.725199   16.355300   83.099100
  C     -0.757885   17.320800   84.362400
  H      0.097270   17.988100   84.658800
  H     -1.291520   17.785200   83.539600
  C     -1.760940   17.130300   85.500900
  H     -2.000230   18.152500   85.783400
  H     -2.674160   16.659700   85.129700
  H     -1.255010   16.695000   86.388600
  S      2.049040   14.256600   89.591200
  C      1.345130   13.050300   90.637800
  C      0.961604   11.997100   89.784500
  C      0.905851   12.273700   88.416600
  C      1.505970   13.467000   88.091900
  H      0.686192   11.082000   90.304900
  C      0.106623   11.346700   87.496000
  H     -0.651339   12.060600   87.197800
  H     -0.390852   10.604000   88.098400
  C      0.980270   10.724000   86.442400
  H      1.700520   11.466600   86.104800
  H      0.448885   10.418200   85.548600
  C      1.711760    9.416060   86.916500
  H      2.207790    9.563000   87.813300
  H      2.402170    9.092310   86.221300
  H      1.019930    8.595660   87.022400
  H      2.733430   17.017900   84.990200
  H      1.420460   12.954100   91.705900

 Total Charge           Charge          ....    0
 Multiplicity           Mult            ....    1
 Number of Electrons    NEL             ....  134
 Basis Dimension        Dim             ....  322

ORBITAL ENERGIES
----------------

  NO   OCC          E(Eh)            E(eV)
   0   2.0000     -88.973365     -2421.0883
   1   2.0000     -88.962125     -2420.7825
   2   2.0000     -10.332461      -281.1605
   3   2.0000     -10.325166      -280.9620
   4   2.0000     -10.321206      -280.8543
   5   2.0000     -10.316068      -280.7145
   6   2.0000     -10.311255      -280.5835
   7   2.0000     -10.301787      -280.3259
   8   2.0000     -10.298309      -280.2312
   9   2.0000     -10.297571      -280.2112
  10   2.0000     -10.290364      -280.0150
  11   2.0000     -10.290222      -280.0112
  12   2.0000     -10.289491      -279.9913
  13   2.0000     -10.282137      -279.7912
  14   2.0000     -10.277514      -279.6654
  15   2.0000     -10.264083      -279.2999
  16   2.0000      -8.087351      -220.0680
  17   2.0000      -8.076330      -219.7681
  18   2.0000      -6.045812      -164.5149
  19   2.0000      -6.042028      -164.4119
  20   2.0000      -6.038143      -164.3062
  21   2.0000      -6.034934      -164.2189
  22   2.0000      -6.030760      -164.1053
  23   2.0000      -6.027128      -164.0065
  24   2.0000      -1.006155       -27.3789
  25   2.0000      -0.980304       -26.6754
  26   2.0000      -0.910345       -24.7717
  27   2.0000      -0.904923       -24.6242
  28   2.0000      -0.867947       -23.6180
  29   2.0000      -0.852474       -23.1970
  30   2.0000      -0.844611       -22.9830
  31   2.0000      -0.809164       -22.0185
  32   2.0000      -0.785981       -21.3876
  33   2.0000      -0.772662       -21.0252
  34   2.0000      -0.712007       -19.3747
  35   2.0000      -0.695824       -18.9343
  36   2.0000      -0.690588       -18.7918
  37   2.0000      -0.665455       -18.1080
  38   2.0000      -0.641688       -17.4612
  39   2.0000      -0.611035       -16.6271
  40   2.0000      -0.588220       -16.0063
  41   2.0000      -0.572528       -15.5793
  42   2.0000      -0.560366       -15.2483
  43   2.0000      -0.548918       -14.9368
  44   2.0000      -0.547662       -14.9026
  45   2.0000      -0.539910       -14.6917
  46   2.0000      -0.514718       -14.0062
  47   2.0000      -0.511696       -13.9239
  48   2.0000      -0.504389       -13.7251
  49   2.0000      -0.493826       -13.4377
  50   2.0000      -0.489696       -13.3253
  51   2.0000      -0.483384       -13.1536
  52   2.0000      -0.470732       -12.8093
  53   2.0000      -0.467242       -12.7143
  54   2.0000      -0.461448       -12.5566
  55   2.0000      -0.452029       -12.3003
  56   2.0000      -0.444355       -12.0915
  57   2.0000      -0.435085       -11.8393
  58   2.0000      -0.431235       -11.7345
  59   2.0000      -0.422968       -11.5096
  60   2.0000      -0.417119       -11.3504
  61   2.0000      -0.409756       -11.1500
  62   2.0000      -0.407779       -11.0962
  63   2.0000      -0.350093        -9.5265
  64   2.0000      -0.332347        -9.0436
  65   2.0000      -0.328065        -8.9271
  66   2.0000      -0.281737        -7.6665
  67   0.0000       0.018372         0.4999
  68   0.0000       0.064632         1.7587
  69   0.0000       0.099883         2.7180
  70   0.0000       0.125302         3.4096
  71   0.0000       0.131655         3.5825

MULLIKEN ATOMIC CHARGES
-----------------------
   0 S :    0.122858
   1 C :   -0.145524
   2 C :   -0.077191
   3 C :    0.038527
   4 C :   -0.153195
   5 H :   -0.004582
   6 C :    0.043002
   7 H :    0.030889
   8 H :    0.041223
   9 C :   -0.100756
  10 H :    0.026154
  11 H :    0.034238
  12 C :   -0.042284
  13 H :    0.028365
  14 H :    0.039387
  15 H :    0.051695
  16 S :    0.097277
  17 C :   -0.098534
  18 C :   -0.064573
  19 C :   -0.061487
  20 C :   -0.143781
  21 H :    0.018553
  22 C :    0.113273
  23 H :    0.036652
  24 H :    0.008919
  25 C :   -0.070598
  26 H :    0.041020
  27 H :    0.022006
  28 C :   -0.000435
  29 H :    0.015575
  30 H :    0.016306
  31 H :    0.020185
  32 H :    0.057323
  33 H :    0.059515
Sum of atomic charges:   -0.0000000

LOEWDIN ATOMIC CHARGES
----------------------
   0 S :    0.401851
   1 C :   -0.200318
   2 C :   -0.058718
   3 C :   -0.049422
   4 C :   -0.186303
   5 H :    0.023583
   6 C :   -0.037003
   7 H :    0.028838
   8 H :    0.036363
   9 C :   -0.046269
  10 H :    0.026201
  11 H :    0.022470
  12 C :   -0.068827
  13 H :    0.028772
  14 H :    0.026400
  15 H :    0.033429
  16 S :    0.399353
  17 C :   -0.194373
  18 C :   -0.076351
  19 C :   -0.062853
  20 C :   -0.191751
  21 H :    0.028420
  22 C :   -0.023003
  23 H :    0.033738
  24 H :    0.027259
  25 C :   -0.036771
  26 H :    0.026736
  27 H :    0.021376
  28 C :   -0.047973
  29 H :    0.015141
  30 H :    0.018552
  31 H :    0.023226
  32 H :    0.027571
  33 H :    0.030658

  Mayer bond orders larger than 0.100000
B(  0-S ,  1-C ) :   1.1455 B(  0-S ,  4-C ) :   1.1417 B(  1-C ,  2-C ) :   1.5842
B(  1-C , 32-H ) :   0.9665 B(  2-C ,  3-C ) :   1.2513 B(  2-C ,  6-C ) :   1.0167
B(  3-C ,  4-C ) :   1.5421 B(  3-C ,  5-H ) :   0.9954 B(  4-C , 20-C ) :   1.0787
B(  6-C ,  7-H ) :   0.9464 B(  6-C ,  8-H ) :   0.9431 B(  6-C ,  9-C ) :   1.0575
B(  9-C , 10-H ) :   0.9580 B(  9-C , 11-H ) :   0.9576 B(  9-C , 12-C ) :   1.0821
B( 12-C , 13-H ) :   0.9710 B( 12-C , 14-H ) :   0.9744 B( 12-C , 15-H ) :   0.9714
B( 16-S , 17-C ) :   1.1620 B( 16-S , 20-C ) :   1.1357 B( 17-C , 18-C ) :   1.5809
B( 17-C , 20-C ) :   0.1132 B( 17-C , 33-H ) :   0.9693 B( 18-C , 19-C ) :   1.2748
B( 18-C , 21-H ) :   0.9860 B( 19-C , 20-C ) :   1.5693 B( 19-C , 22-C ) :   1.0096
B( 22-C , 23-H ) :   0.9365 B( 22-C , 24-H ) :   0.9343 B( 22-C , 25-C ) :   1.0562
B( 25-C , 26-H ) :   0.9621 B( 25-C , 27-H ) :   0.9556 B( 25-C , 28-C ) :   1.0754
B( 28-C , 29-H ) :   0.9779 B( 28-C , 30-H ) :   0.9725 B( 28-C , 31-H ) :   0.9748

Dispersion correction           -0.014813468
FINAL SINGLE POINT ENERGY     -1339.862462707128

DIPOLE MOMENT
-------------
                                X             Y             Z
Electronic contribution:     15.85998       6.20466      13.20358
Nuclear contribution   :    -16.33711      -6.34327     -13.47273
                        -----------------------------------------
Total Dipole Moment    :     -0.47713      -0.13861      -0.26916
                        -----------------------------------------
Magnitude (a.u.)       :      0.56508
Magnitude (Debye)      :      1.43631

Rotational constants in cm-1:     0.018843     0.008603     0.007681
Rotational constants in MHz :   564.890727   257.903182   230.257353

                             ****ORCA TERMINATED NORMALLY****
TOTAL RUN TIME: 0 days 0 hours 0 minutes 35 seconds 302 msec
