                         Program Version 4.2.1 -  RELEASE  -
|  1> ! wB97X-D3 SP def2-SVP
|  2> %pal
|  3> nprocs 16
|  4> end
|  5>
|  6> * xyz 0 1
|  7> S 	 -73.9823 	 51.7092 	 138.73
|  8> C 	 -73.3691 	 53.1983 	 139.383
|  9> C 	 -73.2815 	 54.2078 	 138.453
| 10> C 	 -73.6338 	 53.7541 	 137.18
| 11> C 	 -73.9698 	 52.4003 	 137.101
| 12> H 	 -73.4798 	 54.2739 	 136.255
| 13> C 	 -72.7093 	 55.5852 	 138.661
| 14> H 	 -72.476 	 56.0258 	 137.728
| 15> H 	 -71.7183 	 55.3468 	 139.11
| 16> C 	 -73.5585 	 56.5184 	 139.515
| 17> H 	 -74.4853 	 56.6341 	 138.957
| 18> H 	 -73.8489 	 56.003 	 140.418
| 19> C 	 -72.8045 	 57.8651 	 139.775
| 20> H 	 -72.7169 	 58.4453 	 138.807
| 21> H 	 -73.4012 	 58.5758 	 140.361
| 22> H 	 -71.8784 	 57.6511 	 140.305
| 23> S 	 -72.9049 	 50.4944 	 135.366
| 24> C 	 -73.9679 	 49.8431 	 134.124
| 25> C 	 -75.2255 	 50.4119 	 134.114
| 26> C 	 -75.3776 	 51.255 	 135.216
| 27> C 	 -74.1977 	 51.4896 	 135.968
| 28> H 	 -75.9874 	 49.9283 	 133.483
| 29> C 	 -76.7357 	 51.7989 	 135.605
| 30> H 	 -76.9913 	 52.7406 	 135.094
| 31> H 	 -76.7649 	 52.1421 	 136.618
| 32> C 	 -77.898 	 50.8035 	 135.277
| 33> H 	 -77.6563 	 49.8903 	 135.852
| 34> H 	 -78.0056 	 50.5777 	 134.222
| 35> C 	 -79.2703 	 51.3784 	 135.711
| 36> H 	 -79.4949 	 52.2332 	 135.041
| 37> H 	 -79.1063 	 51.8099 	 136.702
| 38> H 	 -80.1663 	 50.766 	 135.676
| 39> H 	 -72.8698 	 53.1907 	 140.391
| 40> H 	 -73.7531 	 49.0086 	 133.466
| 41> *
| 42>
| 43>                          ****END OF INPUT****

CARTESIAN COORDINATES (ANGSTROEM)
---------------------------------
  S    -73.982300   51.709200  138.730000
  C    -73.369100   53.198300  139.383000
  C    -73.281500   54.207800  138.453000
  C    -73.633800   53.754100  137.180000
  C    -73.969800   52.400300  137.101000
  H    -73.479800   54.273900  136.255000
  C    -72.709300   55.585200  138.661000
  H    -72.476000   56.025800  137.728000
  H    -71.718300   55.346800  139.110000
  C    -73.558500   56.518400  139.515000
  H    -74.485300   56.634100  138.957000
  H    -73.848900   56.003000  140.418000
  C    -72.804500   57.865100  139.775000
  H    -72.716900   58.445300  138.807000
  H    -73.401200   58.575800  140.361000
  H    -71.878400   57.651100  140.305000
  S    -72.904900   50.494400  135.366000
  C    -73.967900   49.843100  134.124000
  C    -75.225500   50.411900  134.114000
  C    -75.377600   51.255000  135.216000
  C    -74.197700   51.489600  135.968000
  H    -75.987400   49.928300  133.483000
  C    -76.735700   51.798900  135.605000
  H    -76.991300   52.740600  135.094000
  H    -76.764900   52.142100  136.618000
  C    -77.898000   50.803500  135.277000
  H    -77.656300   49.890300  135.852000
  H    -78.005600   50.577700  134.222000
  C    -79.270300   51.378400  135.711000
  H    -79.494900   52.233200  135.041000
  H    -79.106300   51.809900  136.702000
  H    -80.166300   50.766000  135.676000
  H    -72.869800   53.190700  140.391000
  H    -73.753100   49.008600  133.466000

 Total Charge           Charge          ....    0
 Multiplicity           Mult            ....    1
 Number of Electrons    NEL             ....  134
 Basis Dimension        Dim             ....  322

ORBITAL ENERGIES
----------------

  NO   OCC          E(Eh)            E(eV)
   0   2.0000     -88.969145     -2420.9735
   1   2.0000     -88.963639     -2420.8237
   2   2.0000     -10.329181      -281.0713
   3   2.0000     -10.324965      -280.9566
   4   2.0000     -10.317652      -280.7576
   5   2.0000     -10.314939      -280.6838
   6   2.0000     -10.303438      -280.3708
   7   2.0000     -10.296868      -280.1920
   8   2.0000     -10.292336      -280.0687
   9   2.0000     -10.291612      -280.0490
  10   2.0000     -10.288506      -279.9645
  11   2.0000     -10.288167      -279.9553
  12   2.0000     -10.287406      -279.9345
  13   2.0000     -10.287148      -279.9275
  14   2.0000     -10.286800      -279.9181
  15   2.0000     -10.278096      -279.6812
  16   2.0000      -8.083532      -219.9641
  17   2.0000      -8.078469      -219.8263
  18   2.0000      -6.041895      -164.4083
  19   2.0000      -6.038028      -164.3031
  20   2.0000      -6.036819      -164.2702
  21   2.0000      -6.034531      -164.2079
  22   2.0000      -6.032876      -164.1629
  23   2.0000      -6.029482      -164.0706
  24   2.0000      -1.004868       -27.3438
  25   2.0000      -0.986136       -26.8341
  26   2.0000      -0.912331       -24.8258
  27   2.0000      -0.904354       -24.6087
  28   2.0000      -0.866306       -23.5734
  29   2.0000      -0.849162       -23.1069
  30   2.0000      -0.846981       -23.0475
  31   2.0000      -0.813050       -22.1242
  32   2.0000      -0.780230       -21.2311
  33   2.0000      -0.764021       -20.7901
  34   2.0000      -0.705551       -19.1990
  35   2.0000      -0.700997       -19.0751
  36   2.0000      -0.697909       -18.9911
  37   2.0000      -0.648494       -17.6464
  38   2.0000      -0.643441       -17.5089
  39   2.0000      -0.618033       -16.8175
  40   2.0000      -0.598512       -16.2863
  41   2.0000      -0.575190       -15.6517
  42   2.0000      -0.563788       -15.3414
  43   2.0000      -0.559665       -15.2293
  44   2.0000      -0.526928       -14.3384
  45   2.0000      -0.518164       -14.1000
  46   2.0000      -0.516346       -14.0505
  47   2.0000      -0.507476       -13.8091
  48   2.0000      -0.503978       -13.7139
  49   2.0000      -0.497434       -13.5359
  50   2.0000      -0.486171       -13.2294
  51   2.0000      -0.472845       -12.8668
  52   2.0000      -0.466332       -12.6895
  53   2.0000      -0.462808       -12.5936
  54   2.0000      -0.458656       -12.4807
  55   2.0000      -0.452531       -12.3140
  56   2.0000      -0.443190       -12.0598
  57   2.0000      -0.435443       -11.8490
  58   2.0000      -0.429191       -11.6789
  59   2.0000      -0.425971       -11.5912
  60   2.0000      -0.423265       -11.5176
  61   2.0000      -0.420464       -11.4414
  62   2.0000      -0.417715       -11.3666
  63   2.0000      -0.341539        -9.2937
  64   2.0000      -0.332578        -9.0499
  65   2.0000      -0.311643        -8.4802
  66   2.0000      -0.306432        -8.3384
  67   0.0000       0.034513         0.9391
  68   0.0000       0.054907         1.4941
  69   0.0000       0.120192         3.2706
  70   0.0000       0.125057         3.4030
  71   0.0000       0.125699         3.4204

MULLIKEN ATOMIC CHARGES
-----------------------
   0 S :    0.111177
   1 C :   -0.153534
   2 C :   -0.082268
   3 C :    0.063369
   4 C :   -0.213746
   5 H :    0.006689
   6 C :    0.073755
   7 H :    0.002570
   8 H :    0.030663
   9 C :   -0.058798
  10 H :    0.025860
  11 H :    0.025370
  12 C :   -0.053879
  13 H :    0.040237
  14 H :    0.033541
  15 H :    0.043170
  16 S :    0.131249
  17 C :   -0.102866
  18 C :   -0.037162
  19 C :   -0.013932
  20 C :   -0.170277
  21 H :    0.037745
  22 C :    0.084950
  23 H :    0.024970
  24 H :    0.014833
  25 C :   -0.120491
  26 H :    0.043750
  27 H :    0.038652
  28 C :   -0.046040
  29 H :    0.024607
  30 H :    0.027487
  31 H :    0.042085
  32 H :    0.071798
  33 H :    0.054465
Sum of atomic charges:   -0.0000000

LOEWDIN ATOMIC CHARGES
----------------------
   0 S :    0.405697
   1 C :   -0.207339
   2 C :   -0.070130
   3 C :   -0.055019
   4 C :   -0.194172
   5 H :    0.031367
   6 C :   -0.029093
   7 H :    0.021278
   8 H :    0.035307
   9 C :   -0.037095
  10 H :    0.025575
  11 H :    0.021029
  12 C :   -0.069329
  13 H :    0.034055
  14 H :    0.025858
  15 H :    0.027070
  16 S :    0.419605
  17 C :   -0.176850
  18 C :   -0.078880
  19 C :   -0.048632
  20 C :   -0.227977
  21 H :    0.041152
  22 C :   -0.031965
  23 H :    0.032971
  24 H :    0.025472
  25 C :   -0.040042
  26 H :    0.026597
  27 H :    0.019952
  28 C :   -0.069687
  29 H :    0.026153
  30 H :    0.024926
  31 H :    0.025515
  32 H :    0.037562
  33 H :    0.029066

  Mayer bond orders larger than 0.100000
B(  0-S ,  1-C ) :   1.1600 B(  0-S ,  4-C ) :   1.1626 B(  1-C ,  2-C ) :   1.5898
B(  1-C ,  4-C ) :   0.1064 B(  1-C , 32-H ) :   0.9584 B(  2-C ,  3-C ) :   1.2643
B(  2-C ,  6-C ) :   1.0077 B(  3-C ,  4-C ) :   1.5784 B(  3-C ,  5-H ) :   0.9989
B(  4-C , 20-C ) :   1.0106 B(  6-C ,  7-H ) :   0.9417 B(  6-C ,  8-H ) :   0.9381
B(  6-C ,  9-C ) :   1.0567 B(  9-C , 10-H ) :   0.9536 B(  9-C , 11-H ) :   0.9605
B(  9-C , 12-C ) :   1.0738 B( 12-C , 13-H ) :   0.9734 B( 12-C , 14-H ) :   0.9755
B( 12-C , 15-H ) :   0.9763 B( 16-S , 17-C ) :   1.1770 B( 16-S , 20-C ) :   1.1485
B( 17-C , 18-C ) :   1.6000 B( 17-C , 20-C ) :   0.1064 B( 17-C , 33-H ) :   0.9613
B( 18-C , 19-C ) :   1.2778 B( 18-C , 21-H ) :   0.9749 B( 19-C , 20-C ) :   1.5652
B( 19-C , 22-C ) :   1.0478 B( 22-C , 23-H ) :   0.9265 B( 22-C , 24-H ) :   0.9304
B( 22-C , 25-C ) :   1.0541 B( 25-C , 26-H ) :   0.9619 B( 25-C , 27-H ) :   0.9508
B( 25-C , 28-C ) :   1.0779 B( 28-C , 29-H ) :   0.9739 B( 28-C , 30-H ) :   0.9750
B( 28-C , 31-H ) :   0.9759

Dispersion correction           -0.013411095
FINAL SINGLE POINT ENERGY     -1339.879161151791

DIPOLE MOMENT
-------------
                                X             Y             Z
Electronic contribution:     14.05623     -18.98023      -3.59653
Nuclear contribution   :    -14.20503      19.27907       3.50167
                        -----------------------------------------
Total Dipole Moment    :     -0.14880       0.29884      -0.09485
                        -----------------------------------------
Magnitude (a.u.)       :      0.34705
Magnitude (Debye)      :      0.88213

Rotational constants in cm-1:     0.020132     0.007005     0.005969
Rotational constants in MHz :   603.550400   209.991225   178.933344

                             ****ORCA TERMINATED NORMALLY****
TOTAL RUN TIME: 0 days 0 hours 0 minutes 33 seconds 402 msec
