                         Program Version 4.2.1 -  RELEASE  -
|  1> ! wB97X-D3 SP def2-SVP
|  2> %pal
|  3> nprocs 16
|  4> end
|  5>
|  6> * xyz 0 1
|  7> S 	 56.5851 	 24.2288 	 41.9796
|  8> C 	 58.294 	 24.4264 	 42.2506
|  9> C 	 58.622 	 23.6358 	 43.3736
| 10> C 	 57.4927 	 23.0972 	 44.0458
| 11> C 	 56.2817 	 23.3 	 43.3542
| 12> H 	 57.5302 	 22.631 	 44.9698
| 13> C 	 60.0118 	 23.6398 	 43.9829
| 14> H 	 60.6903 	 23.8483 	 43.1225
| 15> H 	 60.316 	 22.6342 	 44.203
| 16> C 	 60.3479 	 24.5391 	 45.1357
| 17> H 	 61.4187 	 24.6247 	 45.2663
| 18> H 	 60.1104 	 25.5512 	 44.805
| 19> C 	 59.6687 	 24.2686 	 46.4805
| 20> H 	 58.6263 	 24.644 	 46.4045
| 21> H 	 59.6629 	 23.1411 	 46.7578
| 22> H 	 60.0714 	 24.8487 	 47.3348
| 23> S 	 54.065 	 24.0884 	 44.6598
| 24> C 	 52.9241 	 22.9122 	 45.2053
| 25> C 	 53.1735 	 21.6532 	 44.6373
| 26> C 	 54.4138 	 21.651 	 43.8877
| 27> C 	 54.9975 	 22.8576 	 43.8447
| 28> H 	 52.4829 	 20.8656 	 44.8462
| 29> C 	 55.0908 	 20.3778 	 43.4115
| 30> H 	 54.3368 	 19.5977 	 43.4659
| 31> H 	 55.9128 	 20.1798 	 44.1136
| 32> C 	 55.5901 	 20.476 	 41.9227
| 33> H 	 56.508 	 21.0975 	 41.894
| 34> H 	 54.7619 	 21.0349 	 41.4552
| 35> C 	 55.8658 	 19.1087 	 41.3586
| 36> H 	 55.93 	 19.296 	 40.2756
| 37> H 	 55.0695 	 18.3939 	 41.5383
| 38> H 	 56.8248 	 18.6758 	 41.7338
| 39> H 	 58.9532 	 25.1073 	 41.6638
| 40> H 	 52.0954 	 23.1462 	 45.865
| 41> *
| 42>
| 43>                          ****END OF INPUT****

CARTESIAN COORDINATES (ANGSTROEM)
---------------------------------
  S     56.585100   24.228800   41.979600
  C     58.294000   24.426400   42.250600
  C     58.622000   23.635800   43.373600
  C     57.492700   23.097200   44.045800
  C     56.281700   23.300000   43.354200
  H     57.530200   22.631000   44.969800
  C     60.011800   23.639800   43.982900
  H     60.690300   23.848300   43.122500
  H     60.316000   22.634200   44.203000
  C     60.347900   24.539100   45.135700
  H     61.418700   24.624700   45.266300
  H     60.110400   25.551200   44.805000
  C     59.668700   24.268600   46.480500
  H     58.626300   24.644000   46.404500
  H     59.662900   23.141100   46.757800
  H     60.071400   24.848700   47.334800
  S     54.065000   24.088400   44.659800
  C     52.924100   22.912200   45.205300
  C     53.173500   21.653200   44.637300
  C     54.413800   21.651000   43.887700
  C     54.997500   22.857600   43.844700
  H     52.482900   20.865600   44.846200
  C     55.090800   20.377800   43.411500
  H     54.336800   19.597700   43.465900
  H     55.912800   20.179800   44.113600
  C     55.590100   20.476000   41.922700
  H     56.508000   21.097500   41.894000
  H     54.761900   21.034900   41.455200
  C     55.865800   19.108700   41.358600
  H     55.930000   19.296000   40.275600
  H     55.069500   18.393900   41.538300
  H     56.824800   18.675800   41.733800
  H     58.953200   25.107300   41.663800
  H     52.095400   23.146200   45.865000

 Total Charge           Charge          ....    0
 Multiplicity           Mult            ....    1
 Number of Electrons    NEL             ....  134
 Basis Dimension        Dim             ....  322

ORBITAL ENERGIES
----------------

  NO   OCC          E(Eh)            E(eV)
   0   2.0000     -88.967495     -2420.9286
   1   2.0000     -88.961534     -2420.7664
   2   2.0000     -10.324657      -280.9482
   3   2.0000     -10.320922      -280.8466
   4   2.0000     -10.317958      -280.7659
   5   2.0000     -10.316391      -280.7233
   6   2.0000     -10.302708      -280.3509
   7   2.0000     -10.299090      -280.2525
   8   2.0000     -10.295618      -280.1580
   9   2.0000     -10.288517      -279.9648
  10   2.0000     -10.288452      -279.9630
  11   2.0000     -10.287931      -279.9488
  12   2.0000     -10.287163      -279.9279
  13   2.0000     -10.283795      -279.8363
  14   2.0000     -10.282406      -279.7985
  15   2.0000     -10.276311      -279.6326
  16   2.0000      -8.082915      -219.9473
  17   2.0000      -8.077155      -219.7906
  18   2.0000      -6.041215      -164.3898
  19   2.0000      -6.036955      -164.2739
  20   2.0000      -6.035548      -164.2356
  21   2.0000      -6.034204      -164.1990
  22   2.0000      -6.031533      -164.1264
  23   2.0000      -6.027981      -164.0297
  24   2.0000      -1.012596       -27.5541
  25   2.0000      -0.987607       -26.8742
  26   2.0000      -0.913124       -24.8474
  27   2.0000      -0.905477       -24.6393
  28   2.0000      -0.868688       -23.6382
  29   2.0000      -0.851081       -23.1591
  30   2.0000      -0.845262       -23.0007
  31   2.0000      -0.812276       -22.1032
  32   2.0000      -0.781931       -21.2774
  33   2.0000      -0.769955       -20.9515
  34   2.0000      -0.703663       -19.1476
  35   2.0000      -0.698418       -19.0049
  36   2.0000      -0.686076       -18.6691
  37   2.0000      -0.665162       -18.1000
  38   2.0000      -0.645848       -17.5744
  39   2.0000      -0.613860       -16.7040
  40   2.0000      -0.589031       -16.0284
  41   2.0000      -0.573946       -15.6179
  42   2.0000      -0.567242       -15.4354
  43   2.0000      -0.546567       -14.8729
  44   2.0000      -0.541460       -14.7339
  45   2.0000      -0.525383       -14.2964
  46   2.0000      -0.516875       -14.0649
  47   2.0000      -0.509367       -13.8606
  48   2.0000      -0.507008       -13.7964
  49   2.0000      -0.497544       -13.5389
  50   2.0000      -0.491182       -13.3657
  51   2.0000      -0.482397       -13.1267
  52   2.0000      -0.474683       -12.9168
  53   2.0000      -0.469701       -12.7812
  54   2.0000      -0.459790       -12.5115
  55   2.0000      -0.448301       -12.1989
  56   2.0000      -0.441846       -12.0232
  57   2.0000      -0.430524       -11.7151
  58   2.0000      -0.422015       -11.4836
  59   2.0000      -0.420904       -11.4534
  60   2.0000      -0.417865       -11.3707
  61   2.0000      -0.411259       -11.1909
  62   2.0000      -0.406854       -11.0711
  63   2.0000      -0.334817        -9.1108
  64   2.0000      -0.327279        -8.9057
  65   2.0000      -0.324278        -8.8240
  66   2.0000      -0.308012        -8.3814
  67   0.0000       0.043745         1.1904
  68   0.0000       0.057549         1.5660
  69   0.0000       0.119420         3.2496
  70   0.0000       0.126774         3.4497
  71   0.0000       0.128080         3.4852

MULLIKEN ATOMIC CHARGES
-----------------------
   0 S :    0.132911
   1 C :   -0.151254
   2 C :   -0.084843
   3 C :    0.066221
   4 C :   -0.179928
   5 H :   -0.015761
   6 C :    0.056538
   7 H :    0.016048
   8 H :    0.014322
   9 C :   -0.023663
  10 H :    0.024209
  11 H :    0.012696
  12 C :   -0.098025
  13 H :    0.046924
  14 H :    0.044743
  15 H :    0.041363
  16 S :    0.116967
  17 C :   -0.100870
  18 C :   -0.040772
  19 C :   -0.030662
  20 C :   -0.180735
  21 H :    0.012832
  22 C :    0.090478
  23 H :    0.004998
  24 H :    0.042884
  25 C :   -0.126576
  26 H :    0.059058
  27 H :    0.037551
  28 C :   -0.024111
  29 H :    0.038254
  30 H :    0.026172
  31 H :    0.038618
  32 H :    0.073733
  33 H :    0.059682
Sum of atomic charges:   -0.0000000

LOEWDIN ATOMIC CHARGES
----------------------
   0 S :    0.450395
   1 C :   -0.214392
   2 C :   -0.064408
   3 C :   -0.055550
   4 C :   -0.224735
   5 H :    0.018843
   6 C :   -0.038897
   7 H :    0.035897
   8 H :    0.024387
   9 C :   -0.045807
  10 H :    0.024593
  11 H :    0.024651
  12 C :   -0.079469
  13 H :    0.030657
  14 H :    0.031635
  15 H :    0.030454
  16 S :    0.416654
  17 C :   -0.186110
  18 C :   -0.071682
  19 C :   -0.055419
  20 C :   -0.207266
  21 H :    0.028020
  22 C :   -0.027545
  23 H :    0.023461
  24 H :    0.034416
  25 C :   -0.045181
  26 H :    0.030548
  27 H :    0.026431
  28 C :   -0.067983
  29 H :    0.031883
  30 H :    0.020655
  31 H :    0.031035
  32 H :    0.040939
  33 H :    0.028888

  Mayer bond orders larger than 0.100000
B(  0-S ,  1-C ) :   1.1659 B(  0-S ,  4-C ) :   1.1949 B(  1-C ,  2-C ) :   1.5319
B(  1-C ,  4-C ) :   0.1078 B(  1-C , 32-H ) :   0.9696 B(  2-C ,  3-C ) :   1.2918
B(  2-C ,  6-C ) :   1.0364 B(  3-C ,  4-C ) :   1.5066 B(  3-C ,  5-H ) :   1.0072
B(  4-C , 20-C ) :   1.0093 B(  6-C ,  7-H ) :   0.9332 B(  6-C ,  8-H ) :   0.9340
B(  6-C ,  9-C ) :   1.0796 B(  9-C , 10-H ) :   0.9511 B(  9-C , 11-H ) :   0.9475
B(  9-C , 12-C ) :   1.0761 B( 12-C , 13-H ) :   0.9712 B( 12-C , 14-H ) :   0.9740
B( 12-C , 15-H ) :   0.9710 B( 16-S , 17-C ) :   1.1709 B( 16-S , 20-C ) :   1.1365
B( 17-C , 18-C ) :   1.6107 B( 17-C , 33-H ) :   0.9676 B( 18-C , 19-C ) :   1.2070
B( 18-C , 21-H ) :   0.9984 B( 19-C , 20-C ) :   1.6461 B( 19-C , 22-C ) :   1.0438
B( 22-C , 23-H ) :   0.9323 B( 22-C , 24-H ) :   0.9303 B( 22-C , 25-C ) :   1.0539
B( 25-C , 26-H ) :   0.9449 B( 25-C , 27-H ) :   0.9645 B( 25-C , 28-C ) :   1.0902
B( 28-C , 29-H ) :   0.9723 B( 28-C , 30-H ) :   0.9740 B( 28-C , 31-H ) :   0.9709

Dispersion correction           -0.015227463
FINAL SINGLE POINT ENERGY     -1339.883238577846

DIPOLE MOMENT
-------------
                                X             Y             Z
Electronic contribution:    -15.85709      12.69775      -3.24581
Nuclear contribution   :     16.14731     -12.95062       3.49155
                        -----------------------------------------
Total Dipole Moment    :      0.29022      -0.25286       0.24574
                        -----------------------------------------
Magnitude (a.u.)       :      0.45668
Magnitude (Debye)      :      1.16079

Rotational constants in cm-1:     0.017425     0.009452     0.007899
Rotational constants in MHz :   522.395348   283.367719   236.810704

                             ****ORCA TERMINATED NORMALLY****
TOTAL RUN TIME: 0 days 0 hours 0 minutes 31 seconds 546 msec
