                         Program Version 4.2.1 -  RELEASE  -
|  1> ! wB97X-D3 SP def2-SVP
|  2> %pal
|  3> nprocs 16
|  4> end
|  5>
|  6> * xyz 0 1
|  7> S 	 3.49734 	 16.0451 	 87.4669
|  8> C 	 3.02544 	 16.8076 	 86.0024
|  9> C 	 3.76912 	 16.3635 	 84.9156
| 10> C 	 4.74603 	 15.3511 	 85.3284
| 11> C 	 4.71547 	 15.1351 	 86.6687
| 12> H 	 5.53063 	 14.8634 	 84.7809
| 13> C 	 3.7486 	 17.0132 	 83.5228
| 14> H 	 4.14593 	 16.4048 	 82.8211
| 15> H 	 4.26307 	 17.9898 	 83.5566
| 16> C 	 2.32401 	 17.2652 	 82.9786
| 17> H 	 1.71946 	 16.3725 	 82.8264
| 18> H 	 1.76594 	 17.8522 	 83.6758
| 19> C 	 2.41414 	 18.081 	 81.6879
| 20> H 	 3.05801 	 18.9277 	 81.705
| 21> H 	 2.69252 	 17.3771 	 80.9798
| 22> H 	 1.39749 	 18.31 	 81.4341
| 23> S 	 5.11491 	 12.8696 	 88.2861
| 24> C 	 6.70106 	 12.5278 	 88.7779
| 25> C 	 7.6375 	 13.4636 	 88.3535
| 26> C 	 7.06746 	 14.4975 	 87.5915
| 27> C 	 5.68897 	 14.3402 	 87.4376
| 28> H 	 8.67361 	 13.2905 	 88.5883
| 29> C 	 7.84225 	 15.6278 	 86.9638
| 30> H 	 7.30803 	 16.1174 	 86.1616
| 31> H 	 8.65819 	 15.1805 	 86.4892
| 32> C 	 8.47745 	 16.6406 	 87.9607
| 33> H 	 9.25002 	 17.3648 	 87.6461
| 34> H 	 9.21498 	 16.0224 	 88.552
| 35> C 	 7.48868 	 17.4602 	 88.6918
| 36> H 	 6.63972 	 17.8024 	 88.1097
| 37> H 	 7.88989 	 18.3778 	 89.122
| 38> H 	 7.05461 	 16.8737 	 89.4583
| 39> H 	 2.28257 	 17.5567 	 85.9246
| 40> H 	 6.9927 	 11.5738 	 89.2102
| 41> *
| 42>
| 43>                          ****END OF INPUT****

CARTESIAN COORDINATES (ANGSTROEM)
---------------------------------
  S      3.497340   16.045100   87.466900
  C      3.025440   16.807600   86.002400
  C      3.769120   16.363500   84.915600
  C      4.746030   15.351100   85.328400
  C      4.715470   15.135100   86.668700
  H      5.530630   14.863400   84.780900
  C      3.748600   17.013200   83.522800
  H      4.145930   16.404800   82.821100
  H      4.263070   17.989800   83.556600
  C      2.324010   17.265200   82.978600
  H      1.719460   16.372500   82.826400
  H      1.765940   17.852200   83.675800
  C      2.414140   18.081000   81.687900
  H      3.058010   18.927700   81.705000
  H      2.692520   17.377100   80.979800
  H      1.397490   18.310000   81.434100
  S      5.114910   12.869600   88.286100
  C      6.701060   12.527800   88.777900
  C      7.637500   13.463600   88.353500
  C      7.067460   14.497500   87.591500
  C      5.688970   14.340200   87.437600
  H      8.673610   13.290500   88.588300
  C      7.842250   15.627800   86.963800
  H      7.308030   16.117400   86.161600
  H      8.658190   15.180500   86.489200
  C      8.477450   16.640600   87.960700
  H      9.250020   17.364800   87.646100
  H      9.214980   16.022400   88.552000
  C      7.488680   17.460200   88.691800
  H      6.639720   17.802400   88.109700
  H      7.889890   18.377800   89.122000
  H      7.054610   16.873700   89.458300
  H      2.282570   17.556700   85.924600
  H      6.992700   11.573800   89.210200

 Total Charge           Charge          ....    0
 Multiplicity           Mult            ....    1
 Number of Electrons    NEL             ....  134
 Basis Dimension        Dim             ....  322

ORBITAL ENERGIES
----------------

  NO   OCC          E(Eh)            E(eV)
   0   2.0000     -88.965697     -2420.8797
   1   2.0000     -88.964200     -2420.8390
   2   2.0000     -10.326378      -280.9950
   3   2.0000     -10.321631      -280.8659
   4   2.0000     -10.314669      -280.6764
   5   2.0000     -10.308688      -280.5137
   6   2.0000     -10.304589      -280.4021
   7   2.0000     -10.304561      -280.4014
   8   2.0000     -10.292142      -280.0634
   9   2.0000     -10.291256      -280.0393
  10   2.0000     -10.286730      -279.9162
  11   2.0000     -10.285671      -279.8873
  12   2.0000     -10.285210      -279.8748
  13   2.0000     -10.281087      -279.7626
  14   2.0000     -10.267031      -279.3801
  15   2.0000     -10.261285      -279.2238
  16   2.0000      -8.080920      -219.8930
  17   2.0000      -8.080076      -219.8700
  18   2.0000      -6.039149      -164.3336
  19   2.0000      -6.038475      -164.3152
  20   2.0000      -6.035329      -164.2296
  21   2.0000      -6.034336      -164.2026
  22   2.0000      -6.031982      -164.1386
  23   2.0000      -6.030980      -164.1113
  24   2.0000      -1.008664       -27.4471
  25   2.0000      -0.987550       -26.8726
  26   2.0000      -0.914733       -24.8911
  27   2.0000      -0.910631       -24.7795
  28   2.0000      -0.868208       -23.6252
  29   2.0000      -0.855131       -23.2693
  30   2.0000      -0.849342       -23.1118
  31   2.0000      -0.813804       -22.1447
  32   2.0000      -0.788364       -21.4525
  33   2.0000      -0.773400       -21.0453
  34   2.0000      -0.706730       -19.2311
  35   2.0000      -0.700894       -19.0723
  36   2.0000      -0.690491       -18.7892
  37   2.0000      -0.657508       -17.8917
  38   2.0000      -0.648908       -17.6577
  39   2.0000      -0.613161       -16.6850
  40   2.0000      -0.595916       -16.2157
  41   2.0000      -0.581221       -15.8158
  42   2.0000      -0.565853       -15.3977
  43   2.0000      -0.556799       -15.1513
  44   2.0000      -0.542840       -14.7714
  45   2.0000      -0.523903       -14.2561
  46   2.0000      -0.515861       -14.0373
  47   2.0000      -0.509348       -13.8601
  48   2.0000      -0.508318       -13.8320
  49   2.0000      -0.496429       -13.5085
  50   2.0000      -0.493705       -13.4344
  51   2.0000      -0.480857       -13.0848
  52   2.0000      -0.477514       -12.9938
  53   2.0000      -0.467153       -12.7119
  54   2.0000      -0.462360       -12.5814
  55   2.0000      -0.449830       -12.2405
  56   2.0000      -0.446361       -12.1461
  57   2.0000      -0.438757       -11.9392
  58   2.0000      -0.436508       -11.8780
  59   2.0000      -0.426017       -11.5925
  60   2.0000      -0.420757       -11.4494
  61   2.0000      -0.416467       -11.3326
  62   2.0000      -0.392509       -10.6807
  63   2.0000      -0.338827        -9.2199
  64   2.0000      -0.334750        -9.1090
  65   2.0000      -0.326465        -8.8836
  66   2.0000      -0.298572        -8.1246
  67   0.0000       0.043412         1.1813
  68   0.0000       0.062036         1.6881
  69   0.0000       0.119709         3.2574
  70   0.0000       0.123804         3.3689
  71   0.0000       0.132256         3.5989

MULLIKEN ATOMIC CHARGES
-----------------------
   0 S :    0.126710
   1 C :   -0.108743
   2 C :   -0.096128
   3 C :    0.054902
   4 C :   -0.169776
   5 H :    0.009991
   6 C :    0.123117
   7 H :   -0.008973
   8 H :    0.044792
   9 C :   -0.131591
  10 H :    0.033035
  11 H :    0.012794
  12 C :    0.012638
  13 H :    0.031117
  14 H :    0.009754
  15 H :    0.020285
  16 S :    0.118765
  17 C :   -0.090687
  18 C :   -0.052065
  19 C :    0.003017
  20 C :   -0.203598
  21 H :    0.014603
  22 C :    0.129188
  23 H :    0.021457
  24 H :    0.006029
  25 C :   -0.106513
  26 H :    0.021676
  27 H :    0.018394
  28 C :   -0.014349
  29 H :    0.026027
  30 H :    0.024791
  31 H :    0.026877
  32 H :    0.033114
  33 H :    0.059353
Sum of atomic charges:    0.0000000

LOEWDIN ATOMIC CHARGES
----------------------
   0 S :    0.432428
   1 C :   -0.202419
   2 C :   -0.057593
   3 C :   -0.061081
   4 C :   -0.208875
   5 H :    0.031561
   6 C :   -0.019986
   7 H :    0.012588
   8 H :    0.039074
   9 C :   -0.033851
  10 H :    0.026265
  11 H :    0.010155
  12 C :   -0.052781
  13 H :    0.021272
  14 H :    0.017108
  15 H :    0.026484
  16 S :    0.415062
  17 C :   -0.197171
  18 C :   -0.075067
  19 C :   -0.047834
  20 C :   -0.194792
  21 H :    0.030677
  22 C :   -0.022170
  23 H :    0.027779
  24 H :    0.026328
  25 C :   -0.052883
  26 H :    0.027105
  27 H :    0.025337
  28 C :   -0.067644
  29 H :    0.028193
  30 H :    0.025950
  31 H :    0.022534
  32 H :    0.018337
  33 H :    0.029911

  Mayer bond orders larger than 0.100000
B(  0-S ,  1-C ) :   1.1420 B(  0-S ,  4-C ) :   1.1662 B(  1-C ,  2-C ) :   1.6174
B(  1-C , 32-H ) :   0.9761 B(  2-C ,  3-C ) :   1.2083 B(  2-C ,  6-C ) :   1.0196
B(  3-C ,  4-C ) :   1.6061 B(  3-C ,  5-H ) :   0.9991 B(  4-C , 20-C ) :   1.0010
B(  6-C ,  7-H ) :   0.9400 B(  6-C ,  8-H ) :   0.9408 B(  6-C ,  9-C ) :   1.0619
B(  9-C , 10-H ) :   0.9583 B(  9-C , 11-H ) :   0.9582 B(  9-C , 12-C ) :   1.0863
B( 12-C , 13-H ) :   0.9753 B( 12-C , 14-H ) :   0.9731 B( 12-C , 15-H ) :   0.9692
B( 16-S , 17-C ) :   1.1812 B( 16-S , 20-C ) :   1.1506 B( 17-C , 18-C ) :   1.5907
B( 17-C , 20-C ) :   0.1027 B( 17-C , 33-H ) :   0.9632 B( 18-C , 19-C ) :   1.2457
B( 18-C , 21-H ) :   0.9950 B( 19-C , 20-C ) :   1.5790 B( 19-C , 22-C ) :   1.0397
B( 22-C , 23-H ) :   0.9380 B( 22-C , 24-H ) :   0.9220 B( 22-C , 25-C ) :   1.0667
B( 25-C , 26-H ) :   0.9600 B( 25-C , 27-H ) :   0.9537 B( 25-C , 28-C ) :   1.0697
B( 28-C , 29-H ) :   0.9707 B( 28-C , 30-H ) :   0.9743 B( 28-C , 31-H ) :   0.9732

Dispersion correction           -0.014635837
FINAL SINGLE POINT ENERGY     -1339.869270108423

DIPOLE MOMENT
-------------
                                X             Y             Z
Electronic contribution:     -5.52609     -18.19978      16.09767
Nuclear contribution   :      5.90384      18.43046     -16.57724
                        -----------------------------------------
Total Dipole Moment    :      0.37775       0.23068      -0.47956
                        -----------------------------------------
Magnitude (a.u.)       :      0.65260
Magnitude (Debye)      :      1.65878

Rotational constants in cm-1:     0.022703     0.007444     0.006605
Rotational constants in MHz :   680.614176   223.163589   198.012064

                             ****ORCA TERMINATED NORMALLY****
TOTAL RUN TIME: 0 days 0 hours 0 minutes 34 seconds 945 msec
