                         Program Version 4.2.1 -  RELEASE  -
|  1> ! wB97X-D3 SP def2-SVP
|  2> %pal
|  3> nprocs 16
|  4> end
|  5>
|  6> * xyz 0 1
|  7> S 	 23.5897 	 7.90212 	 71.862
|  8> C 	 25.0104 	 8.47541 	 71.0409
|  9> C 	 24.8101 	 8.69268 	 69.6652
| 10> C 	 23.4923 	 8.49806 	 69.2841
| 11> C 	 22.6676 	 8.293 	 70.4039
| 12> H 	 22.9701 	 8.51104 	 68.3774
| 13> C 	 25.8557 	 9.16736 	 68.6714
| 14> H 	 26.764 	 8.70335 	 68.9419
| 15> H 	 26.034 	 10.2065 	 68.7622
| 16> C 	 25.552 	 8.89103 	 67.2183
| 17> H 	 25.4592 	 7.81735 	 67.0726
| 18> H 	 24.6362 	 9.40607 	 66.9045
| 19> C 	 26.6692 	 9.40299 	 66.2984
| 20> H 	 27.6241 	 8.91217 	 66.5159
| 21> H 	 26.526 	 9.19086 	 65.2096
| 22> H 	 26.691 	 10.4028 	 66.3813
| 23> S 	 20.4375 	 7.07103 	 71.3697
| 24> C 	 18.9041 	 7.78362 	 71.1491
| 25> C 	 19.0034 	 8.85949 	 70.2818
| 26> C 	 20.3212 	 9.16087 	 69.9308
| 27> C 	 21.2315 	 8.32238 	 70.5272
| 28> H 	 18.0956 	 9.29745 	 69.8951
| 29> C 	 20.718 	 10.3862 	 69.11
| 30> H 	 20.4397 	 10.1809 	 68.1425
| 31> H 	 21.7699 	 10.5342 	 69.0892
| 32> C 	 20.2127 	 11.7581 	 69.6477
| 33> H 	 20.6789 	 12.0591 	 70.5605
| 34> H 	 19.0987 	 11.7408 	 69.9434
| 35> C 	 20.24 	 12.9625 	 68.5397
| 36> H 	 21.2906 	 13.2908 	 68.3853
| 37> H 	 19.5927 	 13.7399 	 68.9122
| 38> H 	 19.8312 	 12.6184 	 67.5435
| 39> H 	 25.9906 	 8.68706 	 71.4405
| 40> H 	 17.8759 	 7.35401 	 71.2568
| 41> *
| 42>
| 43>                          ****END OF INPUT****

CARTESIAN COORDINATES (ANGSTROEM)
---------------------------------
  S     23.589700    7.902120   71.862000
  C     25.010400    8.475410   71.040900
  C     24.810100    8.692680   69.665200
  C     23.492300    8.498060   69.284100
  C     22.667600    8.293000   70.403900
  H     22.970100    8.511040   68.377400
  C     25.855700    9.167360   68.671400
  H     26.764000    8.703350   68.941900
  H     26.034000   10.206500   68.762200
  C     25.552000    8.891030   67.218300
  H     25.459200    7.817350   67.072600
  H     24.636200    9.406070   66.904500
  C     26.669200    9.402990   66.298400
  H     27.624100    8.912170   66.515900
  H     26.526000    9.190860   65.209600
  H     26.691000   10.402800   66.381300
  S     20.437500    7.071030   71.369700
  C     18.904100    7.783620   71.149100
  C     19.003400    8.859490   70.281800
  C     20.321200    9.160870   69.930800
  C     21.231500    8.322380   70.527200
  H     18.095600    9.297450   69.895100
  C     20.718000   10.386200   69.110000
  H     20.439700   10.180900   68.142500
  H     21.769900   10.534200   69.089200
  C     20.212700   11.758100   69.647700
  H     20.678900   12.059100   70.560500
  H     19.098700   11.740800   69.943400
  C     20.240000   12.962500   68.539700
  H     21.290600   13.290800   68.385300
  H     19.592700   13.739900   68.912200
  H     19.831200   12.618400   67.543500
  H     25.990600    8.687060   71.440500
  H     17.875900    7.354010   71.256800

 Total Charge           Charge          ....    0
 Multiplicity           Mult            ....    1
 Number of Electrons    NEL             ....  134
 Basis Dimension        Dim             ....  322

ORBITAL ENERGIES
----------------

  NO   OCC          E(Eh)            E(eV)
   0   2.0000     -88.969818     -2420.9918
   1   2.0000     -88.966301     -2420.8961
   2   2.0000     -10.328267      -281.0464
   3   2.0000     -10.318549      -280.7820
   4   2.0000     -10.312986      -280.6306
   5   2.0000     -10.310770      -280.5703
   6   2.0000     -10.299658      -280.2679
   7   2.0000     -10.296277      -280.1759
   8   2.0000     -10.294578      -280.1297
   9   2.0000     -10.289664      -279.9960
  10   2.0000     -10.288781      -279.9720
  11   2.0000     -10.288165      -279.9552
  12   2.0000     -10.286060      -279.8979
  13   2.0000     -10.283663      -279.8327
  14   2.0000     -10.282891      -279.8117
  15   2.0000     -10.273776      -279.5637
  16   2.0000      -8.084218      -219.9828
  17   2.0000      -8.082434      -219.9342
  18   2.0000      -6.042543      -164.4260
  19   2.0000      -6.040822      -164.3791
  20   2.0000      -6.038963      -164.3285
  21   2.0000      -6.036706      -164.2671
  22   2.0000      -6.035014      -164.2211
  23   2.0000      -6.033278      -164.1738
  24   2.0000      -1.016956       -27.6728
  25   2.0000      -0.989132       -26.9157
  26   2.0000      -0.918992       -25.0070
  27   2.0000      -0.901113       -24.5205
  28   2.0000      -0.871851       -23.7243
  29   2.0000      -0.854480       -23.2516
  30   2.0000      -0.843434       -22.9510
  31   2.0000      -0.815370       -22.1874
  32   2.0000      -0.784905       -21.3584
  33   2.0000      -0.772061       -21.0089
  34   2.0000      -0.713495       -19.4152
  35   2.0000      -0.699031       -19.0216
  36   2.0000      -0.690921       -18.8009
  37   2.0000      -0.660501       -17.9732
  38   2.0000      -0.644225       -17.5303
  39   2.0000      -0.623959       -16.9788
  40   2.0000      -0.595705       -16.2100
  41   2.0000      -0.585308       -15.9270
  42   2.0000      -0.566092       -15.4042
  43   2.0000      -0.554210       -15.0808
  44   2.0000      -0.526673       -14.3315
  45   2.0000      -0.520058       -14.1515
  46   2.0000      -0.515650       -14.0315
  47   2.0000      -0.511909       -13.9298
  48   2.0000      -0.507252       -13.8030
  49   2.0000      -0.495844       -13.4926
  50   2.0000      -0.490031       -13.3344
  51   2.0000      -0.483330       -13.1521
  52   2.0000      -0.472832       -12.8664
  53   2.0000      -0.470395       -12.8001
  54   2.0000      -0.460277       -12.5248
  55   2.0000      -0.453409       -12.3379
  56   2.0000      -0.445616       -12.1258
  57   2.0000      -0.441102       -12.0030
  58   2.0000      -0.435505       -11.8507
  59   2.0000      -0.427169       -11.6239
  60   2.0000      -0.425336       -11.5740
  61   2.0000      -0.414061       -11.2672
  62   2.0000      -0.409060       -11.1311
  63   2.0000      -0.349021        -9.4973
  64   2.0000      -0.336299        -9.1512
  65   2.0000      -0.333015        -9.0618
  66   2.0000      -0.279281        -7.5996
  67   0.0000       0.023185         0.6309
  68   0.0000       0.070091         1.9073
  69   0.0000       0.105772         2.8782
  70   0.0000       0.126388         3.4392
  71   0.0000       0.141865         3.8603

MULLIKEN ATOMIC CHARGES
-----------------------
   0 S :    0.124017
   1 C :   -0.099170
   2 C :   -0.086537
   3 C :    0.032915
   4 C :   -0.174164
   5 H :   -0.000532
   6 C :    0.116001
   7 H :    0.003966
   8 H :    0.023202
   9 C :   -0.111454
  10 H :    0.033455
  11 H :    0.034759
  12 C :   -0.012073
  13 H :    0.028895
  14 H :    0.033664
  15 H :    0.007111
  16 S :    0.120140
  17 C :   -0.092813
  18 C :   -0.071308
  19 C :   -0.039144
  20 C :   -0.145949
  21 H :    0.015861
  22 C :    0.143358
  23 H :    0.004544
  24 H :    0.020309
  25 C :   -0.123001
  26 H :    0.035671
  27 H :    0.030651
  28 C :   -0.080624
  29 H :    0.044701
  30 H :    0.041908
  31 H :    0.038079
  32 H :    0.031275
  33 H :    0.072285
Sum of atomic charges:   -0.0000000

LOEWDIN ATOMIC CHARGES
----------------------
   0 S :    0.410588
   1 C :   -0.208358
   2 C :   -0.058580
   3 C :   -0.058031
   4 C :   -0.173502
   5 H :    0.026357
   6 C :   -0.026284
   7 H :    0.024694
   8 H :    0.028374
   9 C :   -0.037883
  10 H :    0.024395
  11 H :    0.024121
  12 C :   -0.055293
  13 H :    0.026308
  14 H :    0.032667
  15 H :    0.006371
  16 S :    0.442385
  17 C :   -0.218123
  18 C :   -0.069692
  19 C :   -0.061610
  20 C :   -0.218504
  21 H :    0.030028
  22 C :   -0.024336
  23 H :    0.019096
  24 H :    0.028096
  25 C :   -0.036749
  26 H :    0.020916
  27 H :    0.024473
  28 C :   -0.069799
  29 H :    0.025298
  30 H :    0.024255
  31 H :    0.028369
  32 H :    0.025122
  33 H :    0.044831

  Mayer bond orders larger than 0.100000
B(  0-S ,  1-C ) :   1.1391 B(  0-S ,  4-C ) :   1.1624 B(  1-C ,  2-C ) :   1.6055
B(  1-C ,  4-C ) :   0.1163 B(  1-C , 32-H ) :   0.9700 B(  2-C ,  3-C ) :   1.2416
B(  2-C ,  6-C ) :   1.0043 B(  3-C ,  4-C ) :   1.5301 B(  3-C ,  5-H ) :   1.0089
B(  4-C , 20-C ) :   1.0454 B(  6-C ,  7-H ) :   0.9291 B(  6-C ,  8-H ) :   0.9295
B(  6-C ,  9-C ) :   1.0942 B(  9-C , 10-H ) :   0.9582 B(  9-C , 11-H ) :   0.9429
B(  9-C , 12-C ) :   1.0872 B( 12-C , 13-H ) :   0.9738 B( 12-C , 14-H ) :   0.9725
B( 12-C , 15-H ) :   0.9749 B( 16-S , 17-C ) :   1.1637 B( 16-S , 20-C ) :   1.1627
B( 17-C , 18-C ) :   1.5890 B( 17-C , 33-H ) :   0.9580 B( 18-C , 19-C ) :   1.2747
B( 18-C , 21-H ) :   0.9908 B( 19-C , 20-C ) :   1.5666 B( 19-C , 22-C ) :   1.0404
B( 22-C , 23-H ) :   0.9249 B( 22-C , 24-H ) :   0.9322 B( 22-C , 25-C ) :   1.0465
B( 25-C , 26-H ) :   0.9619 B( 25-C , 27-H ) :   0.9649 B( 25-C , 28-C ) :   1.0587
B( 28-C , 29-H ) :   0.9799 B( 28-C , 30-H ) :   0.9794 B( 28-C , 31-H ) :   0.9787

Dispersion correction           -0.013682797
FINAL SINGLE POINT ENERGY     -1339.854132747049

DIPOLE MOMENT
-------------
                                X             Y             Z
Electronic contribution:     -7.84976     -20.42862      22.99002
Nuclear contribution   :      7.91910      20.82965     -23.62274
                        -----------------------------------------
Total Dipole Moment    :      0.06934       0.40103      -0.63271
                        -----------------------------------------
Magnitude (a.u.)       :      0.75230
Magnitude (Debye)      :      1.91220

Rotational constants in cm-1:     0.016265     0.009092     0.006635
Rotational constants in MHz :   487.597549   272.572085   198.903713

                             ****ORCA TERMINATED NORMALLY****
TOTAL RUN TIME: 0 days 0 hours 0 minutes 28 seconds 677 msec
