                         Program Version 4.2.1 -  RELEASE  -
|  1> ! wB97X-D3 SP def2-SVP
|  2> %pal
|  3> nprocs 16
|  4> end
|  5>
|  6> * xyz 0 1
|  7> S 	 -36.3565 	 53.879 	 111.348
|  8> C 	 -37.0314 	 55.514 	 111.278
|  9> C 	 -38.0131 	 55.7256 	 112.199
| 10> C 	 -38.2259 	 54.5175 	 112.982
| 11> C 	 -37.4167 	 53.4331 	 112.591
| 12> H 	 -38.9767 	 54.3676 	 113.759
| 13> C 	 -38.8399 	 56.9653 	 112.37
| 14> H 	 -38.4679 	 57.6683 	 111.668
| 15> H 	 -38.7193 	 57.3588 	 113.369
| 16> C 	 -40.2526 	 56.7422 	 112.141
| 17> H 	 -40.682 	 56.1305 	 112.865
| 18> H 	 -40.7353 	 57.6713 	 112.358
| 19> C 	 -40.5942 	 56.2941 	 110.686
| 20> H 	 -40.2206 	 55.2719 	 110.589
| 21> H 	 -41.6893 	 56.2421 	 110.503
| 22> H 	 -40.1655 	 56.9807 	 110.029
| 23> S 	 -36.3915 	 52.12 	 114.863
| 24> C 	 -36.7042 	 50.401 	 114.959
| 25> C 	 -37.4198 	 49.882 	 113.933
| 26> C 	 -37.579 	 50.893 	 112.876
| 27> C 	 -37.1799 	 52.1601 	 113.32
| 28> H 	 -37.8004 	 48.9058 	 113.889
| 29> C 	 -38.2927 	 50.5406 	 111.581
| 30> H 	 -38.0244 	 49.6127 	 111.115
| 31> H 	 -38.2254 	 51.3501 	 110.845
| 32> C 	 -39.8216 	 50.3264 	 111.834
| 33> H 	 -40.1942 	 51.1862 	 112.399
| 34> H 	 -40.0322 	 49.556 	 112.566
| 35> C 	 -40.5888 	 50.009 	 110.481
| 36> H 	 -40.3119 	 49.0807 	 110.077
| 37> H 	 -40.3444 	 50.7226 	 109.646
| 38> H 	 -41.6834 	 49.9477 	 110.489
| 39> H 	 -36.9156 	 56.2086 	 110.414
| 40> H 	 -36.4664 	 49.8204 	 115.819
| 41> *
| 42>
| 43>                          ****END OF INPUT****

CARTESIAN COORDINATES (ANGSTROEM)
---------------------------------
  S    -36.356500   53.879000  111.348000
  C    -37.031400   55.514000  111.278000
  C    -38.013100   55.725600  112.199000
  C    -38.225900   54.517500  112.982000
  C    -37.416700   53.433100  112.591000
  H    -38.976700   54.367600  113.759000
  C    -38.839900   56.965300  112.370000
  H    -38.467900   57.668300  111.668000
  H    -38.719300   57.358800  113.369000
  C    -40.252600   56.742200  112.141000
  H    -40.682000   56.130500  112.865000
  H    -40.735300   57.671300  112.358000
  C    -40.594200   56.294100  110.686000
  H    -40.220600   55.271900  110.589000
  H    -41.689300   56.242100  110.503000
  H    -40.165500   56.980700  110.029000
  S    -36.391500   52.120000  114.863000
  C    -36.704200   50.401000  114.959000
  C    -37.419800   49.882000  113.933000
  C    -37.579000   50.893000  112.876000
  C    -37.179900   52.160100  113.320000
  H    -37.800400   48.905800  113.889000
  C    -38.292700   50.540600  111.581000
  H    -38.024400   49.612700  111.115000
  H    -38.225400   51.350100  110.845000
  C    -39.821600   50.326400  111.834000
  H    -40.194200   51.186200  112.399000
  H    -40.032200   49.556000  112.566000
  C    -40.588800   50.009000  110.481000
  H    -40.311900   49.080700  110.077000
  H    -40.344400   50.722600  109.646000
  H    -41.683400   49.947700  110.489000
  H    -36.915600   56.208600  110.414000
  H    -36.466400   49.820400  115.819000

 Total Charge           Charge          ....    0
 Multiplicity           Mult            ....    1
 Number of Electrons    NEL             ....  134
 Basis Dimension        Dim             ....  322

ORBITAL ENERGIES
----------------

  NO   OCC          E(Eh)            E(eV)
   0   2.0000     -88.968055     -2420.9439
   1   2.0000     -88.963987     -2420.8332
   2   2.0000     -10.327492      -281.0253
   3   2.0000     -10.326856      -281.0080
   4   2.0000     -10.313744      -280.6512
   5   2.0000     -10.312568      -280.6192
   6   2.0000     -10.308070      -280.4969
   7   2.0000     -10.299216      -280.2559
   8   2.0000     -10.296534      -280.1829
   9   2.0000     -10.292219      -280.0655
  10   2.0000     -10.292101      -280.0623
  11   2.0000     -10.289724      -279.9976
  12   2.0000     -10.283011      -279.8149
  13   2.0000     -10.280915      -279.7579
  14   2.0000     -10.274175      -279.5745
  15   2.0000     -10.272857      -279.5387
  16   2.0000      -8.083036      -219.9506
  17   2.0000      -8.079309      -219.8492
  18   2.0000      -6.041570      -164.3995
  19   2.0000      -6.037840      -164.2980
  20   2.0000      -6.037673      -164.2934
  21   2.0000      -6.033615      -164.1830
  22   2.0000      -6.033585      -164.1822
  23   2.0000      -6.030110      -164.0876
  24   2.0000      -1.006243       -27.3813
  25   2.0000      -0.985013       -26.8036
  26   2.0000      -0.928174       -25.2569
  27   2.0000      -0.902770       -24.5656
  28   2.0000      -0.867768       -23.6132
  29   2.0000      -0.845210       -22.9993
  30   2.0000      -0.838607       -22.8196
  31   2.0000      -0.811930       -22.0937
  32   2.0000      -0.789553       -21.4848
  33   2.0000      -0.773105       -21.0372
  34   2.0000      -0.711806       -19.3692
  35   2.0000      -0.704335       -19.1659
  36   2.0000      -0.687937       -18.7197
  37   2.0000      -0.663281       -18.0488
  38   2.0000      -0.636425       -17.3180
  39   2.0000      -0.619895       -16.8682
  40   2.0000      -0.603163       -16.4129
  41   2.0000      -0.573120       -15.5954
  42   2.0000      -0.562563       -15.3081
  43   2.0000      -0.556493       -15.1429
  44   2.0000      -0.542259       -14.7556
  45   2.0000      -0.519832       -14.1453
  46   2.0000      -0.517303       -14.0765
  47   2.0000      -0.509641       -13.8680
  48   2.0000      -0.502144       -13.6640
  49   2.0000      -0.488246       -13.2859
  50   2.0000      -0.484981       -13.1970
  51   2.0000      -0.476667       -12.9708
  52   2.0000      -0.472614       -12.8605
  53   2.0000      -0.464278       -12.6336
  54   2.0000      -0.459727       -12.5098
  55   2.0000      -0.451603       -12.2888
  56   2.0000      -0.444782       -12.1031
  57   2.0000      -0.439732       -11.9657
  58   2.0000      -0.435804       -11.8588
  59   2.0000      -0.432220       -11.7613
  60   2.0000      -0.428147       -11.6505
  61   2.0000      -0.415737       -11.3128
  62   2.0000      -0.412047       -11.2124
  63   2.0000      -0.338099        -9.2001
  64   2.0000      -0.327688        -8.9168
  65   2.0000      -0.324203        -8.8220
  66   2.0000      -0.306410        -8.3378
  67   0.0000       0.044279         1.2049
  68   0.0000       0.064275         1.7490
  69   0.0000       0.113917         3.0998
  70   0.0000       0.119842         3.2611
  71   0.0000       0.128477         3.4960

MULLIKEN ATOMIC CHARGES
-----------------------
   0 S :    0.120247
   1 C :   -0.137941
   2 C :   -0.120106
   3 C :    0.012719
   4 C :   -0.177014
   5 H :    0.015488
   6 C :    0.136023
   7 H :   -0.001915
   8 H :    0.032429
   9 C :   -0.057733
  10 H :    0.008803
  11 H :    0.010616
  12 C :   -0.041003
  13 H :    0.048714
  14 H :    0.036861
  15 H :    0.018741
  16 S :    0.132983
  17 C :   -0.077322
  18 C :   -0.000442
  19 C :   -0.043377
  20 C :   -0.158343
  21 H :    0.006102
  22 C :    0.087619
  23 H :    0.022738
  24 H :    0.027080
  25 C :   -0.090882
  26 H :    0.026260
  27 H :    0.022475
  28 C :   -0.045286
  29 H :    0.012554
  30 H :    0.032806
  31 H :    0.036304
  32 H :    0.058504
  33 H :    0.045299
Sum of atomic charges:   -0.0000000

LOEWDIN ATOMIC CHARGES
----------------------
   0 S :    0.425294
   1 C :   -0.205473
   2 C :   -0.060011
   3 C :   -0.067504
   4 C :   -0.212217
   5 H :    0.029305
   6 C :   -0.024604
   7 H :    0.024197
   8 H :    0.037642
   9 C :   -0.038325
  10 H :    0.014003
  11 H :    0.021898
  12 C :   -0.054902
  13 H :    0.030550
  14 H :    0.030291
  15 H :    0.014400
  16 S :    0.414037
  17 C :   -0.174904
  18 C :   -0.059345
  19 C :   -0.043191
  20 C :   -0.218914
  21 H :    0.025150
  22 C :   -0.028845
  23 H :    0.028055
  24 H :    0.028596
  25 C :   -0.036753
  26 H :    0.022913
  27 H :    0.018635
  28 C :   -0.072624
  29 H :    0.015813
  30 H :    0.030935
  31 H :    0.028431
  32 H :    0.034864
  33 H :    0.022601

  Mayer bond orders larger than 0.100000
B(  0-S ,  1-C ) :   1.1311 B(  0-S ,  4-C ) :   1.1799 B(  1-C ,  2-C ) :   1.6380
B(  1-C , 32-H ) :   0.9522 B(  2-C ,  3-C ) :   1.2158 B(  2-C ,  6-C ) :   1.0264
B(  3-C ,  4-C ) :   1.5795 B(  3-C ,  5-H ) :   0.9970 B(  4-C , 20-C ) :   0.9965
B(  6-C ,  7-H ) :   0.9320 B(  6-C ,  8-H ) :   0.9248 B(  6-C ,  9-C ) :   1.1002
B(  9-C , 10-H ) :   0.9488 B(  9-C , 11-H ) :   0.9461 B(  9-C , 12-C ) :   1.0668
B( 12-C , 13-H ) :   0.9747 B( 12-C , 14-H ) :   0.9753 B( 12-C , 15-H ) :   0.9774
B( 16-S , 17-C ) :   1.1443 B( 16-S , 20-C ) :   1.1357 B( 17-C , 18-C ) :   1.6463
B( 17-C , 33-H ) :   0.9661 B( 18-C , 19-C ) :   1.2066 B( 18-C , 21-H ) :   0.9969
B( 19-C , 20-C ) :   1.6172 B( 19-C , 22-C ) :   1.0652 B( 22-C , 23-H ) :   0.9393
B( 22-C , 24-H ) :   0.9307 B( 22-C , 25-C ) :   1.0439 B( 25-C , 26-H ) :   0.9583
B( 25-C , 27-H ) :   0.9601 B( 25-C , 28-C ) :   1.0593 B( 28-C , 29-H ) :   0.9741
B( 28-C , 30-H ) :   0.9774 B( 28-C , 31-H ) :   0.9772

Dispersion correction           -0.014767136
FINAL SINGLE POINT ENERGY     -1339.876278034424

DIPOLE MOMENT
-------------
                                X             Y             Z
Electronic contribution:     23.99491      -2.46250      12.16231
Nuclear contribution   :    -24.62102       2.42207     -12.18467
                        -----------------------------------------
Total Dipole Moment    :     -0.62611      -0.04042      -0.02236
                        -----------------------------------------
Magnitude (a.u.)       :      0.62781
Magnitude (Debye)      :      1.59576

Rotational constants in cm-1:     0.017600     0.009241     0.007324
Rotational constants in MHz :   527.620464   277.033123   219.573095

                             ****ORCA TERMINATED NORMALLY****
TOTAL RUN TIME: 0 days 0 hours 0 minutes 30 seconds 34 msec
