                         Program Version 4.2.1 -  RELEASE  -
|  1> ! wB97X-D3 SP def2-SVP
|  2> %pal
|  3> nprocs 16
|  4> end
|  5>
|  6> * xyz 0 1
|  7> S 	 -35.4061 	 53.4438 	 110.868
|  8> C 	 -35.922 	 54.2034 	 109.332
|  9> C 	 -36.6658 	 55.3356 	 109.551
| 10> C 	 -36.9133 	 55.5711 	 110.914
| 11> C 	 -36.347 	 54.6244 	 111.741
| 12> H 	 -37.441 	 56.4742 	 111.306
| 13> C 	 -37.2816 	 56.253 	 108.449
| 14> H 	 -36.7655 	 55.9785 	 107.458
| 15> H 	 -36.8747 	 57.1936 	 108.602
| 16> C 	 -38.8148 	 56.3346 	 108.449
| 17> H 	 -39.2263 	 56.8167 	 109.361
| 18> H 	 -39.1158 	 56.8963 	 107.523
| 19> C 	 -39.5553 	 54.8995 	 108.323
| 20> H 	 -39.1653 	 54.3571 	 109.151
| 21> H 	 -40.6291 	 55.0455 	 108.45
| 22> H 	 -39.2965 	 54.5529 	 107.296
| 23> S 	 -34.7973 	 54.71 	 113.973
| 24> C 	 -35.6705 	 54.4432 	 115.566
| 25> C 	 -37.0914 	 54.3901 	 115.384
| 26> C 	 -37.415 	 54.4838 	 114.015
| 27> C 	 -36.3322 	 54.5788 	 113.175
| 28> H 	 -37.7999 	 54.1783 	 116.151
| 29> C 	 -38.895 	 54.1522 	 113.643
| 30> H 	 -39.3436 	 53.4812 	 114.34
| 31> H 	 -38.848 	 53.6339 	 112.663
| 32> C 	 -39.764 	 55.4496 	 113.518
| 33> H 	 -39.4543 	 56.0631 	 112.608
| 34> H 	 -39.6428 	 55.9552 	 114.436
| 35> C 	 -41.2972 	 55.2721 	 113.571
| 36> H 	 -41.6205 	 54.7041 	 114.456
| 37> H 	 -41.7033 	 54.7566 	 112.733
| 38> H 	 -41.9597 	 56.2225 	 113.574
| 39> H 	 -35.6271 	 53.7637 	 108.36
| 40> H 	 -35.3829 	 54.3593 	 116.599
| 41> *
| 42>
| 43>                          ****END OF INPUT****

CARTESIAN COORDINATES (ANGSTROEM)
---------------------------------
  S    -35.406100   53.443800  110.868000
  C    -35.922000   54.203400  109.332000
  C    -36.665800   55.335600  109.551000
  C    -36.913300   55.571100  110.914000
  C    -36.347000   54.624400  111.741000
  H    -37.441000   56.474200  111.306000
  C    -37.281600   56.253000  108.449000
  H    -36.765500   55.978500  107.458000
  H    -36.874700   57.193600  108.602000
  C    -38.814800   56.334600  108.449000
  H    -39.226300   56.816700  109.361000
  H    -39.115800   56.896300  107.523000
  C    -39.555300   54.899500  108.323000
  H    -39.165300   54.357100  109.151000
  H    -40.629100   55.045500  108.450000
  H    -39.296500   54.552900  107.296000
  S    -34.797300   54.710000  113.973000
  C    -35.670500   54.443200  115.566000
  C    -37.091400   54.390100  115.384000
  C    -37.415000   54.483800  114.015000
  C    -36.332200   54.578800  113.175000
  H    -37.799900   54.178300  116.151000
  C    -38.895000   54.152200  113.643000
  H    -39.343600   53.481200  114.340000
  H    -38.848000   53.633900  112.663000
  C    -39.764000   55.449600  113.518000
  H    -39.454300   56.063100  112.608000
  H    -39.642800   55.955200  114.436000
  C    -41.297200   55.272100  113.571000
  H    -41.620500   54.704100  114.456000
  H    -41.703300   54.756600  112.733000
  H    -41.959700   56.222500  113.574000
  H    -35.627100   53.763700  108.360000
  H    -35.382900   54.359300  116.599000

 Total Charge           Charge          ....    0
 Multiplicity           Mult            ....    1
 Number of Electrons    NEL             ....  134
 Basis Dimension        Dim             ....  322

ORBITAL ENERGIES
----------------

  NO   OCC          E(Eh)            E(eV)
   0   2.0000     -88.976403     -2421.1710
   1   2.0000     -88.967388     -2420.9257
   2   2.0000     -10.327748      -281.0323
   3   2.0000     -10.325760      -280.9782
   4   2.0000     -10.322649      -280.8936
   5   2.0000     -10.318767      -280.7879
   6   2.0000     -10.302168      -280.3362
   7   2.0000     -10.299602      -280.2664
   8   2.0000     -10.298400      -280.2337
   9   2.0000     -10.298303      -280.2311
  10   2.0000     -10.296702      -280.1875
  11   2.0000     -10.295578      -280.1569
  12   2.0000     -10.295419      -280.1526
  13   2.0000     -10.290665      -280.0232
  14   2.0000     -10.282122      -279.7908
  15   2.0000     -10.279948      -279.7316
  16   2.0000      -8.089373      -220.1230
  17   2.0000      -8.081820      -219.9175
  18   2.0000      -6.048129      -164.5780
  19   2.0000      -6.044218      -164.4715
  20   2.0000      -6.040231      -164.3630
  21   2.0000      -6.039869      -164.3532
  22   2.0000      -6.036447      -164.2601
  23   2.0000      -6.032620      -164.1559
  24   2.0000      -1.007997       -27.4290
  25   2.0000      -0.979143       -26.6438
  26   2.0000      -0.905728       -24.6461
  27   2.0000      -0.899599       -24.4793
  28   2.0000      -0.866104       -23.5679
  29   2.0000      -0.848730       -23.0951
  30   2.0000      -0.842566       -22.9274
  31   2.0000      -0.809415       -22.0253
  32   2.0000      -0.784198       -21.3391
  33   2.0000      -0.770125       -20.9562
  34   2.0000      -0.706418       -19.2226
  35   2.0000      -0.693578       -18.8732
  36   2.0000      -0.689369       -18.7587
  37   2.0000      -0.668338       -18.1864
  38   2.0000      -0.639471       -17.4009
  39   2.0000      -0.620783       -16.8924
  40   2.0000      -0.584401       -15.9024
  41   2.0000      -0.567661       -15.4469
  42   2.0000      -0.562049       -15.2941
  43   2.0000      -0.549970       -14.9654
  44   2.0000      -0.543178       -14.7806
  45   2.0000      -0.519536       -14.1373
  46   2.0000      -0.515019       -14.0144
  47   2.0000      -0.505550       -13.7567
  48   2.0000      -0.501441       -13.6449
  49   2.0000      -0.493634       -13.4325
  50   2.0000      -0.486962       -13.2509
  51   2.0000      -0.476843       -12.9756
  52   2.0000      -0.467744       -12.7279
  53   2.0000      -0.465072       -12.6553
  54   2.0000      -0.458624       -12.4798
  55   2.0000      -0.451183       -12.2773
  56   2.0000      -0.447143       -12.1674
  57   2.0000      -0.442692       -12.0463
  58   2.0000      -0.433559       -11.7977
  59   2.0000      -0.421942       -11.4816
  60   2.0000      -0.421453       -11.4683
  61   2.0000      -0.409171       -11.1341
  62   2.0000      -0.404720       -11.0130
  63   2.0000      -0.344083        -9.3630
  64   2.0000      -0.336492        -9.1564
  65   2.0000      -0.332496        -9.0477
  66   2.0000      -0.293943        -7.9986
  67   0.0000       0.028673         0.7802
  68   0.0000       0.062165         1.6916
  69   0.0000       0.096141         2.6161
  70   0.0000       0.115128         3.1328
  71   0.0000       0.123530         3.3614

MULLIKEN ATOMIC CHARGES
-----------------------
   0 S :    0.103909
   1 C :   -0.147661
   2 C :   -0.092723
   3 C :    0.019223
   4 C :   -0.178231
   5 H :    0.035945
   6 C :    0.104358
   7 H :    0.026409
   8 H :    0.017928
   9 C :   -0.131650
  10 H :    0.042182
  11 H :    0.044847
  12 C :   -0.060713
  13 H :    0.048568
  14 H :    0.040688
  15 H :    0.043376
  16 S :    0.132728
  17 C :   -0.082135
  18 C :   -0.048492
  19 C :   -0.003499
  20 C :   -0.166877
  21 H :    0.017618
  22 C :    0.059815
  23 H :    0.016433
  24 H :    0.039597
  25 C :   -0.065422
  26 H :    0.044276
  27 H :    0.021203
  28 C :   -0.076303
  29 H :    0.027489
  30 H :    0.018572
  31 H :    0.042097
  32 H :    0.058113
  33 H :    0.048335
Sum of atomic charges:   -0.0000000

LOEWDIN ATOMIC CHARGES
----------------------
   0 S :    0.392380
   1 C :   -0.187835
   2 C :   -0.067426
   3 C :   -0.068471
   4 C :   -0.191668
   5 H :    0.040432
   6 C :   -0.030921
   7 H :    0.037786
   8 H :    0.023113
   9 C :   -0.044624
  10 H :    0.023831
  11 H :    0.030111
  12 C :   -0.061693
  13 H :    0.021328
  14 H :    0.025563
  15 H :    0.029536
  16 S :    0.398334
  17 C :   -0.172030
  18 C :   -0.057742
  19 C :   -0.057337
  20 C :   -0.211371
  21 H :    0.028510
  22 C :   -0.020345
  23 H :    0.023197
  24 H :    0.033336
  25 C :   -0.042724
  26 H :    0.030575
  27 H :    0.019537
  28 C :   -0.078622
  29 H :    0.023822
  30 H :    0.013820
  31 H :    0.036915
  32 H :    0.031947
  33 H :    0.028734

  Mayer bond orders larger than 0.100000
B(  0-S ,  1-C ) :   1.1267 B(  0-S ,  4-C ) :   1.1572 B(  1-C ,  2-C ) :   1.6249
B(  1-C ,  4-C ) :   0.1006 B(  1-C , 32-H ) :   0.9662 B(  2-C ,  3-C ) :   1.2334
B(  2-C ,  6-C ) :   1.0038 B(  3-C ,  4-C ) :   1.5831 B(  3-C ,  5-H ) :   0.9854
B(  4-C , 20-C ) :   1.0252 B(  6-C ,  7-H ) :   0.9451 B(  6-C ,  8-H ) :   0.9348
B(  6-C ,  9-C ) :   1.0608 B(  9-C , 10-H ) :   0.9576 B(  9-C , 11-H ) :   0.9597
B(  9-C , 12-C ) :   1.0600 B( 12-C , 13-H ) :   0.9774 B( 12-C , 14-H ) :   0.9780
B( 12-C , 15-H ) :   0.9800 B( 16-S , 17-C ) :   1.1269 B( 16-S , 20-C ) :   1.1369
B( 17-C , 18-C ) :   1.6213 B( 17-C , 20-C ) :   0.1069 B( 17-C , 33-H ) :   0.9664
B( 18-C , 19-C ) :   1.2496 B( 18-C , 21-H ) :   0.9836 B( 19-C , 20-C ) :   1.6172
B( 19-C , 22-C ) :   1.0306 B( 22-C , 23-H ) :   0.9495 B( 22-C , 24-H ) :   0.9349
B( 22-C , 25-C ) :   1.0544 B( 25-C , 26-H ) :   0.9528 B( 25-C , 27-H ) :   0.9601
B( 25-C , 28-C ) :   1.0732 B( 28-C , 29-H ) :   0.9736 B( 28-C , 30-H ) :   0.9755
B( 28-C , 31-H ) :   0.9751

Dispersion correction           -0.015119255
FINAL SINGLE POINT ENERGY     -1339.857568191055

DIPOLE MOMENT
-------------
                                X             Y             Z
Electronic contribution:     29.20503      -7.68850       9.34322
Nuclear contribution   :    -29.75071       7.89655      -9.44056
                        -----------------------------------------
Total Dipole Moment    :     -0.54567       0.20805      -0.09734
                        -----------------------------------------
Magnitude (a.u.)       :      0.59204
Magnitude (Debye)      :      1.50486

Rotational constants in cm-1:     0.016762     0.010523     0.007125
Rotational constants in MHz :   502.522836   315.460195   213.594822

                             ****ORCA TERMINATED NORMALLY****
TOTAL RUN TIME: 0 days 0 hours 0 minutes 29 seconds 939 msec
