                         Program Version 4.2.1 -  RELEASE  -
|  1> ! wB97X-D3 SP def2-SVP
|  2> %pal
|  3> nprocs 16
|  4> end
|  5>
|  6> * xyz 0 1
|  7> S 	 0.586242 	 -6.87427 	 77.0712
|  8> C 	 -0.147375 	 -6.32888 	 78.4909
|  9> C 	 0.497464 	 -5.1975 	 79.0268
| 10> C 	 1.44748 	 -4.63791 	 78.0894
| 11> C 	 1.62839 	 -5.50827 	 77.0112
| 12> H 	 2.01017 	 -3.75016 	 78.1952
| 13> C 	 0.343442 	 -4.55833 	 80.3803
| 14> H 	 -0.719607 	 -4.6318 	 80.5431
| 15> H 	 0.559026 	 -3.47313 	 80.4073
| 16> C 	 0.980547 	 -5.30601 	 81.5409
| 17> H 	 0.603213 	 -5.03716 	 82.5071
| 18> H 	 0.758653 	 -6.38719 	 81.5002
| 19> C 	 2.4875 	 -5.14929 	 81.7368
| 20> H 	 2.95084 	 -5.71405 	 82.5716
| 21> H 	 2.93851 	 -5.40039 	 80.7766
| 22> H 	 2.57323 	 -4.07244 	 81.8597
| 23> S 	 3.69051 	 -6.89401 	 75.9215
| 24> C 	 4.57756 	 -5.98254 	 74.6241
| 25> C 	 4.30125 	 -4.60378 	 74.5611
| 26> C 	 3.12984 	 -4.35001 	 75.2689
| 27> C 	 2.64816 	 -5.46683 	 76.0291
| 28> H 	 4.81574 	 -3.95236 	 73.8074
| 29> C 	 2.38149 	 -2.94689 	 75.2786
| 30> H 	 2.08506 	 -2.73241 	 76.3536
| 31> H 	 1.46363 	 -3.04562 	 74.7865
| 32> C 	 3.04199 	 -1.6701 	 74.7262
| 33> H 	 3.29312 	 -1.85354 	 73.6435
| 34> H 	 3.98578 	 -1.57188 	 75.3003
| 35> C 	 2.00399 	 -0.520076 	 74.7937
| 36> H 	 1.70714 	 -0.192625 	 75.842
| 37> H 	 1.02857 	 -0.670818 	 74.2349
| 38> H 	 2.43082 	 0.388378 	 74.404
| 39> H 	 -1.02609 	 -6.81405 	 78.9736
| 40> H 	 5.45432 	 -6.32062 	 74.1344
| 41> *
| 42>
| 43>                          ****END OF INPUT****

CARTESIAN COORDINATES (ANGSTROEM)
---------------------------------
  S      0.586242   -6.874270   77.071200
  C     -0.147375   -6.328880   78.490900
  C      0.497464   -5.197500   79.026800
  C      1.447480   -4.637910   78.089400
  C      1.628390   -5.508270   77.011200
  H      2.010170   -3.750160   78.195200
  C      0.343442   -4.558330   80.380300
  H     -0.719607   -4.631800   80.543100
  H      0.559026   -3.473130   80.407300
  C      0.980547   -5.306010   81.540900
  H      0.603213   -5.037160   82.507100
  H      0.758653   -6.387190   81.500200
  C      2.487500   -5.149290   81.736800
  H      2.950840   -5.714050   82.571600
  H      2.938510   -5.400390   80.776600
  H      2.573230   -4.072440   81.859700
  S      3.690510   -6.894010   75.921500
  C      4.577560   -5.982540   74.624100
  C      4.301250   -4.603780   74.561100
  C      3.129840   -4.350010   75.268900
  C      2.648160   -5.466830   76.029100
  H      4.815740   -3.952360   73.807400
  C      2.381490   -2.946890   75.278600
  H      2.085060   -2.732410   76.353600
  H      1.463630   -3.045620   74.786500
  C      3.041990   -1.670100   74.726200
  H      3.293120   -1.853540   73.643500
  H      3.985780   -1.571880   75.300300
  C      2.003990   -0.520076   74.793700
  H      1.707140   -0.192625   75.842000
  H      1.028570   -0.670818   74.234900
  H      2.430820    0.388378   74.404000
  H     -1.026090   -6.814050   78.973600
  H      5.454320   -6.320620   74.134400

 Total Charge           Charge          ....    0
 Multiplicity           Mult            ....    1
 Number of Electrons    NEL             ....  134
 Basis Dimension        Dim             ....  322

ORBITAL ENERGIES
----------------

  NO   OCC          E(Eh)            E(eV)
   0   2.0000     -88.973247     -2421.0851
   1   2.0000     -88.968190     -2420.9475
   2   2.0000     -10.324897      -280.9547
   3   2.0000     -10.321912      -280.8735
   4   2.0000     -10.318184      -280.7721
   5   2.0000     -10.314722      -280.6779
   6   2.0000     -10.307549      -280.4827
   7   2.0000     -10.305060      -280.4149
   8   2.0000     -10.300016      -280.2777
   9   2.0000     -10.299089      -280.2525
  10   2.0000     -10.293128      -280.0903
  11   2.0000     -10.292703      -280.0787
  12   2.0000     -10.291236      -280.0388
  13   2.0000     -10.291107      -280.0353
  14   2.0000     -10.281014      -279.7606
  15   2.0000     -10.273095      -279.5451
  16   2.0000      -8.086218      -220.0372
  17   2.0000      -8.084459      -219.9893
  18   2.0000      -6.044569      -164.4811
  19   2.0000      -6.042752      -164.4316
  20   2.0000      -6.041252      -164.3908
  21   2.0000      -6.038613      -164.3190
  22   2.0000      -6.036948      -164.2737
  23   2.0000      -6.035496      -164.2342
  24   2.0000      -1.010423       -27.4950
  25   2.0000      -0.977509       -26.5994
  26   2.0000      -0.914796       -24.8929
  27   2.0000      -0.901554       -24.5325
  28   2.0000      -0.871102       -23.7039
  29   2.0000      -0.854289       -23.2464
  30   2.0000      -0.844946       -22.9922
  31   2.0000      -0.808333       -21.9959
  32   2.0000      -0.782541       -21.2940
  33   2.0000      -0.764826       -20.8120
  34   2.0000      -0.702280       -19.1100
  35   2.0000      -0.698703       -19.0127
  36   2.0000      -0.694102       -18.8875
  37   2.0000      -0.656981       -17.8774
  38   2.0000      -0.639928       -17.4133
  39   2.0000      -0.613301       -16.6888
  40   2.0000      -0.590471       -16.0675
  41   2.0000      -0.571242       -15.5443
  42   2.0000      -0.564900       -15.3717
  43   2.0000      -0.555610       -15.1189
  44   2.0000      -0.542078       -14.7507
  45   2.0000      -0.517242       -14.0749
  46   2.0000      -0.513426       -13.9710
  47   2.0000      -0.506016       -13.7694
  48   2.0000      -0.498141       -13.5551
  49   2.0000      -0.492269       -13.3953
  50   2.0000      -0.487610       -13.2686
  51   2.0000      -0.484123       -13.1737
  52   2.0000      -0.468854       -12.7582
  53   2.0000      -0.463168       -12.6034
  54   2.0000      -0.457821       -12.4579
  55   2.0000      -0.452401       -12.3104
  56   2.0000      -0.449047       -12.2192
  57   2.0000      -0.440328       -11.9819
  58   2.0000      -0.432425       -11.7669
  59   2.0000      -0.420729       -11.4486
  60   2.0000      -0.418916       -11.3993
  61   2.0000      -0.415924       -11.3179
  62   2.0000      -0.406501       -11.0614
  63   2.0000      -0.350260        -9.5310
  64   2.0000      -0.335975        -9.1424
  65   2.0000      -0.327522        -8.9123
  66   2.0000      -0.276067        -7.5122
  67   0.0000       0.021596         0.5876
  68   0.0000       0.063706         1.7335
  69   0.0000       0.096733         2.6322
  70   0.0000       0.116878         3.1804
  71   0.0000       0.132992         3.6189

MULLIKEN ATOMIC CHARGES
-----------------------
   0 S :    0.137658
   1 C :   -0.123687
   2 C :   -0.111409
   3 C :    0.054264
   4 C :   -0.193744
   5 H :    0.006704
   6 C :    0.075427
   7 H :    0.020325
   8 H :    0.031225
   9 C :   -0.069691
  10 H :    0.014794
  11 H :    0.021201
  12 C :   -0.049146
  13 H :    0.049977
  14 H :    0.031564
  15 H :    0.014673
  16 S :    0.113187
  17 C :   -0.071358
  18 C :   -0.083886
  19 C :   -0.008139
  20 C :   -0.132798
  21 H :    0.049084
  22 C :    0.037791
  23 H :    0.018606
  24 H :    0.021583
  25 C :   -0.082155
  26 H :    0.040859
  27 H :    0.044562
  28 C :   -0.071767
  29 H :    0.036972
  30 H :    0.049735
  31 H :    0.028727
  32 H :    0.061322
  33 H :    0.037540
Sum of atomic charges:   -0.0000000

LOEWDIN ATOMIC CHARGES
----------------------
   0 S :    0.453105
   1 C :   -0.231184
   2 C :   -0.057069
   3 C :   -0.052680
   4 C :   -0.211720
   5 H :    0.023879
   6 C :   -0.035511
   7 H :    0.035621
   8 H :    0.033668
   9 C :   -0.043708
  10 H :    0.018007
  11 H :    0.023143
  12 C :   -0.066889
  13 H :    0.031711
  14 H :    0.023118
  15 H :    0.020399
  16 S :    0.384512
  17 C :   -0.165476
  18 C :   -0.073365
  19 C :   -0.054482
  20 C :   -0.199748
  21 H :    0.045696
  22 C :   -0.036063
  23 H :    0.032241
  24 H :    0.022575
  25 C :   -0.046100
  26 H :    0.028381
  27 H :    0.029747
  28 C :   -0.073924
  29 H :    0.030913
  30 H :    0.036547
  31 H :    0.022823
  32 H :    0.036219
  33 H :    0.015613

  Mayer bond orders larger than 0.100000
B(  0-S ,  1-C ) :   1.1570 B(  0-S ,  4-C ) :   1.1774 B(  1-C ,  2-C ) :   1.5752
B(  1-C , 32-H ) :   0.9639 B(  2-C ,  3-C ) :   1.2644 B(  2-C ,  6-C ) :   1.0255
B(  3-C ,  4-C ) :   1.5227 B(  3-C ,  5-H ) :   0.9924 B(  4-C , 20-C ) :   1.0736
B(  6-C ,  7-H ) :   0.9236 B(  6-C ,  8-H ) :   0.9478 B(  6-C ,  9-C ) :   1.0728
B(  9-C , 10-H ) :   0.9569 B(  9-C , 11-H ) :   0.9529 B(  9-C , 12-C ) :   1.0706
B( 12-C , 13-H ) :   0.9738 B( 12-C , 14-H ) :   0.9779 B( 12-C , 15-H ) :   0.9755
B( 16-S , 17-C ) :   1.1444 B( 16-S , 20-C ) :   1.1429 B( 17-C , 18-C ) :   1.6073
B( 17-C , 20-C ) :   0.1197 B( 17-C , 33-H ) :   0.9639 B( 18-C , 19-C ) :   1.2823
B( 18-C , 21-H ) :   0.9734 B( 19-C , 20-C ) :   1.5641 B( 19-C , 22-C ) :   1.0027
B( 22-C , 23-H ) :   0.9383 B( 22-C , 24-H ) :   0.9364 B( 22-C , 25-C ) :   1.0729
B( 25-C , 26-H ) :   0.9478 B( 25-C , 27-H ) :   0.9567 B( 25-C , 28-C ) :   1.0747
B( 28-C , 29-H ) :   0.9745 B( 28-C , 30-H ) :   0.9730 B( 28-C , 31-H ) :   0.9733

Dispersion correction           -0.013988123
FINAL SINGLE POINT ENERGY     -1339.851306571591

DIPOLE MOMENT
-------------
                                X             Y             Z
Electronic contribution:      0.84213     -22.93448     -11.15908
Nuclear contribution   :     -0.87725      23.51239      11.37515
                        -----------------------------------------
Total Dipole Moment    :     -0.03511       0.57791       0.21607
                        -----------------------------------------
Magnitude (a.u.)       :      0.61798
Magnitude (Debye)      :      1.57077

Rotational constants in cm-1:     0.016604     0.008752     0.007053
Rotational constants in MHz :   497.774655   262.370841   211.430978

                             ****ORCA TERMINATED NORMALLY****
TOTAL RUN TIME: 0 days 0 hours 0 minutes 33 seconds 994 msec
