                         Program Version 4.2.1 -  RELEASE  -
|  1> ! wB97X-D3 SP def2-SVP
|  2> %pal
|  3> nprocs 16
|  4> end
|  5>
|  6> * xyz 0 1
|  7> S 	 -1.58585 	 25.3649 	 37.5469
|  8> C 	 -2.16862 	 25.7273 	 35.9126
|  9> C 	 -1.33396 	 25.1184 	 34.999
| 10> C 	 -0.331034 	 24.2834 	 35.5974
| 11> C 	 -0.243347 	 24.3592 	 36.9681
| 12> H 	 0.274498 	 23.6648 	 34.9911
| 13> C 	 -1.56026 	 25.1924 	 33.5258
| 14> H 	 -0.714994 	 25.4452 	 32.9492
| 15> H 	 -2.2697 	 25.8694 	 33.2796
| 16> C 	 -1.96044 	 23.8459 	 32.8676
| 17> H 	 -1.13592 	 23.1088 	 33.0813
| 18> H 	 -2.73401 	 23.3314 	 33.3553
| 19> C 	 -2.24732 	 23.8796 	 31.3774
| 20> H 	 -2.43436 	 22.8473 	 30.9757
| 21> H 	 -3.11183 	 24.5428 	 31.1397
| 22> H 	 -1.33506 	 24.2415 	 30.8538
| 23> S 	 1.4931 	 24.43 	 39.1023
| 24> C 	 2.00902 	 22.9852 	 39.9434
| 25> C 	 1.60063 	 21.8712 	 39.2008
| 26> C 	 0.784378 	 22.1601 	 38.0415
| 27> C 	 0.565892 	 23.5474 	 37.9339
| 28> H 	 1.84328 	 20.9093 	 39.6046
| 29> C 	 0.197683 	 21.0657 	 37.2242
| 30> H 	 0.835979 	 20.1718 	 37.4091
| 31> H 	 0.370245 	 21.3913 	 36.2193
| 32> C 	 -1.20208 	 20.669 	 37.5613
| 33> H 	 -1.13899 	 20.6721 	 38.6781
| 34> H 	 -1.53977 	 19.7434 	 37.1257
| 35> C 	 -2.32465 	 21.6877 	 37.1869
| 36> H 	 -3.23829 	 21.2631 	 37.5244
| 37> H 	 -2.40674 	 21.7359 	 36.0844
| 38> H 	 -2.30157 	 22.6813 	 37.66
| 39> H 	 -3.08674 	 26.1876 	 35.5669
| 40> H 	 2.68796 	 22.9501 	 40.7728
| 41> *
| 42>
| 43>                          ****END OF INPUT****

CARTESIAN COORDINATES (ANGSTROEM)
---------------------------------
  S     -1.585850   25.364900   37.546900
  C     -2.168620   25.727300   35.912600
  C     -1.333960   25.118400   34.999000
  C     -0.331034   24.283400   35.597400
  C     -0.243347   24.359200   36.968100
  H      0.274498   23.664800   34.991100
  C     -1.560260   25.192400   33.525800
  H     -0.714994   25.445200   32.949200
  H     -2.269700   25.869400   33.279600
  C     -1.960440   23.845900   32.867600
  H     -1.135920   23.108800   33.081300
  H     -2.734010   23.331400   33.355300
  C     -2.247320   23.879600   31.377400
  H     -2.434360   22.847300   30.975700
  H     -3.111830   24.542800   31.139700
  H     -1.335060   24.241500   30.853800
  S      1.493100   24.430000   39.102300
  C      2.009020   22.985200   39.943400
  C      1.600630   21.871200   39.200800
  C      0.784378   22.160100   38.041500
  C      0.565892   23.547400   37.933900
  H      1.843280   20.909300   39.604600
  C      0.197683   21.065700   37.224200
  H      0.835979   20.171800   37.409100
  H      0.370245   21.391300   36.219300
  C     -1.202080   20.669000   37.561300
  H     -1.138990   20.672100   38.678100
  H     -1.539770   19.743400   37.125700
  C     -2.324650   21.687700   37.186900
  H     -3.238290   21.263100   37.524400
  H     -2.406740   21.735900   36.084400
  H     -2.301570   22.681300   37.660000
  H     -3.086740   26.187600   35.566900
  H      2.687960   22.950100   40.772800

 Total Charge           Charge          ....    0
 Multiplicity           Mult            ....    1
 Number of Electrons    NEL             ....  134
 Basis Dimension        Dim             ....  322

ORBITAL ENERGIES
----------------

  NO   OCC          E(Eh)            E(eV)
   0   2.0000     -88.967803     -2420.9370
   1   2.0000     -88.966657     -2420.9058
   2   2.0000     -10.337422      -281.2956
   3   2.0000     -10.333498      -281.1888
   4   2.0000     -10.318742      -280.7872
   5   2.0000     -10.318074      -280.7691
   6   2.0000     -10.307334      -280.4768
   7   2.0000     -10.301238      -280.3109
   8   2.0000     -10.296419      -280.1798
   9   2.0000     -10.295104      -280.1440
  10   2.0000     -10.289077      -279.9800
  11   2.0000     -10.286729      -279.9161
  12   2.0000     -10.285054      -279.8705
  13   2.0000     -10.285008      -279.8693
  14   2.0000     -10.282148      -279.7915
  15   2.0000     -10.267638      -279.3966
  16   2.0000      -8.081508      -219.9090
  17   2.0000      -8.081105      -219.8980
  18   2.0000      -6.039998      -164.3567
  19   2.0000      -6.039826      -164.3520
  20   2.0000      -6.035764      -164.2415
  21   2.0000      -6.035692      -164.2395
  22   2.0000      -6.032520      -164.1532
  23   2.0000      -6.031782      -164.1331
  24   2.0000      -1.004178       -27.3251
  25   2.0000      -0.984049       -26.7773
  26   2.0000      -0.916020       -24.9262
  27   2.0000      -0.913885       -24.8681
  28   2.0000      -0.867940       -23.6178
  29   2.0000      -0.846601       -23.0372
  30   2.0000      -0.843499       -22.9528
  31   2.0000      -0.819334       -22.2952
  32   2.0000      -0.784900       -21.3582
  33   2.0000      -0.773942       -21.0600
  34   2.0000      -0.709826       -19.3153
  35   2.0000      -0.697604       -18.9828
  36   2.0000      -0.691348       -18.8125
  37   2.0000      -0.661369       -17.9968
  38   2.0000      -0.644027       -17.5249
  39   2.0000      -0.628081       -17.0909
  40   2.0000      -0.595991       -16.2177
  41   2.0000      -0.578064       -15.7299
  42   2.0000      -0.561714       -15.2850
  43   2.0000      -0.557321       -15.1655
  44   2.0000      -0.543073       -14.7778
  45   2.0000      -0.524810       -14.2808
  46   2.0000      -0.513623       -13.9764
  47   2.0000      -0.509799       -13.8723
  48   2.0000      -0.508676       -13.8418
  49   2.0000      -0.502330       -13.6691
  50   2.0000      -0.495477       -13.4826
  51   2.0000      -0.479933       -13.0596
  52   2.0000      -0.475861       -12.9488
  53   2.0000      -0.469729       -12.7820
  54   2.0000      -0.457682       -12.4542
  55   2.0000      -0.448334       -12.1998
  56   2.0000      -0.439381       -11.9562
  57   2.0000      -0.436034       -11.8651
  58   2.0000      -0.427529       -11.6336
  59   2.0000      -0.422074       -11.4852
  60   2.0000      -0.416946       -11.3457
  61   2.0000      -0.414709       -11.2848
  62   2.0000      -0.409799       -11.1512
  63   2.0000      -0.345308        -9.3963
  64   2.0000      -0.331268        -9.0143
  65   2.0000      -0.328912        -8.9502
  66   2.0000      -0.297751        -8.1022
  67   0.0000       0.030741         0.8365
  68   0.0000       0.062079         1.6893
  69   0.0000       0.111425         3.0320
  70   0.0000       0.120368         3.2754
  71   0.0000       0.125453         3.4138

MULLIKEN ATOMIC CHARGES
-----------------------
   0 S :    0.096317
   1 C :   -0.104141
   2 C :   -0.101738
   3 C :    0.046981
   4 C :   -0.117905
   5 H :   -0.001319
   6 C :    0.158530
   7 H :    0.011742
   8 H :   -0.020333
   9 C :   -0.114603
  10 H :    0.017991
  11 H :    0.014581
  12 C :   -0.062799
  13 H :    0.045275
  14 H :    0.043451
  15 H :    0.032852
  16 S :    0.114110
  17 C :   -0.089410
  18 C :   -0.046291
  19 C :   -0.052082
  20 C :   -0.178178
  21 H :    0.013597
  22 C :    0.118094
  23 H :    0.022304
  24 H :    0.008607
  25 C :   -0.059176
  26 H :    0.028729
  27 H :    0.031083
  28 C :   -0.043483
  29 H :    0.013894
  30 H :    0.027912
  31 H :    0.039955
  32 H :    0.049207
  33 H :    0.056250
Sum of atomic charges:    0.0000000

LOEWDIN ATOMIC CHARGES
----------------------
   0 S :    0.396821
   1 C :   -0.188764
   2 C :   -0.057323
   3 C :   -0.054165
   4 C :   -0.182027
   5 H :    0.022286
   6 C :   -0.019731
   7 H :    0.029046
   8 H :    0.013322
   9 C :   -0.044963
  10 H :    0.023686
  11 H :    0.012741
  12 C :   -0.070481
  13 H :    0.034677
  14 H :    0.028424
  15 H :    0.026229
  16 S :    0.422058
  17 C :   -0.188151
  18 C :   -0.068340
  19 C :   -0.053813
  20 C :   -0.207708
  21 H :    0.026640
  22 C :   -0.037269
  23 H :    0.038458
  24 H :    0.023001
  25 C :   -0.036397
  26 H :    0.031768
  27 H :    0.023884
  28 C :   -0.068822
  29 H :    0.018858
  30 H :    0.023306
  31 H :    0.019072
  32 H :    0.035108
  33 H :    0.028571

  Mayer bond orders larger than 0.100000
B(  0-S ,  1-C ) :   1.1215 B(  0-S ,  4-C ) :   1.1472 B(  1-C ,  2-C ) :   1.6240
B(  1-C , 32-H ) :   0.9650 B(  2-C ,  3-C ) :   1.2272 B(  2-C ,  6-C ) :   1.0548
B(  3-C ,  4-C ) :   1.5862 B(  3-C ,  5-H ) :   1.0053 B(  4-C , 20-C ) :   0.9992
B(  6-C ,  7-H ) :   0.9283 B(  6-C ,  8-H ) :   0.9342 B(  6-C ,  9-C ) :   1.0421
B(  9-C , 10-H ) :   0.9517 B(  9-C , 11-H ) :   0.9558 B(  9-C , 12-C ) :   1.0903
B( 12-C , 13-H ) :   0.9716 B( 12-C , 14-H ) :   0.9740 B( 12-C , 15-H ) :   0.9725
B( 16-S , 17-C ) :   1.1579 B( 16-S , 20-C ) :   1.1732 B( 17-C , 18-C ) :   1.5930
B( 17-C , 20-C ) :   0.1036 B( 17-C , 33-H ) :   0.9715 B( 18-C , 19-C ) :   1.2531
B( 18-C , 21-H ) :   0.9891 B( 19-C , 20-C ) :   1.5579 B( 19-C , 22-C ) :   1.0386
B( 22-C , 23-H ) :   0.9227 B( 22-C , 24-H ) :   0.9253 B( 22-C , 25-C ) :   1.0726
B( 25-C , 26-H ) :   0.9480 B( 25-C , 27-H ) :   0.9565 B( 25-C , 28-C ) :   1.0918
B( 28-C , 29-H ) :   0.9699 B( 28-C , 30-H ) :   0.9732 B( 28-C , 31-H ) :   0.9653

Dispersion correction           -0.015880258
FINAL SINGLE POINT ENERGY     -1339.874670265904

DIPOLE MOMENT
-------------
                                X             Y             Z
Electronic contribution:     11.70686      14.11602      22.47910
Nuclear contribution   :    -11.82572     -14.65463     -22.99372
                        -----------------------------------------
Total Dipole Moment    :     -0.11886      -0.53861      -0.51462
                        -----------------------------------------
Magnitude (a.u.)       :      0.75436
Magnitude (Debye)      :      1.91744

Rotational constants in cm-1:     0.022147     0.008560     0.007326
Rotational constants in MHz :   663.954702   256.615721   219.636923

                             ****ORCA TERMINATED NORMALLY****
TOTAL RUN TIME: 0 days 0 hours 0 minutes 36 seconds 924 msec
