                         Program Version 4.2.1 -  RELEASE  -
|  1> ! wB97X-D3 SP def2-SVP
|  2> %pal
|  3> nprocs 16
|  4> end
|  5>
|  6> * xyz 0 1
|  7> S 	 12.1112 	 23.9019 	 65.9984
|  8> C 	 12.9806 	 22.3894 	 66.316
|  9> C 	 12.0462 	 21.4576 	 66.7601
| 10> C 	 10.7065 	 21.9729 	 66.8835
| 11> C 	 10.5313 	 23.2991 	 66.4746
| 12> H 	 9.80291 	 21.5111 	 67.1391
| 13> C 	 12.4214 	 20.0504 	 67.2528
| 14> H 	 12.0206 	 19.7339 	 68.2179
| 15> H 	 13.5786 	 20.0114 	 67.4558
| 16> C 	 12.1312 	 18.8969 	 66.1577
| 17> H 	 12.5286 	 17.9619 	 66.577
| 18> H 	 11.0654 	 18.6435 	 66.1003
| 19> C 	 12.5653 	 19.2042 	 64.7097
| 20> H 	 11.979 	 20.0651 	 64.346
| 21> H 	 13.6592 	 19.4497 	 64.7186
| 22> H 	 12.341 	 18.3599 	 64.1022
| 23> S 	 9.02777 	 25.5229 	 67.0856
| 24> C 	 7.40896 	 25.6335 	 66.6656
| 25> C 	 7.08198 	 24.5901 	 65.8027
| 26> C 	 8.11664 	 23.5775 	 65.7161
| 27> C 	 9.28402 	 23.9553 	 66.3559
| 28> H 	 6.10969 	 24.6126 	 65.299
| 29> C 	 7.98971 	 22.2768 	 64.9636
| 30> H 	 8.50288 	 21.5708 	 65.5663
| 31> H 	 8.59618 	 22.3279 	 64.0394
| 32> C 	 6.60804 	 21.7649 	 64.6844
| 33> H 	 6.00781 	 22.346 	 64.0044
| 34> H 	 6.10009 	 21.8063 	 65.634
| 35> C 	 6.65907 	 20.3217 	 64.1204
| 36> H 	 7.2662 	 19.6299 	 64.755
| 37> H 	 7.08734 	 20.2422 	 63.0861
| 38> H 	 5.66671 	 20.0193 	 64.2685
| 39> H 	 14.0684 	 22.2263 	 66.2066
| 40> H 	 6.69516 	 26.4538 	 66.8941
| 41> *
| 42>
| 43>                          ****END OF INPUT****

CARTESIAN COORDINATES (ANGSTROEM)
---------------------------------
  S     12.111200   23.901900   65.998400
  C     12.980600   22.389400   66.316000
  C     12.046200   21.457600   66.760100
  C     10.706500   21.972900   66.883500
  C     10.531300   23.299100   66.474600
  H      9.802910   21.511100   67.139100
  C     12.421400   20.050400   67.252800
  H     12.020600   19.733900   68.217900
  H     13.578600   20.011400   67.455800
  C     12.131200   18.896900   66.157700
  H     12.528600   17.961900   66.577000
  H     11.065400   18.643500   66.100300
  C     12.565300   19.204200   64.709700
  H     11.979000   20.065100   64.346000
  H     13.659200   19.449700   64.718600
  H     12.341000   18.359900   64.102200
  S      9.027770   25.522900   67.085600
  C      7.408960   25.633500   66.665600
  C      7.081980   24.590100   65.802700
  C      8.116640   23.577500   65.716100
  C      9.284020   23.955300   66.355900
  H      6.109690   24.612600   65.299000
  C      7.989710   22.276800   64.963600
  H      8.502880   21.570800   65.566300
  H      8.596180   22.327900   64.039400
  C      6.608040   21.764900   64.684400
  H      6.007810   22.346000   64.004400
  H      6.100090   21.806300   65.634000
  C      6.659070   20.321700   64.120400
  H      7.266200   19.629900   64.755000
  H      7.087340   20.242200   63.086100
  H      5.666710   20.019300   64.268500
  H     14.068400   22.226300   66.206600
  H      6.695160   26.453800   66.894100

 Total Charge           Charge          ....    0
 Multiplicity           Mult            ....    1
 Number of Electrons    NEL             ....  134
 Basis Dimension        Dim             ....  322

ORBITAL ENERGIES
----------------

  NO   OCC          E(Eh)            E(eV)
   0   2.0000     -88.965913     -2420.8856
   1   2.0000     -88.964681     -2420.8521
   2   2.0000     -10.330326      -281.1025
   3   2.0000     -10.322891      -280.9002
   4   2.0000     -10.322841      -280.8988
   5   2.0000     -10.318773      -280.7881
   6   2.0000     -10.309162      -280.5266
   7   2.0000     -10.307053      -280.4692
   8   2.0000     -10.306757      -280.4611
   9   2.0000     -10.297049      -280.1969
  10   2.0000     -10.292641      -280.0770
  11   2.0000     -10.290728      -280.0249
  12   2.0000     -10.284832      -279.8645
  13   2.0000     -10.283752      -279.8351
  14   2.0000     -10.281819      -279.7825
  15   2.0000     -10.278536      -279.6932
  16   2.0000      -8.080831      -219.8906
  17   2.0000      -8.079944      -219.8664
  18   2.0000      -6.039153      -164.3337
  19   2.0000      -6.038589      -164.3184
  20   2.0000      -6.035002      -164.2207
  21   2.0000      -6.034343      -164.2028
  22   2.0000      -6.031812      -164.1339
  23   2.0000      -6.030781      -164.1059
  24   2.0000      -1.012324       -27.5467
  25   2.0000      -0.984542       -26.7908
  26   2.0000      -0.917574       -24.9685
  27   2.0000      -0.899602       -24.4794
  28   2.0000      -0.874668       -23.8009
  29   2.0000      -0.851028       -23.1577
  30   2.0000      -0.839625       -22.8474
  31   2.0000      -0.814009       -22.1503
  32   2.0000      -0.782901       -21.3038
  33   2.0000      -0.771572       -20.9956
  34   2.0000      -0.711040       -19.3484
  35   2.0000      -0.704521       -19.1710
  36   2.0000      -0.691066       -18.8049
  37   2.0000      -0.652290       -17.7497
  38   2.0000      -0.642568       -17.4852
  39   2.0000      -0.616748       -16.7826
  40   2.0000      -0.597299       -16.2533
  41   2.0000      -0.573668       -15.6103
  42   2.0000      -0.567997       -15.4560
  43   2.0000      -0.546933       -14.8828
  44   2.0000      -0.536068       -14.5872
  45   2.0000      -0.533941       -14.5293
  46   2.0000      -0.521266       -14.1844
  47   2.0000      -0.515323       -14.0227
  48   2.0000      -0.511732       -13.9249
  49   2.0000      -0.499466       -13.5912
  50   2.0000      -0.489032       -13.3072
  51   2.0000      -0.483159       -13.1474
  52   2.0000      -0.470217       -12.7953
  53   2.0000      -0.464301       -12.6343
  54   2.0000      -0.456907       -12.4331
  55   2.0000      -0.446181       -12.1412
  56   2.0000      -0.441772       -12.0212
  57   2.0000      -0.439251       -11.9526
  58   2.0000      -0.432535       -11.7699
  59   2.0000      -0.425832       -11.5875
  60   2.0000      -0.414261       -11.2726
  61   2.0000      -0.410905       -11.1813
  62   2.0000      -0.408597       -11.1185
  63   2.0000      -0.348872        -9.4933
  64   2.0000      -0.328425        -8.9369
  65   2.0000      -0.327862        -8.9216
  66   2.0000      -0.293745        -7.9932
  67   0.0000       0.028421         0.7734
  68   0.0000       0.067531         1.8376
  69   0.0000       0.117261         3.1908
  70   0.0000       0.121130         3.2961
  71   0.0000       0.127416         3.4672

MULLIKEN ATOMIC CHARGES
-----------------------
   0 S :    0.106644
   1 C :   -0.133926
   2 C :   -0.057417
   3 C :    0.040667
   4 C :   -0.152361
   5 H :   -0.001803
   6 C :    0.014435
   7 H :    0.039437
   8 H :    0.034396
   9 C :   -0.103589
  10 H :    0.026206
  11 H :    0.022874
  12 C :   -0.046817
  13 H :    0.052309
  14 H :    0.035088
  15 H :    0.035044
  16 S :    0.125325
  17 C :   -0.096401
  18 C :   -0.067752
  19 C :   -0.049336
  20 C :   -0.166134
  21 H :    0.026714
  22 C :    0.116722
  23 H :   -0.014303
  24 H :    0.038491
  25 C :   -0.090155
  26 H :    0.030438
  27 H :    0.023325
  28 C :   -0.034915
  29 H :    0.025032
  30 H :    0.050646
  31 H :    0.025304
  32 H :    0.070167
  33 H :    0.075644
Sum of atomic charges:   -0.0000000

LOEWDIN ATOMIC CHARGES
----------------------
   0 S :    0.396764
   1 C :   -0.195217
   2 C :   -0.067366
   3 C :   -0.058071
   4 C :   -0.192005
   5 H :    0.020287
   6 C :   -0.036263
   7 H :    0.030510
   8 H :    0.036286
   9 C :   -0.047381
  10 H :    0.020996
  11 H :    0.019065
  12 C :   -0.065972
  13 H :    0.031852
  14 H :    0.027526
  15 H :    0.023276
  16 S :    0.444229
  17 C :   -0.213010
  18 C :   -0.084854
  19 C :   -0.045123
  20 C :   -0.215281
  21 H :    0.033091
  22 C :   -0.035695
  23 H :    0.023630
  24 H :    0.039025
  25 C :   -0.039279
  26 H :    0.021269
  27 H :    0.024126
  28 C :   -0.061353
  29 H :    0.025407
  30 H :    0.033648
  31 H :    0.021137
  32 H :    0.040927
  33 H :    0.043818

  Mayer bond orders larger than 0.100000
B(  0-S ,  1-C ) :   1.1377 B(  0-S ,  4-C ) :   1.1433 B(  1-C ,  2-C ) :   1.5854
B(  1-C ,  4-C ) :   0.1012 B(  1-C , 32-H ) :   0.9675 B(  2-C ,  3-C ) :   1.2295
B(  2-C ,  6-C ) :   1.0208 B(  3-C ,  4-C ) :   1.5575 B(  3-C ,  5-H ) :   1.0009
B(  4-C , 20-C ) :   1.0840 B(  6-C ,  7-H ) :   0.9541 B(  6-C ,  8-H ) :   0.9512
B(  6-C ,  9-C ) :   1.0478 B(  9-C , 10-H ) :   0.9602 B(  9-C , 11-H ) :   0.9589
B(  9-C , 12-C ) :   1.0765 B( 12-C , 13-H ) :   0.9685 B( 12-C , 14-H ) :   0.9779
B( 12-C , 15-H ) :   0.9731 B( 16-S , 17-C ) :   1.1968 B( 16-S , 20-C ) :   1.1377
B( 17-C , 18-C ) :   1.5648 B( 17-C , 20-C ) :   0.1005 B( 17-C , 33-H ) :   0.9612
B( 18-C , 19-C ) :   1.2604 B( 18-C , 21-H ) :   0.9894 B( 19-C , 20-C ) :   1.5629
B( 19-C , 22-C ) :   1.0411 B( 22-C , 23-H ) :   0.9238 B( 22-C , 24-H ) :   0.9123
B( 22-C , 25-C ) :   1.0857 B( 25-C , 26-H ) :   0.9453 B( 25-C , 27-H ) :   0.9539
B( 25-C , 28-C ) :   1.0846 B( 28-C , 29-H ) :   0.9739 B( 28-C , 30-H ) :   0.9740
B( 28-C , 31-H ) :   0.9735

Dispersion correction           -0.014512749
FINAL SINGLE POINT ENERGY     -1339.872591673517

DIPOLE MOMENT
-------------
                                X             Y             Z
Electronic contribution:      5.30469      28.95057       9.64406
Nuclear contribution   :     -5.71384     -29.53044      -9.79645
                        -----------------------------------------
Total Dipole Moment    :     -0.40915      -0.57988      -0.15239
                        -----------------------------------------
Magnitude (a.u.)       :      0.72587
Magnitude (Debye)      :      1.84500

Rotational constants in cm-1:     0.017128     0.009760     0.006742
Rotational constants in MHz :   513.491917   292.606331   202.114749

                             ****ORCA TERMINATED NORMALLY****
TOTAL RUN TIME: 0 days 0 hours 0 minutes 33 seconds 733 msec
