                         Program Version 4.2.1 -  RELEASE  -
|  1> ! wB97X-D3 SP def2-SVP
|  2> %pal
|  3> nprocs 16
|  4> end
|  5>
|  6> * xyz 0 1
|  7> S 	 -41.7624 	 39.3246 	 96.7096
|  8> C 	 -42.6727 	 40.7867 	 96.4305
|  9> C 	 -43.4585 	 41.0888 	 97.4994
| 10> C 	 -43.4381 	 40.1067 	 98.5275
| 11> C 	 -42.5184 	 39.1238 	 98.2871
| 12> H 	 -44.0866 	 39.9839 	 99.4422
| 13> C 	 -44.4384 	 42.2394 	 97.6721
| 14> H 	 -44.214 	 43.0452 	 96.9939
| 15> H 	 -44.3017 	 42.6084 	 98.659
| 16> C 	 -45.887 	 41.7292 	 97.2946
| 17> H 	 -45.9116 	 41.3661 	 96.2825
| 18> H 	 -46.283 	 41.065 	 97.9722
| 19> C 	 -46.9168 	 42.885 	 97.3483
| 20> H 	 -47.2072 	 43.025 	 98.4145
| 21> H 	 -46.6751 	 43.8084 	 96.7974
| 22> H 	 -47.7904 	 42.5649 	 96.8543
| 23> S 	 -41.7968 	 36.5487 	 98.1948
| 24> C 	 -41.506 	 35.7544 	 99.7625
| 25> C 	 -41.8539 	 36.5569 	 100.846
| 26> C 	 -42.2813 	 37.8479 	 100.436
| 27> C 	 -42.3837 	 37.9533 	 99.064
| 28> H 	 -41.6275 	 36.188 	 101.851
| 29> C 	 -42.5893 	 38.8952 	 101.613
| 30> H 	 -42.5331 	 39.9328 	 101.188
| 31> H 	 -41.705 	 38.9134 	 102.323
| 32> C 	 -43.8271 	 38.7099 	 102.508
| 33> H 	 -43.9145 	 37.6496 	 102.592
| 34> H 	 -44.6802 	 39.1248 	 101.973
| 35> C 	 -43.7403 	 39.2588 	 103.897
| 36> H 	 -42.8384 	 38.9446 	 104.412
| 37> H 	 -44.6459 	 39.1193 	 104.562
| 38> H 	 -43.6771 	 40.3324 	 103.871
| 39> H 	 -42.6335 	 41.3152 	 95.485
| 40> H 	 -41.1653 	 34.776 	 99.8941
| 41> *
| 42>
| 43>                          ****END OF INPUT****

CARTESIAN COORDINATES (ANGSTROEM)
---------------------------------
  S    -41.762400   39.324600   96.709600
  C    -42.672700   40.786700   96.430500
  C    -43.458500   41.088800   97.499400
  C    -43.438100   40.106700   98.527500
  C    -42.518400   39.123800   98.287100
  H    -44.086600   39.983900   99.442200
  C    -44.438400   42.239400   97.672100
  H    -44.214000   43.045200   96.993900
  H    -44.301700   42.608400   98.659000
  C    -45.887000   41.729200   97.294600
  H    -45.911600   41.366100   96.282500
  H    -46.283000   41.065000   97.972200
  C    -46.916800   42.885000   97.348300
  H    -47.207200   43.025000   98.414500
  H    -46.675100   43.808400   96.797400
  H    -47.790400   42.564900   96.854300
  S    -41.796800   36.548700   98.194800
  C    -41.506000   35.754400   99.762500
  C    -41.853900   36.556900  100.846000
  C    -42.281300   37.847900  100.436000
  C    -42.383700   37.953300   99.064000
  H    -41.627500   36.188000  101.851000
  C    -42.589300   38.895200  101.613000
  H    -42.533100   39.932800  101.188000
  H    -41.705000   38.913400  102.323000
  C    -43.827100   38.709900  102.508000
  H    -43.914500   37.649600  102.592000
  H    -44.680200   39.124800  101.973000
  C    -43.740300   39.258800  103.897000
  H    -42.838400   38.944600  104.412000
  H    -44.645900   39.119300  104.562000
  H    -43.677100   40.332400  103.871000
  H    -42.633500   41.315200   95.485000
  H    -41.165300   34.776000   99.894100

 Total Charge           Charge          ....    0
 Multiplicity           Mult            ....    1
 Number of Electrons    NEL             ....  134
 Basis Dimension        Dim             ....  322

ORBITAL ENERGIES
----------------

  NO   OCC          E(Eh)            E(eV)
   0   2.0000     -88.969192     -2420.9748
   1   2.0000     -88.962862     -2420.8025
   2   2.0000     -10.324397      -280.9411
   3   2.0000     -10.320490      -280.8348
   4   2.0000     -10.316646      -280.7302
   5   2.0000     -10.310144      -280.5533
   6   2.0000     -10.309440      -280.5341
   7   2.0000     -10.306181      -280.4454
   8   2.0000     -10.296931      -280.1937
   9   2.0000     -10.296677      -280.1868
  10   2.0000     -10.290082      -280.0074
  11   2.0000     -10.288995      -279.9778
  12   2.0000     -10.286349      -279.9058
  13   2.0000     -10.282620      -279.8043
  14   2.0000     -10.282007      -279.7876
  15   2.0000     -10.275068      -279.5988
  16   2.0000      -8.083497      -219.9631
  17   2.0000      -8.077773      -219.8074
  18   2.0000      -6.042009      -164.4114
  19   2.0000      -6.038241      -164.3089
  20   2.0000      -6.036382      -164.2583
  21   2.0000      -6.034093      -164.1960
  22   2.0000      -6.032369      -164.1491
  23   2.0000      -6.028306      -164.0385
  24   2.0000      -1.010838       -27.5063
  25   2.0000      -0.982552       -26.7366
  26   2.0000      -0.910151       -24.7665
  27   2.0000      -0.907054       -24.6822
  28   2.0000      -0.874316       -23.7913
  29   2.0000      -0.856837       -23.3157
  30   2.0000      -0.845489       -23.0069
  31   2.0000      -0.811852       -22.0916
  32   2.0000      -0.781718       -21.2716
  33   2.0000      -0.771646       -20.9975
  34   2.0000      -0.708046       -19.2669
  35   2.0000      -0.702309       -19.1108
  36   2.0000      -0.695407       -18.9230
  37   2.0000      -0.667206       -18.1556
  38   2.0000      -0.639701       -17.4071
  39   2.0000      -0.617982       -16.8161
  40   2.0000      -0.593998       -16.1635
  41   2.0000      -0.574539       -15.6340
  42   2.0000      -0.569599       -15.4996
  43   2.0000      -0.556235       -15.1359
  44   2.0000      -0.525202       -14.2915
  45   2.0000      -0.519251       -14.1295
  46   2.0000      -0.518314       -14.1040
  47   2.0000      -0.514504       -14.0004
  48   2.0000      -0.503366       -13.6973
  49   2.0000      -0.499457       -13.5909
  50   2.0000      -0.498775       -13.5724
  51   2.0000      -0.477222       -12.9859
  52   2.0000      -0.469377       -12.7724
  53   2.0000      -0.465506       -12.6671
  54   2.0000      -0.458219       -12.4688
  55   2.0000      -0.453090       -12.3292
  56   2.0000      -0.443480       -12.0677
  57   2.0000      -0.438188       -11.9237
  58   2.0000      -0.431773       -11.7491
  59   2.0000      -0.428713       -11.6659
  60   2.0000      -0.423048       -11.5117
  61   2.0000      -0.414168       -11.2701
  62   2.0000      -0.412527       -11.2254
  63   2.0000      -0.358520        -9.7558
  64   2.0000      -0.337754        -9.1908
  65   2.0000      -0.327496        -8.9116
  66   2.0000      -0.282298        -7.6817
  67   0.0000       0.022426         0.6102
  68   0.0000       0.078883         2.1465
  69   0.0000       0.100364         2.7310
  70   0.0000       0.122773         3.3408
  71   0.0000       0.127145         3.4598

MULLIKEN ATOMIC CHARGES
-----------------------
   0 S :    0.091478
   1 C :   -0.133535
   2 C :   -0.060167
   3 C :   -0.041476
   4 C :   -0.106053
   5 H :    0.039255
   6 C :    0.099205
   7 H :    0.008325
   8 H :    0.023120
   9 C :   -0.053127
  10 H :    0.031409
  11 H :    0.017003
  12 C :   -0.048897
  13 H :    0.033564
  14 H :    0.032364
  15 H :    0.014604
  16 S :    0.099337
  17 C :   -0.082284
  18 C :   -0.026125
  19 C :   -0.030700
  20 C :   -0.137419
  21 H :    0.029460
  22 C :   -0.013666
  23 H :    0.032249
  24 H :    0.028832
  25 C :   -0.009974
  26 H :    0.020484
  27 H :    0.029042
  28 C :   -0.065742
  29 H :    0.030028
  30 H :    0.047635
  31 H :    0.019235
  32 H :    0.047130
  33 H :    0.035405
Sum of atomic charges:    0.0000000

LOEWDIN ATOMIC CHARGES
----------------------
   0 S :    0.388295
   1 C :   -0.201487
   2 C :   -0.062248
   3 C :   -0.072191
   4 C :   -0.184982
   5 H :    0.042928
   6 C :   -0.020877
   7 H :    0.024803
   8 H :    0.026317
   9 C :   -0.021049
  10 H :    0.025610
  11 H :    0.014028
  12 C :   -0.067979
  13 H :    0.028149
  14 H :    0.024091
  15 H :    0.017910
  16 S :    0.392991
  17 C :   -0.165371
  18 C :   -0.066425
  19 C :   -0.053065
  20 C :   -0.191980
  21 H :    0.036186
  22 C :   -0.036769
  23 H :    0.027996
  24 H :    0.033683
  25 C :   -0.042885
  26 H :    0.022066
  27 H :    0.024211
  28 C :   -0.070210
  29 H :    0.024015
  30 H :    0.038040
  31 H :    0.021220
  32 H :    0.029282
  33 H :    0.015699

  Mayer bond orders larger than 0.100000
B(  0-S ,  1-C ) :   1.1132 B(  0-S ,  4-C ) :   1.1303 B(  1-C ,  2-C ) :   1.6319
B(  1-C , 32-H ) :   0.9721 B(  2-C ,  3-C ) :   1.2088 B(  2-C ,  6-C ) :   1.0312
B(  3-C ,  4-C ) :   1.5890 B(  3-C ,  5-H ) :   0.9863 B(  4-C , 20-C ) :   1.0951
B(  6-C ,  7-H ) :   0.9411 B(  6-C ,  8-H ) :   0.9404 B(  6-C ,  9-C ) :   1.0615
B(  9-C , 10-H ) :   0.9598 B(  9-C , 11-H ) :   0.9592 B(  9-C , 12-C ) :   1.0884
B( 12-C , 13-H ) :   0.9776 B( 12-C , 14-H ) :   0.9746 B( 12-C , 15-H ) :   0.9734
B( 16-S , 17-C ) :   1.1400 B( 16-S , 20-C ) :   1.1179 B( 17-C , 18-C ) :   1.6303
B( 17-C , 33-H ) :   0.9726 B( 18-C , 19-C ) :   1.2314 B( 18-C , 21-H ) :   0.9856
B( 19-C , 20-C ) :   1.6115 B( 19-C , 22-C ) :   1.0222 B( 22-C , 23-H ) :   0.9350
B( 22-C , 24-H ) :   0.9452 B( 22-C , 25-C ) :   1.0512 B( 25-C , 26-H ) :   0.9530
B( 25-C , 27-H ) :   0.9512 B( 25-C , 28-C ) :   1.0899 B( 28-C , 29-H ) :   0.9707
B( 28-C , 30-H ) :   0.9714 B( 28-C , 31-H ) :   0.9737

Dispersion correction           -0.013579550
FINAL SINGLE POINT ENERGY     -1339.865161687825

DIPOLE MOMENT
-------------
                                X             Y             Z
Electronic contribution:     19.54926     -17.74048     -17.38018
Nuclear contribution   :    -19.93459      17.98826      17.86423
                        -----------------------------------------
Total Dipole Moment    :     -0.38534       0.24778       0.48405
                        -----------------------------------------
Magnitude (a.u.)       :      0.66647
Magnitude (Debye)      :      1.69404

Rotational constants in cm-1:     0.015848     0.009245     0.006326
Rotational constants in MHz :   475.119180   277.160387   189.650463

                             ****ORCA TERMINATED NORMALLY****
TOTAL RUN TIME: 0 days 0 hours 0 minutes 29 seconds 171 msec
