                         Program Version 4.2.1 -  RELEASE  -
|  1> ! wB97X-D3 SP def2-SVP
|  2> %pal
|  3> nprocs 16
|  4> end
|  5>
|  6> * xyz 0 1
|  7> S 	 8.37714 	 21.9446 	 59.6026
|  8> C 	 8.57883 	 22.5792 	 57.9877
|  9> C 	 7.34061 	 23.0983 	 57.5848
| 10> C 	 6.2221 	 22.8289 	 58.4487
| 11> C 	 6.66216 	 22.2139 	 59.5617
| 12> H 	 5.21708 	 23.0899 	 58.225
| 13> C 	 7.10753 	 23.7567 	 56.2543
| 14> H 	 7.8387 	 24.5444 	 56.1495
| 15> H 	 6.16751 	 24.3017 	 56.2961
| 16> C 	 6.94748 	 22.7333 	 55.071
| 17> H 	 6.43521 	 23.1928 	 54.2196
| 18> H 	 7.9587 	 22.4955 	 54.6982
| 19> C 	 6.23421 	 21.3963 	 55.3078
| 20> H 	 6.6444 	 20.8346 	 56.0933
| 21> H 	 5.1672 	 21.5415 	 55.2481
| 22> H 	 6.52713 	 20.7664 	 54.5185
| 23> S 	 6.08286 	 20.1931 	 61.2471
| 24> C 	 4.94177 	 20.3143 	 62.5345
| 25> C 	 4.30904 	 21.5233 	 62.4838
| 26> C 	 4.87841 	 22.3828 	 61.4798
| 27> C 	 5.91174 	 21.8026 	 60.7405
| 28> H 	 3.61735 	 21.7594 	 63.2389
| 29> C 	 4.5749 	 23.8775 	 61.4171
| 30> H 	 5.10526 	 24.2466 	 60.499
| 31> H 	 4.98585 	 24.4982 	 62.2251
| 32> C 	 3.12255 	 24.2949 	 61.4116
| 33> H 	 2.92186 	 25.3696 	 61.3475
| 34> H 	 2.73838 	 23.9905 	 62.414
| 35> C 	 2.30109 	 23.5267 	 60.3401
| 36> H 	 1.28001 	 23.7542 	 60.6391
| 37> H 	 2.56862 	 22.4977 	 60.3846
| 38> H 	 2.493 	 23.9212 	 59.3761
| 39> H 	 9.43379 	 22.5975 	 57.4051
| 40> H 	 4.71971 	 19.4144 	 63.153
| 41> *
| 42>
| 43>                          ****END OF INPUT****

CARTESIAN COORDINATES (ANGSTROEM)
---------------------------------
  S      8.377140   21.944600   59.602600
  C      8.578830   22.579200   57.987700
  C      7.340610   23.098300   57.584800
  C      6.222100   22.828900   58.448700
  C      6.662160   22.213900   59.561700
  H      5.217080   23.089900   58.225000
  C      7.107530   23.756700   56.254300
  H      7.838700   24.544400   56.149500
  H      6.167510   24.301700   56.296100
  C      6.947480   22.733300   55.071000
  H      6.435210   23.192800   54.219600
  H      7.958700   22.495500   54.698200
  C      6.234210   21.396300   55.307800
  H      6.644400   20.834600   56.093300
  H      5.167200   21.541500   55.248100
  H      6.527130   20.766400   54.518500
  S      6.082860   20.193100   61.247100
  C      4.941770   20.314300   62.534500
  C      4.309040   21.523300   62.483800
  C      4.878410   22.382800   61.479800
  C      5.911740   21.802600   60.740500
  H      3.617350   21.759400   63.238900
  C      4.574900   23.877500   61.417100
  H      5.105260   24.246600   60.499000
  H      4.985850   24.498200   62.225100
  C      3.122550   24.294900   61.411600
  H      2.921860   25.369600   61.347500
  H      2.738380   23.990500   62.414000
  C      2.301090   23.526700   60.340100
  H      1.280010   23.754200   60.639100
  H      2.568620   22.497700   60.384600
  H      2.493000   23.921200   59.376100
  H      9.433790   22.597500   57.405100
  H      4.719710   19.414400   63.153000

 Total Charge           Charge          ....    0
 Multiplicity           Mult            ....    1
 Number of Electrons    NEL             ....  134
 Basis Dimension        Dim             ....  322

ORBITAL ENERGIES
----------------

  NO   OCC          E(Eh)            E(eV)
   0   2.0000     -88.966051     -2420.8893
   1   2.0000     -88.961037     -2420.7529
   2   2.0000     -10.327981      -281.0387
   3   2.0000     -10.323024      -280.9038
   4   2.0000     -10.318733      -280.7870
   5   2.0000     -10.310154      -280.5536
   6   2.0000     -10.305840      -280.4362
   7   2.0000     -10.300045      -280.2785
   8   2.0000     -10.292902      -280.0841
   9   2.0000     -10.290990      -280.0321
  10   2.0000     -10.288328      -279.9596
  11   2.0000     -10.287645      -279.9411
  12   2.0000     -10.287081      -279.9257
  13   2.0000     -10.284146      -279.8458
  14   2.0000     -10.266574      -279.3677
  15   2.0000     -10.265859      -279.3482
  16   2.0000      -8.081048      -219.8965
  17   2.0000      -8.077677      -219.8048
  18   2.0000      -6.039590      -164.3456
  19   2.0000      -6.035988      -164.2476
  20   2.0000      -6.035483      -164.2338
  21   2.0000      -6.031776      -164.1330
  22   2.0000      -6.031645      -164.1294
  23   2.0000      -6.028781      -164.0515
  24   2.0000      -1.016492       -27.6601
  25   2.0000      -0.990853       -26.9625
  26   2.0000      -0.909167       -24.7397
  27   2.0000      -0.907487       -24.6940
  28   2.0000      -0.872928       -23.7536
  29   2.0000      -0.852433       -23.1959
  30   2.0000      -0.842494       -22.9254
  31   2.0000      -0.823083       -22.3972
  32   2.0000      -0.784596       -21.3499
  33   2.0000      -0.774046       -21.0629
  34   2.0000      -0.705727       -19.2038
  35   2.0000      -0.701806       -19.0971
  36   2.0000      -0.690579       -18.7916
  37   2.0000      -0.657954       -17.9038
  38   2.0000      -0.644765       -17.5450
  39   2.0000      -0.620238       -16.8775
  40   2.0000      -0.596722       -16.2376
  41   2.0000      -0.573984       -15.6189
  42   2.0000      -0.559690       -15.2299
  43   2.0000      -0.551568       -15.0089
  44   2.0000      -0.544523       -14.8172
  45   2.0000      -0.540614       -14.7108
  46   2.0000      -0.521201       -14.1826
  47   2.0000      -0.517937       -14.0938
  48   2.0000      -0.505649       -13.7594
  49   2.0000      -0.500408       -13.6168
  50   2.0000      -0.498570       -13.5668
  51   2.0000      -0.477650       -12.9975
  52   2.0000      -0.468878       -12.7588
  53   2.0000      -0.466103       -12.6833
  54   2.0000      -0.459825       -12.5125
  55   2.0000      -0.451046       -12.2736
  56   2.0000      -0.448717       -12.2102
  57   2.0000      -0.441166       -12.0047
  58   2.0000      -0.421443       -11.4680
  59   2.0000      -0.414930       -11.2908
  60   2.0000      -0.413406       -11.2493
  61   2.0000      -0.408510       -11.1161
  62   2.0000      -0.406960       -11.0740
  63   2.0000      -0.352280        -9.5860
  64   2.0000      -0.331058        -9.0085
  65   2.0000      -0.327207        -8.9038
  66   2.0000      -0.295546        -8.0422
  67   0.0000       0.031761         0.8643
  68   0.0000       0.075294         2.0489
  69   0.0000       0.110451         3.0055
  70   0.0000       0.120648         3.2830
  71   0.0000       0.130790         3.5590

MULLIKEN ATOMIC CHARGES
-----------------------
   0 S :    0.113289
   1 C :   -0.077558
   2 C :   -0.151779
   3 C :    0.052813
   4 C :   -0.128934
   5 H :    0.003460
   6 C :    0.099147
   7 H :    0.030181
   8 H :    0.006827
   9 C :   -0.110214
  10 H :    0.027798
  11 H :    0.022230
  12 C :    0.005546
  13 H :    0.031564
  14 H :    0.036322
  15 H :    0.011053
  16 S :    0.106068
  17 C :   -0.114818
  18 C :   -0.007837
  19 C :   -0.056461
  20 C :   -0.131654
  21 H :    0.009112
  22 C :    0.061337
  23 H :    0.019948
  24 H :    0.041637
  25 C :   -0.120916
  26 H :    0.034204
  27 H :    0.018874
  28 C :   -0.025812
  29 H :    0.031621
  30 H :    0.043255
  31 H :    0.021393
  32 H :    0.019437
  33 H :    0.078870
Sum of atomic charges:    0.0000000

LOEWDIN ATOMIC CHARGES
----------------------
   0 S :    0.416251
   1 C :   -0.195646
   2 C :   -0.053583
   3 C :   -0.057895
   4 C :   -0.187494
   5 H :    0.030617
   6 C :   -0.038492
   7 H :    0.030904
   8 H :    0.026045
   9 C :   -0.038113
  10 H :    0.023695
  11 H :    0.020385
  12 C :   -0.059926
  13 H :    0.023833
  14 H :    0.025471
  15 H :    0.026515
  16 S :    0.440297
  17 C :   -0.192539
  18 C :   -0.069769
  19 C :   -0.061873
  20 C :   -0.219663
  21 H :    0.026328
  22 C :   -0.042209
  23 H :    0.029590
  24 H :    0.035011
  25 C :   -0.045089
  26 H :    0.025381
  27 H :    0.019302
  28 C :   -0.057956
  29 H :    0.027676
  30 H :    0.022300
  31 H :    0.016036
  32 H :    0.015685
  33 H :    0.038925

  Mayer bond orders larger than 0.100000
B(  0-S ,  1-C ) :   1.1199 B(  0-S ,  4-C ) :   1.1699 B(  1-C ,  2-C ) :   1.5976
B(  1-C , 32-H ) :   0.9876 B(  2-C ,  3-C ) :   1.2205 B(  2-C ,  6-C ) :   1.0379
B(  3-C ,  4-C ) :   1.5767 B(  3-C ,  5-H ) :   1.0056 B(  4-C , 20-C ) :   0.9911
B(  6-C ,  7-H ) :   0.9433 B(  6-C ,  8-H ) :   0.9382 B(  6-C ,  9-C ) :   1.0444
B(  9-C , 10-H ) :   0.9612 B(  9-C , 11-H ) :   0.9611 B(  9-C , 12-C ) :   1.0966
B( 12-C , 13-H ) :   0.9622 B( 12-C , 14-H ) :   0.9770 B( 12-C , 15-H ) :   0.9647
B( 16-S , 17-C ) :   1.1773 B( 16-S , 20-C ) :   1.1771 B( 17-C , 18-C ) :   1.5785
B( 17-C , 33-H ) :   0.9641 B( 18-C , 19-C ) :   1.2368 B( 18-C , 21-H ) :   1.0058
B( 19-C , 20-C ) :   1.5719 B( 19-C , 22-C ) :   1.0357 B( 22-C , 23-H ) :   0.9371
B( 22-C , 24-H ) :   0.9424 B( 22-C , 25-C ) :   1.0667 B( 25-C , 26-H ) :   0.9573
B( 25-C , 27-H ) :   0.9541 B( 25-C , 28-C ) :   1.0742 B( 28-C , 29-H ) :   0.9759
B( 28-C , 30-H ) :   0.9720 B( 28-C , 31-H ) :   0.9770

Dispersion correction           -0.015159999
FINAL SINGLE POINT ENERGY     -1339.872826809371

DIPOLE MOMENT
-------------
                                X             Y             Z
Electronic contribution:     15.19143     -11.71896      14.82623
Nuclear contribution   :    -15.52623      11.98081     -15.06324
                        -----------------------------------------
Total Dipole Moment    :     -0.33480       0.26185      -0.23701
                        -----------------------------------------
Magnitude (a.u.)       :      0.48665
Magnitude (Debye)      :      1.23698

Rotational constants in cm-1:     0.019694     0.009120     0.007467
Rotational constants in MHz :   590.415551   273.399411   223.842673

                             ****ORCA TERMINATED NORMALLY****
TOTAL RUN TIME: 0 days 0 hours 0 minutes 36 seconds 892 msec
