                         Program Version 4.2.1 -  RELEASE  -
|  1> ! wB97X-D3 SP def2-SVP
|  2> %pal
|  3> nprocs 16
|  4> end
|  5>
|  6> * xyz 0 1
|  7> S 	 44.8026 	 19.6819 	 46.335
|  8> C 	 43.8238 	 18.2486 	 45.9339
|  9> C 	 42.6309 	 18.5758 	 45.2879
| 10> C 	 42.5134 	 19.9947 	 45.2282
| 11> C 	 43.5454 	 20.7172 	 45.73
| 12> H 	 41.6962 	 20.5774 	 44.7679
| 13> C 	 41.5496 	 17.6276 	 44.7922
| 14> H 	 41.8741 	 16.5123 	 44.9532
| 15> H 	 41.283 	 17.8903 	 43.7915
| 16> C 	 40.1849 	 17.7852 	 45.4916
| 17> H 	 39.5536 	 18.5377 	 44.9765
| 18> H 	 39.683 	 16.7914 	 45.4561
| 19> C 	 40.3061 	 18.0381 	 46.9992
| 20> H 	 40.9307 	 17.2351 	 47.5266
| 21> H 	 40.9203 	 18.9639 	 47.2386
| 22> H 	 39.2863 	 17.9986 	 47.4478
| 23> S 	 45.4351 	 22.4898 	 44.9483
| 24> C 	 45.1089 	 24.2067 	 44.8925
| 25> C 	 43.824 	 24.4873 	 45.283
| 26> C 	 43.1115 	 23.342 	 45.8017
| 27> C 	 43.7815 	 22.1663 	 45.5442
| 28> H 	 43.4359 	 25.5438 	 45.2896
| 29> C 	 41.7566 	 23.345 	 46.4131
| 30> H 	 41.8612 	 23.4553 	 47.5211
| 31> H 	 41.4126 	 22.312 	 46.4554
| 32> C 	 40.6451 	 24.2664 	 45.8938
| 33> H 	 40.8107 	 25.3362 	 46.1034
| 34> H 	 39.6695 	 24.0677 	 46.4591
| 35> C 	 40.5034 	 24.3224 	 44.3347
| 36> H 	 41.3084 	 24.6897 	 43.7273
| 37> H 	 39.5568 	 24.808 	 44.0429
| 38> H 	 40.4193 	 23.2991 	 43.9643
| 39> H 	 44.0557 	 17.2357 	 46.0412
| 40> H 	 45.7495 	 24.9074 	 44.4768
| 41> *
| 42>
| 43>                          ****END OF INPUT****

CARTESIAN COORDINATES (ANGSTROEM)
---------------------------------
  S     44.802600   19.681900   46.335000
  C     43.823800   18.248600   45.933900
  C     42.630900   18.575800   45.287900
  C     42.513400   19.994700   45.228200
  C     43.545400   20.717200   45.730000
  H     41.696200   20.577400   44.767900
  C     41.549600   17.627600   44.792200
  H     41.874100   16.512300   44.953200
  H     41.283000   17.890300   43.791500
  C     40.184900   17.785200   45.491600
  H     39.553600   18.537700   44.976500
  H     39.683000   16.791400   45.456100
  C     40.306100   18.038100   46.999200
  H     40.930700   17.235100   47.526600
  H     40.920300   18.963900   47.238600
  H     39.286300   17.998600   47.447800
  S     45.435100   22.489800   44.948300
  C     45.108900   24.206700   44.892500
  C     43.824000   24.487300   45.283000
  C     43.111500   23.342000   45.801700
  C     43.781500   22.166300   45.544200
  H     43.435900   25.543800   45.289600
  C     41.756600   23.345000   46.413100
  H     41.861200   23.455300   47.521100
  H     41.412600   22.312000   46.455400
  C     40.645100   24.266400   45.893800
  H     40.810700   25.336200   46.103400
  H     39.669500   24.067700   46.459100
  C     40.503400   24.322400   44.334700
  H     41.308400   24.689700   43.727300
  H     39.556800   24.808000   44.042900
  H     40.419300   23.299100   43.964300
  H     44.055700   17.235700   46.041200
  H     45.749500   24.907400   44.476800

 Total Charge           Charge          ....    0
 Multiplicity           Mult            ....    1
 Number of Electrons    NEL             ....  134
 Basis Dimension        Dim             ....  322

ORBITAL ENERGIES
----------------

  NO   OCC          E(Eh)            E(eV)
   0   2.0000     -88.970653     -2421.0145
   1   2.0000     -88.962951     -2420.8050
   2   2.0000     -10.330527      -281.1079
   3   2.0000     -10.329368      -281.0764
   4   2.0000     -10.314655      -280.6760
   5   2.0000     -10.313508      -280.6448
   6   2.0000     -10.306844      -280.4635
   7   2.0000     -10.305361      -280.4231
   8   2.0000     -10.302514      -280.3457
   9   2.0000     -10.300281      -280.2849
  10   2.0000     -10.299832      -280.2727
  11   2.0000     -10.293965      -280.1130
  12   2.0000     -10.293106      -280.0897
  13   2.0000     -10.292475      -280.0725
  14   2.0000     -10.285165      -279.8736
  15   2.0000     -10.278608      -279.6951
  16   2.0000      -8.084812      -219.9989
  17   2.0000      -8.077486      -219.7996
  18   2.0000      -6.043482      -164.4515
  19   2.0000      -6.039452      -164.3418
  20   2.0000      -6.036032      -164.2488
  21   2.0000      -6.035360      -164.2305
  22   2.0000      -6.032081      -164.1413
  23   2.0000      -6.028133      -164.0338
  24   2.0000      -1.008222       -27.4351
  25   2.0000      -0.983771       -26.7698
  26   2.0000      -0.913530       -24.8584
  27   2.0000      -0.906912       -24.6783
  28   2.0000      -0.867813       -23.6144
  29   2.0000      -0.849087       -23.1048
  30   2.0000      -0.839927       -22.8556
  31   2.0000      -0.815962       -22.2035
  32   2.0000      -0.784945       -21.3594
  33   2.0000      -0.777078       -21.1454
  34   2.0000      -0.708403       -19.2766
  35   2.0000      -0.700985       -19.0748
  36   2.0000      -0.691031       -18.8039
  37   2.0000      -0.656827       -17.8732
  38   2.0000      -0.639176       -17.3929
  39   2.0000      -0.617843       -16.8124
  40   2.0000      -0.599920       -16.3246
  41   2.0000      -0.562481       -15.3059
  42   2.0000      -0.560084       -15.2407
  43   2.0000      -0.549568       -14.9545
  44   2.0000      -0.543867       -14.7994
  45   2.0000      -0.534241       -14.5374
  46   2.0000      -0.517477       -14.0813
  47   2.0000      -0.508269       -13.8307
  48   2.0000      -0.503002       -13.6874
  49   2.0000      -0.496013       -13.4972
  50   2.0000      -0.489109       -13.3093
  51   2.0000      -0.481688       -13.1074
  52   2.0000      -0.468533       -12.7494
  53   2.0000      -0.458596       -12.4790
  54   2.0000      -0.457116       -12.4388
  55   2.0000      -0.447783       -12.1848
  56   2.0000      -0.445804       -12.1309
  57   2.0000      -0.441173       -12.0049
  58   2.0000      -0.430890       -11.7251
  59   2.0000      -0.430006       -11.7011
  60   2.0000      -0.420081       -11.4310
  61   2.0000      -0.409417       -11.1408
  62   2.0000      -0.403617       -10.9830
  63   2.0000      -0.350777        -9.5451
  64   2.0000      -0.332257        -9.0412
  65   2.0000      -0.329767        -8.9734
  66   2.0000      -0.293029        -7.9737
  67   0.0000       0.031055         0.8451
  68   0.0000       0.068112         1.8534
  69   0.0000       0.105437         2.8691
  70   0.0000       0.119169         3.2428
  71   0.0000       0.125739         3.4215

MULLIKEN ATOMIC CHARGES
-----------------------
   0 S :    0.114962
   1 C :   -0.088466
   2 C :   -0.107238
   3 C :    0.008826
   4 C :   -0.133478
   5 H :    0.020140
   6 C :    0.097633
   7 H :    0.042047
   8 H :    0.030556
   9 C :   -0.121141
  10 H :    0.041283
  11 H :    0.041339
  12 C :   -0.092094
  13 H :    0.030098
  14 H :    0.056939
  15 H :    0.046725
  16 S :    0.084300
  17 C :   -0.058452
  18 C :   -0.049577
  19 C :   -0.039741
  20 C :   -0.157317
  21 H :    0.041608
  22 C :    0.065068
  23 H :    0.040929
  24 H :    0.011201
  25 C :   -0.087241
  26 H :    0.030392
  27 H :    0.046450
  28 C :   -0.059516
  29 H :    0.039136
  30 H :    0.038321
  31 H :    0.014960
  32 H :    0.016861
  33 H :    0.034489
Sum of atomic charges:   -0.0000000

LOEWDIN ATOMIC CHARGES
----------------------
   0 S :    0.399967
   1 C :   -0.180948
   2 C :   -0.059926
   3 C :   -0.070306
   4 C :   -0.200566
   5 H :    0.033870
   6 C :   -0.033615
   7 H :    0.042866
   8 H :    0.032625
   9 C :   -0.051992
  10 H :    0.024195
  11 H :    0.033264
  12 C :   -0.083924
  13 H :    0.029795
  14 H :    0.032013
  15 H :    0.028861
  16 S :    0.384012
  17 C :   -0.172166
  18 C :   -0.074524
  19 C :   -0.059329
  20 C :   -0.174857
  21 H :    0.041287
  22 C :   -0.046445
  23 H :    0.045346
  24 H :    0.032364
  25 C :   -0.048152
  26 H :    0.022617
  27 H :    0.038813
  28 C :   -0.073816
  29 H :    0.025214
  30 H :    0.030297
  31 H :    0.020662
  32 H :    0.015965
  33 H :    0.016534

  Mayer bond orders larger than 0.100000
B(  0-S ,  1-C ) :   1.1238 B(  0-S ,  4-C ) :   1.1381 B(  1-C ,  2-C ) :   1.6296
B(  1-C , 32-H ) :   0.9679 B(  2-C ,  3-C ) :   1.2135 B(  2-C ,  6-C ) :   1.0398
B(  3-C ,  4-C ) :   1.6071 B(  3-C ,  5-H ) :   0.9865 B(  4-C , 20-C ) :   1.0141
B(  6-C ,  7-H ) :   0.9420 B(  6-C ,  8-H ) :   0.9349 B(  6-C ,  9-C ) :   1.0589
B(  9-C , 10-H ) :   0.9542 B(  9-C , 11-H ) :   0.9583 B(  9-C , 12-C ) :   1.0843
B( 12-C , 13-H ) :   0.9729 B( 12-C , 14-H ) :   0.9617 B( 12-C , 15-H ) :   0.9736
B( 16-S , 17-C ) :   1.1443 B( 16-S , 20-C ) :   1.1247 B( 17-C , 18-C ) :   1.6393
B( 17-C , 33-H ) :   0.9735 B( 18-C , 19-C ) :   1.2044 B( 18-C , 21-H ) :   0.9780
B( 19-C , 20-C ) :   1.6274 B( 19-C , 22-C ) :   1.0553 B( 22-C , 23-H ) :   0.9147
B( 22-C , 24-H ) :   0.9306 B( 22-C , 25-C ) :   1.0671 B( 25-C , 26-H ) :   0.9533
B( 25-C , 27-H ) :   0.9546 B( 25-C , 28-C ) :   1.0668 B( 28-C , 29-H ) :   0.9721
B( 28-C , 30-H ) :   0.9746 B( 28-C , 31-H ) :   0.9764

Dispersion correction           -0.015125795
FINAL SINGLE POINT ENERGY     -1339.870273450177

DIPOLE MOMENT
-------------
                                X             Y             Z
Electronic contribution:     28.08742       1.06111      -0.07772
Nuclear contribution   :    -28.76084      -1.01450      -0.04517
                        -----------------------------------------
Total Dipole Moment    :     -0.67342       0.04661      -0.12289
                        -----------------------------------------
Magnitude (a.u.)       :      0.68613
Magnitude (Debye)      :      1.74400

Rotational constants in cm-1:     0.018541     0.009736     0.007013
Rotational constants in MHz :   555.858749   291.873826   210.240884

                             ****ORCA TERMINATED NORMALLY****
TOTAL RUN TIME: 0 days 0 hours 0 minutes 36 seconds 162 msec
