                         Program Version 4.2.1 -  RELEASE  -
|  1> ! wB97X-D3 SP def2-SVP
|  2> %pal
|  3> nprocs 16
|  4> end
|  5>
|  6> * xyz 0 1
|  7> S 	 -15.1338 	 36.4061 	 38.155
|  8> C 	 -15.4873 	 37.7912 	 39.1642
|  9> C 	 -15.0939 	 38.991 	 38.5339
| 10> C 	 -14.5811 	 38.7939 	 37.2561
| 11> C 	 -14.7754 	 37.4835 	 36.7859
| 12> H 	 -14.2367 	 39.6016 	 36.5631
| 13> C 	 -15.3773 	 40.3597 	 39.0834
| 14> H 	 -14.531 	 41.0043 	 38.8348
| 15> H 	 -15.3192 	 40.2928 	 40.1688
| 16> C 	 -16.6961 	 41.04 	 38.5782
| 17> H 	 -16.513 	 41.4262 	 37.6406
| 18> H 	 -17.4405 	 40.1976 	 38.5016
| 19> C 	 -17.1688 	 42.2597 	 39.4307
| 20> H 	 -16.5556 	 43.0671 	 39.4976
| 21> H 	 -18.0658 	 42.6604 	 38.9222
| 22> H 	 -17.4098 	 41.7812 	 40.4247
| 23> S 	 -13.2858 	 35.8251 	 35.3798
| 24> C 	 -13.2996 	 35.9259 	 33.6687
| 25> C 	 -14.1293 	 36.8956 	 33.1985
| 26> C 	 -14.812 	 37.5927 	 34.2455
| 27> C 	 -14.4911 	 37.0357 	 35.4484
| 28> H 	 -14.1508 	 37.0664 	 32.0817
| 29> C 	 -15.7546 	 38.7096 	 34.0521
| 30> H 	 -16.4451 	 38.8061 	 34.8845
| 31> H 	 -16.4515 	 38.303 	 33.3369
| 32> C 	 -15.0751 	 40.0713 	 33.5193
| 33> H 	 -14.7581 	 39.8015 	 32.5137
| 34> H 	 -14.1845 	 40.3749 	 34.0857
| 35> C 	 -16.1457 	 41.1944 	 33.2689
| 36> H 	 -17.116 	 40.775 	 32.9141
| 37> H 	 -15.7948 	 41.9079 	 32.5528
| 38> H 	 -16.2377 	 41.7684 	 34.2183
| 39> H 	 -15.9019 	 37.7067 	 40.213
| 40> H 	 -12.7183 	 35.3962 	 32.9849
| 41> *
| 42>
| 43>                          ****END OF INPUT****

CARTESIAN COORDINATES (ANGSTROEM)
---------------------------------
  S    -15.133800   36.406100   38.155000
  C    -15.487300   37.791200   39.164200
  C    -15.093900   38.991000   38.533900
  C    -14.581100   38.793900   37.256100
  C    -14.775400   37.483500   36.785900
  H    -14.236700   39.601600   36.563100
  C    -15.377300   40.359700   39.083400
  H    -14.531000   41.004300   38.834800
  H    -15.319200   40.292800   40.168800
  C    -16.696100   41.040000   38.578200
  H    -16.513000   41.426200   37.640600
  H    -17.440500   40.197600   38.501600
  C    -17.168800   42.259700   39.430700
  H    -16.555600   43.067100   39.497600
  H    -18.065800   42.660400   38.922200
  H    -17.409800   41.781200   40.424700
  S    -13.285800   35.825100   35.379800
  C    -13.299600   35.925900   33.668700
  C    -14.129300   36.895600   33.198500
  C    -14.812000   37.592700   34.245500
  C    -14.491100   37.035700   35.448400
  H    -14.150800   37.066400   32.081700
  C    -15.754600   38.709600   34.052100
  H    -16.445100   38.806100   34.884500
  H    -16.451500   38.303000   33.336900
  C    -15.075100   40.071300   33.519300
  H    -14.758100   39.801500   32.513700
  H    -14.184500   40.374900   34.085700
  C    -16.145700   41.194400   33.268900
  H    -17.116000   40.775000   32.914100
  H    -15.794800   41.907900   32.552800
  H    -16.237700   41.768400   34.218300
  H    -15.901900   37.706700   40.213000
  H    -12.718300   35.396200   32.984900

 Total Charge           Charge          ....    0
 Multiplicity           Mult            ....    1
 Number of Electrons    NEL             ....  134
 Basis Dimension        Dim             ....  322

ORBITAL ENERGIES
----------------

  NO   OCC          E(Eh)            E(eV)
   0   2.0000     -88.967691     -2420.9339
   1   2.0000     -88.962854     -2420.8023
   2   2.0000     -10.327919      -281.0370
   3   2.0000     -10.317701      -280.7589
   4   2.0000     -10.314947      -280.6840
   5   2.0000     -10.304988      -280.4130
   6   2.0000     -10.298525      -280.2371
   7   2.0000     -10.297872      -280.2193
   8   2.0000     -10.297448      -280.2078
   9   2.0000     -10.293684      -280.1054
  10   2.0000     -10.293352      -280.0964
  11   2.0000     -10.290400      -280.0160
  12   2.0000     -10.288707      -279.9699
  13   2.0000     -10.287091      -279.9260
  14   2.0000     -10.286178      -279.9011
  15   2.0000     -10.279588      -279.7218
  16   2.0000      -8.081721      -219.9148
  17   2.0000      -8.079249      -219.8475
  18   2.0000      -6.040195      -164.3621
  19   2.0000      -6.037609      -164.2917
  20   2.0000      -6.036384      -164.2584
  21   2.0000      -6.033622      -164.1832
  22   2.0000      -6.032522      -164.1533
  23   2.0000      -6.029980      -164.0841
  24   2.0000      -1.014733       -27.6123
  25   2.0000      -0.984579       -26.7917
  26   2.0000      -0.906395       -24.6643
  27   2.0000      -0.905077       -24.6284
  28   2.0000      -0.869832       -23.6693
  29   2.0000      -0.854095       -23.2411
  30   2.0000      -0.848179       -23.0801
  31   2.0000      -0.812269       -22.1030
  32   2.0000      -0.781790       -21.2736
  33   2.0000      -0.767823       -20.8935
  34   2.0000      -0.708247       -19.2724
  35   2.0000      -0.703435       -19.1415
  36   2.0000      -0.697280       -18.9740
  37   2.0000      -0.660727       -17.9793
  38   2.0000      -0.632688       -17.2163
  39   2.0000      -0.617915       -16.8143
  40   2.0000      -0.595938       -16.2163
  41   2.0000      -0.569024       -15.4839
  42   2.0000      -0.559033       -15.2121
  43   2.0000      -0.554879       -15.0990
  44   2.0000      -0.527251       -14.3472
  45   2.0000      -0.521986       -14.2040
  46   2.0000      -0.517342       -14.0776
  47   2.0000      -0.511661       -13.9230
  48   2.0000      -0.505344       -13.7511
  49   2.0000      -0.498087       -13.5536
  50   2.0000      -0.491387       -13.3713
  51   2.0000      -0.480869       -13.0851
  52   2.0000      -0.467070       -12.7096
  53   2.0000      -0.462999       -12.5988
  54   2.0000      -0.458202       -12.4683
  55   2.0000      -0.453075       -12.3288
  56   2.0000      -0.449062       -12.2196
  57   2.0000      -0.443080       -12.0568
  58   2.0000      -0.431517       -11.7422
  59   2.0000      -0.429061       -11.6753
  60   2.0000      -0.421686       -11.4747
  61   2.0000      -0.414884       -11.2896
  62   2.0000      -0.412054       -11.2126
  63   2.0000      -0.345739        -9.4080
  64   2.0000      -0.330854        -9.0030
  65   2.0000      -0.327901        -8.9226
  66   2.0000      -0.286192        -7.7877
  67   0.0000       0.029437         0.8010
  68   0.0000       0.070997         1.9319
  69   0.0000       0.108353         2.9484
  70   0.0000       0.121248         3.2993
  71   0.0000       0.128685         3.5017

MULLIKEN ATOMIC CHARGES
-----------------------
   0 S :    0.112709
   1 C :   -0.143832
   2 C :   -0.095434
   3 C :    0.037913
   4 C :   -0.180785
   5 H :    0.024499
   6 C :    0.058199
   7 H :    0.018373
   8 H :    0.012909
   9 C :   -0.058237
  10 H :    0.008691
  11 H :    0.044471
  12 C :   -0.034814
  13 H :    0.018413
  14 H :    0.035611
  15 H :    0.042893
  16 S :    0.117375
  17 C :   -0.052641
  18 C :   -0.073102
  19 C :   -0.031552
  20 C :   -0.143766
  21 H :    0.036473
  22 C :    0.060463
  23 H :    0.024729
  24 H :    0.018707
  25 C :   -0.086842
  26 H :    0.025297
  27 H :    0.046065
  28 C :   -0.051388
  29 H :    0.043145
  30 H :    0.032410
  31 H :    0.039800
  32 H :    0.071224
  33 H :    0.022023
Sum of atomic charges:   -0.0000000

LOEWDIN ATOMIC CHARGES
----------------------
   0 S :    0.395363
   1 C :   -0.213668
   2 C :   -0.070019
   3 C :   -0.061744
   4 C :   -0.187430
   5 H :    0.039202
   6 C :   -0.036218
   7 H :    0.029051
   8 H :    0.024807
   9 C :   -0.031502
  10 H :    0.009192
  11 H :    0.032106
  12 C :   -0.057612
  13 H :    0.009348
  14 H :    0.032737
  15 H :    0.033537
  16 S :    0.433203
  17 C :   -0.188465
  18 C :   -0.075629
  19 C :   -0.059314
  20 C :   -0.210492
  21 H :    0.041643
  22 C :   -0.037169
  23 H :    0.029540
  24 H :    0.033633
  25 C :   -0.032790
  26 H :    0.022346
  27 H :    0.024789
  28 C :   -0.067896
  29 H :    0.031800
  30 H :    0.021825
  31 H :    0.028450
  32 H :    0.040377
  33 H :    0.016998

  Mayer bond orders larger than 0.100000
B(  0-S ,  1-C ) :   1.1408 B(  0-S ,  4-C ) :   1.1569 B(  1-C ,  2-C ) :   1.5679
B(  1-C ,  4-C ) :   0.1155 B(  1-C , 32-H ) :   0.9622 B(  2-C ,  3-C ) :   1.2751
B(  2-C ,  6-C ) :   1.0455 B(  3-C ,  4-C ) :   1.5298 B(  3-C ,  5-H ) :   0.9846
B(  4-C , 20-C ) :   1.0409 B(  6-C ,  7-H ) :   0.9346 B(  6-C ,  8-H ) :   0.9415
B(  6-C ,  9-C ) :   1.0438 B(  9-C , 10-H ) :   0.9541 B(  9-C , 11-H ) :   0.9616
B(  9-C , 12-C ) :   1.0780 B( 12-C , 13-H ) :   0.9774 B( 12-C , 14-H ) :   0.9736
B( 12-C , 15-H ) :   0.9790 B( 16-S , 17-C ) :   1.1494 B( 16-S , 20-C ) :   1.1524
B( 17-C , 18-C ) :   1.6463 B( 17-C , 33-H ) :   0.9697 B( 18-C , 19-C ) :   1.2072
B( 18-C , 21-H ) :   0.9819 B( 19-C , 20-C ) :   1.6193 B( 19-C , 22-C ) :   1.0560
B( 22-C , 23-H ) :   0.9345 B( 22-C , 24-H ) :   0.9254 B( 22-C , 25-C ) :   1.0334
B( 25-C , 26-H ) :   0.9575 B( 25-C , 27-H ) :   0.9635 B( 25-C , 28-C ) :   1.0715
B( 28-C , 29-H ) :   0.9736 B( 28-C , 30-H ) :   0.9772 B( 28-C , 31-H ) :   0.9785

Dispersion correction           -0.014490527
FINAL SINGLE POINT ENERGY     -1339.861026669697

DIPOLE MOMENT
-------------
                                X             Y             Z
Electronic contribution:     13.02127     -30.72303       2.75647
Nuclear contribution   :    -13.15860      31.44847      -3.11846
                        -----------------------------------------
Total Dipole Moment    :     -0.13733       0.72544      -0.36199
                        -----------------------------------------
Magnitude (a.u.)       :      0.82229
Magnitude (Debye)      :      2.09009

Rotational constants in cm-1:     0.017127     0.009850     0.006587
Rotational constants in MHz :   513.446065   295.304868   197.462242

                             ****ORCA TERMINATED NORMALLY****
TOTAL RUN TIME: 0 days 0 hours 0 minutes 32 seconds 956 msec
