                         Program Version 4.2.1 -  RELEASE  -
|  1> ! wB97X-D3 SP def2-SVP
|  2> %pal
|  3> nprocs 16
|  4> end
|  5>
|  6> * xyz 0 1
|  7> S 	 -38.2383 	 43.3887 	 95.154
|  8> C 	 -39.7597 	 44.2026 	 94.8461
|  9> C 	 -40.8229 	 43.3554 	 94.721
| 10> C 	 -40.4357 	 41.9911 	 94.8137
| 11> C 	 -39.0997 	 41.8003 	 95.1212
| 12> H 	 -41.1165 	 41.1853 	 94.6056
| 13> C 	 -42.2264 	 43.7278 	 94.4257
| 14> H 	 -42.3531 	 44.7517 	 94.2073
| 15> H 	 -42.8578 	 43.6017 	 95.3227
| 16> C 	 -42.8337 	 43.0179 	 93.1988
| 17> H 	 -42.2171 	 43.27 	 92.33
| 18> H 	 -42.6901 	 41.9457 	 93.2193
| 19> C 	 -44.3667 	 43.3596 	 92.9032
| 20> H 	 -44.6172 	 43.0676 	 91.8783
| 21> H 	 -45.0619 	 42.7088 	 93.501
| 22> H 	 -44.6913 	 44.4142 	 92.9366
| 23> S 	 -36.7873 	 40.5387 	 96.1365
| 24> C 	 -36.5534 	 38.8013 	 95.9155
| 25> C 	 -37.7133 	 38.3162 	 95.3974
| 26> C 	 -38.7056 	 39.2346 	 95.0245
| 27> C 	 -38.4173 	 40.5361 	 95.4333
| 28> H 	 -37.7764 	 37.269 	 95.1839
| 29> C 	 -39.9713 	 38.7503 	 94.419
| 30> H 	 -39.7409 	 37.7875 	 94.1005
| 31> H 	 -40.1425 	 39.3465 	 93.5455
| 32> C 	 -41.1672 	 38.6507 	 95.3645
| 33> H 	 -41.2691 	 39.5754 	 95.8676
| 34> H 	 -40.9457 	 37.8784 	 96.1959
| 35> C 	 -42.4915 	 38.3063 	 94.7405
| 36> H 	 -42.8361 	 39.2285 	 94.4373
| 37> H 	 -43.2591 	 37.8149 	 95.3993
| 38> H 	 -42.3143 	 37.6927 	 93.9395
| 39> H 	 -39.8979 	 45.1998 	 94.6433
| 40> H 	 -35.6934 	 38.2354 	 96.2422
| 41> *
| 42>
| 43>                          ****END OF INPUT****

CARTESIAN COORDINATES (ANGSTROEM)
---------------------------------
  S    -38.238300   43.388700   95.154000
  C    -39.759700   44.202600   94.846100
  C    -40.822900   43.355400   94.721000
  C    -40.435700   41.991100   94.813700
  C    -39.099700   41.800300   95.121200
  H    -41.116500   41.185300   94.605600
  C    -42.226400   43.727800   94.425700
  H    -42.353100   44.751700   94.207300
  H    -42.857800   43.601700   95.322700
  C    -42.833700   43.017900   93.198800
  H    -42.217100   43.270000   92.330000
  H    -42.690100   41.945700   93.219300
  C    -44.366700   43.359600   92.903200
  H    -44.617200   43.067600   91.878300
  H    -45.061900   42.708800   93.501000
  H    -44.691300   44.414200   92.936600
  S    -36.787300   40.538700   96.136500
  C    -36.553400   38.801300   95.915500
  C    -37.713300   38.316200   95.397400
  C    -38.705600   39.234600   95.024500
  C    -38.417300   40.536100   95.433300
  H    -37.776400   37.269000   95.183900
  C    -39.971300   38.750300   94.419000
  H    -39.740900   37.787500   94.100500
  H    -40.142500   39.346500   93.545500
  C    -41.167200   38.650700   95.364500
  H    -41.269100   39.575400   95.867600
  H    -40.945700   37.878400   96.195900
  C    -42.491500   38.306300   94.740500
  H    -42.836100   39.228500   94.437300
  H    -43.259100   37.814900   95.399300
  H    -42.314300   37.692700   93.939500
  H    -39.897900   45.199800   94.643300
  H    -35.693400   38.235400   96.242200

 Total Charge           Charge          ....    0
 Multiplicity           Mult            ....    1
 Number of Electrons    NEL             ....  134
 Basis Dimension        Dim             ....  322

ORBITAL ENERGIES
----------------

  NO   OCC          E(Eh)            E(eV)
   0   2.0000     -88.970006     -2420.9969
   1   2.0000     -88.964387     -2420.8441
   2   2.0000     -10.339562      -281.3538
   3   2.0000     -10.332699      -281.1670
   4   2.0000     -10.318522      -280.7813
   5   2.0000     -10.307376      -280.4780
   6   2.0000     -10.298333      -280.2319
   7   2.0000     -10.296790      -280.1899
   8   2.0000     -10.295570      -280.1567
   9   2.0000     -10.294186      -280.1190
  10   2.0000     -10.291269      -280.0397
  11   2.0000     -10.289999      -280.0051
  12   2.0000     -10.288097      -279.9534
  13   2.0000     -10.285494      -279.8825
  14   2.0000     -10.284248      -279.8486
  15   2.0000     -10.269213      -279.4395
  16   2.0000      -8.083583      -219.9655
  17   2.0000      -8.078493      -219.8270
  18   2.0000      -6.042352      -164.4207
  19   2.0000      -6.038389      -164.3129
  20   2.0000      -6.037155      -164.2793
  21   2.0000      -6.034007      -164.1937
  22   2.0000      -6.033002      -164.1663
  23   2.0000      -6.029210      -164.0631
  24   2.0000      -1.005885       -27.3715
  25   2.0000      -0.986090       -26.8329
  26   2.0000      -0.919680       -25.0258
  27   2.0000      -0.910919       -24.7874
  28   2.0000      -0.870220       -23.6799
  29   2.0000      -0.859900       -23.3991
  30   2.0000      -0.845133       -22.9972
  31   2.0000      -0.819605       -22.3026
  32   2.0000      -0.785939       -21.3865
  33   2.0000      -0.776599       -21.1323
  34   2.0000      -0.716788       -19.5048
  35   2.0000      -0.705776       -19.2052
  36   2.0000      -0.698142       -18.9974
  37   2.0000      -0.667422       -18.1615
  38   2.0000      -0.643024       -17.4976
  39   2.0000      -0.630684       -17.1618
  40   2.0000      -0.599375       -16.3098
  41   2.0000      -0.577368       -15.7110
  42   2.0000      -0.568902       -15.4806
  43   2.0000      -0.557821       -15.1791
  44   2.0000      -0.530285       -14.4298
  45   2.0000      -0.526396       -14.3240
  46   2.0000      -0.518823       -14.1179
  47   2.0000      -0.514631       -14.0038
  48   2.0000      -0.508340       -13.8326
  49   2.0000      -0.503785       -13.7087
  50   2.0000      -0.499376       -13.5887
  51   2.0000      -0.483321       -13.1518
  52   2.0000      -0.475368       -12.9354
  53   2.0000      -0.473277       -12.8785
  54   2.0000      -0.461527       -12.5588
  55   2.0000      -0.452131       -12.3031
  56   2.0000      -0.446823       -12.1587
  57   2.0000      -0.436791       -11.8857
  58   2.0000      -0.434701       -11.8288
  59   2.0000      -0.428801       -11.6683
  60   2.0000      -0.420259       -11.4358
  61   2.0000      -0.415707       -11.3120
  62   2.0000      -0.411305       -11.1922
  63   2.0000      -0.363951        -9.9036
  64   2.0000      -0.335582        -9.1316
  65   2.0000      -0.329817        -8.9748
  66   2.0000      -0.283007        -7.7010
  67   0.0000       0.016647         0.4530
  68   0.0000       0.082299         2.2395
  69   0.0000       0.099743         2.7142
  70   0.0000       0.121936         3.3180
  71   0.0000       0.125313         3.4099

MULLIKEN ATOMIC CHARGES
-----------------------
   0 S :    0.107551
   1 C :   -0.078328
   2 C :   -0.068294
   3 C :   -0.007285
   4 C :   -0.096928
   5 H :   -0.015214
   6 C :    0.109058
   7 H :   -0.001567
   8 H :    0.040850
   9 C :   -0.108117
  10 H :    0.032259
  11 H :    0.025114
  12 C :   -0.069104
  13 H :    0.028164
  14 H :    0.041431
  15 H :    0.042503
  16 S :    0.076306
  17 C :   -0.088755
  18 C :   -0.014941
  19 C :   -0.090925
  20 C :   -0.110095
  21 H :    0.008468
  22 C :    0.114828
  23 H :   -0.009493
  24 H :    0.025807
  25 C :   -0.108670
  26 H :    0.022508
  27 H :    0.032872
  28 C :    0.031886
  29 H :    0.003231
  30 H :    0.045946
  31 H :    0.009844
  32 H :    0.006694
  33 H :    0.062397
Sum of atomic charges:    0.0000000

LOEWDIN ATOMIC CHARGES
----------------------
   0 S :    0.381259
   1 C :   -0.179512
   2 C :   -0.061273
   3 C :   -0.062918
   4 C :   -0.159830
   5 H :    0.026172
   6 C :   -0.032553
   7 H :    0.023669
   8 H :    0.037170
   9 C :   -0.038726
  10 H :    0.027497
  11 H :    0.017734
  12 C :   -0.075274
  13 H :    0.027614
  14 H :    0.030795
  15 H :    0.028048
  16 S :    0.384399
  17 C :   -0.175963
  18 C :   -0.072131
  19 C :   -0.057875
  20 C :   -0.183141
  21 H :    0.027659
  22 C :   -0.028261
  23 H :    0.021826
  24 H :    0.029029
  25 C :   -0.040344
  26 H :    0.012654
  27 H :    0.032209
  28 C :   -0.052885
  29 H :    0.013762
  30 H :    0.038228
  31 H :    0.013279
  32 H :    0.012673
  33 H :    0.035011

  Mayer bond orders larger than 0.100000
B(  0-S ,  1-C ) :   1.1200 B(  0-S ,  4-C ) :   1.1237 B(  1-C ,  2-C ) :   1.6390
B(  1-C , 32-H ) :   0.9665 B(  2-C ,  3-C ) :   1.2340 B(  2-C ,  6-C ) :   1.0391
B(  3-C ,  4-C ) :   1.5727 B(  3-C ,  5-H ) :   0.9847 B(  4-C , 20-C ) :   1.0943
B(  6-C ,  7-H ) :   0.9332 B(  6-C ,  8-H ) :   0.9316 B(  6-C ,  9-C ) :   1.0480
B(  9-C , 10-H ) :   0.9579 B(  9-C , 11-H ) :   0.9569 B(  9-C , 12-C ) :   1.0712
B( 12-C , 13-H ) :   0.9750 B( 12-C , 14-H ) :   0.9771 B( 12-C , 15-H ) :   0.9782
B( 16-S , 17-C ) :   1.1478 B( 16-S , 20-C ) :   1.1307 B( 17-C , 18-C ) :   1.5873
B( 17-C , 33-H ) :   0.9702 B( 18-C , 19-C ) :   1.2883 B( 18-C , 21-H ) :   0.9854
B( 19-C , 20-C ) :   1.5417 B( 19-C , 22-C ) :   1.0545 B( 22-C , 23-H ) :   0.9121
B( 22-C , 24-H ) :   0.9189 B( 22-C , 25-C ) :   1.0618 B( 25-C , 26-H ) :   0.9631
B( 25-C , 27-H ) :   0.9494 B( 25-C , 28-C ) :   1.0702 B( 28-C , 29-H ) :   0.9753
B( 28-C , 30-H ) :   0.9715 B( 28-C , 31-H ) :   0.9692

Dispersion correction           -0.014571265
FINAL SINGLE POINT ENERGY     -1339.868769313058

DIPOLE MOMENT
-------------
                                X             Y             Z
Electronic contribution:     32.17709       6.53454      10.31672
Nuclear contribution   :    -32.83815      -6.88378     -10.68277
                        -----------------------------------------
Total Dipole Moment    :     -0.66106      -0.34924      -0.36606
                        -----------------------------------------
Magnitude (a.u.)       :      0.83244
Magnitude (Debye)      :      2.11591

Rotational constants in cm-1:     0.018458     0.009596     0.006522
Rotational constants in MHz :   553.349220   287.677474   195.510659

                             ****ORCA TERMINATED NORMALLY****
TOTAL RUN TIME: 0 days 0 hours 0 minutes 29 seconds 665 msec
