                         Program Version 4.2.1 -  RELEASE  -
|  1> ! wB97X-D3 SP def2-SVP
|  2> %pal
|  3> nprocs 16
|  4> end
|  5>
|  6> * xyz 0 1
|  7> S 	 16.6475 	 7.7492 	 87.829
|  8> C 	 17.2818 	 6.08168 	 88.2281
|  9> C 	 16.2996 	 5.12171 	 88.2874
| 10> C 	 15.0906 	 5.7435 	 87.991
| 11> C 	 15.0995 	 7.06628 	 87.7384
| 12> H 	 14.197 	 5.30995 	 87.79
| 13> C 	 16.4903 	 3.6105 	 88.5353
| 14> H 	 15.8005 	 3.30652 	 89.2454
| 15> H 	 17.5036 	 3.43259 	 88.7831
| 16> C 	 16.0478 	 2.79561 	 87.2706
| 17> H 	 14.9568 	 2.8803 	 87.1374
| 18> H 	 16.4068 	 3.30575 	 86.3832
| 19> C 	 16.5347 	 1.30986 	 87.3161
| 20> H 	 16.3726 	 0.737974 	 86.4272
| 21> H 	 17.576 	 1.23575 	 87.4053
| 22> H 	 16.1263 	 0.703857 	 88.0613
| 23> S 	 14.0714 	 9.06682 	 85.9938
| 24> C 	 12.4739 	 9.72494 	 86.249
| 25> C 	 11.8044 	 9.00326 	 87.2537
| 26> C 	 12.6867 	 8.06638 	 88.0115
| 27> C 	 13.9377 	 7.96227 	 87.447
| 28> H 	 10.7963 	 9.28008 	 87.5463
| 29> C 	 12.24 	 7.45061 	 89.2868
| 30> H 	 12.4767 	 6.35473 	 89.3521
| 31> H 	 11.1739 	 7.60026 	 89.4262
| 32> C 	 13.0594 	 8.16113 	 90.4402
| 33> H 	 12.6912 	 9.20654 	 90.5357
| 34> H 	 14.149 	 8.21489 	 90.2012
| 35> C 	 12.8856 	 7.44384 	 91.7598
| 36> H 	 13.3201 	 6.461 	 91.5864
| 37> H 	 11.8227 	 7.35202 	 91.9736
| 38> H 	 13.3498 	 7.82257 	 92.6585
| 39> H 	 18.2512 	 5.80321 	 88.3713
| 40> H 	 12.0432 	 10.5707 	 85.5925
| 41> *
| 42>
| 43>                          ****END OF INPUT****

CARTESIAN COORDINATES (ANGSTROEM)
---------------------------------
  S     16.647500    7.749200   87.829000
  C     17.281800    6.081680   88.228100
  C     16.299600    5.121710   88.287400
  C     15.090600    5.743500   87.991000
  C     15.099500    7.066280   87.738400
  H     14.197000    5.309950   87.790000
  C     16.490300    3.610500   88.535300
  H     15.800500    3.306520   89.245400
  H     17.503600    3.432590   88.783100
  C     16.047800    2.795610   87.270600
  H     14.956800    2.880300   87.137400
  H     16.406800    3.305750   86.383200
  C     16.534700    1.309860   87.316100
  H     16.372600    0.737974   86.427200
  H     17.576000    1.235750   87.405300
  H     16.126300    0.703857   88.061300
  S     14.071400    9.066820   85.993800
  C     12.473900    9.724940   86.249000
  C     11.804400    9.003260   87.253700
  C     12.686700    8.066380   88.011500
  C     13.937700    7.962270   87.447000
  H     10.796300    9.280080   87.546300
  C     12.240000    7.450610   89.286800
  H     12.476700    6.354730   89.352100
  H     11.173900    7.600260   89.426200
  C     13.059400    8.161130   90.440200
  H     12.691200    9.206540   90.535700
  H     14.149000    8.214890   90.201200
  C     12.885600    7.443840   91.759800
  H     13.320100    6.461000   91.586400
  H     11.822700    7.352020   91.973600
  H     13.349800    7.822570   92.658500
  H     18.251200    5.803210   88.371300
  H     12.043200   10.570700   85.592500

 Total Charge           Charge          ....    0
 Multiplicity           Mult            ....    1
 Number of Electrons    NEL             ....  134
 Basis Dimension        Dim             ....  322

ORBITAL ENERGIES
----------------

  NO   OCC          E(Eh)            E(eV)
   0   2.0000     -88.967977     -2420.9417
   1   2.0000     -88.962425     -2420.7906
   2   2.0000     -10.331704      -281.1400
   3   2.0000     -10.329830      -281.0890
   4   2.0000     -10.324213      -280.9361
   5   2.0000     -10.310231      -280.5557
   6   2.0000     -10.309561      -280.5374
   7   2.0000     -10.302778      -280.3528
   8   2.0000     -10.301006      -280.3046
   9   2.0000     -10.297434      -280.2074
  10   2.0000     -10.294038      -280.1150
  11   2.0000     -10.293761      -280.1075
  12   2.0000     -10.287809      -279.9455
  13   2.0000     -10.278135      -279.6823
  14   2.0000     -10.271908      -279.5128
  15   2.0000     -10.270662      -279.4789
  16   2.0000      -8.082527      -219.9367
  17   2.0000      -8.076255      -219.7661
  18   2.0000      -6.041015      -164.3844
  19   2.0000      -6.037194      -164.2804
  20   2.0000      -6.034924      -164.2186
  21   2.0000      -6.033161      -164.1707
  22   2.0000      -6.030862      -164.1081
  23   2.0000      -6.026927      -164.0010
  24   2.0000      -1.007398       -27.4127
  25   2.0000      -0.976656       -26.5762
  26   2.0000      -0.912378       -24.8271
  27   2.0000      -0.907421       -24.6922
  28   2.0000      -0.865879       -23.5618
  29   2.0000      -0.851736       -23.1769
  30   2.0000      -0.840959       -22.8837
  31   2.0000      -0.814630       -22.1672
  32   2.0000      -0.790753       -21.5175
  33   2.0000      -0.772053       -21.0086
  34   2.0000      -0.712678       -19.3930
  35   2.0000      -0.699281       -19.0284
  36   2.0000      -0.687557       -18.7094
  37   2.0000      -0.659751       -17.9527
  38   2.0000      -0.649009       -17.6604
  39   2.0000      -0.623636       -16.9700
  40   2.0000      -0.591699       -16.1009
  41   2.0000      -0.576881       -15.6977
  42   2.0000      -0.567294       -15.4369
  43   2.0000      -0.555772       -15.1233
  44   2.0000      -0.523966       -14.2579
  45   2.0000      -0.516183       -14.0460
  46   2.0000      -0.515511       -14.0278
  47   2.0000      -0.513667       -13.9776
  48   2.0000      -0.507228       -13.8024
  49   2.0000      -0.499623       -13.5954
  50   2.0000      -0.492083       -13.3903
  51   2.0000      -0.487671       -13.2702
  52   2.0000      -0.472862       -12.8672
  53   2.0000      -0.461322       -12.5532
  54   2.0000      -0.459145       -12.4940
  55   2.0000      -0.448181       -12.1956
  56   2.0000      -0.441563       -12.0155
  57   2.0000      -0.436797       -11.8859
  58   2.0000      -0.432988       -11.7822
  59   2.0000      -0.427781       -11.6405
  60   2.0000      -0.424665       -11.5557
  61   2.0000      -0.419477       -11.4146
  62   2.0000      -0.418093       -11.3769
  63   2.0000      -0.342987        -9.3331
  64   2.0000      -0.336496        -9.1565
  65   2.0000      -0.324079        -8.8187
  66   2.0000      -0.295247        -8.0341
  67   0.0000       0.029562         0.8044
  68   0.0000       0.071930         1.9573
  69   0.0000       0.102355         2.7852
  70   0.0000       0.113246         3.0816
  71   0.0000       0.134057         3.6479

MULLIKEN ATOMIC CHARGES
-----------------------
   0 S :    0.112989
   1 C :   -0.089628
   2 C :   -0.084933
   3 C :    0.041542
   4 C :   -0.151971
   5 H :   -0.036900
   6 C :    0.172571
   7 H :    0.017798
   8 H :    0.011318
   9 C :   -0.119489
  10 H :    0.036447
  11 H :    0.034036
  12 C :   -0.000782
  13 H :    0.021609
  14 H :    0.013487
  15 H :    0.017087
  16 S :    0.082960
  17 C :   -0.124291
  18 C :   -0.029262
  19 C :   -0.041969
  20 C :   -0.146572
  21 H :    0.022042
  22 C :    0.062447
  23 H :    0.034144
  24 H :    0.023738
  25 C :   -0.115617
  26 H :    0.031916
  27 H :    0.055683
  28 C :   -0.021027
  29 H :    0.023540
  30 H :    0.021093
  31 H :    0.034503
  32 H :   -0.006390
  33 H :    0.097881
Sum of atomic charges:   -0.0000000

LOEWDIN ATOMIC CHARGES
----------------------
   0 S :    0.401854
   1 C :   -0.159850
   2 C :   -0.049055
   3 C :   -0.065231
   4 C :   -0.202250
   5 H :    0.012764
   6 C :   -0.006900
   7 H :    0.025618
   8 H :    0.024520
   9 C :   -0.033830
  10 H :    0.025095
  11 H :    0.023944
  12 C :   -0.062012
  13 H :    0.027908
  14 H :    0.020276
  15 H :    0.018748
  16 S :    0.364348
  17 C :   -0.195438
  18 C :   -0.076533
  19 C :   -0.050856
  20 C :   -0.179394
  21 H :    0.028161
  22 C :   -0.030955
  23 H :    0.033906
  24 H :    0.029767
  25 C :   -0.037371
  26 H :    0.024598
  27 H :    0.030429
  28 C :   -0.069087
  29 H :    0.024491
  30 H :    0.022222
  31 H :    0.024624
  32 H :    0.003607
  33 H :    0.051882

  Mayer bond orders larger than 0.100000
B(  0-S ,  1-C ) :   1.1217 B(  0-S ,  4-C ) :   1.1486 B(  1-C ,  2-C ) :   1.6406
B(  1-C , 32-H ) :   0.9736 B(  2-C ,  3-C ) :   1.2039 B(  2-C ,  6-C ) :   1.0286
B(  3-C ,  4-C ) :   1.6225 B(  3-C ,  5-H ) :   1.0093 B(  4-C , 20-C ) :   0.9989
B(  6-C ,  7-H ) :   0.9302 B(  6-C ,  8-H ) :   0.9416 B(  6-C ,  9-C ) :   1.0501
B(  9-C , 10-H ) :   0.9571 B(  9-C , 11-H ) :   0.9626 B(  9-C , 12-C ) :   1.0778
B( 12-C , 13-H ) :   0.9723 B( 12-C , 14-H ) :   0.9741 B( 12-C , 15-H ) :   0.9750
B( 16-S , 17-C ) :   1.1506 B( 16-S , 20-C ) :   1.1092 B( 17-C , 18-C ) :   1.6258
B( 17-C , 33-H ) :   0.9549 B( 18-C , 19-C ) :   1.2066 B( 18-C , 21-H ) :   0.9842
B( 19-C , 20-C ) :   1.6357 B( 19-C , 22-C ) :   1.0666 B( 22-C , 23-H ) :   0.9359
B( 22-C , 24-H ) :   0.9283 B( 22-C , 25-C ) :   1.0434 B( 25-C , 26-H ) :   0.9526
B( 25-C , 27-H ) :   0.9639 B( 25-C , 28-C ) :   1.0801 B( 28-C , 29-H ) :   0.9737
B( 28-C , 30-H ) :   0.9711 B( 28-C , 31-H ) :   0.9736

Dispersion correction           -0.014365280
FINAL SINGLE POINT ENERGY     -1339.858911582148

DIPOLE MOMENT
-------------
                                X             Y             Z
Electronic contribution:      4.33032      21.77541     -13.98528
Nuclear contribution   :     -4.62013     -22.31927      14.27563
                        -----------------------------------------
Total Dipole Moment    :     -0.28982      -0.54385       0.29035
                        -----------------------------------------
Magnitude (a.u.)       :      0.68123
Magnitude (Debye)      :      1.73155

Rotational constants in cm-1:     0.018460     0.008119     0.007081
Rotational constants in MHz :   553.403905   243.400254   212.274689

                             ****ORCA TERMINATED NORMALLY****
TOTAL RUN TIME: 0 days 0 hours 0 minutes 34 seconds 730 msec
