                         Program Version 4.2.1 -  RELEASE  -
|  1> ! wB97X-D3 SP def2-SVP
|  2> %pal
|  3> nprocs 16
|  4> end
|  5>
|  6> * xyz 0 1
|  7> S 	 -9.46913 	 60.2305 	 53.8913
|  8> C 	 -8.67715 	 58.7595 	 53.9185
|  9> C 	 -7.40631 	 58.9549 	 54.4566
| 10> C 	 -7.31193 	 60.2221 	 55.1579
| 11> C 	 -8.38057 	 61.0252 	 55.0971
| 12> H 	 -6.44199 	 60.551 	 55.7736
| 13> C 	 -6.28271 	 57.8988 	 54.4695
| 14> H 	 -5.45214 	 58.4922 	 54.0453
| 15> H 	 -6.43625 	 57.1136 	 53.6944
| 16> C 	 -6.0485 	 57.2852 	 55.8806
| 17> H 	 -5.58013 	 56.3641 	 55.696
| 18> H 	 -5.34769 	 57.8375 	 56.3947
| 19> C 	 -7.33473 	 57.1017 	 56.6501
| 20> H 	 -7.17867 	 56.491 	 57.6038
| 21> H 	 -7.81758 	 58.0159 	 56.9991
| 22> H 	 -8.02331 	 56.6226 	 56.0266
| 23> S 	 -7.66353 	 62.5824 	 57.2536
| 24> C 	 -8.26447 	 64.1942 	 57.3544
| 25> C 	 -9.15126 	 64.5266 	 56.2987
| 26> C 	 -9.34284 	 63.4635 	 55.4005
| 27> C 	 -8.56924 	 62.316 	 55.753
| 28> H 	 -9.69924 	 65.4449 	 56.3464
| 29> C 	 -10.1646 	 63.5012 	 54.1224
| 30> H 	 -11.1833 	 63.0928 	 54.1816
| 31> H 	 -9.5947 	 62.8751 	 53.4804
| 32> C 	 -10.2524 	 64.8331 	 53.3606
| 33> H 	 -10.7875 	 65.5745 	 53.881
| 34> H 	 -10.9051 	 64.6226 	 52.5074
| 35> C 	 -8.96345 	 65.4177 	 52.9009
| 36> H 	 -8.32623 	 64.6522 	 52.5736
| 37> H 	 -8.49264 	 65.8892 	 53.8084
| 38> H 	 -9.08474 	 66.1772 	 52.0911
| 39> H 	 -8.94654 	 57.8245 	 53.4273
| 40> H 	 -7.98414 	 64.9074 	 58.1632
| 41> *
| 42>
| 43>                          ****END OF INPUT****

CARTESIAN COORDINATES (ANGSTROEM)
---------------------------------
  S     -9.469130   60.230500   53.891300
  C     -8.677150   58.759500   53.918500
  C     -7.406310   58.954900   54.456600
  C     -7.311930   60.222100   55.157900
  C     -8.380570   61.025200   55.097100
  H     -6.441990   60.551000   55.773600
  C     -6.282710   57.898800   54.469500
  H     -5.452140   58.492200   54.045300
  H     -6.436250   57.113600   53.694400
  C     -6.048500   57.285200   55.880600
  H     -5.580130   56.364100   55.696000
  H     -5.347690   57.837500   56.394700
  C     -7.334730   57.101700   56.650100
  H     -7.178670   56.491000   57.603800
  H     -7.817580   58.015900   56.999100
  H     -8.023310   56.622600   56.026600
  S     -7.663530   62.582400   57.253600
  C     -8.264470   64.194200   57.354400
  C     -9.151260   64.526600   56.298700
  C     -9.342840   63.463500   55.400500
  C     -8.569240   62.316000   55.753000
  H     -9.699240   65.444900   56.346400
  C    -10.164600   63.501200   54.122400
  H    -11.183300   63.092800   54.181600
  H     -9.594700   62.875100   53.480400
  C    -10.252400   64.833100   53.360600
  H    -10.787500   65.574500   53.881000
  H    -10.905100   64.622600   52.507400
  C     -8.963450   65.417700   52.900900
  H     -8.326230   64.652200   52.573600
  H     -8.492640   65.889200   53.808400
  H     -9.084740   66.177200   52.091100
  H     -8.946540   57.824500   53.427300
  H     -7.984140   64.907400   58.163200

 Total Charge           Charge          ....    0
 Multiplicity           Mult            ....    1
 Number of Electrons    NEL             ....  134
 Basis Dimension        Dim             ....  322

ORBITAL ENERGIES
----------------

  NO   OCC          E(Eh)            E(eV)
   0   2.0000     -88.974972     -2421.1321
   1   2.0000     -88.960499     -2420.7383
   2   2.0000     -10.334339      -281.2117
   3   2.0000     -10.331404      -281.1318
   4   2.0000     -10.323773      -280.9242
   5   2.0000     -10.310167      -280.5539
   6   2.0000     -10.308242      -280.5015
   7   2.0000     -10.301915      -280.3293
   8   2.0000     -10.296903      -280.1930
   9   2.0000     -10.296297      -280.1765
  10   2.0000     -10.293264      -280.0940
  11   2.0000     -10.288849      -279.9738
  12   2.0000     -10.276491      -279.6375
  13   2.0000     -10.275398      -279.6078
  14   2.0000     -10.271601      -279.5045
  15   2.0000     -10.271594      -279.5043
  16   2.0000      -8.089158      -220.1172
  17   2.0000      -8.075576      -219.7476
  18   2.0000      -6.047542      -164.5620
  19   2.0000      -6.043706      -164.4576
  20   2.0000      -6.040148      -164.3608
  21   2.0000      -6.034273      -164.2009
  22   2.0000      -6.030090      -164.0871
  23   2.0000      -6.026005      -163.9759
  24   2.0000      -1.008574       -27.4447
  25   2.0000      -0.987053       -26.8591
  26   2.0000      -0.914848       -24.8943
  27   2.0000      -0.909137       -24.7389
  28   2.0000      -0.875804       -23.8318
  29   2.0000      -0.855304       -23.2740
  30   2.0000      -0.838859       -22.8265
  31   2.0000      -0.814576       -22.1657
  32   2.0000      -0.783203       -21.3120
  33   2.0000      -0.770136       -20.9565
  34   2.0000      -0.708415       -19.2769
  35   2.0000      -0.704025       -19.1575
  36   2.0000      -0.690216       -18.7817
  37   2.0000      -0.662994       -18.0410
  38   2.0000      -0.630601       -17.1595
  39   2.0000      -0.619577       -16.8596
  40   2.0000      -0.599282       -16.3073
  41   2.0000      -0.564840       -15.3701
  42   2.0000      -0.557608       -15.1733
  43   2.0000      -0.556200       -15.1350
  44   2.0000      -0.542120       -14.7518
  45   2.0000      -0.536363       -14.5952
  46   2.0000      -0.524240       -14.2653
  47   2.0000      -0.510371       -13.8879
  48   2.0000      -0.500834       -13.6284
  49   2.0000      -0.497774       -13.5451
  50   2.0000      -0.488117       -13.2823
  51   2.0000      -0.481461       -13.1012
  52   2.0000      -0.471766       -12.8374
  53   2.0000      -0.464541       -12.6408
  54   2.0000      -0.459859       -12.5134
  55   2.0000      -0.451700       -12.2914
  56   2.0000      -0.443067       -12.0565
  57   2.0000      -0.440455       -11.9854
  58   2.0000      -0.431860       -11.7515
  59   2.0000      -0.424511       -11.5515
  60   2.0000      -0.419391       -11.4122
  61   2.0000      -0.410348       -11.1661
  62   2.0000      -0.400877       -10.9084
  63   2.0000      -0.366038        -9.9604
  64   2.0000      -0.338479        -9.2105
  65   2.0000      -0.319424        -8.6920
  66   2.0000      -0.279458        -7.6044
  67   0.0000       0.019148         0.5210
  68   0.0000       0.074756         2.0342
  69   0.0000       0.107782         2.9329
  70   0.0000       0.111051         3.0219
  71   0.0000       0.134138         3.6501

MULLIKEN ATOMIC CHARGES
-----------------------
   0 S :    0.091382
   1 C :   -0.093006
   2 C :   -0.145753
   3 C :   -0.033724
   4 C :   -0.097586
   5 H :    0.027357
   6 C :    0.034708
   7 H :    0.040688
   8 H :    0.023000
   9 C :   -0.006039
  10 H :    0.015167
  11 H :    0.010256
  12 C :   -0.027278
  13 H :    0.039846
  14 H :    0.038521
  15 H :    0.006661
  16 S :    0.119036
  17 C :   -0.114443
  18 C :   -0.036805
  19 C :   -0.036300
  20 C :   -0.156979
  21 H :    0.019345
  22 C :    0.062700
  23 H :    0.053095
  24 H :    0.017187
  25 C :   -0.073709
  26 H :    0.011648
  27 H :    0.021587
  28 C :   -0.039524
  29 H :    0.020450
  30 H :    0.035870
  31 H :    0.042983
  32 H :    0.055418
  33 H :    0.074242
Sum of atomic charges:   -0.0000000

LOEWDIN ATOMIC CHARGES
----------------------
   0 S :    0.408039
   1 C :   -0.222193
   2 C :   -0.065754
   3 C :   -0.081439
   4 C :   -0.173830
   5 H :    0.031115
   6 C :   -0.035644
   7 H :    0.037618
   8 H :    0.029503
   9 C :   -0.032683
  10 H :    0.021540
  11 H :    0.013200
  12 C :   -0.061744
  13 H :    0.033988
  14 H :    0.028535
  15 H :    0.015014
  16 S :    0.427634
  17 C :   -0.201632
  18 C :   -0.072328
  19 C :   -0.053852
  20 C :   -0.186850
  21 H :    0.031175
  22 C :   -0.033557
  23 H :    0.038867
  24 H :    0.017585
  25 C :   -0.044005
  26 H :    0.012913
  27 H :    0.027368
  28 C :   -0.063838
  29 H :    0.017183
  30 H :    0.032116
  31 H :    0.032497
  32 H :    0.035825
  33 H :    0.037632

  Mayer bond orders larger than 0.100000
B(  0-S ,  1-C ) :   1.1494 B(  0-S ,  4-C ) :   1.1057 B(  1-C ,  2-C ) :   1.5969
B(  1-C , 32-H ) :   0.9649 B(  2-C ,  3-C ) :   1.2216 B(  2-C ,  6-C ) :   1.0315
B(  3-C ,  4-C ) :   1.5942 B(  3-C ,  5-H ) :   0.9836 B(  4-C , 20-C ) :   1.0883
B(  6-C ,  7-H ) :   0.9431 B(  6-C ,  8-H ) :   0.9452 B(  6-C ,  9-C ) :   1.0513
B(  9-C , 10-H ) :   0.9545 B(  9-C , 11-H ) :   0.9514 B(  9-C , 12-C ) :   1.0991
B( 12-C , 13-H ) :   0.9714 B( 12-C , 14-H ) :   0.9627 B( 12-C , 15-H ) :   0.9730
B( 16-S , 17-C ) :   1.1775 B( 16-S , 20-C ) :   1.1562 B( 17-C , 18-C ) :   1.5598
B( 17-C , 20-C ) :   0.1105 B( 17-C , 33-H ) :   0.9609 B( 18-C , 19-C ) :   1.2902
B( 18-C , 21-H ) :   0.9903 B( 19-C , 20-C ) :   1.5228 B( 19-C , 22-C ) :   1.0183
B( 22-C , 23-H ) :   0.9329 B( 22-C , 24-H ) :   0.9283 B( 22-C , 25-C ) :   1.0929
B( 25-C , 26-H ) :   0.9492 B( 25-C , 27-H ) :   0.9486 B( 25-C , 28-C ) :   1.0846
B( 28-C , 29-H ) :   0.9753 B( 28-C , 30-H ) :   0.9691 B( 28-C , 31-H ) :   0.9724

Dispersion correction           -0.014928952
FINAL SINGLE POINT ENERGY     -1339.865363524191

DIPOLE MOMENT
-------------
                                X             Y             Z
Electronic contribution:     -2.78739       2.26660       5.98577
Nuclear contribution   :      2.96653      -2.25534      -6.04022
                        -----------------------------------------
Total Dipole Moment    :      0.17913       0.01126      -0.05445
                        -----------------------------------------
Magnitude (a.u.)       :      0.18756
Magnitude (Debye)      :      0.47675

Rotational constants in cm-1:     0.023794     0.008250     0.006714
Rotational constants in MHz :   713.326027   247.342250   201.288607

                             ****ORCA TERMINATED NORMALLY****
TOTAL RUN TIME: 0 days 0 hours 0 minutes 32 seconds 910 msec
