                         Program Version 4.2.1 -  RELEASE  -
|  1> ! wB97X-D3 SP def2-SVP
|  2> %pal
|  3> nprocs 16
|  4> end
|  5>
|  6> * xyz 0 1
|  7> S 	 3.85071 	 25.0369 	 72.1428
|  8> C 	 4.03241 	 24.0412 	 70.7556
|  9> C 	 4.84324 	 24.5967 	 69.7466
| 10> C 	 5.24003 	 25.9338 	 70.0418
| 11> C 	 4.71567 	 26.3597 	 71.2715
| 12> H 	 5.88826 	 26.5164 	 69.4432
| 13> C 	 5.33915 	 23.9413 	 68.4658
| 14> H 	 5.09285 	 24.5512 	 67.6072
| 15> H 	 4.73172 	 23.065 	 68.3533
| 16> C 	 6.75987 	 23.5718 	 68.4308
| 17> H 	 7.13397 	 23.4873 	 67.4169
| 18> H 	 7.30944 	 24.3625 	 68.9013
| 19> C 	 7.15295 	 22.311 	 69.1451
| 20> H 	 8.14624 	 22.2777 	 69.3592
| 21> H 	 6.64464 	 22.372 	 70.1162
| 22> H 	 6.89709 	 21.3411 	 68.7396
| 23> S 	 3.93924 	 28.0937 	 73.2174
| 24> C 	 4.30513 	 29.8368 	 72.981
| 25> C 	 5.33788 	 30.0051 	 72.1409
| 26> C 	 5.60642 	 28.8249 	 71.406
| 27> C 	 4.89616 	 27.6649 	 71.7966
| 28> H 	 5.62993 	 31.0374 	 71.9037
| 29> C 	 6.46936 	 28.9299 	 70.1156
| 30> H 	 6.8147 	 29.9274 	 69.8185
| 31> H 	 5.79081 	 28.6571 	 69.2914
| 32> C 	 7.8563 	 28.1873 	 70.3054
| 33> H 	 8.28908 	 27.9551 	 69.338
| 34> H 	 7.60569 	 27.2556 	 70.7985
| 35> C 	 8.8712 	 28.9177 	 71.2521
| 36> H 	 8.98138 	 29.9521 	 70.935
| 37> H 	 9.89671 	 28.5817 	 71.2489
| 38> H 	 8.58417 	 28.8886 	 72.2691
| 39> H 	 3.53262 	 23.0586 	 70.6522
| 40> H 	 3.79761 	 30.6399 	 73.4473
| 41> *
| 42>
| 43>                          ****END OF INPUT****

CARTESIAN COORDINATES (ANGSTROEM)
---------------------------------
  S      3.850710   25.036900   72.142800
  C      4.032410   24.041200   70.755600
  C      4.843240   24.596700   69.746600
  C      5.240030   25.933800   70.041800
  C      4.715670   26.359700   71.271500
  H      5.888260   26.516400   69.443200
  C      5.339150   23.941300   68.465800
  H      5.092850   24.551200   67.607200
  H      4.731720   23.065000   68.353300
  C      6.759870   23.571800   68.430800
  H      7.133970   23.487300   67.416900
  H      7.309440   24.362500   68.901300
  C      7.152950   22.311000   69.145100
  H      8.146240   22.277700   69.359200
  H      6.644640   22.372000   70.116200
  H      6.897090   21.341100   68.739600
  S      3.939240   28.093700   73.217400
  C      4.305130   29.836800   72.981000
  C      5.337880   30.005100   72.140900
  C      5.606420   28.824900   71.406000
  C      4.896160   27.664900   71.796600
  H      5.629930   31.037400   71.903700
  C      6.469360   28.929900   70.115600
  H      6.814700   29.927400   69.818500
  H      5.790810   28.657100   69.291400
  C      7.856300   28.187300   70.305400
  H      8.289080   27.955100   69.338000
  H      7.605690   27.255600   70.798500
  C      8.871200   28.917700   71.252100
  H      8.981380   29.952100   70.935000
  H      9.896710   28.581700   71.248900
  H      8.584170   28.888600   72.269100
  H      3.532620   23.058600   70.652200
  H      3.797610   30.639900   73.447300

 Total Charge           Charge          ....    0
 Multiplicity           Mult            ....    1
 Number of Electrons    NEL             ....  134
 Basis Dimension        Dim             ....  322

ORBITAL ENERGIES
----------------

  NO   OCC          E(Eh)            E(eV)
   0   2.0000     -88.974169     -2421.1102
   1   2.0000     -88.961442     -2420.7639
   2   2.0000     -10.335868      -281.2533
   3   2.0000     -10.330230      -281.0999
   4   2.0000     -10.318981      -280.7937
   5   2.0000     -10.315545      -280.7003
   6   2.0000     -10.309402      -280.5331
   7   2.0000     -10.303020      -280.3594
   8   2.0000     -10.299570      -280.2656
   9   2.0000     -10.293436      -280.0986
  10   2.0000     -10.293187      -280.0918
  11   2.0000     -10.290927      -280.0304
  12   2.0000     -10.283939      -279.8402
  13   2.0000     -10.276602      -279.6406
  14   2.0000     -10.274923      -279.5949
  15   2.0000     -10.262472      -279.2561
  16   2.0000      -8.088264      -220.0929
  17   2.0000      -8.075822      -219.7543
  18   2.0000      -6.046870      -164.5437
  19   2.0000      -6.043051      -164.4398
  20   2.0000      -6.038778      -164.3235
  21   2.0000      -6.034526      -164.2078
  22   2.0000      -6.030564      -164.1000
  23   2.0000      -6.026227      -163.9820
  24   2.0000      -1.005716       -27.3669
  25   2.0000      -0.982059       -26.7232
  26   2.0000      -0.922509       -25.1027
  27   2.0000      -0.898971       -24.4622
  28   2.0000      -0.877935       -23.8898
  29   2.0000      -0.856216       -23.2988
  30   2.0000      -0.839807       -22.8523
  31   2.0000      -0.815486       -22.1905
  32   2.0000      -0.786081       -21.3904
  33   2.0000      -0.773128       -21.0379
  34   2.0000      -0.715267       -19.4634
  35   2.0000      -0.700656       -19.0658
  36   2.0000      -0.692901       -18.8548
  37   2.0000      -0.665831       -18.1182
  38   2.0000      -0.636551       -17.3214
  39   2.0000      -0.627913       -17.0864
  40   2.0000      -0.595248       -16.1975
  41   2.0000      -0.574383       -15.6298
  42   2.0000      -0.558859       -15.2073
  43   2.0000      -0.550066       -14.9681
  44   2.0000      -0.546419       -14.8688
  45   2.0000      -0.539332       -14.6760
  46   2.0000      -0.521775       -14.1982
  47   2.0000      -0.507889       -13.8204
  48   2.0000      -0.501910       -13.6577
  49   2.0000      -0.497691       -13.5429
  50   2.0000      -0.490246       -13.3403
  51   2.0000      -0.481567       -13.1041
  52   2.0000      -0.471553       -12.8316
  53   2.0000      -0.464887       -12.6502
  54   2.0000      -0.458281       -12.4705
  55   2.0000      -0.452172       -12.3042
  56   2.0000      -0.449452       -12.2302
  57   2.0000      -0.445150       -12.1131
  58   2.0000      -0.433093       -11.7851
  59   2.0000      -0.422159       -11.4875
  60   2.0000      -0.414359       -11.2753
  61   2.0000      -0.411075       -11.1859
  62   2.0000      -0.404417       -11.0047
  63   2.0000      -0.368404       -10.0248
  64   2.0000      -0.340093        -9.2544
  65   2.0000      -0.326226        -8.8771
  66   2.0000      -0.272713        -7.4209
  67   0.0000       0.009825         0.2674
  68   0.0000       0.076639         2.0854
  69   0.0000       0.091462         2.4888
  70   0.0000       0.119937         3.2636
  71   0.0000       0.137173         3.7327

MULLIKEN ATOMIC CHARGES
-----------------------
   0 S :    0.126998
   1 C :   -0.129100
   2 C :   -0.103328
   3 C :   -0.019491
   4 C :   -0.086928
   5 H :   -0.000816
   6 C :    0.109655
   7 H :    0.026333
   8 H :   -0.001025
   9 C :   -0.045336
  10 H :    0.023365
  11 H :    0.014437
  12 C :   -0.014738
  13 H :    0.007408
  14 H :    0.016913
  15 H :    0.024676
  16 S :    0.066868
  17 C :   -0.084439
  18 C :   -0.000924
  19 C :   -0.083641
  20 C :   -0.100771
  21 H :    0.031161
  22 C :    0.006848
  23 H :    0.015997
  24 H :    0.053878
  25 C :   -0.079772
  26 H :    0.030951
  27 H :    0.038305
  28 C :   -0.033301
  29 H :    0.016319
  30 H :    0.031479
  31 H :    0.036473
  32 H :    0.060637
  33 H :    0.044909
Sum of atomic charges:    0.0000000

LOEWDIN ATOMIC CHARGES
----------------------
   0 S :    0.401311
   1 C :   -0.214517
   2 C :   -0.058558
   3 C :   -0.052742
   4 C :   -0.171274
   5 H :    0.025643
   6 C :   -0.030912
   7 H :    0.033487
   8 H :    0.025128
   9 C :   -0.040337
  10 H :    0.024413
  11 H :    0.023676
  12 C :   -0.058684
  13 H :    0.013513
  14 H :    0.028424
  15 H :    0.022172
  16 S :    0.362736
  17 C :   -0.151759
  18 C :   -0.073776
  19 C :   -0.056269
  20 C :   -0.186822
  21 H :    0.040723
  22 C :   -0.038181
  23 H :    0.026059
  24 H :    0.034381
  25 C :   -0.038020
  26 H :    0.019838
  27 H :    0.021437
  28 C :   -0.062861
  29 H :    0.021447
  30 H :    0.028622
  31 H :    0.023769
  32 H :    0.034647
  33 H :    0.023283

  Mayer bond orders larger than 0.100000
B(  0-S ,  1-C ) :   1.1393 B(  0-S ,  4-C ) :   1.1269 B(  1-C ,  2-C ) :   1.5969
B(  1-C , 32-H ) :   0.9577 B(  2-C ,  3-C ) :   1.2493 B(  2-C ,  6-C ) :   1.0320
B(  3-C ,  4-C ) :   1.5329 B(  3-C ,  5-H ) :   0.9944 B(  4-C , 20-C ) :   1.1548
B(  6-C ,  7-H ) :   0.9344 B(  6-C ,  8-H ) :   0.9318 B(  6-C ,  9-C ) :   1.0767
B(  9-C , 10-H ) :   0.9490 B(  9-C , 11-H ) :   0.9516 B(  9-C , 12-C ) :   1.0910
B( 12-C , 13-H ) :   0.9687 B( 12-C , 14-H ) :   0.9710 B( 12-C , 15-H ) :   0.9732
B( 16-S , 17-C ) :   1.1376 B( 16-S , 20-C ) :   1.1033 B( 17-C , 18-C ) :   1.6417
B( 17-C , 33-H ) :   0.9689 B( 18-C , 19-C ) :   1.2381 B( 18-C , 21-H ) :   0.9839
B( 19-C , 20-C ) :   1.5679 B( 19-C , 22-C ) :   1.0240 B( 22-C , 23-H ) :   0.9461
B( 22-C , 24-H ) :   0.9451 B( 22-C , 25-C ) :   1.0365 B( 25-C , 26-H ) :   0.9609
B( 25-C , 27-H ) :   0.9633 B( 25-C , 28-C ) :   1.0695 B( 28-C , 29-H ) :   0.9749
B( 28-C , 30-H ) :   0.9758 B( 28-C , 31-H ) :   0.9768

Dispersion correction           -0.014904233
FINAL SINGLE POINT ENERGY     -1339.855235371084

DIPOLE MOMENT
-------------
                                X             Y             Z
Electronic contribution:    -22.02424       4.89355      17.77790
Nuclear contribution   :     22.38345      -4.67323     -18.35833
                        -----------------------------------------
Total Dipole Moment    :      0.35921       0.22032      -0.58043
                        -----------------------------------------
Magnitude (a.u.)       :      0.71727
Magnitude (Debye)      :      1.82315

Rotational constants in cm-1:     0.019373     0.009530     0.006968
Rotational constants in MHz :   580.800794   285.691987   208.892997

                             ****ORCA TERMINATED NORMALLY****
TOTAL RUN TIME: 0 days 0 hours 0 minutes 35 seconds 676 msec
