                         Program Version 4.2.1 -  RELEASE  -
|  1> ! wB97X-D3 SP def2-SVP
|  2> %pal
|  3> nprocs 16
|  4> end
|  5>
|  6> * xyz 0 1
|  7> S 	 -31.378 	 70.5168 	 107.308
|  8> C 	 -29.7589 	 71.2596 	 107.204
|  9> C 	 -28.7864 	 70.3867 	 107.681
| 10> C 	 -29.2702 	 69.0939 	 107.815
| 11> C 	 -30.6702 	 68.969 	 107.685
| 12> H 	 -28.6747 	 68.1985 	 107.978
| 13> C 	 -27.3382 	 70.8533 	 107.914
| 14> H 	 -27.0429 	 70.6412 	 108.955
| 15> H 	 -27.2373 	 71.9386 	 107.825
| 16> C 	 -26.2516 	 70.2437 	 107.078
| 17> H 	 -25.3237 	 70.4442 	 107.464
| 18> H 	 -26.3883 	 69.1026 	 107.109
| 19> C 	 -26.2968 	 70.699 	 105.615
| 20> H 	 -25.6871 	 69.9986 	 105.116
| 21> H 	 -27.3283 	 70.5261 	 105.297
| 22> H 	 -26.0969 	 71.741 	 105.383
| 23> S 	 -32.5624 	 67.8864 	 109.167
| 24> C 	 -32.9889 	 66.1926 	 109.027
| 25> C 	 -32.3461 	 65.5717 	 107.991
| 26> C 	 -31.4882 	 66.4719 	 107.31
| 27> C 	 -31.4513 	 67.748 	 107.883
| 28> H 	 -32.5034 	 64.6006 	 107.652
| 29> C 	 -30.6427 	 66.0291 	 106.149
| 30> H 	 -30.0294 	 66.9308 	 105.872
| 31> H 	 -31.2038 	 65.7872 	 105.243
| 32> C 	 -29.5895 	 64.8546 	 106.517
| 33> H 	 -28.9832 	 64.5546 	 105.633
| 34> H 	 -30.1566 	 64.0599 	 106.907
| 35> C 	 -28.5523 	 65.2994 	 107.573
| 36> H 	 -29.0332 	 65.7584 	 108.319
| 37> H 	 -27.7312 	 65.8293 	 107.126
| 38> H 	 -28.0809 	 64.4709 	 107.975
| 39> H 	 -29.6919 	 72.3334 	 106.911
| 40> H 	 -33.7922 	 65.811 	 109.599
| 41> *
| 42>
| 43>                          ****END OF INPUT****

CARTESIAN COORDINATES (ANGSTROEM)
---------------------------------
  S    -31.378000   70.516800  107.308000
  C    -29.758900   71.259600  107.204000
  C    -28.786400   70.386700  107.681000
  C    -29.270200   69.093900  107.815000
  C    -30.670200   68.969000  107.685000
  H    -28.674700   68.198500  107.978000
  C    -27.338200   70.853300  107.914000
  H    -27.042900   70.641200  108.955000
  H    -27.237300   71.938600  107.825000
  C    -26.251600   70.243700  107.078000
  H    -25.323700   70.444200  107.464000
  H    -26.388300   69.102600  107.109000
  C    -26.296800   70.699000  105.615000
  H    -25.687100   69.998600  105.116000
  H    -27.328300   70.526100  105.297000
  H    -26.096900   71.741000  105.383000
  S    -32.562400   67.886400  109.167000
  C    -32.988900   66.192600  109.027000
  C    -32.346100   65.571700  107.991000
  C    -31.488200   66.471900  107.310000
  C    -31.451300   67.748000  107.883000
  H    -32.503400   64.600600  107.652000
  C    -30.642700   66.029100  106.149000
  H    -30.029400   66.930800  105.872000
  H    -31.203800   65.787200  105.243000
  C    -29.589500   64.854600  106.517000
  H    -28.983200   64.554600  105.633000
  H    -30.156600   64.059900  106.907000
  C    -28.552300   65.299400  107.573000
  H    -29.033200   65.758400  108.319000
  H    -27.731200   65.829300  107.126000
  H    -28.080900   64.470900  107.975000
  H    -29.691900   72.333400  106.911000
  H    -33.792200   65.811000  109.599000

 Total Charge           Charge          ....    0
 Multiplicity           Mult            ....    1
 Number of Electrons    NEL             ....  134
 Basis Dimension        Dim             ....  322

ORBITAL ENERGIES
----------------

  NO   OCC          E(Eh)            E(eV)
   0   2.0000     -88.968068     -2420.9442
   1   2.0000     -88.963618     -2420.8231
   2   2.0000     -10.331848      -281.1439
   3   2.0000     -10.324096      -280.9329
   4   2.0000     -10.321222      -280.8547
   5   2.0000     -10.313937      -280.6565
   6   2.0000     -10.304470      -280.3989
   7   2.0000     -10.301268      -280.3118
   8   2.0000     -10.294349      -280.1235
   9   2.0000     -10.293652      -280.1045
  10   2.0000     -10.292272      -280.0670
  11   2.0000     -10.289680      -279.9964
  12   2.0000     -10.289065      -279.9797
  13   2.0000     -10.282444      -279.7995
  14   2.0000     -10.268740      -279.4266
  15   2.0000     -10.259443      -279.1736
  16   2.0000      -8.082344      -219.9318
  17   2.0000      -8.079599      -219.8571
  18   2.0000      -6.040706      -164.3760
  19   2.0000      -6.037923      -164.3002
  20   2.0000      -6.036920      -164.2729
  21   2.0000      -6.033852      -164.1895
  22   2.0000      -6.033286      -164.1740
  23   2.0000      -6.030550      -164.0996
  24   2.0000      -1.010663       -27.5015
  25   2.0000      -0.986108       -26.8334
  26   2.0000      -0.915513       -24.9124
  27   2.0000      -0.902366       -24.5546
  28   2.0000      -0.872476       -23.7413
  29   2.0000      -0.851012       -23.1572
  30   2.0000      -0.847278       -23.0556
  31   2.0000      -0.813848       -22.1459
  32   2.0000      -0.785562       -21.3762
  33   2.0000      -0.772488       -21.0205
  34   2.0000      -0.709822       -19.3152
  35   2.0000      -0.698725       -19.0133
  36   2.0000      -0.690154       -18.7800
  37   2.0000      -0.666299       -18.1309
  38   2.0000      -0.640671       -17.4336
  39   2.0000      -0.622647       -16.9431
  40   2.0000      -0.600138       -16.3306
  41   2.0000      -0.569889       -15.5075
  42   2.0000      -0.560206       -15.2440
  43   2.0000      -0.552947       -15.0464
  44   2.0000      -0.545280       -14.8378
  45   2.0000      -0.540489       -14.7075
  46   2.0000      -0.521536       -14.1917
  47   2.0000      -0.514485       -13.9999
  48   2.0000      -0.503530       -13.7018
  49   2.0000      -0.497060       -13.5257
  50   2.0000      -0.488122       -13.2825
  51   2.0000      -0.482732       -13.1358
  52   2.0000      -0.471228       -12.8228
  53   2.0000      -0.463803       -12.6207
  54   2.0000      -0.458698       -12.4818
  55   2.0000      -0.450527       -12.2595
  56   2.0000      -0.443262       -12.0618
  57   2.0000      -0.436599       -11.8805
  58   2.0000      -0.431727       -11.7479
  59   2.0000      -0.425348       -11.5743
  60   2.0000      -0.423117       -11.5136
  61   2.0000      -0.414301       -11.2737
  62   2.0000      -0.412080       -11.2133
  63   2.0000      -0.345142        -9.3918
  64   2.0000      -0.335653        -9.1336
  65   2.0000      -0.326871        -8.8946
  66   2.0000      -0.293450        -7.9852
  67   0.0000       0.034249         0.9320
  68   0.0000       0.061526         1.6742
  69   0.0000       0.109510         2.9799
  70   0.0000       0.125591         3.4175
  71   0.0000       0.129029         3.5111

MULLIKEN ATOMIC CHARGES
-----------------------
   0 S :    0.114589
   1 C :   -0.163471
   2 C :   -0.045337
   3 C :    0.037713
   4 C :   -0.162085
   5 H :    0.001508
   6 C :    0.069715
   7 H :    0.034319
   8 H :    0.015254
   9 C :   -0.075217
  10 H :    0.009871
  11 H :    0.031234
  12 C :   -0.028791
  13 H :    0.023911
  14 H :    0.026218
  15 H :    0.033627
  16 S :    0.107453
  17 C :   -0.073280
  18 C :    0.004816
  19 C :   -0.048086
  20 C :   -0.172448
  21 H :   -0.002744
  22 C :    0.039114
  23 H :    0.028154
  24 H :    0.042282
  25 C :   -0.093571
  26 H :    0.038450
  27 H :    0.021354
  28 C :    0.012737
  29 H :    0.023101
  30 H :    0.025826
  31 H :    0.006731
  32 H :    0.071307
  33 H :    0.045741
Sum of atomic charges:   -0.0000000

LOEWDIN ATOMIC CHARGES
----------------------
   0 S :    0.400103
   1 C :   -0.190766
   2 C :   -0.063520
   3 C :   -0.062556
   4 C :   -0.202990
   5 H :    0.032177
   6 C :   -0.031158
   7 H :    0.036013
   8 H :    0.028565
   9 C :   -0.037341
  10 H :    0.010058
  11 H :    0.030041
  12 C :   -0.062942
  13 H :    0.021192
  14 H :    0.026978
  15 H :    0.023930
  16 S :    0.430404
  17 C :   -0.172895
  18 C :   -0.060020
  19 C :   -0.063422
  20 C :   -0.213460
  21 H :    0.023563
  22 C :   -0.037238
  23 H :    0.034003
  24 H :    0.031714
  25 C :   -0.026804
  26 H :    0.028642
  27 H :    0.010893
  28 C :   -0.050241
  29 H :    0.007624
  30 H :    0.024837
  31 H :    0.021077
  32 H :    0.035001
  33 H :    0.018538

  Mayer bond orders larger than 0.100000
B(  0-S ,  1-C ) :   1.1475 B(  0-S ,  4-C ) :   1.1705 B(  1-C ,  2-C ) :   1.5610
B(  1-C ,  4-C ) :   0.1140 B(  1-C , 32-H ) :   0.9670 B(  2-C ,  3-C ) :   1.2669
B(  2-C ,  6-C ) :   1.0226 B(  3-C ,  4-C ) :   1.5447 B(  3-C ,  5-H ) :   0.9920
B(  4-C , 20-C ) :   1.0113 B(  6-C ,  7-H ) :   0.9352 B(  6-C ,  8-H ) :   0.9431
B(  6-C ,  9-C ) :   1.0823 B(  9-C , 10-H ) :   0.9515 B(  9-C , 11-H ) :   0.9553
B(  9-C , 12-C ) :   1.0713 B( 12-C , 13-H ) :   0.9733 B( 12-C , 14-H ) :   0.9763
B( 12-C , 15-H ) :   0.9750 B( 16-S , 17-C ) :   1.1646 B( 16-S , 20-C ) :   1.1736
B( 17-C , 18-C ) :   1.5760 B( 17-C , 20-C ) :   0.1015 B( 17-C , 33-H ) :   0.9751
B( 18-C , 19-C ) :   1.2526 B( 18-C , 21-H ) :   1.0032 B( 19-C , 20-C ) :   1.5777
B( 19-C , 22-C ) :   1.0498 B( 22-C , 23-H ) :   0.9395 B( 22-C , 24-H ) :   0.9393
B( 22-C , 25-C ) :   1.0499 B( 25-C , 26-H ) :   0.9615 B( 25-C , 27-H ) :   0.9642
B( 25-C , 28-C ) :   1.0808 B( 28-C , 29-H ) :   0.9701 B( 28-C , 30-H ) :   0.9729
B( 28-C , 31-H ) :   0.9627

Dispersion correction           -0.015296200
FINAL SINGLE POINT ENERGY     -1339.866934570812

DIPOLE MOMENT
-------------
                                X             Y             Z
Electronic contribution:    -26.20543       7.43101       9.37669
Nuclear contribution   :     26.69006      -7.70565      -9.48017
                        -----------------------------------------
Total Dipole Moment    :      0.48463      -0.27465      -0.10348
                        -----------------------------------------
Magnitude (a.u.)       :      0.56658
Magnitude (Debye)      :      1.44012

Rotational constants in cm-1:     0.019522     0.009446     0.007108
Rotational constants in MHz :   585.257904   283.182191   213.089580

                             ****ORCA TERMINATED NORMALLY****
TOTAL RUN TIME: 0 days 0 hours 0 minutes 28 seconds 773 msec
