                         Program Version 4.2.1 -  RELEASE  -
|  1> ! wB97X-D3 SP def2-SVP
|  2> %pal
|  3> nprocs 16
|  4> end
|  5>
|  6> * xyz 0 1
|  7> S 	 50.9327 	 21.4268 	 91.185
|  8> C 	 49.9391 	 20.8527 	 92.5065
|  9> C 	 50.1681 	 19.4938 	 92.686
| 10> C 	 50.9836 	 18.9343 	 91.6936
| 11> C 	 51.5927 	 19.8051 	 90.8718
| 12> H 	 51.2312 	 17.8912 	 91.5438
| 13> C 	 49.6507 	 18.6898 	 93.812
| 14> H 	 48.8816 	 17.971 	 93.466
| 15> H 	 49.2744 	 19.4346 	 94.4873
| 16> C 	 50.7039 	 17.8586 	 94.6613
| 17> H 	 50.1702 	 17.3605 	 95.4613
| 18> H 	 51.2897 	 17.0957 	 94.1253
| 19> C 	 51.7656 	 18.8125 	 95.3191
| 20> H 	 52.6494 	 18.255 	 95.5783
| 21> H 	 52.1419 	 19.5036 	 94.5871
| 22> H 	 51.5051 	 19.3464 	 96.1816
| 23> S 	 52.2131 	 19.8837 	 88.222
| 24> C 	 53.7081 	 19.1659 	 87.587
| 25> C 	 54.314 	 18.4974 	 88.6625
| 26> C 	 53.706 	 18.618 	 89.9299
| 27> C 	 52.6121 	 19.4678 	 89.8606
| 28> H 	 55.1938 	 17.793 	 88.5738
| 29> C 	 54.1885 	 17.8517 	 91.1906
| 30> H 	 54.9897 	 17.2208 	 91.0808
| 31> H 	 53.4978 	 17.126 	 91.4632
| 32> C 	 54.5234 	 18.7309 	 92.4751
| 33> H 	 54.2969 	 18.0861 	 93.2816
| 34> H 	 53.8369 	 19.6092 	 92.5492
| 35> C 	 56.0303 	 19.2203 	 92.6594
| 36> H 	 56.0996 	 20.0129 	 93.4356
| 37> H 	 56.2924 	 19.558 	 91.7219
| 38> H 	 56.62 	 18.4092 	 93.0035
| 39> H 	 49.4251 	 21.4623 	 93.2829
| 40> H 	 54.193 	 19.1241 	 86.544
| 41> *
| 42>
| 43>                          ****END OF INPUT****

CARTESIAN COORDINATES (ANGSTROEM)
---------------------------------
  S     50.932700   21.426800   91.185000
  C     49.939100   20.852700   92.506500
  C     50.168100   19.493800   92.686000
  C     50.983600   18.934300   91.693600
  C     51.592700   19.805100   90.871800
  H     51.231200   17.891200   91.543800
  C     49.650700   18.689800   93.812000
  H     48.881600   17.971000   93.466000
  H     49.274400   19.434600   94.487300
  C     50.703900   17.858600   94.661300
  H     50.170200   17.360500   95.461300
  H     51.289700   17.095700   94.125300
  C     51.765600   18.812500   95.319100
  H     52.649400   18.255000   95.578300
  H     52.141900   19.503600   94.587100
  H     51.505100   19.346400   96.181600
  S     52.213100   19.883700   88.222000
  C     53.708100   19.165900   87.587000
  C     54.314000   18.497400   88.662500
  C     53.706000   18.618000   89.929900
  C     52.612100   19.467800   89.860600
  H     55.193800   17.793000   88.573800
  C     54.188500   17.851700   91.190600
  H     54.989700   17.220800   91.080800
  H     53.497800   17.126000   91.463200
  C     54.523400   18.730900   92.475100
  H     54.296900   18.086100   93.281600
  H     53.836900   19.609200   92.549200
  C     56.030300   19.220300   92.659400
  H     56.099600   20.012900   93.435600
  H     56.292400   19.558000   91.721900
  H     56.620000   18.409200   93.003500
  H     49.425100   21.462300   93.282900
  H     54.193000   19.124100   86.544000

 Total Charge           Charge          ....    0
 Multiplicity           Mult            ....    1
 Number of Electrons    NEL             ....  134
 Basis Dimension        Dim             ....  322

ORBITAL ENERGIES
----------------

  NO   OCC          E(Eh)            E(eV)
   0   2.0000     -88.970221     -2421.0028
   1   2.0000     -88.966379     -2420.8983
   2   2.0000     -10.329708      -281.0856
   3   2.0000     -10.329116      -281.0695
   4   2.0000     -10.328822      -281.0615
   5   2.0000     -10.318932      -280.7924
   6   2.0000     -10.306873      -280.4643
   7   2.0000     -10.299045      -280.2513
   8   2.0000     -10.296922      -280.1935
   9   2.0000     -10.294889      -280.1382
  10   2.0000     -10.293272      -280.0942
  11   2.0000     -10.289795      -279.9996
  12   2.0000     -10.287534      -279.9380
  13   2.0000     -10.286121      -279.8996
  14   2.0000     -10.272739      -279.5354
  15   2.0000     -10.268144      -279.4104
  16   2.0000      -8.084389      -219.9874
  17   2.0000      -8.080531      -219.8824
  18   2.0000      -6.043041      -164.4395
  19   2.0000      -6.039120      -164.3328
  20   2.0000      -6.038871      -164.3260
  21   2.0000      -6.035105      -164.2236
  22   2.0000      -6.035072      -164.2227
  23   2.0000      -6.031261      -164.1190
  24   2.0000      -1.009396       -27.4671
  25   2.0000      -0.986943       -26.8561
  26   2.0000      -0.907740       -24.7009
  27   2.0000      -0.899661       -24.4810
  28   2.0000      -0.867772       -23.6133
  29   2.0000      -0.848757       -23.0959
  30   2.0000      -0.843313       -22.9477
  31   2.0000      -0.815909       -22.2020
  32   2.0000      -0.788892       -21.4669
  33   2.0000      -0.773487       -21.0477
  34   2.0000      -0.712162       -19.3789
  35   2.0000      -0.701046       -19.0764
  36   2.0000      -0.691028       -18.8038
  37   2.0000      -0.658538       -17.9197
  38   2.0000      -0.640080       -17.4175
  39   2.0000      -0.622297       -16.9336
  40   2.0000      -0.598432       -16.2842
  41   2.0000      -0.564594       -15.3634
  42   2.0000      -0.551929       -15.0188
  43   2.0000      -0.550836       -14.9890
  44   2.0000      -0.538381       -14.6501
  45   2.0000      -0.535741       -14.5783
  46   2.0000      -0.520016       -14.1504
  47   2.0000      -0.508831       -13.8460
  48   2.0000      -0.502391       -13.6707
  49   2.0000      -0.492606       -13.4045
  50   2.0000      -0.491413       -13.3720
  51   2.0000      -0.485002       -13.1976
  52   2.0000      -0.470232       -12.7957
  53   2.0000      -0.465909       -12.6780
  54   2.0000      -0.463385       -12.6093
  55   2.0000      -0.442968       -12.0538
  56   2.0000      -0.439303       -11.9540
  57   2.0000      -0.436764       -11.8849
  58   2.0000      -0.434083       -11.8120
  59   2.0000      -0.426462       -11.6046
  60   2.0000      -0.423986       -11.5372
  61   2.0000      -0.418407       -11.3854
  62   2.0000      -0.410630       -11.1738
  63   2.0000      -0.347516        -9.4564
  64   2.0000      -0.332663        -9.0522
  65   2.0000      -0.327895        -8.9225
  66   2.0000      -0.297000        -8.0818
  67   0.0000       0.026093         0.7100
  68   0.0000       0.066545         1.8108
  69   0.0000       0.108669         2.9570
  70   0.0000       0.120604         3.2818
  71   0.0000       0.128599         3.4994

MULLIKEN ATOMIC CHARGES
-----------------------
   0 S :    0.104162
   1 C :   -0.116950
   2 C :   -0.118799
   3 C :    0.038282
   4 C :   -0.154734
   5 H :    0.007814
   6 C :    0.087836
   7 H :    0.051369
   8 H :    0.006918
   9 C :   -0.080742
  10 H :    0.033848
  11 H :    0.032605
  12 C :   -0.049363
  13 H :    0.020171
  14 H :    0.029315
  15 H :    0.022897
  16 S :    0.118810
  17 C :   -0.117555
  18 C :   -0.066502
  19 C :   -0.019478
  20 C :   -0.165377
  21 H :    0.032821
  22 C :    0.131388
  23 H :   -0.021210
  24 H :    0.005633
  25 C :   -0.125944
  26 H :    0.013847
  27 H :    0.064006
  28 C :   -0.013715
  29 H :    0.039886
  30 H :    0.025979
  31 H :    0.024285
  32 H :    0.066271
  33 H :    0.092226
Sum of atomic charges:    0.0000000

LOEWDIN ATOMIC CHARGES
----------------------
   0 S :    0.391065
   1 C :   -0.204510
   2 C :   -0.071527
   3 C :   -0.061837
   4 C :   -0.186436
   5 H :    0.032556
   6 C :   -0.030439
   7 H :    0.038636
   8 H :    0.027656
   9 C :   -0.032986
  10 H :    0.024514
  11 H :    0.022661
  12 C :   -0.065964
  13 H :    0.023522
  14 H :    0.024002
  15 H :    0.016375
  16 S :    0.418675
  17 C :   -0.208948
  18 C :   -0.080278
  19 C :   -0.059643
  20 C :   -0.197645
  21 H :    0.037255
  22 C :   -0.021537
  23 H :    0.019302
  24 H :    0.024032
  25 C :   -0.031630
  26 H :    0.013712
  27 H :    0.028719
  28 C :   -0.052807
  29 H :    0.032726
  30 H :    0.014636
  31 H :    0.018344
  32 H :    0.040708
  33 H :    0.057094

  Mayer bond orders larger than 0.100000
B(  0-S ,  1-C ) :   1.1333 B(  0-S ,  4-C ) :   1.1355 B(  1-C ,  2-C ) :   1.6110
B(  1-C , 32-H ) :   0.9557 B(  2-C ,  3-C ) :   1.2201 B(  2-C ,  6-C ) :   1.0400
B(  3-C ,  4-C ) :   1.5995 B(  3-C ,  5-H ) :   0.9989 B(  4-C , 20-C ) :   1.0118
B(  6-C ,  7-H ) :   0.9350 B(  6-C ,  8-H ) :   0.9353 B(  6-C ,  9-C ) :   1.0671
B(  9-C , 10-H ) :   0.9598 B(  9-C , 11-H ) :   0.9606 B(  9-C , 12-C ) :   1.0663
B( 12-C , 13-H ) :   0.9732 B( 12-C , 14-H ) :   0.9759 B( 12-C , 15-H ) :   0.9756
B( 16-S , 17-C ) :   1.1457 B( 16-S , 20-C ) :   1.1733 B( 17-C , 18-C ) :   1.5789
B( 17-C , 20-C ) :   0.1117 B( 17-C , 33-H ) :   0.9585 B( 18-C , 19-C ) :   1.2954
B( 18-C , 21-H ) :   0.9705 B( 19-C , 20-C ) :   1.5670 B( 19-C , 22-C ) :   1.0292
B( 22-C , 23-H ) :   0.9244 B( 22-C , 24-H ) :   0.9329 B( 22-C , 25-C ) :   1.0540
B( 25-C , 26-H ) :   0.9566 B( 25-C , 27-H ) :   0.9613 B( 25-C , 28-C ) :   1.0691
B( 28-C , 29-H ) :   0.9771 B( 28-C , 30-H ) :   0.9824 B( 28-C , 31-H ) :   0.9772

Dispersion correction           -0.016523246
FINAL SINGLE POINT ENERGY     -1339.854617663274

DIPOLE MOMENT
-------------
                                X             Y             Z
Electronic contribution:    -10.43533      12.42976     -25.30877
Nuclear contribution   :     10.68287     -13.09469      25.83174
                        -----------------------------------------
Total Dipole Moment    :      0.24754      -0.66493       0.52297
                        -----------------------------------------
Magnitude (a.u.)       :      0.88142
Magnitude (Debye)      :      2.24040

Rotational constants in cm-1:     0.018241     0.010578     0.007848
Rotational constants in MHz :   546.844350   317.133074   235.262805

                             ****ORCA TERMINATED NORMALLY****
TOTAL RUN TIME: 0 days 0 hours 0 minutes 32 seconds 464 msec
