                         Program Version 4.2.1 -  RELEASE  -
|  1> ! wB97X-D3 SP def2-SVP
|  2> %pal
|  3> nprocs 16
|  4> end
|  5>
|  6> * xyz 0 1
|  7> S 	 59.1571 	 -8.81672 	 90.2833
|  8> C 	 59.6066 	 -7.12932 	 90.5776
|  9> C 	 60.2339 	 -6.59723 	 89.4568
| 10> C 	 60.5376 	 -7.64626 	 88.5117
| 11> C 	 60.1074 	 -8.86413 	 88.8671
| 12> H 	 61.0182 	 -7.43244 	 87.5558
| 13> C 	 60.6342 	 -5.19675 	 89.1963
| 14> H 	 59.6841 	 -4.74813 	 89.4937
| 15> H 	 60.798 	 -4.99364 	 88.155
| 16> C 	 61.8033 	 -4.70828 	 90.0418
| 17> H 	 61.9507 	 -3.66841 	 89.8633
| 18> H 	 61.4831 	 -4.77788 	 91.0673
| 19> C 	 63.1013 	 -5.46336 	 89.9571
| 20> H 	 63.7887 	 -5.11372 	 90.7007
| 21> H 	 62.9037 	 -6.52096 	 90.1177
| 22> H 	 63.5434 	 -5.30351 	 88.9665
| 23> S 	 58.9378 	 -11.1681 	 87.9636
| 24> C 	 59.8532 	 -12.257 	 86.933
| 25> C 	 61.1015 	 -11.7546 	 86.6851
| 26> C 	 61.4759 	 -10.5589 	 87.4087
| 27> C 	 60.2907 	 -10.036 	 88.055
| 28> H 	 61.792 	 -12.3047 	 86.1181
| 29> C 	 62.9572 	 -9.95943 	 87.1846
| 30> H 	 62.9623 	 -8.91688 	 87.3179
| 31> H 	 63.3256 	 -10.079 	 86.1856
| 32> C 	 64.1352 	 -10.6203 	 88.0117
| 33> H 	 64.0297 	 -10.2811 	 89.0375
| 34> H 	 65.0815 	 -10.2106 	 87.7266
| 35> C 	 64.1827 	 -12.1855 	 87.8232
| 36> H 	 64.1522 	 -12.3301 	 86.7576
| 37> H 	 63.3176 	 -12.675 	 88.2477
| 38> H 	 65.1371 	 -12.6279 	 88.1566
| 39> H 	 59.2446 	 -6.48982 	 91.3711
| 40> H 	 59.519 	 -13.2599 	 86.6146
| 41> *
| 42>
| 43>                          ****END OF INPUT****

CARTESIAN COORDINATES (ANGSTROEM)
---------------------------------
  S     59.157100   -8.816720   90.283300
  C     59.606600   -7.129320   90.577600
  C     60.233900   -6.597230   89.456800
  C     60.537600   -7.646260   88.511700
  C     60.107400   -8.864130   88.867100
  H     61.018200   -7.432440   87.555800
  C     60.634200   -5.196750   89.196300
  H     59.684100   -4.748130   89.493700
  H     60.798000   -4.993640   88.155000
  C     61.803300   -4.708280   90.041800
  H     61.950700   -3.668410   89.863300
  H     61.483100   -4.777880   91.067300
  C     63.101300   -5.463360   89.957100
  H     63.788700   -5.113720   90.700700
  H     62.903700   -6.520960   90.117700
  H     63.543400   -5.303510   88.966500
  S     58.937800  -11.168100   87.963600
  C     59.853200  -12.257000   86.933000
  C     61.101500  -11.754600   86.685100
  C     61.475900  -10.558900   87.408700
  C     60.290700  -10.036000   88.055000
  H     61.792000  -12.304700   86.118100
  C     62.957200   -9.959430   87.184600
  H     62.962300   -8.916880   87.317900
  H     63.325600  -10.079000   86.185600
  C     64.135200  -10.620300   88.011700
  H     64.029700  -10.281100   89.037500
  H     65.081500  -10.210600   87.726600
  C     64.182700  -12.185500   87.823200
  H     64.152200  -12.330100   86.757600
  H     63.317600  -12.675000   88.247700
  H     65.137100  -12.627900   88.156600
  H     59.244600   -6.489820   91.371100
  H     59.519000  -13.259900   86.614600

 Total Charge           Charge          ....    0
 Multiplicity           Mult            ....    1
 Number of Electrons    NEL             ....  134
 Basis Dimension        Dim             ....  322

ORBITAL ENERGIES
----------------

  NO   OCC          E(Eh)            E(eV)
   0   2.0000     -88.967857     -2420.9385
   1   2.0000     -88.966734     -2420.9079
   2   2.0000     -10.335760      -281.2503
   3   2.0000     -10.320027      -280.8222
   4   2.0000     -10.318484      -280.7802
   5   2.0000     -10.318083      -280.7693
   6   2.0000     -10.314018      -280.6587
   7   2.0000     -10.299389      -280.2606
   8   2.0000     -10.298770      -280.2438
   9   2.0000     -10.289966      -280.0042
  10   2.0000     -10.287987      -279.9504
  11   2.0000     -10.287703      -279.9426
  12   2.0000     -10.285749      -279.8895
  13   2.0000     -10.279452      -279.7181
  14   2.0000     -10.278269      -279.6859
  15   2.0000     -10.272695      -279.5342
  16   2.0000      -8.082184      -219.9274
  17   2.0000      -8.081892      -219.9195
  18   2.0000      -6.040760      -164.3774
  19   2.0000      -6.040518      -164.3709
  20   2.0000      -6.036692      -164.2667
  21   2.0000      -6.036470      -164.2607
  22   2.0000      -6.032979      -164.1657
  23   2.0000      -6.032368      -164.1491
  24   2.0000      -1.010201       -27.4890
  25   2.0000      -0.980371       -26.6772
  26   2.0000      -0.921963       -25.0879
  27   2.0000      -0.896774       -24.4025
  28   2.0000      -0.871369       -23.7112
  29   2.0000      -0.850952       -23.1556
  30   2.0000      -0.839994       -22.8574
  31   2.0000      -0.813730       -22.1427
  32   2.0000      -0.788086       -21.4449
  33   2.0000      -0.775840       -21.1117
  34   2.0000      -0.709605       -19.3093
  35   2.0000      -0.705315       -19.1926
  36   2.0000      -0.690635       -18.7931
  37   2.0000      -0.659270       -17.9396
  38   2.0000      -0.634971       -17.2785
  39   2.0000      -0.615912       -16.7598
  40   2.0000      -0.592871       -16.1328
  41   2.0000      -0.580135       -15.7863
  42   2.0000      -0.558418       -15.1953
  43   2.0000      -0.554015       -15.0755
  44   2.0000      -0.545592       -14.8463
  45   2.0000      -0.536518       -14.5994
  46   2.0000      -0.513232       -13.9658
  47   2.0000      -0.508882       -13.8474
  48   2.0000      -0.503715       -13.7068
  49   2.0000      -0.495135       -13.4733
  50   2.0000      -0.487038       -13.2530
  51   2.0000      -0.479373       -13.0444
  52   2.0000      -0.469781       -12.7834
  53   2.0000      -0.465301       -12.6615
  54   2.0000      -0.462359       -12.5814
  55   2.0000      -0.451010       -12.2726
  56   2.0000      -0.443974       -12.0811
  57   2.0000      -0.441752       -12.0207
  58   2.0000      -0.431762       -11.7488
  59   2.0000      -0.425064       -11.5666
  60   2.0000      -0.421658       -11.4739
  61   2.0000      -0.417855       -11.3704
  62   2.0000      -0.413007       -11.2385
  63   2.0000      -0.351017        -9.5517
  64   2.0000      -0.333024        -9.0620
  65   2.0000      -0.327334        -8.9072
  66   2.0000      -0.287344        -7.8190
  67   0.0000       0.023747         0.6462
  68   0.0000       0.074111         2.0167
  69   0.0000       0.100364         2.7311
  70   0.0000       0.119301         3.2463
  71   0.0000       0.130216         3.5434

MULLIKEN ATOMIC CHARGES
-----------------------
   0 S :    0.111602
   1 C :   -0.123846
   2 C :   -0.125231
   3 C :   -0.013111
   4 C :   -0.087513
   5 H :    0.015830
   6 C :    0.092116
   7 H :    0.031443
   8 H :    0.018719
   9 C :   -0.055037
  10 H :    0.021852
  11 H :    0.011802
  12 C :   -0.036802
  13 H :    0.033557
  14 H :    0.044729
  15 H :    0.024404
  16 S :    0.098028
  17 C :   -0.096457
  18 C :   -0.013284
  19 C :   -0.023282
  20 C :   -0.171552
  21 H :   -0.001237
  22 C :    0.062905
  23 H :    0.007834
  24 H :    0.025561
  25 C :   -0.069018
  26 H :    0.032837
  27 H :    0.020652
  28 C :   -0.060685
  29 H :    0.015050
  30 H :    0.056086
  31 H :    0.040718
  32 H :    0.043605
  33 H :    0.067726
Sum of atomic charges:   -0.0000000

LOEWDIN ATOMIC CHARGES
----------------------
   0 S :    0.412033
   1 C :   -0.200580
   2 C :   -0.054852
   3 C :   -0.067419
   4 C :   -0.210495
   5 H :    0.031353
   6 C :   -0.032670
   7 H :    0.040449
   8 H :    0.026678
   9 C :   -0.037231
  10 H :    0.019544
  11 H :    0.020801
  12 C :   -0.060473
  13 H :    0.026468
  14 H :    0.028442
  15 H :    0.023113
  16 S :    0.394717
  17 C :   -0.192675
  18 C :   -0.066096
  19 C :   -0.048123
  20 C :   -0.182865
  21 H :    0.019976
  22 C :   -0.021245
  23 H :    0.019388
  24 H :    0.027990
  25 C :   -0.031594
  26 H :    0.020860
  27 H :    0.019466
  28 C :   -0.064408
  29 H :    0.017891
  30 H :    0.027703
  31 H :    0.029411
  32 H :    0.026818
  33 H :    0.037626

  Mayer bond orders larger than 0.100000
B(  0-S ,  1-C ) :   1.1216 B(  0-S ,  4-C ) :   1.1422 B(  1-C ,  2-C ) :   1.6183
B(  1-C , 32-H ) :   0.9671 B(  2-C ,  3-C ) :   1.2287 B(  2-C ,  6-C ) :   1.0068
B(  3-C ,  4-C ) :   1.5729 B(  3-C ,  5-H ) :   0.9983 B(  4-C , 20-C ) :   1.0653
B(  6-C ,  7-H ) :   0.9296 B(  6-C ,  8-H ) :   0.9452 B(  6-C ,  9-C ) :   1.0792
B(  9-C , 10-H ) :   0.9542 B(  9-C , 11-H ) :   0.9526 B(  9-C , 12-C ) :   1.0868
B( 12-C , 13-H ) :   0.9709 B( 12-C , 14-H ) :   0.9705 B( 12-C , 15-H ) :   0.9743
B( 16-S , 17-C ) :   1.1334 B( 16-S , 20-C ) :   1.1505 B( 17-C , 18-C ) :   1.6208
B( 17-C , 20-C ) :   0.1010 B( 17-C , 33-H ) :   0.9641 B( 18-C , 19-C ) :   1.2420
B( 18-C , 21-H ) :   0.9871 B( 19-C , 20-C ) :   1.5694 B( 19-C , 22-C ) :   1.0120
B( 22-C , 23-H ) :   0.9427 B( 22-C , 24-H ) :   0.9513 B( 22-C , 25-C ) :   1.0703
B( 25-C , 26-H ) :   0.9603 B( 25-C , 27-H ) :   0.9581 B( 25-C , 28-C ) :   1.0689
B( 28-C , 29-H ) :   0.9740 B( 28-C , 30-H ) :   0.9733 B( 28-C , 31-H ) :   0.9744

Dispersion correction           -0.014601352
FINAL SINGLE POINT ENERGY     -1339.867777910317

DIPOLE MOMENT
-------------
                                X             Y             Z
Electronic contribution:    -25.50781     -10.46606       1.86163
Nuclear contribution   :     26.06460      10.82996      -2.09375
                        -----------------------------------------
Total Dipole Moment    :      0.55679       0.36390      -0.23212
                        -----------------------------------------
Magnitude (a.u.)       :      0.70450
Magnitude (Debye)      :      1.79069

Rotational constants in cm-1:     0.018796     0.009247     0.006821
Rotational constants in MHz :   563.497341   277.232515   204.486559

                             ****ORCA TERMINATED NORMALLY****
TOTAL RUN TIME: 0 days 0 hours 0 minutes 29 seconds 215 msec
