                         Program Version 4.2.1 -  RELEASE  -
|  1> ! wB97X-D3 SP def2-SVP
|  2> %pal
|  3> nprocs 16
|  4> end
|  5>
|  6> * xyz 0 1
|  7> S 	 3.32338 	 -20.466 	 83.8396
|  8> C 	 2.8427 	 -20.8635 	 85.468
|  9> C 	 3.74978 	 -20.4324 	 86.3987
| 10> C 	 4.9142 	 -19.8158 	 85.7689
| 11> C 	 4.89775 	 -19.8419 	 84.3977
| 12> H 	 5.77888 	 -19.4342 	 86.3005
| 13> C 	 3.75116 	 -20.5834 	 87.8537
| 14> H 	 4.37666 	 -21.4563 	 87.9579
| 15> H 	 2.76832 	 -20.7757 	 88.3058
| 16> C 	 4.37115 	 -19.4827 	 88.7423
| 17> H 	 4.2955 	 -19.8439 	 89.7959
| 18> H 	 5.3947 	 -19.412 	 88.5855
| 19> C 	 3.72361 	 -18.0847 	 88.6378
| 20> H 	 3.91351 	 -17.6544 	 87.5999
| 21> H 	 2.7105 	 -17.962 	 89.0651
| 22> H 	 4.26591 	 -17.3291 	 89.2092
| 23> S 	 6.53565 	 -20.513 	 82.2531
| 24> C 	 7.51746 	 -19.341 	 81.5161
| 25> C 	 7.67645 	 -18.3331 	 82.3863
| 26> C 	 6.71697 	 -18.1913 	 83.4292
| 27> C 	 5.96429 	 -19.3546 	 83.5118
| 28> H 	 8.37799 	 -17.5508 	 82.1929
| 29> C 	 6.38694 	 -16.9667 	 84.2817
| 30> H 	 7.17611 	 -16.8967 	 85.0397
| 31> H 	 5.44907 	 -17.2724 	 84.7242
| 32> C 	 6.16724 	 -15.6486 	 83.4238
| 33> H 	 5.34156 	 -15.8953 	 82.717
| 34> H 	 6.97792 	 -15.5188 	 82.7968
| 35> C 	 5.8467 	 -14.3632 	 84.2909
| 36> H 	 6.85507 	 -14.0106 	 84.4997
| 37> H 	 5.30371 	 -14.3994 	 85.213
| 38> H 	 5.3489 	 -13.582 	 83.6982
| 39> H 	 1.97079 	 -21.3094 	 85.7159
| 40> H 	 8.19176 	 -19.4917 	 80.7137
| 41> *
| 42>
| 43>                          ****END OF INPUT****

CARTESIAN COORDINATES (ANGSTROEM)
---------------------------------
  S      3.323380  -20.466000   83.839600
  C      2.842700  -20.863500   85.468000
  C      3.749780  -20.432400   86.398700
  C      4.914200  -19.815800   85.768900
  C      4.897750  -19.841900   84.397700
  H      5.778880  -19.434200   86.300500
  C      3.751160  -20.583400   87.853700
  H      4.376660  -21.456300   87.957900
  H      2.768320  -20.775700   88.305800
  C      4.371150  -19.482700   88.742300
  H      4.295500  -19.843900   89.795900
  H      5.394700  -19.412000   88.585500
  C      3.723610  -18.084700   88.637800
  H      3.913510  -17.654400   87.599900
  H      2.710500  -17.962000   89.065100
  H      4.265910  -17.329100   89.209200
  S      6.535650  -20.513000   82.253100
  C      7.517460  -19.341000   81.516100
  C      7.676450  -18.333100   82.386300
  C      6.716970  -18.191300   83.429200
  C      5.964290  -19.354600   83.511800
  H      8.377990  -17.550800   82.192900
  C      6.386940  -16.966700   84.281700
  H      7.176110  -16.896700   85.039700
  H      5.449070  -17.272400   84.724200
  C      6.167240  -15.648600   83.423800
  H      5.341560  -15.895300   82.717000
  H      6.977920  -15.518800   82.796800
  C      5.846700  -14.363200   84.290900
  H      6.855070  -14.010600   84.499700
  H      5.303710  -14.399400   85.213000
  H      5.348900  -13.582000   83.698200
  H      1.970790  -21.309400   85.715900
  H      8.191760  -19.491700   80.713700

 Total Charge           Charge          ....    0
 Multiplicity           Mult            ....    1
 Number of Electrons    NEL             ....  134
 Basis Dimension        Dim             ....  322

ORBITAL ENERGIES
----------------

  NO   OCC          E(Eh)            E(eV)
   0   2.0000     -88.963211     -2420.8120
   1   2.0000     -88.957430     -2420.6547
   2   2.0000     -10.331544      -281.1356
   3   2.0000     -10.327944      -281.0376
   4   2.0000     -10.307640      -280.4852
   5   2.0000     -10.305481      -280.4264
   6   2.0000     -10.303237      -280.3653
   7   2.0000     -10.299653      -280.2678
   8   2.0000     -10.296217      -280.1743
   9   2.0000     -10.294607      -280.1305
  10   2.0000     -10.291624      -280.0493
  11   2.0000     -10.290011      -280.0054
  12   2.0000     -10.289944      -280.0036
  13   2.0000     -10.285298      -279.8772
  14   2.0000     -10.285144      -279.8730
  15   2.0000     -10.281349      -279.7697
  16   2.0000      -8.077587      -219.8023
  17   2.0000      -8.072866      -219.6738
  18   2.0000      -6.036275      -164.2554
  19   2.0000      -6.032175      -164.1438
  20   2.0000      -6.031299      -164.1200
  21   2.0000      -6.028134      -164.0339
  22   2.0000      -6.027387      -164.0135
  23   2.0000      -6.023508      -163.9080
  24   2.0000      -1.006043       -27.3758
  25   2.0000      -0.986764       -26.8512
  26   2.0000      -0.914528       -24.8856
  27   2.0000      -0.902212       -24.5504
  28   2.0000      -0.871665       -23.7192
  29   2.0000      -0.847767       -23.0689
  30   2.0000      -0.841906       -22.9094
  31   2.0000      -0.817301       -22.2399
  32   2.0000      -0.783838       -21.3293
  33   2.0000      -0.775765       -21.1096
  34   2.0000      -0.712974       -19.4010
  35   2.0000      -0.707462       -19.2510
  36   2.0000      -0.701857       -19.0985
  37   2.0000      -0.653552       -17.7840
  38   2.0000      -0.642560       -17.4850
  39   2.0000      -0.624560       -16.9951
  40   2.0000      -0.594827       -16.1861
  41   2.0000      -0.568655       -15.4739
  42   2.0000      -0.563167       -15.3246
  43   2.0000      -0.559422       -15.2226
  44   2.0000      -0.534963       -14.5571
  45   2.0000      -0.523603       -14.2480
  46   2.0000      -0.517003       -14.0684
  47   2.0000      -0.511979       -13.9316
  48   2.0000      -0.508240       -13.8299
  49   2.0000      -0.500455       -13.6181
  50   2.0000      -0.491659       -13.3787
  51   2.0000      -0.483702       -13.1622
  52   2.0000      -0.473298       -12.8791
  53   2.0000      -0.466068       -12.6824
  54   2.0000      -0.463039       -12.5999
  55   2.0000      -0.446354       -12.1459
  56   2.0000      -0.441771       -12.0212
  57   2.0000      -0.438493       -11.9320
  58   2.0000      -0.432901       -11.7798
  59   2.0000      -0.423425       -11.5220
  60   2.0000      -0.418930       -11.3997
  61   2.0000      -0.416280       -11.3276
  62   2.0000      -0.409289       -11.1373
  63   2.0000      -0.346161        -9.4195
  64   2.0000      -0.328358        -8.9351
  65   2.0000      -0.320501        -8.7213
  66   2.0000      -0.297858        -8.1051
  67   0.0000       0.030086         0.8187
  68   0.0000       0.075003         2.0409
  69   0.0000       0.115765         3.1501
  70   0.0000       0.120861         3.2888
  71   0.0000       0.131944         3.5904

MULLIKEN ATOMIC CHARGES
-----------------------
   0 S :    0.111142
   1 C :   -0.076089
   2 C :   -0.064374
   3 C :    0.009467
   4 C :   -0.141264
   5 H :    0.013979
   6 C :    0.066213
   7 H :    0.044691
   8 H :    0.024016
   9 C :   -0.068807
  10 H :    0.032268
  11 H :    0.013022
  12 C :   -0.071096
  13 H :    0.045681
  14 H :    0.044544
  15 H :    0.020768
  16 S :    0.090006
  17 C :   -0.049402
  18 C :   -0.047592
  19 C :   -0.053409
  20 C :   -0.185775
  21 H :    0.004123
  22 C :    0.085576
  23 H :    0.037516
  24 H :    0.034325
  25 C :   -0.076680
  26 H :    0.038790
  27 H :    0.015294
  28 C :   -0.046601
  29 H :    0.028570
  30 H :    0.037545
  31 H :    0.038327
  32 H :   -0.003912
  33 H :    0.049136
Sum of atomic charges:    0.0000000

LOEWDIN ATOMIC CHARGES
----------------------
   0 S :    0.391289
   1 C :   -0.178754
   2 C :   -0.059878
   3 C :   -0.058273
   4 C :   -0.189088
   5 H :    0.030357
   6 C :   -0.036266
   7 H :    0.042161
   8 H :    0.031338
   9 C :   -0.038863
  10 H :    0.032536
  11 H :    0.011670
  12 C :   -0.080031
  13 H :    0.035587
  14 H :    0.030287
  15 H :    0.025573
  16 S :    0.395799
  17 C :   -0.188511
  18 C :   -0.077460
  19 C :   -0.055189
  20 C :   -0.180861
  21 H :    0.021491
  22 C :   -0.025315
  23 H :    0.030215
  24 H :    0.031633
  25 C :   -0.029586
  26 H :    0.030329
  27 H :    0.010280
  28 C :   -0.068675
  29 H :    0.027742
  30 H :    0.024016
  31 H :    0.030214
  32 H :    0.006304
  33 H :    0.027928

  Mayer bond orders larger than 0.100000
B(  0-S ,  1-C ) :   1.1194 B(  0-S ,  4-C ) :   1.1369 B(  1-C ,  2-C ) :   1.6335
B(  1-C , 32-H ) :   0.9822 B(  2-C ,  3-C ) :   1.1990 B(  2-C ,  6-C ) :   1.0239
B(  3-C ,  4-C ) :   1.5948 B(  3-C ,  5-H ) :   0.9946 B(  4-C , 20-C ) :   1.0380
B(  6-C ,  7-H ) :   0.9280 B(  6-C ,  8-H ) :   0.9430 B(  6-C ,  9-C ) :   1.0854
B(  9-C , 10-H ) :   0.9528 B(  9-C , 11-H ) :   0.9459 B(  9-C , 12-C ) :   1.0853
B( 12-C , 13-H ) :   0.9684 B( 12-C , 14-H ) :   0.9750 B( 12-C , 15-H ) :   0.9702
B( 16-S , 17-C ) :   1.1477 B( 16-S , 20-C ) :   1.1412 B( 17-C , 18-C ) :   1.6261
B( 17-C , 33-H ) :   0.9681 B( 18-C , 19-C ) :   1.2296 B( 18-C , 21-H ) :   0.9843
B( 19-C , 20-C ) :   1.6038 B( 19-C , 22-C ) :   1.0282 B( 22-C , 23-H ) :   0.9331
B( 22-C , 24-H ) :   0.9363 B( 22-C , 25-C ) :   1.0512 B( 25-C , 26-H ) :   0.9604
B( 25-C , 27-H ) :   0.9658 B( 25-C , 28-C ) :   1.0598 B( 28-C , 29-H ) :   0.9788
B( 28-C , 30-H ) :   0.9817 B( 28-C , 31-H ) :   0.9779

Dispersion correction           -0.014283751
FINAL SINGLE POINT ENERGY     -1339.858980752243

DIPOLE MOMENT
-------------
                                X             Y             Z
Electronic contribution:     -0.30775     -21.56914     -20.12322
Nuclear contribution   :      0.56834      22.04151      20.74545
                        -----------------------------------------
Total Dipole Moment    :      0.26059       0.47238       0.62223
                        -----------------------------------------
Magnitude (a.u.)       :      0.82354
Magnitude (Debye)      :      2.09327

Rotational constants in cm-1:     0.016005     0.009694     0.006971
Rotational constants in MHz :   479.814965   290.626535   208.996887

                             ****ORCA TERMINATED NORMALLY****
TOTAL RUN TIME: 0 days 0 hours 0 minutes 34 seconds 84 msec
