                         Program Version 4.2.1 -  RELEASE  -
|  1> ! wB97X-D3 SP def2-SVP
|  2> %pal
|  3> nprocs 16
|  4> end
|  5>
|  6> * xyz 0 1
|  7> S 	 0.273235 	 16.5786 	 54.1689
|  8> C 	 -0.576139 	 15.2075 	 53.5908
|  9> C 	 -1.595 	 15.5059 	 52.7121
| 10> C 	 -1.7411 	 16.9138 	 52.4998
| 11> C 	 -0.837619 	 17.6445 	 53.2872
| 12> H 	 -2.54975 	 17.5545 	 51.9963
| 13> C 	 -2.70644 	 14.6366 	 52.1876
| 14> H 	 -3.66418 	 15.0215 	 52.4018
| 15> H 	 -2.66709 	 13.7552 	 52.8902
| 16> C 	 -2.52877 	 14.0176 	 50.8117
| 17> H 	 -2.5924 	 14.8506 	 50.1068
| 18> H 	 -1.56807 	 13.6818 	 50.7406
| 19> C 	 -3.5551 	 12.8345 	 50.4666
| 20> H 	 -3.29322 	 12.359 	 49.5072
| 21> H 	 -3.63669 	 12.0404 	 51.2283
| 22> H 	 -4.57439 	 13.18 	 50.4468
| 23> S 	 -1.49684 	 19.86 	 54.7579
| 24> C 	 -1.06834 	 21.435 	 54.0685
| 25> C 	 -0.374945 	 21.3296 	 52.8591
| 26> C 	 -0.202231 	 20.007 	 52.4107
| 27> C 	 -0.770078 	 19.106 	 53.3277
| 28> H 	 0.0299954 	 22.2473 	 52.4578
| 29> C 	 0.561365 	 19.5861 	 51.115
| 30> H 	 -0.179024 	 19.0754 	 50.4983
| 31> H 	 1.20597 	 18.7412 	 51.3005
| 32> C 	 1.30201 	 20.6281 	 50.3025
| 33> H 	 0.658049 	 21.4599 	 50.156
| 34> H 	 1.60307 	 20.0671 	 49.4121
| 35> C 	 2.58566 	 21.2297 	 50.8495
| 36> H 	 3.06544 	 21.9133 	 50.1337
| 37> H 	 3.3737 	 20.5356 	 51.0348
| 38> H 	 2.3761 	 21.827 	 51.7667
| 39> H 	 -0.386161 	 14.2307 	 53.9227
| 40> H 	 -1.24261 	 22.4008 	 54.4796
| 41> *
| 42>
| 43>                          ****END OF INPUT****

CARTESIAN COORDINATES (ANGSTROEM)
---------------------------------
  S      0.273235   16.578600   54.168900
  C     -0.576139   15.207500   53.590800
  C     -1.595000   15.505900   52.712100
  C     -1.741100   16.913800   52.499800
  C     -0.837619   17.644500   53.287200
  H     -2.549750   17.554500   51.996300
  C     -2.706440   14.636600   52.187600
  H     -3.664180   15.021500   52.401800
  H     -2.667090   13.755200   52.890200
  C     -2.528770   14.017600   50.811700
  H     -2.592400   14.850600   50.106800
  H     -1.568070   13.681800   50.740600
  C     -3.555100   12.834500   50.466600
  H     -3.293220   12.359000   49.507200
  H     -3.636690   12.040400   51.228300
  H     -4.574390   13.180000   50.446800
  S     -1.496840   19.860000   54.757900
  C     -1.068340   21.435000   54.068500
  C     -0.374945   21.329600   52.859100
  C     -0.202231   20.007000   52.410700
  C     -0.770078   19.106000   53.327700
  H      0.029995   22.247300   52.457800
  C      0.561365   19.586100   51.115000
  H     -0.179024   19.075400   50.498300
  H      1.205970   18.741200   51.300500
  C      1.302010   20.628100   50.302500
  H      0.658049   21.459900   50.156000
  H      1.603070   20.067100   49.412100
  C      2.585660   21.229700   50.849500
  H      3.065440   21.913300   50.133700
  H      3.373700   20.535600   51.034800
  H      2.376100   21.827000   51.766700
  H     -0.386161   14.230700   53.922700
  H     -1.242610   22.400800   54.479600

 Total Charge           Charge          ....    0
 Multiplicity           Mult            ....    1
 Number of Electrons    NEL             ....  134
 Basis Dimension        Dim             ....  322

ORBITAL ENERGIES
----------------

  NO   OCC          E(Eh)            E(eV)
   0   2.0000     -88.969545     -2420.9844
   1   2.0000     -88.968393     -2420.9531
   2   2.0000     -10.326523      -280.9990
   3   2.0000     -10.324398      -280.9411
   4   2.0000     -10.316571      -280.7282
   5   2.0000     -10.310017      -280.5498
   6   2.0000     -10.307800      -280.4895
   7   2.0000     -10.300190      -280.2824
   8   2.0000     -10.298957      -280.2489
   9   2.0000     -10.293195      -280.0921
  10   2.0000     -10.291479      -280.0454
  11   2.0000     -10.287123      -279.9269
  12   2.0000     -10.284722      -279.8615
  13   2.0000     -10.284693      -279.8607
  14   2.0000     -10.283672      -279.8330
  15   2.0000     -10.275901      -279.6215
  16   2.0000      -8.083240      -219.9561
  17   2.0000      -8.083210      -219.9553
  18   2.0000      -6.041677      -164.4024
  19   2.0000      -6.041604      -164.4004
  20   2.0000      -6.037940      -164.3007
  21   2.0000      -6.037690      -164.2939
  22   2.0000      -6.034117      -164.1967
  23   2.0000      -6.034093      -164.1960
  24   2.0000      -1.001688       -27.2573
  25   2.0000      -0.980398       -26.6780
  26   2.0000      -0.909702       -24.7542
  27   2.0000      -0.908057       -24.7095
  28   2.0000      -0.865278       -23.5454
  29   2.0000      -0.849469       -23.1152
  30   2.0000      -0.846697       -23.0398
  31   2.0000      -0.810568       -22.0567
  32   2.0000      -0.785921       -21.3860
  33   2.0000      -0.773004       -21.0345
  34   2.0000      -0.710040       -19.3212
  35   2.0000      -0.702367       -19.1124
  36   2.0000      -0.695065       -18.9137
  37   2.0000      -0.652483       -17.7550
  38   2.0000      -0.645285       -17.5591
  39   2.0000      -0.612555       -16.6685
  40   2.0000      -0.601718       -16.3736
  41   2.0000      -0.571570       -15.5532
  42   2.0000      -0.552716       -15.0402
  43   2.0000      -0.545933       -14.8556
  44   2.0000      -0.539708       -14.6862
  45   2.0000      -0.525470       -14.2988
  46   2.0000      -0.519573       -14.1383
  47   2.0000      -0.505004       -13.7419
  48   2.0000      -0.501866       -13.6565
  49   2.0000      -0.490330       -13.3426
  50   2.0000      -0.488272       -13.2866
  51   2.0000      -0.476116       -12.9558
  52   2.0000      -0.470705       -12.8085
  53   2.0000      -0.467991       -12.7347
  54   2.0000      -0.464250       -12.6329
  55   2.0000      -0.447169       -12.1681
  56   2.0000      -0.445913       -12.1339
  57   2.0000      -0.442188       -12.0325
  58   2.0000      -0.436529       -11.8786
  59   2.0000      -0.430012       -11.7012
  60   2.0000      -0.423033       -11.5113
  61   2.0000      -0.409839       -11.1523
  62   2.0000      -0.409446       -11.1416
  63   2.0000      -0.339018        -9.2251
  64   2.0000      -0.332297        -9.0423
  65   2.0000      -0.318449        -8.6654
  66   2.0000      -0.302137        -8.2216
  67   0.0000       0.038125         1.0374
  68   0.0000       0.055401         1.5075
  69   0.0000       0.112805         3.0696
  70   0.0000       0.119555         3.2533
  71   0.0000       0.125305         3.4097

MULLIKEN ATOMIC CHARGES
-----------------------
   0 S :    0.127934
   1 C :   -0.091733
   2 C :   -0.070054
   3 C :    0.017948
   4 C :   -0.199243
   5 H :    0.053557
   6 C :    0.037265
   7 H :    0.022429
   8 H :    0.005845
   9 C :   -0.004034
  10 H :    0.021273
  11 H :    0.004593
  12 C :   -0.061810
  13 H :    0.044703
  14 H :    0.028857
  15 H :    0.027337
  16 S :    0.123950
  17 C :   -0.073471
  18 C :   -0.077417
  19 C :    0.013815
  20 C :   -0.219209
  21 H :    0.016584
  22 C :    0.100220
  23 H :    0.025499
  24 H :    0.019319
  25 C :   -0.046408
  26 H :    0.025523
  27 H :    0.033406
  28 C :   -0.055770
  29 H :    0.031579
  30 H :    0.021710
  31 H :    0.032632
  32 H :    0.024843
  33 H :    0.038329
Sum of atomic charges:    0.0000000

LOEWDIN ATOMIC CHARGES
----------------------
   0 S :    0.414642
   1 C :   -0.197396
   2 C :   -0.067017
   3 C :   -0.065335
   4 C :   -0.202441
   5 H :    0.051353
   6 C :   -0.033380
   7 H :    0.023425
   8 H :    0.031420
   9 C :   -0.026904
  10 H :    0.023395
  11 H :    0.011673
  12 C :   -0.067463
  13 H :    0.030239
  14 H :    0.025790
  15 H :    0.022386
  16 S :    0.400207
  17 C :   -0.176608
  18 C :   -0.076657
  19 C :   -0.045795
  20 C :   -0.204554
  21 H :    0.029778
  22 C :   -0.031342
  23 H :    0.038095
  24 H :    0.031469
  25 C :   -0.040758
  26 H :    0.021056
  27 H :    0.034778
  28 C :   -0.068097
  29 H :    0.029163
  30 H :    0.019205
  31 H :    0.026092
  32 H :    0.017345
  33 H :    0.022235

  Mayer bond orders larger than 0.100000
B(  0-S ,  1-C ) :   1.1479 B(  0-S ,  4-C ) :   1.1488 B(  1-C ,  2-C ) :   1.6187
B(  1-C , 32-H ) :   0.9690 B(  2-C ,  3-C ) :   1.2245 B(  2-C ,  6-C ) :   1.0185
B(  3-C ,  4-C ) :   1.5997 B(  3-C ,  5-H ) :   0.9762 B(  4-C , 20-C ) :   1.0256
B(  6-C ,  7-H ) :   0.9518 B(  6-C ,  8-H ) :   0.9384 B(  6-C ,  9-C ) :   1.0568
B(  9-C , 10-H ) :   0.9557 B(  9-C , 11-H ) :   0.9536 B(  9-C , 12-C ) :   1.0674
B( 12-C , 13-H ) :   0.9782 B( 12-C , 14-H ) :   0.9771 B( 12-C , 15-H ) :   0.9777
B( 16-S , 17-C ) :   1.1523 B( 16-S , 20-C ) :   1.1536 B( 17-C , 18-C ) :   1.6214
B( 17-C , 20-C ) :   0.1111 B( 17-C , 33-H ) :   0.9653 B( 18-C , 19-C ) :   1.2492
B( 18-C , 21-H ) :   0.9811 B( 19-C , 20-C ) :   1.5895 B( 19-C , 22-C ) :   1.0132
B( 22-C , 23-H ) :   0.9242 B( 22-C , 24-H ) :   0.9254 B( 22-C , 25-C ) :   1.0891
B( 25-C , 26-H ) :   0.9496 B( 25-C , 27-H ) :   0.9456 B( 25-C , 28-C ) :   1.0920
B( 28-C , 29-H ) :   0.9723 B( 28-C , 30-H ) :   0.9716 B( 28-C , 31-H ) :   0.9741

Dispersion correction           -0.013855834
FINAL SINGLE POINT ENERGY     -1339.864996814463

DIPOLE MOMENT
-------------
                                X             Y             Z
Electronic contribution:      0.21208       7.24717      22.34352
Nuclear contribution   :     -0.26202      -7.29442     -22.79401
                        -----------------------------------------
Total Dipole Moment    :     -0.04995      -0.04724      -0.45049
                        -----------------------------------------
Magnitude (a.u.)       :      0.45571
Magnitude (Debye)      :      1.15832

Rotational constants in cm-1:     0.019923     0.007093     0.006232
Rotational constants in MHz :   597.276755   212.653149   186.840816

                             ****ORCA TERMINATED NORMALLY****
TOTAL RUN TIME: 0 days 0 hours 0 minutes 33 seconds 544 msec
