                         Program Version 4.2.1 -  RELEASE  -
|  1> ! wB97X-D3 SP def2-SVP
|  2> %pal
|  3> nprocs 16
|  4> end
|  5>
|  6> * xyz 0 1
|  7> S 	 7.04272 	 -16.4075 	 88.0973
|  8> C 	 8.74716 	 -16.5644 	 87.9206
|  9> C 	 9.40148 	 -15.4287 	 88.399
| 10> C 	 8.5649 	 -14.5696 	 89.2336
| 11> C 	 7.26039 	 -15.0583 	 89.2331
| 12> H 	 8.93497 	 -13.8377 	 89.8854
| 13> C 	 10.8638 	 -15.1796 	 88.2784
| 14> H 	 11.2719 	 -16.0504 	 87.7086
| 15> H 	 11.4594 	 -14.9527 	 89.1866
| 16> C 	 11.1912 	 -14.1396 	 87.1871
| 17> H 	 10.7462 	 -14.3518 	 86.1749
| 18> H 	 10.6969 	 -13.2586 	 87.5053
| 19> C 	 12.7256 	 -13.9503 	 86.9758
| 20> H 	 13.2011 	 -13.6544 	 87.9646
| 21> H 	 13.089 	 -14.9497 	 86.6929
| 22> H 	 12.9411 	 -13.1896 	 86.2178
| 23> S 	 5.73045 	 -15.9939 	 91.1935
| 24> C 	 4.3598 	 -15.0656 	 91.8317
| 25> C 	 4.29248 	 -13.8887 	 91.183
| 26> C 	 5.32318 	 -13.6709 	 90.2394
| 27> C 	 6.19078 	 -14.6915 	 90.105
| 28> H 	 3.42238 	 -13.3116 	 91.3597
| 29> C 	 5.36084 	 -12.486 	 89.3802
| 30> H 	 4.71945 	 -12.6176 	 88.5346
| 31> H 	 6.26161 	 -12.4415 	 88.8331
| 32> C 	 4.99806 	 -11.1516 	 90.0701
| 33> H 	 5.59664 	 -11.0357 	 90.9845
| 34> H 	 3.95403 	 -11.0552 	 90.3404
| 35> C 	 5.11308 	 -9.84285 	 89.2133
| 36> H 	 4.17215 	 -9.7228 	 88.7696
| 37> H 	 5.84053 	 -10.0103 	 88.414
| 38> H 	 5.42694 	 -8.964 	 89.7137
| 39> H 	 9.26494 	 -17.3523 	 87.3091
| 40> H 	 3.53188 	 -15.4684 	 92.4996
| 41> *
| 42>
| 43>                          ****END OF INPUT****

CARTESIAN COORDINATES (ANGSTROEM)
---------------------------------
  S      7.042720  -16.407500   88.097300
  C      8.747160  -16.564400   87.920600
  C      9.401480  -15.428700   88.399000
  C      8.564900  -14.569600   89.233600
  C      7.260390  -15.058300   89.233100
  H      8.934970  -13.837700   89.885400
  C     10.863800  -15.179600   88.278400
  H     11.271900  -16.050400   87.708600
  H     11.459400  -14.952700   89.186600
  C     11.191200  -14.139600   87.187100
  H     10.746200  -14.351800   86.174900
  H     10.696900  -13.258600   87.505300
  C     12.725600  -13.950300   86.975800
  H     13.201100  -13.654400   87.964600
  H     13.089000  -14.949700   86.692900
  H     12.941100  -13.189600   86.217800
  S      5.730450  -15.993900   91.193500
  C      4.359800  -15.065600   91.831700
  C      4.292480  -13.888700   91.183000
  C      5.323180  -13.670900   90.239400
  C      6.190780  -14.691500   90.105000
  H      3.422380  -13.311600   91.359700
  C      5.360840  -12.486000   89.380200
  H      4.719450  -12.617600   88.534600
  H      6.261610  -12.441500   88.833100
  C      4.998060  -11.151600   90.070100
  H      5.596640  -11.035700   90.984500
  H      3.954030  -11.055200   90.340400
  C      5.113080   -9.842850   89.213300
  H      4.172150   -9.722800   88.769600
  H      5.840530  -10.010300   88.414000
  H      5.426940   -8.964000   89.713700
  H      9.264940  -17.352300   87.309100
  H      3.531880  -15.468400   92.499600

 Total Charge           Charge          ....    0
 Multiplicity           Mult            ....    1
 Number of Electrons    NEL             ....  134
 Basis Dimension        Dim             ....  322

ORBITAL ENERGIES
----------------

  NO   OCC          E(Eh)            E(eV)
   0   2.0000     -88.967510     -2420.9290
   1   2.0000     -88.955852     -2420.6118
   2   2.0000     -10.331473      -281.1337
   3   2.0000     -10.318313      -280.7756
   4   2.0000     -10.317911      -280.7646
   5   2.0000     -10.317255      -280.7468
   6   2.0000     -10.303857      -280.3822
   7   2.0000     -10.298088      -280.2252
   8   2.0000     -10.295464      -280.1538
   9   2.0000     -10.293536      -280.1014
  10   2.0000     -10.287255      -279.9304
  11   2.0000     -10.285873      -279.8928
  12   2.0000     -10.285263      -279.8762
  13   2.0000     -10.283983      -279.8414
  14   2.0000     -10.280871      -279.7567
  15   2.0000     -10.270638      -279.4783
  16   2.0000      -8.082383      -219.9328
  17   2.0000      -8.070693      -219.6147
  18   2.0000      -6.040864      -164.3803
  19   2.0000      -6.036985      -164.2747
  20   2.0000      -6.033019      -164.1668
  21   2.0000      -6.029315      -164.0660
  22   2.0000      -6.025149      -163.9526
  23   2.0000      -6.021314      -163.8483
  24   2.0000      -1.010854       -27.5067
  25   2.0000      -0.985510       -26.8171
  26   2.0000      -0.912839       -24.8396
  27   2.0000      -0.907933       -24.7061
  28   2.0000      -0.874795       -23.8044
  29   2.0000      -0.850976       -23.1562
  30   2.0000      -0.847164       -23.0525
  31   2.0000      -0.817900       -22.2562
  32   2.0000      -0.780184       -21.2299
  33   2.0000      -0.767327       -20.8800
  34   2.0000      -0.708276       -19.2732
  35   2.0000      -0.703108       -19.1325
  36   2.0000      -0.689818       -18.7709
  37   2.0000      -0.657384       -17.8883
  38   2.0000      -0.643996       -17.5240
  39   2.0000      -0.623803       -16.9745
  40   2.0000      -0.600164       -16.3313
  41   2.0000      -0.575044       -15.6477
  42   2.0000      -0.568524       -15.4703
  43   2.0000      -0.561074       -15.2676
  44   2.0000      -0.530745       -14.4423
  45   2.0000      -0.524921       -14.2838
  46   2.0000      -0.516316       -14.0497
  47   2.0000      -0.512591       -13.9483
  48   2.0000      -0.506535       -13.7835
  49   2.0000      -0.501999       -13.6601
  50   2.0000      -0.493477       -13.4282
  51   2.0000      -0.475928       -12.9507
  52   2.0000      -0.468896       -12.7593
  53   2.0000      -0.466727       -12.7003
  54   2.0000      -0.459892       -12.5143
  55   2.0000      -0.450117       -12.2483
  56   2.0000      -0.446684       -12.1549
  57   2.0000      -0.432629       -11.7724
  58   2.0000      -0.427612       -11.6359
  59   2.0000      -0.423275       -11.5179
  60   2.0000      -0.418271       -11.3817
  61   2.0000      -0.414633       -11.2827
  62   2.0000      -0.406655       -11.0656
  63   2.0000      -0.344147        -9.3647
  64   2.0000      -0.325956        -8.8697
  65   2.0000      -0.322439        -8.7740
  66   2.0000      -0.301111        -8.1936
  67   0.0000       0.032076         0.8728
  68   0.0000       0.064791         1.7631
  69   0.0000       0.108153         2.9430
  70   0.0000       0.126736         3.4486
  71   0.0000       0.129797         3.5319

MULLIKEN ATOMIC CHARGES
-----------------------
   0 S :    0.128830
   1 C :   -0.130188
   2 C :   -0.089052
   3 C :    0.091487
   4 C :   -0.185270
   5 H :    0.006259
   6 C :    0.030739
   7 H :    0.011078
   8 H :    0.046834
   9 C :   -0.102277
  10 H :    0.035277
  11 H :    0.008038
  12 C :   -0.048838
  13 H :    0.036200
  14 H :    0.031410
  15 H :    0.048648
  16 S :    0.084243
  17 C :   -0.108119
  18 C :   -0.029982
  19 C :    0.003422
  20 C :   -0.170361
  21 H :    0.005807
  22 C :    0.133934
  23 H :    0.017848
  24 H :   -0.003689
  25 C :   -0.126305
  26 H :    0.035788
  27 H :    0.030028
  28 C :   -0.014253
  29 H :    0.020443
  30 H :    0.018546
  31 H :    0.032034
  32 H :    0.070673
  33 H :    0.080771
Sum of atomic charges:   -0.0000000

LOEWDIN ATOMIC CHARGES
----------------------
   0 S :    0.408556
   1 C :   -0.212783
   2 C :   -0.063103
   3 C :   -0.041601
   4 C :   -0.187577
   5 H :    0.027226
   6 C :   -0.041779
   7 H :    0.032723
   8 H :    0.034554
   9 C :   -0.043291
  10 H :    0.028208
  11 H :    0.007537
  12 C :   -0.067209
  13 H :    0.029002
  14 H :    0.024386
  15 H :    0.028788
  16 S :    0.385333
  17 C :   -0.179514
  18 C :   -0.073927
  19 C :   -0.055901
  20 C :   -0.198425
  21 H :    0.028149
  22 C :   -0.032002
  23 H :    0.034106
  24 H :    0.025545
  25 C :   -0.039682
  26 H :    0.024164
  27 H :    0.022318
  28 C :   -0.056884
  29 H :    0.017945
  30 H :    0.023477
  31 H :    0.023429
  32 H :    0.040609
  33 H :    0.047623

  Mayer bond orders larger than 0.100000
B(  0-S ,  1-C ) :   1.1313 B(  0-S ,  4-C ) :   1.1512 B(  1-C ,  2-C ) :   1.6268
B(  1-C , 32-H ) :   0.9566 B(  2-C ,  3-C ) :   1.2021 B(  2-C ,  6-C ) :   1.0478
B(  3-C ,  4-C ) :   1.5799 B(  3-C ,  5-H ) :   1.0013 B(  4-C , 20-C ) :   1.0346
B(  6-C ,  7-H ) :   0.9392 B(  6-C ,  8-H ) :   0.9486 B(  6-C ,  9-C ) :   1.0351
B(  9-C , 10-H ) :   0.9587 B(  9-C , 11-H ) :   0.9581 B(  9-C , 12-C ) :   1.0732
B( 12-C , 13-H ) :   0.9739 B( 12-C , 14-H ) :   0.9748 B( 12-C , 15-H ) :   0.9753
B( 16-S , 17-C ) :   1.1406 B( 16-S , 20-C ) :   1.1241 B( 17-C , 18-C ) :   1.6435
B( 17-C , 33-H ) :   0.9549 B( 18-C , 19-C ) :   1.1985 B( 18-C , 21-H ) :   0.9988
B( 19-C , 20-C ) :   1.6288 B( 19-C , 22-C ) :   1.0727 B( 22-C , 23-H ) :   0.9116
B( 22-C , 24-H ) :   0.9160 B( 22-C , 25-C ) :   1.0534 B( 25-C , 26-H ) :   0.9683
B( 25-C , 27-H ) :   0.9591 B( 25-C , 28-C ) :   1.0667 B( 28-C , 29-H ) :   0.9826
B( 28-C , 30-H ) :   0.9770 B( 28-C , 31-H ) :   0.9771

Dispersion correction           -0.013368364
FINAL SINGLE POINT ENERGY     -1339.856116314317

DIPOLE MOMENT
-------------
                                X             Y             Z
Electronic contribution:    -13.57309     -22.61085       8.65088
Nuclear contribution   :     13.64874      23.09018      -8.84170
                        -----------------------------------------
Total Dipole Moment    :      0.07565       0.47933      -0.19082
                        -----------------------------------------
Magnitude (a.u.)       :      0.52143
Magnitude (Debye)      :      1.32537

Rotational constants in cm-1:     0.018096     0.007952     0.006066
Rotational constants in MHz :   542.490368   238.392158   181.851989

                             ****ORCA TERMINATED NORMALLY****
TOTAL RUN TIME: 0 days 0 hours 0 minutes 30 seconds 770 msec
