                         Program Version 4.2.1 -  RELEASE  -
|  1> ! wB97X-D3 SP def2-SVP
|  2> %pal
|  3> nprocs 16
|  4> end
|  5>
|  6> * xyz 0 1
|  7> S 	 -34.7337 	 39.587 	 96.4886
|  8> C 	 -34.368 	 37.8161 	 96.556
|  9> C 	 -34.9749 	 37.232 	 97.6694
| 10> C 	 -35.8616 	 38.1299 	 98.3099
| 11> C 	 -35.8246 	 39.4151 	 97.8318
| 12> H 	 -36.6121 	 37.7635 	 98.9392
| 13> C 	 -34.9006 	 35.7424 	 97.909
| 14> H 	 -34.0289 	 35.4006 	 97.3034
| 15> H 	 -35.7969 	 35.146 	 97.5806
| 16> C 	 -34.7522 	 35.3319 	 99.4249
| 17> H 	 -34.1075 	 36.0271 	 99.9149
| 18> H 	 -35.7383 	 35.4601 	 99.8801
| 19> C 	 -34.3187 	 33.9406 	 99.5225
| 20> H 	 -34.2658 	 33.6783 	 100.559
| 21> H 	 -35.0899 	 33.224 	 99.1212
| 22> H 	 -33.4349 	 33.8174 	 98.987
| 23> S 	 -37.8777 	 41.233 	 97.5341
| 24> C 	 -38.2057 	 42.3679 	 98.9115
| 25> C 	 -37.3447 	 42.15 	 99.9878
| 26> C 	 -36.485 	 41.0585 	 99.7661
| 27> C 	 -36.5331 	 40.5313 	 98.4794
| 28> H 	 -37.386 	 42.8423 	 100.753
| 29> C 	 -35.2934 	 40.7684 	 100.73
| 30> H 	 -34.4349 	 41.329 	 100.403
| 31> H 	 -35.032 	 39.7358 	 100.749
| 32> C 	 -35.7261 	 41.2589 	 102.199
| 33> H 	 -36.5389 	 40.5731 	 102.433
| 34> H 	 -35.9147 	 42.2924 	 102.277
| 35> C 	 -34.6493 	 40.978 	 103.319
| 36> H 	 -34.4365 	 39.9224 	 103.508
| 37> H 	 -34.9829 	 41.3131 	 104.317
| 38> H 	 -33.7024 	 41.42 	 103.068
| 39> H 	 -33.6167 	 37.2628 	 95.9386
| 40> H 	 -39.0322 	 43.0442 	 98.9052
| 41> *
| 42>
| 43>                          ****END OF INPUT****

CARTESIAN COORDINATES (ANGSTROEM)
---------------------------------
  S    -34.733700   39.587000   96.488600
  C    -34.368000   37.816100   96.556000
  C    -34.974900   37.232000   97.669400
  C    -35.861600   38.129900   98.309900
  C    -35.824600   39.415100   97.831800
  H    -36.612100   37.763500   98.939200
  C    -34.900600   35.742400   97.909000
  H    -34.028900   35.400600   97.303400
  H    -35.796900   35.146000   97.580600
  C    -34.752200   35.331900   99.424900
  H    -34.107500   36.027100   99.914900
  H    -35.738300   35.460100   99.880100
  C    -34.318700   33.940600   99.522500
  H    -34.265800   33.678300  100.559000
  H    -35.089900   33.224000   99.121200
  H    -33.434900   33.817400   98.987000
  S    -37.877700   41.233000   97.534100
  C    -38.205700   42.367900   98.911500
  C    -37.344700   42.150000   99.987800
  C    -36.485000   41.058500   99.766100
  C    -36.533100   40.531300   98.479400
  H    -37.386000   42.842300  100.753000
  C    -35.293400   40.768400  100.730000
  H    -34.434900   41.329000  100.403000
  H    -35.032000   39.735800  100.749000
  C    -35.726100   41.258900  102.199000
  H    -36.538900   40.573100  102.433000
  H    -35.914700   42.292400  102.277000
  C    -34.649300   40.978000  103.319000
  H    -34.436500   39.922400  103.508000
  H    -34.982900   41.313100  104.317000
  H    -33.702400   41.420000  103.068000
  H    -33.616700   37.262800   95.938600
  H    -39.032200   43.044200   98.905200

 Total Charge           Charge          ....    0
 Multiplicity           Mult            ....    1
 Number of Electrons    NEL             ....  134
 Basis Dimension        Dim             ....  322

ORBITAL ENERGIES
----------------

  NO   OCC          E(Eh)            E(eV)
   0   2.0000     -88.969708     -2420.9888
   1   2.0000     -88.964359     -2420.8433
   2   2.0000     -10.328929      -281.0645
   3   2.0000     -10.328720      -281.0587
   4   2.0000     -10.322029      -280.8767
   5   2.0000     -10.321686      -280.8674
   6   2.0000     -10.306198      -280.4459
   7   2.0000     -10.299440      -280.2620
   8   2.0000     -10.298576      -280.2385
   9   2.0000     -10.292719      -280.0791
  10   2.0000     -10.291932      -280.0577
  11   2.0000     -10.289777      -279.9991
  12   2.0000     -10.286590      -279.9124
  13   2.0000     -10.281876      -279.7841
  14   2.0000     -10.278011      -279.6789
  15   2.0000     -10.272067      -279.5172
  16   2.0000      -8.083502      -219.9633
  17   2.0000      -8.077734      -219.8063
  18   2.0000      -6.042021      -164.4117
  19   2.0000      -6.038158      -164.3066
  20   2.0000      -6.036148      -164.2519
  21   2.0000      -6.034275      -164.2010
  22   2.0000      -6.032488      -164.1523
  23   2.0000      -6.028620      -164.0471
  24   2.0000      -1.000248       -27.2181
  25   2.0000      -0.976562       -26.5736
  26   2.0000      -0.916248       -24.9324
  27   2.0000      -0.895219       -24.3602
  28   2.0000      -0.871123       -23.7045
  29   2.0000      -0.849992       -23.1295
  30   2.0000      -0.842316       -22.9206
  31   2.0000      -0.814623       -22.1670
  32   2.0000      -0.778591       -21.1865
  33   2.0000      -0.766775       -20.8650
  34   2.0000      -0.709358       -19.3026
  35   2.0000      -0.703218       -19.1355
  36   2.0000      -0.689769       -18.7696
  37   2.0000      -0.656524       -17.8649
  38   2.0000      -0.637620       -17.3505
  39   2.0000      -0.623369       -16.9627
  40   2.0000      -0.592425       -16.1207
  41   2.0000      -0.579137       -15.7591
  42   2.0000      -0.572708       -15.5842
  43   2.0000      -0.567825       -15.4513
  44   2.0000      -0.534598       -14.5471
  45   2.0000      -0.522034       -14.2053
  46   2.0000      -0.511519       -13.9191
  47   2.0000      -0.503595       -13.7035
  48   2.0000      -0.501132       -13.6365
  49   2.0000      -0.494264       -13.4496
  50   2.0000      -0.488541       -13.2939
  51   2.0000      -0.481638       -13.1060
  52   2.0000      -0.471381       -12.8269
  53   2.0000      -0.466574       -12.6961
  54   2.0000      -0.456140       -12.4122
  55   2.0000      -0.450470       -12.2579
  56   2.0000      -0.446866       -12.1598
  57   2.0000      -0.436411       -11.8753
  58   2.0000      -0.435613       -11.8536
  59   2.0000      -0.423811       -11.5325
  60   2.0000      -0.419310       -11.4100
  61   2.0000      -0.414429       -11.2772
  62   2.0000      -0.409468       -11.1422
  63   2.0000      -0.338915        -9.2224
  64   2.0000      -0.332469        -9.0469
  65   2.0000      -0.327226        -8.9043
  66   2.0000      -0.297506        -8.0955
  67   0.0000       0.029979         0.8158
  68   0.0000       0.058183         1.5832
  69   0.0000       0.110205         2.9988
  70   0.0000       0.118369         3.2210
  71   0.0000       0.120375         3.2756

MULLIKEN ATOMIC CHARGES
-----------------------
   0 S :    0.113933
   1 C :   -0.140299
   2 C :   -0.070173
   3 C :    0.054971
   4 C :   -0.144614
   5 H :    0.000694
   6 C :    0.000579
   7 H :    0.019476
   8 H :    0.051543
   9 C :   -0.086946
  10 H :    0.025104
  11 H :    0.027257
  12 C :    0.002649
  13 H :    0.027875
  14 H :    0.026157
  15 H :    0.020701
  16 S :    0.086324
  17 C :   -0.088732
  18 C :   -0.016158
  19 C :   -0.009620
  20 C :   -0.163204
  21 H :   -0.001676
  22 C :    0.083294
  23 H :    0.041818
  24 H :    0.022291
  25 C :   -0.121982
  26 H :    0.042494
  27 H :    0.043684
  28 C :   -0.042133
  29 H :    0.022025
  30 H :    0.031434
  31 H :    0.025695
  32 H :    0.064769
  33 H :    0.050773
Sum of atomic charges:   -0.0000000

LOEWDIN ATOMIC CHARGES
----------------------
   0 S :    0.393388
   1 C :   -0.188924
   2 C :   -0.066169
   3 C :   -0.058050
   4 C :   -0.200330
   5 H :    0.024891
   6 C :   -0.034696
   7 H :    0.028529
   8 H :    0.038560
   9 C :   -0.041264
  10 H :    0.018611
  11 H :    0.023297
  12 C :   -0.057550
  13 H :    0.025840
  14 H :    0.031983
  15 H :    0.017074
  16 S :    0.366077
  17 C :   -0.151765
  18 C :   -0.062109
  19 C :   -0.054215
  20 C :   -0.185254
  21 H :    0.022575
  22 C :   -0.014965
  23 H :    0.030243
  24 H :    0.025055
  25 C :   -0.034540
  26 H :    0.029110
  27 H :    0.017665
  28 C :   -0.069856
  29 H :    0.022181
  30 H :    0.027141
  31 H :    0.018864
  32 H :    0.036988
  33 H :    0.021617

  Mayer bond orders larger than 0.100000
B(  0-S ,  1-C ) :   1.1239 B(  0-S ,  4-C ) :   1.1538 B(  1-C ,  2-C ) :   1.6155
B(  1-C , 32-H ) :   0.9588 B(  2-C ,  3-C ) :   1.2383 B(  2-C ,  6-C ) :   1.0343
B(  3-C ,  4-C ) :   1.5803 B(  3-C ,  5-H ) :   1.0019 B(  4-C , 20-C ) :   1.0062
B(  6-C ,  7-H ) :   0.9469 B(  6-C ,  8-H ) :   0.9411 B(  6-C ,  9-C ) :   1.0482
B(  9-C , 10-H ) :   0.9602 B(  9-C , 11-H ) :   0.9460 B(  9-C , 12-C ) :   1.1055
B( 12-C , 13-H ) :   0.9678 B( 12-C , 14-H ) :   0.9657 B( 12-C , 15-H ) :   0.9745
B( 16-S , 17-C ) :   1.1506 B( 16-S , 20-C ) :   1.1370 B( 17-C , 18-C ) :   1.6124
B( 17-C , 20-C ) :   0.1113 B( 17-C , 33-H ) :   0.9681 B( 18-C , 19-C ) :   1.2218
B( 18-C , 21-H ) :   1.0020 B( 19-C , 20-C ) :   1.6187 B( 19-C , 22-C ) :   1.0297
B( 22-C , 23-H ) :   0.9425 B( 22-C , 24-H ) :   0.9381 B( 22-C , 25-C ) :   1.0639
B( 25-C , 26-H ) :   0.9653 B( 25-C , 27-H ) :   0.9525 B( 25-C , 28-C ) :   1.0804
B( 28-C , 29-H ) :   0.9761 B( 28-C , 30-H ) :   0.9753 B( 28-C , 31-H ) :   0.9760

Dispersion correction           -0.013483468
FINAL SINGLE POINT ENERGY     -1339.858782531234

DIPOLE MOMENT
-------------
                                X             Y             Z
Electronic contribution:     -9.43200      16.63199     -24.05891
Nuclear contribution   :      9.54527     -16.96532      24.66250
                        -----------------------------------------
Total Dipole Moment    :      0.11327      -0.33333       0.60358
                        -----------------------------------------
Magnitude (a.u.)       :      0.69875
Magnitude (Debye)      :      1.77609

Rotational constants in cm-1:     0.015777     0.008626     0.006368
Rotational constants in MHz :   472.991933   258.610806   190.903893

                             ****ORCA TERMINATED NORMALLY****
TOTAL RUN TIME: 0 days 0 hours 0 minutes 28 seconds 853 msec
