                         Program Version 4.2.1 -  RELEASE  -
|  1> ! wB97X-D3 SP def2-SVP
|  2> %pal
|  3> nprocs 16
|  4> end
|  5>
|  6> * xyz 0 1
|  7> S 	 -40.259 	 -1.9761 	 96.7283
|  8> C 	 -39.9163 	 -3.40106 	 95.7409
|  9> C 	 -39.8653 	 -4.5762 	 96.4648
| 10> C 	 -40.1715 	 -4.27052 	 97.8507
| 11> C 	 -40.2452 	 -2.90975 	 98.167
| 12> H 	 -40.3891 	 -4.85623 	 98.6372
| 13> C 	 -39.7768 	 -5.91871 	 95.84
| 14> H 	 -39.5321 	 -6.63941 	 96.6409
| 15> H 	 -38.8734 	 -5.86003 	 95.2136
| 16> C 	 -40.9761 	 -6.4331 	 95.0513
| 17> H 	 -41.9093 	 -6.30216 	 95.6294
| 18> H 	 -41.0917 	 -5.79664 	 94.1104
| 19> C 	 -40.7088 	 -7.89239 	 94.6857
| 20> H 	 -39.7157 	 -8.17767 	 94.3571
| 21> H 	 -40.9741 	 -8.48202 	 95.5192
| 22> H 	 -41.3872 	 -8.10806 	 93.8567
| 23> S 	 -41.767 	 -1.04354 	 99.6341
| 24> C 	 -41.8154 	 -1.17414 	 101.369
| 25> C 	 -40.849 	 -2.05149 	 101.814
| 26> C 	 -40.1524 	 -2.71579 	 100.823
| 27> C 	 -40.5754 	 -2.39233 	 99.5185
| 28> H 	 -40.6727 	 -2.17609 	 102.858
| 29> C 	 -39.1568 	 -3.8174 	 101.14
| 30> H 	 -38.467 	 -3.28322 	 101.806
| 31> H 	 -38.5701 	 -3.93537 	 100.275
| 32> C 	 -39.7339 	 -5.121 	 101.688
| 33> H 	 -40.1917 	 -5.64167 	 100.908
| 34> H 	 -40.5585 	 -4.96021 	 102.401
| 35> C 	 -38.726 	 -5.99191 	 102.399
| 36> H 	 -39.1851 	 -6.74149 	 103.033
| 37> H 	 -38.0961 	 -5.4315 	 103.045
| 38> H 	 -38.0995 	 -6.55191 	 101.702
| 39> H 	 -39.8592 	 -3.46812 	 94.6675
| 40> H 	 -42.3147 	 -0.483807 	 102.092
| 41> *
| 42>
| 43>                          ****END OF INPUT****

CARTESIAN COORDINATES (ANGSTROEM)
---------------------------------
  S    -40.259000   -1.976100   96.728300
  C    -39.916300   -3.401060   95.740900
  C    -39.865300   -4.576200   96.464800
  C    -40.171500   -4.270520   97.850700
  C    -40.245200   -2.909750   98.167000
  H    -40.389100   -4.856230   98.637200
  C    -39.776800   -5.918710   95.840000
  H    -39.532100   -6.639410   96.640900
  H    -38.873400   -5.860030   95.213600
  C    -40.976100   -6.433100   95.051300
  H    -41.909300   -6.302160   95.629400
  H    -41.091700   -5.796640   94.110400
  C    -40.708800   -7.892390   94.685700
  H    -39.715700   -8.177670   94.357100
  H    -40.974100   -8.482020   95.519200
  H    -41.387200   -8.108060   93.856700
  S    -41.767000   -1.043540   99.634100
  C    -41.815400   -1.174140  101.369000
  C    -40.849000   -2.051490  101.814000
  C    -40.152400   -2.715790  100.823000
  C    -40.575400   -2.392330   99.518500
  H    -40.672700   -2.176090  102.858000
  C    -39.156800   -3.817400  101.140000
  H    -38.467000   -3.283220  101.806000
  H    -38.570100   -3.935370  100.275000
  C    -39.733900   -5.121000  101.688000
  H    -40.191700   -5.641670  100.908000
  H    -40.558500   -4.960210  102.401000
  C    -38.726000   -5.991910  102.399000
  H    -39.185100   -6.741490  103.033000
  H    -38.096100   -5.431500  103.045000
  H    -38.099500   -6.551910  101.702000
  H    -39.859200   -3.468120   94.667500
  H    -42.314700   -0.483807  102.092000

 Total Charge           Charge          ....    0
 Multiplicity           Mult            ....    1
 Number of Electrons    NEL             ....  134
 Basis Dimension        Dim             ....  322

ORBITAL ENERGIES
----------------

  NO   OCC          E(Eh)            E(eV)
   0   2.0000     -88.968676     -2420.9608
   1   2.0000     -88.965197     -2420.8661
   2   2.0000     -10.333906      -281.1999
   3   2.0000     -10.329654      -281.0842
   4   2.0000     -10.319317      -280.8029
   5   2.0000     -10.312477      -280.6168
   6   2.0000     -10.301172      -280.3091
   7   2.0000     -10.300484      -280.2904
   8   2.0000     -10.295973      -280.1677
   9   2.0000     -10.292786      -280.0810
  10   2.0000     -10.287630      -279.9407
  11   2.0000     -10.286327      -279.9052
  12   2.0000     -10.286268      -279.9036
  13   2.0000     -10.283682      -279.8332
  14   2.0000     -10.276579      -279.6399
  15   2.0000     -10.273511      -279.5564
  16   2.0000      -8.083384      -219.9601
  17   2.0000      -8.079240      -219.8473
  18   2.0000      -6.041967      -164.4103
  19   2.0000      -6.037954      -164.3011
  20   2.0000      -6.037743      -164.2953
  21   2.0000      -6.034020      -164.1940
  22   2.0000      -6.033831      -164.1889
  23   2.0000      -6.030073      -164.0866
  24   2.0000      -1.004332       -27.3293
  25   2.0000      -0.984262       -26.7831
  26   2.0000      -0.918353       -24.9897
  27   2.0000      -0.912585       -24.8327
  28   2.0000      -0.868994       -23.6465
  29   2.0000      -0.856891       -23.3172
  30   2.0000      -0.847796       -23.0697
  31   2.0000      -0.815036       -22.1783
  32   2.0000      -0.784784       -21.3551
  33   2.0000      -0.772665       -21.0253
  34   2.0000      -0.711042       -19.3484
  35   2.0000      -0.704698       -19.1758
  36   2.0000      -0.697553       -18.9814
  37   2.0000      -0.662369       -18.0240
  38   2.0000      -0.644290       -17.5320
  39   2.0000      -0.615181       -16.7399
  40   2.0000      -0.592475       -16.1221
  41   2.0000      -0.575791       -15.6681
  42   2.0000      -0.566688       -15.4204
  43   2.0000      -0.560786       -15.2598
  44   2.0000      -0.530367       -14.4320
  45   2.0000      -0.527418       -14.3518
  46   2.0000      -0.519333       -14.1318
  47   2.0000      -0.512987       -13.9591
  48   2.0000      -0.506265       -13.7762
  49   2.0000      -0.501592       -13.6490
  50   2.0000      -0.499151       -13.5826
  51   2.0000      -0.476719       -12.9722
  52   2.0000      -0.471407       -12.8276
  53   2.0000      -0.464245       -12.6327
  54   2.0000      -0.460546       -12.5321
  55   2.0000      -0.450634       -12.2624
  56   2.0000      -0.448895       -12.2150
  57   2.0000      -0.443359       -12.0644
  58   2.0000      -0.439644       -11.9633
  59   2.0000      -0.425399       -11.5757
  60   2.0000      -0.420387       -11.4393
  61   2.0000      -0.419186       -11.4066
  62   2.0000      -0.411075       -11.1859
  63   2.0000      -0.348824        -9.4920
  64   2.0000      -0.333655        -9.0792
  65   2.0000      -0.328626        -8.9424
  66   2.0000      -0.285710        -7.7746
  67   0.0000       0.023824         0.6483
  68   0.0000       0.074387         2.0242
  69   0.0000       0.105919         2.8822
  70   0.0000       0.123973         3.3735
  71   0.0000       0.135331         3.6825

MULLIKEN ATOMIC CHARGES
-----------------------
   0 S :    0.115487
   1 C :   -0.114384
   2 C :   -0.055374
   3 C :    0.055081
   4 C :   -0.134019
   5 H :   -0.061061
   6 C :    0.037199
   7 H :    0.020972
   8 H :    0.036073
   9 C :   -0.087411
  10 H :    0.044265
  11 H :    0.033619
  12 C :   -0.020494
  13 H :    0.031195
  14 H :    0.028256
  15 H :    0.032026
  16 S :    0.092936
  17 C :   -0.094657
  18 C :   -0.042922
  19 C :   -0.047673
  20 C :   -0.161888
  21 H :    0.006724
  22 C :    0.084339
  23 H :    0.020016
  24 H :    0.011178
  25 C :   -0.025692
  26 H :    0.011515
  27 H :    0.025536
  28 C :   -0.023536
  29 H :    0.025782
  30 H :    0.018339
  31 H :    0.027623
  32 H :    0.037464
  33 H :    0.073485
Sum of atomic charges:    0.0000000

LOEWDIN ATOMIC CHARGES
----------------------
   0 S :    0.413671
   1 C :   -0.190059
   2 C :   -0.060698
   3 C :   -0.051239
   4 C :   -0.204530
   5 H :    0.005501
   6 C :   -0.043045
   7 H :    0.031468
   8 H :    0.037290
   9 C :   -0.038770
  10 H :    0.030970
  11 H :    0.026678
  12 C :   -0.060912
  13 H :    0.025367
  14 H :    0.021656
  15 H :    0.029670
  16 S :    0.386026
  17 C :   -0.193575
  18 C :   -0.075239
  19 C :   -0.057109
  20 C :   -0.179183
  21 H :    0.028063
  22 C :   -0.028405
  23 H :    0.034065
  24 H :    0.023798
  25 C :   -0.035270
  26 H :    0.016174
  27 H :    0.028483
  28 C :   -0.059254
  29 H :    0.026358
  30 H :    0.019265
  31 H :    0.025119
  32 H :    0.025464
  33 H :    0.042204

  Mayer bond orders larger than 0.100000
B(  0-S ,  1-C ) :   1.1374 B(  0-S ,  4-C ) :   1.1492 B(  1-C ,  2-C ) :   1.6083
B(  1-C , 32-H ) :   0.9683 B(  2-C ,  3-C ) :   1.2188 B(  2-C ,  6-C ) :   1.0298
B(  3-C ,  4-C ) :   1.5572 B(  3-C ,  5-H ) :   1.0145 B(  4-C , 20-C ) :   1.0536
B(  6-C ,  7-H ) :   0.9418 B(  6-C ,  8-H ) :   0.9288 B(  6-C ,  9-C ) :   1.0654
B(  9-C , 10-H ) :   0.9567 B(  9-C , 11-H ) :   0.9542 B(  9-C , 12-C ) :   1.0717
B( 12-C , 13-H ) :   0.9753 B( 12-C , 14-H ) :   0.9754 B( 12-C , 15-H ) :   0.9736
B( 16-S , 17-C ) :   1.1629 B( 16-S , 20-C ) :   1.1319 B( 17-C , 18-C ) :   1.5856
B( 17-C , 20-C ) :   0.1073 B( 17-C , 33-H ) :   0.9579 B( 18-C , 19-C ) :   1.2813
B( 18-C , 21-H ) :   0.9927 B( 19-C , 20-C ) :   1.5603 B( 19-C , 22-C ) :   1.0432
B( 22-C , 23-H ) :   0.9304 B( 22-C , 24-H ) :   0.9245 B( 22-C , 25-C ) :   1.0543
B( 25-C , 26-H ) :   0.9480 B( 25-C , 27-H ) :   0.9574 B( 25-C , 28-C ) :   1.0867
B( 28-C , 29-H ) :   0.9733 B( 28-C , 30-H ) :   0.9764 B( 28-C , 31-H ) :   0.9750

Dispersion correction           -0.013711036
FINAL SINGLE POINT ENERGY     -1339.871325357090

DIPOLE MOMENT
-------------
                                X             Y             Z
Electronic contribution:     -6.58935      29.65763      -1.60912
Nuclear contribution   :      6.67635     -30.39295       1.79101
                        -----------------------------------------
Total Dipole Moment    :      0.08700      -0.73532       0.18189
                        -----------------------------------------
Magnitude (a.u.)       :      0.76246
Magnitude (Debye)      :      1.93801

Rotational constants in cm-1:     0.017328     0.008386     0.006156
Rotational constants in MHz :   519.491765   251.410465   184.542096

                             ****ORCA TERMINATED NORMALLY****
TOTAL RUN TIME: 0 days 0 hours 0 minutes 29 seconds 463 msec
