                         Program Version 4.2.1 -  RELEASE  -
|  1> ! wB97X-D3 SP def2-SVP
|  2> %pal
|  3> nprocs 16
|  4> end
|  5>
|  6> * xyz 0 1
|  7> S 	 32.1174 	 29.6313 	 55.8315
|  8> C 	 33.4827 	 28.7795 	 56.5267
|  9> C 	 34.4534 	 29.595 	 56.9326
| 10> C 	 34.0825 	 30.9753 	 56.6122
| 11> C 	 32.8378 	 31.1814 	 56.0545
| 12> H 	 34.7009 	 31.8158 	 56.8408
| 13> C 	 35.6727 	 29.2365 	 57.7155
| 14> H 	 36.4596 	 29.7827 	 57.2192
| 15> H 	 35.8947 	 28.1047 	 57.5649
| 16> C 	 35.5706 	 29.6354 	 59.1634
| 17> H 	 35.296 	 30.7262 	 59.1621
| 18> H 	 34.6814 	 29.2026 	 59.5495
| 19> C 	 36.8457 	 29.434 	 59.9908
| 20> H 	 36.725 	 29.807 	 60.9411
| 21> H 	 37.1494 	 28.3954 	 59.8949
| 22> H 	 37.6597 	 29.9276 	 59.5155
| 23> S 	 31.4984 	 32.7612 	 54.2722
| 24> C 	 31.0693 	 34.3405 	 54.7053
| 25> C 	 31.736 	 34.7022 	 55.8395
| 26> C 	 32.3721 	 33.6856 	 56.5582
| 27> C 	 32.1907 	 32.4546 	 55.8546
| 28> H 	 31.6333 	 35.7582 	 56.1558
| 29> C 	 33.1362 	 33.9975 	 57.9089
| 30> H 	 33.5027 	 33.1382 	 58.3697
| 31> H 	 32.3866 	 34.3467 	 58.687
| 32> C 	 34.2139 	 35.0433 	 57.7992
| 33> H 	 34.661 	 35.1725 	 58.8181
| 34> H 	 33.5799 	 35.9156 	 57.4849
| 35> C 	 35.2835 	 34.8227 	 56.7826
| 36> H 	 36.0268 	 35.6119 	 56.9112
| 37> H 	 34.9997 	 34.7687 	 55.7667
| 38> H 	 35.748 	 33.881 	 56.8928
| 39> H 	 33.5878 	 27.6669 	 56.5268
| 40> H 	 30.485 	 35.0671 	 54.1851
| 41> *
| 42>
| 43>                          ****END OF INPUT****

CARTESIAN COORDINATES (ANGSTROEM)
---------------------------------
  S     32.117400   29.631300   55.831500
  C     33.482700   28.779500   56.526700
  C     34.453400   29.595000   56.932600
  C     34.082500   30.975300   56.612200
  C     32.837800   31.181400   56.054500
  H     34.700900   31.815800   56.840800
  C     35.672700   29.236500   57.715500
  H     36.459600   29.782700   57.219200
  H     35.894700   28.104700   57.564900
  C     35.570600   29.635400   59.163400
  H     35.296000   30.726200   59.162100
  H     34.681400   29.202600   59.549500
  C     36.845700   29.434000   59.990800
  H     36.725000   29.807000   60.941100
  H     37.149400   28.395400   59.894900
  H     37.659700   29.927600   59.515500
  S     31.498400   32.761200   54.272200
  C     31.069300   34.340500   54.705300
  C     31.736000   34.702200   55.839500
  C     32.372100   33.685600   56.558200
  C     32.190700   32.454600   55.854600
  H     31.633300   35.758200   56.155800
  C     33.136200   33.997500   57.908900
  H     33.502700   33.138200   58.369700
  H     32.386600   34.346700   58.687000
  C     34.213900   35.043300   57.799200
  H     34.661000   35.172500   58.818100
  H     33.579900   35.915600   57.484900
  C     35.283500   34.822700   56.782600
  H     36.026800   35.611900   56.911200
  H     34.999700   34.768700   55.766700
  H     35.748000   33.881000   56.892800
  H     33.587800   27.666900   56.526800
  H     30.485000   35.067100   54.185100

 Total Charge           Charge          ....    0
 Multiplicity           Mult            ....    1
 Number of Electrons    NEL             ....  134
 Basis Dimension        Dim             ....  322

ORBITAL ENERGIES
----------------

  NO   OCC          E(Eh)            E(eV)
   0   2.0000     -88.967679     -2420.9336
   1   2.0000     -88.959935     -2420.7229
   2   2.0000     -10.330790      -281.1151
   3   2.0000     -10.324458      -280.9428
   4   2.0000     -10.311671      -280.5948
   5   2.0000     -10.311225      -280.5827
   6   2.0000     -10.310936      -280.5748
   7   2.0000     -10.296344      -280.1778
   8   2.0000     -10.295672      -280.1595
   9   2.0000     -10.295188      -280.1463
  10   2.0000     -10.291539      -280.0470
  11   2.0000     -10.290292      -280.0131
  12   2.0000     -10.289967      -280.0043
  13   2.0000     -10.285846      -279.8921
  14   2.0000     -10.272704      -279.5345
  15   2.0000     -10.269153      -279.4379
  16   2.0000      -8.083313      -219.9581
  17   2.0000      -8.075453      -219.7443
  18   2.0000      -6.041604      -164.4004
  19   2.0000      -6.037758      -164.2957
  20   2.0000      -6.034174      -164.1982
  21   2.0000      -6.034127      -164.1969
  22   2.0000      -6.029816      -164.0796
  23   2.0000      -6.026012      -163.9761
  24   2.0000      -1.012620       -27.5548
  25   2.0000      -0.991790       -26.9880
  26   2.0000      -0.920059       -25.0361
  27   2.0000      -0.916613       -24.9423
  28   2.0000      -0.875897       -23.8344
  29   2.0000      -0.852962       -23.2103
  30   2.0000      -0.845530       -23.0080
  31   2.0000      -0.813037       -22.1239
  32   2.0000      -0.792824       -21.5738
  33   2.0000      -0.782744       -21.2996
  34   2.0000      -0.712551       -19.3895
  35   2.0000      -0.701515       -19.0892
  36   2.0000      -0.693485       -18.8707
  37   2.0000      -0.653552       -17.7841
  38   2.0000      -0.635881       -17.3032
  39   2.0000      -0.623145       -16.9566
  40   2.0000      -0.603723       -16.4281
  41   2.0000      -0.574243       -15.6259
  42   2.0000      -0.559235       -15.2176
  43   2.0000      -0.553734       -15.0679
  44   2.0000      -0.547320       -14.8933
  45   2.0000      -0.536778       -14.6065
  46   2.0000      -0.523424       -14.2431
  47   2.0000      -0.513248       -13.9662
  48   2.0000      -0.506089       -13.7714
  49   2.0000      -0.500387       -13.6162
  50   2.0000      -0.498649       -13.5689
  51   2.0000      -0.486709       -13.2440
  52   2.0000      -0.472134       -12.8474
  53   2.0000      -0.466038       -12.6815
  54   2.0000      -0.456390       -12.4190
  55   2.0000      -0.449792       -12.2395
  56   2.0000      -0.448137       -12.1944
  57   2.0000      -0.444223       -12.0879
  58   2.0000      -0.439995       -11.9729
  59   2.0000      -0.424600       -11.5539
  60   2.0000      -0.417452       -11.3595
  61   2.0000      -0.413576       -11.2540
  62   2.0000      -0.408309       -11.1107
  63   2.0000      -0.350475        -9.5369
  64   2.0000      -0.333962        -9.0876
  65   2.0000      -0.325371        -8.8538
  66   2.0000      -0.293422        -7.9844
  67   0.0000       0.024395         0.6638
  68   0.0000       0.084460         2.2983
  69   0.0000       0.109869         2.9897
  70   0.0000       0.123817         3.3692
  71   0.0000       0.128121         3.4863

MULLIKEN ATOMIC CHARGES
-----------------------
   0 S :    0.099661
   1 C :   -0.144317
   2 C :   -0.078852
   3 C :    0.015468
   4 C :   -0.116946
   5 H :   -0.037453
   6 C :    0.056642
   7 H :    0.021268
   8 H :    0.031989
   9 C :   -0.091717
  10 H :    0.022309
  11 H :    0.018930
  12 C :    0.044789
  13 H :    0.028475
  14 H :    0.023256
  15 H :    0.010210
  16 S :    0.121824
  17 C :   -0.060623
  18 C :   -0.087060
  19 C :   -0.018451
  20 C :   -0.161693
  21 H :    0.027624
  22 C :    0.083653
  23 H :   -0.003527
  24 H :    0.042727
  25 C :   -0.097065
  26 H :    0.042812
  27 H :    0.030908
  28 C :   -0.010607
  29 H :    0.035069
  30 H :    0.030282
  31 H :    0.017298
  32 H :    0.058822
  33 H :    0.044296
Sum of atomic charges:   -0.0000000

LOEWDIN ATOMIC CHARGES
----------------------
   0 S :    0.402191
   1 C :   -0.196098
   2 C :   -0.069962
   3 C :   -0.059934
   4 C :   -0.209328
   5 H :    0.016178
   6 C :   -0.034334
   7 H :    0.028101
   8 H :    0.036208
   9 C :   -0.040717
  10 H :    0.026987
  11 H :    0.019787
  12 C :   -0.050394
  13 H :    0.018565
  14 H :    0.027844
  15 H :    0.023497
  16 S :    0.437180
  17 C :   -0.200675
  18 C :   -0.081958
  19 C :   -0.047647
  20 C :   -0.199631
  21 H :    0.033350
  22 C :   -0.029334
  23 H :    0.012069
  24 H :    0.042015
  25 C :   -0.044810
  26 H :    0.034043
  27 H :    0.027887
  28 C :   -0.063756
  29 H :    0.032275
  30 H :    0.025463
  31 H :    0.017369
  32 H :    0.037992
  33 H :    0.029578

  Mayer bond orders larger than 0.100000
B(  0-S ,  1-C ) :   1.1256 B(  0-S ,  4-C ) :   1.1365 B(  1-C ,  2-C ) :   1.6567
B(  1-C , 32-H ) :   0.9558 B(  2-C ,  3-C ) :   1.2163 B(  2-C ,  6-C ) :   1.0285
B(  3-C ,  4-C ) :   1.5851 B(  3-C ,  5-H ) :   0.9992 B(  4-C , 20-C ) :   1.0432
B(  6-C ,  7-H ) :   0.9275 B(  6-C ,  8-H ) :   0.9376 B(  6-C ,  9-C ) :   1.0665
B(  9-C , 10-H ) :   0.9506 B(  9-C , 11-H ) :   0.9527 B(  9-C , 12-C ) :   1.0785
B( 12-C , 13-H ) :   0.9726 B( 12-C , 14-H ) :   0.9716 B( 12-C , 15-H ) :   0.9687
B( 16-S , 17-C ) :   1.1663 B( 16-S , 20-C ) :   1.1744 B( 17-C , 18-C ) :   1.5911
B( 17-C , 20-C ) :   0.1090 B( 17-C , 33-H ) :   0.9696 B( 18-C , 19-C ) :   1.2785
B( 18-C , 21-H ) :   0.9802 B( 19-C , 20-C ) :   1.5379 B( 19-C , 22-C ) :   1.0156
B( 22-C , 23-H ) :   0.9353 B( 22-C , 24-H ) :   0.9396 B( 22-C , 25-C ) :   1.0766
B( 25-C , 26-H ) :   0.9521 B( 25-C , 27-H ) :   0.9511 B( 25-C , 28-C ) :   1.0891
B( 28-C , 29-H ) :   0.9686 B( 28-C , 30-H ) :   0.9678 B( 28-C , 31-H ) :   0.9644

Dispersion correction           -0.014967047
FINAL SINGLE POINT ENERGY     -1339.866902421024

DIPOLE MOMENT
-------------
                                X             Y             Z
Electronic contribution:    -22.94309      -5.91525     -20.28533
Nuclear contribution   :     23.50748       6.29266      20.75850
                        -----------------------------------------
Total Dipole Moment    :      0.56439       0.37742       0.47317
                        -----------------------------------------
Magnitude (a.u.)       :      0.82757
Magnitude (Debye)      :      2.10352

Rotational constants in cm-1:     0.018631     0.009644     0.006801
Rotational constants in MHz :   558.545401   289.124147   203.877929

                             ****ORCA TERMINATED NORMALLY****
TOTAL RUN TIME: 0 days 0 hours 0 minutes 36 seconds 774 msec
