                         Program Version 4.2.1 -  RELEASE  -
|  1> ! wB97X-D3 SP def2-SVP
|  2> %pal
|  3> nprocs 16
|  4> end
|  5>
|  6> * xyz 0 1
|  7> S 	 -18.7434 	 -5.82277 	 82.9799
|  8> C 	 -18.1138 	 -7.38235 	 82.6178
|  9> C 	 -18.2769 	 -8.2429 	 83.6937
| 10> C 	 -19.0186 	 -7.63282 	 84.7626
| 11> C 	 -19.3267 	 -6.33698 	 84.5583
| 12> H 	 -19.2873 	 -8.05805 	 85.7366
| 13> C 	 -17.7287 	 -9.67604 	 83.74
| 14> H 	 -16.6731 	 -9.40478 	 84.0213
| 15> H 	 -17.7153 	 -10.1664 	 82.7538
| 16> C 	 -18.3625 	 -10.7478 	 84.7958
| 17> H 	 -17.6087 	 -11.6516 	 84.9626
| 18> H 	 -18.417 	 -10.3438 	 85.7661
| 19> C 	 -19.713 	 -11.2728 	 84.2744
| 20> H 	 -20.4724 	 -10.3894 	 84.1536
| 21> H 	 -19.5226 	 -11.5449 	 83.2576
| 22> H 	 -20.0998 	 -12.0812 	 84.8079
| 23> S 	 -21.6372 	 -5.18151 	 85.5286
| 24> C 	 -21.5376 	 -3.83948 	 86.6651
| 25> C 	 -20.1889 	 -3.55814 	 86.9432
| 26> C 	 -19.2275 	 -4.40939 	 86.3524
| 27> C 	 -19.8559 	 -5.37082 	 85.4699
| 28> H 	 -19.8772 	 -2.68978 	 87.5205
| 29> C 	 -17.715 	 -4.14272 	 86.436
| 30> H 	 -17.545 	 -3.1121 	 86.7096
| 31> H 	 -17.2639 	 -4.25469 	 85.4586
| 32> C 	 -16.8905 	 -4.90188 	 87.3553
| 33> H 	 -16.9094 	 -5.9569 	 87.221
| 34> H 	 -17.2456 	 -4.61158 	 88.3954
| 35> C 	 -15.3334 	 -4.61081 	 87.2219
| 36> H 	 -15.1304 	 -3.51068 	 87.0877
| 37> H 	 -14.929 	 -5.20463 	 86.361
| 38> H 	 -14.7887 	 -4.8307 	 88.1706
| 39> H 	 -17.6485 	 -7.62788 	 81.6348
| 40> H 	 -22.3495 	 -3.31103 	 87.0777
| 41> *
| 42>
| 43>                          ****END OF INPUT****

CARTESIAN COORDINATES (ANGSTROEM)
---------------------------------
  S    -18.743400   -5.822770   82.979900
  C    -18.113800   -7.382350   82.617800
  C    -18.276900   -8.242900   83.693700
  C    -19.018600   -7.632820   84.762600
  C    -19.326700   -6.336980   84.558300
  H    -19.287300   -8.058050   85.736600
  C    -17.728700   -9.676040   83.740000
  H    -16.673100   -9.404780   84.021300
  H    -17.715300  -10.166400   82.753800
  C    -18.362500  -10.747800   84.795800
  H    -17.608700  -11.651600   84.962600
  H    -18.417000  -10.343800   85.766100
  C    -19.713000  -11.272800   84.274400
  H    -20.472400  -10.389400   84.153600
  H    -19.522600  -11.544900   83.257600
  H    -20.099800  -12.081200   84.807900
  S    -21.637200   -5.181510   85.528600
  C    -21.537600   -3.839480   86.665100
  C    -20.188900   -3.558140   86.943200
  C    -19.227500   -4.409390   86.352400
  C    -19.855900   -5.370820   85.469900
  H    -19.877200   -2.689780   87.520500
  C    -17.715000   -4.142720   86.436000
  H    -17.545000   -3.112100   86.709600
  H    -17.263900   -4.254690   85.458600
  C    -16.890500   -4.901880   87.355300
  H    -16.909400   -5.956900   87.221000
  H    -17.245600   -4.611580   88.395400
  C    -15.333400   -4.610810   87.221900
  H    -15.130400   -3.510680   87.087700
  H    -14.929000   -5.204630   86.361000
  H    -14.788700   -4.830700   88.170600
  H    -17.648500   -7.627880   81.634800
  H    -22.349500   -3.311030   87.077700

 Total Charge           Charge          ....    0
 Multiplicity           Mult            ....    1
 Number of Electrons    NEL             ....  134
 Basis Dimension        Dim             ....  322

ORBITAL ENERGIES
----------------

  NO   OCC          E(Eh)            E(eV)
   0   2.0000     -88.969135     -2420.9732
   1   2.0000     -88.962923     -2420.8042
   2   2.0000     -10.332288      -281.1559
   3   2.0000     -10.323204      -280.9087
   4   2.0000     -10.319706      -280.8135
   5   2.0000     -10.316194      -280.7179
   6   2.0000     -10.311531      -280.5910
   7   2.0000     -10.307358      -280.4775
   8   2.0000     -10.306037      -280.4415
   9   2.0000     -10.302478      -280.3447
  10   2.0000     -10.296106      -280.1713
  11   2.0000     -10.295033      -280.1421
  12   2.0000     -10.288708      -279.9700
  13   2.0000     -10.285415      -279.8804
  14   2.0000     -10.283171      -279.8193
  15   2.0000     -10.280086      -279.7354
  16   2.0000      -8.082613      -219.9391
  17   2.0000      -8.078084      -219.8158
  18   2.0000      -6.041043      -164.3851
  19   2.0000      -6.037082      -164.2773
  20   2.0000      -6.036488      -164.2612
  21   2.0000      -6.033754      -164.1868
  22   2.0000      -6.032424      -164.1506
  23   2.0000      -6.029019      -164.0580
  24   2.0000      -1.006113       -27.3777
  25   2.0000      -0.978317       -26.6214
  26   2.0000      -0.913759       -24.8646
  27   2.0000      -0.900012       -24.4906
  28   2.0000      -0.870918       -23.6989
  29   2.0000      -0.846497       -23.0343
  30   2.0000      -0.844748       -22.9868
  31   2.0000      -0.813043       -22.1240
  32   2.0000      -0.780168       -21.2294
  33   2.0000      -0.765618       -20.8335
  34   2.0000      -0.710761       -19.3408
  35   2.0000      -0.694055       -18.8862
  36   2.0000      -0.685353       -18.6494
  37   2.0000      -0.660894       -17.9838
  38   2.0000      -0.644318       -17.5328
  39   2.0000      -0.618997       -16.8438
  40   2.0000      -0.598599       -16.2887
  41   2.0000      -0.574623       -15.6363
  42   2.0000      -0.565567       -15.3898
  43   2.0000      -0.550596       -14.9825
  44   2.0000      -0.525150       -14.2901
  45   2.0000      -0.518128       -14.0990
  46   2.0000      -0.513026       -13.9602
  47   2.0000      -0.510261       -13.8849
  48   2.0000      -0.505177       -13.7466
  49   2.0000      -0.503920       -13.7124
  50   2.0000      -0.485575       -13.2132
  51   2.0000      -0.481021       -13.0892
  52   2.0000      -0.474890       -12.9224
  53   2.0000      -0.462156       -12.5759
  54   2.0000      -0.459211       -12.4958
  55   2.0000      -0.444769       -12.1028
  56   2.0000      -0.441276       -12.0077
  57   2.0000      -0.438048       -11.9199
  58   2.0000      -0.432845       -11.7783
  59   2.0000      -0.425112       -11.5679
  60   2.0000      -0.415105       -11.2956
  61   2.0000      -0.412707       -11.2303
  62   2.0000      -0.409623       -11.1464
  63   2.0000      -0.338396        -9.2082
  64   2.0000      -0.333476        -9.0744
  65   2.0000      -0.313806        -8.5391
  66   2.0000      -0.307980        -8.3806
  67   0.0000       0.037861         1.0302
  68   0.0000       0.049569         1.3488
  69   0.0000       0.112470         3.0605
  70   0.0000       0.123435         3.3588
  71   0.0000       0.132789         3.6134

MULLIKEN ATOMIC CHARGES
-----------------------
   0 S :    0.117668
   1 C :   -0.146246
   2 C :   -0.079740
   3 C :    0.051784
   4 C :   -0.171546
   5 H :    0.019354
   6 C :    0.006621
   7 H :    0.056988
   8 H :    0.039256
   9 C :   -0.097636
  10 H :    0.044396
  11 H :    0.025540
  12 C :   -0.032953
  13 H :    0.050520
  14 H :    0.017377
  15 H :    0.036388
  16 S :    0.115402
  17 C :   -0.076547
  18 C :   -0.049911
  19 C :    0.023736
  20 C :   -0.209030
  21 H :    0.021145
  22 C :    0.088996
  23 H :    0.008193
  24 H :    0.014814
  25 C :   -0.068782
  26 H :    0.026758
  27 H :    0.026863
  28 C :   -0.101979
  29 H :    0.030977
  30 H :    0.053298
  31 H :    0.045342
  32 H :    0.065729
  33 H :    0.047224
Sum of atomic charges:   -0.0000000

LOEWDIN ATOMIC CHARGES
----------------------
   0 S :    0.414866
   1 C :   -0.213671
   2 C :   -0.069360
   3 C :   -0.060054
   4 C :   -0.205798
   5 H :    0.038037
   6 C :   -0.036816
   7 H :    0.044504
   8 H :    0.030472
   9 C :   -0.042722
  10 H :    0.037381
  11 H :    0.010324
  12 C :   -0.065806
  13 H :    0.040710
  14 H :    0.021108
  15 H :    0.017433
  16 S :    0.403970
  17 C :   -0.180413
  18 C :   -0.073750
  19 C :   -0.042604
  20 C :   -0.196937
  21 H :    0.031339
  22 C :   -0.036244
  23 H :    0.029741
  24 H :    0.027366
  25 C :   -0.041594
  26 H :    0.018860
  27 H :    0.026005
  28 C :   -0.074813
  29 H :    0.024602
  30 H :    0.031754
  31 H :    0.031236
  32 H :    0.037974
  33 H :    0.022900

  Mayer bond orders larger than 0.100000
B(  0-S ,  1-C ) :   1.1505 B(  0-S ,  4-C ) :   1.1453 B(  1-C ,  2-C ) :   1.6064
B(  1-C , 32-H ) :   0.9681 B(  2-C ,  3-C ) :   1.2274 B(  2-C ,  6-C ) :   0.9896
B(  3-C ,  4-C ) :   1.6109 B(  3-C ,  5-H ) :   0.9905 B(  4-C , 20-C ) :   1.0283
B(  6-C ,  7-H ) :   0.9382 B(  6-C ,  8-H ) :   0.9550 B(  6-C ,  9-C ) :   1.0643
B(  9-C , 10-H ) :   0.9570 B(  9-C , 11-H ) :   0.9556 B(  9-C , 12-C ) :   1.0639
B( 12-C , 13-H ) :   0.9738 B( 12-C , 14-H ) :   0.9743 B( 12-C , 15-H ) :   0.9764
B( 16-S , 17-C ) :   1.1670 B( 16-S , 20-C ) :   1.1629 B( 17-C , 18-C ) :   1.5608
B( 17-C , 20-C ) :   0.1234 B( 17-C , 33-H ) :   0.9757 B( 18-C , 19-C ) :   1.2999
B( 18-C , 21-H ) :   0.9807 B( 19-C , 20-C ) :   1.5291 B( 19-C , 22-C ) :   1.0303
B( 22-C , 23-H ) :   0.9290 B( 22-C , 24-H ) :   0.9307 B( 22-C , 25-C ) :   1.0815
B( 25-C , 26-H ) :   0.9562 B( 25-C , 27-H ) :   0.9527 B( 25-C , 28-C ) :   1.0682
B( 28-C , 29-H ) :   0.9751 B( 28-C , 30-H ) :   0.9763 B( 28-C , 31-H ) :   0.9761

Dispersion correction           -0.014297028
FINAL SINGLE POINT ENERGY     -1339.863503117229

DIPOLE MOMENT
-------------
                                X             Y             Z
Electronic contribution:    -17.09182      13.46130      -8.74519
Nuclear contribution   :     17.51290     -13.67737       8.97114
                        -----------------------------------------
Total Dipole Moment    :      0.42108      -0.21607       0.22595
                        -----------------------------------------
Magnitude (a.u.)       :      0.52445
Magnitude (Debye)      :      1.33304

Rotational constants in cm-1:     0.016583     0.008799     0.007354
Rotational constants in MHz :   497.142147   263.794226   220.453653

                             ****ORCA TERMINATED NORMALLY****
TOTAL RUN TIME: 0 days 0 hours 0 minutes 31 seconds 362 msec
