                         Program Version 4.2.1 -  RELEASE  -
|  1> ! wB97X-D3 SP def2-SVP
|  2> %pal
|  3> nprocs 16
|  4> end
|  5>
|  6> * xyz 0 1
|  7> S 	 45.9969 	 15.7458 	 81.9483
|  8> C 	 45.6603 	 17.4552 	 82.174
|  9> C 	 46.5176 	 18.0634 	 83.0463
| 10> C 	 47.4374 	 17.0981 	 83.6083
| 11> C 	 47.3722 	 15.7678 	 83.0334
| 12> H 	 48.1459 	 17.3169 	 84.3619
| 13> C 	 46.5311 	 19.5041 	 83.4416
| 14> H 	 46.2448 	 20.1883 	 82.6057
| 15> H 	 47.533 	 19.7789 	 83.795
| 16> C 	 45.6371 	 19.8893 	 84.672
| 17> H 	 46.0711 	 19.3054 	 85.5307
| 18> H 	 45.8176 	 20.9884 	 84.8474
| 19> C 	 44.1495 	 19.5646 	 84.6149
| 20> H 	 43.7014 	 19.6543 	 83.5991
| 21> H 	 44.1633 	 18.5189 	 84.7947
| 22> H 	 43.5893 	 20.103 	 85.3771
| 23> S 	 47.2781 	 13.0656 	 83.6794
| 24> C 	 48.7133 	 12.206 	 83.945
| 25> C 	 49.8404 	 12.9928 	 83.9629
| 26> C 	 49.5128 	 14.3447 	 83.5956
| 27> C 	 48.1102 	 14.5833 	 83.5018
| 28> H 	 50.7494 	 12.4157 	 84.0372
| 29> C 	 50.651 	 15.2856 	 83.2723
| 30> H 	 50.2873 	 16.3305 	 82.9955
| 31> H 	 51.1786 	 14.8142 	 82.4343
| 32> C 	 51.8298 	 15.4194 	 84.29
| 33> H 	 52.6052 	 16.0828 	 83.8879
| 34> H 	 52.2611 	 14.4837 	 84.4988
| 35> C 	 51.4086 	 16.0984 	 85.5563
| 36> H 	 50.716 	 15.3699 	 86.0594
| 37> H 	 50.94 	 17.0488 	 85.2798
| 38> H 	 52.3704 	 16.3227 	 86.0333
| 39> H 	 44.974 	 18.0108 	 81.5267
| 40> H 	 48.8141 	 11.1601 	 84.1872
| 41> *
| 42>
| 43>                          ****END OF INPUT****

CARTESIAN COORDINATES (ANGSTROEM)
---------------------------------
  S     45.996900   15.745800   81.948300
  C     45.660300   17.455200   82.174000
  C     46.517600   18.063400   83.046300
  C     47.437400   17.098100   83.608300
  C     47.372200   15.767800   83.033400
  H     48.145900   17.316900   84.361900
  C     46.531100   19.504100   83.441600
  H     46.244800   20.188300   82.605700
  H     47.533000   19.778900   83.795000
  C     45.637100   19.889300   84.672000
  H     46.071100   19.305400   85.530700
  H     45.817600   20.988400   84.847400
  C     44.149500   19.564600   84.614900
  H     43.701400   19.654300   83.599100
  H     44.163300   18.518900   84.794700
  H     43.589300   20.103000   85.377100
  S     47.278100   13.065600   83.679400
  C     48.713300   12.206000   83.945000
  C     49.840400   12.992800   83.962900
  C     49.512800   14.344700   83.595600
  C     48.110200   14.583300   83.501800
  H     50.749400   12.415700   84.037200
  C     50.651000   15.285600   83.272300
  H     50.287300   16.330500   82.995500
  H     51.178600   14.814200   82.434300
  C     51.829800   15.419400   84.290000
  H     52.605200   16.082800   83.887900
  H     52.261100   14.483700   84.498800
  C     51.408600   16.098400   85.556300
  H     50.716000   15.369900   86.059400
  H     50.940000   17.048800   85.279800
  H     52.370400   16.322700   86.033300
  H     44.974000   18.010800   81.526700
  H     48.814100   11.160100   84.187200

 Total Charge           Charge          ....    0
 Multiplicity           Mult            ....    1
 Number of Electrons    NEL             ....  134
 Basis Dimension        Dim             ....  322

ORBITAL ENERGIES
----------------

  NO   OCC          E(Eh)            E(eV)
   0   2.0000     -88.969682     -2420.9881
   1   2.0000     -88.968668     -2420.9605
   2   2.0000     -10.339882      -281.3625
   3   2.0000     -10.333233      -281.1816
   4   2.0000     -10.315984      -280.7122
   5   2.0000     -10.313661      -280.6490
   6   2.0000     -10.313501      -280.6446
   7   2.0000     -10.302900      -280.3562
   8   2.0000     -10.299125      -280.2534
   9   2.0000     -10.298120      -280.2261
  10   2.0000     -10.294632      -280.1312
  11   2.0000     -10.293428      -280.0984
  12   2.0000     -10.293326      -280.0956
  13   2.0000     -10.279981      -279.7325
  14   2.0000     -10.275478      -279.6100
  15   2.0000     -10.273639      -279.5599
  16   2.0000      -8.084474      -219.9897
  17   2.0000      -8.083951      -219.9755
  18   2.0000      -6.042901      -164.4357
  19   2.0000      -6.042543      -164.4259
  20   2.0000      -6.038725      -164.3221
  21   2.0000      -6.038361      -164.3121
  22   2.0000      -6.035357      -164.2304
  23   2.0000      -6.034810      -164.2155
  24   2.0000      -1.007405       -27.4129
  25   2.0000      -0.985329       -26.8122
  26   2.0000      -0.912633       -24.8340
  27   2.0000      -0.909805       -24.7571
  28   2.0000      -0.869365       -23.6566
  29   2.0000      -0.854684       -23.2571
  30   2.0000      -0.845393       -23.0043
  31   2.0000      -0.812442       -22.1077
  32   2.0000      -0.785330       -21.3699
  33   2.0000      -0.772949       -21.0330
  34   2.0000      -0.707997       -19.2656
  35   2.0000      -0.689036       -18.7496
  36   2.0000      -0.687158       -18.6985
  37   2.0000      -0.653895       -17.7934
  38   2.0000      -0.636331       -17.3154
  39   2.0000      -0.621496       -16.9118
  40   2.0000      -0.596912       -16.2428
  41   2.0000      -0.573798       -15.6138
  42   2.0000      -0.554692       -15.0939
  43   2.0000      -0.548568       -14.9273
  44   2.0000      -0.545696       -14.8491
  45   2.0000      -0.541942       -14.7470
  46   2.0000      -0.521910       -14.2019
  47   2.0000      -0.509032       -13.8515
  48   2.0000      -0.504993       -13.7416
  49   2.0000      -0.498311       -13.5597
  50   2.0000      -0.492974       -13.4145
  51   2.0000      -0.482275       -13.1234
  52   2.0000      -0.474216       -12.9041
  53   2.0000      -0.459639       -12.5074
  54   2.0000      -0.457101       -12.4383
  55   2.0000      -0.446726       -12.1560
  56   2.0000      -0.439753       -11.9663
  57   2.0000      -0.434521       -11.8239
  58   2.0000      -0.432080       -11.7575
  59   2.0000      -0.424404       -11.5486
  60   2.0000      -0.417271       -11.3545
  61   2.0000      -0.414858       -11.2889
  62   2.0000      -0.411614       -11.2006
  63   2.0000      -0.352114        -9.5815
  64   2.0000      -0.330801        -9.0016
  65   2.0000      -0.328992        -8.9523
  66   2.0000      -0.287734        -7.8296
  67   0.0000       0.024681         0.6716
  68   0.0000       0.072236         1.9656
  69   0.0000       0.109742         2.9862
  70   0.0000       0.117019         3.1842
  71   0.0000       0.123247         3.3537

MULLIKEN ATOMIC CHARGES
-----------------------
   0 S :    0.111540
   1 C :   -0.134133
   2 C :   -0.066926
   3 C :    0.026492
   4 C :   -0.145040
   5 H :   -0.004342
   6 C :    0.052697
   7 H :    0.036997
   8 H :    0.027067
   9 C :   -0.124387
  10 H :    0.031945
  11 H :    0.039133
  12 C :   -0.031253
  13 H :    0.028137
  14 H :    0.033762
  15 H :    0.044909
  16 S :    0.121128
  17 C :   -0.095990
  18 C :   -0.044861
  19 C :   -0.039729
  20 C :   -0.139368
  21 H :    0.026405
  22 C :    0.038018
  23 H :    0.034151
  24 H :    0.040565
  25 C :   -0.089011
  26 H :    0.025918
  27 H :    0.017500
  28 C :   -0.046983
  29 H :    0.055252
  30 H :    0.024669
  31 H :    0.035262
  32 H :    0.056351
  33 H :    0.054127
Sum of atomic charges:    0.0000000

LOEWDIN ATOMIC CHARGES
----------------------
   0 S :    0.407547
   1 C :   -0.196702
   2 C :   -0.069714
   3 C :   -0.054868
   4 C :   -0.195810
   5 H :    0.019067
   6 C :   -0.034919
   7 H :    0.034239
   8 H :    0.034137
   9 C :   -0.043431
  10 H :    0.026483
  11 H :    0.024455
  12 C :   -0.070852
  13 H :    0.025648
  14 H :    0.025834
  15 H :    0.030119
  16 S :    0.436749
  17 C :   -0.196814
  18 C :   -0.081611
  19 C :   -0.048529
  20 C :   -0.215228
  21 H :    0.035758
  22 C :   -0.038318
  23 H :    0.033500
  24 H :    0.038381
  25 C :   -0.040585
  26 H :    0.025860
  27 H :    0.011760
  28 C :   -0.067147
  29 H :    0.033782
  30 H :    0.021252
  31 H :    0.028178
  32 H :    0.031328
  33 H :    0.030450

  Mayer bond orders larger than 0.100000
B(  0-S ,  1-C ) :   1.1434 B(  0-S ,  4-C ) :   1.1588 B(  1-C ,  2-C ) :   1.5943
B(  1-C , 32-H ) :   0.9609 B(  2-C ,  3-C ) :   1.2587 B(  2-C ,  6-C ) :   1.0369
B(  3-C ,  4-C ) :   1.5287 B(  3-C ,  5-H ) :   0.9949 B(  4-C , 20-C ) :   1.0678
B(  6-C ,  7-H ) :   0.9411 B(  6-C ,  8-H ) :   0.9387 B(  6-C ,  9-C ) :   1.0684
B(  9-C , 10-H ) :   0.9598 B(  9-C , 11-H ) :   0.9592 B(  9-C , 12-C ) :   1.0667
B( 12-C , 13-H ) :   0.9758 B( 12-C , 14-H ) :   0.9722 B( 12-C , 15-H ) :   0.9730
B( 16-S , 17-C ) :   1.1850 B( 16-S , 20-C ) :   1.1368 B( 17-C , 18-C ) :   1.6166
B( 17-C , 33-H ) :   0.9603 B( 18-C , 19-C ) :   1.2335 B( 18-C , 21-H ) :   0.9904
B( 19-C , 20-C ) :   1.5557 B( 19-C , 22-C ) :   1.0473 B( 22-C , 23-H ) :   0.9386
B( 22-C , 24-H ) :   0.9301 B( 22-C , 25-C ) :   1.0767 B( 25-C , 26-H ) :   0.9563
B( 25-C , 27-H ) :   0.9515 B( 25-C , 28-C ) :   1.0775 B( 28-C , 29-H ) :   0.9742
B( 28-C , 30-H ) :   0.9725 B( 28-C , 31-H ) :   0.9743

Dispersion correction           -0.014344790
FINAL SINGLE POINT ENERGY     -1339.872651134967

DIPOLE MOMENT
-------------
                                X             Y             Z
Electronic contribution:     -9.71872     -20.59658     -11.07173
Nuclear contribution   :     10.20727      20.82931      11.18477
                        -----------------------------------------
Total Dipole Moment    :      0.48855       0.23273       0.11304
                        -----------------------------------------
Magnitude (a.u.)       :      0.55283
Magnitude (Debye)      :      1.40518

Rotational constants in cm-1:     0.019771     0.008272     0.006545
Rotational constants in MHz :   592.724552   248.002212   196.203157

                             ****ORCA TERMINATED NORMALLY****
TOTAL RUN TIME: 0 days 0 hours 0 minutes 29 seconds 566 msec
