                         Program Version 4.2.1 -  RELEASE  -
|  1> ! wB97X-D3 SP def2-SVP
|  2> %pal
|  3> nprocs 16
|  4> end
|  5>
|  6> * xyz 0 1
|  7> S 	 5.8056 	 11.4426 	 82.3519
|  8> C 	 6.55662 	 12.6714 	 81.3662
|  9> C 	 5.96883 	 13.8813 	 81.3731
| 10> C 	 4.93472 	 13.9193 	 82.4188
| 11> C 	 4.75093 	 12.6688 	 83.0092
| 12> H 	 4.34987 	 14.79 	 82.7511
| 13> C 	 6.33058 	 15.189 	 80.5873
| 14> H 	 5.44652 	 15.5086 	 80.0852
| 15> H 	 7.04233 	 14.9751 	 79.7291
| 16> C 	 6.97209 	 16.2455 	 81.521
| 17> H 	 6.35105 	 16.4772 	 82.3314
| 18> H 	 7.93227 	 15.8875 	 81.9552
| 19> C 	 7.07895 	 17.5785 	 80.7723
| 20> H 	 6.108 	 17.9113 	 80.3763
| 21> H 	 7.61486 	 18.3867 	 81.3226
| 22> H 	 7.56378 	 17.2594 	 79.9276
| 23> S 	 2.18193 	 12.0867 	 83.7743
| 24> C 	 1.8056 	 11.4709 	 85.3943
| 25> C 	 2.99127 	 11.3694 	 86.139
| 26> C 	 4.18461 	 11.9089 	 85.4516
| 27> C 	 3.90071 	 12.2683 	 84.0913
| 28> H 	 2.90682 	 11.0175 	 87.2151
| 29> C 	 5.52444 	 12.0682 	 86.0877
| 30> H 	 6.31614 	 12.3594 	 85.322
| 31> H 	 5.8557 	 11.1225 	 86.3852
| 32> C 	 5.69762 	 13.1023 	 87.1748
| 33> H 	 6.70985 	 13.075 	 87.6079
| 34> H 	 4.91292 	 12.9886 	 87.8999
| 35> C 	 5.44917 	 14.481 	 86.5933
| 36> H 	 4.43482 	 14.5662 	 86.3128
| 37> H 	 6.01063 	 14.6129 	 85.721
| 38> H 	 5.71501 	 15.2483 	 87.3701
| 39> H 	 7.21205 	 12.4366 	 80.5384
| 40> H 	 0.837441 	 11.2186 	 85.7235
| 41> *
| 42>
| 43>                          ****END OF INPUT****

CARTESIAN COORDINATES (ANGSTROEM)
---------------------------------
  S      5.805600   11.442600   82.351900
  C      6.556620   12.671400   81.366200
  C      5.968830   13.881300   81.373100
  C      4.934720   13.919300   82.418800
  C      4.750930   12.668800   83.009200
  H      4.349870   14.790000   82.751100
  C      6.330580   15.189000   80.587300
  H      5.446520   15.508600   80.085200
  H      7.042330   14.975100   79.729100
  C      6.972090   16.245500   81.521000
  H      6.351050   16.477200   82.331400
  H      7.932270   15.887500   81.955200
  C      7.078950   17.578500   80.772300
  H      6.108000   17.911300   80.376300
  H      7.614860   18.386700   81.322600
  H      7.563780   17.259400   79.927600
  S      2.181930   12.086700   83.774300
  C      1.805600   11.470900   85.394300
  C      2.991270   11.369400   86.139000
  C      4.184610   11.908900   85.451600
  C      3.900710   12.268300   84.091300
  H      2.906820   11.017500   87.215100
  C      5.524440   12.068200   86.087700
  H      6.316140   12.359400   85.322000
  H      5.855700   11.122500   86.385200
  C      5.697620   13.102300   87.174800
  H      6.709850   13.075000   87.607900
  H      4.912920   12.988600   87.899900
  C      5.449170   14.481000   86.593300
  H      4.434820   14.566200   86.312800
  H      6.010630   14.612900   85.721000
  H      5.715010   15.248300   87.370100
  H      7.212050   12.436600   80.538400
  H      0.837441   11.218600   85.723500

 Total Charge           Charge          ....    0
 Multiplicity           Mult            ....    1
 Number of Electrons    NEL             ....  134
 Basis Dimension        Dim             ....  322

ORBITAL ENERGIES
----------------

  NO   OCC          E(Eh)            E(eV)
   0   2.0000     -88.967243     -2420.9218
   1   2.0000     -88.964009     -2420.8337
   2   2.0000     -10.329282      -281.0740
   3   2.0000     -10.328916      -281.0641
   4   2.0000     -10.321455      -280.8611
   5   2.0000     -10.313413      -280.6422
   6   2.0000     -10.309532      -280.5366
   7   2.0000     -10.307741      -280.4879
   8   2.0000     -10.305906      -280.4380
   9   2.0000     -10.304610      -280.4027
  10   2.0000     -10.303069      -280.3608
  11   2.0000     -10.286941      -279.9219
  12   2.0000     -10.282774      -279.8085
  13   2.0000     -10.278312      -279.6871
  14   2.0000     -10.275019      -279.5975
  15   2.0000     -10.261957      -279.2420
  16   2.0000      -8.082133      -219.9260
  17   2.0000      -8.078175      -219.8183
  18   2.0000      -6.040593      -164.3729
  19   2.0000      -6.036788      -164.2694
  20   2.0000      -6.036694      -164.2668
  21   2.0000      -6.032746      -164.1594
  22   2.0000      -6.032593      -164.1552
  23   2.0000      -6.029114      -164.0605
  24   2.0000      -1.003709       -27.3123
  25   2.0000      -0.976070       -26.5602
  26   2.0000      -0.913697       -24.8630
  27   2.0000      -0.912957       -24.8428
  28   2.0000      -0.872569       -23.7438
  29   2.0000      -0.847500       -23.0616
  30   2.0000      -0.841645       -22.9023
  31   2.0000      -0.810799       -22.0630
  32   2.0000      -0.782444       -21.2914
  33   2.0000      -0.770179       -20.9576
  34   2.0000      -0.709472       -19.3057
  35   2.0000      -0.700671       -19.0662
  36   2.0000      -0.691821       -18.8254
  37   2.0000      -0.652295       -17.7498
  38   2.0000      -0.640421       -17.4267
  39   2.0000      -0.616780       -16.7834
  40   2.0000      -0.599133       -16.3032
  41   2.0000      -0.567567       -15.4443
  42   2.0000      -0.564167       -15.3518
  43   2.0000      -0.554814       -15.0972
  44   2.0000      -0.545550       -14.8452
  45   2.0000      -0.533241       -14.5102
  46   2.0000      -0.518414       -14.1068
  47   2.0000      -0.510179       -13.8827
  48   2.0000      -0.500351       -13.6152
  49   2.0000      -0.496593       -13.5130
  50   2.0000      -0.489828       -13.3289
  51   2.0000      -0.475512       -12.9393
  52   2.0000      -0.462708       -12.5909
  53   2.0000      -0.458599       -12.4791
  54   2.0000      -0.452756       -12.3201
  55   2.0000      -0.452195       -12.3049
  56   2.0000      -0.446040       -12.1374
  57   2.0000      -0.440056       -11.9745
  58   2.0000      -0.430524       -11.7152
  59   2.0000      -0.429260       -11.6808
  60   2.0000      -0.419283       -11.4093
  61   2.0000      -0.415726       -11.3125
  62   2.0000      -0.409318       -11.1381
  63   2.0000      -0.334812        -9.1107
  64   2.0000      -0.333847        -9.0844
  65   2.0000      -0.324177        -8.8213
  66   2.0000      -0.303530        -8.2595
  67   0.0000       0.037953         1.0328
  68   0.0000       0.059347         1.6149
  69   0.0000       0.110014         2.9936
  70   0.0000       0.112593         3.0638
  71   0.0000       0.130263         3.5446

MULLIKEN ATOMIC CHARGES
-----------------------
   0 S :    0.127376
   1 C :   -0.110833
   2 C :   -0.089987
   3 C :    0.041968
   4 C :   -0.192064
   5 H :    0.027421
   6 C :    0.039070
   7 H :    0.029297
   8 H :    0.030849
   9 C :   -0.068579
  10 H :    0.019619
  11 H :    0.042102
  12 C :   -0.016252
  13 H :    0.024445
  14 H :    0.052204
  15 H :   -0.001504
  16 S :    0.105487
  17 C :   -0.088067
  18 C :   -0.054015
  19 C :   -0.035276
  20 C :   -0.169447
  21 H :    0.050647
  22 C :    0.060844
  23 H :    0.028878
  24 H :    0.013960
  25 C :   -0.054548
  26 H :    0.036953
  27 H :    0.019152
  28 C :   -0.034239
  29 H :    0.028590
  30 H :    0.008438
  31 H :    0.036721
  32 H :    0.043081
  33 H :    0.047708
Sum of atomic charges:   -0.0000000

LOEWDIN ATOMIC CHARGES
----------------------
   0 S :    0.413878
   1 C :   -0.199539
   2 C :   -0.060442
   3 C :   -0.053098
   4 C :   -0.201448
   5 H :    0.036354
   6 C :   -0.025554
   7 H :    0.027217
   8 H :    0.033982
   9 C :   -0.034498
  10 H :    0.013302
  11 H :    0.031984
  12 C :   -0.061846
  13 H :    0.027176
  14 H :    0.033167
  15 H :    0.010144
  16 S :    0.398738
  17 C :   -0.175830
  18 C :   -0.078546
  19 C :   -0.049850
  20 C :   -0.211817
  21 H :    0.043378
  22 C :   -0.040702
  23 H :    0.036835
  24 H :    0.022431
  25 C :   -0.036226
  26 H :    0.028649
  27 H :    0.018388
  28 C :   -0.056977
  29 H :    0.020137
  30 H :    0.012431
  31 H :    0.030465
  32 H :    0.026148
  33 H :    0.021569

  Mayer bond orders larger than 0.100000
B(  0-S ,  1-C ) :   1.1235 B(  0-S ,  4-C ) :   1.1433 B(  1-C ,  2-C ) :   1.6971
B(  1-C , 32-H ) :   0.9525 B(  2-C ,  3-C ) :   1.1828 B(  2-C ,  6-C ) :   1.0143
B(  3-C ,  4-C ) :   1.6250 B(  3-C ,  5-H ) :   0.9873 B(  4-C , 20-C ) :   1.0317
B(  6-C ,  7-H ) :   0.9424 B(  6-C ,  8-H ) :   0.9449 B(  6-C ,  9-C ) :   1.0565
B(  9-C , 10-H ) :   0.9609 B(  9-C , 11-H ) :   0.9554 B(  9-C , 12-C ) :   1.0685
B( 12-C , 13-H ) :   0.9731 B( 12-C , 14-H ) :   0.9728 B( 12-C , 15-H ) :   0.9724
B( 16-S , 17-C ) :   1.1534 B( 16-S , 20-C ) :   1.1506 B( 17-C , 18-C ) :   1.6047
B( 17-C , 20-C ) :   0.1040 B( 17-C , 33-H ) :   0.9763 B( 18-C , 19-C ) :   1.2268
B( 18-C , 21-H ) :   0.9767 B( 19-C , 20-C ) :   1.5620 B( 19-C , 22-C ) :   1.0517
B( 22-C , 23-H ) :   0.9318 B( 22-C , 24-H ) :   0.9263 B( 22-C , 25-C ) :   1.0802
B( 25-C , 26-H ) :   0.9541 B( 25-C , 27-H ) :   0.9566 B( 25-C , 28-C ) :   1.0744
B( 28-C , 29-H ) :   0.9739 B( 28-C , 30-H ) :   0.9742 B( 28-C , 31-H ) :   0.9729

Dispersion correction           -0.014999591
FINAL SINGLE POINT ENERGY     -1339.867196929668

DIPOLE MOMENT
-------------
                                X             Y             Z
Electronic contribution:    -14.04886     -21.99125      -4.26951
Nuclear contribution   :     14.25617      22.38075       4.35476
                        -----------------------------------------
Total Dipole Moment    :      0.20732       0.38950       0.08524
                        -----------------------------------------
Magnitude (a.u.)       :      0.44940
Magnitude (Debye)      :      1.14228

Rotational constants in cm-1:     0.019877     0.008190     0.007273
Rotational constants in MHz :   595.884398   245.540740   218.051627

                             ****ORCA TERMINATED NORMALLY****
TOTAL RUN TIME: 0 days 0 hours 0 minutes 35 seconds 489 msec
