                         Program Version 4.2.1 -  RELEASE  -
|  1> ! wB97X-D3 SP def2-SVP
|  2> %pal
|  3> nprocs 16
|  4> end
|  5>
|  6> * xyz 0 1
|  7> S 	 -5.91185 	 -14.8379 	 72.4226
|  8> C 	 -5.68896 	 -16.2585 	 71.3851
|  9> C 	 -5.23986 	 -15.9013 	 70.1142
| 10> C 	 -5.40758 	 -14.5097 	 69.9162
| 11> C 	 -5.80609 	 -13.7578 	 70.9901
| 12> H 	 -5.16656 	 -13.9924 	 68.9005
| 13> C 	 -4.76536 	 -16.9471 	 69.0823
| 14> H 	 -4.12727 	 -17.6398 	 69.7204
| 15> H 	 -4.0516 	 -16.5343 	 68.3647
| 16> C 	 -5.88557 	 -17.6431 	 68.258
| 17> H 	 -5.37687 	 -18.4674 	 67.6959
| 18> H 	 -6.61676 	 -18.0641 	 68.906
| 19> C 	 -6.63794 	 -16.7615 	 67.203
| 20> H 	 -7.15648 	 -15.9999 	 67.7419
| 21> H 	 -5.95685 	 -16.3605 	 66.464
| 22> H 	 -7.41847 	 -17.3403 	 66.6351
| 23> S 	 -7.84088 	 -11.9273 	 71.0875
| 24> C 	 -7.5124 	 -10.208 	 70.7806
| 25> C 	 -6.19869 	 -10.0016 	 70.6117
| 26> C 	 -5.455 	 -11.2026 	 70.7534
| 27> C 	 -6.17606 	 -12.3379 	 71.0587
| 28> H 	 -5.82691 	 -9.05792 	 70.394
| 29> C 	 -3.90747 	 -11.1871 	 70.5946
| 30> H 	 -3.71261 	 -10.119 	 70.3993
| 31> H 	 -3.60781 	 -11.7255 	 69.7542
| 32> C 	 -3.00276 	 -11.8083 	 71.7303
| 33> H 	 -3.19072 	 -12.8465 	 71.6572
| 34> H 	 -3.35193 	 -11.6591 	 72.7281
| 35> C 	 -1.52238 	 -11.4771 	 71.4158
| 36> H 	 -1.23062 	 -12.0149 	 70.5046
| 37> H 	 -0.823554 	 -11.7763 	 72.2041
| 38> H 	 -1.41999 	 -10.3912 	 71.056
| 39> H 	 -5.69391 	 -17.2932 	 71.7331
| 40> H 	 -8.26204 	 -9.46128 	 70.7527
| 41> *
| 42>
| 43>                          ****END OF INPUT****

CARTESIAN COORDINATES (ANGSTROEM)
---------------------------------
  S     -5.911850  -14.837900   72.422600
  C     -5.688960  -16.258500   71.385100
  C     -5.239860  -15.901300   70.114200
  C     -5.407580  -14.509700   69.916200
  C     -5.806090  -13.757800   70.990100
  H     -5.166560  -13.992400   68.900500
  C     -4.765360  -16.947100   69.082300
  H     -4.127270  -17.639800   69.720400
  H     -4.051600  -16.534300   68.364700
  C     -5.885570  -17.643100   68.258000
  H     -5.376870  -18.467400   67.695900
  H     -6.616760  -18.064100   68.906000
  C     -6.637940  -16.761500   67.203000
  H     -7.156480  -15.999900   67.741900
  H     -5.956850  -16.360500   66.464000
  H     -7.418470  -17.340300   66.635100
  S     -7.840880  -11.927300   71.087500
  C     -7.512400  -10.208000   70.780600
  C     -6.198690  -10.001600   70.611700
  C     -5.455000  -11.202600   70.753400
  C     -6.176060  -12.337900   71.058700
  H     -5.826910   -9.057920   70.394000
  C     -3.907470  -11.187100   70.594600
  H     -3.712610  -10.119000   70.399300
  H     -3.607810  -11.725500   69.754200
  C     -3.002760  -11.808300   71.730300
  H     -3.190720  -12.846500   71.657200
  H     -3.351930  -11.659100   72.728100
  C     -1.522380  -11.477100   71.415800
  H     -1.230620  -12.014900   70.504600
  H     -0.823554  -11.776300   72.204100
  H     -1.419990  -10.391200   71.056000
  H     -5.693910  -17.293200   71.733100
  H     -8.262040   -9.461280   70.752700

 Total Charge           Charge          ....    0
 Multiplicity           Mult            ....    1
 Number of Electrons    NEL             ....  134
 Basis Dimension        Dim             ....  322

ORBITAL ENERGIES
----------------

  NO   OCC          E(Eh)            E(eV)
   0   2.0000     -88.967211     -2420.9209
   1   2.0000     -88.961440     -2420.7639
   2   2.0000     -10.334090      -281.2049
   3   2.0000     -10.322294      -280.8839
   4   2.0000     -10.319768      -280.8152
   5   2.0000     -10.315207      -280.6911
   6   2.0000     -10.304704      -280.4052
   7   2.0000     -10.304443      -280.3981
   8   2.0000     -10.303312      -280.3674
   9   2.0000     -10.301784      -280.3258
  10   2.0000     -10.292336      -280.0687
  11   2.0000     -10.287543      -279.9383
  12   2.0000     -10.287209      -279.9292
  13   2.0000     -10.284517      -279.8559
  14   2.0000     -10.280624      -279.7500
  15   2.0000     -10.278686      -279.6973
  16   2.0000      -8.080775      -219.8891
  17   2.0000      -8.076716      -219.7786
  18   2.0000      -6.039366      -164.3395
  19   2.0000      -6.035546      -164.2355
  20   2.0000      -6.035249      -164.2275
  21   2.0000      -6.031411      -164.1230
  22   2.0000      -6.031055      -164.1134
  23   2.0000      -6.027476      -164.0160
  24   2.0000      -1.007677       -27.4203
  25   2.0000      -0.984330       -26.7850
  26   2.0000      -0.904423       -24.6106
  27   2.0000      -0.898431       -24.4475
  28   2.0000      -0.872406       -23.7394
  29   2.0000      -0.844187       -22.9715
  30   2.0000      -0.841951       -22.9106
  31   2.0000      -0.818535       -22.2735
  32   2.0000      -0.780674       -21.2432
  33   2.0000      -0.764986       -20.8163
  34   2.0000      -0.710993       -19.3471
  35   2.0000      -0.699255       -19.0277
  36   2.0000      -0.695652       -18.9296
  37   2.0000      -0.667347       -18.1594
  38   2.0000      -0.637364       -17.3436
  39   2.0000      -0.614037       -16.7088
  40   2.0000      -0.597939       -16.2708
  41   2.0000      -0.579361       -15.7652
  42   2.0000      -0.555595       -15.1185
  43   2.0000      -0.543294       -14.7838
  44   2.0000      -0.540042       -14.6953
  45   2.0000      -0.522426       -14.2159
  46   2.0000      -0.512789       -13.9537
  47   2.0000      -0.508987       -13.8502
  48   2.0000      -0.503962       -13.7135
  49   2.0000      -0.494205       -13.4480
  50   2.0000      -0.483248       -13.1498
  51   2.0000      -0.477735       -12.9998
  52   2.0000      -0.470401       -12.8003
  53   2.0000      -0.466271       -12.6879
  54   2.0000      -0.458064       -12.4646
  55   2.0000      -0.452493       -12.3130
  56   2.0000      -0.442264       -12.0346
  57   2.0000      -0.439310       -11.9542
  58   2.0000      -0.433352       -11.7921
  59   2.0000      -0.424634       -11.5549
  60   2.0000      -0.414933       -11.2909
  61   2.0000      -0.412402       -11.2220
  62   2.0000      -0.410397       -11.1675
  63   2.0000      -0.346265        -9.4224
  64   2.0000      -0.332117        -9.0374
  65   2.0000      -0.320951        -8.7335
  66   2.0000      -0.305958        -8.3255
  67   0.0000       0.032767         0.8916
  68   0.0000       0.059549         1.6204
  69   0.0000       0.102899         2.8000
  70   0.0000       0.125079         3.4036
  71   0.0000       0.138056         3.7567

MULLIKEN ATOMIC CHARGES
-----------------------
   0 S :    0.105976
   1 C :   -0.123712
   2 C :   -0.108314
   3 C :    0.033265
   4 C :   -0.197480
   5 H :    0.045669
   6 C :    0.039045
   7 H :    0.043097
   8 H :    0.024405
   9 C :   -0.060796
  10 H :    0.036596
  11 H :    0.024567
  12 C :   -0.062956
  13 H :    0.039899
  14 H :    0.030206
  15 H :    0.042673
  16 S :    0.102047
  17 C :   -0.071521
  18 C :    0.004774
  19 C :   -0.049519
  20 C :   -0.128589
  21 H :   -0.006814
  22 C :    0.069262
  23 H :    0.010150
  24 H :    0.009886
  25 C :   -0.036268
  26 H :    0.023946
  27 H :    0.020974
  28 C :   -0.064821
  29 H :    0.023418
  30 H :    0.048481
  31 H :    0.037515
  32 H :    0.054298
  33 H :    0.040639
Sum of atomic charges:    0.0000000

LOEWDIN ATOMIC CHARGES
----------------------
   0 S :    0.377234
   1 C :   -0.183292
   2 C :   -0.073171
   3 C :   -0.068193
   4 C :   -0.188199
   5 H :    0.047320
   6 C :   -0.035732
   7 H :    0.040854
   8 H :    0.029092
   9 C :   -0.036843
  10 H :    0.027992
  11 H :    0.017899
  12 C :   -0.064857
  13 H :    0.022829
  14 H :    0.021386
  15 H :    0.034445
  16 S :    0.413226
  17 C :   -0.157101
  18 C :   -0.066444
  19 C :   -0.051041
  20 C :   -0.223153
  21 H :    0.023937
  22 C :   -0.023623
  23 H :    0.024882
  24 H :    0.020460
  25 C :   -0.037160
  26 H :    0.020711
  27 H :    0.018429
  28 C :   -0.070910
  29 H :    0.025320
  30 H :    0.028804
  31 H :    0.032777
  32 H :    0.029345
  33 H :    0.022774

  Mayer bond orders larger than 0.100000
B(  0-S ,  1-C ) :   1.1478 B(  0-S ,  4-C ) :   1.1272 B(  1-C ,  2-C ) :   1.6057
B(  1-C ,  4-C ) :   0.1050 B(  1-C , 32-H ) :   0.9652 B(  2-C ,  3-C ) :   1.2460
B(  2-C ,  6-C ) :   1.0103 B(  3-C ,  4-C ) :   1.6112 B(  3-C ,  5-H ) :   0.9736
B(  4-C , 20-C ) :   1.0061 B(  6-C ,  7-H ) :   0.9440 B(  6-C ,  8-H ) :   0.9454
B(  6-C ,  9-C ) :   1.0614 B(  9-C , 10-H ) :   0.9565 B(  9-C , 11-H ) :   0.9600
B(  9-C , 12-C ) :   1.0727 B( 12-C , 13-H ) :   0.9772 B( 12-C , 14-H ) :   0.9770
B( 12-C , 15-H ) :   0.9746 B( 16-S , 17-C ) :   1.1634 B( 16-S , 20-C ) :   1.1428
B( 17-C , 18-C ) :   1.5986 B( 17-C , 33-H ) :   0.9702 B( 18-C , 19-C ) :   1.2559
B( 18-C , 21-H ) :   1.0047 B( 19-C , 20-C ) :   1.5973 B( 19-C , 22-C ) :   1.0288
B( 22-C , 23-H ) :   0.9436 B( 22-C , 24-H ) :   0.9314 B( 22-C , 25-C ) :   1.0481
B( 25-C , 26-H ) :   0.9476 B( 25-C , 27-H ) :   0.9648 B( 25-C , 28-C ) :   1.0716
B( 28-C , 29-H ) :   0.9731 B( 28-C , 30-H ) :   0.9742 B( 28-C , 31-H ) :   0.9771

Dispersion correction           -0.014661238
FINAL SINGLE POINT ENERGY     -1339.869794586335

DIPOLE MOMENT
-------------
                                X             Y             Z
Electronic contribution:    -16.51567       6.37324      14.07911
Nuclear contribution   :     16.88309      -6.44450     -14.62728
                        -----------------------------------------
Total Dipole Moment    :      0.36742      -0.07126      -0.54817
                        -----------------------------------------
Magnitude (a.u.)       :      0.66375
Magnitude (Debye)      :      1.68713

Rotational constants in cm-1:     0.017151     0.008707     0.007430
Rotational constants in MHz :   514.165078   261.032150   222.756238

                             ****ORCA TERMINATED NORMALLY****
TOTAL RUN TIME: 0 days 0 hours 0 minutes 34 seconds 498 msec
