                         Program Version 4.2.1 -  RELEASE  -
|  1> ! wB97X-D3 SP def2-SVP
|  2> %pal
|  3> nprocs 16
|  4> end
|  5>
|  6> * xyz 0 1
|  7> S 	 -3.31925 	 76.622 	 45.6393
|  8> C 	 -4.14595 	 75.169 	 45.9341
|  9> C 	 -3.41547 	 74.0642 	 45.5705
| 10> C 	 -2.16306 	 74.4994 	 44.9465
| 11> C 	 -1.88839 	 75.8818 	 45.1019
| 12> H 	 -1.41029 	 73.772 	 44.5623
| 13> C 	 -3.99277 	 72.6518 	 45.5312
| 14> H 	 -4.37511 	 72.4851 	 44.5168
| 15> H 	 -4.92396 	 72.7203 	 46.1709
| 16> C 	 -3.07934 	 71.4991 	 46.0712
| 17> H 	 -3.45715 	 70.4699 	 45.8259
| 18> H 	 -2.25777 	 71.5508 	 45.3684
| 19> C 	 -2.7028 	 71.7437 	 47.569
| 20> H 	 -2.38829 	 70.7984 	 47.9705
| 21> H 	 -1.92413 	 72.5054 	 47.7077
| 22> H 	 -3.548 	 72.0316 	 48.1369
| 23> S 	 -1.10696 	 77.6305 	 43.1533
| 24> C 	 0.557585 	 77.9164 	 42.941
| 25> C 	 1.36269 	 77.3344 	 43.8734
| 26> C 	 0.571871 	 76.5524 	 44.7992
| 27> C 	 -0.747329 	 76.5489 	 44.4657
| 28> H 	 2.43369 	 77.4187 	 43.8425
| 29> C 	 1.22943 	 75.6748 	 45.7694
| 30> H 	 2.29144 	 75.7514 	 45.5217
| 31> H 	 0.971191 	 74.6537 	 45.5561
| 32> C 	 0.796008 	 75.9098 	 47.283
| 33> H 	 1.10407 	 75.0688 	 47.9858
| 34> H 	 -0.261162 	 75.8668 	 47.3767
| 35> C 	 1.26568 	 77.1974 	 47.8587
| 36> H 	 1.15283 	 78.1474 	 47.3266
| 37> H 	 2.40976 	 77.096 	 47.9667
| 38> H 	 0.828804 	 77.392 	 48.8206
| 39> H 	 -5.08815 	 75.0902 	 46.3312
| 40> H 	 0.962409 	 78.4642 	 42.1047
| 41> *
| 42>
| 43>                          ****END OF INPUT****

CARTESIAN COORDINATES (ANGSTROEM)
---------------------------------
  S     -3.319250   76.622000   45.639300
  C     -4.145950   75.169000   45.934100
  C     -3.415470   74.064200   45.570500
  C     -2.163060   74.499400   44.946500
  C     -1.888390   75.881800   45.101900
  H     -1.410290   73.772000   44.562300
  C     -3.992770   72.651800   45.531200
  H     -4.375110   72.485100   44.516800
  H     -4.923960   72.720300   46.170900
  C     -3.079340   71.499100   46.071200
  H     -3.457150   70.469900   45.825900
  H     -2.257770   71.550800   45.368400
  C     -2.702800   71.743700   47.569000
  H     -2.388290   70.798400   47.970500
  H     -1.924130   72.505400   47.707700
  H     -3.548000   72.031600   48.136900
  S     -1.106960   77.630500   43.153300
  C      0.557585   77.916400   42.941000
  C      1.362690   77.334400   43.873400
  C      0.571871   76.552400   44.799200
  C     -0.747329   76.548900   44.465700
  H      2.433690   77.418700   43.842500
  C      1.229430   75.674800   45.769400
  H      2.291440   75.751400   45.521700
  H      0.971191   74.653700   45.556100
  C      0.796008   75.909800   47.283000
  H      1.104070   75.068800   47.985800
  H     -0.261162   75.866800   47.376700
  C      1.265680   77.197400   47.858700
  H      1.152830   78.147400   47.326600
  H      2.409760   77.096000   47.966700
  H      0.828804   77.392000   48.820600
  H     -5.088150   75.090200   46.331200
  H      0.962409   78.464200   42.104700

 Total Charge           Charge          ....    0
 Multiplicity           Mult            ....    1
 Number of Electrons    NEL             ....  134
 Basis Dimension        Dim             ....  322

ORBITAL ENERGIES
----------------

  NO   OCC          E(Eh)            E(eV)
   0   2.0000     -88.966701     -2420.9070
   1   2.0000     -88.963777     -2420.8275
   2   2.0000     -10.327971      -281.0384
   3   2.0000     -10.319820      -280.8166
   4   2.0000     -10.310170      -280.5540
   5   2.0000     -10.303803      -280.3807
   6   2.0000     -10.301662      -280.3225
   7   2.0000     -10.299850      -280.2732
   8   2.0000     -10.299283      -280.2577
   9   2.0000     -10.296230      -280.1747
  10   2.0000     -10.295120      -280.1445
  11   2.0000     -10.290265      -280.0123
  12   2.0000     -10.287886      -279.9476
  13   2.0000     -10.285760      -279.8898
  14   2.0000     -10.277365      -279.6613
  15   2.0000     -10.272473      -279.5282
  16   2.0000      -8.082982      -219.9491
  17   2.0000      -8.079965      -219.8670
  18   2.0000      -6.041330      -164.3929
  19   2.0000      -6.038265      -164.3095
  20   2.0000      -6.037110      -164.2781
  21   2.0000      -6.034399      -164.2043
  22   2.0000      -6.033982      -164.1930
  23   2.0000      -6.030723      -164.1043
  24   2.0000      -1.014810       -27.6144
  25   2.0000      -0.993389       -27.0315
  26   2.0000      -0.909085       -24.7375
  27   2.0000      -0.906526       -24.6678
  28   2.0000      -0.870451       -23.6862
  29   2.0000      -0.854399       -23.2494
  30   2.0000      -0.841885       -22.9088
  31   2.0000      -0.814418       -22.1614
  32   2.0000      -0.782759       -21.3000
  33   2.0000      -0.773862       -21.0579
  34   2.0000      -0.712884       -19.3986
  35   2.0000      -0.701983       -19.1019
  36   2.0000      -0.686981       -18.6937
  37   2.0000      -0.665015       -18.0960
  38   2.0000      -0.639021       -17.3886
  39   2.0000      -0.614832       -16.7304
  40   2.0000      -0.592502       -16.1228
  41   2.0000      -0.569647       -15.5009
  42   2.0000      -0.552648       -15.0383
  43   2.0000      -0.547818       -14.9069
  44   2.0000      -0.542790       -14.7701
  45   2.0000      -0.537358       -14.6222
  46   2.0000      -0.518861       -14.1189
  47   2.0000      -0.507193       -13.8014
  48   2.0000      -0.502217       -13.6660
  49   2.0000      -0.492263       -13.3952
  50   2.0000      -0.487387       -13.2625
  51   2.0000      -0.480925       -13.0866
  52   2.0000      -0.479071       -13.0362
  53   2.0000      -0.468690       -12.7537
  54   2.0000      -0.460169       -12.5218
  55   2.0000      -0.450057       -12.2467
  56   2.0000      -0.440604       -11.9894
  57   2.0000      -0.435941       -11.8625
  58   2.0000      -0.431898       -11.7525
  59   2.0000      -0.427772       -11.6403
  60   2.0000      -0.422207       -11.4888
  61   2.0000      -0.411371       -11.1940
  62   2.0000      -0.405041       -11.0217
  63   2.0000      -0.341411        -9.2903
  64   2.0000      -0.329950        -8.9784
  65   2.0000      -0.325972        -8.8702
  66   2.0000      -0.299824        -8.1586
  67   0.0000       0.041480         1.1287
  68   0.0000       0.065984         1.7955
  69   0.0000       0.116352         3.1661
  70   0.0000       0.123473         3.3599
  71   0.0000       0.124938         3.3997

MULLIKEN ATOMIC CHARGES
-----------------------
   0 S :    0.127827
   1 C :   -0.090269
   2 C :   -0.088318
   3 C :   -0.005717
   4 C :   -0.156876
   5 H :    0.034051
   6 C :    0.015791
   7 H :    0.050299
   8 H :    0.021305
   9 C :   -0.076100
  10 H :    0.035529
  11 H :    0.018780
  12 C :   -0.023274
  13 H :    0.028559
  14 H :    0.049432
  15 H :    0.023636
  16 S :    0.124844
  17 C :   -0.079998
  18 C :   -0.033909
  19 C :   -0.037445
  20 C :   -0.169204
  21 H :    0.015321
  22 C :    0.089660
  23 H :    0.013805
  24 H :    0.023974
  25 C :   -0.064635
  26 H :    0.032636
  27 H :    0.032036
  28 C :   -0.067417
  29 H :    0.038486
  30 H :    0.026009
  31 H :    0.028444
  32 H :    0.013860
  33 H :    0.048880
Sum of atomic charges:   -0.0000000

LOEWDIN ATOMIC CHARGES
----------------------
   0 S :    0.451693
   1 C :   -0.202347
   2 C :   -0.067799
   3 C :   -0.066014
   4 C :   -0.223418
   5 H :    0.031709
   6 C :   -0.036125
   7 H :    0.035315
   8 H :    0.028584
   9 C :   -0.045690
  10 H :    0.030285
  11 H :    0.019299
  12 C :   -0.058051
  13 H :    0.025353
  14 H :    0.032698
  15 H :    0.021006
  16 S :    0.427531
  17 C :   -0.191372
  18 C :   -0.071855
  19 C :   -0.055469
  20 C :   -0.203424
  21 H :    0.030750
  22 C :   -0.028824
  23 H :    0.030176
  24 H :    0.032008
  25 C :   -0.040237
  26 H :    0.032597
  27 H :    0.019783
  28 C :   -0.075262
  29 H :    0.025846
  30 H :    0.029534
  31 H :    0.023079
  32 H :    0.011942
  33 H :    0.026702

  Mayer bond orders larger than 0.100000
B(  0-S ,  1-C ) :   1.1672 B(  0-S ,  4-C ) :   1.1687 B(  1-C ,  2-C ) :   1.5862
B(  1-C , 32-H ) :   0.9730 B(  2-C ,  3-C ) :   1.2622 B(  2-C ,  6-C ) :   1.0155
B(  3-C ,  4-C ) :   1.5443 B(  3-C ,  5-H ) :   0.9792 B(  4-C , 20-C ) :   1.0185
B(  6-C ,  7-H ) :   0.9453 B(  6-C ,  8-H ) :   0.9468 B(  6-C ,  9-C ) :   1.0580
B(  9-C , 10-H ) :   0.9610 B(  9-C , 11-H ) :   0.9574 B(  9-C , 12-C ) :   1.0566
B( 12-C , 13-H ) :   0.9762 B( 12-C , 14-H ) :   0.9738 B( 12-C , 15-H ) :   0.9796
B( 16-S , 17-C ) :   1.1664 B( 16-S , 20-C ) :   1.1399 B( 17-C , 18-C ) :   1.6271
B( 17-C , 33-H ) :   0.9637 B( 18-C , 19-C ) :   1.2161 B( 18-C , 21-H ) :   0.9930
B( 19-C , 20-C ) :   1.6319 B( 19-C , 22-C ) :   1.0439 B( 22-C , 23-H ) :   0.9400
B( 22-C , 24-H ) :   0.9305 B( 22-C , 25-C ) :   1.0501 B( 25-C , 26-H ) :   0.9531
B( 25-C , 27-H ) :   0.9566 B( 25-C , 28-C ) :   1.0799 B( 28-C , 29-H ) :   0.9763
B( 28-C , 30-H ) :   0.9744 B( 28-C , 31-H ) :   0.9713

Dispersion correction           -0.015146836
FINAL SINGLE POINT ENERGY     -1339.873446910678

DIPOLE MOMENT
-------------
                                X             Y             Z
Electronic contribution:     -7.48409      18.47557     -16.47419
Nuclear contribution   :      7.64889     -19.00681      16.50910
                        -----------------------------------------
Total Dipole Moment    :      0.16480      -0.53124       0.03492
                        -----------------------------------------
Magnitude (a.u.)       :      0.55732
Magnitude (Debye)      :      1.41658

Rotational constants in cm-1:     0.019616     0.009124     0.007626
Rotational constants in MHz :   588.064249   273.517602   228.613537

                             ****ORCA TERMINATED NORMALLY****
TOTAL RUN TIME: 0 days 0 hours 0 minutes 34 seconds 791 msec
