                         Program Version 4.2.1 -  RELEASE  -
|  1> ! wB97X-D3 SP def2-SVP
|  2> %pal
|  3> nprocs 16
|  4> end
|  5>
|  6> * xyz 0 1
|  7> S 	 5.49709 	 -12.4136 	 64.1041
|  8> C 	 5.98606 	 -12.3684 	 65.7601
|  9> C 	 5.17397 	 -11.5876 	 66.5132
| 10> C 	 4.17726 	 -11.024 	 65.7229
| 11> C 	 4.16406 	 -11.4427 	 64.4112
| 12> H 	 3.4931 	 -10.1953 	 65.9221
| 13> C 	 5.27825 	 -11.4237 	 68.0303
| 14> H 	 6.40066 	 -11.5162 	 68.2318
| 15> H 	 4.75975 	 -12.2919 	 68.3608
| 16> C 	 4.84367 	 -10.1085 	 68.676
| 17> H 	 5.33218 	 -9.28257 	 68.08
| 18> H 	 3.73566 	 -10.0316 	 68.4997
| 19> C 	 5.0499 	 -9.9981 	 70.1881
| 20> H 	 4.33024 	 -10.6628 	 70.7257
| 21> H 	 6.0907 	 -10.2261 	 70.366
| 22> H 	 4.80046 	 -9.06112 	 70.5122
| 23> S 	 2.80928 	 -9.37695 	 63.1753
| 24> C 	 1.97806 	 -9.62564 	 61.7035
| 25> C 	 1.81707 	 -10.951 	 61.478
| 26> C 	 2.55719 	 -11.8355 	 62.404
| 27> C 	 3.19865 	 -11.0908 	 63.3648
| 28> H 	 1.23345 	 -11.3219 	 60.7235
| 29> C 	 2.51841 	 -13.3599 	 62.3043
| 30> H 	 2.9627 	 -13.7577 	 63.1692
| 31> H 	 3.27169 	 -13.7505 	 61.5972
| 32> C 	 1.10043 	 -13.9687 	 62.018
| 33> H 	 0.508301 	 -13.2238 	 61.5087
| 34> H 	 0.653951 	 -14.1138 	 63.0176
| 35> C 	 1.24072 	 -15.3002 	 61.1708
| 36> H 	 0.37499 	 -15.8075 	 60.8318
| 37> H 	 1.65493 	 -16.1885 	 61.6813
| 38> H 	 1.73974 	 -15.1197 	 60.2285
| 39> H 	 6.78304 	 -12.9948 	 66.2506
| 40> H 	 1.43532 	 -8.81405 	 61.1065
| 41> *
| 42>
| 43>                          ****END OF INPUT****

CARTESIAN COORDINATES (ANGSTROEM)
---------------------------------
  S      5.497090  -12.413600   64.104100
  C      5.986060  -12.368400   65.760100
  C      5.173970  -11.587600   66.513200
  C      4.177260  -11.024000   65.722900
  C      4.164060  -11.442700   64.411200
  H      3.493100  -10.195300   65.922100
  C      5.278250  -11.423700   68.030300
  H      6.400660  -11.516200   68.231800
  H      4.759750  -12.291900   68.360800
  C      4.843670  -10.108500   68.676000
  H      5.332180   -9.282570   68.080000
  H      3.735660  -10.031600   68.499700
  C      5.049900   -9.998100   70.188100
  H      4.330240  -10.662800   70.725700
  H      6.090700  -10.226100   70.366000
  H      4.800460   -9.061120   70.512200
  S      2.809280   -9.376950   63.175300
  C      1.978060   -9.625640   61.703500
  C      1.817070  -10.951000   61.478000
  C      2.557190  -11.835500   62.404000
  C      3.198650  -11.090800   63.364800
  H      1.233450  -11.321900   60.723500
  C      2.518410  -13.359900   62.304300
  H      2.962700  -13.757700   63.169200
  H      3.271690  -13.750500   61.597200
  C      1.100430  -13.968700   62.018000
  H      0.508301  -13.223800   61.508700
  H      0.653951  -14.113800   63.017600
  C      1.240720  -15.300200   61.170800
  H      0.374990  -15.807500   60.831800
  H      1.654930  -16.188500   61.681300
  H      1.739740  -15.119700   60.228500
  H      6.783040  -12.994800   66.250600
  H      1.435320   -8.814050   61.106500

 Total Charge           Charge          ....    0
 Multiplicity           Mult            ....    1
 Number of Electrons    NEL             ....  134
 Basis Dimension        Dim             ....  322

ORBITAL ENERGIES
----------------

  NO   OCC          E(Eh)            E(eV)
   0   2.0000     -88.967233     -2420.9215
   1   2.0000     -88.960259     -2420.7317
   2   2.0000     -10.326429      -280.9964
   3   2.0000     -10.320939      -280.8470
   4   2.0000     -10.318866      -280.7906
   5   2.0000     -10.308357      -280.5046
   6   2.0000     -10.306589      -280.4566
   7   2.0000     -10.296567      -280.1838
   8   2.0000     -10.295003      -280.1413
   9   2.0000     -10.294428      -280.1256
  10   2.0000     -10.293627      -280.1038
  11   2.0000     -10.288854      -279.9740
  12   2.0000     -10.287805      -279.9454
  13   2.0000     -10.284888      -279.8660
  14   2.0000     -10.279513      -279.7198
  15   2.0000     -10.276583      -279.6400
  16   2.0000      -8.083227      -219.9558
  17   2.0000      -8.075809      -219.7539
  18   2.0000      -6.041507      -164.3978
  19   2.0000      -6.037491      -164.2885
  20   2.0000      -6.034409      -164.2046
  21   2.0000      -6.034212      -164.1993
  22   2.0000      -6.030280      -164.0922
  23   2.0000      -6.026350      -163.9853
  24   2.0000      -1.017484       -27.6872
  25   2.0000      -0.991452       -26.9788
  26   2.0000      -0.913259       -24.8510
  27   2.0000      -0.901413       -24.5287
  28   2.0000      -0.873861       -23.7790
  29   2.0000      -0.852462       -23.1967
  30   2.0000      -0.842668       -22.9302
  31   2.0000      -0.815329       -22.1862
  32   2.0000      -0.788320       -21.4513
  33   2.0000      -0.776460       -21.1285
  34   2.0000      -0.714406       -19.4400
  35   2.0000      -0.704986       -19.1837
  36   2.0000      -0.683213       -18.5912
  37   2.0000      -0.661972       -18.0132
  38   2.0000      -0.633357       -17.2345
  39   2.0000      -0.617391       -16.8001
  40   2.0000      -0.601403       -16.3650
  41   2.0000      -0.575038       -15.6476
  42   2.0000      -0.569444       -15.4954
  43   2.0000      -0.555882       -15.1263
  44   2.0000      -0.528183       -14.3726
  45   2.0000      -0.521473       -14.1900
  46   2.0000      -0.518077       -14.0976
  47   2.0000      -0.511073       -13.9070
  48   2.0000      -0.503121       -13.6906
  49   2.0000      -0.498663       -13.5693
  50   2.0000      -0.488224       -13.2852
  51   2.0000      -0.478652       -13.0248
  52   2.0000      -0.472274       -12.8512
  53   2.0000      -0.465030       -12.6541
  54   2.0000      -0.462409       -12.5828
  55   2.0000      -0.457382       -12.4460
  56   2.0000      -0.449141       -12.2217
  57   2.0000      -0.431967       -11.7544
  58   2.0000      -0.430229       -11.7071
  59   2.0000      -0.426628       -11.6091
  60   2.0000      -0.421148       -11.4600
  61   2.0000      -0.415419       -11.3041
  62   2.0000      -0.411888       -11.2080
  63   2.0000      -0.349596        -9.5130
  64   2.0000      -0.334017        -9.0891
  65   2.0000      -0.324179        -8.8214
  66   2.0000      -0.294196        -8.0055
  67   0.0000       0.035731         0.9723
  68   0.0000       0.079567         2.1651
  69   0.0000       0.111791         3.0420
  70   0.0000       0.127393         3.4665
  71   0.0000       0.137607         3.7445

MULLIKEN ATOMIC CHARGES
-----------------------
   0 S :    0.136531
   1 C :   -0.160177
   2 C :   -0.064116
   3 C :   -0.009488
   4 C :   -0.157006
   5 H :    0.013110
   6 C :    0.062417
   7 H :    0.029182
   8 H :    0.041731
   9 C :   -0.143564
  10 H :    0.044443
  11 H :    0.036354
  12 C :    0.024006
  13 H :    0.033900
  14 H :    0.029528
  15 H :    0.014632
  16 S :    0.093255
  17 C :   -0.095959
  18 C :   -0.012056
  19 C :   -0.060668
  20 C :   -0.149318
  21 H :   -0.016176
  22 C :    0.096637
  23 H :    0.000888
  24 H :    0.034020
  25 C :   -0.066303
  26 H :    0.034080
  27 H :    0.047068
  28 C :   -0.060394
  29 H :    0.011557
  30 H :    0.035380
  31 H :    0.033139
  32 H :    0.056885
  33 H :    0.086483
Sum of atomic charges:   -0.0000000

LOEWDIN ATOMIC CHARGES
----------------------
   0 S :    0.456904
   1 C :   -0.221228
   2 C :   -0.068717
   3 C :   -0.078435
   4 C :   -0.216860
   5 H :    0.028493
   6 C :   -0.032170
   7 H :    0.035299
   8 H :    0.030924
   9 C :   -0.050896
  10 H :    0.031494
  11 H :    0.025631
  12 C :   -0.051819
  13 H :    0.033766
  14 H :    0.024607
  15 H :    0.015455
  16 S :    0.404031
  17 C :   -0.202958
  18 C :   -0.067994
  19 C :   -0.052518
  20 C :   -0.191024
  21 H :    0.011817
  22 C :   -0.035563
  23 H :    0.018584
  24 H :    0.035779
  25 C :   -0.028880
  26 H :    0.021268
  27 H :    0.032914
  28 C :   -0.077163
  29 H :    0.020722
  30 H :    0.032141
  31 H :    0.026268
  32 H :    0.039303
  33 H :    0.050826

  Mayer bond orders larger than 0.100000
B(  0-S ,  1-C ) :   1.1488 B(  0-S ,  4-C ) :   1.1852 B(  1-C ,  2-C ) :   1.6100
B(  1-C , 32-H ) :   0.9595 B(  2-C ,  3-C ) :   1.2694 B(  2-C ,  6-C ) :   0.9896
B(  3-C ,  4-C ) :   1.5464 B(  3-C ,  5-H ) :   0.9946 B(  4-C , 20-C ) :   1.0085
B(  6-C ,  7-H ) :   0.9411 B(  6-C ,  8-H ) :   0.9372 B(  6-C ,  9-C ) :   1.0720
B(  9-C , 10-H ) :   0.9590 B(  9-C , 11-H ) :   0.9456 B(  9-C , 12-C ) :   1.0873
B( 12-C , 13-H ) :   0.9715 B( 12-C , 14-H ) :   0.9747 B( 12-C , 15-H ) :   0.9703
B( 16-S , 17-C ) :   1.1488 B( 16-S , 20-C ) :   1.1275 B( 17-C , 18-C ) :   1.6340
B( 17-C , 33-H ) :   0.9545 B( 18-C , 19-C ) :   1.2021 B( 18-C , 21-H ) :   0.9993
B( 19-C , 20-C ) :   1.6306 B( 19-C , 22-C ) :   1.0422 B( 22-C , 23-H ) :   0.9235
B( 22-C , 24-H ) :   0.9382 B( 22-C , 25-C ) :   1.0280 B( 25-C , 26-H ) :   0.9712
B( 25-C , 27-H ) :   0.9598 B( 25-C , 28-C ) :   1.0629 B( 28-C , 29-H ) :   0.9736
B( 28-C , 30-H ) :   0.9759 B( 28-C , 31-H ) :   0.9776

Dispersion correction           -0.013346515
FINAL SINGLE POINT ENERGY     -1339.862838016501

DIPOLE MOMENT
-------------
                                X             Y             Z
Electronic contribution:      5.65051       9.79165     -11.48986
Nuclear contribution   :     -5.91361     -10.03888      11.69721
                        -----------------------------------------
Total Dipole Moment    :     -0.26309      -0.24723       0.20735
                        -----------------------------------------
Magnitude (a.u.)       :      0.41633
Magnitude (Debye)      :      1.05823

Rotational constants in cm-1:     0.021295     0.006997     0.006038
Rotational constants in MHz :   638.417220   209.776678   181.018255

                             ****ORCA TERMINATED NORMALLY****
TOTAL RUN TIME: 0 days 0 hours 0 minutes 28 seconds 673 msec
