                         Program Version 4.2.1 -  RELEASE  -
|  1> ! wB97X-D3 SP def2-SVP
|  2> %pal
|  3> nprocs 16
|  4> end
|  5>
|  6> * xyz 0 1
|  7> S 	 -2.72922 	 29.7382 	 37.899
|  8> C 	 -2.31642 	 28.5286 	 36.6712
|  9> C 	 -1.74259 	 27.443 	 37.3303
| 10> C 	 -1.87838 	 27.4688 	 38.7261
| 11> C 	 -2.28683 	 28.72 	 39.1629
| 12> H 	 -1.59311 	 26.6554 	 39.4135
| 13> C 	 -1.232 	 26.2429 	 36.5594
| 14> H 	 -1.53089 	 26.3304 	 35.5353
| 15> H 	 -1.6027 	 25.3259 	 36.9209
| 16> C 	 0.317804 	 26.1289 	 36.5405
| 17> H 	 0.685845 	 26.9487 	 35.9454
| 18> H 	 0.765454 	 26.1993 	 37.5288
| 19> C 	 0.919653 	 24.909 	 35.8976
| 20> H 	 0.670148 	 24.9831 	 34.8218
| 21> H 	 1.94341 	 24.9612 	 36.1915
| 22> H 	 0.36927 	 24.105 	 36.3698
| 23> S 	 -3.34615 	 28.2206 	 41.6828
| 24> C 	 -2.97124 	 29.2173 	 43.0349
| 25> C 	 -2.14859 	 30.2774 	 42.699
| 26> C 	 -1.87176 	 30.2256 	 41.2903
| 27> C 	 -2.36858 	 29.1381 	 40.5411
| 28> H 	 -1.831 	 31.0189 	 43.4511
| 29> C 	 -0.980565 	 31.3285 	 40.676
| 30> H 	 -0.754835 	 30.9257 	 39.7378
| 31> H 	 -0.0968519 	 31.3552 	 41.2136
| 32> C 	 -1.46115 	 32.8153 	 40.5309
| 33> H 	 -1.71256 	 33.2253 	 41.4622
| 34> H 	 -2.32217 	 32.7249 	 39.8684
| 35> C 	 -0.447791 	 33.686 	 39.7448
| 36> H 	 0.404488 	 33.8538 	 40.4232
| 37> H 	 -0.730602 	 34.7734 	 39.6225
| 38> H 	 0.041292 	 33.1522 	 38.9016
| 39> H 	 -2.28891 	 28.8319 	 35.6537
| 40> H 	 -3.21046 	 28.9654 	 44.0325
| 41> *
| 42>
| 43>                          ****END OF INPUT****

CARTESIAN COORDINATES (ANGSTROEM)
---------------------------------
  S     -2.729220   29.738200   37.899000
  C     -2.316420   28.528600   36.671200
  C     -1.742590   27.443000   37.330300
  C     -1.878380   27.468800   38.726100
  C     -2.286830   28.720000   39.162900
  H     -1.593110   26.655400   39.413500
  C     -1.232000   26.242900   36.559400
  H     -1.530890   26.330400   35.535300
  H     -1.602700   25.325900   36.920900
  C      0.317804   26.128900   36.540500
  H      0.685845   26.948700   35.945400
  H      0.765454   26.199300   37.528800
  C      0.919653   24.909000   35.897600
  H      0.670148   24.983100   34.821800
  H      1.943410   24.961200   36.191500
  H      0.369270   24.105000   36.369800
  S     -3.346150   28.220600   41.682800
  C     -2.971240   29.217300   43.034900
  C     -2.148590   30.277400   42.699000
  C     -1.871760   30.225600   41.290300
  C     -2.368580   29.138100   40.541100
  H     -1.831000   31.018900   43.451100
  C     -0.980565   31.328500   40.676000
  H     -0.754835   30.925700   39.737800
  H     -0.096852   31.355200   41.213600
  C     -1.461150   32.815300   40.530900
  H     -1.712560   33.225300   41.462200
  H     -2.322170   32.724900   39.868400
  C     -0.447791   33.686000   39.744800
  H      0.404488   33.853800   40.423200
  H     -0.730602   34.773400   39.622500
  H      0.041292   33.152200   38.901600
  H     -2.288910   28.831900   35.653700
  H     -3.210460   28.965400   44.032500

 Total Charge           Charge          ....    0
 Multiplicity           Mult            ....    1
 Number of Electrons    NEL             ....  134
 Basis Dimension        Dim             ....  322

ORBITAL ENERGIES
----------------

  NO   OCC          E(Eh)            E(eV)
   0   2.0000     -88.968645     -2420.9599
   1   2.0000     -88.963306     -2420.8146
   2   2.0000     -10.329608      -281.0829
   3   2.0000     -10.328803      -281.0610
   4   2.0000     -10.316155      -280.7168
   5   2.0000     -10.314335      -280.6673
   6   2.0000     -10.307334      -280.4768
   7   2.0000     -10.304843      -280.4090
   8   2.0000     -10.296687      -280.1871
   9   2.0000     -10.296180      -280.1733
  10   2.0000     -10.286402      -279.9072
  11   2.0000     -10.283499      -279.8282
  12   2.0000     -10.282900      -279.8119
  13   2.0000     -10.277750      -279.6718
  14   2.0000     -10.275855      -279.6202
  15   2.0000     -10.274787      -279.5912
  16   2.0000      -8.084116      -219.9800
  17   2.0000      -8.078375      -219.8237
  18   2.0000      -6.042478      -164.4242
  19   2.0000      -6.038324      -164.3111
  20   2.0000      -6.036926      -164.2731
  21   2.0000      -6.035157      -164.2250
  22   2.0000      -6.032603      -164.1555
  23   2.0000      -6.029297      -164.0655
  24   2.0000      -1.013975       -27.5917
  25   2.0000      -0.988087       -26.8872
  26   2.0000      -0.917287       -24.9607
  27   2.0000      -0.900589       -24.5063
  28   2.0000      -0.876076       -23.8392
  29   2.0000      -0.856165       -23.2974
  30   2.0000      -0.844100       -22.9691
  31   2.0000      -0.818355       -22.2686
  32   2.0000      -0.785133       -21.3646
  33   2.0000      -0.768197       -20.9037
  34   2.0000      -0.707224       -19.2446
  35   2.0000      -0.697887       -18.9905
  36   2.0000      -0.689190       -18.7538
  37   2.0000      -0.665497       -18.1091
  38   2.0000      -0.644643       -17.5416
  39   2.0000      -0.622056       -16.9270
  40   2.0000      -0.592576       -16.1248
  41   2.0000      -0.577313       -15.7095
  42   2.0000      -0.571546       -15.5525
  43   2.0000      -0.566229       -15.4079
  44   2.0000      -0.538237       -14.6462
  45   2.0000      -0.524980       -14.2854
  46   2.0000      -0.520722       -14.1696
  47   2.0000      -0.516122       -14.0444
  48   2.0000      -0.508741       -13.8435
  49   2.0000      -0.503105       -13.6902
  50   2.0000      -0.494462       -13.4550
  51   2.0000      -0.475303       -12.9336
  52   2.0000      -0.468614       -12.7516
  53   2.0000      -0.467634       -12.7250
  54   2.0000      -0.462746       -12.5919
  55   2.0000      -0.452602       -12.3159
  56   2.0000      -0.446590       -12.1523
  57   2.0000      -0.431820       -11.7504
  58   2.0000      -0.427238       -11.6257
  59   2.0000      -0.423558       -11.5256
  60   2.0000      -0.416698       -11.3389
  61   2.0000      -0.411945       -11.2096
  62   2.0000      -0.405529       -11.0350
  63   2.0000      -0.343931        -9.3588
  64   2.0000      -0.336129        -9.1465
  65   2.0000      -0.327329        -8.9071
  66   2.0000      -0.296298        -8.0627
  67   0.0000       0.028608         0.7784
  68   0.0000       0.072280         1.9669
  69   0.0000       0.111652         3.0382
  70   0.0000       0.115966         3.1556
  71   0.0000       0.128349         3.4925

MULLIKEN ATOMIC CHARGES
-----------------------
   0 S :    0.121340
   1 C :   -0.125157
   2 C :   -0.071936
   3 C :    0.017861
   4 C :   -0.153794
   5 H :    0.028544
   6 C :    0.115470
   7 H :    0.004725
   8 H :    0.007907
   9 C :   -0.132610
  10 H :    0.015879
  11 H :    0.024864
  12 C :   -0.005933
  13 H :    0.036930
  14 H :    0.042133
  15 H :    0.020822
  16 S :    0.102644
  17 C :   -0.073681
  18 C :   -0.034864
  19 C :   -0.063038
  20 C :   -0.133392
  21 H :    0.036632
  22 C :    0.077266
  23 H :   -0.008421
  24 H :    0.003777
  25 C :   -0.021408
  26 H :    0.017842
  27 H :    0.027299
  28 C :   -0.078152
  29 H :    0.011948
  30 H :    0.048669
  31 H :    0.044142
  32 H :    0.051399
  33 H :    0.044296
Sum of atomic charges:   -0.0000000

LOEWDIN ATOMIC CHARGES
----------------------
   0 S :    0.442581
   1 C :   -0.191892
   2 C :   -0.052511
   3 C :   -0.065421
   4 C :   -0.214456
   5 H :    0.039451
   6 C :   -0.022661
   7 H :    0.026339
   8 H :    0.020380
   9 C :   -0.043218
  10 H :    0.017861
  11 H :    0.018782
  12 C :   -0.057876
  13 H :    0.028489
  14 H :    0.029013
  15 H :    0.021313
  16 S :    0.416279
  17 C :   -0.182484
  18 C :   -0.078251
  19 C :   -0.050501
  20 C :   -0.206427
  21 H :    0.040891
  22 C :   -0.027748
  23 H :    0.012648
  24 H :    0.017462
  25 C :   -0.028791
  26 H :    0.014026
  27 H :    0.022829
  28 C :   -0.080547
  29 H :    0.021841
  30 H :    0.036616
  31 H :    0.032631
  32 H :    0.022051
  33 H :    0.021302

  Mayer bond orders larger than 0.100000
B(  0-S ,  1-C ) :   1.1380 B(  0-S ,  4-C ) :   1.1980 B(  1-C ,  2-C ) :   1.5670
B(  1-C ,  4-C ) :   0.1034 B(  1-C , 32-H ) :   0.9771 B(  2-C ,  3-C ) :   1.2713
B(  2-C ,  6-C ) :   1.0389 B(  3-C ,  4-C ) :   1.5151 B(  3-C ,  5-H ) :   0.9939
B(  4-C , 20-C ) :   1.0303 B(  6-C ,  7-H ) :   0.9375 B(  6-C ,  8-H ) :   0.9395
B(  6-C ,  9-C ) :   1.0572 B(  9-C , 10-H ) :   0.9549 B(  9-C , 11-H ) :   0.9630
B(  9-C , 12-C ) :   1.0798 B( 12-C , 13-H ) :   0.9760 B( 12-C , 14-H ) :   0.9738
B( 12-C , 15-H ) :   0.9750 B( 16-S , 17-C ) :   1.1838 B( 16-S , 20-C ) :   1.1272
B( 17-C , 18-C ) :   1.5777 B( 17-C , 33-H ) :   0.9686 B( 18-C , 19-C ) :   1.2529
B( 18-C , 21-H ) :   0.9923 B( 19-C , 20-C ) :   1.5748 B( 19-C , 22-C ) :   1.0452
B( 22-C , 23-H ) :   0.9311 B( 22-C , 24-H ) :   0.9351 B( 22-C , 25-C ) :   1.0572
B( 25-C , 26-H ) :   0.9572 B( 25-C , 27-H ) :   0.9561 B( 25-C , 28-C ) :   1.0791
B( 28-C , 29-H ) :   0.9716 B( 28-C , 30-H ) :   0.9720 B( 28-C , 31-H ) :   0.9735

Dispersion correction           -0.013635860
FINAL SINGLE POINT ENERGY     -1339.862552487062

DIPOLE MOMENT
-------------
                                X             Y             Z
Electronic contribution:    -18.17323      -2.02488      10.45048
Nuclear contribution   :     18.65133       2.01858     -10.47311
                        -----------------------------------------
Total Dipole Moment    :      0.47810      -0.00629      -0.02263
                        -----------------------------------------
Magnitude (a.u.)       :      0.47868
Magnitude (Debye)      :      1.21670

Rotational constants in cm-1:     0.018759     0.007699     0.006392
Rotational constants in MHz :   562.385266   230.812250   191.628322

                             ****ORCA TERMINATED NORMALLY****
TOTAL RUN TIME: 0 days 0 hours 0 minutes 33 seconds 383 msec
