                         Program Version 4.2.1 -  RELEASE  -
|  1> ! wB97X-D3 SP def2-SVP
|  2> %pal
|  3> nprocs 16
|  4> end
|  5>
|  6> * xyz 0 1
|  7> S 	 -14.6288 	 75.5746 	 54.4834
|  8> C 	 -16.2978 	 75.6772 	 53.8402
|  9> C 	 -16.8446 	 74.454 	 54.0461
| 10> C 	 -16.0338 	 73.4765 	 54.7542
| 11> C 	 -14.7733 	 73.8674 	 55.0624
| 12> H 	 -16.4019 	 72.5115 	 55.0048
| 13> C 	 -18.2963 	 74.0328 	 53.7883
| 14> H 	 -18.4036 	 73.0092 	 54.2127
| 15> H 	 -18.5203 	 73.8666 	 52.7465
| 16> C 	 -19.3521 	 75.0341 	 54.3431
| 17> H 	 -19.2952 	 75.2221 	 55.3996
| 18> H 	 -19.245 	 76.0942 	 53.9786
| 19> C 	 -20.7525 	 74.4192 	 54.1433
| 20> H 	 -20.912 	 73.9913 	 53.1303
| 21> H 	 -20.9057 	 73.5986 	 54.8235
| 22> H 	 -21.5653 	 75.1796 	 54.3203
| 23> S 	 -13.3653 	 73.6129 	 57.482
| 24> C 	 -12.0068 	 72.4788 	 57.5085
| 25> C 	 -11.9292 	 71.6729 	 56.3416
| 26> C 	 -12.8912 	 72.1318 	 55.3499
| 27> C 	 -13.7103 	 73.1536 	 55.803
| 28> H 	 -11.1596 	 70.9281 	 56.3086
| 29> C 	 -12.9636 	 71.3896 	 54.0694
| 30> H 	 -11.9644 	 71.2075 	 53.7853
| 31> H 	 -13.3131 	 72.0466 	 53.3143
| 32> C 	 -13.7037 	 70.0211 	 54.1851
| 33> H 	 -14.6536 	 70.1423 	 54.6118
| 34> H 	 -13.06 	 69.4197 	 54.862
| 35> C 	 -13.9576 	 69.3314 	 52.9095
| 36> H 	 -14.6579 	 68.4606 	 53.0567
| 37> H 	 -13.0917 	 68.8196 	 52.4679
| 38> H 	 -14.4473 	 70.0175 	 52.1522
| 39> H 	 -16.7086 	 76.523 	 53.3376
| 40> H 	 -11.2787 	 72.2747 	 58.3309
| 41> *
| 42>
| 43>                          ****END OF INPUT****

CARTESIAN COORDINATES (ANGSTROEM)
---------------------------------
  S    -14.628800   75.574600   54.483400
  C    -16.297800   75.677200   53.840200
  C    -16.844600   74.454000   54.046100
  C    -16.033800   73.476500   54.754200
  C    -14.773300   73.867400   55.062400
  H    -16.401900   72.511500   55.004800
  C    -18.296300   74.032800   53.788300
  H    -18.403600   73.009200   54.212700
  H    -18.520300   73.866600   52.746500
  C    -19.352100   75.034100   54.343100
  H    -19.295200   75.222100   55.399600
  H    -19.245000   76.094200   53.978600
  C    -20.752500   74.419200   54.143300
  H    -20.912000   73.991300   53.130300
  H    -20.905700   73.598600   54.823500
  H    -21.565300   75.179600   54.320300
  S    -13.365300   73.612900   57.482000
  C    -12.006800   72.478800   57.508500
  C    -11.929200   71.672900   56.341600
  C    -12.891200   72.131800   55.349900
  C    -13.710300   73.153600   55.803000
  H    -11.159600   70.928100   56.308600
  C    -12.963600   71.389600   54.069400
  H    -11.964400   71.207500   53.785300
  H    -13.313100   72.046600   53.314300
  C    -13.703700   70.021100   54.185100
  H    -14.653600   70.142300   54.611800
  H    -13.060000   69.419700   54.862000
  C    -13.957600   69.331400   52.909500
  H    -14.657900   68.460600   53.056700
  H    -13.091700   68.819600   52.467900
  H    -14.447300   70.017500   52.152200
  H    -16.708600   76.523000   53.337600
  H    -11.278700   72.274700   58.330900

 Total Charge           Charge          ....    0
 Multiplicity           Mult            ....    1
 Number of Electrons    NEL             ....  134
 Basis Dimension        Dim             ....  322

ORBITAL ENERGIES
----------------

  NO   OCC          E(Eh)            E(eV)
   0   2.0000     -88.970937     -2421.0223
   1   2.0000     -88.957717     -2420.6625
   2   2.0000     -10.333847      -281.1983
   3   2.0000     -10.330523      -281.1078
   4   2.0000     -10.327217      -281.0179
   5   2.0000     -10.317424      -280.7514
   6   2.0000     -10.307043      -280.4689
   7   2.0000     -10.300269      -280.2846
   8   2.0000     -10.299084      -280.2523
   9   2.0000     -10.294827      -280.1365
  10   2.0000     -10.292158      -280.0639
  11   2.0000     -10.291002      -280.0324
  12   2.0000     -10.284282      -279.8495
  13   2.0000     -10.282887      -279.8116
  14   2.0000     -10.282337      -279.7966
  15   2.0000     -10.281337      -279.7694
  16   2.0000      -8.084591      -219.9929
  17   2.0000      -8.071363      -219.6329
  18   2.0000      -6.043193      -164.4436
  19   2.0000      -6.039306      -164.3379
  20   2.0000      -6.035251      -164.2275
  21   2.0000      -6.030179      -164.0895
  22   2.0000      -6.025947      -163.9743
  23   2.0000      -6.021888      -163.8639
  24   2.0000      -0.997867       -27.1533
  25   2.0000      -0.977620       -26.6024
  26   2.0000      -0.914451       -24.8835
  27   2.0000      -0.904146       -24.6031
  28   2.0000      -0.866616       -23.5818
  29   2.0000      -0.856268       -23.3002
  30   2.0000      -0.839508       -22.8442
  31   2.0000      -0.816314       -22.2130
  32   2.0000      -0.779441       -21.2097
  33   2.0000      -0.765017       -20.8172
  34   2.0000      -0.709028       -19.2936
  35   2.0000      -0.700978       -19.0746
  36   2.0000      -0.692992       -18.8573
  37   2.0000      -0.661156       -17.9910
  38   2.0000      -0.646878       -17.6024
  39   2.0000      -0.619705       -16.8630
  40   2.0000      -0.590489       -16.0680
  41   2.0000      -0.574520       -15.6335
  42   2.0000      -0.564543       -15.3620
  43   2.0000      -0.552964       -15.0469
  44   2.0000      -0.528028       -14.3684
  45   2.0000      -0.524532       -14.2733
  46   2.0000      -0.518094       -14.0981
  47   2.0000      -0.513094       -13.9620
  48   2.0000      -0.510159       -13.8821
  49   2.0000      -0.502883       -13.6841
  50   2.0000      -0.490075       -13.3356
  51   2.0000      -0.477163       -12.9843
  52   2.0000      -0.469007       -12.7623
  53   2.0000      -0.463491       -12.6122
  54   2.0000      -0.454703       -12.3731
  55   2.0000      -0.451888       -12.2965
  56   2.0000      -0.443774       -12.0757
  57   2.0000      -0.432902       -11.7799
  58   2.0000      -0.432118       -11.7585
  59   2.0000      -0.424742       -11.5578
  60   2.0000      -0.420952       -11.4547
  61   2.0000      -0.414245       -11.2722
  62   2.0000      -0.401570       -10.9273
  63   2.0000      -0.336824        -9.1654
  64   2.0000      -0.330681        -8.9983
  65   2.0000      -0.321633        -8.7521
  66   2.0000      -0.309352        -8.4179
  67   0.0000       0.036069         0.9815
  68   0.0000       0.056714         1.5433
  69   0.0000       0.110132         2.9968
  70   0.0000       0.121906         3.3172
  71   0.0000       0.124627         3.3913

MULLIKEN ATOMIC CHARGES
-----------------------
   0 S :    0.073788
   1 C :   -0.124876
   2 C :   -0.057505
   3 C :    0.049631
   4 C :   -0.144136
   5 H :   -0.001387
   6 C :    0.057093
   7 H :    0.018993
   8 H :    0.031912
   9 C :   -0.081586
  10 H :    0.028107
  11 H :    0.035205
  12 C :   -0.070848
  13 H :    0.028869
  14 H :    0.032217
  15 H :    0.041049
  16 S :    0.126962
  17 C :   -0.112887
  18 C :   -0.044545
  19 C :   -0.027232
  20 C :   -0.181937
  21 H :    0.019306
  22 C :    0.123607
  23 H :    0.003787
  24 H :    0.012685
  25 C :   -0.043801
  26 H :    0.017812
  27 H :    0.027509
  28 C :   -0.067055
  29 H :    0.034365
  30 H :    0.030454
  31 H :    0.043452
  32 H :    0.049622
  33 H :    0.071370
Sum of atomic charges:    0.0000000

LOEWDIN ATOMIC CHARGES
----------------------
   0 S :    0.354825
   1 C :   -0.171844
   2 C :   -0.067693
   3 C :   -0.058486
   4 C :   -0.172964
   5 H :    0.024450
   6 C :   -0.031678
   7 H :    0.031576
   8 H :    0.028361
   9 C :   -0.045286
  10 H :    0.023869
  11 H :    0.027370
  12 C :   -0.070471
  13 H :    0.023364
  14 H :    0.022395
  15 H :    0.031209
  16 S :    0.398016
  17 C :   -0.183363
  18 C :   -0.069640
  19 C :   -0.039421
  20 C :   -0.204489
  21 H :    0.029393
  22 C :   -0.027195
  23 H :    0.026086
  24 H :    0.025339
  25 C :   -0.034443
  26 H :    0.018671
  27 H :    0.028726
  28 C :   -0.074326
  29 H :    0.032017
  30 H :    0.023358
  31 H :    0.033094
  32 H :    0.029941
  33 H :    0.039240

  Mayer bond orders larger than 0.100000
B(  0-S ,  1-C ) :   1.1148 B(  0-S ,  4-C ) :   1.1213 B(  1-C ,  2-C ) :   1.6310
B(  1-C , 32-H ) :   0.9816 B(  2-C ,  3-C ) :   1.2172 B(  2-C ,  6-C ) :   1.0119
B(  3-C ,  4-C ) :   1.6222 B(  3-C ,  5-H ) :   0.9969 B(  4-C , 20-C ) :   1.0237
B(  6-C ,  7-H ) :   0.9502 B(  6-C ,  8-H ) :   0.9365 B(  6-C ,  9-C ) :   1.0527
B(  9-C , 10-H ) :   0.9579 B(  9-C , 11-H ) :   0.9571 B(  9-C , 12-C ) :   1.0732
B( 12-C , 13-H ) :   0.9765 B( 12-C , 14-H ) :   0.9777 B( 12-C , 15-H ) :   0.9736
B( 16-S , 17-C ) :   1.1550 B( 16-S , 20-C ) :   1.1224 B( 17-C , 18-C ) :   1.6330
B( 17-C , 33-H ) :   0.9587 B( 18-C , 19-C ) :   1.2063 B( 18-C , 21-H ) :   0.9895
B( 19-C , 20-C ) :   1.6212 B( 19-C , 22-C ) :   1.0675 B( 22-C , 23-H ) :   0.9205
B( 22-C , 24-H ) :   0.9201 B( 22-C , 25-C ) :   1.0575 B( 25-C , 26-H ) :   0.9553
B( 25-C , 27-H ) :   0.9493 B( 25-C , 28-C ) :   1.1009 B( 28-C , 29-H ) :   0.9711
B( 28-C , 30-H ) :   0.9717 B( 28-C , 31-H ) :   0.9701

Dispersion correction           -0.013785230
FINAL SINGLE POINT ENERGY     -1339.870965327968

DIPOLE MOMENT
-------------
                                X             Y             Z
Electronic contribution:     18.33206      14.96453      13.30894
Nuclear contribution   :    -18.59092     -15.56874     -13.50166
                        -----------------------------------------
Total Dipole Moment    :     -0.25886      -0.60420      -0.19273
                        -----------------------------------------
Magnitude (a.u.)       :      0.68499
Magnitude (Debye)      :      1.74111

Rotational constants in cm-1:     0.018339     0.007755     0.006360
Rotational constants in MHz :   549.783358   232.494027   190.679859

                             ****ORCA TERMINATED NORMALLY****
TOTAL RUN TIME: 0 days 0 hours 0 minutes 32 seconds 707 msec
