                         Program Version 4.2.1 -  RELEASE  -
|  1> ! wB97X-D3 SP def2-SVP
|  2> %pal
|  3> nprocs 16
|  4> end
|  5>
|  6> * xyz 0 1
|  7> S 	 -5.9366 	 50.8168 	 31.3891
|  8> C 	 -5.73816 	 49.2663 	 32.1238
|  9> C 	 -6.71273 	 48.8448 	 33.0269
| 10> C 	 -7.70999 	 49.9047 	 33.1161
| 11> C 	 -7.54954 	 50.8562 	 32.088
| 12> H 	 -8.70137 	 49.9456 	 33.6639
| 13> C 	 -6.78485 	 47.554 	 33.7825
| 14> H 	 -6.34532 	 46.7672 	 33.1903
| 15> H 	 -7.83557 	 47.2725 	 34.0161
| 16> C 	 -5.92377 	 47.5892 	 35.0327
| 17> H 	 -4.84251 	 47.6451 	 34.814
| 18> H 	 -6.23155 	 48.4034 	 35.6718
| 19> C 	 -6.05953 	 46.3025 	 35.8201
| 20> H 	 -6.84635 	 46.1562 	 36.5734
| 21> H 	 -6.11473 	 45.4835 	 35.1968
| 22> H 	 -5.12341 	 46.2153 	 36.3296
| 23> S 	 -7.825 	 53.5464 	 31.6252
| 24> C 	 -9.34753 	 54.297 	 31.5382
| 25> C 	 -10.3368 	 53.3088 	 31.5436
| 26> C 	 -9.86173 	 52.0068 	 31.9565
| 27> C 	 -8.47505 	 51.9665 	 31.9252
| 28> H 	 -11.3635 	 53.5071 	 31.3269
| 29> C 	 -10.8023 	 50.8491 	 32.1653
| 30> H 	 -10.3255 	 49.8936 	 32.2998
| 31> H 	 -11.3522 	 50.72 	 31.2205
| 32> C 	 -11.6098 	 50.9468 	 33.4367
| 33> H 	 -12.2703 	 51.8121 	 33.4407
| 34> H 	 -11.0111 	 51.1345 	 34.2911
| 35> C 	 -12.3086 	 49.621 	 33.744
| 36> H 	 -11.6386 	 48.8443 	 34.0059
| 37> H 	 -12.9837 	 49.1907 	 32.9873
| 38> H 	 -13.014 	 49.7109 	 34.5676
| 39> H 	 -4.79222 	 48.8353 	 32.0053
| 40> H 	 -9.64907 	 55.2733 	 31.1777
| 41> *
| 42>
| 43>                          ****END OF INPUT****

CARTESIAN COORDINATES (ANGSTROEM)
---------------------------------
  S     -5.936600   50.816800   31.389100
  C     -5.738160   49.266300   32.123800
  C     -6.712730   48.844800   33.026900
  C     -7.709990   49.904700   33.116100
  C     -7.549540   50.856200   32.088000
  H     -8.701370   49.945600   33.663900
  C     -6.784850   47.554000   33.782500
  H     -6.345320   46.767200   33.190300
  H     -7.835570   47.272500   34.016100
  C     -5.923770   47.589200   35.032700
  H     -4.842510   47.645100   34.814000
  H     -6.231550   48.403400   35.671800
  C     -6.059530   46.302500   35.820100
  H     -6.846350   46.156200   36.573400
  H     -6.114730   45.483500   35.196800
  H     -5.123410   46.215300   36.329600
  S     -7.825000   53.546400   31.625200
  C     -9.347530   54.297000   31.538200
  C    -10.336800   53.308800   31.543600
  C     -9.861730   52.006800   31.956500
  C     -8.475050   51.966500   31.925200
  H    -11.363500   53.507100   31.326900
  C    -10.802300   50.849100   32.165300
  H    -10.325500   49.893600   32.299800
  H    -11.352200   50.720000   31.220500
  C    -11.609800   50.946800   33.436700
  H    -12.270300   51.812100   33.440700
  H    -11.011100   51.134500   34.291100
  C    -12.308600   49.621000   33.744000
  H    -11.638600   48.844300   34.005900
  H    -12.983700   49.190700   32.987300
  H    -13.014000   49.710900   34.567600
  H     -4.792220   48.835300   32.005300
  H     -9.649070   55.273300   31.177700

 Total Charge           Charge          ....    0
 Multiplicity           Mult            ....    1
 Number of Electrons    NEL             ....  134
 Basis Dimension        Dim             ....  322

ORBITAL ENERGIES
----------------

  NO   OCC          E(Eh)            E(eV)
   0   2.0000     -88.969637     -2420.9869
   1   2.0000     -88.963614     -2420.8230
   2   2.0000     -10.329116      -281.0695
   3   2.0000     -10.322889      -280.9001
   4   2.0000     -10.312673      -280.6221
   5   2.0000     -10.309017      -280.5226
   6   2.0000     -10.307298      -280.4758
   7   2.0000     -10.302181      -280.3366
   8   2.0000     -10.300017      -280.2777
   9   2.0000     -10.293917      -280.1117
  10   2.0000     -10.291875      -280.0562
  11   2.0000     -10.287916      -279.9484
  12   2.0000     -10.285301      -279.8773
  13   2.0000     -10.284068      -279.8437
  14   2.0000     -10.276365      -279.6341
  15   2.0000     -10.267425      -279.3908
  16   2.0000      -8.084676      -219.9952
  17   2.0000      -8.079375      -219.8510
  18   2.0000      -6.043049      -164.4397
  19   2.0000      -6.039463      -164.3422
  20   2.0000      -6.037931      -164.3005
  21   2.0000      -6.035253      -164.2276
  22   2.0000      -6.033678      -164.1847
  23   2.0000      -6.030094      -164.0872
  24   2.0000      -1.008842       -27.4520
  25   2.0000      -0.985172       -26.8079
  26   2.0000      -0.920282       -25.0422
  27   2.0000      -0.917053       -24.9543
  28   2.0000      -0.869961       -23.6728
  29   2.0000      -0.857300       -23.3283
  30   2.0000      -0.848262       -23.0824
  31   2.0000      -0.811063       -22.0701
  32   2.0000      -0.784741       -21.3539
  33   2.0000      -0.773712       -21.0538
  34   2.0000      -0.709757       -19.3135
  35   2.0000      -0.701981       -19.1019
  36   2.0000      -0.695200       -18.9174
  37   2.0000      -0.664777       -18.0895
  38   2.0000      -0.641112       -17.4455
  39   2.0000      -0.619328       -16.8528
  40   2.0000      -0.600171       -16.3315
  41   2.0000      -0.575127       -15.6500
  42   2.0000      -0.565364       -15.3843
  43   2.0000      -0.561611       -15.2822
  44   2.0000      -0.530654       -14.4398
  45   2.0000      -0.524576       -14.2744
  46   2.0000      -0.519661       -14.1407
  47   2.0000      -0.512214       -13.9381
  48   2.0000      -0.505879       -13.7657
  49   2.0000      -0.502414       -13.6714
  50   2.0000      -0.488231       -13.2854
  51   2.0000      -0.483436       -13.1550
  52   2.0000      -0.467278       -12.7153
  53   2.0000      -0.465560       -12.6685
  54   2.0000      -0.462750       -12.5921
  55   2.0000      -0.452581       -12.3153
  56   2.0000      -0.443124       -12.0580
  57   2.0000      -0.440204       -11.9785
  58   2.0000      -0.438528       -11.9329
  59   2.0000      -0.431365       -11.7380
  60   2.0000      -0.424475       -11.5505
  61   2.0000      -0.422439       -11.4952
  62   2.0000      -0.408050       -11.1036
  63   2.0000      -0.352219        -9.5844
  64   2.0000      -0.329581        -8.9683
  65   2.0000      -0.325686        -8.8624
  66   2.0000      -0.282429        -7.6853
  67   0.0000       0.024389         0.6636
  68   0.0000       0.076481         2.0812
  69   0.0000       0.105125         2.8606
  70   0.0000       0.113749         3.0953
  71   0.0000       0.126345         3.4380

MULLIKEN ATOMIC CHARGES
-----------------------
   0 S :    0.113524
   1 C :   -0.096942
   2 C :   -0.062542
   3 C :   -0.020386
   4 C :   -0.139598
   5 H :    0.039107
   6 C :    0.081850
   7 H :    0.020328
   8 H :    0.034786
   9 C :   -0.098922
  10 H :    0.035618
  11 H :    0.031945
  12 C :   -0.001869
  13 H :    0.036415
  14 H :   -0.001336
  15 H :    0.017627
  16 S :    0.106436
  17 C :   -0.071303
  18 C :   -0.046989
  19 C :   -0.062262
  20 C :   -0.136695
  21 H :    0.010699
  22 C :    0.059844
  23 H :    0.000798
  24 H :    0.040465
  25 C :   -0.045652
  26 H :    0.022015
  27 H :    0.021345
  28 C :   -0.046996
  29 H :    0.023434
  30 H :    0.026688
  31 H :    0.024685
  32 H :    0.024311
  33 H :    0.059571
Sum of atomic charges:   -0.0000000

LOEWDIN ATOMIC CHARGES
----------------------
   0 S :    0.409693
   1 C :   -0.193783
   2 C :   -0.054070
   3 C :   -0.063597
   4 C :   -0.190134
   5 H :    0.040653
   6 C :   -0.033536
   7 H :    0.031923
   8 H :    0.035861
   9 C :   -0.034901
  10 H :    0.029845
  11 H :    0.024461
  12 C :   -0.064032
  13 H :    0.027024
  14 H :    0.011141
  15 H :    0.026429
  16 S :    0.426752
  17 C :   -0.213645
  18 C :   -0.063058
  19 C :   -0.060390
  20 C :   -0.201186
  21 H :    0.023414
  22 C :   -0.035378
  23 H :    0.023508
  24 H :    0.038240
  25 C :   -0.035937
  26 H :    0.021842
  27 H :    0.023621
  28 C :   -0.067847
  29 H :    0.018559
  30 H :    0.026757
  31 H :    0.027369
  32 H :    0.009487
  33 H :    0.034919

  Mayer bond orders larger than 0.100000
B(  0-S ,  1-C ) :   1.1444 B(  0-S ,  4-C ) :   1.1457 B(  1-C ,  2-C ) :   1.6050
B(  1-C , 32-H ) :   0.9703 B(  2-C ,  3-C ) :   1.2259 B(  2-C ,  6-C ) :   1.0334
B(  3-C ,  4-C ) :   1.5661 B(  3-C ,  5-H ) :   0.9749 B(  4-C , 20-C ) :   1.0788
B(  6-C ,  7-H ) :   0.9270 B(  6-C ,  8-H ) :   0.9441 B(  6-C ,  9-C ) :   1.0756
B(  9-C , 10-H ) :   0.9607 B(  9-C , 11-H ) :   0.9559 B(  9-C , 12-C ) :   1.0784
B( 12-C , 13-H ) :   0.9750 B( 12-C , 14-H ) :   0.9668 B( 12-C , 15-H ) :   0.9741
B( 16-S , 17-C ) :   1.1589 B( 16-S , 20-C ) :   1.1431 B( 17-C , 18-C ) :   1.5955
B( 17-C , 33-H ) :   0.9649 B( 18-C , 19-C ) :   1.2580 B( 18-C , 21-H ) :   0.9873
B( 19-C , 20-C ) :   1.5749 B( 19-C , 22-C ) :   1.0515 B( 22-C , 23-H ) :   0.9365
B( 22-C , 24-H ) :   0.9314 B( 22-C , 25-C ) :   1.0507 B( 25-C , 26-H ) :   0.9544
B( 25-C , 27-H ) :   0.9486 B( 25-C , 28-C ) :   1.0869 B( 28-C , 29-H ) :   0.9721
B( 28-C , 30-H ) :   0.9734 B( 28-C , 31-H ) :   0.9719

Dispersion correction           -0.013772267
FINAL SINGLE POINT ENERGY     -1339.862020080857

DIPOLE MOMENT
-------------
                                X             Y             Z
Electronic contribution:     13.01663      23.16860     -17.91418
Nuclear contribution   :    -13.37016     -23.68250      18.20775
                        -----------------------------------------
Total Dipole Moment    :     -0.35353      -0.51390       0.29357
                        -----------------------------------------
Magnitude (a.u.)       :      0.68939
Magnitude (Debye)      :      1.75230

Rotational constants in cm-1:     0.017698     0.008800     0.006255
Rotational constants in MHz :   530.568615   263.831990   187.518998

                             ****ORCA TERMINATED NORMALLY****
TOTAL RUN TIME: 0 days 0 hours 0 minutes 33 seconds 866 msec
