                         Program Version 4.2.1 -  RELEASE  -
|  1> ! wB97X-D3 SP def2-SVP
|  2> %pal
|  3> nprocs 16
|  4> end
|  5>
|  6> * xyz 0 1
|  7> S 	 23.3224 	 0.455418 	 86.1648
|  8> C 	 23.4709 	 2.16014 	 86.0651
|  9> C 	 22.9108 	 2.71952 	 84.9374
| 10> C 	 22.0162 	 1.78689 	 84.2951
| 11> C 	 22.1868 	 0.493094 	 84.7762
| 12> H 	 21.4013 	 2.08301 	 83.4455
| 13> C 	 23.1186 	 4.23024 	 84.6108
| 14> H 	 23.9682 	 4.48974 	 85.2303
| 15> H 	 22.3666 	 4.91421 	 85.0179
| 16> C 	 23.5485 	 4.60002 	 83.2482
| 17> H 	 24.4404 	 3.99277 	 83.0867
| 18> H 	 22.8656 	 4.19393 	 82.4517
| 19> C 	 23.8234 	 6.17635 	 83.1468
| 20> H 	 24.7499 	 6.57068 	 83.5922
| 21> H 	 23.8119 	 6.45279 	 82.1129
| 22> H 	 22.9708 	 6.68108 	 83.6059
| 23> S 	 20.6685 	 -1.66466 	 85.4023
| 24> C 	 20.0964 	 -2.79795 	 84.1977
| 25> C 	 20.2257 	 -2.23257 	 82.9394
| 26> C 	 20.9221 	 -0.908176 	 82.9871
| 27> C 	 21.4666 	 -0.668526 	 84.2167
| 28> H 	 19.8266 	 -2.74847 	 82.0936
| 29> C 	 21.3509 	 -0.20306 	 81.6901
| 30> H 	 22.1399 	 0.556274 	 81.9743
| 31> H 	 20.4672 	 0.272518 	 81.1472
| 32> C 	 22.0416 	 -1.07542 	 80.6189
| 33> H 	 21.3602 	 -1.86738 	 80.2541
| 34> H 	 22.8837 	 -1.49291 	 81.0468
| 35> C 	 22.6081 	 -0.201212 	 79.4038
| 36> H 	 23.4899 	 0.388745 	 79.6994
| 37> H 	 21.8767 	 0.425326 	 78.8027
| 38> H 	 23.0318 	 -0.9072 	 78.6508
| 39> H 	 24.236 	 2.7356 	 86.6165
| 40> H 	 19.5819 	 -3.75268 	 84.3073
| 41> *
| 42>
| 43>                          ****END OF INPUT****

CARTESIAN COORDINATES (ANGSTROEM)
---------------------------------
  S     23.322400    0.455418   86.164800
  C     23.470900    2.160140   86.065100
  C     22.910800    2.719520   84.937400
  C     22.016200    1.786890   84.295100
  C     22.186800    0.493094   84.776200
  H     21.401300    2.083010   83.445500
  C     23.118600    4.230240   84.610800
  H     23.968200    4.489740   85.230300
  H     22.366600    4.914210   85.017900
  C     23.548500    4.600020   83.248200
  H     24.440400    3.992770   83.086700
  H     22.865600    4.193930   82.451700
  C     23.823400    6.176350   83.146800
  H     24.749900    6.570680   83.592200
  H     23.811900    6.452790   82.112900
  H     22.970800    6.681080   83.605900
  S     20.668500   -1.664660   85.402300
  C     20.096400   -2.797950   84.197700
  C     20.225700   -2.232570   82.939400
  C     20.922100   -0.908176   82.987100
  C     21.466600   -0.668526   84.216700
  H     19.826600   -2.748470   82.093600
  C     21.350900   -0.203060   81.690100
  H     22.139900    0.556274   81.974300
  H     20.467200    0.272518   81.147200
  C     22.041600   -1.075420   80.618900
  H     21.360200   -1.867380   80.254100
  H     22.883700   -1.492910   81.046800
  C     22.608100   -0.201212   79.403800
  H     23.489900    0.388745   79.699400
  H     21.876700    0.425326   78.802700
  H     23.031800   -0.907200   78.650800
  H     24.236000    2.735600   86.616500
  H     19.581900   -3.752680   84.307300

 Total Charge           Charge          ....    0
 Multiplicity           Mult            ....    1
 Number of Electrons    NEL             ....  134
 Basis Dimension        Dim             ....  322

ORBITAL ENERGIES
----------------

  NO   OCC          E(Eh)            E(eV)
   0   2.0000     -88.973572     -2421.0940
   1   2.0000     -88.959076     -2420.6995
   2   2.0000     -10.336941      -281.2825
   3   2.0000     -10.327119      -281.0152
   4   2.0000     -10.317285      -280.7476
   5   2.0000     -10.314319      -280.6669
   6   2.0000     -10.308635      -280.5122
   7   2.0000     -10.304185      -280.3911
   8   2.0000     -10.300566      -280.2926
   9   2.0000     -10.299841      -280.2729
  10   2.0000     -10.297521      -280.2098
  11   2.0000     -10.292989      -280.0865
  12   2.0000     -10.290904      -280.0297
  13   2.0000     -10.290043      -280.0063
  14   2.0000     -10.287657      -279.9414
  15   2.0000     -10.286371      -279.9064
  16   2.0000      -8.087886      -220.0826
  17   2.0000      -8.074369      -219.7148
  18   2.0000      -6.046410      -164.5312
  19   2.0000      -6.042548      -164.4261
  20   2.0000      -6.038549      -164.3173
  21   2.0000      -6.033060      -164.1679
  22   2.0000      -6.028906      -164.0549
  23   2.0000      -6.024760      -163.9420
  24   2.0000      -1.005992       -27.3744
  25   2.0000      -0.983745       -26.7691
  26   2.0000      -0.912734       -24.8367
  27   2.0000      -0.899828       -24.4856
  28   2.0000      -0.870435       -23.6857
  29   2.0000      -0.849140       -23.1063
  30   2.0000      -0.836508       -22.7626
  31   2.0000      -0.815218       -22.1832
  32   2.0000      -0.779961       -21.2238
  33   2.0000      -0.768031       -20.8992
  34   2.0000      -0.711099       -19.3500
  35   2.0000      -0.695883       -18.9360
  36   2.0000      -0.689214       -18.7545
  37   2.0000      -0.658244       -17.9117
  38   2.0000      -0.636510       -17.3203
  39   2.0000      -0.624250       -16.9867
  40   2.0000      -0.587485       -15.9863
  41   2.0000      -0.573034       -15.5930
  42   2.0000      -0.567974       -15.4554
  43   2.0000      -0.557619       -15.1736
  44   2.0000      -0.523729       -14.2514
  45   2.0000      -0.516483       -14.0542
  46   2.0000      -0.508773       -13.8444
  47   2.0000      -0.507959       -13.8223
  48   2.0000      -0.500327       -13.6146
  49   2.0000      -0.491751       -13.3812
  50   2.0000      -0.486767       -13.2456
  51   2.0000      -0.482952       -13.1418
  52   2.0000      -0.471548       -12.8315
  53   2.0000      -0.466057       -12.6820
  54   2.0000      -0.460325       -12.5261
  55   2.0000      -0.452254       -12.3065
  56   2.0000      -0.443201       -12.0601
  57   2.0000      -0.440944       -11.9987
  58   2.0000      -0.433332       -11.7916
  59   2.0000      -0.424007       -11.5378
  60   2.0000      -0.420914       -11.4537
  61   2.0000      -0.414770       -11.2865
  62   2.0000      -0.410139       -11.1604
  63   2.0000      -0.354623        -9.6498
  64   2.0000      -0.334256        -9.0956
  65   2.0000      -0.321782        -8.7561
  66   2.0000      -0.294154        -8.0043
  67   0.0000       0.023700         0.6449
  68   0.0000       0.077312         2.1038
  69   0.0000       0.102722         2.7952
  70   0.0000       0.110014         2.9936
  71   0.0000       0.133778         3.6403

MULLIKEN ATOMIC CHARGES
-----------------------
   0 S :    0.132052
   1 C :   -0.111032
   2 C :   -0.116459
   3 C :    0.027693
   4 C :   -0.145702
   5 H :    0.030050
   6 C :    0.065261
   7 H :   -0.000669
   8 H :    0.037747
   9 C :   -0.098663
  10 H :    0.026618
  11 H :    0.034860
  12 C :   -0.044395
  13 H :    0.047238
  14 H :    0.031322
  15 H :    0.030537
  16 S :    0.087508
  17 C :   -0.078466
  18 C :   -0.043766
  19 C :   -0.017193
  20 C :   -0.125569
  21 H :    0.015995
  22 C :   -0.014532
  23 H :    0.038717
  24 H :    0.043394
  25 C :   -0.048059
  26 H :    0.037162
  27 H :    0.020659
  28 C :   -0.103536
  29 H :    0.041636
  30 H :    0.044822
  31 H :    0.035100
  32 H :    0.060222
  33 H :    0.059449
Sum of atomic charges:   -0.0000000

LOEWDIN ATOMIC CHARGES
----------------------
   0 S :    0.409637
   1 C :   -0.208697
   2 C :   -0.063016
   3 C :   -0.052101
   4 C :   -0.187370
   5 H :    0.035823
   6 C :   -0.040661
   7 H :    0.028835
   8 H :    0.028800
   9 C :   -0.046768
  10 H :    0.025434
  11 H :    0.024873
  12 C :   -0.061320
  13 H :    0.030384
  14 H :    0.024910
  15 H :    0.026260
  16 S :    0.395964
  17 C :   -0.187347
  18 C :   -0.066163
  19 C :   -0.059901
  20 C :   -0.192201
  21 H :    0.026095
  22 C :   -0.045861
  23 H :    0.035006
  24 H :    0.036670
  25 C :   -0.032555
  26 H :    0.023247
  27 H :    0.016220
  28 C :   -0.078242
  29 H :    0.026566
  30 H :    0.029002
  31 H :    0.029952
  32 H :    0.032871
  33 H :    0.035654

  Mayer bond orders larger than 0.100000
B(  0-S ,  1-C ) :   1.1437 B(  0-S ,  4-C ) :   1.1399 B(  1-C ,  2-C ) :   1.6364
B(  1-C , 32-H ) :   0.9515 B(  2-C ,  3-C ) :   1.2369 B(  2-C ,  6-C ) :   1.0126
B(  3-C ,  4-C ) :   1.5675 B(  3-C ,  5-H ) :   0.9857 B(  4-C , 20-C ) :   1.0387
B(  6-C ,  7-H ) :   0.9371 B(  6-C ,  8-H ) :   0.9435 B(  6-C ,  9-C ) :   1.0570
B(  9-C , 10-H ) :   0.9552 B(  9-C , 11-H ) :   0.9609 B(  9-C , 12-C ) :   1.0606
B( 12-C , 13-H ) :   0.9782 B( 12-C , 14-H ) :   0.9766 B( 12-C , 15-H ) :   0.9770
B( 16-S , 17-C ) :   1.1291 B( 16-S , 20-C ) :   1.1305 B( 17-C , 18-C ) :   1.6587
B( 17-C , 33-H ) :   0.9673 B( 18-C , 19-C ) :   1.1707 B( 18-C , 21-H ) :   0.9918
B( 19-C , 20-C ) :   1.6347 B( 19-C , 22-C ) :   1.0465 B( 22-C , 23-H ) :   0.9456
B( 22-C , 24-H ) :   0.9317 B( 22-C , 25-C ) :   1.0673 B( 25-C , 26-H ) :   0.9540
B( 25-C , 27-H ) :   0.9547 B( 25-C , 28-C ) :   1.0755 B( 28-C , 29-H ) :   0.9760
B( 28-C , 30-H ) :   0.9773 B( 28-C , 31-H ) :   0.9750

Dispersion correction           -0.013440167
FINAL SINGLE POINT ENERGY     -1339.858045743449

DIPOLE MOMENT
-------------
                                X             Y             Z
Electronic contribution:     -6.68887     -19.59247      25.13251
Nuclear contribution   :      6.81953      19.98954     -25.75610
                        -----------------------------------------
Total Dipole Moment    :      0.13065       0.39707      -0.62359
                        -----------------------------------------
Magnitude (a.u.)       :      0.75073
Magnitude (Debye)      :      1.90820

Rotational constants in cm-1:     0.016667     0.008731     0.006187
Rotational constants in MHz :   499.652031   261.734850   185.485723

                             ****ORCA TERMINATED NORMALLY****
TOTAL RUN TIME: 0 days 0 hours 0 minutes 33 seconds 677 msec
