                         Program Version 4.2.1 -  RELEASE  -
|  1> ! wB97X-D3 SP def2-SVP
|  2> %pal
|  3> nprocs 16
|  4> end
|  5>
|  6> * xyz 0 1
|  7> S 	 -35.3718 	 60.9163 	 107.833
|  8> C 	 -35.7148 	 59.2138 	 107.882
|  9> C 	 -35.4154 	 58.6416 	 106.645
| 10> C 	 -35.0763 	 59.577 	 105.629
| 11> C 	 -34.9378 	 60.8298 	 106.105
| 12> H 	 -34.9211 	 59.4659 	 104.553
| 13> C 	 -35.6405 	 57.2264 	 106.321
| 14> H 	 -35.905 	 57.1046 	 105.258
| 15> H 	 -36.3696 	 56.8607 	 106.98
| 16> C 	 -34.3475 	 56.3137 	 106.477
| 17> H 	 -34.0614 	 56.4327 	 107.531
| 18> H 	 -34.5546 	 55.259 	 106.476
| 19> C 	 -33.1619 	 56.6963 	 105.522
| 20> H 	 -32.4308 	 55.8793 	 105.504
| 21> H 	 -33.6462 	 56.9042 	 104.594
| 22> H 	 -32.5017 	 57.5595 	 105.861
| 23> S 	 -32.9458 	 62.6878 	 105.988
| 24> C 	 -32.7775 	 63.5858 	 104.478
| 25> C 	 -33.7673 	 63.2769 	 103.587
| 26> C 	 -34.7712 	 62.3519 	 104.161
| 27> C 	 -34.4093 	 61.9396 	 105.416
| 28> H 	 -33.8459 	 63.7874 	 102.618
| 29> C 	 -36.0328 	 62.0071 	 103.345
| 30> H 	 -36.4871 	 61.0924 	 103.68
| 31> H 	 -35.6715 	 61.8424 	 102.354
| 32> C 	 -36.9491 	 63.2384 	 103.303
| 33> H 	 -36.403 	 64.1416 	 102.886
| 34> H 	 -37.337 	 63.6331 	 104.246
| 35> C 	 -38.2155 	 63.2056 	 102.385
| 36> H 	 -38.5029 	 62.2023 	 102.131
| 37> H 	 -38.0512 	 63.7358 	 101.447
| 38> H 	 -39.0319 	 63.6102 	 103
| 39> H 	 -36.1765 	 58.6815 	 108.696
| 40> H 	 -31.9228 	 64.2262 	 104.241
| 41> *
| 42>
| 43>                          ****END OF INPUT****

CARTESIAN COORDINATES (ANGSTROEM)
---------------------------------
  S    -35.371800   60.916300  107.833000
  C    -35.714800   59.213800  107.882000
  C    -35.415400   58.641600  106.645000
  C    -35.076300   59.577000  105.629000
  C    -34.937800   60.829800  106.105000
  H    -34.921100   59.465900  104.553000
  C    -35.640500   57.226400  106.321000
  H    -35.905000   57.104600  105.258000
  H    -36.369600   56.860700  106.980000
  C    -34.347500   56.313700  106.477000
  H    -34.061400   56.432700  107.531000
  H    -34.554600   55.259000  106.476000
  C    -33.161900   56.696300  105.522000
  H    -32.430800   55.879300  105.504000
  H    -33.646200   56.904200  104.594000
  H    -32.501700   57.559500  105.861000
  S    -32.945800   62.687800  105.988000
  C    -32.777500   63.585800  104.478000
  C    -33.767300   63.276900  103.587000
  C    -34.771200   62.351900  104.161000
  C    -34.409300   61.939600  105.416000
  H    -33.845900   63.787400  102.618000
  C    -36.032800   62.007100  103.345000
  H    -36.487100   61.092400  103.680000
  H    -35.671500   61.842400  102.354000
  C    -36.949100   63.238400  103.303000
  H    -36.403000   64.141600  102.886000
  H    -37.337000   63.633100  104.246000
  C    -38.215500   63.205600  102.385000
  H    -38.502900   62.202300  102.131000
  H    -38.051200   63.735800  101.447000
  H    -39.031900   63.610200  103.000000
  H    -36.176500   58.681500  108.696000
  H    -31.922800   64.226200  104.241000

 Total Charge           Charge          ....    0
 Multiplicity           Mult            ....    1
 Number of Electrons    NEL             ....  134
 Basis Dimension        Dim             ....  322

ORBITAL ENERGIES
----------------

  NO   OCC          E(Eh)            E(eV)
   0   2.0000     -88.963174     -2420.8110
   1   2.0000     -88.963136     -2420.8100
   2   2.0000     -10.321827      -280.8712
   3   2.0000     -10.318981      -280.7937
   4   2.0000     -10.318947      -280.7928
   5   2.0000     -10.314194      -280.6635
   6   2.0000     -10.305271      -280.4207
   7   2.0000     -10.298429      -280.2345
   8   2.0000     -10.298102      -280.2256
   9   2.0000     -10.295231      -280.1475
  10   2.0000     -10.290886      -280.0292
  11   2.0000     -10.289685      -279.9966
  12   2.0000     -10.286766      -279.9171
  13   2.0000     -10.286409      -279.9074
  14   2.0000     -10.281506      -279.7740
  15   2.0000     -10.275739      -279.6171
  16   2.0000      -8.078228      -219.8198
  17   2.0000      -8.077758      -219.8070
  18   2.0000      -6.036918      -164.2729
  19   2.0000      -6.036286      -164.2557
  20   2.0000      -6.032738      -164.1592
  21   2.0000      -6.032298      -164.1472
  22   2.0000      -6.028702      -164.0493
  23   2.0000      -6.028505      -164.0440
  24   2.0000      -1.009896       -27.4807
  25   2.0000      -0.982728       -26.7414
  26   2.0000      -0.907866       -24.7043
  27   2.0000      -0.904925       -24.6243
  28   2.0000      -0.874148       -23.7868
  29   2.0000      -0.847796       -23.0697
  30   2.0000      -0.841376       -22.8950
  31   2.0000      -0.818177       -22.2637
  32   2.0000      -0.783951       -21.3324
  33   2.0000      -0.768068       -20.9002
  34   2.0000      -0.703443       -19.1417
  35   2.0000      -0.702450       -19.1146
  36   2.0000      -0.693970       -18.8839
  37   2.0000      -0.662401       -18.0248
  38   2.0000      -0.644457       -17.5366
  39   2.0000      -0.613863       -16.7041
  40   2.0000      -0.592861       -16.1326
  41   2.0000      -0.569547       -15.4982
  42   2.0000      -0.563075       -15.3220
  43   2.0000      -0.549819       -14.9613
  44   2.0000      -0.538673       -14.6580
  45   2.0000      -0.527104       -14.3432
  46   2.0000      -0.519704       -14.1419
  47   2.0000      -0.514654       -14.0044
  48   2.0000      -0.505816       -13.7640
  49   2.0000      -0.504242       -13.7211
  50   2.0000      -0.488147       -13.2832
  51   2.0000      -0.476362       -12.9625
  52   2.0000      -0.473890       -12.8952
  53   2.0000      -0.465305       -12.6616
  54   2.0000      -0.454869       -12.3776
  55   2.0000      -0.445139       -12.1128
  56   2.0000      -0.438974       -11.9451
  57   2.0000      -0.433776       -11.8036
  58   2.0000      -0.433357       -11.7922
  59   2.0000      -0.425803       -11.5867
  60   2.0000      -0.416434       -11.3317
  61   2.0000      -0.412483       -11.2242
  62   2.0000      -0.409964       -11.1557
  63   2.0000      -0.352378        -9.5887
  64   2.0000      -0.327997        -8.9253
  65   2.0000      -0.326009        -8.8712
  66   2.0000      -0.291745        -7.9388
  67   0.0000       0.035262         0.9595
  68   0.0000       0.069060         1.8792
  69   0.0000       0.112021         3.0482
  70   0.0000       0.117810         3.2058
  71   0.0000       0.128298         3.4912

MULLIKEN ATOMIC CHARGES
-----------------------
   0 S :    0.101428
   1 C :   -0.106938
   2 C :   -0.078721
   3 C :    0.034966
   4 C :   -0.182936
   5 H :    0.022424
   6 C :    0.070356
   7 H :    0.028346
   8 H :    0.008355
   9 C :   -0.081243
  10 H :    0.013864
  11 H :    0.026774
  12 C :   -0.059892
  13 H :    0.036475
  14 H :    0.025553
  15 H :    0.056222
  16 S :    0.105699
  17 C :   -0.097383
  18 C :   -0.039132
  19 C :   -0.088136
  20 C :   -0.128151
  21 H :    0.032704
  22 C :    0.165450
  23 H :    0.022331
  24 H :    0.013499
  25 C :   -0.140499
  26 H :    0.032428
  27 H :    0.035803
  28 C :   -0.034322
  29 H :    0.016432
  30 H :    0.038527
  31 H :    0.037281
  32 H :    0.048004
  33 H :    0.064432
Sum of atomic charges:    0.0000000

LOEWDIN ATOMIC CHARGES
----------------------
   0 S :    0.390254
   1 C :   -0.198332
   2 C :   -0.062095
   3 C :   -0.058500
   4 C :   -0.179717
   5 H :    0.037940
   6 C :   -0.027799
   7 H :    0.029511
   8 H :    0.023647
   9 C :   -0.040545
  10 H :    0.020073
  11 H :    0.019463
  12 C :   -0.070304
  13 H :    0.028439
  14 H :    0.017144
  15 H :    0.038707
  16 S :    0.396070
  17 C :   -0.180525
  18 C :   -0.071159
  19 C :   -0.048403
  20 C :   -0.209559
  21 H :    0.034649
  22 C :   -0.022751
  23 H :    0.025765
  24 H :    0.029629
  25 C :   -0.048448
  26 H :    0.031044
  27 H :    0.025944
  28 C :   -0.067633
  29 H :    0.017957
  30 H :    0.024847
  31 H :    0.031834
  32 H :    0.028990
  33 H :    0.033866

  Mayer bond orders larger than 0.100000
B(  0-S ,  1-C ) :   1.1308 B(  0-S ,  4-C ) :   1.1318 B(  1-C ,  2-C ) :   1.6075
B(  1-C , 32-H ) :   0.9711 B(  2-C ,  3-C ) :   1.2112 B(  2-C ,  6-C ) :   1.0406
B(  3-C ,  4-C ) :   1.6155 B(  3-C ,  5-H ) :   0.9883 B(  4-C , 20-C ) :   1.0396
B(  6-C ,  7-H ) :   0.9477 B(  6-C ,  8-H ) :   0.9351 B(  6-C ,  9-C ) :   1.0665
B(  9-C , 10-H ) :   0.9538 B(  9-C , 11-H ) :   0.9629 B(  9-C , 12-C ) :   1.0612
B( 12-C , 13-H ) :   0.9750 B( 12-C , 14-H ) :   0.9790 B( 12-C , 15-H ) :   0.9738
B( 16-S , 17-C ) :   1.1301 B( 16-S , 20-C ) :   1.1207 B( 17-C , 18-C ) :   1.6592
B( 17-C , 33-H ) :   0.9651 B( 18-C , 19-C ) :   1.1934 B( 18-C , 21-H ) :   0.9811
B( 19-C , 20-C ) :   1.6398 B( 19-C , 22-C ) :   1.0398 B( 22-C , 23-H ) :   0.9304
B( 22-C , 24-H ) :   0.9261 B( 22-C , 25-C ) :   1.0575 B( 25-C , 26-H ) :   0.9624
B( 25-C , 27-H ) :   0.9694 B( 25-C , 28-C ) :   1.0605 B( 28-C , 29-H ) :   0.9770
B( 28-C , 30-H ) :   0.9818 B( 28-C , 31-H ) :   0.9815

Dispersion correction           -0.014285670
FINAL SINGLE POINT ENERGY     -1339.870744759791

DIPOLE MOMENT
-------------
                                X             Y             Z
Electronic contribution:      9.30993      12.00882      15.71622
Nuclear contribution   :     -9.49827     -12.30570     -16.27185
                        -----------------------------------------
Total Dipole Moment    :     -0.18833      -0.29689      -0.55563
                        -----------------------------------------
Magnitude (a.u.)       :      0.65752
Magnitude (Debye)      :      1.67128

Rotational constants in cm-1:     0.017802     0.008424     0.007457
Rotational constants in MHz :   533.676422   252.540811   223.545270

                             ****ORCA TERMINATED NORMALLY****
TOTAL RUN TIME: 0 days 0 hours 0 minutes 29 seconds 776 msec
