                         Program Version 4.2.1 -  RELEASE  -
|  1> ! wB97X-D3 SP def2-SVP
|  2> %pal
|  3> nprocs 16
|  4> end
|  5>
|  6> * xyz 0 1
|  7> S 	 -10.5835 	 61.9109 	 55.8661
|  8> C 	 -9.06979 	 61.3605 	 56.5392
|  9> C 	 -9.0508 	 61.6232 	 57.9227
| 10> C 	 -10.278 	 62.0932 	 58.4198
| 11> C 	 -11.1978 	 62.4052 	 57.4268
| 12> H 	 -10.4611 	 62.3342 	 59.4928
| 13> C 	 -7.85958 	 61.4524 	 58.8564
| 14> H 	 -7.67739 	 62.4718 	 59.1156
| 15> H 	 -7.07821 	 60.9735 	 58.2719
| 16> C 	 -8.10884 	 60.6202 	 60.1293
| 17> H 	 -7.07689 	 60.5172 	 60.6086
| 18> H 	 -8.73735 	 61.1325 	 60.8723
| 19> C 	 -8.74386 	 59.2797 	 59.8923
| 20> H 	 -8.12843 	 58.6293 	 59.2355
| 21> H 	 -9.08886 	 58.8383 	 60.8229
| 22> H 	 -9.70281 	 59.4215 	 59.3495
| 23> S 	 -13.7526 	 62.0374 	 58.3979
| 24> C 	 -14.9692 	 63.2856 	 58.1428
| 25> C 	 -14.5135 	 64.199 	 57.2082
| 26> C 	 -13.0601 	 64.1453 	 56.953
| 27> C 	 -12.5203 	 63.0019 	 57.5668
| 28> H 	 -15.2916 	 64.9018 	 56.8581
| 29> C 	 -12.4244 	 65.2422 	 56.0714
| 30> H 	 -12.785 	 65.177 	 55.0203
| 31> H 	 -11.3398 	 65.0795 	 56.0907
| 32> C 	 -12.7796 	 66.6937 	 56.4333
| 33> H 	 -13.8562 	 66.7364 	 56.7329
| 34> H 	 -12.5338 	 67.3492 	 55.6156
| 35> C 	 -12.0744 	 67.191 	 57.7014
| 36> H 	 -10.9975 	 67.086 	 57.5796
| 37> H 	 -12.4357 	 66.6637 	 58.5971
| 38> H 	 -12.1342 	 68.3212 	 57.7294
| 39> H 	 -8.23701 	 61.0326 	 55.8605
| 40> H 	 -16.0062 	 63.2191 	 58.3865
| 41> *
| 42>
| 43>                          ****END OF INPUT****

CARTESIAN COORDINATES (ANGSTROEM)
---------------------------------
  S    -10.583500   61.910900   55.866100
  C     -9.069790   61.360500   56.539200
  C     -9.050800   61.623200   57.922700
  C    -10.278000   62.093200   58.419800
  C    -11.197800   62.405200   57.426800
  H    -10.461100   62.334200   59.492800
  C     -7.859580   61.452400   58.856400
  H     -7.677390   62.471800   59.115600
  H     -7.078210   60.973500   58.271900
  C     -8.108840   60.620200   60.129300
  H     -7.076890   60.517200   60.608600
  H     -8.737350   61.132500   60.872300
  C     -8.743860   59.279700   59.892300
  H     -8.128430   58.629300   59.235500
  H     -9.088860   58.838300   60.822900
  H     -9.702810   59.421500   59.349500
  S    -13.752600   62.037400   58.397900
  C    -14.969200   63.285600   58.142800
  C    -14.513500   64.199000   57.208200
  C    -13.060100   64.145300   56.953000
  C    -12.520300   63.001900   57.566800
  H    -15.291600   64.901800   56.858100
  C    -12.424400   65.242200   56.071400
  H    -12.785000   65.177000   55.020300
  H    -11.339800   65.079500   56.090700
  C    -12.779600   66.693700   56.433300
  H    -13.856200   66.736400   56.732900
  H    -12.533800   67.349200   55.615600
  C    -12.074400   67.191000   57.701400
  H    -10.997500   67.086000   57.579600
  H    -12.435700   66.663700   58.597100
  H    -12.134200   68.321200   57.729400
  H     -8.237010   61.032600   55.860500
  H    -16.006200   63.219100   58.386500

 Total Charge           Charge          ....    0
 Multiplicity           Mult            ....    1
 Number of Electrons    NEL             ....  134
 Basis Dimension        Dim             ....  322

ORBITAL ENERGIES
----------------

  NO   OCC          E(Eh)            E(eV)
   0   2.0000     -88.966053     -2420.8894
   1   2.0000     -88.965500     -2420.8743
   2   2.0000     -10.332613      -281.1647
   3   2.0000     -10.329798      -281.0881
   4   2.0000     -10.319681      -280.8128
   5   2.0000     -10.316473      -280.7255
   6   2.0000     -10.315377      -280.6957
   7   2.0000     -10.301471      -280.3173
   8   2.0000     -10.299618      -280.2669
   9   2.0000     -10.297045      -280.1968
  10   2.0000     -10.295357      -280.1509
  11   2.0000     -10.291138      -280.0361
  12   2.0000     -10.290268      -280.0124
  13   2.0000     -10.286279      -279.9039
  14   2.0000     -10.276225      -279.6303
  15   2.0000     -10.275150      -279.6010
  16   2.0000      -8.080636      -219.8853
  17   2.0000      -8.079668      -219.8589
  18   2.0000      -6.039001      -164.3296
  19   2.0000      -6.038347      -164.3118
  20   2.0000      -6.035018      -164.2212
  21   2.0000      -6.034319      -164.2022
  22   2.0000      -6.031702      -164.1310
  23   2.0000      -6.030206      -164.0902
  24   2.0000      -1.003214       -27.2988
  25   2.0000      -0.979420       -26.6514
  26   2.0000      -0.912792       -24.8383
  27   2.0000      -0.905831       -24.6489
  28   2.0000      -0.867000       -23.5923
  29   2.0000      -0.847483       -23.0612
  30   2.0000      -0.840492       -22.8709
  31   2.0000      -0.812433       -22.1074
  32   2.0000      -0.782842       -21.3022
  33   2.0000      -0.770060       -20.9544
  34   2.0000      -0.704646       -19.1744
  35   2.0000      -0.692080       -18.8324
  36   2.0000      -0.685568       -18.6553
  37   2.0000      -0.653278       -17.7766
  38   2.0000      -0.633879       -17.2487
  39   2.0000      -0.619637       -16.8612
  40   2.0000      -0.597133       -16.2488
  41   2.0000      -0.565865       -15.3980
  42   2.0000      -0.558033       -15.1849
  43   2.0000      -0.551953       -15.0194
  44   2.0000      -0.536543       -14.6001
  45   2.0000      -0.531230       -14.4555
  46   2.0000      -0.521012       -14.1775
  47   2.0000      -0.513168       -13.9640
  48   2.0000      -0.501352       -13.6425
  49   2.0000      -0.495894       -13.4940
  50   2.0000      -0.488676       -13.2975
  51   2.0000      -0.478347       -13.0165
  52   2.0000      -0.467973       -12.7342
  53   2.0000      -0.460254       -12.5242
  54   2.0000      -0.455465       -12.3938
  55   2.0000      -0.445087       -12.1114
  56   2.0000      -0.443043       -12.0558
  57   2.0000      -0.431846       -11.7511
  58   2.0000      -0.425931       -11.5902
  59   2.0000      -0.423313       -11.5189
  60   2.0000      -0.421954       -11.4819
  61   2.0000      -0.413778       -11.2595
  62   2.0000      -0.407335       -11.0841
  63   2.0000      -0.338856        -9.2207
  64   2.0000      -0.331846        -9.0300
  65   2.0000      -0.323635        -8.8065
  66   2.0000      -0.299001        -8.1362
  67   0.0000       0.031122         0.8469
  68   0.0000       0.065074         1.7708
  69   0.0000       0.104009         2.8302
  70   0.0000       0.115607         3.1458
  71   0.0000       0.132270         3.5993

MULLIKEN ATOMIC CHARGES
-----------------------
   0 S :    0.120508
   1 C :   -0.163019
   2 C :   -0.125594
   3 C :    0.017916
   4 C :   -0.167453
   5 H :    0.031017
   6 C :    0.121500
   7 H :    0.039343
   8 H :    0.017364
   9 C :   -0.117052
  10 H :    0.042432
  11 H :    0.029290
  12 C :   -0.046220
  13 H :    0.035805
  14 H :    0.034308
  15 H :    0.038210
  16 S :    0.108437
  17 C :   -0.088499
  18 C :   -0.073120
  19 C :   -0.027729
  20 C :   -0.161613
  21 H :    0.041513
  22 C :    0.075638
  23 H :    0.047291
  24 H :    0.027166
  25 C :   -0.094723
  26 H :    0.038726
  27 H :    0.031530
  28 C :   -0.068554
  29 H :    0.018911
  30 H :    0.054687
  31 H :    0.034405
  32 H :    0.074094
  33 H :    0.053487
Sum of atomic charges:   -0.0000000

LOEWDIN ATOMIC CHARGES
----------------------
   0 S :    0.417796
   1 C :   -0.217421
   2 C :   -0.066402
   3 C :   -0.069161
   4 C :   -0.200577
   5 H :    0.040399
   6 C :   -0.025911
   7 H :    0.035195
   8 H :    0.029206
   9 C :   -0.050172
  10 H :    0.032740
  11 H :    0.022400
  12 C :   -0.071940
  13 H :    0.027200
  14 H :    0.027402
  15 H :    0.031485
  16 S :    0.392652
  17 C :   -0.184112
  18 C :   -0.073578
  19 C :   -0.052151
  20 C :   -0.197029
  21 H :    0.036087
  22 C :   -0.034723
  23 H :    0.041257
  24 H :    0.027493
  25 C :   -0.045089
  26 H :    0.028868
  27 H :    0.023552
  28 C :   -0.072535
  29 H :    0.019251
  30 H :    0.030310
  31 H :    0.031488
  32 H :    0.039252
  33 H :    0.026767

  Mayer bond orders larger than 0.100000
B(  0-S ,  1-C ) :   1.1521 B(  0-S ,  4-C ) :   1.1681 B(  1-C ,  2-C ) :   1.5693
B(  1-C ,  4-C ) :   0.1037 B(  1-C , 32-H ) :   0.9635 B(  2-C ,  3-C ) :   1.2715
B(  2-C ,  6-C ) :   1.0091 B(  3-C ,  4-C ) :   1.5441 B(  3-C ,  5-H ) :   0.9880
B(  4-C , 20-C ) :   1.0357 B(  6-C ,  7-H ) :   0.9352 B(  6-C ,  8-H ) :   0.9410
B(  6-C ,  9-C ) :   1.0723 B(  9-C , 10-H ) :   0.9549 B(  9-C , 11-H ) :   0.9500
B(  9-C , 12-C ) :   1.0893 B( 12-C , 13-H ) :   0.9747 B( 12-C , 14-H ) :   0.9714
B( 12-C , 15-H ) :   0.9634 B( 16-S , 17-C ) :   1.1319 B( 16-S , 20-C ) :   1.1405
B( 17-C , 18-C ) :   1.6632 B( 17-C , 33-H ) :   0.9669 B( 18-C , 19-C ) :   1.1883
B( 18-C , 21-H ) :   0.9750 B( 19-C , 20-C ) :   1.6042 B( 19-C , 22-C ) :   1.0421
B( 22-C , 23-H ) :   0.9359 B( 22-C , 24-H ) :   0.9352 B( 22-C , 25-C ) :   1.0671
B( 25-C , 26-H ) :   0.9557 B( 25-C , 27-H ) :   0.9548 B( 25-C , 28-C ) :   1.0772
B( 28-C , 29-H ) :   0.9734 B( 28-C , 30-H ) :   0.9769 B( 28-C , 31-H ) :   0.9733

Dispersion correction           -0.014510185
FINAL SINGLE POINT ENERGY     -1339.881413170828

DIPOLE MOMENT
-------------
                                X             Y             Z
Electronic contribution:    -10.93504      -8.79404      -7.93257
Nuclear contribution   :     11.09788       9.12354       7.94918
                        -----------------------------------------
Total Dipole Moment    :      0.16284       0.32950       0.01662
                        -----------------------------------------
Magnitude (a.u.)       :      0.36792
Magnitude (Debye)      :      0.93518

Rotational constants in cm-1:     0.020896     0.007939     0.007101
Rotational constants in MHz :   626.439001   237.992158   212.881887

                             ****ORCA TERMINATED NORMALLY****
TOTAL RUN TIME: 0 days 0 hours 0 minutes 31 seconds 386 msec
