                         Program Version 4.2.1 -  RELEASE  -
|  1> ! wB97X-D3 SP def2-SVP
|  2> %pal
|  3> nprocs 16
|  4> end
|  5>
|  6> * xyz 0 1
|  7> S 	 -50.5605 	 59.26 	 130.85
|  8> C 	 -49.766 	 59.1062 	 129.263
|  9> C 	 -48.4561 	 59.4636 	 129.281
| 10> C 	 -48.0897 	 59.9877 	 130.541
| 11> C 	 -49.0994 	 59.9185 	 131.478
| 12> H 	 -47.127 	 60.3515 	 130.771
| 13> C 	 -47.5965 	 59.5153 	 128.012
| 14> H 	 -47.7012 	 60.5513 	 127.622
| 15> H 	 -47.9697 	 58.8185 	 127.185
| 16> C 	 -46.1213 	 59.0333 	 128.243
| 17> H 	 -45.4984 	 59.3113 	 127.355
| 18> H 	 -45.6016 	 59.6358 	 129.059
| 19> C 	 -45.9889 	 57.5366 	 128.445
| 20> H 	 -46.6883 	 57.0565 	 127.75
| 21> H 	 -44.9075 	 57.1998 	 128.448
| 22> H 	 -46.4342 	 57.2168 	 129.384
| 23> S 	 -48.1927 	 61.8096 	 133.14
| 24> C 	 -48.5538 	 61.693 	 134.816
| 25> C 	 -49.141 	 60.5104 	 135.147
| 26> C 	 -49.3994 	 59.6893 	 134.061
| 27> C 	 -49.04 	 60.2949 	 132.843
| 28> H 	 -49.4311 	 60.3963 	 136.217
| 29> C 	 -49.8848 	 58.2524 	 134.226
| 30> H 	 -50.7797 	 58.04 	 133.552
| 31> H 	 -50.2383 	 58.1804 	 135.259
| 32> C 	 -48.8146 	 57.0875 	 134.127
| 33> H 	 -49.196 	 56.0911 	 134.488
| 34> H 	 -47.9919 	 57.3641 	 134.831
| 35> C 	 -48.3146 	 57.0116 	 132.635
| 36> H 	 -47.7286 	 56.1175 	 132.639
| 37> H 	 -47.6992 	 57.8206 	 132.275
| 38> H 	 -49.1406 	 56.8227 	 132.002
| 39> H 	 -50.327 	 58.7415 	 128.368
| 40> H 	 -48.3982 	 62.5343 	 135.494
| 41> *
| 42>
| 43>                          ****END OF INPUT****

CARTESIAN COORDINATES (ANGSTROEM)
---------------------------------
  S    -50.560500   59.260000  130.850000
  C    -49.766000   59.106200  129.263000
  C    -48.456100   59.463600  129.281000
  C    -48.089700   59.987700  130.541000
  C    -49.099400   59.918500  131.478000
  H    -47.127000   60.351500  130.771000
  C    -47.596500   59.515300  128.012000
  H    -47.701200   60.551300  127.622000
  H    -47.969700   58.818500  127.185000
  C    -46.121300   59.033300  128.243000
  H    -45.498400   59.311300  127.355000
  H    -45.601600   59.635800  129.059000
  C    -45.988900   57.536600  128.445000
  H    -46.688300   57.056500  127.750000
  H    -44.907500   57.199800  128.448000
  H    -46.434200   57.216800  129.384000
  S    -48.192700   61.809600  133.140000
  C    -48.553800   61.693000  134.816000
  C    -49.141000   60.510400  135.147000
  C    -49.399400   59.689300  134.061000
  C    -49.040000   60.294900  132.843000
  H    -49.431100   60.396300  136.217000
  C    -49.884800   58.252400  134.226000
  H    -50.779700   58.040000  133.552000
  H    -50.238300   58.180400  135.259000
  C    -48.814600   57.087500  134.127000
  H    -49.196000   56.091100  134.488000
  H    -47.991900   57.364100  134.831000
  C    -48.314600   57.011600  132.635000
  H    -47.728600   56.117500  132.639000
  H    -47.699200   57.820600  132.275000
  H    -49.140600   56.822700  132.002000
  H    -50.327000   58.741500  128.368000
  H    -48.398200   62.534300  135.494000

 Total Charge           Charge          ....    0
 Multiplicity           Mult            ....    1
 Number of Electrons    NEL             ....  134
 Basis Dimension        Dim             ....  322

ORBITAL ENERGIES
----------------

  NO   OCC          E(Eh)            E(eV)
   0   2.0000     -88.966487     -2420.9012
   1   2.0000     -88.965162     -2420.8651
   2   2.0000     -10.325537      -280.9722
   3   2.0000     -10.324242      -280.9369
   4   2.0000     -10.313584      -280.6469
   5   2.0000     -10.311993      -280.6036
   6   2.0000     -10.306362      -280.4504
   7   2.0000     -10.303817      -280.3811
   8   2.0000     -10.299753      -280.2705
   9   2.0000     -10.296127      -280.1719
  10   2.0000     -10.294906      -280.1386
  11   2.0000     -10.294786      -280.1354
  12   2.0000     -10.291024      -280.0330
  13   2.0000     -10.288824      -279.9731
  14   2.0000     -10.281238      -279.7667
  15   2.0000     -10.261849      -279.2391
  16   2.0000      -8.081146      -219.8992
  17   2.0000      -8.080486      -219.8812
  18   2.0000      -6.039603      -164.3459
  19   2.0000      -6.038771      -164.3233
  20   2.0000      -6.035776      -164.2418
  21   2.0000      -6.034946      -164.2192
  22   2.0000      -6.031861      -164.1353
  23   2.0000      -6.031423      -164.1234
  24   2.0000      -1.014097       -27.5950
  25   2.0000      -0.989030       -26.9129
  26   2.0000      -0.909796       -24.7568
  27   2.0000      -0.896839       -24.4042
  28   2.0000      -0.873968       -23.7819
  29   2.0000      -0.851790       -23.1784
  30   2.0000      -0.841812       -22.9069
  31   2.0000      -0.810830       -22.0638
  32   2.0000      -0.782312       -21.2878
  33   2.0000      -0.768429       -20.9100
  34   2.0000      -0.710600       -19.3364
  35   2.0000      -0.692829       -18.8528
  36   2.0000      -0.683455       -18.5978
  37   2.0000      -0.664487       -18.0816
  38   2.0000      -0.635445       -17.2913
  39   2.0000      -0.622182       -16.9304
  40   2.0000      -0.591466       -16.0946
  41   2.0000      -0.562582       -15.3086
  42   2.0000      -0.557124       -15.1601
  43   2.0000      -0.546310       -14.8659
  44   2.0000      -0.536736       -14.6053
  45   2.0000      -0.531335       -14.4584
  46   2.0000      -0.510916       -13.9027
  47   2.0000      -0.506858       -13.7923
  48   2.0000      -0.502419       -13.6715
  49   2.0000      -0.493618       -13.4320
  50   2.0000      -0.489873       -13.3301
  51   2.0000      -0.479607       -13.0508
  52   2.0000      -0.473652       -12.8887
  53   2.0000      -0.462019       -12.5722
  54   2.0000      -0.457336       -12.4447
  55   2.0000      -0.448676       -12.2091
  56   2.0000      -0.448245       -12.1974
  57   2.0000      -0.439780       -11.9670
  58   2.0000      -0.426457       -11.6045
  59   2.0000      -0.423147       -11.5144
  60   2.0000      -0.418004       -11.3745
  61   2.0000      -0.408334       -11.1113
  62   2.0000      -0.404220       -10.9994
  63   2.0000      -0.351066        -9.5530
  64   2.0000      -0.336471        -9.1558
  65   2.0000      -0.333812        -9.0835
  66   2.0000      -0.282905        -7.6982
  67   0.0000       0.024912         0.6779
  68   0.0000       0.074281         2.0213
  69   0.0000       0.104945         2.8557
  70   0.0000       0.116886         3.1806
  71   0.0000       0.135887         3.6977

MULLIKEN ATOMIC CHARGES
-----------------------
   0 S :    0.111158
   1 C :   -0.161661
   2 C :   -0.032138
   3 C :    0.025656
   4 C :   -0.146554
   5 H :   -0.008264
   6 C :    0.013575
   7 H :    0.060940
   8 H :    0.035835
   9 C :   -0.118097
  10 H :    0.034315
  11 H :    0.037610
  12 C :   -0.040186
  13 H :    0.022864
  14 H :    0.056094
  15 H :    0.030595
  16 S :    0.108648
  17 C :   -0.100140
  18 C :   -0.054573
  19 C :   -0.004947
  20 C :   -0.165517
  21 H :    0.033855
  22 C :    0.032049
  23 H :    0.045169
  24 H :    0.011664
  25 C :   -0.086701
  26 H :    0.041388
  27 H :    0.031835
  28 C :   -0.021745
  29 H :    0.016165
  30 H :    0.053436
  31 H :    0.020145
  32 H :    0.058294
  33 H :    0.059236
Sum of atomic charges:   -0.0000000

LOEWDIN ATOMIC CHARGES
----------------------
   0 S :    0.413890
   1 C :   -0.193782
   2 C :   -0.066798
   3 C :   -0.068291
   4 C :   -0.193468
   5 H :    0.019000
   6 C :   -0.032487
   7 H :    0.040687
   8 H :    0.035911
   9 C :   -0.055980
  10 H :    0.027279
  11 H :    0.025055
  12 C :   -0.072604
  13 H :    0.026643
  14 H :    0.038302
  15 H :    0.025092
  16 S :    0.423614
  17 C :   -0.194823
  18 C :   -0.079775
  19 C :   -0.062735
  20 C :   -0.193167
  21 H :    0.042364
  22 C :   -0.042367
  23 H :    0.030200
  24 H :    0.026266
  25 C :   -0.035028
  26 H :    0.028841
  27 H :    0.025556
  28 C :   -0.064768
  29 H :    0.020701
  30 H :    0.027324
  31 H :    0.015633
  32 H :    0.033237
  33 H :    0.030479

  Mayer bond orders larger than 0.100000
B(  0-S ,  1-C ) :   1.1200 B(  0-S ,  4-C ) :   1.1592 B(  1-C ,  2-C ) :   1.6299
B(  1-C , 32-H ) :   0.9632 B(  2-C ,  3-C ) :   1.2344 B(  2-C ,  6-C ) :   1.0056
B(  3-C ,  4-C ) :   1.5546 B(  3-C ,  5-H ) :   0.9977 B(  4-C , 20-C ) :   1.0751
B(  6-C ,  7-H ) :   0.9436 B(  6-C ,  8-H ) :   0.9489 B(  6-C ,  9-C ) :   1.0642
B(  9-C , 10-H ) :   0.9563 B(  9-C , 11-H ) :   0.9538 B(  9-C , 12-C ) :   1.0673
B( 12-C , 13-H ) :   0.9689 B( 12-C , 14-H ) :   0.9726 B( 12-C , 15-H ) :   0.9725
B( 16-S , 17-C ) :   1.1670 B( 16-S , 20-C ) :   1.1575 B( 17-C , 18-C ) :   1.5994
B( 17-C , 20-C ) :   0.1083 B( 17-C , 33-H ) :   0.9642 B( 18-C , 19-C ) :   1.2679
B( 18-C , 21-H ) :   0.9839 B( 19-C , 20-C ) :   1.5324 B( 19-C , 22-C ) :   1.0368
B( 22-C , 23-H ) :   0.9411 B( 22-C , 24-H ) :   0.9290 B( 22-C , 25-C ) :   1.0617
B( 25-C , 26-H ) :   0.9589 B( 25-C , 27-H ) :   0.9533 B( 25-C , 28-C ) :   1.0733
B( 28-C , 29-H ) :   0.9715 B( 28-C , 30-H ) :   0.9693 B( 28-C , 31-H ) :   0.9740

Dispersion correction           -0.016413234
FINAL SINGLE POINT ENERGY     -1339.882955813576

DIPOLE MOMENT
-------------
                                X             Y             Z
Electronic contribution:    -11.82954      17.51321       7.59009
Nuclear contribution   :     12.06328     -17.69186      -7.61508
                        -----------------------------------------
Total Dipole Moment    :      0.23374      -0.17865      -0.02499
                        -----------------------------------------
Magnitude (a.u.)       :      0.29525
Magnitude (Debye)      :      0.75046

Rotational constants in cm-1:     0.020825     0.009271     0.008443
Rotational constants in MHz :   624.309607   277.950751   253.125374

                             ****ORCA TERMINATED NORMALLY****
TOTAL RUN TIME: 0 days 0 hours 0 minutes 37 seconds 745 msec
