                         Program Version 4.2.1 -  RELEASE  -
|  1> ! wB97X-D3 SP def2-SVP
|  2> %pal
|  3> nprocs 16
|  4> end
|  5>
|  6> * xyz 0 1
|  7> S 	 -58.7627 	 16.295 	 87.8692
|  8> C 	 -57.3206 	 15.3819 	 87.4678
|  9> C 	 -56.3549 	 16.2222 	 86.9148
| 10> C 	 -56.7513 	 17.6009 	 86.9404
| 11> C 	 -58.0061 	 17.7673 	 87.4902
| 12> H 	 -56.2557 	 18.3811 	 86.4521
| 13> C 	 -55.0405 	 15.8155 	 86.2465
| 14> H 	 -54.6106 	 14.8868 	 86.6792
| 15> H 	 -54.262 	 16.6028 	 86.4253
| 16> C 	 -55.0516 	 15.4744 	 84.6829
| 17> H 	 -54.0246 	 15.5955 	 84.3555
| 18> H 	 -55.259 	 14.4693 	 84.4704
| 19> C 	 -55.9514 	 16.4419 	 83.8779
| 20> H 	 -55.6808 	 17.4965 	 84.0297
| 21> H 	 -55.894 	 16.2373 	 82.762
| 22> H 	 -56.9697 	 16.3224 	 84.2763
| 23> S 	 -59.821 	 19.4101 	 86.1787
| 24> C 	 -60.4022 	 20.8645 	 86.8309
| 25> C 	 -59.7726 	 21.0737 	 88.0391
| 26> C 	 -58.799 	 20.1116 	 88.4203
| 27> C 	 -58.7178 	 19.0484 	 87.5112
| 28> H 	 -59.9401 	 22.0654 	 88.5732
| 29> C 	 -57.9675 	 20.2337 	 89.6917
| 30> H 	 -57.851 	 21.3173 	 89.8724
| 31> H 	 -56.9986 	 19.7831 	 89.4213
| 32> C 	 -58.5979 	 19.6871 	 90.9863
| 33> H 	 -58.5906 	 18.5933 	 90.941
| 34> H 	 -59.6463 	 19.9595 	 91.1607
| 35> C 	 -57.8847 	 20.2816 	 92.2753
| 36> H 	 -57.9024 	 21.3764 	 92.4393
| 37> H 	 -56.8838 	 19.926 	 92.3127
| 38> H 	 -58.3418 	 19.8832 	 93.1903
| 39> H 	 -57.2925 	 14.3088 	 87.6191
| 40> H 	 -60.8322 	 21.6287 	 86.1458
| 41> *
| 42>
| 43>                          ****END OF INPUT****

CARTESIAN COORDINATES (ANGSTROEM)
---------------------------------
  S    -58.762700   16.295000   87.869200
  C    -57.320600   15.381900   87.467800
  C    -56.354900   16.222200   86.914800
  C    -56.751300   17.600900   86.940400
  C    -58.006100   17.767300   87.490200
  H    -56.255700   18.381100   86.452100
  C    -55.040500   15.815500   86.246500
  H    -54.610600   14.886800   86.679200
  H    -54.262000   16.602800   86.425300
  C    -55.051600   15.474400   84.682900
  H    -54.024600   15.595500   84.355500
  H    -55.259000   14.469300   84.470400
  C    -55.951400   16.441900   83.877900
  H    -55.680800   17.496500   84.029700
  H    -55.894000   16.237300   82.762000
  H    -56.969700   16.322400   84.276300
  S    -59.821000   19.410100   86.178700
  C    -60.402200   20.864500   86.830900
  C    -59.772600   21.073700   88.039100
  C    -58.799000   20.111600   88.420300
  C    -58.717800   19.048400   87.511200
  H    -59.940100   22.065400   88.573200
  C    -57.967500   20.233700   89.691700
  H    -57.851000   21.317300   89.872400
  H    -56.998600   19.783100   89.421300
  C    -58.597900   19.687100   90.986300
  H    -58.590600   18.593300   90.941000
  H    -59.646300   19.959500   91.160700
  C    -57.884700   20.281600   92.275300
  H    -57.902400   21.376400   92.439300
  H    -56.883800   19.926000   92.312700
  H    -58.341800   19.883200   93.190300
  H    -57.292500   14.308800   87.619100
  H    -60.832200   21.628700   86.145800

 Total Charge           Charge          ....    0
 Multiplicity           Mult            ....    1
 Number of Electrons    NEL             ....  134
 Basis Dimension        Dim             ....  322

ORBITAL ENERGIES
----------------

  NO   OCC          E(Eh)            E(eV)
   0   2.0000     -88.969945     -2420.9953
   1   2.0000     -88.958891     -2420.6945
   2   2.0000     -10.327220      -281.0179
   3   2.0000     -10.326903      -281.0093
   4   2.0000     -10.318920      -280.7921
   5   2.0000     -10.315347      -280.6949
   6   2.0000     -10.307443      -280.4798
   7   2.0000     -10.304045      -280.3873
   8   2.0000     -10.301513      -280.3184
   9   2.0000     -10.296065      -280.1702
  10   2.0000     -10.292884      -280.0836
  11   2.0000     -10.291531      -280.0468
  12   2.0000     -10.289606      -279.9944
  13   2.0000     -10.285880      -279.8930
  14   2.0000     -10.280534      -279.7476
  15   2.0000     -10.277617      -279.6682
  16   2.0000      -8.085431      -220.0158
  17   2.0000      -8.074684      -219.7233
  18   2.0000      -6.043786      -164.4598
  19   2.0000      -6.039767      -164.3504
  20   2.0000      -6.036370      -164.2580
  21   2.0000      -6.032984      -164.1658
  22   2.0000      -6.028781      -164.0515
  23   2.0000      -6.025847      -163.9716
  24   2.0000      -1.011032       -27.5116
  25   2.0000      -0.989014       -26.9125
  26   2.0000      -0.903456       -24.5843
  27   2.0000      -0.901484       -24.5306
  28   2.0000      -0.867023       -23.5929
  29   2.0000      -0.848214       -23.0811
  30   2.0000      -0.843993       -22.9662
  31   2.0000      -0.809589       -22.0300
  32   2.0000      -0.779419       -21.2091
  33   2.0000      -0.770388       -20.9633
  34   2.0000      -0.703501       -19.1432
  35   2.0000      -0.702600       -19.1187
  36   2.0000      -0.691738       -18.8231
  37   2.0000      -0.653928       -17.7943
  38   2.0000      -0.650687       -17.7061
  39   2.0000      -0.613221       -16.6866
  40   2.0000      -0.591671       -16.1002
  41   2.0000      -0.566513       -15.4156
  42   2.0000      -0.557340       -15.1660
  43   2.0000      -0.548934       -14.9373
  44   2.0000      -0.537265       -14.6197
  45   2.0000      -0.523629       -14.2487
  46   2.0000      -0.516784       -14.0624
  47   2.0000      -0.511230       -13.9113
  48   2.0000      -0.501463       -13.6455
  49   2.0000      -0.497545       -13.5389
  50   2.0000      -0.487872       -13.2757
  51   2.0000      -0.474309       -12.9066
  52   2.0000      -0.469558       -12.7773
  53   2.0000      -0.468280       -12.7426
  54   2.0000      -0.458467       -12.4755
  55   2.0000      -0.444585       -12.0978
  56   2.0000      -0.442154       -12.0316
  57   2.0000      -0.436995       -11.8912
  58   2.0000      -0.433276       -11.7900
  59   2.0000      -0.423294       -11.5184
  60   2.0000      -0.418138       -11.3781
  61   2.0000      -0.415226       -11.2989
  62   2.0000      -0.406950       -11.0737
  63   2.0000      -0.336652        -9.1608
  64   2.0000      -0.328068        -8.9272
  65   2.0000      -0.325222        -8.8497
  66   2.0000      -0.309692        -8.4271
  67   0.0000       0.045499         1.2381
  68   0.0000       0.048580         1.3219
  69   0.0000       0.115614         3.1460
  70   0.0000       0.123435         3.3588
  71   0.0000       0.124516         3.3883

MULLIKEN ATOMIC CHARGES
-----------------------
   0 S :    0.132258
   1 C :   -0.136948
   2 C :   -0.064112
   3 C :    0.052746
   4 C :   -0.159926
   5 H :   -0.000954
   6 C :    0.022287
   7 H :    0.029676
   8 H :    0.039808
   9 C :   -0.043407
  10 H :    0.022360
  11 H :    0.020533
  12 C :   -0.092782
  13 H :    0.030924
  14 H :    0.047785
  15 H :    0.055855
  16 S :    0.098094
  17 C :   -0.110279
  18 C :   -0.071550
  19 C :   -0.025438
  20 C :   -0.194600
  21 H :    0.039373
  22 C :    0.081186
  23 H :    0.017628
  24 H :    0.036675
  25 C :   -0.066138
  26 H :    0.035121
  27 H :    0.033366
  28 C :   -0.066633
  29 H :    0.041178
  30 H :    0.025583
  31 H :    0.027509
  32 H :    0.054068
  33 H :    0.088754
Sum of atomic charges:   -0.0000000

LOEWDIN ATOMIC CHARGES
----------------------
   0 S :    0.438741
   1 C :   -0.196281
   2 C :   -0.064037
   3 C :   -0.051894
   4 C :   -0.218255
   5 H :    0.024111
   6 C :   -0.037654
   7 H :    0.033575
   8 H :    0.034785
   9 C :   -0.032888
  10 H :    0.023253
  11 H :    0.014290
  12 C :   -0.074146
  13 H :    0.022462
  14 H :    0.032968
  15 H :    0.029471
  16 S :    0.420110
  17 C :   -0.215788
  18 C :   -0.086938
  19 C :   -0.058056
  20 C :   -0.203263
  21 H :    0.039545
  22 C :   -0.032658
  23 H :    0.032009
  24 H :    0.035813
  25 C :   -0.037043
  26 H :    0.026134
  27 H :    0.026824
  28 C :   -0.070877
  29 H :    0.028146
  30 H :    0.018343
  31 H :    0.026942
  32 H :    0.028320
  33 H :    0.043932

  Mayer bond orders larger than 0.100000
B(  0-S ,  1-C ) :   1.1491 B(  0-S ,  4-C ) :   1.1839 B(  1-C ,  2-C ) :   1.5791
B(  1-C , 32-H ) :   0.9760 B(  2-C ,  3-C ) :   1.2455 B(  2-C ,  6-C ) :   1.0298
B(  3-C ,  4-C ) :   1.5619 B(  3-C ,  5-H ) :   1.0034 B(  4-C , 20-C ) :   0.9988
B(  6-C ,  7-H ) :   0.9451 B(  6-C ,  8-H ) :   0.9481 B(  6-C ,  9-C ) :   1.0555
B(  9-C , 10-H ) :   0.9569 B(  9-C , 11-H ) :   0.9621 B(  9-C , 12-C ) :   1.0809
B( 12-C , 13-H ) :   0.9759 B( 12-C , 14-H ) :   0.9740 B( 12-C , 15-H ) :   0.9693
B( 16-S , 17-C ) :   1.1853 B( 16-S , 20-C ) :   1.1677 B( 17-C , 18-C ) :   1.5650
B( 17-C , 20-C ) :   0.1084 B( 17-C , 33-H ) :   0.9582 B( 18-C , 19-C ) :   1.2905
B( 18-C , 21-H ) :   0.9749 B( 19-C , 20-C ) :   1.5616 B( 19-C , 22-C ) :   1.0423
B( 22-C , 23-H ) :   0.9355 B( 22-C , 24-H ) :   0.9293 B( 22-C , 25-C ) :   1.0629
B( 25-C , 26-H ) :   0.9545 B( 25-C , 27-H ) :   0.9609 B( 25-C , 28-C ) :   1.0713
B( 28-C , 29-H ) :   0.9770 B( 28-C , 30-H ) :   0.9776 B( 28-C , 31-H ) :   0.9753

Dispersion correction           -0.014537105
FINAL SINGLE POINT ENERGY     -1339.881447915571

DIPOLE MOMENT
-------------
                                X             Y             Z
Electronic contribution:    -15.42205      -1.53273      -5.49438
Nuclear contribution   :     15.88956       1.61850       5.49415
                        -----------------------------------------
Total Dipole Moment    :      0.46751       0.08577      -0.00023
                        -----------------------------------------
Magnitude (a.u.)       :      0.47531
Magnitude (Debye)      :      1.20815

Rotational constants in cm-1:     0.019516     0.008356     0.006919
Rotational constants in MHz :   585.074904   250.505832   207.420880

                             ****ORCA TERMINATED NORMALLY****
TOTAL RUN TIME: 0 days 0 hours 0 minutes 27 seconds 779 msec
