                         Program Version 4.2.1 -  RELEASE  -
|  1> ! wB97X-D3 SP def2-SVP
|  2> %pal
|  3> nprocs 16
|  4> end
|  5>
|  6> * xyz 0 1
|  7> S 	 -52.9904 	 63.226 	 129.161
|  8> C 	 -53.5165 	 62.0386 	 127.918
|  9> C 	 -52.5309 	 61.1434 	 127.515
| 10> C 	 -51.2785 	 61.4769 	 128.16
| 11> C 	 -51.3849 	 62.4938 	 129.083
| 12> H 	 -50.3257 	 61.0011 	 128.048
| 13> C 	 -52.7535 	 59.9017 	 126.667
| 14> H 	 -52.2939 	 60.1742 	 125.682
| 15> H 	 -53.8573 	 59.8522 	 126.437
| 16> C 	 -52.1205 	 58.563 	 127.155
| 17> H 	 -51.1546 	 58.8534 	 127.559
| 18> H 	 -52.753 	 58.1609 	 127.947
| 19> C 	 -51.7225 	 57.5425 	 126.041
| 20> H 	 -51.2709 	 56.7483 	 126.675
| 21> H 	 -52.4704 	 57.2125 	 125.396
| 22> H 	 -50.9527 	 58.0417 	 125.509
| 23> S 	 -49.406 	 64.3508 	 129.872
| 24> C 	 -48.3983 	 63.911 	 131.121
| 25> C 	 -48.6945 	 62.6548 	 131.664
| 26> C 	 -49.8177 	 62.0218 	 131.044
| 27> C 	 -50.4066 	 62.8691 	 130.103
| 28> H 	 -47.9929 	 62.2179 	 132.393
| 29> C 	 -50.3123 	 60.6148 	 131.396
| 30> H 	 -49.6346 	 59.8478 	 131.641
| 31> H 	 -50.8252 	 60.2006 	 130.481
| 32> C 	 -51.3059 	 60.5118 	 132.471
| 33> H 	 -50.8615 	 61.0134 	 133.363
| 34> H 	 -51.3937 	 59.4367 	 132.775
| 35> C 	 -52.6997 	 61.0392 	 132.134
| 36> H 	 -52.785 	 62.1295 	 131.968
| 37> H 	 -53.4997 	 60.7271 	 132.844
| 38> H 	 -52.9011 	 60.4836 	 131.188
| 39> H 	 -54.5612 	 61.7845 	 127.878
| 40> H 	 -47.4797 	 64.461 	 131.334
| 41> *
| 42>
| 43>                          ****END OF INPUT****

CARTESIAN COORDINATES (ANGSTROEM)
---------------------------------
  S    -52.990400   63.226000  129.161000
  C    -53.516500   62.038600  127.918000
  C    -52.530900   61.143400  127.515000
  C    -51.278500   61.476900  128.160000
  C    -51.384900   62.493800  129.083000
  H    -50.325700   61.001100  128.048000
  C    -52.753500   59.901700  126.667000
  H    -52.293900   60.174200  125.682000
  H    -53.857300   59.852200  126.437000
  C    -52.120500   58.563000  127.155000
  H    -51.154600   58.853400  127.559000
  H    -52.753000   58.160900  127.947000
  C    -51.722500   57.542500  126.041000
  H    -51.270900   56.748300  126.675000
  H    -52.470400   57.212500  125.396000
  H    -50.952700   58.041700  125.509000
  S    -49.406000   64.350800  129.872000
  C    -48.398300   63.911000  131.121000
  C    -48.694500   62.654800  131.664000
  C    -49.817700   62.021800  131.044000
  C    -50.406600   62.869100  130.103000
  H    -47.992900   62.217900  132.393000
  C    -50.312300   60.614800  131.396000
  H    -49.634600   59.847800  131.641000
  H    -50.825200   60.200600  130.481000
  C    -51.305900   60.511800  132.471000
  H    -50.861500   61.013400  133.363000
  H    -51.393700   59.436700  132.775000
  C    -52.699700   61.039200  132.134000
  H    -52.785000   62.129500  131.968000
  H    -53.499700   60.727100  132.844000
  H    -52.901100   60.483600  131.188000
  H    -54.561200   61.784500  127.878000
  H    -47.479700   64.461000  131.334000

 Total Charge           Charge          ....    0
 Multiplicity           Mult            ....    1
 Number of Electrons    NEL             ....  134
 Basis Dimension        Dim             ....  322

ORBITAL ENERGIES
----------------

  NO   OCC          E(Eh)            E(eV)
   0   2.0000     -88.967459     -2420.9276
   1   2.0000     -88.964272     -2420.8409
   2   2.0000     -10.328672      -281.0575
   3   2.0000     -10.326824      -281.0072
   4   2.0000     -10.315656      -280.7033
   5   2.0000     -10.313610      -280.6476
   6   2.0000     -10.310598      -280.5656
   7   2.0000     -10.308388      -280.5055
   8   2.0000     -10.302464      -280.3443
   9   2.0000     -10.296074      -280.1704
  10   2.0000     -10.296060      -280.1700
  11   2.0000     -10.294932      -280.1393
  12   2.0000     -10.286213      -279.9021
  13   2.0000     -10.281909      -279.7850
  14   2.0000     -10.280573      -279.7486
  15   2.0000     -10.273724      -279.5622
  16   2.0000      -8.083112      -219.9527
  17   2.0000      -8.078090      -219.8160
  18   2.0000      -6.041300      -164.3921
  19   2.0000      -6.037513      -164.2891
  20   2.0000      -6.036571      -164.2634
  21   2.0000      -6.034119      -164.1967
  22   2.0000      -6.032893      -164.1634
  23   2.0000      -6.028755      -164.0508
  24   2.0000      -1.004111       -27.3233
  25   2.0000      -0.979847       -26.6630
  26   2.0000      -0.917865       -24.9764
  27   2.0000      -0.908388       -24.7185
  28   2.0000      -0.867418       -23.6037
  29   2.0000      -0.851059       -23.1585
  30   2.0000      -0.843288       -22.9470
  31   2.0000      -0.809214       -22.0198
  32   2.0000      -0.786522       -21.4024
  33   2.0000      -0.772723       -21.0269
  34   2.0000      -0.707897       -19.2628
  35   2.0000      -0.692106       -18.8332
  36   2.0000      -0.685672       -18.6581
  37   2.0000      -0.650791       -17.7089
  38   2.0000      -0.642046       -17.4709
  39   2.0000      -0.620332       -16.8801
  40   2.0000      -0.602360       -16.3910
  41   2.0000      -0.568828       -15.4786
  42   2.0000      -0.560893       -15.2627
  43   2.0000      -0.552102       -15.0235
  44   2.0000      -0.544222       -14.8090
  45   2.0000      -0.531770       -14.4702
  46   2.0000      -0.510960       -13.9039
  47   2.0000      -0.504952       -13.7405
  48   2.0000      -0.502628       -13.6772
  49   2.0000      -0.496881       -13.5208
  50   2.0000      -0.487790       -13.2735
  51   2.0000      -0.477262       -12.9870
  52   2.0000      -0.472494       -12.8572
  53   2.0000      -0.459066       -12.4918
  54   2.0000      -0.456862       -12.4319
  55   2.0000      -0.448940       -12.2163
  56   2.0000      -0.443210       -12.0604
  57   2.0000      -0.436118       -11.8674
  58   2.0000      -0.429907       -11.6984
  59   2.0000      -0.426686       -11.6107
  60   2.0000      -0.422127       -11.4867
  61   2.0000      -0.418029       -11.3752
  62   2.0000      -0.404522       -11.0076
  63   2.0000      -0.336963        -9.1692
  64   2.0000      -0.331923        -9.0321
  65   2.0000      -0.327036        -8.8991
  66   2.0000      -0.298461        -8.1215
  67   0.0000       0.037829         1.0294
  68   0.0000       0.050268         1.3679
  69   0.0000       0.106649         2.9021
  70   0.0000       0.112387         3.0582
  71   0.0000       0.122979         3.3464

MULLIKEN ATOMIC CHARGES
-----------------------
   0 S :    0.095170
   1 C :   -0.113913
   2 C :   -0.100773
   3 C :    0.052744
   4 C :   -0.183475
   5 H :    0.012775
   6 C :    0.048802
   7 H :    0.036984
   8 H :    0.028734
   9 C :   -0.096359
  10 H :    0.023878
  11 H :    0.042278
  12 C :   -0.024894
  13 H :    0.043099
  14 H :    0.037206
  15 H :    0.025990
  16 S :    0.125688
  17 C :   -0.097739
  18 C :   -0.055113
  19 C :    0.001935
  20 C :   -0.174625
  21 H :    0.027501
  22 C :    0.092547
  23 H :    0.010560
  24 H :    0.012413
  25 C :   -0.089525
  26 H :    0.021066
  27 H :    0.027972
  28 C :   -0.059369
  29 H :    0.048462
  30 H :    0.037567
  31 H :    0.022616
  32 H :    0.052834
  33 H :    0.066965
Sum of atomic charges:   -0.0000000

LOEWDIN ATOMIC CHARGES
----------------------
   0 S :    0.384037
   1 C :   -0.189592
   2 C :   -0.056869
   3 C :   -0.058368
   4 C :   -0.183089
   5 H :    0.028952
   6 C :   -0.041362
   7 H :    0.037867
   8 H :    0.033829
   9 C :   -0.037603
  10 H :    0.023574
  11 H :    0.024132
  12 C :   -0.051215
  13 H :    0.037611
  14 H :    0.015515
  15 H :    0.022228
  16 S :    0.431075
  17 C :   -0.210853
  18 C :   -0.082516
  19 C :   -0.039317
  20 C :   -0.205583
  21 H :    0.034768
  22 C :   -0.037837
  23 H :    0.028007
  24 H :    0.033071
  25 C :   -0.047515
  26 H :    0.021031
  27 H :    0.028276
  28 C :   -0.074927
  29 H :    0.022505
  30 H :    0.028343
  31 H :    0.026854
  32 H :    0.022054
  33 H :    0.032918

  Mayer bond orders larger than 0.100000
B(  0-S ,  1-C ) :   1.1201 B(  0-S ,  4-C ) :   1.1503 B(  1-C ,  2-C ) :   1.6635
B(  1-C , 32-H ) :   0.9579 B(  2-C ,  3-C ) :   1.1850 B(  2-C ,  6-C ) :   1.0233
B(  3-C ,  4-C ) :   1.6290 B(  3-C ,  5-H ) :   0.9924 B(  4-C , 20-C ) :   1.0037
B(  6-C ,  7-H ) :   0.9343 B(  6-C ,  8-H ) :   0.9418 B(  6-C ,  9-C ) :   1.0470
B(  9-C , 10-H ) :   0.9584 B(  9-C , 11-H ) :   0.9615 B(  9-C , 12-C ) :   1.0673
B( 12-C , 13-H ) :   0.9757 B( 12-C , 14-H ) :   0.9822 B( 12-C , 15-H ) :   0.9768
B( 16-S , 17-C ) :   1.1999 B( 16-S , 20-C ) :   1.1467 B( 17-C , 18-C ) :   1.5736
B( 17-C , 33-H ) :   0.9627 B( 18-C , 19-C ) :   1.2604 B( 18-C , 21-H ) :   0.9907
B( 19-C , 20-C ) :   1.5774 B( 19-C , 22-C ) :   1.0277 B( 22-C , 23-H ) :   0.9324
B( 22-C , 24-H ) :   0.9228 B( 22-C , 25-C ) :   1.0968 B( 25-C , 26-H ) :   0.9454
B( 25-C , 27-H ) :   0.9511 B( 25-C , 28-C ) :   1.0749 B( 28-C , 29-H ) :   0.9715
B( 28-C , 30-H ) :   0.9740 B( 28-C , 31-H ) :   0.9701

Dispersion correction           -0.015929286
FINAL SINGLE POINT ENERGY     -1339.867384007269

DIPOLE MOMENT
-------------
                                X             Y             Z
Electronic contribution:      4.89402      27.19030       1.25027
Nuclear contribution   :     -4.60474     -28.04850      -1.28401
                        -----------------------------------------
Total Dipole Moment    :      0.28927      -0.85819      -0.03374
                        -----------------------------------------
Magnitude (a.u.)       :      0.90626
Magnitude (Debye)      :      2.30354

Rotational constants in cm-1:     0.018819     0.008745     0.008124
Rotational constants in MHz :   564.164675   262.172325   243.565080

                             ****ORCA TERMINATED NORMALLY****
TOTAL RUN TIME: 0 days 0 hours 0 minutes 37 seconds 165 msec
