                         Program Version 4.2.1 -  RELEASE  -
|  1> ! wB97X-D3 SP def2-SVP
|  2> %pal
|  3> nprocs 16
|  4> end
|  5>
|  6> * xyz 0 1
|  7> S 	 -58.4663 	 47.8698 	 134.686
|  8> C 	 -57.1556 	 47.4323 	 133.592
|  9> C 	 -56.0205 	 47.9732 	 134.112
| 10> C 	 -56.1291 	 48.3922 	 135.471
| 11> C 	 -57.4177 	 48.6829 	 135.836
| 12> H 	 -55.2632 	 48.5403 	 136.068
| 13> C 	 -54.6599 	 47.6328 	 133.526
| 14> H 	 -54.8124 	 46.9242 	 132.745
| 15> H 	 -54.0032 	 47.2553 	 134.29
| 16> C 	 -53.8606 	 48.763 	 132.878
| 17> H 	 -54.3951 	 49.2757 	 132.039
| 18> H 	 -53.7973 	 49.5554 	 133.6
| 19> C 	 -52.5551 	 48.2405 	 132.307
| 20> H 	 -52.6492 	 47.339 	 131.665
| 21> H 	 -51.9819 	 48.9582 	 131.74
| 22> H 	 -51.8463 	 47.9025 	 133.104
| 23> S 	 -59.5733 	 49.202 	 137.393
| 24> C 	 -59.4455 	 50.2748 	 138.714
| 25> C 	 -58.205 	 50.7764 	 138.859
| 26> C 	 -57.2911 	 50.2478 	 137.915
| 27> C 	 -57.8397 	 49.298 	 137.081
| 28> H 	 -58.0591 	 51.4807 	 139.651
| 29> C 	 -55.8249 	 50.7619 	 137.88
| 30> H 	 -55.4415 	 50.4855 	 136.962
| 31> H 	 -55.3486 	 50.0965 	 138.6
| 32> C 	 -55.57 	 52.3259 	 138.136
| 33> H 	 -54.5502 	 52.5854 	 138.325
| 34> H 	 -55.9522 	 52.5095 	 139.125
| 35> C 	 -56.1841 	 53.2015 	 137.008
| 36> H 	 -57.2015 	 53.0485 	 136.819
| 37> H 	 -55.6662 	 53.0302 	 136.12
| 38> H 	 -56.065 	 54.2484 	 137.195
| 39> H 	 -57.333 	 46.9265 	 132.602
| 40> H 	 -60.2913 	 50.6447 	 139.284
| 41> *
| 42>
| 43>                          ****END OF INPUT****

CARTESIAN COORDINATES (ANGSTROEM)
---------------------------------
  S    -58.466300   47.869800  134.686000
  C    -57.155600   47.432300  133.592000
  C    -56.020500   47.973200  134.112000
  C    -56.129100   48.392200  135.471000
  C    -57.417700   48.682900  135.836000
  H    -55.263200   48.540300  136.068000
  C    -54.659900   47.632800  133.526000
  H    -54.812400   46.924200  132.745000
  H    -54.003200   47.255300  134.290000
  C    -53.860600   48.763000  132.878000
  H    -54.395100   49.275700  132.039000
  H    -53.797300   49.555400  133.600000
  C    -52.555100   48.240500  132.307000
  H    -52.649200   47.339000  131.665000
  H    -51.981900   48.958200  131.740000
  H    -51.846300   47.902500  133.104000
  S    -59.573300   49.202000  137.393000
  C    -59.445500   50.274800  138.714000
  C    -58.205000   50.776400  138.859000
  C    -57.291100   50.247800  137.915000
  C    -57.839700   49.298000  137.081000
  H    -58.059100   51.480700  139.651000
  C    -55.824900   50.761900  137.880000
  H    -55.441500   50.485500  136.962000
  H    -55.348600   50.096500  138.600000
  C    -55.570000   52.325900  138.136000
  H    -54.550200   52.585400  138.325000
  H    -55.952200   52.509500  139.125000
  C    -56.184100   53.201500  137.008000
  H    -57.201500   53.048500  136.819000
  H    -55.666200   53.030200  136.120000
  H    -56.065000   54.248400  137.195000
  H    -57.333000   46.926500  132.602000
  H    -60.291300   50.644700  139.284000

 Total Charge           Charge          ....    0
 Multiplicity           Mult            ....    1
 Number of Electrons    NEL             ....  134
 Basis Dimension        Dim             ....  322

ORBITAL ENERGIES
----------------

  NO   OCC          E(Eh)            E(eV)
   0   2.0000     -88.962089     -2420.7815
   1   2.0000     -88.961620     -2420.7688
   2   2.0000     -10.331832      -281.1435
   3   2.0000     -10.327186      -281.0170
   4   2.0000     -10.318613      -280.7837
   5   2.0000     -10.312086      -280.6061
   6   2.0000     -10.307749      -280.4881
   7   2.0000     -10.296068      -280.1703
   8   2.0000     -10.293008      -280.0870
   9   2.0000     -10.292981      -280.0862
  10   2.0000     -10.288364      -279.9606
  11   2.0000     -10.287363      -279.9334
  12   2.0000     -10.284255      -279.8488
  13   2.0000     -10.284170      -279.8465
  14   2.0000     -10.281274      -279.7677
  15   2.0000     -10.267831      -279.4019
  16   2.0000      -8.077524      -219.8006
  17   2.0000      -8.076763      -219.7799
  18   2.0000      -6.035971      -164.2471
  19   2.0000      -6.035513      -164.2347
  20   2.0000      -6.031933      -164.1372
  21   2.0000      -6.031281      -164.1195
  22   2.0000      -6.028220      -164.0362
  23   2.0000      -6.027244      -164.0097
  24   2.0000      -1.013821       -27.5875
  25   2.0000      -0.991748       -26.9868
  26   2.0000      -0.913552       -24.8590
  27   2.0000      -0.902147       -24.5487
  28   2.0000      -0.876311       -23.8456
  29   2.0000      -0.853182       -23.2163
  30   2.0000      -0.842241       -22.9185
  31   2.0000      -0.820434       -22.3251
  32   2.0000      -0.786211       -21.3939
  33   2.0000      -0.772648       -21.0248
  34   2.0000      -0.719959       -19.5911
  35   2.0000      -0.704772       -19.1778
  36   2.0000      -0.697276       -18.9739
  37   2.0000      -0.661188       -17.9918
  38   2.0000      -0.637445       -17.3457
  39   2.0000      -0.629519       -17.1301
  40   2.0000      -0.595705       -16.2099
  41   2.0000      -0.572986       -15.5917
  42   2.0000      -0.561841       -15.2885
  43   2.0000      -0.553834       -15.0706
  44   2.0000      -0.539929       -14.6922
  45   2.0000      -0.523624       -14.2485
  46   2.0000      -0.518614       -14.1122
  47   2.0000      -0.514666       -14.0048
  48   2.0000      -0.505772       -13.7627
  49   2.0000      -0.502548       -13.6750
  50   2.0000      -0.492173       -13.3927
  51   2.0000      -0.480439       -13.0734
  52   2.0000      -0.473602       -12.8874
  53   2.0000      -0.467204       -12.7133
  54   2.0000      -0.463116       -12.6020
  55   2.0000      -0.453479       -12.3398
  56   2.0000      -0.447652       -12.1812
  57   2.0000      -0.445057       -12.1106
  58   2.0000      -0.436077       -11.8663
  59   2.0000      -0.422826       -11.5057
  60   2.0000      -0.416439       -11.3319
  61   2.0000      -0.414937       -11.2910
  62   2.0000      -0.404597       -11.0097
  63   2.0000      -0.365943        -9.9578
  64   2.0000      -0.334001        -9.0886
  65   2.0000      -0.324197        -8.8218
  66   2.0000      -0.284900        -7.7525
  67   0.0000       0.020847         0.5673
  68   0.0000       0.092022         2.5040
  69   0.0000       0.099056         2.6955
  70   0.0000       0.117181         3.1887
  71   0.0000       0.136984         3.7275

MULLIKEN ATOMIC CHARGES
-----------------------
   0 S :    0.078922
   1 C :   -0.141781
   2 C :   -0.050129
   3 C :   -0.025744
   4 C :   -0.072143
   5 H :    0.015753
   6 C :    0.050145
   7 H :    0.004886
   8 H :    0.023213
   9 C :   -0.061945
  10 H :    0.026509
  11 H :    0.015287
  12 C :   -0.056348
  13 H :    0.031975
  14 H :    0.032361
  15 H :    0.025194
  16 S :    0.083383
  17 C :   -0.074037
  18 C :   -0.033401
  19 C :   -0.085338
  20 C :   -0.119376
  21 H :    0.011068
  22 C :    0.090807
  23 H :   -0.008941
  24 H :    0.043290
  25 C :   -0.046350
  26 H :    0.020280
  27 H :    0.013197
  28 C :   -0.003167
  29 H :    0.032465
  30 H :    0.017292
  31 H :    0.024143
  32 H :    0.083445
  33 H :    0.055085
Sum of atomic charges:   -0.0000000

LOEWDIN ATOMIC CHARGES
----------------------
   0 S :    0.384679
   1 C :   -0.194306
   2 C :   -0.068666
   3 C :   -0.067756
   4 C :   -0.180138
   5 H :    0.024251
   6 C :   -0.024704
   7 H :    0.022402
   8 H :    0.029264
   9 C :   -0.045415
  10 H :    0.026604
  11 H :    0.017199
  12 C :   -0.072318
  13 H :    0.028778
  14 H :    0.024123
  15 H :    0.026499
  16 S :    0.408318
  17 C :   -0.184088
  18 C :   -0.078386
  19 C :   -0.047077
  20 C :   -0.192272
  21 H :    0.031090
  22 C :   -0.020835
  23 H :    0.010233
  24 H :    0.037153
  25 C :   -0.031064
  26 H :    0.024047
  27 H :    0.017120
  28 C :   -0.052301
  29 H :    0.022456
  30 H :    0.020962
  31 H :    0.026030
  32 H :    0.046217
  33 H :    0.031903

  Mayer bond orders larger than 0.100000
B(  0-S ,  1-C ) :   1.1201 B(  0-S ,  4-C ) :   1.1329 B(  1-C ,  2-C ) :   1.6128
B(  1-C , 32-H ) :   0.9627 B(  2-C ,  3-C ) :   1.2314 B(  2-C ,  6-C ) :   1.0389
B(  3-C ,  4-C ) :   1.5633 B(  3-C ,  5-H ) :   0.9907 B(  4-C , 20-C ) :   1.0947
B(  6-C ,  7-H ) :   0.9470 B(  6-C ,  8-H ) :   0.9469 B(  6-C ,  9-C ) :   1.0531
B(  9-C , 10-H ) :   0.9539 B(  9-C , 11-H ) :   0.9554 B(  9-C , 12-C ) :   1.0786
B( 12-C , 13-H ) :   0.9729 B( 12-C , 14-H ) :   0.9747 B( 12-C , 15-H ) :   0.9720
B( 16-S , 17-C ) :   1.1716 B( 16-S , 20-C ) :   1.1175 B( 17-C , 18-C ) :   1.6223
B( 17-C , 33-H ) :   0.9618 B( 18-C , 19-C ) :   1.2358 B( 18-C , 21-H ) :   0.9993
B( 19-C , 20-C ) :   1.5990 B( 19-C , 22-C ) :   1.0104 B( 22-C , 23-H ) :   0.9299
B( 22-C , 24-H ) :   0.9381 B( 22-C , 25-C ) :   1.0629 B( 25-C , 26-H ) :   0.9560
B( 25-C , 27-H ) :   0.9546 B( 25-C , 28-C ) :   1.0666 B( 28-C , 29-H ) :   0.9787
B( 28-C , 30-H ) :   0.9744 B( 28-C , 31-H ) :   0.9738

Dispersion correction           -0.013749118
FINAL SINGLE POINT ENERGY     -1339.862696443325

DIPOLE MOMENT
-------------
                                X             Y             Z
Electronic contribution:    -27.52993     -11.53709       6.74650
Nuclear contribution   :     28.15866      11.93642      -6.64049
                        -----------------------------------------
Total Dipole Moment    :      0.62873       0.39934       0.10601
                        -----------------------------------------
Magnitude (a.u.)       :      0.75234
Magnitude (Debye)      :      1.91230

Rotational constants in cm-1:     0.018591     0.008727     0.006318
Rotational constants in MHz :   557.355008   261.618153   189.417914

                             ****ORCA TERMINATED NORMALLY****
TOTAL RUN TIME: 0 days 0 hours 0 minutes 34 seconds 268 msec
