                         Program Version 4.2.1 -  RELEASE  -
|  1> ! wB97X-D3 SP def2-SVP
|  2> %pal
|  3> nprocs 16
|  4> end
|  5>
|  6> * xyz 0 1
|  7> S 	 -52.9435 	 39.4239 	 108.841
|  8> C 	 -51.2046 	 39.5895 	 108.605
|  9> C 	 -50.5623 	 38.6385 	 109.385
| 10> C 	 -51.4133 	 37.7299 	 110.08
| 11> C 	 -52.7192 	 37.9624 	 109.792
| 12> H 	 -51.2039 	 36.8821 	 110.79
| 13> C 	 -49.0785 	 38.7465 	 109.772
| 14> H 	 -48.9176 	 37.9259 	 110.496
| 15> H 	 -49.0179 	 39.6654 	 110.281
| 16> C 	 -48.0552 	 38.7903 	 108.565
| 17> H 	 -48.3365 	 38.0335 	 107.807
| 18> H 	 -48.1322 	 39.7508 	 108.081
| 19> C 	 -46.6922 	 38.3316 	 109.095
| 20> H 	 -45.9146 	 38.6642 	 108.435
| 21> H 	 -46.5655 	 38.6202 	 110.136
| 22> H 	 -46.7153 	 37.2196 	 109.114
| 23> S 	 -54.08 	 37.9018 	 112.197
| 24> C 	 -55.2161 	 36.5335 	 112.565
| 25> C 	 -55.1381 	 35.6598 	 111.514
| 26> C 	 -54.2057 	 35.9822 	 110.492
| 27> C 	 -53.7127 	 37.2674 	 110.591
| 28> H 	 -55.7313 	 34.7157 	 111.705
| 29> C 	 -53.9023 	 35.1555 	 109.299
| 30> H 	 -52.8237 	 35.2877 	 109.175
| 31> H 	 -54.3179 	 35.58 	 108.379
| 32> C 	 -54.2914 	 33.7026 	 109.392
| 33> H 	 -54.3606 	 33.2845 	 108.365
| 34> H 	 -55.2927 	 33.6077 	 109.796
| 35> C 	 -53.2946 	 32.7663 	 110.137
| 36> H 	 -52.3332 	 32.849 	 109.707
| 37> H 	 -53.5122 	 31.7105 	 110.033
| 38> H 	 -53.4312 	 32.9553 	 111.265
| 39> H 	 -50.6617 	 40.45 	 108.103
| 40> H 	 -55.78 	 36.3871 	 113.49
| 41> *
| 42>
| 43>                          ****END OF INPUT****

CARTESIAN COORDINATES (ANGSTROEM)
---------------------------------
  S    -52.943500   39.423900  108.841000
  C    -51.204600   39.589500  108.605000
  C    -50.562300   38.638500  109.385000
  C    -51.413300   37.729900  110.080000
  C    -52.719200   37.962400  109.792000
  H    -51.203900   36.882100  110.790000
  C    -49.078500   38.746500  109.772000
  H    -48.917600   37.925900  110.496000
  H    -49.017900   39.665400  110.281000
  C    -48.055200   38.790300  108.565000
  H    -48.336500   38.033500  107.807000
  H    -48.132200   39.750800  108.081000
  C    -46.692200   38.331600  109.095000
  H    -45.914600   38.664200  108.435000
  H    -46.565500   38.620200  110.136000
  H    -46.715300   37.219600  109.114000
  S    -54.080000   37.901800  112.197000
  C    -55.216100   36.533500  112.565000
  C    -55.138100   35.659800  111.514000
  C    -54.205700   35.982200  110.492000
  C    -53.712700   37.267400  110.591000
  H    -55.731300   34.715700  111.705000
  C    -53.902300   35.155500  109.299000
  H    -52.823700   35.287700  109.175000
  H    -54.317900   35.580000  108.379000
  C    -54.291400   33.702600  109.392000
  H    -54.360600   33.284500  108.365000
  H    -55.292700   33.607700  109.796000
  C    -53.294600   32.766300  110.137000
  H    -52.333200   32.849000  109.707000
  H    -53.512200   31.710500  110.033000
  H    -53.431200   32.955300  111.265000
  H    -50.661700   40.450000  108.103000
  H    -55.780000   36.387100  113.490000

 Total Charge           Charge          ....    0
 Multiplicity           Mult            ....    1
 Number of Electrons    NEL             ....  134
 Basis Dimension        Dim             ....  322

ORBITAL ENERGIES
----------------

  NO   OCC          E(Eh)            E(eV)
   0   2.0000     -88.969951     -2420.9954
   1   2.0000     -88.958978     -2420.6968
   2   2.0000     -10.324672      -280.9486
   3   2.0000     -10.322369      -280.8859
   4   2.0000     -10.321494      -280.8621
   5   2.0000     -10.321129      -280.8522
   6   2.0000     -10.301222      -280.3105
   7   2.0000     -10.299150      -280.2541
   8   2.0000     -10.297213      -280.2014
   9   2.0000     -10.296561      -280.1837
  10   2.0000     -10.290797      -280.0268
  11   2.0000     -10.289799      -279.9997
  12   2.0000     -10.284927      -279.8671
  13   2.0000     -10.284254      -279.8488
  14   2.0000     -10.279716      -279.7253
  15   2.0000     -10.279569      -279.7213
  16   2.0000      -8.083958      -219.9757
  17   2.0000      -8.072714      -219.6697
  18   2.0000      -6.042509      -164.4250
  19   2.0000      -6.038639      -164.3197
  20   2.0000      -6.034620      -164.2104
  21   2.0000      -6.031332      -164.1209
  22   2.0000      -6.027388      -164.0136
  23   2.0000      -6.023368      -163.9042
  24   2.0000      -1.007416       -27.4132
  25   2.0000      -0.981614       -26.7111
  26   2.0000      -0.908628       -24.7250
  27   2.0000      -0.906568       -24.6690
  28   2.0000      -0.873670       -23.7738
  29   2.0000      -0.850467       -23.1424
  30   2.0000      -0.840695       -22.8765
  31   2.0000      -0.815748       -22.1976
  32   2.0000      -0.777915       -21.1681
  33   2.0000      -0.767298       -20.8793
  34   2.0000      -0.708526       -19.2800
  35   2.0000      -0.700763       -19.0687
  36   2.0000      -0.697598       -18.9826
  37   2.0000      -0.644899       -17.5486
  38   2.0000      -0.640989       -17.4422
  39   2.0000      -0.609687       -16.5904
  40   2.0000      -0.598553       -16.2874
  41   2.0000      -0.566131       -15.4052
  42   2.0000      -0.562474       -15.3057
  43   2.0000      -0.551698       -15.0125
  44   2.0000      -0.534405       -14.5419
  45   2.0000      -0.527064       -14.3421
  46   2.0000      -0.525527       -14.3003
  47   2.0000      -0.515649       -14.0315
  48   2.0000      -0.501173       -13.6376
  49   2.0000      -0.493358       -13.4250
  50   2.0000      -0.487427       -13.2636
  51   2.0000      -0.482376       -13.1261
  52   2.0000      -0.471332       -12.8256
  53   2.0000      -0.465947       -12.6791
  54   2.0000      -0.459854       -12.5133
  55   2.0000      -0.454861       -12.3774
  56   2.0000      -0.438225       -11.9247
  57   2.0000      -0.432109       -11.7583
  58   2.0000      -0.431116       -11.7313
  59   2.0000      -0.423369       -11.5205
  60   2.0000      -0.417944       -11.3728
  61   2.0000      -0.411744       -11.2041
  62   2.0000      -0.405298       -11.0287
  63   2.0000      -0.340507        -9.2657
  64   2.0000      -0.326946        -8.8966
  65   2.0000      -0.316769        -8.6197
  66   2.0000      -0.307337        -8.3631
  67   0.0000       0.038088         1.0364
  68   0.0000       0.049509         1.3472
  69   0.0000       0.108803         2.9607
  70   0.0000       0.120876         3.2892
  71   0.0000       0.134307         3.6547

MULLIKEN ATOMIC CHARGES
-----------------------
   0 S :    0.117359
   1 C :   -0.144158
   2 C :   -0.075560
   3 C :    0.006928
   4 C :   -0.174206
   5 H :    0.051745
   6 C :    0.034916
   7 H :    0.024990
   8 H :    0.038405
   9 C :   -0.088680
  10 H :    0.037694
  11 H :    0.030791
  12 C :   -0.040462
  13 H :    0.036296
  14 H :    0.034148
  15 H :    0.036291
  16 S :    0.084662
  17 C :   -0.112989
  18 C :   -0.051965
  19 C :   -0.044771
  20 C :   -0.162436
  21 H :    0.042580
  22 C :    0.098769
  23 H :    0.015100
  24 H :    0.044750
  25 C :   -0.085850
  26 H :    0.025286
  27 H :    0.025225
  28 C :   -0.049521
  29 H :    0.027156
  30 H :    0.027323
  31 H :    0.045448
  32 H :    0.078920
  33 H :    0.065815
Sum of atomic charges:    0.0000000

LOEWDIN ATOMIC CHARGES
----------------------
   0 S :    0.405526
   1 C :   -0.210034
   2 C :   -0.065834
   3 C :   -0.063426
   4 C :   -0.203926
   5 H :    0.048966
   6 C :   -0.027536
   7 H :    0.029102
   8 H :    0.028381
   9 C :   -0.039998
  10 H :    0.027709
  11 H :    0.017799
  12 C :   -0.062133
  13 H :    0.023265
  14 H :    0.023180
  15 H :    0.031693
  16 S :    0.367362
  17 C :   -0.168966
  18 C :   -0.085406
  19 C :   -0.062336
  20 C :   -0.189361
  21 H :    0.042970
  22 C :   -0.036776
  23 H :    0.033698
  24 H :    0.040860
  25 C :   -0.045141
  26 H :    0.028018
  27 H :    0.019996
  28 C :   -0.068415
  29 H :    0.019328
  30 H :    0.024155
  31 H :    0.034781
  32 H :    0.046176
  33 H :    0.036325

  Mayer bond orders larger than 0.100000
B(  0-S ,  1-C ) :   1.1294 B(  0-S ,  4-C ) :   1.1496 B(  1-C ,  2-C ) :   1.6097
B(  1-C , 32-H ) :   0.9634 B(  2-C ,  3-C ) :   1.2366 B(  2-C ,  6-C ) :   1.0084
B(  3-C ,  4-C ) :   1.5823 B(  3-C ,  5-H ) :   0.9835 B(  4-C , 20-C ) :   1.0224
B(  6-C ,  7-H ) :   0.9557 B(  6-C ,  8-H ) :   0.9380 B(  6-C ,  9-C ) :   1.0482
B(  9-C , 10-H ) :   0.9694 B(  9-C , 11-H ) :   0.9581 B(  9-C , 12-C ) :   1.0694
B( 12-C , 13-H ) :   0.9742 B( 12-C , 14-H ) :   0.9770 B( 12-C , 15-H ) :   0.9788
B( 16-S , 17-C ) :   1.1364 B( 16-S , 20-C ) :   1.1366 B( 17-C , 18-C ) :   1.6368
B( 17-C , 20-C ) :   0.1047 B( 17-C , 33-H ) :   0.9649 B( 18-C , 19-C ) :   1.2210
B( 18-C , 21-H ) :   0.9730 B( 19-C , 20-C ) :   1.6060 B( 19-C , 22-C ) :   1.0399
B( 22-C , 23-H ) :   0.9185 B( 22-C , 24-H ) :   0.9295 B( 22-C , 25-C ) :   1.0814
B( 25-C , 26-H ) :   0.9521 B( 25-C , 27-H ) :   0.9492 B( 25-C , 28-C ) :   1.0836
B( 28-C , 29-H ) :   0.9731 B( 28-C , 30-H ) :   0.9751 B( 28-C , 31-H ) :   0.9754

Dispersion correction           -0.013943650
FINAL SINGLE POINT ENERGY     -1339.857039960953

DIPOLE MOMENT
-------------
                                X             Y             Z
Electronic contribution:    -18.62864      16.73380       5.89900
Nuclear contribution   :     19.07543     -17.14113      -5.90320
                        -----------------------------------------
Total Dipole Moment    :      0.44679      -0.40733      -0.00419
                        -----------------------------------------
Magnitude (a.u.)       :      0.60461
Magnitude (Debye)      :      1.53680

Rotational constants in cm-1:     0.019198     0.007566     0.006472
Rotational constants in MHz :   575.554970   226.816395   194.038751

                             ****ORCA TERMINATED NORMALLY****
TOTAL RUN TIME: 0 days 0 hours 0 minutes 29 seconds 387 msec
