                         Program Version 4.2.1 -  RELEASE  -
|  1> ! wB97X-D3 SP def2-SVP
|  2> %pal
|  3> nprocs 16
|  4> end
|  5>
|  6> * xyz 0 1
|  7> S 	 -10.1189 	 75.7087 	 51.0416
|  8> C 	 -11.4311 	 76.6721 	 51.5928
|  9> C 	 -12.6193 	 76.2004 	 51.0798
| 10> C 	 -12.4108 	 75.1551 	 50.0818
| 11> C 	 -11.1006 	 74.83 	 49.9217
| 12> H 	 -13.1651 	 74.6775 	 49.449
| 13> C 	 -13.9914 	 76.7779 	 51.3749
| 14> H 	 -13.9875 	 77.8225 	 51.0636
| 15> H 	 -14.2896 	 76.6499 	 52.4483
| 16> C 	 -15.1762 	 76.2074 	 50.5885
| 17> H 	 -15.1434 	 76.3945 	 49.4483
| 18> H 	 -15.1671 	 75.1738 	 50.7798
| 19> C 	 -16.5506 	 76.6973 	 51.1224
| 20> H 	 -16.8577 	 76.1075 	 52.0223
| 21> H 	 -16.5354 	 77.7567 	 51.3159
| 22> H 	 -17.3111 	 76.6166 	 50.381
| 23> S 	 -9.2349 	 72.7762 	 49.5267
| 24> C 	 -9.31588 	 71.7732 	 48.0673
| 25> C 	 -10.2822 	 72.3035 	 47.2601
| 26> C 	 -11.038 	 73.3312 	 47.7692
| 27> C 	 -10.5779 	 73.7818 	 49.0175
| 28> H 	 -10.4294 	 71.8323 	 46.313
| 29> C 	 -11.9853 	 74.1445 	 46.8407
| 30> H 	 -11.301 	 74.5403 	 46.1119
| 31> H 	 -12.3106 	 74.9513 	 47.5068
| 32> C 	 -13.1757 	 73.3817 	 46.2735
| 33> H 	 -13.837 	 73.0961 	 47.0737
| 34> H 	 -12.9362 	 72.4027 	 45.7571
| 35> C 	 -13.9579 	 74.1659 	 45.2643
| 36> H 	 -14.4582 	 75.0597 	 45.6197
| 37> H 	 -14.6837 	 73.5557 	 44.6656
| 38> H 	 -13.2698 	 74.4472 	 44.4703
| 39> H 	 -11.485 	 77.4518 	 52.3869
| 40> H 	 -8.83724 	 70.8412 	 47.7945
| 41> *
| 42>
| 43>                          ****END OF INPUT****

CARTESIAN COORDINATES (ANGSTROEM)
---------------------------------
  S    -10.118900   75.708700   51.041600
  C    -11.431100   76.672100   51.592800
  C    -12.619300   76.200400   51.079800
  C    -12.410800   75.155100   50.081800
  C    -11.100600   74.830000   49.921700
  H    -13.165100   74.677500   49.449000
  C    -13.991400   76.777900   51.374900
  H    -13.987500   77.822500   51.063600
  H    -14.289600   76.649900   52.448300
  C    -15.176200   76.207400   50.588500
  H    -15.143400   76.394500   49.448300
  H    -15.167100   75.173800   50.779800
  C    -16.550600   76.697300   51.122400
  H    -16.857700   76.107500   52.022300
  H    -16.535400   77.756700   51.315900
  H    -17.311100   76.616600   50.381000
  S     -9.234900   72.776200   49.526700
  C     -9.315880   71.773200   48.067300
  C    -10.282200   72.303500   47.260100
  C    -11.038000   73.331200   47.769200
  C    -10.577900   73.781800   49.017500
  H    -10.429400   71.832300   46.313000
  C    -11.985300   74.144500   46.840700
  H    -11.301000   74.540300   46.111900
  H    -12.310600   74.951300   47.506800
  C    -13.175700   73.381700   46.273500
  H    -13.837000   73.096100   47.073700
  H    -12.936200   72.402700   45.757100
  C    -13.957900   74.165900   45.264300
  H    -14.458200   75.059700   45.619700
  H    -14.683700   73.555700   44.665600
  H    -13.269800   74.447200   44.470300
  H    -11.485000   77.451800   52.386900
  H     -8.837240   70.841200   47.794500

 Total Charge           Charge          ....    0
 Multiplicity           Mult            ....    1
 Number of Electrons    NEL             ....  134
 Basis Dimension        Dim             ....  322

ORBITAL ENERGIES
----------------

  NO   OCC          E(Eh)            E(eV)
   0   2.0000     -88.968411     -2420.9536
   1   2.0000     -88.967540     -2420.9299
   2   2.0000     -10.332755      -281.1686
   3   2.0000     -10.330295      -281.1016
   4   2.0000     -10.316612      -280.7293
   5   2.0000     -10.314700      -280.6773
   6   2.0000     -10.303631      -280.3761
   7   2.0000     -10.298547      -280.2377
   8   2.0000     -10.296088      -280.1708
   9   2.0000     -10.294561      -280.1292
  10   2.0000     -10.292495      -280.0730
  11   2.0000     -10.290490      -280.0185
  12   2.0000     -10.289076      -279.9800
  13   2.0000     -10.283548      -279.8296
  14   2.0000     -10.280193      -279.7383
  15   2.0000     -10.277655      -279.6692
  16   2.0000      -8.083771      -219.9706
  17   2.0000      -8.081611      -219.9118
  18   2.0000      -6.042375      -164.4214
  19   2.0000      -6.040167      -164.3613
  20   2.0000      -6.038139      -164.3061
  21   2.0000      -6.036106      -164.2508
  22   2.0000      -6.034437      -164.2054
  23   2.0000      -6.032453      -164.1514
  24   2.0000      -1.011464       -27.5233
  25   2.0000      -0.989773       -26.9331
  26   2.0000      -0.913165       -24.8485
  27   2.0000      -0.910637       -24.7797
  28   2.0000      -0.873675       -23.7739
  29   2.0000      -0.855283       -23.2734
  30   2.0000      -0.845560       -23.0089
  31   2.0000      -0.819902       -22.3107
  32   2.0000      -0.781264       -21.2593
  33   2.0000      -0.772680       -21.0257
  34   2.0000      -0.711319       -19.3560
  35   2.0000      -0.698776       -19.0146
  36   2.0000      -0.690482       -18.7890
  37   2.0000      -0.658208       -17.9107
  38   2.0000      -0.638332       -17.3699
  39   2.0000      -0.620748       -16.8914
  40   2.0000      -0.590854       -16.0779
  41   2.0000      -0.578908       -15.7529
  42   2.0000      -0.571370       -15.5478
  43   2.0000      -0.568940       -15.4816
  44   2.0000      -0.532688       -14.4952
  45   2.0000      -0.519756       -14.1433
  46   2.0000      -0.513574       -13.9751
  47   2.0000      -0.510912       -13.9026
  48   2.0000      -0.505433       -13.7535
  49   2.0000      -0.501221       -13.6389
  50   2.0000      -0.499997       -13.6056
  51   2.0000      -0.484567       -13.1857
  52   2.0000      -0.474481       -12.9113
  53   2.0000      -0.466326       -12.6894
  54   2.0000      -0.462940       -12.5972
  55   2.0000      -0.451990       -12.2993
  56   2.0000      -0.441855       -12.0235
  57   2.0000      -0.432450       -11.7676
  58   2.0000      -0.429608       -11.6902
  59   2.0000      -0.424411       -11.5488
  60   2.0000      -0.420921       -11.4539
  61   2.0000      -0.415944       -11.3184
  62   2.0000      -0.412039       -11.2122
  63   2.0000      -0.359368        -9.7789
  64   2.0000      -0.336088        -9.1454
  65   2.0000      -0.328380        -8.9357
  66   2.0000      -0.287607        -7.8262
  67   0.0000       0.025635         0.6976
  68   0.0000       0.077871         2.1190
  69   0.0000       0.111182         3.0254
  70   0.0000       0.123357         3.3567
  71   0.0000       0.125652         3.4192

MULLIKEN ATOMIC CHARGES
-----------------------
   0 S :    0.119346
   1 C :   -0.115492
   2 C :   -0.101187
   3 C :   -0.010326
   4 C :   -0.113375
   5 H :    0.023312
   6 C :    0.044716
   7 H :    0.041683
   8 H :    0.047769
   9 C :   -0.135727
  10 H :    0.046718
  11 H :    0.027061
  12 C :   -0.025252
  13 H :    0.044548
  14 H :    0.021810
  15 H :    0.021987
  16 S :    0.099915
  17 C :   -0.087949
  18 C :   -0.033767
  19 C :   -0.039591
  20 C :   -0.138690
  21 H :    0.006610
  22 C :    0.060759
  23 H :    0.038970
  24 H :    0.018681
  25 C :   -0.074606
  26 H :    0.023392
  27 H :    0.034316
  28 C :   -0.043657
  29 H :    0.033793
  30 H :    0.031949
  31 H :    0.017619
  32 H :    0.058357
  33 H :    0.056309
Sum of atomic charges:    0.0000000

LOEWDIN ATOMIC CHARGES
----------------------
   0 S :    0.425859
   1 C :   -0.215621
   2 C :   -0.065191
   3 C :   -0.071496
   4 C :   -0.196571
   5 H :    0.033861
   6 C :   -0.039867
   7 H :    0.035344
   8 H :    0.039639
   9 C :   -0.048582
  10 H :    0.030771
  11 H :    0.015112
  12 C :   -0.062856
  13 H :    0.032207
  14 H :    0.021124
  15 H :    0.022631
  16 S :    0.399102
  17 C :   -0.183349
  18 C :   -0.072617
  19 C :   -0.066954
  20 C :   -0.189631
  21 H :    0.027336
  22 C :   -0.022931
  23 H :    0.032745
  24 H :    0.030386
  25 C :   -0.048574
  26 H :    0.021796
  27 H :    0.030913
  28 C :   -0.070653
  29 H :    0.021885
  30 H :    0.030926
  31 H :    0.023674
  32 H :    0.042864
  33 H :    0.036717

  Mayer bond orders larger than 0.100000
B(  0-S ,  1-C ) :   1.1334 B(  0-S ,  4-C ) :   1.1497 B(  1-C ,  2-C ) :   1.6367
B(  1-C , 32-H ) :   0.9666 B(  2-C ,  3-C ) :   1.2429 B(  2-C ,  6-C ) :   1.0102
B(  3-C ,  4-C ) :   1.5673 B(  3-C ,  5-H ) :   0.9844 B(  4-C , 20-C ) :   1.0357
B(  6-C ,  7-H ) :   0.9360 B(  6-C ,  8-H ) :   0.9405 B(  6-C ,  9-C ) :   1.0930
B(  9-C , 10-H ) :   0.9524 B(  9-C , 11-H ) :   0.9495 B(  9-C , 12-C ) :   1.0812
B( 12-C , 13-H ) :   0.9756 B( 12-C , 14-H ) :   0.9743 B( 12-C , 15-H ) :   0.9725
B( 16-S , 17-C ) :   1.1437 B( 16-S , 20-C ) :   1.1528 B( 17-C , 18-C ) :   1.6012
B( 17-C , 20-C ) :   0.1112 B( 17-C , 33-H ) :   0.9673 B( 18-C , 19-C ) :   1.2853
B( 18-C , 21-H ) :   0.9876 B( 19-C , 20-C ) :   1.5537 B( 19-C , 22-C ) :   1.0218
B( 22-C , 23-H ) :   0.9462 B( 22-C , 24-H ) :   0.9344 B( 22-C , 25-C ) :   1.0559
B( 25-C , 26-H ) :   0.9500 B( 25-C , 27-H ) :   0.9556 B( 25-C , 28-C ) :   1.0922
B( 28-C , 29-H ) :   0.9742 B( 28-C , 30-H ) :   0.9723 B( 28-C , 31-H ) :   0.9706

Dispersion correction           -0.013614532
FINAL SINGLE POINT ENERGY     -1339.875036752787

DIPOLE MOMENT
-------------
                                X             Y             Z
Electronic contribution:     31.03648      -6.41019      11.90746
Nuclear contribution   :    -31.73185       6.46160     -12.24791
                        -----------------------------------------
Total Dipole Moment    :     -0.69537       0.05140      -0.34045
                        -----------------------------------------
Magnitude (a.u.)       :      0.77594
Magnitude (Debye)      :      1.97229

Rotational constants in cm-1:     0.015705     0.009616     0.006369
Rotational constants in MHz :   470.829871   288.269798   190.947115

                             ****ORCA TERMINATED NORMALLY****
TOTAL RUN TIME: 0 days 0 hours 0 minutes 33 seconds 986 msec
