                         Program Version 4.2.1 -  RELEASE  -
|  1> ! wB97X-D3 SP def2-SVP
|  2> %pal
|  3> nprocs 16
|  4> end
|  5>
|  6> * xyz 0 1
|  7> S 	 40.756 	 12.4548 	 49.6234
|  8> C 	 40.5984 	 14.1155 	 50.0519
|  9> C 	 41.7898 	 14.7663 	 50.3138
| 10> C 	 42.8797 	 13.8147 	 50.2253
| 11> C 	 42.5192 	 12.5337 	 49.8279
| 12> H 	 43.9032 	 14.064 	 50.5497
| 13> C 	 41.9517 	 16.2062 	 50.7817
| 14> H 	 41.3418 	 16.7516 	 50.1699
| 15> H 	 43.0247 	 16.5712 	 50.8312
| 16> C 	 41.274 	 16.4328 	 52.1122
| 17> H 	 40.2029 	 16.0996 	 52.1247
| 18> H 	 41.7812 	 15.6924 	 52.7757
| 19> C 	 41.3998 	 17.8086 	 52.751
| 20> H 	 42.442 	 18.1792 	 52.7549
| 21> H 	 40.6972 	 18.543 	 52.3403
| 22> H 	 41.0865 	 17.5806 	 53.802
| 23> S 	 43.4356 	 10.3523 	 51.042
| 24> C 	 44.3957 	 9.14963 	 50.2183
| 25> C 	 44.7631 	 9.6326 	 48.9919
| 26> C 	 44.2637 	 10.9415 	 48.6921
| 27> C 	 43.384 	 11.3897 	 49.6841
| 28> H 	 45.477 	 9.1359 	 48.3234
| 29> C 	 44.7735 	 11.7694 	 47.4798
| 30> H 	 43.8674 	 12.3979 	 47.2773
| 31> H 	 44.9699 	 11.0675 	 46.692
| 32> C 	 46.0027 	 12.6576 	 47.6436
| 33> H 	 45.935 	 13.3486 	 48.4704
| 34> H 	 46.2566 	 13.3178 	 46.773
| 35> C 	 47.2756 	 11.8632 	 47.9213
| 36> H 	 47.269 	 11.2873 	 48.8464
| 37> H 	 48.1102 	 12.5026 	 47.9355
| 38> H 	 47.5331 	 11.1421 	 47.1875
| 39> H 	 39.6028 	 14.6092 	 50.0904
| 40> H 	 44.6741 	 8.1562 	 50.5939
| 41> *
| 42>
| 43>                          ****END OF INPUT****

CARTESIAN COORDINATES (ANGSTROEM)
---------------------------------
  S     40.756000   12.454800   49.623400
  C     40.598400   14.115500   50.051900
  C     41.789800   14.766300   50.313800
  C     42.879700   13.814700   50.225300
  C     42.519200   12.533700   49.827900
  H     43.903200   14.064000   50.549700
  C     41.951700   16.206200   50.781700
  H     41.341800   16.751600   50.169900
  H     43.024700   16.571200   50.831200
  C     41.274000   16.432800   52.112200
  H     40.202900   16.099600   52.124700
  H     41.781200   15.692400   52.775700
  C     41.399800   17.808600   52.751000
  H     42.442000   18.179200   52.754900
  H     40.697200   18.543000   52.340300
  H     41.086500   17.580600   53.802000
  S     43.435600   10.352300   51.042000
  C     44.395700    9.149630   50.218300
  C     44.763100    9.632600   48.991900
  C     44.263700   10.941500   48.692100
  C     43.384000   11.389700   49.684100
  H     45.477000    9.135900   48.323400
  C     44.773500   11.769400   47.479800
  H     43.867400   12.397900   47.277300
  H     44.969900   11.067500   46.692000
  C     46.002700   12.657600   47.643600
  H     45.935000   13.348600   48.470400
  H     46.256600   13.317800   46.773000
  C     47.275600   11.863200   47.921300
  H     47.269000   11.287300   48.846400
  H     48.110200   12.502600   47.935500
  H     47.533100   11.142100   47.187500
  H     39.602800   14.609200   50.090400
  H     44.674100    8.156200   50.593900

 Total Charge           Charge          ....    0
 Multiplicity           Mult            ....    1
 Number of Electrons    NEL             ....  134
 Basis Dimension        Dim             ....  322

ORBITAL ENERGIES
----------------

  NO   OCC          E(Eh)            E(eV)
   0   2.0000     -88.967703     -2420.9343
   1   2.0000     -88.962461     -2420.7916
   2   2.0000     -10.328729      -281.0590
   3   2.0000     -10.321470      -280.8615
   4   2.0000     -10.316625      -280.7296
   5   2.0000     -10.316491      -280.7260
   6   2.0000     -10.303967      -280.3852
   7   2.0000     -10.303000      -280.3589
   8   2.0000     -10.299610      -280.2666
   9   2.0000     -10.293034      -280.0877
  10   2.0000     -10.291734      -280.0523
  11   2.0000     -10.289919      -280.0029
  12   2.0000     -10.288012      -279.9510
  13   2.0000     -10.287031      -279.9243
  14   2.0000     -10.284959      -279.8680
  15   2.0000     -10.264701      -279.3167
  16   2.0000      -8.082411      -219.9336
  17   2.0000      -8.078138      -219.8173
  18   2.0000      -6.040870      -164.3804
  19   2.0000      -6.036957      -164.2739
  20   2.0000      -6.036617      -164.2647
  21   2.0000      -6.033183      -164.1713
  22   2.0000      -6.032367      -164.1490
  23   2.0000      -6.029002      -164.0575
  24   2.0000      -1.008301       -27.4373
  25   2.0000      -0.985038       -26.8042
  26   2.0000      -0.917285       -24.9606
  27   2.0000      -0.905616       -24.6431
  28   2.0000      -0.871701       -23.7202
  29   2.0000      -0.848673       -23.0936
  30   2.0000      -0.846106       -23.0237
  31   2.0000      -0.814281       -22.1577
  32   2.0000      -0.784782       -21.3550
  33   2.0000      -0.771696       -20.9989
  34   2.0000      -0.705638       -19.2014
  35   2.0000      -0.692223       -18.8364
  36   2.0000      -0.689074       -18.7507
  37   2.0000      -0.660830       -17.9821
  38   2.0000      -0.642007       -17.4699
  39   2.0000      -0.618937       -16.8421
  40   2.0000      -0.587372       -15.9832
  41   2.0000      -0.576508       -15.6876
  42   2.0000      -0.561603       -15.2820
  43   2.0000      -0.549645       -14.9566
  44   2.0000      -0.548563       -14.9271
  45   2.0000      -0.522017       -14.2048
  46   2.0000      -0.516884       -14.0651
  47   2.0000      -0.511557       -13.9202
  48   2.0000      -0.506255       -13.7759
  49   2.0000      -0.498708       -13.5705
  50   2.0000      -0.485960       -13.2236
  51   2.0000      -0.478037       -13.0080
  52   2.0000      -0.472020       -12.8443
  53   2.0000      -0.469904       -12.7868
  54   2.0000      -0.457642       -12.4531
  55   2.0000      -0.447633       -12.1807
  56   2.0000      -0.443462       -12.0672
  57   2.0000      -0.434761       -11.8305
  58   2.0000      -0.432958       -11.7814
  59   2.0000      -0.427442       -11.6313
  60   2.0000      -0.424072       -11.5396
  61   2.0000      -0.410874       -11.1805
  62   2.0000      -0.407570       -11.0905
  63   2.0000      -0.338266        -9.2047
  64   2.0000      -0.327354        -8.9078
  65   2.0000      -0.317493        -8.6394
  66   2.0000      -0.308556        -8.3962
  67   0.0000       0.039366         1.0712
  68   0.0000       0.057202         1.5565
  69   0.0000       0.117654         3.2015
  70   0.0000       0.121500         3.3062
  71   0.0000       0.131267         3.5720

MULLIKEN ATOMIC CHARGES
-----------------------
   0 S :    0.133694
   1 C :   -0.152184
   2 C :   -0.094018
   3 C :    0.039245
   4 C :   -0.178410
   5 H :    0.021937
   6 C :    0.153849
   7 H :   -0.002246
   8 H :    0.037455
   9 C :   -0.165540
  10 H :    0.034773
  11 H :    0.026059
  12 C :   -0.036508
  13 H :    0.037757
  14 H :    0.041354
  15 H :    0.042640
  16 S :    0.121225
  17 C :   -0.095048
  18 C :   -0.037261
  19 C :   -0.047505
  20 C :   -0.204952
  21 H :    0.021276
  22 C :    0.092545
  23 H :    0.044067
  24 H :    0.015970
  25 C :   -0.040863
  26 H :    0.018777
  27 H :    0.037964
  28 C :   -0.050608
  29 H :    0.035957
  30 H :    0.014881
  31 H :    0.007748
  32 H :    0.062461
  33 H :    0.063508
Sum of atomic charges:   -0.0000000

LOEWDIN ATOMIC CHARGES
----------------------
   0 S :    0.414283
   1 C :   -0.206136
   2 C :   -0.063881
   3 C :   -0.053533
   4 C :   -0.206874
   5 H :    0.033740
   6 C :   -0.029993
   7 H :    0.019174
   8 H :    0.039458
   9 C :   -0.052444
  10 H :    0.027024
  11 H :    0.023316
  12 C :   -0.069876
  13 H :    0.027409
  14 H :    0.025132
  15 H :    0.037599
  16 S :    0.433630
  17 C :   -0.194388
  18 C :   -0.078192
  19 C :   -0.054447
  20 C :   -0.220897
  21 H :    0.032305
  22 C :   -0.028684
  23 H :    0.040886
  24 H :    0.025640
  25 C :   -0.039398
  26 H :    0.021853
  27 H :    0.033648
  28 C :   -0.066464
  29 H :    0.025881
  30 H :    0.019692
  31 H :    0.015484
  32 H :    0.033112
  33 H :    0.035941

  Mayer bond orders larger than 0.100000
B(  0-S ,  1-C ) :   1.1613 B(  0-S ,  4-C ) :   1.1384 B(  1-C ,  2-C ) :   1.6018
B(  1-C , 32-H ) :   0.9581 B(  2-C ,  3-C ) :   1.2491 B(  2-C ,  6-C ) :   1.0259
B(  3-C ,  4-C ) :   1.5888 B(  3-C ,  5-H ) :   0.9871 B(  4-C , 20-C ) :   1.0236
B(  6-C ,  7-H ) :   0.9163 B(  6-C ,  8-H ) :   0.9441 B(  6-C ,  9-C ) :   1.0618
B(  9-C , 10-H ) :   0.9518 B(  9-C , 11-H ) :   0.9590 B(  9-C , 12-C ) :   1.0824
B( 12-C , 13-H ) :   0.9716 B( 12-C , 14-H ) :   0.9739 B( 12-C , 15-H ) :   0.9730
B( 16-S , 17-C ) :   1.1552 B( 16-S , 20-C ) :   1.1799 B( 17-C , 18-C ) :   1.5873
B( 17-C , 20-C ) :   0.1039 B( 17-C , 33-H ) :   0.9679 B( 18-C , 19-C ) :   1.2679
B( 18-C , 21-H ) :   0.9827 B( 19-C , 20-C ) :   1.5733 B( 19-C , 22-C ) :   1.0338
B( 22-C , 23-H ) :   0.9282 B( 22-C , 24-H ) :   0.9367 B( 22-C , 25-C ) :   1.0764
B( 25-C , 26-H ) :   0.9519 B( 25-C , 27-H ) :   0.9550 B( 25-C , 28-C ) :   1.0805
B( 28-C , 29-H ) :   0.9732 B( 28-C , 30-H ) :   0.9707 B( 28-C , 31-H ) :   0.9733

Dispersion correction           -0.014271085
FINAL SINGLE POINT ENERGY     -1339.877740517741

DIPOLE MOMENT
-------------
                                X             Y             Z
Electronic contribution:    -11.72034     -19.96937       0.93605
Nuclear contribution   :     12.03211      20.41464      -0.92789
                        -----------------------------------------
Total Dipole Moment    :      0.31177       0.44528       0.00815
                        -----------------------------------------
Magnitude (a.u.)       :      0.54363
Magnitude (Debye)      :      1.38180

Rotational constants in cm-1:     0.021297     0.007347     0.006437
Rotational constants in MHz :   638.463604   220.249576   192.971056

                             ****ORCA TERMINATED NORMALLY****
TOTAL RUN TIME: 0 days 0 hours 0 minutes 33 seconds 865 msec
