                         Program Version 4.2.1 -  RELEASE  -
|  1> ! wB97X-D3 SP def2-SVP
|  2> %pal
|  3> nprocs 16
|  4> end
|  5>
|  6> * xyz 0 1
|  7> S 	 25.3867 	 5.73827 	 74.0786
|  8> C 	 26.707 	 4.61571 	 73.5358
|  9> C 	 27.6188 	 4.51499 	 74.6383
| 10> C 	 27.1327 	 5.07898 	 75.8357
| 11> C 	 26.113 	 5.94626 	 75.624
| 12> H 	 27.5972 	 4.84855 	 76.7558
| 13> C 	 28.7407 	 3.44665 	 74.6712
| 14> H 	 29.5037 	 3.79168 	 75.3954
| 15> H 	 29.1589 	 3.4421 	 73.6955
| 16> C 	 28.1408 	 2.05522 	 75.0678
| 17> H 	 28.891 	 1.31251 	 75.2071
| 18> H 	 27.7136 	 2.18118 	 76.0465
| 19> C 	 27.0491 	 1.47007 	 74.1164
| 20> H 	 27.5607 	 1.18667 	 73.1726
| 21> H 	 26.6648 	 0.576728 	 74.5048
| 22> H 	 26.3243 	 2.20906 	 73.8153
| 23> S 	 23.7068 	 7.20852 	 76.4755
| 24> C 	 23.8589 	 8.20053 	 77.898
| 25> C 	 25.1779 	 8.43293 	 78.2947
| 26> C 	 26.0922 	 7.65467 	 77.5322
| 27> C 	 25.4462 	 6.93347 	 76.5597
| 28> H 	 25.4222 	 9.05748 	 79.0917
| 29> C 	 27.5657 	 7.61005 	 77.8253
| 30> H 	 28.1302 	 7.13679 	 77.0311
| 31> H 	 27.6788 	 6.77752 	 78.5741
| 32> C 	 28.1598 	 8.9359 	 78.2923
| 33> H 	 27.812 	 9.37887 	 79.2049
| 34> H 	 27.9941 	 9.67791 	 77.5138
| 35> C 	 29.6996 	 8.8907 	 78.3121
| 36> H 	 30.0134 	 8.15805 	 79.0566
| 37> H 	 30.0215 	 9.88524 	 78.6183
| 38> H 	 30.1429 	 8.64709 	 77.3529
| 39> H 	 26.7232 	 4.08207 	 72.6217
| 40> H 	 22.9628 	 8.6073 	 78.3864
| 41> *
| 42>
| 43>                          ****END OF INPUT****

CARTESIAN COORDINATES (ANGSTROEM)
---------------------------------
  S     25.386700    5.738270   74.078600
  C     26.707000    4.615710   73.535800
  C     27.618800    4.514990   74.638300
  C     27.132700    5.078980   75.835700
  C     26.113000    5.946260   75.624000
  H     27.597200    4.848550   76.755800
  C     28.740700    3.446650   74.671200
  H     29.503700    3.791680   75.395400
  H     29.158900    3.442100   73.695500
  C     28.140800    2.055220   75.067800
  H     28.891000    1.312510   75.207100
  H     27.713600    2.181180   76.046500
  C     27.049100    1.470070   74.116400
  H     27.560700    1.186670   73.172600
  H     26.664800    0.576728   74.504800
  H     26.324300    2.209060   73.815300
  S     23.706800    7.208520   76.475500
  C     23.858900    8.200530   77.898000
  C     25.177900    8.432930   78.294700
  C     26.092200    7.654670   77.532200
  C     25.446200    6.933470   76.559700
  H     25.422200    9.057480   79.091700
  C     27.565700    7.610050   77.825300
  H     28.130200    7.136790   77.031100
  H     27.678800    6.777520   78.574100
  C     28.159800    8.935900   78.292300
  H     27.812000    9.378870   79.204900
  H     27.994100    9.677910   77.513800
  C     29.699600    8.890700   78.312100
  H     30.013400    8.158050   79.056600
  H     30.021500    9.885240   78.618300
  H     30.142900    8.647090   77.352900
  H     26.723200    4.082070   72.621700
  H     22.962800    8.607300   78.386400

 Total Charge           Charge          ....    0
 Multiplicity           Mult            ....    1
 Number of Electrons    NEL             ....  134
 Basis Dimension        Dim             ....  322

ORBITAL ENERGIES
----------------

  NO   OCC          E(Eh)            E(eV)
   0   2.0000     -88.969687     -2420.9883
   1   2.0000     -88.963929     -2420.8316
   2   2.0000     -10.329920      -281.0914
   3   2.0000     -10.325652      -280.9753
   4   2.0000     -10.321298      -280.8568
   5   2.0000     -10.319380      -280.8046
   6   2.0000     -10.304457      -280.3985
   7   2.0000     -10.300910      -280.3020
   8   2.0000     -10.294841      -280.1369
   9   2.0000     -10.294822      -280.1364
  10   2.0000     -10.292419      -280.0710
  11   2.0000     -10.287298      -279.9316
  12   2.0000     -10.286363      -279.9062
  13   2.0000     -10.285411      -279.8803
  14   2.0000     -10.277896      -279.6758
  15   2.0000     -10.271920      -279.5131
  16   2.0000      -8.084318      -219.9855
  17   2.0000      -8.078287      -219.8214
  18   2.0000      -6.042730      -164.4311
  19   2.0000      -6.039053      -164.3310
  20   2.0000      -6.036859      -164.2713
  21   2.0000      -6.034989      -164.2204
  22   2.0000      -6.032847      -164.1621
  23   2.0000      -6.029023      -164.0581
  24   2.0000      -1.006241       -27.3812
  25   2.0000      -0.983170       -26.7534
  26   2.0000      -0.913796       -24.8657
  27   2.0000      -0.905398       -24.6371
  28   2.0000      -0.859585       -23.3905
  29   2.0000      -0.855973       -23.2922
  30   2.0000      -0.842968       -22.9383
  31   2.0000      -0.811971       -22.0949
  32   2.0000      -0.785406       -21.3720
  33   2.0000      -0.773125       -21.0378
  34   2.0000      -0.708080       -19.2678
  35   2.0000      -0.702241       -19.1089
  36   2.0000      -0.691732       -18.8230
  37   2.0000      -0.657939       -17.9034
  38   2.0000      -0.640831       -17.4379
  39   2.0000      -0.628788       -17.1102
  40   2.0000      -0.602569       -16.3967
  41   2.0000      -0.568741       -15.4762
  42   2.0000      -0.566031       -15.4025
  43   2.0000      -0.547097       -14.8873
  44   2.0000      -0.541963       -14.7476
  45   2.0000      -0.532604       -14.4929
  46   2.0000      -0.520125       -14.1533
  47   2.0000      -0.515447       -14.0260
  48   2.0000      -0.496679       -13.5153
  49   2.0000      -0.492774       -13.4091
  50   2.0000      -0.484592       -13.1864
  51   2.0000      -0.479064       -13.0360
  52   2.0000      -0.468812       -12.7570
  53   2.0000      -0.465768       -12.6742
  54   2.0000      -0.460565       -12.5326
  55   2.0000      -0.453574       -12.3424
  56   2.0000      -0.449625       -12.2349
  57   2.0000      -0.441963       -12.0264
  58   2.0000      -0.440257       -11.9800
  59   2.0000      -0.429255       -11.6806
  60   2.0000      -0.421230       -11.4622
  61   2.0000      -0.414611       -11.2821
  62   2.0000      -0.409012       -11.1298
  63   2.0000      -0.345224        -9.3940
  64   2.0000      -0.333932        -9.0867
  65   2.0000      -0.330021        -8.9803
  66   2.0000      -0.284407        -7.7391
  67   0.0000       0.026074         0.7095
  68   0.0000       0.072648         1.9768
  69   0.0000       0.093466         2.5433
  70   0.0000       0.120111         3.2684
  71   0.0000       0.131922         3.5898

MULLIKEN ATOMIC CHARGES
-----------------------
   0 S :    0.082382
   1 C :   -0.124431
   2 C :   -0.124376
   3 C :    0.006302
   4 C :   -0.102014
   5 H :    0.004044
   6 C :    0.059493
   7 H :    0.031941
   8 H :    0.019861
   9 C :   -0.050430
  10 H :    0.024424
  11 H :    0.016919
  12 C :   -0.040444
  13 H :    0.017312
  14 H :    0.027548
  15 H :    0.045012
  16 S :    0.115618
  17 C :   -0.099209
  18 C :   -0.005849
  19 C :   -0.039583
  20 C :   -0.129110
  21 H :   -0.004710
  22 C :    0.058151
  23 H :    0.019590
  24 H :    0.039127
  25 C :   -0.081310
  26 H :    0.032838
  27 H :    0.033187
  28 C :   -0.038052
  29 H :    0.025573
  30 H :    0.029235
  31 H :    0.036665
  32 H :    0.049881
  33 H :    0.064417
Sum of atomic charges:   -0.0000000

LOEWDIN ATOMIC CHARGES
----------------------
   0 S :    0.388069
   1 C :   -0.184586
   2 C :   -0.053058
   3 C :   -0.077070
   4 C :   -0.177941
   5 H :    0.025449
   6 C :   -0.026928
   7 H :    0.032284
   8 H :    0.022281
   9 C :   -0.032281
  10 H :    0.019083
  11 H :    0.019328
  12 C :   -0.059463
  13 H :    0.024847
  14 H :    0.020153
  15 H :    0.023687
  16 S :    0.399888
  17 C :   -0.179371
  18 C :   -0.061117
  19 C :   -0.050600
  20 C :   -0.200845
  21 H :    0.021769
  22 C :   -0.038044
  23 H :    0.030932
  24 H :    0.038961
  25 C :   -0.040038
  26 H :    0.020879
  27 H :    0.029568
  28 C :   -0.057176
  29 H :    0.021031
  30 H :    0.025878
  31 H :    0.023861
  32 H :    0.020115
  33 H :    0.030453

  Mayer bond orders larger than 0.100000
B(  0-S ,  1-C ) :   1.1222 B(  0-S ,  4-C ) :   1.1669 B(  1-C ,  2-C ) :   1.5725
B(  1-C ,  4-C ) :   0.1077 B(  1-C , 32-H ) :   0.9772 B(  2-C ,  3-C ) :   1.2496
B(  2-C ,  6-C ) :   1.0412 B(  3-C ,  4-C ) :   1.5510 B(  3-C ,  5-H ) :   0.9967
B(  4-C , 20-C ) :   1.0134 B(  6-C ,  7-H ) :   0.9427 B(  6-C ,  8-H ) :   0.9444
B(  6-C ,  9-C ) :   1.0554 B(  9-C , 10-H ) :   0.9575 B(  9-C , 11-H ) :   0.9560
B(  9-C , 12-C ) :   1.0769 B( 12-C , 13-H ) :   0.9746 B( 12-C , 14-H ) :   0.9720
B( 12-C , 15-H ) :   0.9701 B( 16-S , 17-C ) :   1.1616 B( 16-S , 20-C ) :   1.1265
B( 17-C , 18-C ) :   1.5957 B( 17-C , 33-H ) :   0.9651 B( 18-C , 19-C ) :   1.2323
B( 18-C , 21-H ) :   1.0036 B( 19-C , 20-C ) :   1.6206 B( 19-C , 22-C ) :   1.0477
B( 22-C , 23-H ) :   0.9251 B( 22-C , 24-H ) :   0.9202 B( 22-C , 25-C ) :   1.0558
B( 25-C , 26-H ) :   0.9510 B( 25-C , 27-H ) :   0.9592 B( 25-C , 28-C ) :   1.0929
B( 28-C , 29-H ) :   0.9750 B( 28-C , 30-H ) :   0.9744 B( 28-C , 31-H ) :   0.9758

Dispersion correction           -0.014278756
FINAL SINGLE POINT ENERGY     -1339.869661947475

DIPOLE MOMENT
-------------
                                X             Y             Z
Electronic contribution:    -23.07983       7.90176      -6.29006
Nuclear contribution   :     23.57569      -8.02536       6.76633
                        -----------------------------------------
Total Dipole Moment    :      0.49587      -0.12360       0.47627
                        -----------------------------------------
Magnitude (a.u.)       :      0.69856
Magnitude (Debye)      :      1.77560

Rotational constants in cm-1:     0.018598     0.008786     0.006602
Rotational constants in MHz :   557.550189   263.386179   197.919131

                             ****ORCA TERMINATED NORMALLY****
TOTAL RUN TIME: 0 days 0 hours 0 minutes 33 seconds 543 msec
