                         Program Version 4.2.1 -  RELEASE  -
|  1> ! wB97X-D3 SP def2-SVP
|  2> %pal
|  3> nprocs 16
|  4> end
|  5>
|  6> * xyz 0 1
|  7> S 	 10.8823 	 22.2569 	 43.6499
|  8> C 	 11.214 	 20.7288 	 44.502
|  9> C 	 12.4295 	 20.8373 	 45.1493
| 10> C 	 13.0827 	 22.1279 	 44.9421
| 11> C 	 12.4612 	 22.9225 	 44.0034
| 12> H 	 14.0687 	 22.4181 	 45.2813
| 13> C 	 12.9162 	 19.609 	 45.9997
| 14> H 	 13.7563 	 19.1089 	 45.4899
| 15> H 	 12.2147 	 18.7501 	 45.9774
| 16> C 	 13.1557 	 19.81 	 47.5017
| 17> H 	 12.2186 	 19.9318 	 47.9804
| 18> H 	 13.5142 	 18.8817 	 47.9298
| 19> C 	 14.2861 	 20.744 	 47.8851
| 20> H 	 15.1327 	 20.692 	 47.1649
| 21> H 	 13.8642 	 21.8003 	 47.8907
| 22> H 	 14.7007 	 20.4547 	 48.8729
| 23> S 	 13.3118 	 25.4881 	 44.6742
| 24> C 	 13.8268 	 26.4518 	 43.3262
| 25> C 	 13.5683 	 25.871 	 42.1194
| 26> C 	 13.0672 	 24.5714 	 42.2328
| 27> C 	 12.9109 	 24.2365 	 43.5349
| 28> H 	 13.8159 	 26.3562 	 41.1308
| 29> C 	 12.8506 	 23.6734 	 41.0491
| 30> H 	 12.603 	 22.6343 	 41.3791
| 31> H 	 13.767 	 23.6609 	 40.5126
| 32> C 	 11.7158 	 24.0406 	 40.1153
| 33> H 	 11.791 	 25.0169 	 39.6184
| 34> H 	 10.8687 	 24.1302 	 40.8736
| 35> C 	 11.2835 	 22.855 	 39.204
| 36> H 	 11.5958 	 23.0649 	 38.1574
| 37> H 	 10.2041 	 22.8153 	 39.0804
| 38> H 	 11.5902 	 21.9351 	 39.6487
| 39> H 	 10.6916 	 19.813 	 44.5229
| 40> H 	 14.4637 	 27.2971 	 43.3597
| 41> *
| 42>
| 43>                          ****END OF INPUT****

CARTESIAN COORDINATES (ANGSTROEM)
---------------------------------
  S     10.882300   22.256900   43.649900
  C     11.214000   20.728800   44.502000
  C     12.429500   20.837300   45.149300
  C     13.082700   22.127900   44.942100
  C     12.461200   22.922500   44.003400
  H     14.068700   22.418100   45.281300
  C     12.916200   19.609000   45.999700
  H     13.756300   19.108900   45.489900
  H     12.214700   18.750100   45.977400
  C     13.155700   19.810000   47.501700
  H     12.218600   19.931800   47.980400
  H     13.514200   18.881700   47.929800
  C     14.286100   20.744000   47.885100
  H     15.132700   20.692000   47.164900
  H     13.864200   21.800300   47.890700
  H     14.700700   20.454700   48.872900
  S     13.311800   25.488100   44.674200
  C     13.826800   26.451800   43.326200
  C     13.568300   25.871000   42.119400
  C     13.067200   24.571400   42.232800
  C     12.910900   24.236500   43.534900
  H     13.815900   26.356200   41.130800
  C     12.850600   23.673400   41.049100
  H     12.603000   22.634300   41.379100
  H     13.767000   23.660900   40.512600
  C     11.715800   24.040600   40.115300
  H     11.791000   25.016900   39.618400
  H     10.868700   24.130200   40.873600
  C     11.283500   22.855000   39.204000
  H     11.595800   23.064900   38.157400
  H     10.204100   22.815300   39.080400
  H     11.590200   21.935100   39.648700
  H     10.691600   19.813000   44.522900
  H     14.463700   27.297100   43.359700

 Total Charge           Charge          ....    0
 Multiplicity           Mult            ....    1
 Number of Electrons    NEL             ....  134
 Basis Dimension        Dim             ....  322

ORBITAL ENERGIES
----------------

  NO   OCC          E(Eh)            E(eV)
   0   2.0000     -88.971050     -2421.0253
   1   2.0000     -88.965180     -2420.8656
   2   2.0000     -10.329283      -281.0741
   3   2.0000     -10.321188      -280.8538
   4   2.0000     -10.312736      -280.6238
   5   2.0000     -10.311812      -280.5987
   6   2.0000     -10.308100      -280.4977
   7   2.0000     -10.298456      -280.2352
   8   2.0000     -10.297191      -280.2008
   9   2.0000     -10.294144      -280.1179
  10   2.0000     -10.292776      -280.0807
  11   2.0000     -10.287233      -279.9298
  12   2.0000     -10.285915      -279.8940
  13   2.0000     -10.283647      -279.8323
  14   2.0000     -10.280078      -279.7352
  15   2.0000     -10.276416      -279.6355
  16   2.0000      -8.086052      -220.0327
  17   2.0000      -8.078947      -219.8393
  18   2.0000      -6.044513      -164.4796
  19   2.0000      -6.040706      -164.3760
  20   2.0000      -6.037643      -164.2926
  21   2.0000      -6.036658      -164.2658
  22   2.0000      -6.033516      -164.1803
  23   2.0000      -6.029636      -164.0747
  24   2.0000      -1.013416       -27.5765
  25   2.0000      -0.984264       -26.7832
  26   2.0000      -0.912167       -24.8213
  27   2.0000      -0.907111       -24.6837
  28   2.0000      -0.871101       -23.7039
  29   2.0000      -0.854726       -23.2583
  30   2.0000      -0.837447       -22.7881
  31   2.0000      -0.817080       -22.2339
  32   2.0000      -0.784168       -21.3383
  33   2.0000      -0.772916       -21.0321
  34   2.0000      -0.705058       -19.1856
  35   2.0000      -0.694005       -18.8848
  36   2.0000      -0.691534       -18.8176
  37   2.0000      -0.665287       -18.1034
  38   2.0000      -0.635433       -17.2910
  39   2.0000      -0.612488       -16.6666
  40   2.0000      -0.601893       -16.3784
  41   2.0000      -0.571867       -15.5613
  42   2.0000      -0.568163       -15.4605
  43   2.0000      -0.545432       -14.8419
  44   2.0000      -0.537818       -14.6348
  45   2.0000      -0.520666       -14.1680
  46   2.0000      -0.516556       -14.0562
  47   2.0000      -0.512100       -13.9350
  48   2.0000      -0.503835       -13.7100
  49   2.0000      -0.498927       -13.5765
  50   2.0000      -0.485814       -13.2197
  51   2.0000      -0.479719       -13.0538
  52   2.0000      -0.472599       -12.8601
  53   2.0000      -0.468828       -12.7575
  54   2.0000      -0.463617       -12.6157
  55   2.0000      -0.455301       -12.3894
  56   2.0000      -0.440094       -11.9756
  57   2.0000      -0.437217       -11.8973
  58   2.0000      -0.432580       -11.7711
  59   2.0000      -0.429218       -11.6796
  60   2.0000      -0.413146       -11.2423
  61   2.0000      -0.403616       -10.9830
  62   2.0000      -0.397458       -10.8154
  63   2.0000      -0.340007        -9.2521
  64   2.0000      -0.339032        -9.2255
  65   2.0000      -0.327230        -8.9044
  66   2.0000      -0.301599        -8.2069
  67   0.0000       0.031056         0.8451
  68   0.0000       0.074514         2.0276
  69   0.0000       0.107273         2.9191
  70   0.0000       0.117589         3.1998
  71   0.0000       0.130144         3.5414

MULLIKEN ATOMIC CHARGES
-----------------------
   0 S :    0.099869
   1 C :   -0.100146
   2 C :   -0.071444
   3 C :    0.024808
   4 C :   -0.171956
   5 H :    0.014500
   6 C :    0.025640
   7 H :    0.034494
   8 H :    0.013717
   9 C :   -0.044756
  10 H :    0.024971
  11 H :    0.012638
  12 C :   -0.083919
  13 H :    0.036516
  14 H :    0.052144
  15 H :    0.039993
  16 S :    0.137977
  17 C :   -0.078065
  18 C :   -0.051455
  19 C :   -0.016127
  20 C :   -0.168667
  21 H :    0.034035
  22 C :    0.091663
  23 H :    0.029818
  24 H :    0.022145
  25 C :   -0.123971
  26 H :    0.035787
  27 H :    0.028495
  28 C :   -0.019402
  29 H :    0.036217
  30 H :    0.028409
  31 H :    0.029153
  32 H :    0.033556
  33 H :    0.043362
Sum of atomic charges:   -0.0000000

LOEWDIN ATOMIC CHARGES
----------------------
   0 S :    0.391679
   1 C :   -0.186524
   2 C :   -0.056498
   3 C :   -0.070360
   4 C :   -0.185171
   5 H :    0.029027
   6 C :   -0.035524
   7 H :    0.030285
   8 H :    0.032000
   9 C :   -0.045830
  10 H :    0.021181
  11 H :    0.025124
  12 C :   -0.073671
  13 H :    0.027112
  14 H :    0.032252
  15 H :    0.028738
  16 S :    0.421193
  17 C :   -0.184376
  18 C :   -0.069831
  19 C :   -0.055878
  20 C :   -0.205003
  21 H :    0.040921
  22 C :   -0.032385
  23 H :    0.030107
  24 H :    0.024552
  25 C :   -0.047284
  26 H :    0.021594
  27 H :    0.027832
  28 C :   -0.063439
  29 H :    0.030092
  30 H :    0.027420
  31 H :    0.022798
  32 H :    0.024033
  33 H :    0.023835

  Mayer bond orders larger than 0.100000
B(  0-S ,  1-C ) :   1.1132 B(  0-S ,  4-C ) :   1.1413 B(  1-C ,  2-C ) :   1.6449
B(  1-C , 32-H ) :   0.9725 B(  2-C ,  3-C ) :   1.2103 B(  2-C ,  6-C ) :   1.0044
B(  3-C ,  4-C ) :   1.5965 B(  3-C ,  5-H ) :   0.9942 B(  4-C , 20-C ) :   1.0231
B(  6-C ,  7-H ) :   0.9429 B(  6-C ,  8-H ) :   0.9449 B(  6-C ,  9-C ) :   1.0834
B(  9-C , 10-H ) :   0.9571 B(  9-C , 11-H ) :   0.9508 B(  9-C , 12-C ) :   1.0729
B( 12-C , 13-H ) :   0.9728 B( 12-C , 14-H ) :   0.9729 B( 12-C , 15-H ) :   0.9762
B( 16-S , 17-C ) :   1.1479 B( 16-S , 20-C ) :   1.1346 B( 17-C , 18-C ) :   1.6242
B( 17-C , 33-H ) :   0.9660 B( 18-C , 19-C ) :   1.2488 B( 18-C , 21-H ) :   0.9791
B( 19-C , 20-C ) :   1.6054 B( 19-C , 22-C ) :   1.0536 B( 22-C , 23-H ) :   0.9221
B( 22-C , 24-H ) :   0.9255 B( 22-C , 25-C ) :   1.0562 B( 25-C , 26-H ) :   0.9593
B( 25-C , 27-H ) :   0.9571 B( 25-C , 28-C ) :   1.0765 B( 28-C , 29-H ) :   0.9757
B( 28-C , 30-H ) :   0.9776 B( 28-C , 31-H ) :   0.9720

Dispersion correction           -0.014534465
FINAL SINGLE POINT ENERGY     -1339.867079648362

DIPOLE MOMENT
-------------
                                X             Y             Z
Electronic contribution:     -3.47410      13.90874       3.20554
Nuclear contribution   :      3.81949     -14.23240      -3.33318
                        -----------------------------------------
Total Dipole Moment    :      0.34539      -0.32365      -0.12764
                        -----------------------------------------
Magnitude (a.u.)       :      0.49024
Magnitude (Debye)      :      1.24610

Rotational constants in cm-1:     0.019700     0.008777     0.006613
Rotational constants in MHz :   590.577071   263.139471   198.242902

                             ****ORCA TERMINATED NORMALLY****
TOTAL RUN TIME: 0 days 0 hours 0 minutes 32 seconds 386 msec
