                         Program Version 4.2.1 -  RELEASE  -
|  1> ! wB97X-D3 SP def2-SVP
|  2> %pal
|  3> nprocs 16
|  4> end
|  5>
|  6> * xyz 0 1
|  7> S 	 -3.26978 	 -10.52 	 83.6572
|  8> C 	 -2.21706 	 -11.9396 	 83.6222
|  9> C 	 -2.89162 	 -12.9613 	 84.2929
| 10> C 	 -4.26331 	 -12.6153 	 84.6203
| 11> C 	 -4.67687 	 -11.3653 	 84.1491
| 12> H 	 -4.96884 	 -13.2638 	 85.1687
| 13> C 	 -2.22191 	 -14.2899 	 84.6019
| 14> H 	 -1.70351 	 -14.0528 	 85.5304
| 15> H 	 -1.49491 	 -14.4418 	 83.8765
| 16> C 	 -3.17712 	 -15.5578 	 84.7163
| 17> H 	 -3.83334 	 -15.5796 	 85.5979
| 18> H 	 -3.9132 	 -15.6443 	 84.0135
| 19> C 	 -2.34568 	 -16.8809 	 84.8693
| 20> H 	 -2.86397 	 -17.6123 	 85.4436
| 21> H 	 -2.09209 	 -17.2571 	 83.8827
| 22> H 	 -1.40036 	 -16.7855 	 85.3983
| 23> S 	 -6.10705 	 -8.9578 	 84.4186
| 24> C 	 -7.8977 	 -9.01543 	 84.4445
| 25> C 	 -8.28904 	 -10.3229 	 84.4315
| 26> C 	 -7.30395 	 -11.3466 	 84.2321
| 27> C 	 -6.05729 	 -10.7493 	 84.2542
| 28> H 	 -9.33286 	 -10.5285 	 84.7185
| 29> C 	 -7.61624 	 -12.7423 	 84.0731
| 30> H 	 -6.70165 	 -13.2846 	 83.7139
| 31> H 	 -8.38292 	 -12.9419 	 83.2653
| 32> C 	 -7.9365 	 -13.4945 	 85.4135
| 33> H 	 -8.82011 	 -13.0217 	 85.8773
| 34> H 	 -7.17941 	 -13.3782 	 86.1824
| 35> C 	 -8.20948 	 -14.9835 	 85.2092
| 36> H 	 -7.4454 	 -15.3522 	 84.5095
| 37> H 	 -9.16127 	 -15.1059 	 84.711
| 38> H 	 -8.26815 	 -15.4774 	 86.1801
| 39> H 	 -1.21082 	 -11.9927 	 83.2686
| 40> H 	 -8.53675 	 -8.17884 	 84.5292
| 41> *
| 42>
| 43>                          ****END OF INPUT****

CARTESIAN COORDINATES (ANGSTROEM)
---------------------------------
  S     -3.269780  -10.520000   83.657200
  C     -2.217060  -11.939600   83.622200
  C     -2.891620  -12.961300   84.292900
  C     -4.263310  -12.615300   84.620300
  C     -4.676870  -11.365300   84.149100
  H     -4.968840  -13.263800   85.168700
  C     -2.221910  -14.289900   84.601900
  H     -1.703510  -14.052800   85.530400
  H     -1.494910  -14.441800   83.876500
  C     -3.177120  -15.557800   84.716300
  H     -3.833340  -15.579600   85.597900
  H     -3.913200  -15.644300   84.013500
  C     -2.345680  -16.880900   84.869300
  H     -2.863970  -17.612300   85.443600
  H     -2.092090  -17.257100   83.882700
  H     -1.400360  -16.785500   85.398300
  S     -6.107050   -8.957800   84.418600
  C     -7.897700   -9.015430   84.444500
  C     -8.289040  -10.322900   84.431500
  C     -7.303950  -11.346600   84.232100
  C     -6.057290  -10.749300   84.254200
  H     -9.332860  -10.528500   84.718500
  C     -7.616240  -12.742300   84.073100
  H     -6.701650  -13.284600   83.713900
  H     -8.382920  -12.941900   83.265300
  C     -7.936500  -13.494500   85.413500
  H     -8.820110  -13.021700   85.877300
  H     -7.179410  -13.378200   86.182400
  C     -8.209480  -14.983500   85.209200
  H     -7.445400  -15.352200   84.509500
  H     -9.161270  -15.105900   84.711000
  H     -8.268150  -15.477400   86.180100
  H     -1.210820  -11.992700   83.268600
  H     -8.536750   -8.178840   84.529200

 Total Charge           Charge          ....    0
 Multiplicity           Mult            ....    1
 Number of Electrons    NEL             ....  134
 Basis Dimension        Dim             ....  322

ORBITAL ENERGIES
----------------

  NO   OCC          E(Eh)            E(eV)
   0   2.0000     -88.965474     -2420.8736
   1   2.0000     -88.963185     -2420.8113
   2   2.0000     -10.338929      -281.3366
   3   2.0000     -10.334398      -281.2133
   4   2.0000     -10.318283      -280.7748
   5   2.0000     -10.313658      -280.6489
   6   2.0000     -10.305443      -280.4254
   7   2.0000     -10.303840      -280.3817
   8   2.0000     -10.299454      -280.2624
   9   2.0000     -10.297968      -280.2220
  10   2.0000     -10.295191      -280.1464
  11   2.0000     -10.294677      -280.1324
  12   2.0000     -10.291672      -280.0506
  13   2.0000     -10.289491      -279.9913
  14   2.0000     -10.281383      -279.7707
  15   2.0000     -10.277533      -279.6659
  16   2.0000      -8.078957      -219.8396
  17   2.0000      -8.078082      -219.8158
  18   2.0000      -6.037710      -164.2944
  19   2.0000      -6.036694      -164.2668
  20   2.0000      -6.033836      -164.1890
  21   2.0000      -6.032556      -164.1542
  22   2.0000      -6.029349      -164.0669
  23   2.0000      -6.028715      -164.0497
  24   2.0000      -1.002962       -27.2920
  25   2.0000      -0.982217       -26.7275
  26   2.0000      -0.913334       -24.8531
  27   2.0000      -0.905641       -24.6437
  28   2.0000      -0.865692       -23.5567
  29   2.0000      -0.856875       -23.3168
  30   2.0000      -0.839871       -22.8541
  31   2.0000      -0.816640       -22.2219
  32   2.0000      -0.781108       -21.2550
  33   2.0000      -0.772430       -21.0189
  34   2.0000      -0.720523       -19.6064
  35   2.0000      -0.703057       -19.1312
  36   2.0000      -0.696806       -18.9611
  37   2.0000      -0.658003       -17.9052
  38   2.0000      -0.639637       -17.4054
  39   2.0000      -0.617995       -16.8165
  40   2.0000      -0.602440       -16.3932
  41   2.0000      -0.564717       -15.3667
  42   2.0000      -0.562866       -15.3164
  43   2.0000      -0.560844       -15.2613
  44   2.0000      -0.538066       -14.6415
  45   2.0000      -0.527938       -14.3659
  46   2.0000      -0.518844       -14.1185
  47   2.0000      -0.512504       -13.9460
  48   2.0000      -0.507261       -13.8033
  49   2.0000      -0.501746       -13.6532
  50   2.0000      -0.492071       -13.3899
  51   2.0000      -0.487133       -13.2556
  52   2.0000      -0.470403       -12.8003
  53   2.0000      -0.467987       -12.7346
  54   2.0000      -0.456067       -12.4102
  55   2.0000      -0.450381       -12.2555
  56   2.0000      -0.446979       -12.1629
  57   2.0000      -0.442507       -12.0412
  58   2.0000      -0.436432       -11.8759
  59   2.0000      -0.427307       -11.6276
  60   2.0000      -0.420790       -11.4503
  61   2.0000      -0.414266       -11.2727
  62   2.0000      -0.406905       -11.0725
  63   2.0000      -0.353057        -9.6072
  64   2.0000      -0.330316        -8.9884
  65   2.0000      -0.321953        -8.7608
  66   2.0000      -0.288856        -7.8602
  67   0.0000       0.021359         0.5812
  68   0.0000       0.080758         2.1975
  69   0.0000       0.093896         2.5550
  70   0.0000       0.119072         3.2401
  71   0.0000       0.127785         3.4772

MULLIKEN ATOMIC CHARGES
-----------------------
   0 S :    0.096674
   1 C :   -0.117615
   2 C :   -0.120370
   3 C :   -0.000692
   4 C :   -0.110435
   5 H :    0.007763
   6 C :    0.111131
   7 H :    0.048424
   8 H :    0.011794
   9 C :   -0.058716
  10 H :    0.022457
  11 H :    0.008242
  12 C :   -0.048033
  13 H :    0.024780
  14 H :    0.033931
  15 H :    0.026558
  16 S :    0.081324
  17 C :   -0.073783
  18 C :   -0.040503
  19 C :   -0.005743
  20 C :   -0.125121
  21 H :    0.027979
  22 C :    0.002231
  23 H :    0.026224
  24 H :    0.048798
  25 C :   -0.106746
  26 H :    0.022536
  27 H :    0.033270
  28 C :   -0.015121
  29 H :    0.028725
  30 H :    0.026327
  31 H :    0.044392
  32 H :    0.043088
  33 H :    0.046230
Sum of atomic charges:    0.0000000

LOEWDIN ATOMIC CHARGES
----------------------
   0 S :    0.410757
   1 C :   -0.198810
   2 C :   -0.057636
   3 C :   -0.081733
   4 C :   -0.198093
   5 H :    0.029330
   6 C :   -0.021297
   7 H :    0.042168
   8 H :    0.021982
   9 C :   -0.034702
  10 H :    0.026087
  11 H :    0.011049
  12 C :   -0.062165
  13 H :    0.021660
  14 H :    0.023994
  15 H :    0.025939
  16 S :    0.357811
  17 C :   -0.163405
  18 C :   -0.067728
  19 C :   -0.064054
  20 C :   -0.160697
  21 H :    0.033731
  22 C :   -0.043352
  23 H :    0.034982
  24 H :    0.042072
  25 C :   -0.040179
  26 H :    0.021613
  27 H :    0.020962
  28 C :   -0.063187
  29 H :    0.025749
  30 H :    0.024087
  31 H :    0.030631
  32 H :    0.027465
  33 H :    0.024968

  Mayer bond orders larger than 0.100000
B(  0-S ,  1-C ) :   1.1278 B(  0-S ,  4-C ) :   1.1755 B(  1-C ,  2-C ) :   1.5868
B(  1-C ,  4-C ) :   0.1012 B(  1-C , 32-H ) :   0.9793 B(  2-C ,  3-C ) :   1.2606
B(  2-C ,  6-C ) :   1.0130 B(  3-C ,  4-C ) :   1.5241 B(  3-C ,  5-H ) :   0.9867
B(  4-C , 20-C ) :   1.0362 B(  6-C ,  7-H ) :   0.9288 B(  6-C ,  8-H ) :   0.9483
B(  6-C ,  9-C ) :   1.0549 B(  9-C , 10-H ) :   0.9545 B(  9-C , 11-H ) :   0.9651
B(  9-C , 12-C ) :   1.0747 B( 12-C , 13-H ) :   0.9790 B( 12-C , 14-H ) :   0.9789
B( 12-C , 15-H ) :   0.9764 B( 16-S , 17-C ) :   1.1147 B( 16-S , 20-C ) :   1.1262
B( 17-C , 18-C ) :   1.6620 B( 17-C , 33-H ) :   0.9742 B( 18-C , 19-C ) :   1.1957
B( 18-C , 21-H ) :   0.9774 B( 19-C , 20-C ) :   1.6215 B( 19-C , 22-C ) :   1.0768
B( 22-C , 23-H ) :   0.9197 B( 22-C , 24-H ) :   0.9312 B( 22-C , 25-C ) :   1.0473
B( 25-C , 26-H ) :   0.9538 B( 25-C , 27-H ) :   0.9546 B( 25-C , 28-C ) :   1.0815
B( 28-C , 29-H ) :   0.9718 B( 28-C , 30-H ) :   0.9736 B( 28-C , 31-H ) :   0.9731

Dispersion correction           -0.014151267
FINAL SINGLE POINT ENERGY     -1339.862768274568

DIPOLE MOMENT
-------------
                                X             Y             Z
Electronic contribution:      3.34948      33.80082      -6.03512
Nuclear contribution   :     -3.60346     -34.57751       6.31120
                        -----------------------------------------
Total Dipole Moment    :     -0.25398      -0.77669       0.27608
                        -----------------------------------------
Magnitude (a.u.)       :      0.86254
Magnitude (Debye)      :      2.19239

Rotational constants in cm-1:     0.017346     0.009457     0.006272
Rotational constants in MHz :   520.030980   283.527918   188.032718

                             ****ORCA TERMINATED NORMALLY****
TOTAL RUN TIME: 0 days 0 hours 0 minutes 33 seconds 112 msec
