                         Program Version 4.2.1 -  RELEASE  -
|  1> ! wB97X-D3 SP def2-SVP
|  2> %pal
|  3> nprocs 16
|  4> end
|  5>
|  6> * xyz 0 1
|  7> S 	 -2.57226 	 43.3731 	 32.678
|  8> C 	 -2.38755 	 42.0384 	 33.7571
|  9> C 	 -2.16211 	 42.4485 	 35.0688
| 10> C 	 -2.09554 	 43.899 	 35.2337
| 11> C 	 -2.42082 	 44.5107 	 34.0057
| 12> H 	 -1.81904 	 44.5005 	 36.1407
| 13> C 	 -1.99729 	 41.5286 	 36.2958
| 14> H 	 -1.11664 	 41.9586 	 36.8207
| 15> H 	 -1.73074 	 40.526 	 35.9654
| 16> C 	 -3.23754 	 41.5093 	 37.241
| 17> H 	 -3.44808 	 42.5322 	 37.57
| 18> H 	 -4.15743 	 41.1964 	 36.7302
| 19> C 	 -2.98958 	 40.7208 	 38.554
| 20> H 	 -2.49935 	 39.7791 	 38.3462
| 21> H 	 -2.28188 	 41.2612 	 39.1322
| 22> H 	 -3.80272 	 40.4281 	 39.1627
| 23> S 	 -1.05577 	 46.6263 	 32.7377
| 24> C 	 -1.60567 	 48.3053 	 33.0148
| 25> C 	 -2.74766 	 48.2942 	 33.8235
| 26> C 	 -3.14719 	 47.0225 	 34.2936
| 27> C 	 -2.33268 	 45.9765 	 33.851
| 28> H 	 -3.24279 	 49.1496 	 34.1313
| 29> C 	 -4.3926 	 46.7932 	 35.174
| 30> H 	 -4.42709 	 47.6905 	 35.7438
| 31> H 	 -4.18 	 45.9899 	 35.9253
| 32> C 	 -5.66222 	 46.5631 	 34.3885
| 33> H 	 -6.39074 	 46.4259 	 35.1877
| 34> H 	 -5.82414 	 45.6733 	 33.7942
| 35> C 	 -6.08853 	 47.6626 	 33.4
| 36> H 	 -7.131 	 47.5408 	 33.1246
| 37> H 	 -5.5968 	 47.5871 	 32.4544
| 38> H 	 -5.92616 	 48.5948 	 33.8469
| 39> H 	 -2.16972 	 41.0143 	 33.5269
| 40> H 	 -1.34929 	 49.2216 	 32.4377
| 41> *
| 42>
| 43>                          ****END OF INPUT****

CARTESIAN COORDINATES (ANGSTROEM)
---------------------------------
  S     -2.572260   43.373100   32.678000
  C     -2.387550   42.038400   33.757100
  C     -2.162110   42.448500   35.068800
  C     -2.095540   43.899000   35.233700
  C     -2.420820   44.510700   34.005700
  H     -1.819040   44.500500   36.140700
  C     -1.997290   41.528600   36.295800
  H     -1.116640   41.958600   36.820700
  H     -1.730740   40.526000   35.965400
  C     -3.237540   41.509300   37.241000
  H     -3.448080   42.532200   37.570000
  H     -4.157430   41.196400   36.730200
  C     -2.989580   40.720800   38.554000
  H     -2.499350   39.779100   38.346200
  H     -2.281880   41.261200   39.132200
  H     -3.802720   40.428100   39.162700
  S     -1.055770   46.626300   32.737700
  C     -1.605670   48.305300   33.014800
  C     -2.747660   48.294200   33.823500
  C     -3.147190   47.022500   34.293600
  C     -2.332680   45.976500   33.851000
  H     -3.242790   49.149600   34.131300
  C     -4.392600   46.793200   35.174000
  H     -4.427090   47.690500   35.743800
  H     -4.180000   45.989900   35.925300
  C     -5.662220   46.563100   34.388500
  H     -6.390740   46.425900   35.187700
  H     -5.824140   45.673300   33.794200
  C     -6.088530   47.662600   33.400000
  H     -7.131000   47.540800   33.124600
  H     -5.596800   47.587100   32.454400
  H     -5.926160   48.594800   33.846900
  H     -2.169720   41.014300   33.526900
  H     -1.349290   49.221600   32.437700

 Total Charge           Charge          ....    0
 Multiplicity           Mult            ....    1
 Number of Electrons    NEL             ....  134
 Basis Dimension        Dim             ....  322

ORBITAL ENERGIES
----------------

  NO   OCC          E(Eh)            E(eV)
   0   2.0000     -88.972991     -2421.0782
   1   2.0000     -88.964425     -2420.8451
   2   2.0000     -10.333639      -281.1926
   3   2.0000     -10.329600      -281.0827
   4   2.0000     -10.323885      -280.9272
   5   2.0000     -10.312470      -280.6166
   6   2.0000     -10.306213      -280.4463
   7   2.0000     -10.304807      -280.4080
   8   2.0000     -10.300884      -280.3013
   9   2.0000     -10.299258      -280.2571
  10   2.0000     -10.293324      -280.0956
  11   2.0000     -10.291594      -280.0485
  12   2.0000     -10.289361      -279.9878
  13   2.0000     -10.280947      -279.7588
  14   2.0000     -10.272042      -279.5165
  15   2.0000     -10.267461      -279.3918
  16   2.0000      -8.087434      -220.0703
  17   2.0000      -8.077419      -219.7977
  18   2.0000      -6.046014      -164.5204
  19   2.0000      -6.041951      -164.4099
  20   2.0000      -6.038166      -164.3068
  21   2.0000      -6.036093      -164.2504
  22   2.0000      -6.032096      -164.1417
  23   2.0000      -6.028185      -164.0352
  24   2.0000      -0.998634       -27.1742
  25   2.0000      -0.975286       -26.5389
  26   2.0000      -0.907108       -24.6837
  27   2.0000      -0.904445       -24.6112
  28   2.0000      -0.864767       -23.5315
  29   2.0000      -0.849392       -23.1131
  30   2.0000      -0.843457       -22.9516
  31   2.0000      -0.810233       -22.0476
  32   2.0000      -0.783898       -21.3310
  33   2.0000      -0.772242       -21.0138
  34   2.0000      -0.708441       -19.2776
  35   2.0000      -0.702426       -19.1140
  36   2.0000      -0.689198       -18.7540
  37   2.0000      -0.662855       -18.0372
  38   2.0000      -0.639005       -17.3882
  39   2.0000      -0.610675       -16.6173
  40   2.0000      -0.587095       -15.9757
  41   2.0000      -0.566195       -15.4070
  42   2.0000      -0.560030       -15.2392
  43   2.0000      -0.553863       -15.0714
  44   2.0000      -0.537494       -14.6259
  45   2.0000      -0.522346       -14.2138
  46   2.0000      -0.518992       -14.1225
  47   2.0000      -0.510212       -13.8836
  48   2.0000      -0.505581       -13.7576
  49   2.0000      -0.492670       -13.4062
  50   2.0000      -0.485194       -13.2028
  51   2.0000      -0.478625       -13.0240
  52   2.0000      -0.472402       -12.8547
  53   2.0000      -0.469419       -12.7735
  54   2.0000      -0.456579       -12.4241
  55   2.0000      -0.451280       -12.2800
  56   2.0000      -0.445968       -12.1354
  57   2.0000      -0.439664       -11.9639
  58   2.0000      -0.431934       -11.7535
  59   2.0000      -0.424768       -11.5585
  60   2.0000      -0.421464       -11.4686
  61   2.0000      -0.420140       -11.4326
  62   2.0000      -0.398582       -10.8460
  63   2.0000      -0.338458        -9.2099
  64   2.0000      -0.330881        -9.0037
  65   2.0000      -0.324021        -8.8171
  66   2.0000      -0.298387        -8.1195
  67   0.0000       0.027544         0.7495
  68   0.0000       0.061153         1.6641
  69   0.0000       0.113408         3.0860
  70   0.0000       0.119973         3.2646
  71   0.0000       0.126595         3.4448

MULLIKEN ATOMIC CHARGES
-----------------------
   0 S :    0.132743
   1 C :   -0.096782
   2 C :   -0.115145
   3 C :    0.010999
   4 C :   -0.153409
   5 H :    0.051540
   6 C :    0.055288
   7 H :    0.033813
   8 H :    0.016283
   9 C :   -0.068069
  10 H :    0.024146
  11 H :    0.035764
  12 C :   -0.017975
  13 H :    0.014362
  14 H :    0.017753
  15 H :    0.030958
  16 S :    0.089232
  17 C :   -0.097787
  18 C :   -0.017792
  19 C :   -0.056868
  20 C :   -0.185475
  21 H :   -0.010663
  22 C :    0.103072
  23 H :    0.011016
  24 H :    0.032873
  25 C :   -0.063117
  26 H :    0.022231
  27 H :    0.030082
  28 C :   -0.027653
  29 H :    0.027945
  30 H :    0.038398
  31 H :    0.010584
  32 H :    0.044206
  33 H :    0.077447
Sum of atomic charges:   -0.0000000

LOEWDIN ATOMIC CHARGES
----------------------
   0 S :    0.422203
   1 C :   -0.215719
   2 C :   -0.058852
   3 C :   -0.059041
   4 C :   -0.199830
   5 H :    0.045665
   6 C :   -0.030180
   7 H :    0.035043
   8 H :    0.024094
   9 C :   -0.037558
  10 H :    0.022799
  11 H :    0.026023
  12 C :   -0.063643
  13 H :    0.022360
  14 H :    0.020959
  15 H :    0.023103
  16 S :    0.365577
  17 C :   -0.184768
  18 C :   -0.067213
  19 C :   -0.056192
  20 C :   -0.181947
  21 H :    0.017052
  22 C :   -0.026882
  23 H :    0.025433
  24 H :    0.038322
  25 C :   -0.041465
  26 H :    0.024456
  27 H :    0.027588
  28 C :   -0.056987
  29 H :    0.029633
  30 H :    0.026240
  31 H :    0.011431
  32 H :    0.029474
  33 H :    0.042821

  Mayer bond orders larger than 0.100000
B(  0-S ,  1-C ) :   1.1294 B(  0-S ,  4-C ) :   1.1567 B(  1-C ,  2-C ) :   1.6312
B(  1-C , 32-H ) :   0.9621 B(  2-C ,  3-C ) :   1.2292 B(  2-C ,  6-C ) :   1.0254
B(  3-C ,  4-C ) :   1.5699 B(  3-C ,  5-H ) :   0.9791 B(  4-C , 20-C ) :   1.0394
B(  6-C ,  7-H ) :   0.9425 B(  6-C ,  8-H ) :   0.9420 B(  6-C ,  9-C ) :   1.0550
B(  9-C , 10-H ) :   0.9599 B(  9-C , 11-H ) :   0.9592 B(  9-C , 12-C ) :   1.0696
B( 12-C , 13-H ) :   0.9746 B( 12-C , 14-H ) :   0.9763 B( 12-C , 15-H ) :   0.9765
B( 16-S , 17-C ) :   1.1494 B( 16-S , 20-C ) :   1.1257 B( 17-C , 18-C ) :   1.5958
B( 17-C , 20-C ) :   0.1066 B( 17-C , 33-H ) :   0.9586 B( 18-C , 19-C ) :   1.2705
B( 18-C , 21-H ) :   0.9902 B( 19-C , 20-C ) :   1.5977 B( 19-C , 22-C ) :   1.0237
B( 22-C , 23-H ) :   0.9282 B( 22-C , 24-H ) :   0.9335 B( 22-C , 25-C ) :   1.0747
B( 25-C , 26-H ) :   0.9541 B( 25-C , 27-H ) :   0.9584 B( 25-C , 28-C ) :   1.0796
B( 28-C , 29-H ) :   0.9704 B( 28-C , 30-H ) :   0.9720 B( 28-C , 31-H ) :   0.9771

Dispersion correction           -0.014458062
FINAL SINGLE POINT ENERGY     -1339.869203927757

DIPOLE MOMENT
-------------
                                X             Y             Z
Electronic contribution:     15.23777       5.52223     -19.77190
Nuclear contribution   :    -15.55370      -5.57029      20.28237
                        -----------------------------------------
Total Dipole Moment    :     -0.31593      -0.04806       0.51048
                        -----------------------------------------
Magnitude (a.u.)       :      0.60225
Magnitude (Debye)      :      1.53081

Rotational constants in cm-1:     0.019877     0.007866     0.006797
Rotational constants in MHz :   595.902596   235.822389   203.781718

                             ****ORCA TERMINATED NORMALLY****
TOTAL RUN TIME: 0 days 0 hours 0 minutes 31 seconds 842 msec
