                         Program Version 4.2.1 -  RELEASE  -
|  1> ! wB97X-D3 SP def2-SVP
|  2> %pal
|  3> nprocs 16
|  4> end
|  5>
|  6> * xyz 0 1
|  7> S 	 35.7022 	 0.629053 	 73.3597
|  8> C 	 34.594 	 -0.190043 	 72.2476
|  9> C 	 33.2592 	 0.0102868 	 72.6274
| 10> C 	 33.1529 	 0.876681 	 73.74
| 11> C 	 34.3889 	 1.32945 	 74.2554
| 12> H 	 32.2578 	 1.33789 	 74.0833
| 13> C 	 32.0827 	 -0.491157 	 71.8436
| 14> H 	 31.382 	 -1.01298 	 72.4651
| 15> H 	 32.4536 	 -1.37545 	 71.2552
| 16> C 	 31.3371 	 0.663209 	 71.037
| 17> H 	 32.0947 	 1.24197 	 70.5768
| 18> H 	 30.7507 	 0.220731 	 70.259
| 19> C 	 30.3395 	 1.55566 	 71.761
| 20> H 	 30.8262 	 2.02543 	 72.5685
| 21> H 	 30.0091 	 2.53814 	 71.2933
| 22> H 	 29.4565 	 1.11873 	 72.2018
| 23> S 	 35.546 	 3.43088 	 75.5983
| 24> C 	 35.2568 	 3.58881 	 77.3115
| 25> C 	 34.538 	 2.51073 	 77.8472
| 26> C 	 34.1874 	 1.5301 	 76.8483
| 27> C 	 34.5945 	 1.96926 	 75.5511
| 28> H 	 34.3543 	 2.49358 	 78.8867
| 29> C 	 33.4387 	 0.232144 	 77.1317
| 30> H 	 34.049 	 -0.596337 	 76.8473
| 31> H 	 32.6074 	 0.235016 	 76.3743
| 32> C 	 32.7673 	 0.0520389 	 78.4833
| 33> H 	 32.2305 	 1.04322 	 78.5601
| 34> H 	 33.5653 	 -0.00840968 	 79.2859
| 35> C 	 31.9779 	 -1.27629 	 78.4513
| 36> H 	 32.6037 	 -2.05277 	 78.019
| 37> H 	 30.9883 	 -1.18331 	 77.9192
| 38> H 	 31.7807 	 -1.74672 	 79.3638
| 39> H 	 34.9687 	 -1.03296 	 71.6692
| 40> H 	 35.7542 	 4.29387 	 77.9514
| 41> *
| 42>
| 43>                          ****END OF INPUT****

CARTESIAN COORDINATES (ANGSTROEM)
---------------------------------
  S     35.702200    0.629053   73.359700
  C     34.594000   -0.190043   72.247600
  C     33.259200    0.010287   72.627400
  C     33.152900    0.876681   73.740000
  C     34.388900    1.329450   74.255400
  H     32.257800    1.337890   74.083300
  C     32.082700   -0.491157   71.843600
  H     31.382000   -1.012980   72.465100
  H     32.453600   -1.375450   71.255200
  C     31.337100    0.663209   71.037000
  H     32.094700    1.241970   70.576800
  H     30.750700    0.220731   70.259000
  C     30.339500    1.555660   71.761000
  H     30.826200    2.025430   72.568500
  H     30.009100    2.538140   71.293300
  H     29.456500    1.118730   72.201800
  S     35.546000    3.430880   75.598300
  C     35.256800    3.588810   77.311500
  C     34.538000    2.510730   77.847200
  C     34.187400    1.530100   76.848300
  C     34.594500    1.969260   75.551100
  H     34.354300    2.493580   78.886700
  C     33.438700    0.232144   77.131700
  H     34.049000   -0.596337   76.847300
  H     32.607400    0.235016   76.374300
  C     32.767300    0.052039   78.483300
  H     32.230500    1.043220   78.560100
  H     33.565300   -0.008410   79.285900
  C     31.977900   -1.276290   78.451300
  H     32.603700   -2.052770   78.019000
  H     30.988300   -1.183310   77.919200
  H     31.780700   -1.746720   79.363800
  H     34.968700   -1.032960   71.669200
  H     35.754200    4.293870   77.951400

 Total Charge           Charge          ....    0
 Multiplicity           Mult            ....    1
 Number of Electrons    NEL             ....  134
 Basis Dimension        Dim             ....  322

ORBITAL ENERGIES
----------------

  NO   OCC          E(Eh)            E(eV)
   0   2.0000     -88.968275     -2420.9498
   1   2.0000     -88.966731     -2420.9078
   2   2.0000     -10.329959      -281.0925
   3   2.0000     -10.326931      -281.0101
   4   2.0000     -10.316319      -280.7213
   5   2.0000     -10.315976      -280.7120
   6   2.0000     -10.310598      -280.5656
   7   2.0000     -10.302986      -280.3585
   8   2.0000     -10.298301      -280.2310
   9   2.0000     -10.298063      -280.2245
  10   2.0000     -10.295007      -280.1414
  11   2.0000     -10.292009      -280.0598
  12   2.0000     -10.288854      -279.9739
  13   2.0000     -10.287931      -279.9488
  14   2.0000     -10.281466      -279.7729
  15   2.0000     -10.277038      -279.6524
  16   2.0000      -8.082920      -219.9474
  17   2.0000      -8.081350      -219.9047
  18   2.0000      -6.041263      -164.3911
  19   2.0000      -6.039625      -164.3466
  20   2.0000      -6.037397      -164.2859
  21   2.0000      -6.035725      -164.2404
  22   2.0000      -6.033926      -164.1915
  23   2.0000      -6.032507      -164.1529
  24   2.0000      -1.001931       -27.2639
  25   2.0000      -0.979064       -26.6417
  26   2.0000      -0.911042       -24.7907
  27   2.0000      -0.907606       -24.6972
  28   2.0000      -0.865952       -23.5638
  29   2.0000      -0.849830       -23.1251
  30   2.0000      -0.845587       -23.0096
  31   2.0000      -0.813389       -22.1334
  32   2.0000      -0.785579       -21.3767
  33   2.0000      -0.769813       -20.9477
  34   2.0000      -0.711401       -19.3582
  35   2.0000      -0.704044       -19.1580
  36   2.0000      -0.695617       -18.9287
  37   2.0000      -0.650739       -17.7075
  38   2.0000      -0.642437       -17.4816
  39   2.0000      -0.619388       -16.8544
  40   2.0000      -0.596097       -16.2206
  41   2.0000      -0.573039       -15.5932
  42   2.0000      -0.571738       -15.5578
  43   2.0000      -0.541093       -14.7239
  44   2.0000      -0.533447       -14.5158
  45   2.0000      -0.520939       -14.1755
  46   2.0000      -0.515446       -14.0260
  47   2.0000      -0.512066       -13.9340
  48   2.0000      -0.505896       -13.7661
  49   2.0000      -0.493014       -13.4156
  50   2.0000      -0.488732       -13.2991
  51   2.0000      -0.483573       -13.1587
  52   2.0000      -0.474450       -12.9104
  53   2.0000      -0.459742       -12.5102
  54   2.0000      -0.458867       -12.4864
  55   2.0000      -0.452959       -12.3256
  56   2.0000      -0.440435       -11.9849
  57   2.0000      -0.436635       -11.8814
  58   2.0000      -0.430701       -11.7200
  59   2.0000      -0.425951       -11.5907
  60   2.0000      -0.422099       -11.4859
  61   2.0000      -0.419489       -11.4149
  62   2.0000      -0.412392       -11.2218
  63   2.0000      -0.337797        -9.1919
  64   2.0000      -0.332418        -9.0456
  65   2.0000      -0.329058        -8.9541
  66   2.0000      -0.289197        -7.8694
  67   0.0000       0.026850         0.7306
  68   0.0000       0.058183         1.5832
  69   0.0000       0.115764         3.1501
  70   0.0000       0.119687         3.2569
  71   0.0000       0.132648         3.6095

MULLIKEN ATOMIC CHARGES
-----------------------
   0 S :    0.108460
   1 C :   -0.130318
   2 C :   -0.103878
   3 C :    0.031350
   4 C :   -0.148993
   5 H :    0.015689
   6 C :    0.059059
   7 H :    0.019290
   8 H :    0.024301
   9 C :   -0.015497
  10 H :    0.029598
  11 H :    0.027959
  12 C :   -0.057032
  13 H :   -0.002188
  14 H :    0.037952
  15 H :    0.030848
  16 S :    0.120378
  17 C :   -0.081199
  18 C :   -0.051697
  19 C :   -0.019307
  20 C :   -0.188755
  21 H :    0.009554
  22 C :    0.048787
  23 H :    0.031113
  24 H :    0.030427
  25 C :   -0.104175
  26 H :    0.047395
  27 H :    0.041060
  28 C :   -0.012616
  29 H :    0.023957
  30 H :    0.048324
  31 H :    0.012988
  32 H :    0.065064
  33 H :    0.052100
Sum of atomic charges:   -0.0000000

LOEWDIN ATOMIC CHARGES
----------------------
   0 S :    0.412090
   1 C :   -0.203301
   2 C :   -0.062464
   3 C :   -0.062344
   4 C :   -0.201423
   5 H :    0.025081
   6 C :   -0.032926
   7 H :    0.025933
   8 H :    0.038390
   9 C :   -0.027787
  10 H :    0.025144
  11 H :    0.023962
  12 C :   -0.078028
  13 H :    0.015601
  14 H :    0.041832
  15 H :    0.023215
  16 S :    0.419553
  17 C :   -0.189575
  18 C :   -0.070217
  19 C :   -0.044206
  20 C :   -0.215759
  21 H :    0.025409
  22 C :   -0.040391
  23 H :    0.027715
  24 H :    0.038369
  25 C :   -0.048659
  26 H :    0.033775
  27 H :    0.027475
  28 C :   -0.064944
  29 H :    0.030034
  30 H :    0.035772
  31 H :    0.017479
  32 H :    0.029580
  33 H :    0.025617

  Mayer bond orders larger than 0.100000
B(  0-S ,  1-C ) :   1.1499 B(  0-S ,  4-C ) :   1.1817 B(  1-C ,  2-C ) :   1.5728
B(  1-C ,  4-C ) :   0.1062 B(  1-C , 32-H ) :   0.9618 B(  2-C ,  3-C ) :   1.2741
B(  2-C ,  6-C ) :   1.0409 B(  3-C ,  4-C ) :   1.5392 B(  3-C ,  5-H ) :   0.9908
B(  4-C , 20-C ) :   1.0366 B(  6-C ,  7-H ) :   0.9391 B(  6-C ,  8-H ) :   0.9410
B(  6-C ,  9-C ) :   1.0417 B(  9-C , 10-H ) :   0.9576 B(  9-C , 11-H ) :   0.9587
B(  9-C , 12-C ) :   1.0744 B( 12-C , 13-H ) :   0.9680 B( 12-C , 14-H ) :   0.9656
B( 12-C , 15-H ) :   0.9765 B( 16-S , 17-C ) :   1.1690 B( 16-S , 20-C ) :   1.1565
B( 17-C , 18-C ) :   1.5879 B( 17-C , 20-C ) :   0.1039 B( 17-C , 33-H ) :   0.9638
B( 18-C , 19-C ) :   1.2609 B( 18-C , 21-H ) :   0.9937 B( 19-C , 20-C ) :   1.5541
B( 19-C , 22-C ) :   1.0216 B( 22-C , 23-H ) :   0.9197 B( 22-C , 24-H ) :   0.9352
B( 22-C , 25-C ) :   1.0690 B( 25-C , 26-H ) :   0.9568 B( 25-C , 27-H ) :   0.9485
B( 25-C , 28-C ) :   1.0738 B( 28-C , 29-H ) :   0.9689 B( 28-C , 30-H ) :   0.9738
B( 28-C , 31-H ) :   0.9725

Dispersion correction           -0.014186361
FINAL SINGLE POINT ENERGY     -1339.860545975592

DIPOLE MOMENT
-------------
                                X             Y             Z
Electronic contribution:     24.45355      11.83476      -2.33972
Nuclear contribution   :    -24.94941     -12.27989       2.60667
                        -----------------------------------------
Total Dipole Moment    :     -0.49587      -0.44514       0.26695
                        -----------------------------------------
Magnitude (a.u.)       :      0.71784
Magnitude (Debye)      :      1.82460

Rotational constants in cm-1:     0.015975     0.008978     0.007188
Rotational constants in MHz :   478.910485   269.164114   215.494497

                             ****ORCA TERMINATED NORMALLY****
TOTAL RUN TIME: 0 days 0 hours 0 minutes 29 seconds 908 msec
