                         Program Version 4.2.1 -  RELEASE  -
|  1> ! wB97X-D3 SP def2-SVP
|  2> %pal
|  3> nprocs 16
|  4> end
|  5>
|  6> * xyz 0 1
|  7> S 	 5.4606 	 -6.02333 	 93.2131
|  8> C 	 6.34932 	 -4.49373 	 93.6959
|  9> C 	 7.1785 	 -4.06562 	 92.7169
| 10> C 	 7.13272 	 -4.95023 	 91.5719
| 11> C 	 6.22556 	 -5.99832 	 91.6119
| 12> H 	 7.69041 	 -4.86236 	 90.643
| 13> C 	 8.1245 	 -2.9115 	 92.8528
| 14> H 	 7.97955 	 -2.14815 	 92.0429
| 15> H 	 9.12063 	 -3.35678 	 92.8494
| 16> C 	 8.35651 	 -2.29004 	 94.218
| 17> H 	 7.42272 	 -1.76516 	 94.4814
| 18> H 	 8.66301 	 -3.01549 	 95.0247
| 19> C 	 9.39641 	 -1.14739 	 94.276
| 20> H 	 9.36293 	 -0.694297 	 95.2555
| 21> H 	 10.3837 	 -1.65369 	 94.1791
| 22> H 	 9.18588 	 -0.331259 	 93.6122
| 23> S 	 6.53293 	 -8.58215 	 90.8258
| 24> C 	 5.7802 	 -9.13626 	 89.3638
| 25> C 	 5.07269 	 -8.12705 	 88.6867
| 26> C 	 5.22426 	 -6.87137 	 89.3556
| 27> C 	 5.86994 	 -6.97486 	 90.593
| 28> H 	 4.52646 	 -8.47707 	 87.8162
| 29> C 	 4.68564 	 -5.51664 	 88.8222
| 30> H 	 4.93973 	 -4.77727 	 89.5901
| 31> H 	 3.68294 	 -5.46641 	 88.6548
| 32> C 	 5.35942 	 -5.10898 	 87.5578
| 33> H 	 5.13536 	 -5.83173 	 86.8001
| 34> H 	 6.42929 	 -5.13277 	 87.739
| 35> C 	 4.86253 	 -3.73379 	 87.0805
| 36> H 	 5.41683 	 -3.34026 	 86.2253
| 37> H 	 4.79673 	 -2.96942 	 87.8519
| 38> H 	 3.81398 	 -3.85052 	 86.7919
| 39> H 	 6.1709 	 -4.0386 	 94.6804
| 40> H 	 5.84803 	 -10.2472 	 89.1659
| 41> *
| 42>
| 43>                          ****END OF INPUT****

CARTESIAN COORDINATES (ANGSTROEM)
---------------------------------
  S      5.460600   -6.023330   93.213100
  C      6.349320   -4.493730   93.695900
  C      7.178500   -4.065620   92.716900
  C      7.132720   -4.950230   91.571900
  C      6.225560   -5.998320   91.611900
  H      7.690410   -4.862360   90.643000
  C      8.124500   -2.911500   92.852800
  H      7.979550   -2.148150   92.042900
  H      9.120630   -3.356780   92.849400
  C      8.356510   -2.290040   94.218000
  H      7.422720   -1.765160   94.481400
  H      8.663010   -3.015490   95.024700
  C      9.396410   -1.147390   94.276000
  H      9.362930   -0.694297   95.255500
  H     10.383700   -1.653690   94.179100
  H      9.185880   -0.331259   93.612200
  S      6.532930   -8.582150   90.825800
  C      5.780200   -9.136260   89.363800
  C      5.072690   -8.127050   88.686700
  C      5.224260   -6.871370   89.355600
  C      5.869940   -6.974860   90.593000
  H      4.526460   -8.477070   87.816200
  C      4.685640   -5.516640   88.822200
  H      4.939730   -4.777270   89.590100
  H      3.682940   -5.466410   88.654800
  C      5.359420   -5.108980   87.557800
  H      5.135360   -5.831730   86.800100
  H      6.429290   -5.132770   87.739000
  C      4.862530   -3.733790   87.080500
  H      5.416830   -3.340260   86.225300
  H      4.796730   -2.969420   87.851900
  H      3.813980   -3.850520   86.791900
  H      6.170900   -4.038600   94.680400
  H      5.848030  -10.247200   89.165900

 Total Charge           Charge          ....    0
 Multiplicity           Mult            ....    1
 Number of Electrons    NEL             ....  134
 Basis Dimension        Dim             ....  322

ORBITAL ENERGIES
----------------

  NO   OCC          E(Eh)            E(eV)
   0   2.0000     -88.964142     -2420.8374
   1   2.0000     -88.959070     -2420.6994
   2   2.0000     -10.331278      -281.1284
   3   2.0000     -10.326609      -281.0013
   4   2.0000     -10.324078      -280.9324
   5   2.0000     -10.318651      -280.7848
   6   2.0000     -10.311846      -280.5996
   7   2.0000     -10.304213      -280.3919
   8   2.0000     -10.301164      -280.3089
   9   2.0000     -10.297197      -280.2010
  10   2.0000     -10.297019      -280.1961
  11   2.0000     -10.293764      -280.1076
  12   2.0000     -10.282268      -279.7947
  13   2.0000     -10.279773      -279.7268
  14   2.0000     -10.278220      -279.6846
  15   2.0000     -10.277158      -279.6557
  16   2.0000      -8.079399      -219.8516
  17   2.0000      -8.072703      -219.6694
  18   2.0000      -6.037669      -164.2933
  19   2.0000      -6.033781      -164.1875
  20   2.0000      -6.031391      -164.1225
  21   2.0000      -6.030434      -164.0965
  22   2.0000      -6.027459      -164.0155
  23   2.0000      -6.023235      -163.9006
  24   2.0000      -1.001549       -27.2535
  25   2.0000      -0.977984       -26.6123
  26   2.0000      -0.916853       -24.9488
  27   2.0000      -0.915366       -24.9084
  28   2.0000      -0.869777       -23.6678
  29   2.0000      -0.848171       -23.0799
  30   2.0000      -0.840728       -22.8774
  31   2.0000      -0.811419       -22.0798
  32   2.0000      -0.785732       -21.3809
  33   2.0000      -0.773092       -21.0369
  34   2.0000      -0.704408       -19.1679
  35   2.0000      -0.699517       -19.0348
  36   2.0000      -0.689900       -18.7731
  37   2.0000      -0.657768       -17.8988
  38   2.0000      -0.637474       -17.3465
  39   2.0000      -0.610163       -16.6034
  40   2.0000      -0.596090       -16.2204
  41   2.0000      -0.587140       -15.9769
  42   2.0000      -0.577647       -15.7186
  43   2.0000      -0.566037       -15.4027
  44   2.0000      -0.525325       -14.2948
  45   2.0000      -0.522941       -14.2299
  46   2.0000      -0.518994       -14.1225
  47   2.0000      -0.511903       -13.9296
  48   2.0000      -0.510905       -13.9024
  49   2.0000      -0.498943       -13.5769
  50   2.0000      -0.489926       -13.3316
  51   2.0000      -0.474722       -12.9178
  52   2.0000      -0.472234       -12.8502
  53   2.0000      -0.458392       -12.4735
  54   2.0000      -0.455226       -12.3873
  55   2.0000      -0.445641       -12.1265
  56   2.0000      -0.444807       -12.1038
  57   2.0000      -0.439538       -11.9604
  58   2.0000      -0.435929       -11.8622
  59   2.0000      -0.421677       -11.4744
  60   2.0000      -0.421145       -11.4599
  61   2.0000      -0.420124       -11.4321
  62   2.0000      -0.397347       -10.8123
  63   2.0000      -0.336103        -9.1458
  64   2.0000      -0.331524        -9.0212
  65   2.0000      -0.324029        -8.8173
  66   2.0000      -0.305545        -8.3143
  67   0.0000       0.038483         1.0472
  68   0.0000       0.060056         1.6342
  69   0.0000       0.114270         3.1095
  70   0.0000       0.120465         3.2780
  71   0.0000       0.126740         3.4488

MULLIKEN ATOMIC CHARGES
-----------------------
   0 S :    0.081902
   1 C :   -0.147257
   2 C :   -0.047348
   3 C :    0.045639
   4 C :   -0.172396
   5 H :    0.010429
   6 C :    0.070700
   7 H :    0.053183
   8 H :    0.033975
   9 C :   -0.159139
  10 H :    0.023497
  11 H :    0.050918
  12 C :   -0.031828
  13 H :    0.030331
  14 H :    0.037348
  15 H :    0.033845
  16 S :    0.112440
  17 C :   -0.136556
  18 C :   -0.035214
  19 C :   -0.007250
  20 C :   -0.179897
  21 H :    0.030314
  22 C :    0.118334
  23 H :    0.024650
  24 H :   -0.000194
  25 C :   -0.088967
  26 H :    0.023550
  27 H :    0.025722
  28 C :   -0.031261
  29 H :    0.040383
  30 H :    0.023273
  31 H :    0.019857
  32 H :    0.062943
  33 H :    0.084076
Sum of atomic charges:    0.0000000

LOEWDIN ATOMIC CHARGES
----------------------
   0 S :    0.350626
   1 C :   -0.166055
   2 C :   -0.069198
   3 C :   -0.059696
   4 C :   -0.189360
   5 H :    0.030980
   6 C :   -0.042197
   7 H :    0.040553
   8 H :    0.041940
   9 C :   -0.050870
  10 H :    0.016217
  11 H :    0.033404
  12 C :   -0.060679
  13 H :    0.027970
  14 H :    0.027934
  15 H :    0.022621
  16 S :    0.416380
  17 C :   -0.192243
  18 C :   -0.077762
  19 C :   -0.040257
  20 C :   -0.210563
  21 H :    0.037847
  22 C :   -0.019453
  23 H :    0.032722
  24 H :    0.014206
  25 C :   -0.037498
  26 H :    0.019691
  27 H :    0.021253
  28 C :   -0.065127
  29 H :    0.027707
  30 H :    0.022895
  31 H :    0.025675
  32 H :    0.032521
  33 H :    0.037815

  Mayer bond orders larger than 0.100000
B(  0-S ,  1-C ) :   1.1074 B(  0-S ,  4-C ) :   1.1275 B(  1-C ,  2-C ) :   1.6639
B(  1-C , 32-H ) :   0.9575 B(  2-C ,  3-C ) :   1.1901 B(  2-C ,  6-C ) :   1.0136
B(  3-C ,  4-C ) :   1.6281 B(  3-C ,  5-H ) :   0.9973 B(  4-C , 20-C ) :   1.0137
B(  6-C ,  7-H ) :   0.9357 B(  6-C ,  8-H ) :   0.9407 B(  6-C ,  9-C ) :   1.0664
B(  9-C , 10-H ) :   0.9454 B(  9-C , 11-H ) :   0.9567 B(  9-C , 12-C ) :   1.0900
B( 12-C , 13-H ) :   0.9718 B( 12-C , 14-H ) :   0.9754 B( 12-C , 15-H ) :   0.9746
B( 16-S , 17-C ) :   1.1833 B( 16-S , 20-C ) :   1.1585 B( 17-C , 18-C ) :   1.5843
B( 17-C , 20-C ) :   0.1087 B( 17-C , 33-H ) :   0.9590 B( 18-C , 19-C ) :   1.2173
B( 18-C , 21-H ) :   0.9992 B( 19-C , 20-C ) :   1.5999 B( 19-C , 22-C ) :   1.0343
B( 22-C , 23-H ) :   0.9304 B( 22-C , 24-H ) :   0.9371 B( 22-C , 25-C ) :   1.0647
B( 25-C , 26-H ) :   0.9559 B( 25-C , 27-H ) :   0.9538 B( 25-C , 28-C ) :   1.0846
B( 28-C , 29-H ) :   0.9745 B( 28-C , 30-H ) :   0.9749 B( 28-C , 31-H ) :   0.9696

Dispersion correction           -0.013548729
FINAL SINGLE POINT ENERGY     -1339.869485354734

DIPOLE MOMENT
-------------
                                X             Y             Z
Electronic contribution:     -6.24004     -26.34878       6.87561
Nuclear contribution   :      6.41969      26.83037      -7.16360
                        -----------------------------------------
Total Dipole Moment    :      0.17965       0.48160      -0.28799
                        -----------------------------------------
Magnitude (a.u.)       :      0.58919
Magnitude (Debye)      :      1.49761

Rotational constants in cm-1:     0.019174     0.007499     0.005992
Rotational constants in MHz :   574.812281   224.818245   179.622708

                             ****ORCA TERMINATED NORMALLY****
TOTAL RUN TIME: 0 days 0 hours 0 minutes 32 seconds 945 msec
