                         Program Version 4.2.1 -  RELEASE  -
|  1> ! wB97X-D3 SP def2-SVP
|  2> %pal
|  3> nprocs 16
|  4> end
|  5>
|  6> * xyz 0 1
|  7> S 	 -69.6467 	 56.628 	 122.169
|  8> C 	 -69.4999 	 58.1316 	 121.336
|  9> C 	 -68.7801 	 59.1135 	 122.037
| 10> C 	 -68.4654 	 58.5434 	 123.3
| 11> C 	 -68.6686 	 57.1822 	 123.496
| 12> H 	 -67.8437 	 59.0775 	 124.036
| 13> C 	 -68.2919 	 60.4963 	 121.586
| 14> H 	 -68.9358 	 61.2413 	 122.061
| 15> H 	 -68.4237 	 60.5638 	 120.486
| 16> C 	 -66.9069 	 60.8417 	 122.053
| 17> H 	 -66.9141 	 60.9788 	 123.116
| 18> H 	 -66.208 	 60.0715 	 121.812
| 19> C 	 -66.5207 	 62.2334 	 121.546
| 20> H 	 -66.5538 	 62.3644 	 120.461
| 21> H 	 -67.1381 	 62.9292 	 122.12
| 22> H 	 -65.4512 	 62.4581 	 121.691
| 23> S 	 -69.8938 	 55.7632 	 125.42
| 24> C 	 -69.1118 	 55.508 	 127.022
| 25> C 	 -67.826 	 55.9572 	 126.908
| 26> C 	 -67.4413 	 56.4889 	 125.656
| 27> C 	 -68.4716 	 56.4703 	 124.711
| 28> H 	 -67.2668 	 55.8859 	 127.803
| 29> C 	 -65.9362 	 56.7418 	 125.394
| 30> H 	 -65.6933 	 57.6409 	 125.937
| 31> H 	 -65.7998 	 56.891 	 124.334
| 32> C 	 -64.9826 	 55.5731 	 125.834
| 33> H 	 -65.1655 	 54.8254 	 125.047
| 34> H 	 -65.2797 	 55.2278 	 126.756
| 35> C 	 -63.4688 	 55.8216 	 125.981
| 36> H 	 -63.2344 	 56.4852 	 126.834
| 37> H 	 -63.0667 	 56.1532 	 125.041
| 38> H 	 -63.0184 	 54.8554 	 126.147
| 39> H 	 -69.8259 	 58.3871 	 120.316
| 40> H 	 -69.4913 	 55.1177 	 127.969
| 41> *
| 42>
| 43>                          ****END OF INPUT****

CARTESIAN COORDINATES (ANGSTROEM)
---------------------------------
  S    -69.646700   56.628000  122.169000
  C    -69.499900   58.131600  121.336000
  C    -68.780100   59.113500  122.037000
  C    -68.465400   58.543400  123.300000
  C    -68.668600   57.182200  123.496000
  H    -67.843700   59.077500  124.036000
  C    -68.291900   60.496300  121.586000
  H    -68.935800   61.241300  122.061000
  H    -68.423700   60.563800  120.486000
  C    -66.906900   60.841700  122.053000
  H    -66.914100   60.978800  123.116000
  H    -66.208000   60.071500  121.812000
  C    -66.520700   62.233400  121.546000
  H    -66.553800   62.364400  120.461000
  H    -67.138100   62.929200  122.120000
  H    -65.451200   62.458100  121.691000
  S    -69.893800   55.763200  125.420000
  C    -69.111800   55.508000  127.022000
  C    -67.826000   55.957200  126.908000
  C    -67.441300   56.488900  125.656000
  C    -68.471600   56.470300  124.711000
  H    -67.266800   55.885900  127.803000
  C    -65.936200   56.741800  125.394000
  H    -65.693300   57.640900  125.937000
  H    -65.799800   56.891000  124.334000
  C    -64.982600   55.573100  125.834000
  H    -65.165500   54.825400  125.047000
  H    -65.279700   55.227800  126.756000
  C    -63.468800   55.821600  125.981000
  H    -63.234400   56.485200  126.834000
  H    -63.066700   56.153200  125.041000
  H    -63.018400   54.855400  126.147000
  H    -69.825900   58.387100  120.316000
  H    -69.491300   55.117700  127.969000

 Total Charge           Charge          ....    0
 Multiplicity           Mult            ....    1
 Number of Electrons    NEL             ....  134
 Basis Dimension        Dim             ....  322

ORBITAL ENERGIES
----------------

  NO   OCC          E(Eh)            E(eV)
   0   2.0000     -88.969456     -2420.9820
   1   2.0000     -88.961687     -2420.7706
   2   2.0000     -10.327287      -281.0198
   3   2.0000     -10.326203      -280.9903
   4   2.0000     -10.319101      -280.7970
   5   2.0000     -10.316322      -280.7214
   6   2.0000     -10.303605      -280.3754
   7   2.0000     -10.302355      -280.3413
   8   2.0000     -10.298824      -280.2453
   9   2.0000     -10.292083      -280.0618
  10   2.0000     -10.290147      -280.0091
  11   2.0000     -10.287055      -279.9250
  12   2.0000     -10.283767      -279.8355
  13   2.0000     -10.282462      -279.8000
  14   2.0000     -10.281084      -279.7625
  15   2.0000     -10.278775      -279.6997
  16   2.0000      -8.084402      -219.9878
  17   2.0000      -8.076075      -219.7612
  18   2.0000      -6.042870      -164.4349
  19   2.0000      -6.038847      -164.3254
  20   2.0000      -6.035216      -164.2266
  21   2.0000      -6.034791      -164.2150
  22   2.0000      -6.030498      -164.0982
  23   2.0000      -6.026715      -163.9952
  24   2.0000      -1.010024       -27.4842
  25   2.0000      -0.983849       -26.7719
  26   2.0000      -0.921508       -25.0755
  27   2.0000      -0.901550       -24.5324
  28   2.0000      -0.877157       -23.8686
  29   2.0000      -0.851048       -23.1582
  30   2.0000      -0.844637       -22.9837
  31   2.0000      -0.814412       -22.1613
  32   2.0000      -0.782566       -21.2947
  33   2.0000      -0.772319       -21.0159
  34   2.0000      -0.714630       -19.4461
  35   2.0000      -0.696907       -18.9638
  36   2.0000      -0.695027       -18.9126
  37   2.0000      -0.657871       -17.9016
  38   2.0000      -0.637982       -17.3604
  39   2.0000      -0.619054       -16.8453
  40   2.0000      -0.591660       -16.0999
  41   2.0000      -0.587288       -15.9809
  42   2.0000      -0.568326       -15.4649
  43   2.0000      -0.567347       -15.4383
  44   2.0000      -0.526915       -14.3381
  45   2.0000      -0.523449       -14.2438
  46   2.0000      -0.516660       -14.0590
  47   2.0000      -0.511537       -13.9196
  48   2.0000      -0.509571       -13.8661
  49   2.0000      -0.501805       -13.6548
  50   2.0000      -0.490308       -13.3420
  51   2.0000      -0.486153       -13.2289
  52   2.0000      -0.469911       -12.7869
  53   2.0000      -0.462303       -12.5799
  54   2.0000      -0.456733       -12.4283
  55   2.0000      -0.447602       -12.1799
  56   2.0000      -0.441923       -12.0253
  57   2.0000      -0.435623       -11.8539
  58   2.0000      -0.431707       -11.7473
  59   2.0000      -0.428104       -11.6493
  60   2.0000      -0.425616       -11.5816
  61   2.0000      -0.416604       -11.3364
  62   2.0000      -0.411517       -11.1979
  63   2.0000      -0.352637        -9.5958
  64   2.0000      -0.330872        -9.0035
  65   2.0000      -0.325174        -8.8484
  66   2.0000      -0.287490        -7.8230
  67   0.0000       0.026781         0.7288
  68   0.0000       0.071157         1.9363
  69   0.0000       0.109952         2.9919
  70   0.0000       0.123423         3.3585
  71   0.0000       0.135967         3.6998

MULLIKEN ATOMIC CHARGES
-----------------------
   0 S :    0.122411
   1 C :   -0.117165
   2 C :   -0.105202
   3 C :    0.012403
   4 C :   -0.155158
   5 H :    0.014581
   6 C :    0.088137
   7 H :    0.034093
   8 H :    0.026868
   9 C :   -0.087005
  10 H :    0.032404
  11 H :    0.033671
  12 C :   -0.047939
  13 H :    0.029636
  14 H :    0.035247
  15 H :    0.030811
  16 S :    0.086459
  17 C :   -0.097030
  18 C :   -0.045141
  19 C :   -0.042300
  20 C :   -0.125396
  21 H :    0.009832
  22 C :    0.091834
  23 H :    0.018826
  24 H :    0.023432
  25 C :   -0.084994
  26 H :    0.036291
  27 H :    0.007011
  28 C :   -0.029423
  29 H :    0.040328
  30 H :    0.025795
  31 H :    0.030713
  32 H :    0.046657
  33 H :    0.059316
Sum of atomic charges:   -0.0000000

LOEWDIN ATOMIC CHARGES
----------------------
   0 S :    0.425394
   1 C :   -0.208659
   2 C :   -0.066362
   3 C :   -0.058657
   4 C :   -0.212718
   5 H :    0.028119
   6 C :   -0.027973
   7 H :    0.036785
   8 H :    0.032687
   9 C :   -0.040147
  10 H :    0.024805
  11 H :    0.020839
  12 C :   -0.063878
  13 H :    0.023752
  14 H :    0.027640
  15 H :    0.029062
  16 S :    0.390115
  17 C :   -0.175432
  18 C :   -0.070333
  19 C :   -0.060783
  20 C :   -0.197650
  21 H :    0.025685
  22 C :   -0.025332
  23 H :    0.024000
  24 H :    0.026234
  25 C :   -0.033290
  26 H :    0.030124
  27 H :    0.007132
  28 C :   -0.059186
  29 H :    0.028366
  30 H :    0.020893
  31 H :    0.028813
  32 H :    0.031940
  33 H :    0.038014

  Mayer bond orders larger than 0.100000
B(  0-S ,  1-C ) :   1.1626 B(  0-S ,  4-C ) :   1.1377 B(  1-C ,  2-C ) :   1.5944
B(  1-C , 32-H ) :   0.9569 B(  2-C ,  3-C ) :   1.2778 B(  2-C ,  6-C ) :   1.0131
B(  3-C ,  4-C ) :   1.5620 B(  3-C ,  5-H ) :   0.9754 B(  4-C , 20-C ) :   1.0573
B(  6-C ,  7-H ) :   0.9274 B(  6-C ,  8-H ) :   0.9457 B(  6-C ,  9-C ) :   1.0766
B(  9-C , 10-H ) :   0.9442 B(  9-C , 11-H ) :   0.9612 B(  9-C , 12-C ) :   1.0845
B( 12-C , 13-H ) :   0.9757 B( 12-C , 14-H ) :   0.9757 B( 12-C , 15-H ) :   0.9725
B( 16-S , 17-C ) :   1.1319 B( 16-S , 20-C ) :   1.1408 B( 17-C , 18-C ) :   1.6318
B( 17-C , 33-H ) :   0.9664 B( 18-C , 19-C ) :   1.2349 B( 18-C , 21-H ) :   0.9904
B( 19-C , 20-C ) :   1.5844 B( 19-C , 22-C ) :   1.0350 B( 22-C , 23-H ) :   0.9296
B( 22-C , 24-H ) :   0.9472 B( 22-C , 25-C ) :   1.0583 B( 25-C , 26-H ) :   0.9585
B( 25-C , 27-H ) :   0.9563 B( 25-C , 28-C ) :   1.0918 B( 28-C , 29-H ) :   0.9742
B( 28-C , 30-H ) :   0.9758 B( 28-C , 31-H ) :   0.9713

Dispersion correction           -0.013277394
FINAL SINGLE POINT ENERGY     -1339.864829421785

DIPOLE MOMENT
-------------
                                X             Y             Z
Electronic contribution:    -25.90024     -15.94206      -0.01298
Nuclear contribution   :     26.54592      16.44564       0.17452
                        -----------------------------------------
Total Dipole Moment    :      0.64568       0.50358       0.16154
                        -----------------------------------------
Magnitude (a.u.)       :      0.83462
Magnitude (Debye)      :      2.12145

Rotational constants in cm-1:     0.015819     0.008699     0.006335
Rotational constants in MHz :   474.256139   260.801273   189.910143

                             ****ORCA TERMINATED NORMALLY****
TOTAL RUN TIME: 0 days 0 hours 0 minutes 32 seconds 371 msec
