                         Program Version 4.2.1 -  RELEASE  -
|  1> ! wB97X-D3 SP def2-SVP
|  2> %pal
|  3> nprocs 16
|  4> end
|  5>
|  6> * xyz 0 1
|  7> S 	 54.5812 	 4.18288 	 80.3891
|  8> C 	 53.1464 	 3.49965 	 81.1427
|  9> C 	 52.9993 	 2.17712 	 81.0138
| 10> C 	 54.1638 	 1.61278 	 80.3789
| 11> C 	 55.0703 	 2.54471 	 79.9704
| 12> H 	 54.3446 	 0.566273 	 80.1687
| 13> C 	 51.878 	 1.39596 	 81.6324
| 14> H 	 51.1665 	 2.07062 	 82.0906
| 15> H 	 52.2493 	 0.844562 	 82.5266
| 16> C 	 51.0725 	 0.418251 	 80.6989
| 17> H 	 50.7178 	 0.783382 	 79.8183
| 18> H 	 51.8519 	 -0.344299 	 80.4525
| 19> C 	 49.9486 	 -0.424801 	 81.4107
| 20> H 	 49.219 	 0.300041 	 81.9051
| 21> H 	 49.3575 	 -1.00572 	 80.6586
| 22> H 	 50.3663 	 -1.14694 	 82.1372
| 23> S 	 57.8333 	 2.63932 	 79.8981
| 24> C 	 58.6595 	 2.0312 	 78.3782
| 25> C 	 57.7604 	 1.4636 	 77.5337
| 26> C 	 56.4052 	 1.60192 	 77.9603
| 27> C 	 56.2706 	 2.16481 	 79.2472
| 28> H 	 58.133 	 1.13264 	 76.5476
| 29> C 	 55.2302 	 1.1601 	 77.0929
| 30> H 	 54.6028 	 2.03313 	 76.9138
| 31> H 	 54.5803 	 0.387578 	 77.5361
| 32> C 	 55.6818 	 0.512666 	 75.7385
| 33> H 	 56.2679 	 -0.438889 	 75.98
| 34> H 	 56.2264 	 1.1836 	 75.0745
| 35> C 	 54.5919 	 -0.116883 	 74.9007
| 36> H 	 54.2146 	 0.753977 	 74.4335
| 37> H 	 53.7842 	 -0.750304 	 75.3985
| 38> H 	 54.9423 	 -0.76311 	 74.1184
| 39> H 	 52.3989 	 4.09639 	 81.6835
| 40> H 	 59.7087 	 2.22014 	 78.1576
| 41> *
| 42>
| 43>                          ****END OF INPUT****

CARTESIAN COORDINATES (ANGSTROEM)
---------------------------------
  S     54.581200    4.182880   80.389100
  C     53.146400    3.499650   81.142700
  C     52.999300    2.177120   81.013800
  C     54.163800    1.612780   80.378900
  C     55.070300    2.544710   79.970400
  H     54.344600    0.566273   80.168700
  C     51.878000    1.395960   81.632400
  H     51.166500    2.070620   82.090600
  H     52.249300    0.844562   82.526600
  C     51.072500    0.418251   80.698900
  H     50.717800    0.783382   79.818300
  H     51.851900   -0.344299   80.452500
  C     49.948600   -0.424801   81.410700
  H     49.219000    0.300041   81.905100
  H     49.357500   -1.005720   80.658600
  H     50.366300   -1.146940   82.137200
  S     57.833300    2.639320   79.898100
  C     58.659500    2.031200   78.378200
  C     57.760400    1.463600   77.533700
  C     56.405200    1.601920   77.960300
  C     56.270600    2.164810   79.247200
  H     58.133000    1.132640   76.547600
  C     55.230200    1.160100   77.092900
  H     54.602800    2.033130   76.913800
  H     54.580300    0.387578   77.536100
  C     55.681800    0.512666   75.738500
  H     56.267900   -0.438889   75.980000
  H     56.226400    1.183600   75.074500
  C     54.591900   -0.116883   74.900700
  H     54.214600    0.753977   74.433500
  H     53.784200   -0.750304   75.398500
  H     54.942300   -0.763110   74.118400
  H     52.398900    4.096390   81.683500
  H     59.708700    2.220140   78.157600

 Total Charge           Charge          ....    0
 Multiplicity           Mult            ....    1
 Number of Electrons    NEL             ....  134
 Basis Dimension        Dim             ....  322

ORBITAL ENERGIES
----------------

  NO   OCC          E(Eh)            E(eV)
   0   2.0000     -88.967509     -2420.9290
   1   2.0000     -88.962426     -2420.7907
   2   2.0000     -10.326143      -280.9886
   3   2.0000     -10.325278      -280.9651
   4   2.0000     -10.320588      -280.8375
   5   2.0000     -10.311392      -280.5873
   6   2.0000     -10.307020      -280.4683
   7   2.0000     -10.297672      -280.2139
   8   2.0000     -10.296979      -280.1950
   9   2.0000     -10.296406      -280.1794
  10   2.0000     -10.295021      -280.1418
  11   2.0000     -10.293025      -280.0874
  12   2.0000     -10.292483      -280.0727
  13   2.0000     -10.292048      -280.0609
  14   2.0000     -10.289048      -279.9792
  15   2.0000     -10.275824      -279.6194
  16   2.0000      -8.082059      -219.9240
  17   2.0000      -8.075999      -219.7591
  18   2.0000      -6.040609      -164.3733
  19   2.0000      -6.036820      -164.2702
  20   2.0000      -6.034618      -164.2103
  21   2.0000      -6.032547      -164.1540
  22   2.0000      -6.030672      -164.1029
  23   2.0000      -6.026717      -163.9953
  24   2.0000      -1.004879       -27.3442
  25   2.0000      -0.979085       -26.6422
  26   2.0000      -0.907667       -24.6989
  27   2.0000      -0.904678       -24.6175
  28   2.0000      -0.871396       -23.7119
  29   2.0000      -0.849890       -23.1267
  30   2.0000      -0.845652       -23.0114
  31   2.0000      -0.818165       -22.2634
  32   2.0000      -0.779645       -21.2152
  33   2.0000      -0.767132       -20.8747
  34   2.0000      -0.708702       -19.2848
  35   2.0000      -0.695030       -18.9127
  36   2.0000      -0.694038       -18.8857
  37   2.0000      -0.646475       -17.5915
  38   2.0000      -0.641093       -17.4450
  39   2.0000      -0.619163       -16.8483
  40   2.0000      -0.596460       -16.2305
  41   2.0000      -0.577493       -15.7144
  42   2.0000      -0.571507       -15.5515
  43   2.0000      -0.556771       -15.1505
  44   2.0000      -0.525469       -14.2987
  45   2.0000      -0.519457       -14.1351
  46   2.0000      -0.516981       -14.0678
  47   2.0000      -0.506086       -13.7713
  48   2.0000      -0.502325       -13.6690
  49   2.0000      -0.495431       -13.4814
  50   2.0000      -0.491782       -13.3821
  51   2.0000      -0.476316       -12.9612
  52   2.0000      -0.471338       -12.8258
  53   2.0000      -0.465487       -12.6666
  54   2.0000      -0.456824       -12.4308
  55   2.0000      -0.454654       -12.3718
  56   2.0000      -0.448718       -12.2102
  57   2.0000      -0.442133       -12.0311
  58   2.0000      -0.431625       -11.7451
  59   2.0000      -0.429071       -11.6756
  60   2.0000      -0.418742       -11.3946
  61   2.0000      -0.409559       -11.1447
  62   2.0000      -0.399427       -10.8690
  63   2.0000      -0.343118        -9.3367
  64   2.0000      -0.332707        -9.0534
  65   2.0000      -0.328971        -8.9518
  66   2.0000      -0.297450        -8.0940
  67   0.0000       0.031185         0.8486
  68   0.0000       0.071124         1.9354
  69   0.0000       0.110998         3.0204
  70   0.0000       0.120910         3.2901
  71   0.0000       0.128832         3.5057

MULLIKEN ATOMIC CHARGES
-----------------------
   0 S :    0.122136
   1 C :   -0.137234
   2 C :   -0.033844
   3 C :    0.018820
   4 C :   -0.144065
   5 H :    0.017095
   6 C :    0.060294
   7 H :    0.003214
   8 H :    0.042888
   9 C :   -0.067991
  10 H :    0.017671
  11 H :    0.029156
  12 C :   -0.093757
  13 H :    0.042159
  14 H :    0.044820
  15 H :    0.045012
  16 S :    0.084237
  17 C :   -0.099027
  18 C :   -0.030128
  19 C :   -0.037635
  20 C :   -0.176181
  21 H :    0.037380
  22 C :    0.089315
  23 H :    0.039176
  24 H :    0.034718
  25 C :   -0.153879
  26 H :    0.042082
  27 H :    0.041432
  28 C :   -0.033453
  29 H :    0.016896
  30 H :    0.041583
  31 H :    0.028997
  32 H :    0.046770
  33 H :    0.061345
Sum of atomic charges:   -0.0000000

LOEWDIN ATOMIC CHARGES
----------------------
   0 S :    0.390861
   1 C :   -0.184908
   2 C :   -0.069720
   3 C :   -0.049421
   4 C :   -0.195317
   5 H :    0.031652
   6 C :   -0.031570
   7 H :    0.022673
   8 H :    0.039731
   9 C :   -0.034414
  10 H :    0.009560
  11 H :    0.027412
  12 C :   -0.073122
  13 H :    0.028785
  14 H :    0.031434
  15 H :    0.027124
  16 S :    0.364785
  17 C :   -0.158160
  18 C :   -0.075974
  19 C :   -0.054141
  20 C :   -0.197096
  21 H :    0.041800
  22 C :   -0.030585
  23 H :    0.034938
  24 H :    0.033904
  25 C :   -0.049999
  26 H :    0.031173
  27 H :    0.023483
  28 C :   -0.071314
  29 H :    0.018941
  30 H :    0.031770
  31 H :    0.023845
  32 H :    0.030568
  33 H :    0.031299

  Mayer bond orders larger than 0.100000
B(  0-S ,  1-C ) :   1.1187 B(  0-S ,  4-C ) :   1.1213 B(  1-C ,  2-C ) :   1.6738
B(  1-C , 32-H ) :   0.9556 B(  2-C ,  3-C ) :   1.1834 B(  2-C ,  6-C ) :   1.0351
B(  3-C ,  4-C ) :   1.6182 B(  3-C ,  5-H ) :   0.9959 B(  4-C , 20-C ) :   1.0552
B(  6-C ,  7-H ) :   0.9374 B(  6-C ,  8-H ) :   0.9404 B(  6-C ,  9-C ) :   1.0399
B(  9-C , 10-H ) :   0.9668 B(  9-C , 11-H ) :   0.9580 B(  9-C , 12-C ) :   1.0773
B( 12-C , 13-H ) :   0.9762 B( 12-C , 14-H ) :   0.9758 B( 12-C , 15-H ) :   0.9773
B( 16-S , 17-C ) :   1.1323 B( 16-S , 20-C ) :   1.1345 B( 17-C , 18-C ) :   1.6257
B( 17-C , 33-H ) :   0.9615 B( 18-C , 19-C ) :   1.2441 B( 18-C , 21-H ) :   0.9767
B( 19-C , 20-C ) :   1.6015 B( 19-C , 22-C ) :   1.0273 B( 22-C , 23-H ) :   0.9236
B( 22-C , 24-H ) :   0.9360 B( 22-C , 25-C ) :   1.0855 B( 25-C , 26-H ) :   0.9545
B( 25-C , 27-H ) :   0.9524 B( 25-C , 28-C ) :   1.0725 B( 28-C , 29-H ) :   0.9758
B( 28-C , 30-H ) :   0.9723 B( 28-C , 31-H ) :   0.9733

Dispersion correction           -0.013487139
FINAL SINGLE POINT ENERGY     -1339.867500151263

DIPOLE MOMENT
-------------
                                X             Y             Z
Electronic contribution:     21.61328      20.25742      11.06665
Nuclear contribution   :    -22.04008     -20.69534     -11.45135
                        -----------------------------------------
Total Dipole Moment    :     -0.42680      -0.43792      -0.38470
                        -----------------------------------------
Magnitude (a.u.)       :      0.72245
Magnitude (Debye)      :      1.83631

Rotational constants in cm-1:     0.016004     0.008556     0.006220
Rotational constants in MHz :   479.780106   256.496457   186.467523

                             ****ORCA TERMINATED NORMALLY****
TOTAL RUN TIME: 0 days 0 hours 0 minutes 27 seconds 729 msec
