                         Program Version 4.2.1 -  RELEASE  -
|  1> ! wB97X-D3 SP def2-SVP
|  2> %pal
|  3> nprocs 16
|  4> end
|  5>
|  6> * xyz 0 1
|  7> S 	 6.19696 	 -13.6564 	 61.3185
|  8> C 	 6.98844 	 -12.9627 	 62.7107
|  9> C 	 7.54485 	 -13.9538 	 63.5336
| 10> C 	 7.3104 	 -15.2743 	 63.0058
| 11> C 	 6.44084 	 -15.2951 	 61.9377
| 12> H 	 7.63335 	 -16.1743 	 63.4161
| 13> C 	 8.2294 	 -13.5896 	 64.9089
| 14> H 	 8.13363 	 -14.5062 	 65.493
| 15> H 	 7.53053 	 -12.829 	 65.2644
| 16> C 	 9.62577 	 -13.0633 	 64.7482
| 17> H 	 9.67932 	 -12.2012 	 64.0992
| 18> H 	 9.94744 	 -12.7008 	 65.7382
| 19> C 	 10.6491 	 -14.0996 	 64.2657
| 20> H 	 10.4306 	 -14.615 	 63.2764
| 21> H 	 11.6112 	 -13.6905 	 64.2258
| 22> H 	 10.7886 	 -14.864 	 65.0161
| 23> S 	 7.2578 	 -17.6351 	 60.9112
| 24> C 	 6.10881 	 -18.7778 	 60.2299
| 25> C 	 4.80806 	 -18.3239 	 60.2519
| 26> C 	 4.73975 	 -16.9711 	 60.7776
| 27> C 	 6.00391 	 -16.513 	 61.2872
| 28> H 	 3.93164 	 -18.9207 	 59.9678
| 29> C 	 3.4909 	 -16.1753 	 60.9677
| 30> H 	 3.66377 	 -15.5577 	 61.8635
| 31> H 	 2.6823 	 -16.8768 	 61.1903
| 32> C 	 3.05113 	 -15.3558 	 59.7051
| 33> H 	 2.54585 	 -16.0312 	 58.993
| 34> H 	 3.87505 	 -14.8142 	 59.2548
| 35> C 	 2.18803 	 -14.2076 	 59.9658
| 36> H 	 1.54971 	 -14.3964 	 60.831
| 37> H 	 1.61457 	 -13.8515 	 59.1403
| 38> H 	 2.58215 	 -13.3079 	 60.3563
| 39> H 	 7.00971 	 -11.8805 	 62.9418
| 40> H 	 6.48832 	 -19.7782 	 59.9193
| 41> *
| 42>
| 43>                          ****END OF INPUT****

CARTESIAN COORDINATES (ANGSTROEM)
---------------------------------
  S      6.196960  -13.656400   61.318500
  C      6.988440  -12.962700   62.710700
  C      7.544850  -13.953800   63.533600
  C      7.310400  -15.274300   63.005800
  C      6.440840  -15.295100   61.937700
  H      7.633350  -16.174300   63.416100
  C      8.229400  -13.589600   64.908900
  H      8.133630  -14.506200   65.493000
  H      7.530530  -12.829000   65.264400
  C      9.625770  -13.063300   64.748200
  H      9.679320  -12.201200   64.099200
  H      9.947440  -12.700800   65.738200
  C     10.649100  -14.099600   64.265700
  H     10.430600  -14.615000   63.276400
  H     11.611200  -13.690500   64.225800
  H     10.788600  -14.864000   65.016100
  S      7.257800  -17.635100   60.911200
  C      6.108810  -18.777800   60.229900
  C      4.808060  -18.323900   60.251900
  C      4.739750  -16.971100   60.777600
  C      6.003910  -16.513000   61.287200
  H      3.931640  -18.920700   59.967800
  C      3.490900  -16.175300   60.967700
  H      3.663770  -15.557700   61.863500
  H      2.682300  -16.876800   61.190300
  C      3.051130  -15.355800   59.705100
  H      2.545850  -16.031200   58.993000
  H      3.875050  -14.814200   59.254800
  C      2.188030  -14.207600   59.965800
  H      1.549710  -14.396400   60.831000
  H      1.614570  -13.851500   59.140300
  H      2.582150  -13.307900   60.356300
  H      7.009710  -11.880500   62.941800
  H      6.488320  -19.778200   59.919300

 Total Charge           Charge          ....    0
 Multiplicity           Mult            ....    1
 Number of Electrons    NEL             ....  134
 Basis Dimension        Dim             ....  322

ORBITAL ENERGIES
----------------

  NO   OCC          E(Eh)            E(eV)
   0   2.0000     -88.968221     -2420.9484
   1   2.0000     -88.965070     -2420.8626
   2   2.0000     -10.329306      -281.0747
   3   2.0000     -10.325354      -280.9672
   4   2.0000     -10.320999      -280.8487
   5   2.0000     -10.316433      -280.7244
   6   2.0000     -10.307336      -280.4769
   7   2.0000     -10.305373      -280.4234
   8   2.0000     -10.300962      -280.3034
   9   2.0000     -10.296400      -280.1793
  10   2.0000     -10.291411      -280.0435
  11   2.0000     -10.290499      -280.0187
  12   2.0000     -10.287272      -279.9309
  13   2.0000     -10.280365      -279.7430
  14   2.0000     -10.274244      -279.5764
  15   2.0000     -10.259696      -279.1805
  16   2.0000      -8.082200      -219.9278
  17   2.0000      -8.080064      -219.8697
  18   2.0000      -6.040783      -164.3781
  19   2.0000      -6.038479      -164.3154
  20   2.0000      -6.036801      -164.2697
  21   2.0000      -6.034466      -164.2062
  22   2.0000      -6.032956      -164.1651
  23   2.0000      -6.030980      -164.1113
  24   2.0000      -1.004202       -27.3257
  25   2.0000      -0.979361       -26.6498
  26   2.0000      -0.910954       -24.7883
  27   2.0000      -0.909953       -24.7611
  28   2.0000      -0.871234       -23.7075
  29   2.0000      -0.855236       -23.2721
  30   2.0000      -0.844374       -22.9766
  31   2.0000      -0.814461       -22.1626
  32   2.0000      -0.784021       -21.3343
  33   2.0000      -0.764859       -20.8129
  34   2.0000      -0.702173       -19.1071
  35   2.0000      -0.701465       -19.0878
  36   2.0000      -0.690555       -18.7910
  37   2.0000      -0.663644       -18.0587
  38   2.0000      -0.640087       -17.4177
  39   2.0000      -0.608654       -16.5623
  40   2.0000      -0.592931       -16.1345
  41   2.0000      -0.571022       -15.5383
  42   2.0000      -0.564942       -15.3729
  43   2.0000      -0.551382       -15.0039
  44   2.0000      -0.538278       -14.6473
  45   2.0000      -0.527764       -14.3612
  46   2.0000      -0.523011       -14.2319
  47   2.0000      -0.514991       -14.0136
  48   2.0000      -0.506818       -13.7912
  49   2.0000      -0.495029       -13.4704
  50   2.0000      -0.483632       -13.1603
  51   2.0000      -0.483322       -13.1519
  52   2.0000      -0.471083       -12.8188
  53   2.0000      -0.463738       -12.6189
  54   2.0000      -0.459964       -12.5163
  55   2.0000      -0.445559       -12.1243
  56   2.0000      -0.442904       -12.0520
  57   2.0000      -0.436418       -11.8755
  58   2.0000      -0.432122       -11.7586
  59   2.0000      -0.429719       -11.6933
  60   2.0000      -0.424371       -11.5477
  61   2.0000      -0.408649       -11.1199
  62   2.0000      -0.397193       -10.8082
  63   2.0000      -0.347634        -9.4596
  64   2.0000      -0.333626        -9.0784
  65   2.0000      -0.323923        -8.8144
  66   2.0000      -0.288045        -7.8381
  67   0.0000       0.025376         0.6905
  68   0.0000       0.074377         2.0239
  69   0.0000       0.107439         2.9236
  70   0.0000       0.110406         3.0043
  71   0.0000       0.132381         3.6023

MULLIKEN ATOMIC CHARGES
-----------------------
   0 S :    0.117456
   1 C :   -0.141699
   2 C :   -0.112864
   3 C :    0.024378
   4 C :   -0.124844
   5 H :   -0.010223
   6 C :    0.082624
   7 H :    0.027684
   8 H :    0.034952
   9 C :   -0.045368
  10 H :    0.025140
  11 H :    0.026724
  12 C :   -0.049882
  13 H :    0.054938
  14 H :    0.018046
  15 H :    0.016240
  16 S :    0.108914
  17 C :   -0.115548
  18 C :   -0.014612
  19 C :   -0.048280
  20 C :   -0.171917
  21 H :    0.031122
  22 C :    0.037031
  23 H :    0.038801
  24 H :    0.023312
  25 C :   -0.042324
  26 H :    0.035074
  27 H :    0.029478
  28 C :   -0.024873
  29 H :    0.002285
  30 H :    0.025997
  31 H :    0.008037
  32 H :    0.061792
  33 H :    0.072410
Sum of atomic charges:    0.0000000

LOEWDIN ATOMIC CHARGES
----------------------
   0 S :    0.403416
   1 C :   -0.210263
   2 C :   -0.057818
   3 C :   -0.062170
   4 C :   -0.192902
   5 H :    0.016953
   6 C :   -0.024845
   7 H :    0.030541
   8 H :    0.035448
   9 C :   -0.040625
  10 H :    0.022830
  11 H :    0.026922
  12 C :   -0.067227
  13 H :    0.036002
  14 H :    0.019270
  15 H :    0.021753
  16 S :    0.422956
  17 C :   -0.189180
  18 C :   -0.071988
  19 C :   -0.049920
  20 C :   -0.211276
  21 H :    0.038647
  22 C :   -0.036293
  23 H :    0.033856
  24 H :    0.032069
  25 C :   -0.042426
  26 H :    0.029350
  27 H :    0.026096
  28 C :   -0.071981
  29 H :    0.021429
  30 H :    0.025046
  31 H :    0.019107
  32 H :    0.033687
  33 H :    0.033535

  Mayer bond orders larger than 0.100000
B(  0-S ,  1-C ) :   1.1408 B(  0-S ,  4-C ) :   1.1375 B(  1-C ,  2-C ) :   1.6080
B(  1-C , 32-H ) :   0.9624 B(  2-C ,  3-C ) :   1.2439 B(  2-C ,  6-C ) :   0.9891
B(  3-C ,  4-C ) :   1.5487 B(  3-C ,  5-H ) :   1.0067 B(  4-C , 20-C ) :   1.0614
B(  6-C ,  7-H ) :   0.9466 B(  6-C ,  8-H ) :   0.9421 B(  6-C ,  9-C ) :   1.0789
B(  9-C , 10-H ) :   0.9554 B(  9-C , 11-H ) :   0.9506 B(  9-C , 12-C ) :   1.0800
B( 12-C , 13-H ) :   0.9740 B( 12-C , 14-H ) :   0.9712 B( 12-C , 15-H ) :   0.9727
B( 16-S , 17-C ) :   1.1645 B( 16-S , 20-C ) :   1.1556 B( 17-C , 18-C ) :   1.5843
B( 17-C , 33-H ) :   0.9633 B( 18-C , 19-C ) :   1.2530 B( 18-C , 21-H ) :   0.9881
B( 19-C , 20-C ) :   1.5434 B( 19-C , 22-C ) :   1.0635 B( 22-C , 23-H ) :   0.9420
B( 22-C , 24-H ) :   0.9270 B( 22-C , 25-C ) :   1.0541 B( 25-C , 26-H ) :   0.9531
B( 25-C , 27-H ) :   0.9599 B( 25-C , 28-C ) :   1.0857 B( 28-C , 29-H ) :   0.9628
B( 28-C , 30-H ) :   0.9702 B( 28-C , 31-H ) :   0.9695

Dispersion correction           -0.014569920
FINAL SINGLE POINT ENERGY     -1339.872998871536

DIPOLE MOMENT
-------------
                                X             Y             Z
Electronic contribution:      2.48055      -9.08199      -7.60551
Nuclear contribution   :     -2.52427       9.11789       7.96786
                        -----------------------------------------
Total Dipole Moment    :     -0.04372       0.03590       0.36234
                        -----------------------------------------
Magnitude (a.u.)       :      0.36673
Magnitude (Debye)      :      0.93216

Rotational constants in cm-1:     0.021091     0.008501     0.006463
Rotational constants in MHz :   632.300136   254.858348   193.768831

                             ****ORCA TERMINATED NORMALLY****
TOTAL RUN TIME: 0 days 0 hours 0 minutes 27 seconds 997 msec
