                         Program Version 4.2.1 -  RELEASE  -
|  1> ! wB97X-D3 SP def2-SVP
|  2> %pal
|  3> nprocs 16
|  4> end
|  5>
|  6> * xyz 0 1
|  7> S 	 -41.5617 	 33.6516 	 88.1145
|  8> C 	 -43.2049 	 33.55 	 88.4716
|  9> C 	 -43.7018 	 32.2685 	 88.4977
| 10> C 	 -42.7354 	 31.2842 	 88.189
| 11> C 	 -41.5338 	 31.8937 	 87.8688
| 12> H 	 -42.9329 	 30.2218 	 88.0323
| 13> C 	 -45.1573 	 31.9225 	 88.8293
| 14> H 	 -45.3815 	 32.0893 	 89.8973
| 15> H 	 -45.2747 	 30.8751 	 88.6551
| 16> C 	 -46.2506 	 32.7553 	 88.0575
| 17> H 	 -47.2426 	 32.579 	 88.5563
| 18> H 	 -46.1015 	 33.7547 	 88.3103
| 19> C 	 -46.3747 	 32.4727 	 86.5371
| 20> H 	 -45.4122 	 32.6506 	 86.0759
| 21> H 	 -46.651 	 31.4791 	 86.25
| 22> H 	 -47.0689 	 33.0915 	 86.0428
| 23> S 	 -40.1747 	 31.8166 	 85.4759
| 24> C 	 -39.1592 	 30.483 	 85.1162
| 25> C 	 -38.8264 	 29.7967 	 86.2674
| 26> C 	 -39.5189 	 30.2072 	 87.4352
| 27> C 	 -40.3597 	 31.3225 	 87.1755
| 28> H 	 -38.0972 	 28.9264 	 86.227
| 29> C 	 -39.4066 	 29.4161 	 88.7301
| 30> H 	 -39.8468 	 30.0759 	 89.5438
| 31> H 	 -38.3496 	 29.3518 	 88.9531
| 32> C 	 -39.9899 	 27.9342 	 88.749
| 33> H 	 -39.6815 	 27.2931 	 89.6196
| 34> H 	 -39.6705 	 27.426 	 87.8835
| 35> C 	 -41.4356 	 27.9986 	 88.7191
| 36> H 	 -41.907 	 28.3151 	 87.791
| 37> H 	 -41.7953 	 28.635 	 89.4673
| 38> H 	 -42.0094 	 27.0611 	 88.91
| 39> H 	 -43.8861 	 34.3976 	 88.7226
| 40> H 	 -38.7975 	 30.2228 	 84.1555
| 41> *
| 42>
| 43>                          ****END OF INPUT****

CARTESIAN COORDINATES (ANGSTROEM)
---------------------------------
  S    -41.561700   33.651600   88.114500
  C    -43.204900   33.550000   88.471600
  C    -43.701800   32.268500   88.497700
  C    -42.735400   31.284200   88.189000
  C    -41.533800   31.893700   87.868800
  H    -42.932900   30.221800   88.032300
  C    -45.157300   31.922500   88.829300
  H    -45.381500   32.089300   89.897300
  H    -45.274700   30.875100   88.655100
  C    -46.250600   32.755300   88.057500
  H    -47.242600   32.579000   88.556300
  H    -46.101500   33.754700   88.310300
  C    -46.374700   32.472700   86.537100
  H    -45.412200   32.650600   86.075900
  H    -46.651000   31.479100   86.250000
  H    -47.068900   33.091500   86.042800
  S    -40.174700   31.816600   85.475900
  C    -39.159200   30.483000   85.116200
  C    -38.826400   29.796700   86.267400
  C    -39.518900   30.207200   87.435200
  C    -40.359700   31.322500   87.175500
  H    -38.097200   28.926400   86.227000
  C    -39.406600   29.416100   88.730100
  H    -39.846800   30.075900   89.543800
  H    -38.349600   29.351800   88.953100
  C    -39.989900   27.934200   88.749000
  H    -39.681500   27.293100   89.619600
  H    -39.670500   27.426000   87.883500
  C    -41.435600   27.998600   88.719100
  H    -41.907000   28.315100   87.791000
  H    -41.795300   28.635000   89.467300
  H    -42.009400   27.061100   88.910000
  H    -43.886100   34.397600   88.722600
  H    -38.797500   30.222800   84.155500

 Total Charge           Charge          ....    0
 Multiplicity           Mult            ....    1
 Number of Electrons    NEL             ....  134
 Basis Dimension        Dim             ....  322

ORBITAL ENERGIES
----------------

  NO   OCC          E(Eh)            E(eV)
   0   2.0000     -88.967989     -2420.9420
   1   2.0000     -88.964292     -2420.8415
   2   2.0000     -10.330914      -281.1185
   3   2.0000     -10.329671      -281.0846
   4   2.0000     -10.314153      -280.6624
   5   2.0000     -10.307857      -280.4911
   6   2.0000     -10.307836      -280.4905
   7   2.0000     -10.298342      -280.2321
   8   2.0000     -10.295939      -280.1667
   9   2.0000     -10.295286      -280.1490
  10   2.0000     -10.294807      -280.1359
  11   2.0000     -10.291985      -280.0591
  12   2.0000     -10.288723      -279.9704
  13   2.0000     -10.287632      -279.9407
  14   2.0000     -10.269288      -279.4415
  15   2.0000     -10.266875      -279.3759
  16   2.0000      -8.083451      -219.9619
  17   2.0000      -8.079270      -219.8481
  18   2.0000      -6.041758      -164.4046
  19   2.0000      -6.037928      -164.3004
  20   2.0000      -6.037685      -164.2938
  21   2.0000      -6.034319      -164.2022
  22   2.0000      -6.033647      -164.1839
  23   2.0000      -6.030180      -164.0895
  24   2.0000      -1.007118       -27.4051
  25   2.0000      -0.986335       -26.8395
  26   2.0000      -0.912487       -24.8300
  27   2.0000      -0.902715       -24.5641
  28   2.0000      -0.863386       -23.4939
  29   2.0000      -0.855205       -23.2713
  30   2.0000      -0.852076       -23.1862
  31   2.0000      -0.810685       -22.0599
  32   2.0000      -0.782206       -21.2849
  33   2.0000      -0.769343       -20.9349
  34   2.0000      -0.709659       -19.3108
  35   2.0000      -0.708243       -19.2723
  36   2.0000      -0.694040       -18.8858
  37   2.0000      -0.653988       -17.7959
  38   2.0000      -0.636264       -17.3136
  39   2.0000      -0.612655       -16.6712
  40   2.0000      -0.595729       -16.2106
  41   2.0000      -0.568438       -15.4680
  42   2.0000      -0.552201       -15.0262
  43   2.0000      -0.549627       -14.9561
  44   2.0000      -0.546945       -14.8831
  45   2.0000      -0.530677       -14.4405
  46   2.0000      -0.519802       -14.1445
  47   2.0000      -0.510134       -13.8815
  48   2.0000      -0.498215       -13.5571
  49   2.0000      -0.495009       -13.4699
  50   2.0000      -0.485402       -13.2085
  51   2.0000      -0.480847       -13.0845
  52   2.0000      -0.469533       -12.7766
  53   2.0000      -0.467862       -12.7312
  54   2.0000      -0.460576       -12.5329
  55   2.0000      -0.447786       -12.1849
  56   2.0000      -0.442062       -12.0291
  57   2.0000      -0.436764       -11.8850
  58   2.0000      -0.429884       -11.6977
  59   2.0000      -0.427293       -11.6272
  60   2.0000      -0.424255       -11.5446
  61   2.0000      -0.417764       -11.3679
  62   2.0000      -0.413129       -11.2418
  63   2.0000      -0.347265        -9.4496
  64   2.0000      -0.329132        -8.9561
  65   2.0000      -0.325753        -8.8642
  66   2.0000      -0.292639        -7.9631
  67   0.0000       0.035434         0.9642
  68   0.0000       0.058159         1.5826
  69   0.0000       0.116348         3.1660
  70   0.0000       0.125278         3.4090
  71   0.0000       0.130278         3.5451

MULLIKEN ATOMIC CHARGES
-----------------------
   0 S :    0.129265
   1 C :   -0.124021
   2 C :   -0.116035
   3 C :    0.062464
   4 C :   -0.181269
   5 H :    0.008249
   6 C :    0.074657
   7 H :    0.042460
   8 H :    0.007095
   9 C :   -0.073883
  10 H :    0.023819
  11 H :    0.006928
  12 C :   -0.010890
  13 H :    0.032468
  14 H :    0.020205
  15 H :    0.021070
  16 S :    0.113599
  17 C :   -0.080241
  18 C :   -0.061326
  19 C :   -0.033847
  20 C :   -0.157550
  21 H :    0.039884
  22 C :    0.032651
  23 H :    0.043084
  24 H :    0.030668
  25 C :   -0.024912
  26 H :    0.042130
  27 H :    0.014991
  28 C :   -0.056704
  29 H :    0.040440
  30 H :    0.011409
  31 H :    0.023075
  32 H :    0.055199
  33 H :    0.044868
Sum of atomic charges:    0.0000000

LOEWDIN ATOMIC CHARGES
----------------------
   0 S :    0.427714
   1 C :   -0.225210
   2 C :   -0.073636
   3 C :   -0.054748
   4 C :   -0.188738
   5 H :    0.036647
   6 C :   -0.026845
   7 H :    0.036959
   8 H :    0.021222
   9 C :   -0.035418
  10 H :    0.027578
  11 H :    0.010733
  12 C :   -0.061105
  13 H :    0.027771
  14 H :    0.022481
  15 H :    0.020862
  16 S :    0.415904
  17 C :   -0.189107
  18 C :   -0.083797
  19 C :   -0.056862
  20 C :   -0.203269
  21 H :    0.039740
  22 C :   -0.030275
  23 H :    0.038537
  24 H :    0.031017
  25 C :   -0.036663
  26 H :    0.035721
  27 H :    0.018009
  28 C :   -0.070845
  29 H :    0.022961
  30 H :    0.014924
  31 H :    0.029011
  32 H :    0.034892
  33 H :    0.023835

  Mayer bond orders larger than 0.100000
B(  0-S ,  1-C ) :   1.1498 B(  0-S ,  4-C ) :   1.1655 B(  1-C ,  2-C ) :   1.6121
B(  1-C , 32-H ) :   0.9576 B(  2-C ,  3-C ) :   1.2601 B(  2-C ,  6-C ) :   1.0126
B(  3-C ,  4-C ) :   1.5675 B(  3-C ,  5-H ) :   0.9853 B(  4-C , 20-C ) :   0.9999
B(  6-C ,  7-H ) :   0.9385 B(  6-C ,  8-H ) :   0.9455 B(  6-C ,  9-C ) :   1.0741
B(  9-C , 10-H ) :   0.9550 B(  9-C , 11-H ) :   0.9565 B(  9-C , 12-C ) :   1.0685
B( 12-C , 13-H ) :   0.9760 B( 12-C , 14-H ) :   0.9758 B( 12-C , 15-H ) :   0.9746
B( 16-S , 17-C ) :   1.1750 B( 16-S , 20-C ) :   1.1464 B( 17-C , 18-C ) :   1.5848
B( 17-C , 33-H ) :   0.9725 B( 18-C , 19-C ) :   1.2619 B( 18-C , 21-H ) :   0.9786
B( 19-C , 20-C ) :   1.5707 B( 19-C , 22-C ) :   1.0413 B( 22-C , 23-H ) :   0.9444
B( 22-C , 24-H ) :   0.9335 B( 22-C , 25-C ) :   1.0552 B( 25-C , 26-H ) :   0.9541
B( 25-C , 27-H ) :   0.9535 B( 25-C , 28-C ) :   1.0906 B( 28-C , 29-H ) :   0.9651
B( 28-C , 30-H ) :   0.9691 B( 28-C , 31-H ) :   0.9626

Dispersion correction           -0.015216323
FINAL SINGLE POINT ENERGY     -1339.873122920907

DIPOLE MOMENT
-------------
                                X             Y             Z
Electronic contribution:     17.21384      14.79479      -7.10650
Nuclear contribution   :    -17.49981     -15.32830       7.18166
                        -----------------------------------------
Total Dipole Moment    :     -0.28596      -0.53352       0.07516
                        -----------------------------------------
Magnitude (a.u.)       :      0.60997
Magnitude (Debye)      :      1.55042

Rotational constants in cm-1:     0.019882     0.008645     0.007412
Rotational constants in MHz :   596.042142   259.185059   222.215543

                             ****ORCA TERMINATED NORMALLY****
TOTAL RUN TIME: 0 days 0 hours 0 minutes 31 seconds 87 msec
