                         Program Version 4.2.1 -  RELEASE  -
|  1> ! wB97X-D3 SP def2-SVP
|  2> %pal
|  3> nprocs 16
|  4> end
|  5>
|  6> * xyz 0 1
|  7> S 	 12.5678 	 -4.93008 	 89.5224
|  8> C 	 11.9611 	 -5.94436 	 90.8479
|  9> C 	 11.5265 	 -7.20733 	 90.4076
| 10> C 	 11.92 	 -7.45612 	 89.0541
| 11> C 	 12.43 	 -6.32219 	 88.4188
| 12> H 	 11.6714 	 -8.33026 	 88.4736
| 13> C 	 10.9235 	 -8.26022 	 91.2395
| 14> H 	 11.7324 	 -8.71331 	 91.85
| 15> H 	 10.5903 	 -9.01958 	 90.5188
| 16> C 	 9.74117 	 -7.77041 	 92.05
| 17> H 	 10.1565 	 -7.03575 	 92.6913
| 18> H 	 9.00264 	 -7.23425 	 91.2955
| 19> C 	 9.08276 	 -8.85872 	 92.8467
| 20> H 	 8.68368 	 -9.66421 	 92.2369
| 21> H 	 9.779 	 -9.29149 	 93.6185
| 22> H 	 8.17164 	 -8.43383 	 93.2906
| 23> S 	 14.3563 	 -5.52113 	 86.5264
| 24> C 	 13.8337 	 -5.57963 	 84.8347
| 25> C 	 12.5242 	 -5.97361 	 84.6663
| 26> C 	 11.9815 	 -6.44672 	 85.89
| 27> C 	 12.7281 	 -6.14737 	 86.9987
| 28> H 	 12.0267 	 -6.03723 	 83.7481
| 29> C 	 10.5037 	 -6.9353 	 85.8876
| 30> H 	 10.3459 	 -7.8334 	 86.3003
| 31> H 	 10.4219 	 -7.07963 	 84.859
| 32> C 	 9.47886 	 -5.90105 	 86.3929
| 33> H 	 9.88107 	 -4.88036 	 86.2576
| 34> H 	 9.24574 	 -6.08791 	 87.4704
| 35> C 	 8.16238 	 -5.95511 	 85.6127
| 36> H 	 7.42023 	 -5.63262 	 86.3767
| 37> H 	 7.9749 	 -6.9543 	 85.2596
| 38> H 	 8.0623 	 -5.33195 	 84.7143
| 39> H 	 11.7713 	 -5.5795 	 91.8326
| 40> H 	 14.4641 	 -5.34031 	 84.0158
| 41> *
| 42>
| 43>                          ****END OF INPUT****

CARTESIAN COORDINATES (ANGSTROEM)
---------------------------------
  S     12.567800   -4.930080   89.522400
  C     11.961100   -5.944360   90.847900
  C     11.526500   -7.207330   90.407600
  C     11.920000   -7.456120   89.054100
  C     12.430000   -6.322190   88.418800
  H     11.671400   -8.330260   88.473600
  C     10.923500   -8.260220   91.239500
  H     11.732400   -8.713310   91.850000
  H     10.590300   -9.019580   90.518800
  C      9.741170   -7.770410   92.050000
  H     10.156500   -7.035750   92.691300
  H      9.002640   -7.234250   91.295500
  C      9.082760   -8.858720   92.846700
  H      8.683680   -9.664210   92.236900
  H      9.779000   -9.291490   93.618500
  H      8.171640   -8.433830   93.290600
  S     14.356300   -5.521130   86.526400
  C     13.833700   -5.579630   84.834700
  C     12.524200   -5.973610   84.666300
  C     11.981500   -6.446720   85.890000
  C     12.728100   -6.147370   86.998700
  H     12.026700   -6.037230   83.748100
  C     10.503700   -6.935300   85.887600
  H     10.345900   -7.833400   86.300300
  H     10.421900   -7.079630   84.859000
  C      9.478860   -5.901050   86.392900
  H      9.881070   -4.880360   86.257600
  H      9.245740   -6.087910   87.470400
  C      8.162380   -5.955110   85.612700
  H      7.420230   -5.632620   86.376700
  H      7.974900   -6.954300   85.259600
  H      8.062300   -5.331950   84.714300
  H     11.771300   -5.579500   91.832600
  H     14.464100   -5.340310   84.015800

 Total Charge           Charge          ....    0
 Multiplicity           Mult            ....    1
 Number of Electrons    NEL             ....  134
 Basis Dimension        Dim             ....  322

ORBITAL ENERGIES
----------------

  NO   OCC          E(Eh)            E(eV)
   0   2.0000     -88.967775     -2420.9362
   1   2.0000     -88.965805     -2420.8826
   2   2.0000     -10.331488      -281.1341
   3   2.0000     -10.325323      -280.9663
   4   2.0000     -10.318069      -280.7689
   5   2.0000     -10.313142      -280.6349
   6   2.0000     -10.300562      -280.2925
   7   2.0000     -10.299342      -280.2594
   8   2.0000     -10.293801      -280.1086
   9   2.0000     -10.291344      -280.0417
  10   2.0000     -10.290379      -280.0154
  11   2.0000     -10.288497      -279.9642
  12   2.0000     -10.286268      -279.9036
  13   2.0000     -10.282519      -279.8016
  14   2.0000     -10.278425      -279.6902
  15   2.0000     -10.276328      -279.6331
  16   2.0000      -8.081361      -219.9050
  17   2.0000      -8.079455      -219.8532
  18   2.0000      -6.039901      -164.3541
  19   2.0000      -6.038010      -164.3026
  20   2.0000      -6.036108      -164.2508
  21   2.0000      -6.034257      -164.2005
  22   2.0000      -6.032089      -164.1415
  23   2.0000      -6.030092      -164.0871
  24   2.0000      -0.998510       -27.1708
  25   2.0000      -0.977502       -26.5992
  26   2.0000      -0.918919       -25.0051
  27   2.0000      -0.906868       -24.6771
  28   2.0000      -0.865737       -23.5579
  29   2.0000      -0.851691       -23.1757
  30   2.0000      -0.848073       -23.0772
  31   2.0000      -0.811891       -22.0927
  32   2.0000      -0.784198       -21.3391
  33   2.0000      -0.768908       -20.9231
  34   2.0000      -0.709330       -19.3018
  35   2.0000      -0.699656       -19.0386
  36   2.0000      -0.687780       -18.7154
  37   2.0000      -0.668008       -18.1774
  38   2.0000      -0.638621       -17.3778
  39   2.0000      -0.612737       -16.6734
  40   2.0000      -0.600045       -16.3281
  41   2.0000      -0.573715       -15.6116
  42   2.0000      -0.566326       -15.4105
  43   2.0000      -0.558655       -15.2018
  44   2.0000      -0.528281       -14.3753
  45   2.0000      -0.524053       -14.2602
  46   2.0000      -0.520547       -14.1648
  47   2.0000      -0.516163       -14.0455
  48   2.0000      -0.503680       -13.7058
  49   2.0000      -0.492971       -13.4144
  50   2.0000      -0.486611       -13.2414
  51   2.0000      -0.480940       -13.0871
  52   2.0000      -0.472588       -12.8598
  53   2.0000      -0.463571       -12.6144
  54   2.0000      -0.458307       -12.4712
  55   2.0000      -0.450048       -12.2464
  56   2.0000      -0.447803       -12.1853
  57   2.0000      -0.433658       -11.8004
  58   2.0000      -0.430148       -11.7049
  59   2.0000      -0.426385       -11.6025
  60   2.0000      -0.420527       -11.4431
  61   2.0000      -0.416772       -11.3409
  62   2.0000      -0.408272       -11.1096
  63   2.0000      -0.341851        -9.3022
  64   2.0000      -0.333392        -9.0721
  65   2.0000      -0.330100        -8.9825
  66   2.0000      -0.288012        -7.8372
  67   0.0000       0.027721         0.7543
  68   0.0000       0.063216         1.7202
  69   0.0000       0.104734         2.8500
  70   0.0000       0.117203         3.1893
  71   0.0000       0.128451         3.4953

MULLIKEN ATOMIC CHARGES
-----------------------
   0 S :    0.109546
   1 C :   -0.112374
   2 C :   -0.113055
   3 C :    0.042259
   4 C :   -0.150529
   5 H :    0.011751
   6 C :    0.065644
   7 H :    0.051724
   8 H :    0.011412
   9 C :   -0.122548
  10 H :    0.022418
  11 H :    0.049405
  12 C :   -0.022847
  13 H :    0.025597
  14 H :    0.042794
  15 H :    0.034239
  16 S :    0.099784
  17 C :   -0.071793
  18 C :   -0.009006
  19 C :   -0.077724
  20 C :   -0.155489
  21 H :    0.004244
  22 C :    0.156297
  23 H :   -0.007728
  24 H :   -0.014611
  25 C :   -0.078922
  26 H :    0.042199
  27 H :    0.047362
  28 C :   -0.065432
  29 H :    0.038235
  30 H :    0.023216
  31 H :    0.037727
  32 H :    0.040542
  33 H :    0.045665
Sum of atomic charges:   -0.0000000

LOEWDIN ATOMIC CHARGES
----------------------
   0 S :    0.388305
   1 C :   -0.193780
   2 C :   -0.059596
   3 C :   -0.062554
   4 C :   -0.177363
   5 H :    0.030774
   6 C :   -0.040145
   7 H :    0.040204
   8 H :    0.027722
   9 C :   -0.046425
  10 H :    0.016513
  11 H :    0.039054
  12 C :   -0.069542
  13 H :    0.023600
  14 H :    0.033588
  15 H :    0.030008
  16 S :    0.372129
  17 C :   -0.161189
  18 C :   -0.066099
  19 C :   -0.047693
  20 C :   -0.188215
  21 H :    0.024559
  22 C :   -0.015693
  23 H :    0.010217
  24 H :    0.020550
  25 C :   -0.038064
  26 H :    0.030561
  27 H :    0.031792
  28 C :   -0.069668
  29 H :    0.033094
  30 H :    0.018093
  31 H :    0.025439
  32 H :    0.018271
  33 H :    0.021551

  Mayer bond orders larger than 0.100000
B(  0-S ,  1-C ) :   1.1270 B(  0-S ,  4-C ) :   1.1541 B(  1-C ,  2-C ) :   1.5968
B(  1-C ,  4-C ) :   0.1005 B(  1-C , 32-H ) :   0.9711 B(  2-C ,  3-C ) :   1.2390
B(  2-C ,  6-C ) :   1.0302 B(  3-C ,  4-C ) :   1.5793 B(  3-C ,  5-H ) :   0.9894
B(  4-C , 20-C ) :   1.0442 B(  6-C ,  7-H ) :   0.9290 B(  6-C ,  8-H ) :   0.9383
B(  6-C ,  9-C ) :   1.0585 B(  9-C , 10-H ) :   0.9513 B(  9-C , 11-H ) :   0.9556
B(  9-C , 12-C ) :   1.0940 B( 12-C , 13-H ) :   0.9720 B( 12-C , 14-H ) :   0.9686
B( 12-C , 15-H ) :   0.9709 B( 16-S , 17-C ) :   1.1506 B( 16-S , 20-C ) :   1.1132
B( 17-C , 18-C ) :   1.6186 B( 17-C , 33-H ) :   0.9691 B( 18-C , 19-C ) :   1.2350
B( 18-C , 21-H ) :   0.9913 B( 19-C , 20-C ) :   1.6250 B( 19-C , 22-C ) :   1.0353
B( 22-C , 23-H ) :   0.9230 B( 22-C , 24-H ) :   0.9308 B( 22-C , 25-C ) :   1.0571
B( 25-C , 26-H ) :   0.9611 B( 25-C , 27-H ) :   0.9605 B( 25-C , 28-C ) :   1.0696
B( 28-C , 29-H ) :   0.9777 B( 28-C , 30-H ) :   0.9787 B( 28-C , 31-H ) :   0.9765

Dispersion correction           -0.014328622
FINAL SINGLE POINT ENERGY     -1339.864850823009

DIPOLE MOMENT
-------------
                                X             Y             Z
Electronic contribution:     26.81814      12.12612      -6.85176
Nuclear contribution   :    -27.45777     -12.52430       6.76184
                        -----------------------------------------
Total Dipole Moment    :     -0.63963      -0.39818      -0.08992
                        -----------------------------------------
Magnitude (a.u.)       :      0.75879
Magnitude (Debye)      :      1.92869

Rotational constants in cm-1:     0.019682     0.008272     0.006534
Rotational constants in MHz :   590.060131   247.981744   195.874181

                             ****ORCA TERMINATED NORMALLY****
TOTAL RUN TIME: 0 days 0 hours 0 minutes 34 seconds 836 msec
