                         Program Version 4.2.1 -  RELEASE  -
|  1> ! wB97X-D3 SP def2-SVP
|  2> %pal
|  3> nprocs 16
|  4> end
|  5>
|  6> * xyz 0 1
|  7> S 	 25.4058 	 5.3108 	 75.4636
|  8> C 	 26.7319 	 4.96491 	 74.3488
|  9> C 	 27.9551 	 5.05402 	 74.9688
| 10> C 	 27.8212 	 5.53605 	 76.3017
| 11> C 	 26.5533 	 5.68824 	 76.7564
| 12> H 	 28.6156 	 5.81161 	 76.9566
| 13> C 	 29.3276 	 4.87641 	 74.2876
| 14> H 	 29.5443 	 5.86927 	 73.9013
| 15> H 	 29.2007 	 4.28506 	 73.3622
| 16> C 	 30.578 	 4.23048 	 74.9269
| 17> H 	 31.3517 	 4.42559 	 74.2344
| 18> H 	 30.8232 	 4.88929 	 75.7891
| 19> C 	 30.5456 	 2.79935 	 75.3734
| 20> H 	 31.4533 	 2.15451 	 75.4328
| 21> H 	 30.1457 	 2.83509 	 76.3879
| 22> H 	 29.8883 	 2.17656 	 74.8423
| 23> S 	 24.4881 	 5.64677 	 78.5905
| 24> C 	 24.7099 	 6.28654 	 80.1749
| 25> C 	 25.9261 	 6.93585 	 80.3421
| 26> C 	 26.7811 	 6.76337 	 79.1597
| 27> C 	 26.1253 	 6.13307 	 78.1134
| 28> H 	 26.147 	 7.56217 	 81.2343
| 29> C 	 28.2831 	 7.23816 	 79.1572
| 30> H 	 28.657 	 7.38193 	 78.16
| 31> H 	 28.8386 	 6.44612 	 79.6185
| 32> C 	 28.601 	 8.63196 	 79.8419
| 33> H 	 28.4441 	 8.48747 	 80.9467
| 34> H 	 27.9525 	 9.40825 	 79.6135
| 35> C 	 29.9899 	 9.09199 	 79.5159
| 36> H 	 29.8776 	 9.45106 	 78.4988
| 37> H 	 30.6517 	 8.17252 	 79.5007
| 38> H 	 30.3079 	 9.83577 	 80.1586
| 39> H 	 26.6664 	 4.70177 	 73.3245
| 40> H 	 23.9832 	 6.48606 	 80.9493
| 41> *
| 42>
| 43>                          ****END OF INPUT****

CARTESIAN COORDINATES (ANGSTROEM)
---------------------------------
  S     25.405800    5.310800   75.463600
  C     26.731900    4.964910   74.348800
  C     27.955100    5.054020   74.968800
  C     27.821200    5.536050   76.301700
  C     26.553300    5.688240   76.756400
  H     28.615600    5.811610   76.956600
  C     29.327600    4.876410   74.287600
  H     29.544300    5.869270   73.901300
  H     29.200700    4.285060   73.362200
  C     30.578000    4.230480   74.926900
  H     31.351700    4.425590   74.234400
  H     30.823200    4.889290   75.789100
  C     30.545600    2.799350   75.373400
  H     31.453300    2.154510   75.432800
  H     30.145700    2.835090   76.387900
  H     29.888300    2.176560   74.842300
  S     24.488100    5.646770   78.590500
  C     24.709900    6.286540   80.174900
  C     25.926100    6.935850   80.342100
  C     26.781100    6.763370   79.159700
  C     26.125300    6.133070   78.113400
  H     26.147000    7.562170   81.234300
  C     28.283100    7.238160   79.157200
  H     28.657000    7.381930   78.160000
  H     28.838600    6.446120   79.618500
  C     28.601000    8.631960   79.841900
  H     28.444100    8.487470   80.946700
  H     27.952500    9.408250   79.613500
  C     29.989900    9.091990   79.515900
  H     29.877600    9.451060   78.498800
  H     30.651700    8.172520   79.500700
  H     30.307900    9.835770   80.158600
  H     26.666400    4.701770   73.324500
  H     23.983200    6.486060   80.949300

 Total Charge           Charge          ....    0
 Multiplicity           Mult            ....    1
 Number of Electrons    NEL             ....  134
 Basis Dimension        Dim             ....  322

ORBITAL ENERGIES
----------------

  NO   OCC          E(Eh)            E(eV)
   0   2.0000     -88.967870     -2420.9388
   1   2.0000     -88.966823     -2420.9103
   2   2.0000     -10.333702      -281.1943
   3   2.0000     -10.332126      -281.1514
   4   2.0000     -10.316048      -280.7139
   5   2.0000     -10.312793      -280.6254
   6   2.0000     -10.312131      -280.6073
   7   2.0000     -10.302470      -280.3445
   8   2.0000     -10.301221      -280.3105
   9   2.0000     -10.299552      -280.2650
  10   2.0000     -10.297872      -280.2194
  11   2.0000     -10.289404      -279.9889
  12   2.0000     -10.286633      -279.9135
  13   2.0000     -10.285804      -279.8910
  14   2.0000     -10.277874      -279.6752
  15   2.0000     -10.274296      -279.5778
  16   2.0000      -8.082536      -219.9370
  17   2.0000      -8.080912      -219.8928
  18   2.0000      -6.041221      -164.3900
  19   2.0000      -6.039683      -164.3481
  20   2.0000      -6.037089      -164.2775
  21   2.0000      -6.035607      -164.2372
  22   2.0000      -6.033095      -164.1689
  23   2.0000      -6.031336      -164.1210
  24   2.0000      -1.004283       -27.3279
  25   2.0000      -0.982325       -26.7304
  26   2.0000      -0.910786       -24.7838
  27   2.0000      -0.909578       -24.7509
  28   2.0000      -0.870035       -23.6749
  29   2.0000      -0.856038       -23.2940
  30   2.0000      -0.843251       -22.9460
  31   2.0000      -0.818060       -22.2605
  32   2.0000      -0.786931       -21.4135
  33   2.0000      -0.776759       -21.1367
  34   2.0000      -0.709458       -19.3053
  35   2.0000      -0.701093       -19.0777
  36   2.0000      -0.696275       -18.9466
  37   2.0000      -0.655048       -17.8248
  38   2.0000      -0.639030       -17.3889
  39   2.0000      -0.624641       -16.9973
  40   2.0000      -0.595105       -16.1936
  41   2.0000      -0.572743       -15.5851
  42   2.0000      -0.565714       -15.3939
  43   2.0000      -0.552641       -15.0381
  44   2.0000      -0.541876       -14.7452
  45   2.0000      -0.534578       -14.5466
  46   2.0000      -0.519483       -14.1358
  47   2.0000      -0.511504       -13.9187
  48   2.0000      -0.503677       -13.7057
  49   2.0000      -0.494125       -13.4458
  50   2.0000      -0.491560       -13.3760
  51   2.0000      -0.484757       -13.1909
  52   2.0000      -0.471506       -12.8303
  53   2.0000      -0.466817       -12.7027
  54   2.0000      -0.463015       -12.5993
  55   2.0000      -0.456236       -12.4148
  56   2.0000      -0.449207       -12.2236
  57   2.0000      -0.442858       -12.0508
  58   2.0000      -0.433215       -11.7884
  59   2.0000      -0.423889       -11.5346
  60   2.0000      -0.416267       -11.3272
  61   2.0000      -0.409580       -11.1452
  62   2.0000      -0.407587       -11.0910
  63   2.0000      -0.361017        -9.8238
  64   2.0000      -0.334418        -9.1000
  65   2.0000      -0.328171        -8.9300
  66   2.0000      -0.286949        -7.8083
  67   0.0000       0.026166         0.7120
  68   0.0000       0.078863         2.1460
  69   0.0000       0.102938         2.8011
  70   0.0000       0.117997         3.2109
  71   0.0000       0.136907         3.7254

MULLIKEN ATOMIC CHARGES
-----------------------
   0 S :    0.099621
   1 C :   -0.106660
   2 C :   -0.046345
   3 C :   -0.020849
   4 C :   -0.088476
   5 H :   -0.015246
   6 C :    0.014435
   7 H :    0.044178
   8 H :    0.017677
   9 C :   -0.043016
  10 H :    0.019959
  11 H :    0.024438
  12 C :   -0.032392
  13 H :    0.041385
  14 H :    0.031366
  15 H :    0.015625
  16 S :    0.100942
  17 C :   -0.065591
  18 C :   -0.071740
  19 C :   -0.068903
  20 C :   -0.120978
  21 H :    0.041337
  22 C :    0.024217
  23 H :    0.032101
  24 H :    0.048324
  25 C :   -0.088614
  26 H :    0.027229
  27 H :    0.021001
  28 C :   -0.020535
  29 H :    0.035199
  30 H :    0.036333
  31 H :    0.028850
  32 H :    0.030040
  33 H :    0.055088
Sum of atomic charges:   -0.0000000

LOEWDIN ATOMIC CHARGES
----------------------
   0 S :    0.382055
   1 C :   -0.185070
   2 C :   -0.061444
   3 C :   -0.071671
   4 C :   -0.176120
   5 H :    0.022952
   6 C :   -0.033826
   7 H :    0.038158
   8 H :    0.029379
   9 C :   -0.041694
  10 H :    0.022502
  11 H :    0.024455
  12 C :   -0.072227
  13 H :    0.035802
  14 H :    0.032587
  15 H :    0.018626
  16 S :    0.403369
  17 C :   -0.197716
  18 C :   -0.075342
  19 C :   -0.054403
  20 C :   -0.184889
  21 H :    0.039135
  22 C :   -0.025598
  23 H :    0.022592
  24 H :    0.033294
  25 C :   -0.039157
  26 H :    0.020350
  27 H :    0.014556
  28 C :   -0.055270
  29 H :    0.028455
  30 H :    0.032174
  31 H :    0.018049
  32 H :    0.023296
  33 H :    0.032642

  Mayer bond orders larger than 0.100000
B(  0-S ,  1-C ) :   1.1212 B(  0-S ,  4-C ) :   1.1237 B(  1-C ,  2-C ) :   1.6417
B(  1-C , 32-H ) :   0.9681 B(  2-C ,  3-C ) :   1.2131 B(  2-C ,  6-C ) :   1.0058
B(  3-C ,  4-C ) :   1.6186 B(  3-C ,  5-H ) :   0.9922 B(  4-C , 20-C ) :   1.0439
B(  6-C ,  7-H ) :   0.9403 B(  6-C ,  8-H ) :   0.9406 B(  6-C ,  9-C ) :   1.0833
B(  9-C , 10-H ) :   0.9502 B(  9-C , 11-H ) :   0.9567 B(  9-C , 12-C ) :   1.0596
B( 12-C , 13-H ) :   0.9760 B( 12-C , 14-H ) :   0.9734 B( 12-C , 15-H ) :   0.9772
B( 16-S , 17-C ) :   1.1536 B( 16-S , 20-C ) :   1.1185 B( 17-C , 18-C ) :   1.6421
B( 17-C , 33-H ) :   0.9583 B( 18-C , 19-C ) :   1.2217 B( 18-C , 21-H ) :   0.9793
B( 19-C , 20-C ) :   1.6441 B( 19-C , 22-C ) :   1.0203 B( 22-C , 23-H ) :   0.9397
B( 22-C , 24-H ) :   0.9335 B( 22-C , 25-C ) :   1.0553 B( 25-C , 26-H ) :   0.9486
B( 25-C , 27-H ) :   0.9629 B( 25-C , 28-C ) :   1.0868 B( 28-C , 29-H ) :   0.9735
B( 28-C , 30-H ) :   0.9742 B( 28-C , 31-H ) :   0.9712

Dispersion correction           -0.013429692
FINAL SINGLE POINT ENERGY     -1339.861598097111

DIPOLE MOMENT
-------------
                                X             Y             Z
Electronic contribution:    -30.39169      -3.84825      -1.53032
Nuclear contribution   :     31.15000       4.16192       1.64500
                        -----------------------------------------
Total Dipole Moment    :      0.75831       0.31367       0.11468
                        -----------------------------------------
Magnitude (a.u.)       :      0.82860
Magnitude (Debye)      :      2.10614

Rotational constants in cm-1:     0.015435     0.009285     0.006521
Rotational constants in MHz :   462.740376   278.368417   195.493473

                             ****ORCA TERMINATED NORMALLY****
TOTAL RUN TIME: 0 days 0 hours 0 minutes 34 seconds 258 msec
