                         Program Version 4.2.1 -  RELEASE  -
|  1> ! wB97X-D3 SP def2-SVP
|  2> %pal
|  3> nprocs 16
|  4> end
|  5>
|  6> * xyz 0 1
|  7> S 	 38.5974 	 30.0279 	 93.6245
|  8> C 	 37.7177 	 30.4126 	 92.0745
|  9> C 	 36.3365 	 30.2939 	 92.2662
| 10> C 	 36.0723 	 30.0498 	 93.6723
| 11> C 	 37.1589 	 29.8071 	 94.4836
| 12> H 	 35.0832 	 29.9173 	 94.15
| 13> C 	 35.2986 	 30.5507 	 91.2038
| 14> H 	 35.7235 	 30.1541 	 90.2069
| 15> H 	 35.1907 	 31.7034 	 91.093
| 16> C 	 33.9366 	 29.8888 	 91.4605
| 17> H 	 33.5065 	 30.2182 	 92.4368
| 18> H 	 33.2521 	 30.2454 	 90.6589
| 19> C 	 33.9378 	 28.3798 	 91.4717
| 20> H 	 34.5153 	 27.949 	 92.26
| 21> H 	 32.9897 	 27.8265 	 91.517
| 22> H 	 34.4335 	 28.0445 	 90.5524
| 23> S 	 37.0438 	 30.2833 	 97.2657
| 24> C 	 37.0851 	 28.8814 	 98.3171
| 25> C 	 37.2129 	 27.7123 	 97.6144
| 26> C 	 37.2457 	 27.8804 	 96.2034
| 27> C 	 37.1198 	 29.2223 	 95.8431
| 28> H 	 37.3208 	 26.703 	 98.0144
| 29> C 	 37.2794 	 26.7269 	 95.2142
| 30> H 	 38.2891 	 26.4135 	 94.9748
| 31> H 	 36.9554 	 27.1075 	 94.2278
| 32> C 	 36.6759 	 25.4167 	 95.5368
| 33> H 	 35.5719 	 25.5723 	 95.9127
| 34> H 	 37.195 	 24.9522 	 96.4369
| 35> C 	 36.6206 	 24.3317 	 94.3957
| 36> H 	 36.3442 	 23.3496 	 94.6887
| 37> H 	 37.7087 	 24.3458 	 94.0052
| 38> H 	 36.1028 	 24.5521 	 93.4562
| 39> H 	 38.1274 	 30.485 	 91.074
| 40> H 	 36.9767 	 28.8649 	 99.3706
| 41> *
| 42>
| 43>                          ****END OF INPUT****

CARTESIAN COORDINATES (ANGSTROEM)
---------------------------------
  S     38.597400   30.027900   93.624500
  C     37.717700   30.412600   92.074500
  C     36.336500   30.293900   92.266200
  C     36.072300   30.049800   93.672300
  C     37.158900   29.807100   94.483600
  H     35.083200   29.917300   94.150000
  C     35.298600   30.550700   91.203800
  H     35.723500   30.154100   90.206900
  H     35.190700   31.703400   91.093000
  C     33.936600   29.888800   91.460500
  H     33.506500   30.218200   92.436800
  H     33.252100   30.245400   90.658900
  C     33.937800   28.379800   91.471700
  H     34.515300   27.949000   92.260000
  H     32.989700   27.826500   91.517000
  H     34.433500   28.044500   90.552400
  S     37.043800   30.283300   97.265700
  C     37.085100   28.881400   98.317100
  C     37.212900   27.712300   97.614400
  C     37.245700   27.880400   96.203400
  C     37.119800   29.222300   95.843100
  H     37.320800   26.703000   98.014400
  C     37.279400   26.726900   95.214200
  H     38.289100   26.413500   94.974800
  H     36.955400   27.107500   94.227800
  C     36.675900   25.416700   95.536800
  H     35.571900   25.572300   95.912700
  H     37.195000   24.952200   96.436900
  C     36.620600   24.331700   94.395700
  H     36.344200   23.349600   94.688700
  H     37.708700   24.345800   94.005200
  H     36.102800   24.552100   93.456200
  H     38.127400   30.485000   91.074000
  H     36.976700   28.864900   99.370600

 Total Charge           Charge          ....    0
 Multiplicity           Mult            ....    1
 Number of Electrons    NEL             ....  134
 Basis Dimension        Dim             ....  322

ORBITAL ENERGIES
----------------

  NO   OCC          E(Eh)            E(eV)
   0   2.0000     -88.969734     -2420.9895
   1   2.0000     -88.966679     -2420.9064
   2   2.0000     -10.330164      -281.0981
   3   2.0000     -10.325392      -280.9682
   4   2.0000     -10.319515      -280.8083
   5   2.0000     -10.317349      -280.7493
   6   2.0000     -10.311067      -280.5784
   7   2.0000     -10.307791      -280.4893
   8   2.0000     -10.305970      -280.4397
   9   2.0000     -10.302665      -280.3498
  10   2.0000     -10.295505      -280.1549
  11   2.0000     -10.294438      -280.1259
  12   2.0000     -10.293197      -280.0921
  13   2.0000     -10.290755      -280.0257
  14   2.0000     -10.288912      -279.9755
  15   2.0000     -10.275043      -279.5981
  16   2.0000      -8.083786      -219.9710
  17   2.0000      -8.081109      -219.8982
  18   2.0000      -6.042350      -164.4207
  19   2.0000      -6.039687      -164.3482
  20   2.0000      -6.038403      -164.3133
  21   2.0000      -6.035531      -164.2352
  22   2.0000      -6.034522      -164.2077
  23   2.0000      -6.031912      -164.1367
  24   2.0000      -1.004625       -27.3372
  25   2.0000      -0.982265       -26.7288
  26   2.0000      -0.914772       -24.8922
  27   2.0000      -0.911450       -24.8018
  28   2.0000      -0.867951       -23.6182
  29   2.0000      -0.848080       -23.0774
  30   2.0000      -0.840510       -22.8714
  31   2.0000      -0.812865       -22.1192
  32   2.0000      -0.786592       -21.4043
  33   2.0000      -0.776081       -21.1182
  34   2.0000      -0.707120       -19.2417
  35   2.0000      -0.698154       -18.9977
  36   2.0000      -0.691704       -18.8222
  37   2.0000      -0.655554       -17.8385
  38   2.0000      -0.632961       -17.2237
  39   2.0000      -0.616292       -16.7702
  40   2.0000      -0.606071       -16.4920
  41   2.0000      -0.567527       -15.4432
  42   2.0000      -0.559047       -15.2124
  43   2.0000      -0.554370       -15.0852
  44   2.0000      -0.534376       -14.5411
  45   2.0000      -0.528024       -14.3683
  46   2.0000      -0.519864       -14.1462
  47   2.0000      -0.512170       -13.9369
  48   2.0000      -0.500725       -13.6254
  49   2.0000      -0.490903       -13.3582
  50   2.0000      -0.485444       -13.2096
  51   2.0000      -0.477168       -12.9844
  52   2.0000      -0.475351       -12.9350
  53   2.0000      -0.470293       -12.7973
  54   2.0000      -0.458168       -12.4674
  55   2.0000      -0.451263       -12.2795
  56   2.0000      -0.447476       -12.1764
  57   2.0000      -0.438618       -11.9354
  58   2.0000      -0.436486       -11.8774
  59   2.0000      -0.423613       -11.5271
  60   2.0000      -0.418284       -11.3821
  61   2.0000      -0.415165       -11.2972
  62   2.0000      -0.399626       -10.8744
  63   2.0000      -0.336224        -9.1491
  64   2.0000      -0.329581        -8.9683
  65   2.0000      -0.319466        -8.6931
  66   2.0000      -0.313171        -8.5218
  67   0.0000       0.041396         1.1264
  68   0.0000       0.053141         1.4460
  69   0.0000       0.114378         3.1124
  70   0.0000       0.120481         3.2785
  71   0.0000       0.121998         3.3197

MULLIKEN ATOMIC CHARGES
-----------------------
   0 S :    0.117371
   1 C :   -0.123271
   2 C :   -0.090729
   3 C :    0.031270
   4 C :   -0.181574
   5 H :    0.019827
   6 C :    0.008137
   7 H :    0.038348
   8 H :    0.073940
   9 C :   -0.080445
  10 H :    0.038801
  11 H :    0.039019
  12 C :   -0.046606
  13 H :    0.027281
  14 H :    0.038928
  15 H :    0.016647
  16 S :    0.119769
  17 C :   -0.063278
  18 C :   -0.032093
  19 C :   -0.006483
  20 C :   -0.201811
  21 H :    0.018111
  22 C :    0.108063
  23 H :    0.021537
  24 H :    0.032706
  25 C :   -0.148985
  26 H :    0.038443
  27 H :    0.043035
  28 C :   -0.049157
  29 H :    0.039117
  30 H :    0.023731
  31 H :    0.037587
  32 H :    0.048533
  33 H :    0.044232
Sum of atomic charges:   -0.0000000

LOEWDIN ATOMIC CHARGES
----------------------
   0 S :    0.410609
   1 C :   -0.184312
   2 C :   -0.064560
   3 C :   -0.071196
   4 C :   -0.222888
   5 H :    0.033487
   6 C :   -0.041342
   7 H :    0.037956
   8 H :    0.051453
   9 C :   -0.049596
  10 H :    0.026365
  11 H :    0.031517
  12 C :   -0.071270
  13 H :    0.020773
  14 H :    0.030980
  15 H :    0.024375
  16 S :    0.402429
  17 C :   -0.176229
  18 C :   -0.071505
  19 C :   -0.046638
  20 C :   -0.197601
  21 H :    0.033337
  22 C :   -0.044257
  23 H :    0.034371
  24 H :    0.036646
  25 C :   -0.053344
  26 H :    0.025845
  27 H :    0.028017
  28 C :   -0.068914
  29 H :    0.022683
  30 H :    0.032025
  31 H :    0.026956
  32 H :    0.028729
  33 H :    0.025102

  Mayer bond orders larger than 0.100000
B(  0-S ,  1-C ) :   1.1305 B(  0-S ,  4-C ) :   1.1613 B(  1-C ,  2-C ) :   1.6190
B(  1-C , 32-H ) :   0.9678 B(  2-C ,  3-C ) :   1.2243 B(  2-C ,  6-C ) :   1.0132
B(  3-C ,  4-C ) :   1.6027 B(  3-C ,  5-H ) :   0.9814 B(  4-C , 20-C ) :   0.9933
B(  6-C ,  7-H ) :   0.9416 B(  6-C ,  8-H ) :   0.9388 B(  6-C ,  9-C ) :   1.0774
B(  9-C , 10-H ) :   0.9482 B(  9-C , 11-H ) :   0.9540 B(  9-C , 12-C ) :   1.0754
B( 12-C , 13-H ) :   0.9726 B( 12-C , 14-H ) :   0.9736 B( 12-C , 15-H ) :   0.9710
B( 16-S , 17-C ) :   1.1519 B( 16-S , 20-C ) :   1.1436 B( 17-C , 18-C ) :   1.6041
B( 17-C , 33-H ) :   0.9683 B( 18-C , 19-C ) :   1.2672 B( 18-C , 21-H ) :   0.9810
B( 19-C , 20-C ) :   1.6061 B( 19-C , 22-C ) :   1.0403 B( 22-C , 23-H ) :   0.9100
B( 22-C , 24-H ) :   0.9305 B( 22-C , 25-C ) :   1.0626 B( 25-C , 26-H ) :   0.9560
B( 25-C , 27-H ) :   0.9438 B( 25-C , 28-C ) :   1.0719 B( 28-C , 29-H ) :   0.9768
B( 28-C , 30-H ) :   0.9707 B( 28-C , 31-H ) :   0.9767

Dispersion correction           -0.014686103
FINAL SINGLE POINT ENERGY     -1339.873205171756

DIPOLE MOMENT
-------------
                                X             Y             Z
Electronic contribution:     14.54881      19.86706      15.08394
Nuclear contribution   :    -14.91185     -20.38222     -15.40517
                        -----------------------------------------
Total Dipole Moment    :     -0.36304      -0.51515      -0.32123
                        -----------------------------------------
Magnitude (a.u.)       :      0.70737
Magnitude (Debye)      :      1.79799

Rotational constants in cm-1:     0.015764     0.009658     0.007532
Rotational constants in MHz :   472.595974   289.550901   225.818259

                             ****ORCA TERMINATED NORMALLY****
TOTAL RUN TIME: 0 days 0 hours 0 minutes 30 seconds 444 msec
