                         Program Version 4.2.1 -  RELEASE  -
|  1> ! wB97X-D3 SP def2-SVP
|  2> %pal
|  3> nprocs 16
|  4> end
|  5>
|  6> * xyz 0 1
|  7> S 	 38.5283 	 24.5371 	 96.9642
|  8> C 	 38.4152 	 24.5194 	 95.2311
|  9> C 	 39.5165 	 23.9127 	 94.6317
| 10> C 	 40.3706 	 23.3742 	 95.6312
| 11> C 	 39.9798 	 23.5613 	 96.9492
| 12> H 	 41.2871 	 22.857 	 95.5129
| 13> C 	 39.7841 	 23.8521 	 93.1617
| 14> H 	 40.8509 	 24.0963 	 92.9969
| 15> H 	 39.2657 	 24.6506 	 92.558
| 16> C 	 39.5724 	 22.4331 	 92.6318
| 17> H 	 38.5249 	 22.1122 	 92.6494
| 18> H 	 39.788 	 22.4654 	 91.5287
| 19> C 	 40.5167 	 21.3977 	 93.107
| 20> H 	 40.2216 	 20.8847 	 94.0168
| 21> H 	 40.6176 	 20.6256 	 92.3287
| 22> H 	 41.4683 	 21.9492 	 93.3167
| 23> S 	 41.1526 	 24.6136 	 99.213
| 24> C 	 41.9586 	 23.5438 	 100.295
| 25> C 	 41.9627 	 22.2556 	 99.801
| 26> C 	 41.2973 	 22.1016 	 98.5258
| 27> C 	 40.7976 	 23.2846 	 98.1145
| 28> H 	 42.4158 	 21.4768 	 100.37
| 29> C 	 41.1307 	 20.7651 	 97.9044
| 30> H 	 41.9231 	 20.0548 	 98.1992
| 31> H 	 41.342 	 20.8941 	 96.8371
| 32> C 	 39.8172 	 20.0688 	 98.2211
| 33> H 	 39.7795 	 19.2785 	 97.5405
| 34> H 	 38.9213 	 20.6875 	 98.0845
| 35> C 	 39.6641 	 19.4441 	 99.6334
| 36> H 	 40.1387 	 18.4841 	 99.5709
| 37> H 	 38.6696 	 19.2227 	 99.9328
| 38> H 	 40.0704 	 20.0211 	 100.464
| 39> H 	 37.6219 	 25.0662 	 94.7643
| 40> H 	 42.3276 	 23.8443 	 101.276
| 41> *
| 42>
| 43>                          ****END OF INPUT****

CARTESIAN COORDINATES (ANGSTROEM)
---------------------------------
  S     38.528300   24.537100   96.964200
  C     38.415200   24.519400   95.231100
  C     39.516500   23.912700   94.631700
  C     40.370600   23.374200   95.631200
  C     39.979800   23.561300   96.949200
  H     41.287100   22.857000   95.512900
  C     39.784100   23.852100   93.161700
  H     40.850900   24.096300   92.996900
  H     39.265700   24.650600   92.558000
  C     39.572400   22.433100   92.631800
  H     38.524900   22.112200   92.649400
  H     39.788000   22.465400   91.528700
  C     40.516700   21.397700   93.107000
  H     40.221600   20.884700   94.016800
  H     40.617600   20.625600   92.328700
  H     41.468300   21.949200   93.316700
  S     41.152600   24.613600   99.213000
  C     41.958600   23.543800  100.295000
  C     41.962700   22.255600   99.801000
  C     41.297300   22.101600   98.525800
  C     40.797600   23.284600   98.114500
  H     42.415800   21.476800  100.370000
  C     41.130700   20.765100   97.904400
  H     41.923100   20.054800   98.199200
  H     41.342000   20.894100   96.837100
  C     39.817200   20.068800   98.221100
  H     39.779500   19.278500   97.540500
  H     38.921300   20.687500   98.084500
  C     39.664100   19.444100   99.633400
  H     40.138700   18.484100   99.570900
  H     38.669600   19.222700   99.932800
  H     40.070400   20.021100  100.464000
  H     37.621900   25.066200   94.764300
  H     42.327600   23.844300  101.276000

 Total Charge           Charge          ....    0
 Multiplicity           Mult            ....    1
 Number of Electrons    NEL             ....  134
 Basis Dimension        Dim             ....  322

ORBITAL ENERGIES
----------------

  NO   OCC          E(Eh)            E(eV)
   0   2.0000     -88.964296     -2420.8416
   1   2.0000     -88.962938     -2420.8046
   2   2.0000     -10.324462      -280.9429
   3   2.0000     -10.320726      -280.8412
   4   2.0000     -10.314169      -280.6628
   5   2.0000     -10.312325      -280.6126
   6   2.0000     -10.302081      -280.3339
   7   2.0000     -10.297916      -280.2206
   8   2.0000     -10.296350      -280.1779
   9   2.0000     -10.291515      -280.0464
  10   2.0000     -10.289545      -279.9928
  11   2.0000     -10.289436      -279.9898
  12   2.0000     -10.285226      -279.8752
  13   2.0000     -10.279923      -279.7309
  14   2.0000     -10.278973      -279.7051
  15   2.0000     -10.269810      -279.4557
  16   2.0000      -8.079247      -219.8475
  17   2.0000      -8.078233      -219.8199
  18   2.0000      -6.037629      -164.2922
  19   2.0000      -6.036731      -164.2678
  20   2.0000      -6.033647      -164.1839
  21   2.0000      -6.032685      -164.1577
  22   2.0000      -6.030224      -164.0907
  23   2.0000      -6.028954      -164.0562
  24   2.0000      -1.009265       -27.4635
  25   2.0000      -0.986226       -26.8366
  26   2.0000      -0.918832       -25.0027
  27   2.0000      -0.912366       -24.8267
  28   2.0000      -0.871324       -23.7099
  29   2.0000      -0.852513       -23.1980
  30   2.0000      -0.845031       -22.9945
  31   2.0000      -0.814688       -22.1688
  32   2.0000      -0.788395       -21.4533
  33   2.0000      -0.774721       -21.0812
  34   2.0000      -0.707780       -19.2597
  35   2.0000      -0.695447       -18.9241
  36   2.0000      -0.689906       -18.7733
  37   2.0000      -0.665567       -18.1110
  38   2.0000      -0.648233       -17.6393
  39   2.0000      -0.615067       -16.7368
  40   2.0000      -0.598941       -16.2980
  41   2.0000      -0.575070       -15.6484
  42   2.0000      -0.556250       -15.1363
  43   2.0000      -0.551201       -14.9990
  44   2.0000      -0.549081       -14.9412
  45   2.0000      -0.538252       -14.6466
  46   2.0000      -0.515482       -14.0270
  47   2.0000      -0.510517       -13.8919
  48   2.0000      -0.503456       -13.6997
  49   2.0000      -0.497427       -13.5357
  50   2.0000      -0.489108       -13.3093
  51   2.0000      -0.483282       -13.1508
  52   2.0000      -0.471410       -12.8277
  53   2.0000      -0.471103       -12.8194
  54   2.0000      -0.460237       -12.5237
  55   2.0000      -0.448660       -12.2087
  56   2.0000      -0.440586       -11.9889
  57   2.0000      -0.440041       -11.9741
  58   2.0000      -0.433975       -11.8091
  59   2.0000      -0.426594       -11.6082
  60   2.0000      -0.419310       -11.4100
  61   2.0000      -0.408879       -11.1262
  62   2.0000      -0.406115       -11.0510
  63   2.0000      -0.346431        -9.4269
  64   2.0000      -0.331519        -9.0211
  65   2.0000      -0.327466        -8.9108
  66   2.0000      -0.292320        -7.9544
  67   0.0000       0.033783         0.9193
  68   0.0000       0.072382         1.9696
  69   0.0000       0.115957         3.1554
  70   0.0000       0.123309         3.3554
  71   0.0000       0.129164         3.5147

MULLIKEN ATOMIC CHARGES
-----------------------
   0 S :    0.107699
   1 C :   -0.133698
   2 C :   -0.039806
   3 C :    0.028913
   4 C :   -0.163215
   5 H :   -0.004984
   6 C :    0.050821
   7 H :    0.031200
   8 H :    0.035265
   9 C :   -0.090400
  10 H :    0.031220
  11 H :    0.026539
  12 C :   -0.048060
  13 H :    0.041335
  14 H :    0.039554
  15 H :    0.027753
  16 S :    0.112573
  17 C :   -0.097873
  18 C :   -0.029112
  19 C :   -0.034470
  20 C :   -0.169255
  21 H :    0.006101
  22 C :    0.086709
  23 H :    0.016160
  24 H :    0.017300
  25 C :   -0.036353
  26 H :    0.013810
  27 H :    0.037824
  28 C :   -0.042755
  29 H :    0.017333
  30 H :    0.022127
  31 H :    0.034535
  32 H :    0.045470
  33 H :    0.059740
Sum of atomic charges:    0.0000000

LOEWDIN ATOMIC CHARGES
----------------------
   0 S :    0.410763
   1 C :   -0.194304
   2 C :   -0.063230
   3 C :   -0.056794
   4 C :   -0.198451
   5 H :    0.022175
   6 C :   -0.036921
   7 H :    0.034062
   8 H :    0.038074
   9 C :   -0.049547
  10 H :    0.024399
  11 H :    0.028553
  12 C :   -0.067329
  13 H :    0.022168
  14 H :    0.031218
  15 H :    0.027810
  16 S :    0.407159
  17 C :   -0.194350
  18 C :   -0.067969
  19 C :   -0.057353
  20 C :   -0.194033
  21 H :    0.024235
  22 C :   -0.033117
  23 H :    0.034569
  24 H :    0.032143
  25 C :   -0.029834
  26 H :    0.017815
  27 H :    0.027800
  28 C :   -0.063564
  29 H :    0.021404
  30 H :    0.023040
  31 H :    0.025175
  32 H :    0.022470
  33 H :    0.031765

  Mayer bond orders larger than 0.100000
B(  0-S ,  1-C ) :   1.1595 B(  0-S ,  4-C ) :   1.1492 B(  1-C ,  2-C ) :   1.5737
B(  1-C , 32-H ) :   0.9755 B(  2-C ,  3-C ) :   1.2538 B(  2-C ,  6-C ) :   1.0264
B(  3-C ,  4-C ) :   1.5674 B(  3-C ,  5-H ) :   0.9915 B(  4-C , 20-C ) :   1.0429
B(  6-C ,  7-H ) :   0.9374 B(  6-C ,  8-H ) :   0.9427 B(  6-C ,  9-C ) :   1.0796
B(  9-C , 10-H ) :   0.9502 B(  9-C , 11-H ) :   0.9549 B(  9-C , 12-C ) :   1.0862
B( 12-C , 13-H ) :   0.9675 B( 12-C , 14-H ) :   0.9710 B( 12-C , 15-H ) :   0.9666
B( 16-S , 17-C ) :   1.1503 B( 16-S , 20-C ) :   1.1331 B( 17-C , 18-C ) :   1.6162
B( 17-C , 33-H ) :   0.9672 B( 18-C , 19-C ) :   1.2219 B( 18-C , 21-H ) :   0.9931
B( 19-C , 20-C ) :   1.6321 B( 19-C , 22-C ) :   1.0587 B( 22-C , 23-H ) :   0.9257
B( 22-C , 24-H ) :   0.9190 B( 22-C , 25-C ) :   1.0706 B( 25-C , 26-H ) :   0.9561
B( 25-C , 27-H ) :   0.9621 B( 25-C , 28-C ) :   1.0702 B( 28-C , 29-H ) :   0.9763
B( 28-C , 30-H ) :   0.9748 B( 28-C , 31-H ) :   0.9768

Dispersion correction           -0.015223403
FINAL SINGLE POINT ENERGY     -1339.888674969862

DIPOLE MOMENT
-------------
                                X             Y             Z
Electronic contribution:     -1.25244      22.40904      13.26610
Nuclear contribution   :      1.39139     -22.88421     -13.62703
                        -----------------------------------------
Total Dipole Moment    :      0.13895      -0.47517      -0.36093
                        -----------------------------------------
Magnitude (a.u.)       :      0.61266
Magnitude (Debye)      :      1.55727

Rotational constants in cm-1:     0.019016     0.009503     0.007581
Rotational constants in MHz :   570.080722   284.897585   227.271031

                             ****ORCA TERMINATED NORMALLY****
TOTAL RUN TIME: 0 days 0 hours 0 minutes 30 seconds 43 msec
