                         Program Version 4.2.1 -  RELEASE  -
|  1> ! wB97X-D3 SP def2-SVP
|  2> %pal
|  3> nprocs 16
|  4> end
|  5>
|  6> * xyz 0 1
|  7> S 	 -65.0546 	 41.7521 	 131.102
|  8> C 	 -65.9611 	 41.7818 	 132.633
|  9> C 	 -65.223 	 41.1842 	 133.642
| 10> C 	 -63.9325 	 40.7558 	 133.236
| 11> C 	 -63.6951 	 40.9989 	 131.919
| 12> H 	 -63.1574 	 40.1828 	 133.616
| 13> C 	 -65.5555 	 41.1104 	 135.12
| 14> H 	 -66.277 	 41.8467 	 135.333
| 15> H 	 -64.6175 	 41.304 	 135.636
| 16> C 	 -66.0193 	 39.7029 	 135.533
| 17> H 	 -67.0359 	 39.5239 	 135.068
| 18> H 	 -65.4136 	 38.9259 	 135.17
| 19> C 	 -66.1839 	 39.7008 	 137.087
| 20> H 	 -66.8505 	 40.4414 	 137.466
| 21> H 	 -66.7248 	 38.7734 	 137.469
| 22> H 	 -65.1706 	 39.7695 	 137.53
| 23> S 	 -62.7437 	 39.32 	 129.919
| 24> C 	 -60.9483 	 39.0699 	 129.85
| 25> C 	 -60.3529 	 40.0003 	 130.734
| 26> C 	 -61.1866 	 40.7805 	 131.549
| 27> C 	 -62.552 	 40.5327 	 131.188
| 28> H 	 -59.2742 	 40.0551 	 130.833
| 29> C 	 -60.6528 	 41.6713 	 132.708
| 30> H 	 -60.9809 	 41.3205 	 133.704
| 31> H 	 -61.112 	 42.6387 	 132.614
| 32> C 	 -59.1571 	 41.9813 	 132.667
| 33> H 	 -58.5253 	 41.0807 	 132.734
| 34> H 	 -58.9061 	 42.435 	 133.652
| 35> C 	 -58.7358 	 43.092 	 131.555
| 36> H 	 -57.6637 	 43.3384 	 131.553
| 37> H 	 -59.2613 	 44.034 	 131.784
| 38> H 	 -59.1473 	 42.8297 	 130.575
| 39> H 	 -66.9507 	 42.1779 	 132.837
| 40> H 	 -60.4848 	 38.5001 	 129.068
| 41> *
| 42>
| 43>                          ****END OF INPUT****

CARTESIAN COORDINATES (ANGSTROEM)
---------------------------------
  S    -65.054600   41.752100  131.102000
  C    -65.961100   41.781800  132.633000
  C    -65.223000   41.184200  133.642000
  C    -63.932500   40.755800  133.236000
  C    -63.695100   40.998900  131.919000
  H    -63.157400   40.182800  133.616000
  C    -65.555500   41.110400  135.120000
  H    -66.277000   41.846700  135.333000
  H    -64.617500   41.304000  135.636000
  C    -66.019300   39.702900  135.533000
  H    -67.035900   39.523900  135.068000
  H    -65.413600   38.925900  135.170000
  C    -66.183900   39.700800  137.087000
  H    -66.850500   40.441400  137.466000
  H    -66.724800   38.773400  137.469000
  H    -65.170600   39.769500  137.530000
  S    -62.743700   39.320000  129.919000
  C    -60.948300   39.069900  129.850000
  C    -60.352900   40.000300  130.734000
  C    -61.186600   40.780500  131.549000
  C    -62.552000   40.532700  131.188000
  H    -59.274200   40.055100  130.833000
  C    -60.652800   41.671300  132.708000
  H    -60.980900   41.320500  133.704000
  H    -61.112000   42.638700  132.614000
  C    -59.157100   41.981300  132.667000
  H    -58.525300   41.080700  132.734000
  H    -58.906100   42.435000  133.652000
  C    -58.735800   43.092000  131.555000
  H    -57.663700   43.338400  131.553000
  H    -59.261300   44.034000  131.784000
  H    -59.147300   42.829700  130.575000
  H    -66.950700   42.177900  132.837000
  H    -60.484800   38.500100  129.068000

 Total Charge           Charge          ....    0
 Multiplicity           Mult            ....    1
 Number of Electrons    NEL             ....  134
 Basis Dimension        Dim             ....  322

ORBITAL ENERGIES
----------------

  NO   OCC          E(Eh)            E(eV)
   0   2.0000     -88.969605     -2420.9860
   1   2.0000     -88.965402     -2420.8717
   2   2.0000     -10.329495      -281.0798
   3   2.0000     -10.324008      -280.9305
   4   2.0000     -10.321583      -280.8645
   5   2.0000     -10.315996      -280.7125
   6   2.0000     -10.308244      -280.5016
   7   2.0000     -10.300427      -280.2889
   8   2.0000     -10.300328      -280.2862
   9   2.0000     -10.299467      -280.2627
  10   2.0000     -10.296874      -280.1922
  11   2.0000     -10.289333      -279.9870
  12   2.0000     -10.288600      -279.9670
  13   2.0000     -10.287523      -279.9377
  14   2.0000     -10.283807      -279.8366
  15   2.0000     -10.283731      -279.8345
  16   2.0000      -8.082802      -219.9442
  17   2.0000      -8.079579      -219.8565
  18   2.0000      -6.041297      -164.3920
  19   2.0000      -6.038152      -164.3065
  20   2.0000      -6.037442      -164.2872
  21   2.0000      -6.034235      -164.1999
  22   2.0000      -6.033745      -164.1865
  23   2.0000      -6.030230      -164.0909
  24   2.0000      -1.003730       -27.3129
  25   2.0000      -0.975210       -26.5368
  26   2.0000      -0.911780       -24.8108
  27   2.0000      -0.902743       -24.5649
  28   2.0000      -0.867890       -23.6165
  29   2.0000      -0.848732       -23.0952
  30   2.0000      -0.839017       -22.8308
  31   2.0000      -0.809409       -22.0251
  32   2.0000      -0.783230       -21.3128
  33   2.0000      -0.769571       -20.9411
  34   2.0000      -0.708528       -19.2800
  35   2.0000      -0.702708       -19.1216
  36   2.0000      -0.701166       -19.0797
  37   2.0000      -0.654060       -17.7979
  38   2.0000      -0.649651       -17.6779
  39   2.0000      -0.615490       -16.7483
  40   2.0000      -0.600224       -16.3329
  41   2.0000      -0.570612       -15.5271
  42   2.0000      -0.555760       -15.1230
  43   2.0000      -0.552379       -15.0310
  44   2.0000      -0.526181       -14.3181
  45   2.0000      -0.519752       -14.1432
  46   2.0000      -0.516995       -14.0681
  47   2.0000      -0.509702       -13.8697
  48   2.0000      -0.503608       -13.7039
  49   2.0000      -0.496657       -13.5147
  50   2.0000      -0.492746       -13.4083
  51   2.0000      -0.479322       -13.0430
  52   2.0000      -0.468702       -12.7540
  53   2.0000      -0.463391       -12.6095
  54   2.0000      -0.460208       -12.5229
  55   2.0000      -0.447004       -12.1636
  56   2.0000      -0.442331       -12.0364
  57   2.0000      -0.440642       -11.9905
  58   2.0000      -0.434797       -11.8314
  59   2.0000      -0.429492       -11.6871
  60   2.0000      -0.423281       -11.5181
  61   2.0000      -0.414093       -11.2680
  62   2.0000      -0.412910       -11.2358
  63   2.0000      -0.344412        -9.3719
  64   2.0000      -0.332161        -9.0386
  65   2.0000      -0.326636        -8.8882
  66   2.0000      -0.291147        -7.9225
  67   0.0000       0.025419         0.6917
  68   0.0000       0.064120         1.7448
  69   0.0000       0.108788         2.9603
  70   0.0000       0.118828         3.2335
  71   0.0000       0.133438         3.6310

MULLIKEN ATOMIC CHARGES
-----------------------
   0 S :    0.104225
   1 C :   -0.112915
   2 C :   -0.074049
   3 C :    0.054714
   4 C :   -0.180649
   5 H :   -0.009458
   6 C :    0.088889
   7 H :    0.009789
   8 H :    0.024585
   9 C :   -0.074520
  10 H :    0.029849
  11 H :    0.027263
  12 C :   -0.058414
  13 H :    0.026529
  14 H :    0.037036
  15 H :    0.040905
  16 S :    0.110741
  17 C :   -0.102436
  18 C :   -0.032887
  19 C :   -0.048397
  20 C :   -0.164035
  21 H :    0.022479
  22 C :    0.094500
  23 H :    0.041461
  24 H :    0.027258
  25 C :   -0.111084
  26 H :    0.035435
  27 H :    0.028155
  28 C :   -0.067318
  29 H :    0.051240
  30 H :    0.031771
  31 H :    0.044092
  32 H :    0.041981
  33 H :    0.063263
Sum of atomic charges:   -0.0000000

LOEWDIN ATOMIC CHARGES
----------------------
   0 S :    0.386530
   1 C :   -0.194657
   2 C :   -0.056783
   3 C :   -0.058251
   4 C :   -0.186384
   5 H :    0.025040
   6 C :   -0.022426
   7 H :    0.022082
   8 H :    0.030920
   9 C :   -0.034122
  10 H :    0.028994
  11 H :    0.017006
  12 C :   -0.071806
  13 H :    0.020136
  14 H :    0.031874
  15 H :    0.027439
  16 S :    0.388260
  17 C :   -0.177473
  18 C :   -0.066485
  19 C :   -0.058450
  20 C :   -0.198080
  21 H :    0.029582
  22 C :   -0.030746
  23 H :    0.035471
  24 H :    0.035054
  25 C :   -0.049268
  26 H :    0.021480
  27 H :    0.030503
  28 C :   -0.068525
  29 H :    0.030467
  30 H :    0.028568
  31 H :    0.026290
  32 H :    0.030621
  33 H :    0.027137

  Mayer bond orders larger than 0.100000
B(  0-S ,  1-C ) :   1.1145 B(  0-S ,  4-C ) :   1.1344 B(  1-C ,  2-C ) :   1.6455
B(  1-C , 32-H ) :   0.9673 B(  2-C ,  3-C ) :   1.1878 B(  2-C ,  6-C ) :   1.0189
B(  3-C ,  4-C ) :   1.6206 B(  3-C ,  5-H ) :   0.9955 B(  4-C , 20-C ) :   1.0438
B(  6-C ,  7-H ) :   0.9413 B(  6-C ,  8-H ) :   0.9458 B(  6-C ,  9-C ) :   1.0573
B(  9-C , 10-H ) :   0.9534 B(  9-C , 11-H ) :   0.9638 B(  9-C , 12-C ) :   1.0741
B( 12-C , 13-H ) :   0.9742 B( 12-C , 14-H ) :   0.9747 B( 12-C , 15-H ) :   0.9766
B( 16-S , 17-C ) :   1.1398 B( 16-S , 20-C ) :   1.1710 B( 17-C , 18-C ) :   1.5627
B( 17-C , 20-C ) :   0.1224 B( 17-C , 33-H ) :   0.9705 B( 18-C , 19-C ) :   1.3074
B( 18-C , 21-H ) :   0.9729 B( 19-C , 20-C ) :   1.5350 B( 19-C , 22-C ) :   1.0141
B( 22-C , 23-H ) :   0.9335 B( 22-C , 24-H ) :   0.9278 B( 22-C , 25-C ) :   1.0843
B( 25-C , 26-H ) :   0.9527 B( 25-C , 27-H ) :   0.9507 B( 25-C , 28-C ) :   1.0518
B( 28-C , 29-H ) :   0.9784 B( 28-C , 30-H ) :   0.9734 B( 28-C , 31-H ) :   0.9816

Dispersion correction           -0.013951949
FINAL SINGLE POINT ENERGY     -1339.863632592833

DIPOLE MOMENT
-------------
                                X             Y             Z
Electronic contribution:     -7.74495      -4.27180     -23.30736
Nuclear contribution   :      8.04926       4.37275      23.95760
                        -----------------------------------------
Total Dipole Moment    :      0.30432       0.10095       0.65024
                        -----------------------------------------
Magnitude (a.u.)       :      0.72499
Magnitude (Debye)      :      1.84279

Rotational constants in cm-1:     0.018571     0.007633     0.006632
Rotational constants in MHz :   556.733048   228.822395   198.819480

                             ****ORCA TERMINATED NORMALLY****
TOTAL RUN TIME: 0 days 0 hours 0 minutes 32 seconds 89 msec
