                         Program Version 4.2.1 -  RELEASE  -
|  1> ! wB97X-D3 SP def2-SVP
|  2> %pal
|  3> nprocs 16
|  4> end
|  5>
|  6> * xyz 0 1
|  7> S 	 38.4686 	 17.6995 	 62.9984
|  8> C 	 36.9591 	 18.5056 	 63.2933
|  9> C 	 36.4991 	 18.3033 	 64.5953
| 10> C 	 37.3735 	 17.5035 	 65.3753
| 11> C 	 38.4658 	 17.0283 	 64.6183
| 12> H 	 37.1703 	 17.1785 	 66.338
| 13> C 	 35.1284 	 18.7847 	 65.0894
| 14> H 	 34.5173 	 19.2377 	 64.2367
| 15> H 	 35.2942 	 19.6818 	 65.6515
| 16> C 	 34.2984 	 17.7438 	 65.8848
| 17> H 	 34.1102 	 16.8004 	 65.3353
| 18> H 	 34.8664 	 17.5258 	 66.7717
| 19> C 	 32.9477 	 18.3999 	 66.3402
| 20> H 	 33.0099 	 19.3796 	 66.7459
| 21> H 	 32.3986 	 18.5578 	 65.4062
| 22> H 	 32.537 	 17.6973 	 67.0601
| 23> S 	 40.0517 	 16.5535 	 66.8752
| 24> C 	 41.2371 	 15.2779 	 66.7989
| 25> C 	 41.3961 	 14.8373 	 65.5373
| 26> C 	 40.5045 	 15.4732 	 64.5904
| 27> C 	 39.6239 	 16.3696 	 65.1734
| 28> H 	 42.1771 	 14.2266 	 65.2553
| 29> C 	 40.3879 	 14.9952 	 63.1472
| 30> H 	 39.5019 	 15.309 	 62.55
| 31> H 	 40.3669 	 13.918 	 63.1571
| 32> C 	 41.6256 	 15.2704 	 62.2566
| 33> H 	 41.6211 	 14.7942 	 61.314
| 34> H 	 42.4146 	 14.8588 	 62.8672
| 35> C 	 42.0356 	 16.785 	 61.9524
| 36> H 	 41.4669 	 17.298 	 61.1654
| 37> H 	 43.0295 	 16.9296 	 61.6585
| 38> H 	 41.7843 	 17.3826 	 62.8314
| 39> H 	 36.4647 	 18.9844 	 62.4669
| 40> H 	 42.0534 	 15.0809 	 67.5515
| 41> *
| 42>
| 43>                          ****END OF INPUT****

CARTESIAN COORDINATES (ANGSTROEM)
---------------------------------
  S     38.468600   17.699500   62.998400
  C     36.959100   18.505600   63.293300
  C     36.499100   18.303300   64.595300
  C     37.373500   17.503500   65.375300
  C     38.465800   17.028300   64.618300
  H     37.170300   17.178500   66.338000
  C     35.128400   18.784700   65.089400
  H     34.517300   19.237700   64.236700
  H     35.294200   19.681800   65.651500
  C     34.298400   17.743800   65.884800
  H     34.110200   16.800400   65.335300
  H     34.866400   17.525800   66.771700
  C     32.947700   18.399900   66.340200
  H     33.009900   19.379600   66.745900
  H     32.398600   18.557800   65.406200
  H     32.537000   17.697300   67.060100
  S     40.051700   16.553500   66.875200
  C     41.237100   15.277900   66.798900
  C     41.396100   14.837300   65.537300
  C     40.504500   15.473200   64.590400
  C     39.623900   16.369600   65.173400
  H     42.177100   14.226600   65.255300
  C     40.387900   14.995200   63.147200
  H     39.501900   15.309000   62.550000
  H     40.366900   13.918000   63.157100
  C     41.625600   15.270400   62.256600
  H     41.621100   14.794200   61.314000
  H     42.414600   14.858800   62.867200
  C     42.035600   16.785000   61.952400
  H     41.466900   17.298000   61.165400
  H     43.029500   16.929600   61.658500
  H     41.784300   17.382600   62.831400
  H     36.464700   18.984400   62.466900
  H     42.053400   15.080900   67.551500

 Total Charge           Charge          ....    0
 Multiplicity           Mult            ....    1
 Number of Electrons    NEL             ....  134
 Basis Dimension        Dim             ....  322

ORBITAL ENERGIES
----------------

  NO   OCC          E(Eh)            E(eV)
   0   2.0000     -88.969802     -2420.9914
   1   2.0000     -88.965310     -2420.8692
   2   2.0000     -10.332674      -281.1664
   3   2.0000     -10.328014      -281.0395
   4   2.0000     -10.318886      -280.7912
   5   2.0000     -10.312505      -280.6175
   6   2.0000     -10.304306      -280.3944
   7   2.0000     -10.303894      -280.3832
   8   2.0000     -10.296406      -280.1794
   9   2.0000     -10.292620      -280.0764
  10   2.0000     -10.291522      -280.0465
  11   2.0000     -10.291499      -280.0459
  12   2.0000     -10.289216      -279.9838
  13   2.0000     -10.283165      -279.8191
  14   2.0000     -10.278577      -279.6943
  15   2.0000     -10.268209      -279.4122
  16   2.0000      -8.084048      -219.9781
  17   2.0000      -8.079860      -219.8642
  18   2.0000      -6.042472      -164.4240
  19   2.0000      -6.038552      -164.3174
  20   2.0000      -6.038545      -164.3172
  21   2.0000      -6.035008      -164.2209
  22   2.0000      -6.034378      -164.2038
  23   2.0000      -6.030446      -164.0968
  24   2.0000      -1.007899       -27.4263
  25   2.0000      -0.985099       -26.8059
  26   2.0000      -0.908077       -24.7100
  27   2.0000      -0.901070       -24.5194
  28   2.0000      -0.873862       -23.7790
  29   2.0000      -0.851986       -23.1837
  30   2.0000      -0.838881       -22.8271
  31   2.0000      -0.815336       -22.1864
  32   2.0000      -0.783585       -21.3224
  33   2.0000      -0.770001       -20.9528
  34   2.0000      -0.713216       -19.4076
  35   2.0000      -0.699627       -19.0378
  36   2.0000      -0.686894       -18.6913
  37   2.0000      -0.667189       -18.1551
  38   2.0000      -0.643653       -17.5147
  39   2.0000      -0.618839       -16.8395
  40   2.0000      -0.599249       -16.3064
  41   2.0000      -0.567879       -15.4528
  42   2.0000      -0.562814       -15.3150
  43   2.0000      -0.546249       -14.8642
  44   2.0000      -0.544110       -14.8060
  45   2.0000      -0.531439       -14.4612
  46   2.0000      -0.511392       -13.9157
  47   2.0000      -0.509260       -13.8577
  48   2.0000      -0.505771       -13.7627
  49   2.0000      -0.501776       -13.6540
  50   2.0000      -0.488545       -13.2940
  51   2.0000      -0.474652       -12.9159
  52   2.0000      -0.469903       -12.7867
  53   2.0000      -0.466933       -12.7059
  54   2.0000      -0.461636       -12.5617
  55   2.0000      -0.452280       -12.3072
  56   2.0000      -0.446613       -12.1530
  57   2.0000      -0.441848       -12.0233
  58   2.0000      -0.431029       -11.7289
  59   2.0000      -0.421519       -11.4701
  60   2.0000      -0.416897       -11.3443
  61   2.0000      -0.413102       -11.2411
  62   2.0000      -0.402658       -10.9569
  63   2.0000      -0.359944        -9.7946
  64   2.0000      -0.333836        -9.0841
  65   2.0000      -0.330169        -8.9844
  66   2.0000      -0.284465        -7.7407
  67   0.0000       0.019946         0.5428
  68   0.0000       0.082301         2.2395
  69   0.0000       0.108604         2.9553
  70   0.0000       0.113069         3.0768
  71   0.0000       0.132730         3.6118

MULLIKEN ATOMIC CHARGES
-----------------------
   0 S :    0.105936
   1 C :   -0.133813
   2 C :   -0.046063
   3 C :    0.003680
   4 C :   -0.120560
   5 H :   -0.007818
   6 C :    0.041301
   7 H :    0.018178
   8 H :    0.029543
   9 C :   -0.098552
  10 H :    0.051630
  11 H :    0.031827
  12 C :   -0.035235
  13 H :    0.023178
  14 H :    0.030715
  15 H :    0.044799
  16 S :    0.096457
  17 C :   -0.094613
  18 C :   -0.000142
  19 C :   -0.054657
  20 C :   -0.113313
  21 H :   -0.003575
  22 C :    0.038143
  23 H :    0.038295
  24 H :    0.029304
  25 C :   -0.070368
  26 H :    0.028821
  27 H :    0.014820
  28 C :   -0.052993
  29 H :    0.021316
  30 H :    0.024949
  31 H :    0.029344
  32 H :    0.049301
  33 H :    0.080166
Sum of atomic charges:    0.0000000

LOEWDIN ATOMIC CHARGES
----------------------
   0 S :    0.433636
   1 C :   -0.203623
   2 C :   -0.057604
   3 C :   -0.058873
   4 C :   -0.181338
   5 H :    0.016640
   6 C :   -0.038245
   7 H :    0.032170
   8 H :    0.029691
   9 C :   -0.036265
  10 H :    0.032085
  11 H :    0.018537
  12 C :   -0.060734
  13 H :    0.019614
  14 H :    0.027570
  15 H :    0.029346
  16 S :    0.399289
  17 C :   -0.193317
  18 C :   -0.062403
  19 C :   -0.059002
  20 C :   -0.188810
  21 H :    0.018853
  22 C :   -0.039937
  23 H :    0.021621
  24 H :    0.033910
  25 C :   -0.032353
  26 H :    0.018406
  27 H :    0.018186
  28 C :   -0.071918
  29 H :    0.022627
  30 H :    0.017294
  31 H :    0.023438
  32 H :    0.023757
  33 H :    0.047751

  Mayer bond orders larger than 0.100000
B(  0-S ,  1-C ) :   1.1475 B(  0-S ,  4-C ) :   1.1663 B(  1-C ,  2-C ) :   1.5779
B(  1-C , 32-H ) :   0.9716 B(  2-C ,  3-C ) :   1.2722 B(  2-C ,  6-C ) :   1.0116
B(  3-C ,  4-C ) :   1.5097 B(  3-C ,  5-H ) :   1.0038 B(  4-C , 20-C ) :   1.0942
B(  6-C ,  7-H ) :   0.9481 B(  6-C ,  8-H ) :   0.9325 B(  6-C ,  9-C ) :   1.0608
B(  9-C , 10-H ) :   0.9614 B(  9-C , 11-H ) :   0.9513 B(  9-C , 12-C ) :   1.0752
B( 12-C , 13-H ) :   0.9764 B( 12-C , 14-H ) :   0.9770 B( 12-C , 15-H ) :   0.9757
B( 16-S , 17-C ) :   1.1399 B( 16-S , 20-C ) :   1.1202 B( 17-C , 18-C ) :   1.6373
B( 17-C , 33-H ) :   0.9529 B( 18-C , 19-C ) :   1.2391 B( 18-C , 21-H ) :   0.9937
B( 19-C , 20-C ) :   1.5707 B( 19-C , 22-C ) :   1.0424 B( 22-C , 23-H ) :   0.9386
B( 22-C , 24-H ) :   0.9353 B( 22-C , 25-C ) :   1.0637 B( 25-C , 26-H ) :   0.9601
B( 25-C , 27-H ) :   0.9613 B( 25-C , 28-C ) :   1.0645 B( 28-C , 29-H ) :   0.9770
B( 28-C , 30-H ) :   0.9779 B( 28-C , 31-H ) :   0.9765

Dispersion correction           -0.014320998
FINAL SINGLE POINT ENERGY     -1339.873458001233

DIPOLE MOMENT
-------------
                                X             Y             Z
Electronic contribution:      9.88095      -0.72148       5.47432
Nuclear contribution   :    -10.05329       0.63616      -5.53726
                        -----------------------------------------
Total Dipole Moment    :     -0.17233      -0.08532      -0.06294
                        -----------------------------------------
Magnitude (a.u.)       :      0.20233
Magnitude (Debye)      :      0.51429

Rotational constants in cm-1:     0.022936     0.007860     0.006289
Rotational constants in MHz :   687.591727   235.639732   188.530992

                             ****ORCA TERMINATED NORMALLY****
TOTAL RUN TIME: 0 days 0 hours 0 minutes 28 seconds 461 msec
