                         Program Version 4.2.1 -  RELEASE  -
|  1> ! wB97X-D3 SP def2-SVP
|  2> %pal
|  3> nprocs 16
|  4> end
|  5>
|  6> * xyz 0 1
|  7> S 	 -97.2933 	 55.7735 	 116.044
|  8> C 	 -97.1039 	 54.7856 	 114.618
|  9> C 	 -97.6912 	 53.5352 	 114.741
| 10> C 	 -98.2754 	 53.342 	 116.037
| 11> C 	 -98.0807 	 54.4809 	 116.862
| 12> H 	 -98.7247 	 52.4431 	 116.482
| 13> C 	 -97.8517 	 52.5804 	 113.662
| 14> H 	 -97.5325 	 53.129 	 112.732
| 15> H 	 -98.9197 	 52.4421 	 113.618
| 16> C 	 -96.954 	 51.4415 	 113.934
| 17> H 	 -95.8821 	 51.7078 	 114.044
| 18> H 	 -97.2195 	 51.069 	 114.944
| 19> C 	 -96.9815 	 50.3404 	 112.87
| 20> H 	 -98.0319 	 50.2115 	 112.552
| 21> H 	 -96.4192 	 50.7155 	 111.953
| 22> H 	 -96.613 	 49.3585 	 113.298
| 23> S 	 -99.9634 	 53.8606 	 118.686
| 24> C 	 -99.6797 	 54.2632 	 120.351
| 25> C 	 -98.5494 	 55.0379 	 120.546
| 26> C 	 -97.8119 	 55.1524 	 119.326
| 27> C 	 -98.3975 	 54.5545 	 118.247
| 28> H 	 -98.2897 	 55.3077 	 121.591
| 29> C 	 -96.4915 	 55.8178 	 119.235
| 30> H 	 -96.52 	 56.8149 	 118.766
| 31> H 	 -95.8721 	 55.2199 	 118.626
| 32> C 	 -95.8222 	 56.0179 	 120.609
| 33> H 	 -96.5122 	 56.4803 	 121.303
| 34> H 	 -94.9739 	 56.7195 	 120.587
| 35> C 	 -95.3862 	 54.6813 	 121.255
| 36> H 	 -96.0883 	 53.884 	 121.322
| 37> H 	 -95.1874 	 54.9598 	 122.307
| 38> H 	 -94.5946 	 54.1939 	 120.635
| 39> H 	 -96.6734 	 55.1424 	 113.644
| 40> H 	 -100.448 	 54.1468 	 121.168
| 41> *
| 42>
| 43>                          ****END OF INPUT****

CARTESIAN COORDINATES (ANGSTROEM)
---------------------------------
  S    -97.293300   55.773500  116.044000
  C    -97.103900   54.785600  114.618000
  C    -97.691200   53.535200  114.741000
  C    -98.275400   53.342000  116.037000
  C    -98.080700   54.480900  116.862000
  H    -98.724700   52.443100  116.482000
  C    -97.851700   52.580400  113.662000
  H    -97.532500   53.129000  112.732000
  H    -98.919700   52.442100  113.618000
  C    -96.954000   51.441500  113.934000
  H    -95.882100   51.707800  114.044000
  H    -97.219500   51.069000  114.944000
  C    -96.981500   50.340400  112.870000
  H    -98.031900   50.211500  112.552000
  H    -96.419200   50.715500  111.953000
  H    -96.613000   49.358500  113.298000
  S    -99.963400   53.860600  118.686000
  C    -99.679700   54.263200  120.351000
  C    -98.549400   55.037900  120.546000
  C    -97.811900   55.152400  119.326000
  C    -98.397500   54.554500  118.247000
  H    -98.289700   55.307700  121.591000
  C    -96.491500   55.817800  119.235000
  H    -96.520000   56.814900  118.766000
  H    -95.872100   55.219900  118.626000
  C    -95.822200   56.017900  120.609000
  H    -96.512200   56.480300  121.303000
  H    -94.973900   56.719500  120.587000
  C    -95.386200   54.681300  121.255000
  H    -96.088300   53.884000  121.322000
  H    -95.187400   54.959800  122.307000
  H    -94.594600   54.193900  120.635000
  H    -96.673400   55.142400  113.644000
  H    -100.448000   54.146800  121.168000

 Total Charge           Charge          ....    0
 Multiplicity           Mult            ....    1
 Number of Electrons    NEL             ....  134
 Basis Dimension        Dim             ....  322

ORBITAL ENERGIES
----------------

  NO   OCC          E(Eh)            E(eV)
   0   2.0000     -88.969921     -2420.9946
   1   2.0000     -88.964008     -2420.8337
   2   2.0000     -10.328124      -281.0425
   3   2.0000     -10.319877      -280.8181
   4   2.0000     -10.318725      -280.7868
   5   2.0000     -10.313642      -280.6485
   6   2.0000     -10.299156      -280.2543
   7   2.0000     -10.297436      -280.2075
   8   2.0000     -10.296968      -280.1947
   9   2.0000     -10.296867      -280.1920
  10   2.0000     -10.286560      -279.9115
  11   2.0000     -10.286548      -279.9112
  12   2.0000     -10.285641      -279.8865
  13   2.0000     -10.285316      -279.8777
  14   2.0000     -10.282924      -279.8126
  15   2.0000     -10.275738      -279.6171
  16   2.0000      -8.084570      -219.9923
  17   2.0000      -8.078785      -219.8349
  18   2.0000      -6.043014      -164.4388
  19   2.0000      -6.039043      -164.3307
  20   2.0000      -6.037260      -164.2822
  21   2.0000      -6.035469      -164.2335
  22   2.0000      -6.033367      -164.1763
  23   2.0000      -6.029514      -164.0714
  24   2.0000      -1.011239       -27.5172
  25   2.0000      -0.986446       -26.8426
  26   2.0000      -0.928011       -25.2525
  27   2.0000      -0.911355       -24.7992
  28   2.0000      -0.871766       -23.7219
  29   2.0000      -0.851873       -23.1807
  30   2.0000      -0.843554       -22.9543
  31   2.0000      -0.811237       -22.0749
  32   2.0000      -0.783834       -21.3292
  33   2.0000      -0.769024       -20.9262
  34   2.0000      -0.708990       -19.2926
  35   2.0000      -0.699983       -19.0475
  36   2.0000      -0.690233       -18.7822
  37   2.0000      -0.660918       -17.9845
  38   2.0000      -0.633999       -17.2520
  39   2.0000      -0.615244       -16.7416
  40   2.0000      -0.600300       -16.3350
  41   2.0000      -0.571046       -15.5390
  42   2.0000      -0.559715       -15.2306
  43   2.0000      -0.551690       -15.0122
  44   2.0000      -0.535138       -14.5618
  45   2.0000      -0.531627       -14.4663
  46   2.0000      -0.522011       -14.2047
  47   2.0000      -0.510035       -13.8788
  48   2.0000      -0.504180       -13.7194
  49   2.0000      -0.500972       -13.6321
  50   2.0000      -0.496016       -13.4973
  51   2.0000      -0.475617       -12.9422
  52   2.0000      -0.467007       -12.7079
  53   2.0000      -0.465133       -12.6569
  54   2.0000      -0.456936       -12.4339
  55   2.0000      -0.450980       -12.2718
  56   2.0000      -0.446030       -12.1371
  57   2.0000      -0.438857       -11.9419
  58   2.0000      -0.429824       -11.6961
  59   2.0000      -0.425022       -11.5654
  60   2.0000      -0.419882       -11.4256
  61   2.0000      -0.410371       -11.1668
  62   2.0000      -0.406535       -11.0624
  63   2.0000      -0.352495        -9.5919
  64   2.0000      -0.331981        -9.0337
  65   2.0000      -0.329538        -8.9672
  66   2.0000      -0.282628        -7.6907
  67   0.0000       0.024233         0.6594
  68   0.0000       0.080699         2.1959
  69   0.0000       0.110608         3.0098
  70   0.0000       0.120752         3.2858
  71   0.0000       0.125024         3.4021

MULLIKEN ATOMIC CHARGES
-----------------------
   0 S :    0.123312
   1 C :   -0.138553
   2 C :   -0.111702
   3 C :   -0.003931
   4 C :   -0.157267
   5 H :    0.030436
   6 C :    0.109105
   7 H :    0.012632
   8 H :    0.040457
   9 C :   -0.119593
  10 H :    0.037403
  11 H :    0.024807
  12 C :   -0.038870
  13 H :    0.024936
  14 H :    0.043343
  15 H :    0.050585
  16 S :    0.098489
  17 C :   -0.107628
  18 C :   -0.057206
  19 C :   -0.065573
  20 C :   -0.123066
  21 H :    0.039086
  22 C :    0.093019
  23 H :    0.044859
  24 H :    0.020500
  25 C :   -0.086516
  26 H :    0.018715
  27 H :    0.031002
  28 C :   -0.067557
  29 H :    0.030360
  30 H :    0.036251
  31 H :    0.037510
  32 H :    0.058707
  33 H :    0.071946
Sum of atomic charges:   -0.0000000

LOEWDIN ATOMIC CHARGES
----------------------
   0 S :    0.436107
   1 C :   -0.218835
   2 C :   -0.058217
   3 C :   -0.072899
   4 C :   -0.201036
   5 H :    0.031524
   6 C :   -0.036354
   7 H :    0.032944
   8 H :    0.037261
   9 C :   -0.050278
  10 H :    0.032347
  11 H :    0.024587
  12 C :   -0.074260
  13 H :    0.022548
  14 H :    0.032519
  15 H :    0.034289
  16 S :    0.405052
  17 C :   -0.196531
  18 C :   -0.076829
  19 C :   -0.061069
  20 C :   -0.190197
  21 H :    0.041408
  22 C :   -0.038859
  23 H :    0.033424
  24 H :    0.023320
  25 C :   -0.040004
  26 H :    0.017003
  27 H :    0.027438
  28 C :   -0.072556
  29 H :    0.018650
  30 H :    0.031324
  31 H :    0.031136
  32 H :    0.035880
  33 H :    0.039164

  Mayer bond orders larger than 0.100000
B(  0-S ,  1-C ) :   1.1299 B(  0-S ,  4-C ) :   1.1729 B(  1-C ,  2-C ) :   1.6111
B(  1-C , 32-H ) :   0.9575 B(  2-C ,  3-C ) :   1.2479 B(  2-C ,  6-C ) :   1.0237
B(  3-C ,  4-C ) :   1.5209 B(  3-C ,  5-H ) :   0.9828 B(  4-C , 20-C ) :   1.0726
B(  6-C ,  7-H ) :   0.9316 B(  6-C ,  8-H ) :   0.9299 B(  6-C ,  9-C ) :   1.0602
B(  9-C , 10-H ) :   0.9529 B(  9-C , 11-H ) :   0.9575 B(  9-C , 12-C ) :   1.0765
B( 12-C , 13-H ) :   0.9731 B( 12-C , 14-H ) :   0.9729 B( 12-C , 15-H ) :   0.9733
B( 16-S , 17-C ) :   1.1584 B( 16-S , 20-C ) :   1.1221 B( 17-C , 18-C ) :   1.6273
B( 17-C , 33-H ) :   0.9529 B( 18-C , 19-C ) :   1.2182 B( 18-C , 21-H ) :   0.9811
B( 19-C , 20-C ) :   1.6112 B( 19-C , 22-C ) :   1.0359 B( 22-C , 23-H ) :   0.9220
B( 22-C , 24-H ) :   0.9323 B( 22-C , 25-C ) :   1.0847 B( 25-C , 26-H ) :   0.9504
B( 25-C , 27-H ) :   0.9538 B( 25-C , 28-C ) :   1.0722 B( 28-C , 29-H ) :   0.9764
B( 28-C , 30-H ) :   0.9748 B( 28-C , 31-H ) :   0.9725

Dispersion correction           -0.014063760
FINAL SINGLE POINT ENERGY     -1339.876129949971

DIPOLE MOMENT
-------------
                                X             Y             Z
Electronic contribution:    -13.94711      10.50630       1.97465
Nuclear contribution   :     14.12721     -10.60387      -1.95008
                        -----------------------------------------
Total Dipole Moment    :      0.18010      -0.09758       0.02457
                        -----------------------------------------
Magnitude (a.u.)       :      0.20630
Magnitude (Debye)      :      0.52439

Rotational constants in cm-1:     0.022604     0.007367     0.006740
Rotational constants in MHz :   677.638796   220.867274   202.061182

                             ****ORCA TERMINATED NORMALLY****
TOTAL RUN TIME: 0 days 0 hours 0 minutes 32 seconds 588 msec
