                         Program Version 4.2.1 -  RELEASE  -
|  1> ! wB97X-D3 SP def2-SVP
|  2> %pal
|  3> nprocs 16
|  4> end
|  5>
|  6> * xyz 0 1
|  7> S 	 -18.9384 	 35.8736 	 38.4168
|  8> C 	 -20.4016 	 35.3291 	 37.6887
|  9> C 	 -20.2204 	 34.3673 	 36.7164
| 10> C 	 -18.8412 	 34.3094 	 36.3644
| 11> C 	 -18.0866 	 35.2144 	 37.0794
| 12> H 	 -18.2632 	 33.7422 	 35.5848
| 13> C 	 -21.2841 	 33.541 	 36.0363
| 14> H 	 -22.0446 	 34.2112 	 35.5832
| 15> H 	 -21.741 	 33.1384 	 36.9558
| 16> C 	 -20.7922 	 32.4584 	 35.021
| 17> H 	 -21.6503 	 32.1316 	 34.4438
| 18> H 	 -20.2059 	 32.9483 	 34.2489
| 19> C 	 -20.0643 	 31.273 	 35.6308
| 20> H 	 -19.0768 	 31.3823 	 36.1339
| 21> H 	 -20.673 	 30.7473 	 36.4812
| 22> H 	 -19.9015 	 30.5518 	 34.7802
| 23> S 	 -15.5917 	 35.5934 	 38.3197
| 24> C 	 -14.1827 	 35.9676 	 37.301
| 25> C 	 -14.5705 	 36.0013 	 35.9933
| 26> C 	 -15.8947 	 35.5702 	 35.728
| 27> C 	 -16.6643 	 35.3923 	 36.8531
| 28> H 	 -13.9165 	 36.2767 	 35.2342
| 29> C 	 -16.396 	 35.5979 	 34.3134
| 30> H 	 -17.4282 	 35.4192 	 34.3059
| 31> H 	 -15.9079 	 34.8603 	 33.7115
| 32> C 	 -16.3554 	 37.0243 	 33.6373
| 33> H 	 -16.9429 	 36.8863 	 32.7391
| 34> H 	 -15.2998 	 37.321 	 33.4166
| 35> C 	 -17.0762 	 38.1386 	 34.4457
| 36> H 	 -16.9832 	 39.0801 	 34.0345
| 37> H 	 -16.5251 	 38.2 	 35.43
| 38> H 	 -18.083 	 37.8703 	 34.7242
| 39> H 	 -21.3207 	 35.3816 	 38.1713
| 40> H 	 -13.2187 	 36.3741 	 37.5967
| 41> *
| 42>
| 43>                          ****END OF INPUT****

CARTESIAN COORDINATES (ANGSTROEM)
---------------------------------
  S    -18.938400   35.873600   38.416800
  C    -20.401600   35.329100   37.688700
  C    -20.220400   34.367300   36.716400
  C    -18.841200   34.309400   36.364400
  C    -18.086600   35.214400   37.079400
  H    -18.263200   33.742200   35.584800
  C    -21.284100   33.541000   36.036300
  H    -22.044600   34.211200   35.583200
  H    -21.741000   33.138400   36.955800
  C    -20.792200   32.458400   35.021000
  H    -21.650300   32.131600   34.443800
  H    -20.205900   32.948300   34.248900
  C    -20.064300   31.273000   35.630800
  H    -19.076800   31.382300   36.133900
  H    -20.673000   30.747300   36.481200
  H    -19.901500   30.551800   34.780200
  S    -15.591700   35.593400   38.319700
  C    -14.182700   35.967600   37.301000
  C    -14.570500   36.001300   35.993300
  C    -15.894700   35.570200   35.728000
  C    -16.664300   35.392300   36.853100
  H    -13.916500   36.276700   35.234200
  C    -16.396000   35.597900   34.313400
  H    -17.428200   35.419200   34.305900
  H    -15.907900   34.860300   33.711500
  C    -16.355400   37.024300   33.637300
  H    -16.942900   36.886300   32.739100
  H    -15.299800   37.321000   33.416600
  C    -17.076200   38.138600   34.445700
  H    -16.983200   39.080100   34.034500
  H    -16.525100   38.200000   35.430000
  H    -18.083000   37.870300   34.724200
  H    -21.320700   35.381600   38.171300
  H    -13.218700   36.374100   37.596700

 Total Charge           Charge          ....    0
 Multiplicity           Mult            ....    1
 Number of Electrons    NEL             ....  134
 Basis Dimension        Dim             ....  322

ORBITAL ENERGIES
----------------

  NO   OCC          E(Eh)            E(eV)
   0   2.0000     -88.969382     -2420.9800
   1   2.0000     -88.960665     -2420.7428
   2   2.0000     -10.329991      -281.0934
   3   2.0000     -10.324146      -280.9343
   4   2.0000     -10.317188      -280.7450
   5   2.0000     -10.303092      -280.3614
   6   2.0000     -10.302249      -280.3384
   7   2.0000     -10.299126      -280.2535
   8   2.0000     -10.297593      -280.2117
   9   2.0000     -10.295949      -280.1670
  10   2.0000     -10.293997      -280.1139
  11   2.0000     -10.293952      -280.1127
  12   2.0000     -10.290054      -280.0066
  13   2.0000     -10.284801      -279.8637
  14   2.0000     -10.284368      -279.8519
  15   2.0000     -10.268907      -279.4312
  16   2.0000      -8.085007      -220.0042
  17   2.0000      -8.074078      -219.7068
  18   2.0000      -6.043392      -164.4490
  19   2.0000      -6.039717      -164.3490
  20   2.0000      -6.035517      -164.2348
  21   2.0000      -6.032917      -164.1640
  22   2.0000      -6.028848      -164.0533
  23   2.0000      -6.024506      -163.9351
  24   2.0000      -1.011694       -27.5296
  25   2.0000      -0.983043       -26.7500
  26   2.0000      -0.913109       -24.8470
  27   2.0000      -0.903763       -24.5926
  28   2.0000      -0.872484       -23.7415
  29   2.0000      -0.851700       -23.1759
  30   2.0000      -0.839240       -22.8369
  31   2.0000      -0.816366       -22.2145
  32   2.0000      -0.784105       -21.3366
  33   2.0000      -0.774429       -21.0733
  34   2.0000      -0.713292       -19.4097
  35   2.0000      -0.700473       -19.0608
  36   2.0000      -0.692836       -18.8530
  37   2.0000      -0.660208       -17.9652
  38   2.0000      -0.641169       -17.4471
  39   2.0000      -0.618607       -16.8332
  40   2.0000      -0.595357       -16.2005
  41   2.0000      -0.564644       -15.3647
  42   2.0000      -0.559207       -15.2168
  43   2.0000      -0.552620       -15.0376
  44   2.0000      -0.536085       -14.5876
  45   2.0000      -0.532313       -14.4850
  46   2.0000      -0.518156       -14.0997
  47   2.0000      -0.512733       -13.9522
  48   2.0000      -0.502587       -13.6761
  49   2.0000      -0.496958       -13.5229
  50   2.0000      -0.490158       -13.3379
  51   2.0000      -0.481120       -13.0919
  52   2.0000      -0.474401       -12.9091
  53   2.0000      -0.465213       -12.6591
  54   2.0000      -0.456258       -12.4154
  55   2.0000      -0.450637       -12.2625
  56   2.0000      -0.443468       -12.0674
  57   2.0000      -0.440848       -11.9961
  58   2.0000      -0.431269       -11.7354
  59   2.0000      -0.424257       -11.5446
  60   2.0000      -0.420432       -11.4405
  61   2.0000      -0.415577       -11.3084
  62   2.0000      -0.404498       -11.0070
  63   2.0000      -0.352528        -9.5928
  64   2.0000      -0.331313        -9.0155
  65   2.0000      -0.327466        -8.9108
  66   2.0000      -0.285195        -7.7605
  67   0.0000       0.022186         0.6037
  68   0.0000       0.069616         1.8943
  69   0.0000       0.106699         2.9034
  70   0.0000       0.125090         3.4039
  71   0.0000       0.134342         3.6556

MULLIKEN ATOMIC CHARGES
-----------------------
   0 S :    0.130571
   1 C :   -0.084379
   2 C :   -0.100247
   3 C :   -0.025549
   4 C :   -0.130691
   5 H :    0.041323
   6 C :    0.047804
   7 H :    0.050753
   8 H :    0.034295
   9 C :   -0.033278
  10 H :    0.029919
  11 H :    0.028165
  12 C :   -0.115093
  13 H :    0.054222
  14 H :    0.045403
  15 H :    0.046090
  16 S :    0.063237
  17 C :   -0.068289
  18 C :   -0.021112
  19 C :   -0.061985
  20 C :   -0.155148
  21 H :   -0.006576
  22 C :    0.100778
  23 H :   -0.003471
  24 H :    0.032767
  25 C :   -0.107132
  26 H :    0.031551
  27 H :    0.036272
  28 C :   -0.033413
  29 H :    0.025791
  30 H :    0.038167
  31 H :    0.034127
  32 H :    0.015206
  33 H :    0.059921
Sum of atomic charges:   -0.0000000

LOEWDIN ATOMIC CHARGES
----------------------
   0 S :    0.433729
   1 C :   -0.205633
   2 C :   -0.056793
   3 C :   -0.071406
   4 C :   -0.203990
   5 H :    0.041734
   6 C :   -0.038133
   7 H :    0.039997
   8 H :    0.037834
   9 C :   -0.044655
  10 H :    0.030907
  11 H :    0.025714
  12 C :   -0.083539
  13 H :    0.029489
  14 H :    0.036493
  15 H :    0.034241
  16 S :    0.343958
  17 C :   -0.173256
  18 C :   -0.063277
  19 C :   -0.064025
  20 C :   -0.162338
  21 H :    0.020152
  22 C :   -0.027015
  23 H :    0.019223
  24 H :    0.029964
  25 C :   -0.032823
  26 H :    0.022190
  27 H :    0.021335
  28 C :   -0.061985
  29 H :    0.015405
  30 H :    0.034971
  31 H :    0.025492
  32 H :    0.011007
  33 H :    0.035036

  Mayer bond orders larger than 0.100000
B(  0-S ,  1-C ) :   1.1375 B(  0-S ,  4-C ) :   1.1606 B(  1-C ,  2-C ) :   1.6181
B(  1-C , 32-H ) :   0.9729 B(  2-C ,  3-C ) :   1.2412 B(  2-C ,  6-C ) :   0.9820
B(  3-C ,  4-C ) :   1.5459 B(  3-C ,  5-H ) :   0.9830 B(  4-C , 20-C ) :   1.0725
B(  6-C ,  7-H ) :   0.9438 B(  6-C ,  8-H ) :   0.9351 B(  6-C ,  9-C ) :   1.0865
B(  9-C , 10-H ) :   0.9504 B(  9-C , 11-H ) :   0.9463 B(  9-C , 12-C ) :   1.0674
B( 12-C , 13-H ) :   0.9755 B( 12-C , 14-H ) :   0.9721 B( 12-C , 15-H ) :   0.9725
B( 16-S , 17-C ) :   1.1236 B( 16-S , 20-C ) :   1.1020 B( 17-C , 18-C ) :   1.6431
B( 17-C , 33-H ) :   0.9631 B( 18-C , 19-C ) :   1.2220 B( 18-C , 21-H ) :   0.9952
B( 19-C , 20-C ) :   1.6200 B( 19-C , 22-C ) :   1.0589 B( 22-C , 23-H ) :   0.9284
B( 22-C , 24-H ) :   0.9291 B( 22-C , 25-C ) :   1.0640 B( 25-C , 26-H ) :   0.9598
B( 25-C , 27-H ) :   0.9564 B( 25-C , 28-C ) :   1.0757 B( 28-C , 29-H ) :   0.9752
B( 28-C , 30-H ) :   0.9699 B( 28-C , 31-H ) :   0.9750

Dispersion correction           -0.015406006
FINAL SINGLE POINT ENERGY     -1339.861253590436

DIPOLE MOMENT
-------------
                                X             Y             Z
Electronic contribution:      8.39235       6.19055      21.26103
Nuclear contribution   :     -8.66468      -6.37917     -21.93609
                        -----------------------------------------
Total Dipole Moment    :     -0.27233      -0.18863      -0.67506
                        -----------------------------------------
Magnitude (a.u.)       :      0.75196
Magnitude (Debye)      :      1.91134

Rotational constants in cm-1:     0.018904     0.009189     0.008041
Rotational constants in MHz :   566.738256   275.470910   241.059470

                             ****ORCA TERMINATED NORMALLY****
TOTAL RUN TIME: 0 days 0 hours 0 minutes 34 seconds 188 msec
