                         Program Version 4.2.1 -  RELEASE  -
|  1> ! wB97X-D3 SP def2-SVP
|  2> %pal
|  3> nprocs 16
|  4> end
|  5>
|  6> * xyz 0 1
|  7> S 	 2.70416 	 14.0203 	 47.6402
|  8> C 	 2.10076 	 12.7735 	 46.5216
|  9> C 	 3.10547 	 11.9253 	 46.0191
| 10> C 	 4.38897 	 12.437 	 46.4367
| 11> C 	 4.33821 	 13.6108 	 47.2444
| 12> H 	 5.35157 	 11.9841 	 46.0901
| 13> C 	 2.95566 	 10.7414 	 45.0252
| 14> H 	 3.93008 	 10.2575 	 45.0587
| 15> H 	 2.58287 	 11.0054 	 43.979
| 16> C 	 1.95584 	 9.71782 	 45.5808
| 17> H 	 2.35282 	 9.30297 	 46.4635
| 18> H 	 1.01982 	 10.1846 	 45.8851
| 19> C 	 1.50285 	 8.60311 	 44.6141
| 20> H 	 1.06614 	 9.10656 	 43.8539
| 21> H 	 2.32992 	 8.0439 	 44.1239
| 22> H 	 0.812126 	 7.85309 	 45.0932
| 23> S 	 5.65983 	 15.1416 	 49.1884
| 24> C 	 7.153 	 15.8343 	 48.8653
| 25> C 	 7.48805 	 15.6572 	 47.5193
| 26> C 	 6.47322 	 14.9057 	 46.8166
| 27> C 	 5.43767 	 14.4814 	 47.5867
| 28> H 	 8.35785 	 16.0939 	 47.0647
| 29> C 	 6.6771 	 14.506 	 45.3312
| 30> H 	 5.70181 	 14.2007 	 44.8729
| 31> H 	 7.29293 	 13.5908 	 45.3917
| 32> C 	 7.39203 	 15.5045 	 44.3391
| 33> H 	 7.70029 	 14.9588 	 43.3883
| 34> H 	 8.35104 	 15.7412 	 44.8848
| 35> C 	 6.64095 	 16.7441 	 43.9496
| 36> H 	 5.93979 	 16.6274 	 43.0665
| 37> H 	 7.30535 	 17.5583 	 43.7404
| 38> H 	 5.95083 	 16.9175 	 44.8081
| 39> H 	 1.08003 	 12.4241 	 46.2759
| 40> H 	 7.58207 	 16.2612 	 49.6654
| 41> *
| 42>
| 43>                          ****END OF INPUT****

CARTESIAN COORDINATES (ANGSTROEM)
---------------------------------
  S      2.704160   14.020300   47.640200
  C      2.100760   12.773500   46.521600
  C      3.105470   11.925300   46.019100
  C      4.388970   12.437000   46.436700
  C      4.338210   13.610800   47.244400
  H      5.351570   11.984100   46.090100
  C      2.955660   10.741400   45.025200
  H      3.930080   10.257500   45.058700
  H      2.582870   11.005400   43.979000
  C      1.955840    9.717820   45.580800
  H      2.352820    9.302970   46.463500
  H      1.019820   10.184600   45.885100
  C      1.502850    8.603110   44.614100
  H      1.066140    9.106560   43.853900
  H      2.329920    8.043900   44.123900
  H      0.812126    7.853090   45.093200
  S      5.659830   15.141600   49.188400
  C      7.153000   15.834300   48.865300
  C      7.488050   15.657200   47.519300
  C      6.473220   14.905700   46.816600
  C      5.437670   14.481400   47.586700
  H      8.357850   16.093900   47.064700
  C      6.677100   14.506000   45.331200
  H      5.701810   14.200700   44.872900
  H      7.292930   13.590800   45.391700
  C      7.392030   15.504500   44.339100
  H      7.700290   14.958800   43.388300
  H      8.351040   15.741200   44.884800
  C      6.640950   16.744100   43.949600
  H      5.939790   16.627400   43.066500
  H      7.305350   17.558300   43.740400
  H      5.950830   16.917500   44.808100
  H      1.080030   12.424100   46.275900
  H      7.582070   16.261200   49.665400

 Total Charge           Charge          ....    0
 Multiplicity           Mult            ....    1
 Number of Electrons    NEL             ....  134
 Basis Dimension        Dim             ....  322

ORBITAL ENERGIES
----------------

  NO   OCC          E(Eh)            E(eV)
   0   2.0000     -88.974262     -2421.1128
   1   2.0000     -88.961247     -2420.7586
   2   2.0000     -10.333197      -281.1806
   3   2.0000     -10.322341      -280.8852
   4   2.0000     -10.320227      -280.8276
   5   2.0000     -10.312626      -280.6208
   6   2.0000     -10.307930      -280.4930
   7   2.0000     -10.306734      -280.4605
   8   2.0000     -10.304952      -280.4120
   9   2.0000     -10.303714      -280.3783
  10   2.0000     -10.298242      -280.2294
  11   2.0000     -10.297305      -280.2039
  12   2.0000     -10.295025      -280.1419
  13   2.0000     -10.282773      -279.8085
  14   2.0000     -10.277874      -279.6752
  15   2.0000     -10.277257      -279.6584
  16   2.0000      -8.088283      -220.0934
  17   2.0000      -8.078121      -219.8169
  18   2.0000      -6.046917      -164.5450
  19   2.0000      -6.042875      -164.4350
  20   2.0000      -6.038971      -164.3288
  21   2.0000      -6.036444      -164.2600
  22   2.0000      -6.032137      -164.1428
  23   2.0000      -6.029148      -164.0615
  24   2.0000      -1.012109       -27.5409
  25   2.0000      -0.983881       -26.7728
  26   2.0000      -0.914064       -24.8730
  27   2.0000      -0.903027       -24.5726
  28   2.0000      -0.872238       -23.7348
  29   2.0000      -0.854198       -23.2439
  30   2.0000      -0.842174       -22.9167
  31   2.0000      -0.807114       -21.9627
  32   2.0000      -0.784634       -21.3510
  33   2.0000      -0.776658       -21.1339
  34   2.0000      -0.708254       -19.2726
  35   2.0000      -0.698076       -18.9956
  36   2.0000      -0.696521       -18.9533
  37   2.0000      -0.658521       -17.9193
  38   2.0000      -0.629728       -17.1358
  39   2.0000      -0.615876       -16.7588
  40   2.0000      -0.603379       -16.4188
  41   2.0000      -0.573452       -15.6044
  42   2.0000      -0.567103       -15.4317
  43   2.0000      -0.553787       -15.0693
  44   2.0000      -0.533965       -14.5299
  45   2.0000      -0.526570       -14.3287
  46   2.0000      -0.517369       -14.0783
  47   2.0000      -0.512709       -13.9515
  48   2.0000      -0.507274       -13.8036
  49   2.0000      -0.502399       -13.6710
  50   2.0000      -0.490414       -13.3449
  51   2.0000      -0.477715       -12.9993
  52   2.0000      -0.468942       -12.7606
  53   2.0000      -0.465533       -12.6678
  54   2.0000      -0.460405       -12.5282
  55   2.0000      -0.448912       -12.2155
  56   2.0000      -0.444787       -12.1033
  57   2.0000      -0.436551       -11.8792
  58   2.0000      -0.431617       -11.7449
  59   2.0000      -0.430219       -11.7069
  60   2.0000      -0.420342       -11.4381
  61   2.0000      -0.411990       -11.2108
  62   2.0000      -0.403361       -10.9760
  63   2.0000      -0.349959        -9.5229
  64   2.0000      -0.334200        -9.0940
  65   2.0000      -0.329277        -8.9601
  66   2.0000      -0.289146        -7.8681
  67   0.0000       0.026840         0.7303
  68   0.0000       0.068529         1.8648
  69   0.0000       0.104359         2.8398
  70   0.0000       0.118043         3.2121
  71   0.0000       0.134181         3.6513

MULLIKEN ATOMIC CHARGES
-----------------------
   0 S :    0.132728
   1 C :   -0.115265
   2 C :   -0.122902
   3 C :    0.005036
   4 C :   -0.153830
   5 H :    0.027523
   6 C :    0.080747
   7 H :    0.027922
   8 H :    0.056602
   9 C :   -0.104686
  10 H :    0.020077
  11 H :    0.023196
  12 C :   -0.024497
  13 H :    0.003331
  14 H :    0.026406
  15 H :    0.049589
  16 S :    0.098639
  17 C :   -0.046594
  18 C :   -0.021299
  19 C :   -0.042141
  20 C :   -0.142856
  21 H :    0.018950
  22 C :   -0.004709
  23 H :    0.049706
  24 H :    0.049223
  25 C :   -0.100431
  26 H :    0.038611
  27 H :    0.029423
  28 C :   -0.046083
  29 H :    0.039505
  30 H :    0.038620
  31 H :    0.041538
  32 H :    0.048429
  33 H :    0.019491
Sum of atomic charges:    0.0000000

LOEWDIN ATOMIC CHARGES
----------------------
   0 S :    0.417213
   1 C :   -0.200348
   2 C :   -0.064295
   3 C :   -0.064245
   4 C :   -0.201237
   5 H :    0.034881
   6 C :   -0.026982
   7 H :    0.033302
   8 H :    0.041560
   9 C :   -0.040129
  10 H :    0.016638
  11 H :    0.020333
  12 C :   -0.062611
  13 H :    0.006828
  14 H :    0.025895
  15 H :    0.036489
  16 S :    0.433853
  17 C :   -0.174941
  18 C :   -0.073314
  19 C :   -0.056360
  20 C :   -0.214600
  21 H :    0.027656
  22 C :   -0.039760
  23 H :    0.032926
  24 H :    0.036039
  25 C :   -0.052938
  26 H :    0.031277
  27 H :    0.023717
  28 C :   -0.074982
  29 H :    0.032580
  30 H :    0.025241
  31 H :    0.034020
  32 H :    0.032539
  33 H :    0.003754

  Mayer bond orders larger than 0.100000
B(  0-S ,  1-C ) :   1.1405 B(  0-S ,  4-C ) :   1.1570 B(  1-C ,  2-C ) :   1.6135
B(  1-C ,  4-C ) :   0.1050 B(  1-C , 32-H ) :   0.9565 B(  2-C ,  3-C ) :   1.2670
B(  2-C ,  6-C ) :   1.0084 B(  3-C ,  4-C ) :   1.5391 B(  3-C ,  5-H ) :   0.9833
B(  4-C , 20-C ) :   1.0530 B(  6-C ,  7-H ) :   0.9387 B(  6-C ,  8-H ) :   0.9461
B(  6-C ,  9-C ) :   1.0539 B(  9-C , 10-H ) :   0.9583 B(  9-C , 11-H ) :   0.9610
B(  9-C , 12-C ) :   1.0743 B( 12-C , 13-H ) :   0.9736 B( 12-C , 14-H ) :   0.9735
B( 12-C , 15-H ) :   0.9744 B( 16-S , 17-C ) :   1.2072 B( 16-S , 20-C ) :   1.1321
B( 17-C , 18-C ) :   1.5285 B( 17-C , 33-H ) :   0.9926 B( 18-C , 19-C ) :   1.2536
B( 18-C , 21-H ) :   1.0005 B( 19-C , 20-C ) :   1.5987 B( 19-C , 22-C ) :   1.0209
B( 22-C , 23-H ) :   0.9396 B( 22-C , 24-H ) :   0.9372 B( 22-C , 25-C ) :   1.0739
B( 25-C , 26-H ) :   0.9527 B( 25-C , 27-H ) :   0.9527 B( 25-C , 28-C ) :   1.0707
B( 28-C , 29-H ) :   0.9724 B( 28-C , 30-H ) :   0.9740 B( 28-C , 31-H ) :   0.9774

Dispersion correction           -0.013728699
FINAL SINGLE POINT ENERGY     -1339.859230624353

DIPOLE MOMENT
-------------
                                X             Y             Z
Electronic contribution:     -0.66203      12.64353      23.96851
Nuclear contribution   :      0.89474     -12.94034     -24.47838
                        -----------------------------------------
Total Dipole Moment    :      0.23271      -0.29681      -0.50987
                        -----------------------------------------
Magnitude (a.u.)       :      0.63421
Magnitude (Debye)      :      1.61203

Rotational constants in cm-1:     0.020889     0.007318     0.006070
Rotational constants in MHz :   626.239448   219.374056   181.980214

                             ****ORCA TERMINATED NORMALLY****
TOTAL RUN TIME: 0 days 0 hours 0 minutes 33 seconds 917 msec
