                         Program Version 4.2.1 -  RELEASE  -
|  1> ! wB97X-D3 SP def2-SVP
|  2> %pal
|  3> nprocs 16
|  4> end
|  5>
|  6> * xyz 0 1
|  7> S 	 -44.9234 	 30.8104 	 75.4939
|  8> C 	 -43.8704 	 31.1993 	 74.1671
|  9> C 	 -42.6131 	 31.4868 	 74.6124
| 10> C 	 -42.5029 	 31.3095 	 76.0262
| 11> C 	 -43.675 	 30.8663 	 76.6082
| 12> H 	 -41.7314 	 31.7045 	 76.7185
| 13> C 	 -41.4195 	 31.9893 	 73.7816
| 14> H 	 -41.6888 	 32.5516 	 72.8764
| 15> H 	 -40.9603 	 30.9849 	 73.4779
| 16> C 	 -40.3694 	 32.8257 	 74.6351
| 17> H 	 -40.7231 	 33.7219 	 75.1133
| 18> H 	 -40.1637 	 32.3207 	 75.593
| 19> C 	 -39.0055 	 33.1443 	 73.9748
| 20> H 	 -38.4545 	 32.3575 	 73.5518
| 21> H 	 -39.1635 	 33.8814 	 73.1986
| 22> H 	 -38.4407 	 33.7692 	 74.6839
| 23> S 	 -43.0973 	 29.4674 	 78.8351
| 24> C 	 -43.4872 	 30.0092 	 80.3889
| 25> C 	 -44.323 	 31.169 	 80.3076
| 26> C 	 -44.4607 	 31.6076 	 78.9743
| 27> C 	 -43.9722 	 30.7682 	 78.0234
| 28> H 	 -44.6373 	 31.5798 	 81.2569
| 29> C 	 -45.2195 	 32.9178 	 78.6756
| 30> H 	 -44.6083 	 33.3842 	 77.9511
| 31> H 	 -45.1383 	 33.643 	 79.462
| 32> C 	 -46.6406 	 32.7907 	 78.0965
| 33> H 	 -47.4035 	 32.4517 	 78.8489
| 34> H 	 -46.5649 	 31.9823 	 77.3638
| 35> C 	 -47.2025 	 33.9968 	 77.395
| 36> H 	 -46.5764 	 34.3239 	 76.64
| 37> H 	 -47.2254 	 34.8753 	 78.0932
| 38> H 	 -48.2071 	 33.8481 	 77.0035
| 39> H 	 -44.2427 	 31.526 	 73.2183
| 40> H 	 -43.0975 	 29.5574 	 81.2664
| 41> *
| 42>
| 43>                          ****END OF INPUT****

CARTESIAN COORDINATES (ANGSTROEM)
---------------------------------
  S    -44.923400   30.810400   75.493900
  C    -43.870400   31.199300   74.167100
  C    -42.613100   31.486800   74.612400
  C    -42.502900   31.309500   76.026200
  C    -43.675000   30.866300   76.608200
  H    -41.731400   31.704500   76.718500
  C    -41.419500   31.989300   73.781600
  H    -41.688800   32.551600   72.876400
  H    -40.960300   30.984900   73.477900
  C    -40.369400   32.825700   74.635100
  H    -40.723100   33.721900   75.113300
  H    -40.163700   32.320700   75.593000
  C    -39.005500   33.144300   73.974800
  H    -38.454500   32.357500   73.551800
  H    -39.163500   33.881400   73.198600
  H    -38.440700   33.769200   74.683900
  S    -43.097300   29.467400   78.835100
  C    -43.487200   30.009200   80.388900
  C    -44.323000   31.169000   80.307600
  C    -44.460700   31.607600   78.974300
  C    -43.972200   30.768200   78.023400
  H    -44.637300   31.579800   81.256900
  C    -45.219500   32.917800   78.675600
  H    -44.608300   33.384200   77.951100
  H    -45.138300   33.643000   79.462000
  C    -46.640600   32.790700   78.096500
  H    -47.403500   32.451700   78.848900
  H    -46.564900   31.982300   77.363800
  C    -47.202500   33.996800   77.395000
  H    -46.576400   34.323900   76.640000
  H    -47.225400   34.875300   78.093200
  H    -48.207100   33.848100   77.003500
  H    -44.242700   31.526000   73.218300
  H    -43.097500   29.557400   81.266400

 Total Charge           Charge          ....    0
 Multiplicity           Mult            ....    1
 Number of Electrons    NEL             ....  134
 Basis Dimension        Dim             ....  322

ORBITAL ENERGIES
----------------

  NO   OCC          E(Eh)            E(eV)
   0   2.0000     -88.965114     -2420.8638
   1   2.0000     -88.961951     -2420.7777
   2   2.0000     -10.322511      -280.8898
   3   2.0000     -10.320772      -280.8425
   4   2.0000     -10.315722      -280.7051
   5   2.0000     -10.308407      -280.5060
   6   2.0000     -10.308232      -280.5012
   7   2.0000     -10.304485      -280.3993
   8   2.0000     -10.304008      -280.3863
   9   2.0000     -10.294597      -280.1302
  10   2.0000     -10.293848      -280.1099
  11   2.0000     -10.292404      -280.0706
  12   2.0000     -10.284925      -279.8670
  13   2.0000     -10.283089      -279.8171
  14   2.0000     -10.277531      -279.6658
  15   2.0000     -10.270102      -279.4637
  16   2.0000      -8.081175      -219.8999
  17   2.0000      -8.077648      -219.8040
  18   2.0000      -6.039478      -164.3425
  19   2.0000      -6.035870      -164.2444
  20   2.0000      -6.035379      -164.2310
  21   2.0000      -6.032179      -164.1439
  22   2.0000      -6.031729      -164.1317
  23   2.0000      -6.028934      -164.0556
  24   2.0000      -1.017179       -27.6788
  25   2.0000      -0.991941       -26.9921
  26   2.0000      -0.908030       -24.7088
  27   2.0000      -0.904810       -24.6211
  28   2.0000      -0.871886       -23.7252
  29   2.0000      -0.853673       -23.2296
  30   2.0000      -0.848729       -23.0951
  31   2.0000      -0.810792       -22.0628
  32   2.0000      -0.785919       -21.3860
  33   2.0000      -0.777259       -21.1503
  34   2.0000      -0.714723       -19.4486
  35   2.0000      -0.697327       -18.9752
  36   2.0000      -0.691002       -18.8031
  37   2.0000      -0.668563       -18.1925
  38   2.0000      -0.643553       -17.5120
  39   2.0000      -0.617520       -16.8036
  40   2.0000      -0.595835       -16.2135
  41   2.0000      -0.570333       -15.5196
  42   2.0000      -0.562440       -15.3048
  43   2.0000      -0.554626       -15.0922
  44   2.0000      -0.530922       -14.4471
  45   2.0000      -0.526924       -14.3383
  46   2.0000      -0.519064       -14.1244
  47   2.0000      -0.511650       -13.9227
  48   2.0000      -0.505399       -13.7526
  49   2.0000      -0.499307       -13.5868
  50   2.0000      -0.492687       -13.4067
  51   2.0000      -0.482396       -13.1267
  52   2.0000      -0.473263       -12.8782
  53   2.0000      -0.470932       -12.8147
  54   2.0000      -0.462566       -12.5870
  55   2.0000      -0.454528       -12.3683
  56   2.0000      -0.441854       -12.0235
  57   2.0000      -0.439509       -11.9596
  58   2.0000      -0.430010       -11.7012
  59   2.0000      -0.421861       -11.4794
  60   2.0000      -0.418374       -11.3845
  61   2.0000      -0.408766       -11.1231
  62   2.0000      -0.405482       -11.0337
  63   2.0000      -0.339318        -9.2333
  64   2.0000      -0.329577        -8.9683
  65   2.0000      -0.325076        -8.8458
  66   2.0000      -0.306592        -8.3428
  67   0.0000       0.038259         1.0411
  68   0.0000       0.063645         1.7319
  69   0.0000       0.110634         3.0105
  70   0.0000       0.130538         3.5521
  71   0.0000       0.134811         3.6684

MULLIKEN ATOMIC CHARGES
-----------------------
   0 S :    0.115457
   1 C :   -0.113967
   2 C :   -0.093025
   3 C :    0.018680
   4 C :   -0.166067
   5 H :    0.037194
   6 C :    0.068272
   7 H :    0.037153
   8 H :    0.062504
   9 C :   -0.119175
  10 H :    0.019718
  11 H :    0.030173
  12 C :   -0.013630
  13 H :    0.034080
  14 H :    0.016317
  15 H :    0.027388
  16 S :    0.112417
  17 C :   -0.099240
  18 C :   -0.040329
  19 C :   -0.016628
  20 C :   -0.181613
  21 H :    0.019226
  22 C :    0.110626
  23 H :    0.002887
  24 H :    0.005279
  25 C :   -0.065480
  26 H :    0.033243
  27 H :    0.015680
  28 C :   -0.023226
  29 H :    0.010516
  30 H :    0.022252
  31 H :    0.038768
  32 H :    0.041875
  33 H :    0.052674
Sum of atomic charges:   -0.0000000

LOEWDIN ATOMIC CHARGES
----------------------
   0 S :    0.460618
   1 C :   -0.208295
   2 C :   -0.061535
   3 C :   -0.073625
   4 C :   -0.227006
   5 H :    0.039623
   6 C :   -0.029392
   7 H :    0.029872
   8 H :    0.049966
   9 C :   -0.050519
  10 H :    0.023729
  11 H :    0.023866
  12 C :   -0.061305
  13 H :    0.018309
  14 H :    0.022891
  15 H :    0.033016
  16 S :    0.438074
  17 C :   -0.194706
  18 C :   -0.076574
  19 C :   -0.050213
  20 C :   -0.209830
  21 H :    0.031515
  22 C :   -0.027337
  23 H :    0.026338
  24 H :    0.024172
  25 C :   -0.043989
  26 H :    0.027809
  27 H :    0.010208
  28 C :   -0.061651
  29 H :    0.012693
  30 H :    0.026839
  31 H :    0.029974
  32 H :    0.024268
  33 H :    0.022196

  Mayer bond orders larger than 0.100000
B(  0-S ,  1-C ) :   1.1475 B(  0-S ,  4-C ) :   1.1993 B(  1-C ,  2-C ) :   1.6121
B(  1-C , 32-H ) :   0.9716 B(  2-C ,  3-C ) :   1.2572 B(  2-C ,  6-C ) :   0.9993
B(  3-C ,  4-C ) :   1.5648 B(  3-C ,  5-H ) :   0.9817 B(  4-C , 20-C ) :   0.9913
B(  6-C ,  7-H ) :   0.9527 B(  6-C ,  8-H ) :   0.9378 B(  6-C ,  9-C ) :   1.0501
B(  9-C , 10-H ) :   0.9570 B(  9-C , 11-H ) :   0.9464 B(  9-C , 12-C ) :   1.0924
B( 12-C , 13-H ) :   0.9788 B( 12-C , 14-H ) :   0.9719 B( 12-C , 15-H ) :   0.9693
B( 16-S , 17-C ) :   1.2170 B( 16-S , 20-C ) :   1.1428 B( 17-C , 18-C ) :   1.5337
B( 17-C , 20-C ) :   0.1076 B( 17-C , 33-H ) :   0.9738 B( 18-C , 19-C ) :   1.2681
B( 18-C , 21-H ) :   1.0024 B( 19-C , 20-C ) :   1.5880 B( 19-C , 22-C ) :   1.0344
B( 22-C , 23-H ) :   0.9215 B( 22-C , 24-H ) :   0.9332 B( 22-C , 25-C ) :   1.0605
B( 25-C , 26-H ) :   0.9534 B( 25-C , 27-H ) :   0.9473 B( 25-C , 28-C ) :   1.0921
B( 28-C , 29-H ) :   0.9715 B( 28-C , 30-H ) :   0.9730 B( 28-C , 31-H ) :   0.9712

Dispersion correction           -0.014449163
FINAL SINGLE POINT ENERGY     -1339.863449995203

DIPOLE MOMENT
-------------
                                X             Y             Z
Electronic contribution:     -5.18511     -19.86018       7.25563
Nuclear contribution   :      5.49410      20.52553      -7.26293
                        -----------------------------------------
Total Dipole Moment    :      0.30899       0.66535      -0.00730
                        -----------------------------------------
Magnitude (a.u.)       :      0.73363
Magnitude (Debye)      :      1.86475

Rotational constants in cm-1:     0.017200     0.008771     0.007272
Rotational constants in MHz :   515.642861   262.936566   218.012421

                             ****ORCA TERMINATED NORMALLY****
TOTAL RUN TIME: 0 days 0 hours 0 minutes 30 seconds 51 msec
