                         Program Version 4.2.1 -  RELEASE  -
|  1> ! wB97X-D3 SP def2-SVP
|  2> %pal
|  3> nprocs 16
|  4> end
|  5>
|  6> * xyz 0 1
|  7> S 	 53.766 	 7.46447 	 62.1405
|  8> C 	 55.0941 	 7.90917 	 63.1451
|  9> C 	 55.4831 	 9.20912 	 62.9375
| 10> C 	 54.8713 	 9.72334 	 61.7676
| 11> C 	 54.0085 	 8.89241 	 61.1317
| 12> H 	 55.1208 	 10.7248 	 61.3323
| 13> C 	 56.6312 	 9.8414 	 63.7369
| 14> H 	 57.3611 	 9.07765 	 63.7632
| 15> H 	 56.2414 	 10.1066 	 64.789
| 16> C 	 57.2022 	 11.1452 	 63.0864
| 17> H 	 57.7604 	 10.8494 	 62.1853
| 18> H 	 56.4498 	 11.8352 	 62.7247
| 19> C 	 58.1256 	 11.9558 	 64.0349
| 20> H 	 57.5377 	 12.27 	 64.9003
| 21> H 	 59.0975 	 11.4996 	 64.2718
| 22> H 	 58.3292 	 12.8835 	 63.5299
| 23> S 	 51.4635 	 9.71204 	 60.5431
| 24> C 	 50.9711 	 9.74115 	 58.9135
| 25> C 	 52.0266 	 9.66943 	 58.0482
| 26> C 	 53.2777 	 9.42828 	 58.7333
| 27> C 	 53.1043 	 9.22336 	 60.0763
| 28> H 	 51.8689 	 9.93004 	 57.0039
| 29> C 	 54.5788 	 9.48643 	 58.0175
| 30> H 	 55.1974 	 10.1736 	 58.5664
| 31> H 	 54.4306 	 9.98296 	 57.0067
| 32> C 	 55.3837 	 8.15287 	 57.8099
| 33> H 	 55.5668 	 7.74215 	 58.795
| 34> H 	 56.2916 	 8.31201 	 57.2821
| 35> C 	 54.6423 	 7.00616 	 57.1171
| 36> H 	 53.5585 	 7.19557 	 57.3913
| 37> H 	 54.8585 	 6.05045 	 57.5531
| 38> H 	 54.8639 	 7.0489 	 56.0717
| 39> H 	 55.5838 	 7.26797 	 63.8688
| 40> H 	 49.9503 	 10.0113 	 58.5731
| 41> *
| 42>
| 43>                          ****END OF INPUT****

CARTESIAN COORDINATES (ANGSTROEM)
---------------------------------
  S     53.766000    7.464470   62.140500
  C     55.094100    7.909170   63.145100
  C     55.483100    9.209120   62.937500
  C     54.871300    9.723340   61.767600
  C     54.008500    8.892410   61.131700
  H     55.120800   10.724800   61.332300
  C     56.631200    9.841400   63.736900
  H     57.361100    9.077650   63.763200
  H     56.241400   10.106600   64.789000
  C     57.202200   11.145200   63.086400
  H     57.760400   10.849400   62.185300
  H     56.449800   11.835200   62.724700
  C     58.125600   11.955800   64.034900
  H     57.537700   12.270000   64.900300
  H     59.097500   11.499600   64.271800
  H     58.329200   12.883500   63.529900
  S     51.463500    9.712040   60.543100
  C     50.971100    9.741150   58.913500
  C     52.026600    9.669430   58.048200
  C     53.277700    9.428280   58.733300
  C     53.104300    9.223360   60.076300
  H     51.868900    9.930040   57.003900
  C     54.578800    9.486430   58.017500
  H     55.197400   10.173600   58.566400
  H     54.430600    9.982960   57.006700
  C     55.383700    8.152870   57.809900
  H     55.566800    7.742150   58.795000
  H     56.291600    8.312010   57.282100
  C     54.642300    7.006160   57.117100
  H     53.558500    7.195570   57.391300
  H     54.858500    6.050450   57.553100
  H     54.863900    7.048900   56.071700
  H     55.583800    7.267970   63.868800
  H     49.950300   10.011300   58.573100

 Total Charge           Charge          ....    0
 Multiplicity           Mult            ....    1
 Number of Electrons    NEL             ....  134
 Basis Dimension        Dim             ....  322

ORBITAL ENERGIES
----------------

  NO   OCC          E(Eh)            E(eV)
   0   2.0000     -88.964285     -2420.8413
   1   2.0000     -88.961750     -2420.7723
   2   2.0000     -10.322786      -280.8973
   3   2.0000     -10.320659      -280.8394
   4   2.0000     -10.312991      -280.6308
   5   2.0000     -10.310695      -280.5683
   6   2.0000     -10.301429      -280.3161
   7   2.0000     -10.300325      -280.2861
   8   2.0000     -10.297822      -280.2180
   9   2.0000     -10.295286      -280.1490
  10   2.0000     -10.292253      -280.0664
  11   2.0000     -10.291536      -280.0469
  12   2.0000     -10.290326      -280.0140
  13   2.0000     -10.280826      -279.7555
  14   2.0000     -10.276524      -279.6384
  15   2.0000     -10.267276      -279.3868
  16   2.0000      -8.079354      -219.8504
  17   2.0000      -8.077281      -219.7940
  18   2.0000      -6.037754      -164.2956
  19   2.0000      -6.035753      -164.2412
  20   2.0000      -6.033906      -164.1909
  21   2.0000      -6.031829      -164.1344
  22   2.0000      -6.030102      -164.0874
  23   2.0000      -6.027873      -164.0268
  24   2.0000      -1.012356       -27.5476
  25   2.0000      -0.989659       -26.9300
  26   2.0000      -0.907935       -24.7062
  27   2.0000      -0.904710       -24.6184
  28   2.0000      -0.873999       -23.7827
  29   2.0000      -0.849489       -23.1158
  30   2.0000      -0.845811       -23.0157
  31   2.0000      -0.816708       -22.2237
  32   2.0000      -0.782948       -21.3051
  33   2.0000      -0.769876       -20.9494
  34   2.0000      -0.714894       -19.4532
  35   2.0000      -0.693467       -18.8702
  36   2.0000      -0.681894       -18.5553
  37   2.0000      -0.657622       -17.8948
  38   2.0000      -0.640787       -17.4367
  39   2.0000      -0.618739       -16.8367
  40   2.0000      -0.589504       -16.0412
  41   2.0000      -0.571248       -15.5444
  42   2.0000      -0.567797       -15.4505
  43   2.0000      -0.556532       -15.1440
  44   2.0000      -0.544907       -14.8277
  45   2.0000      -0.524448       -14.2710
  46   2.0000      -0.517654       -14.0861
  47   2.0000      -0.506085       -13.7713
  48   2.0000      -0.501850       -13.6560
  49   2.0000      -0.494489       -13.4557
  50   2.0000      -0.488544       -13.2940
  51   2.0000      -0.482315       -13.1245
  52   2.0000      -0.471939       -12.8421
  53   2.0000      -0.464262       -12.6332
  54   2.0000      -0.457027       -12.4363
  55   2.0000      -0.450129       -12.2486
  56   2.0000      -0.441624       -12.0172
  57   2.0000      -0.436660       -11.8821
  58   2.0000      -0.434563       -11.8251
  59   2.0000      -0.426215       -11.5979
  60   2.0000      -0.422273       -11.4906
  61   2.0000      -0.416929       -11.3452
  62   2.0000      -0.398732       -10.8501
  63   2.0000      -0.340479        -9.2649
  64   2.0000      -0.328437        -8.9372
  65   2.0000      -0.322750        -8.7825
  66   2.0000      -0.302586        -8.2338
  67   0.0000       0.039385         1.0717
  68   0.0000       0.051443         1.3998
  69   0.0000       0.108333         2.9479
  70   0.0000       0.125156         3.4057
  71   0.0000       0.135837         3.6963

MULLIKEN ATOMIC CHARGES
-----------------------
   0 S :    0.117563
   1 C :   -0.120936
   2 C :   -0.088626
   3 C :    0.018094
   4 C :   -0.167271
   5 H :    0.027064
   6 C :    0.072506
   7 H :    0.030437
   8 H :    0.051328
   9 C :   -0.130469
  10 H :    0.032867
  11 H :    0.037951
  12 C :   -0.026332
  13 H :    0.031511
  14 H :    0.043539
  15 H :    0.021081
  16 S :    0.117327
  17 C :   -0.093397
  18 C :   -0.041334
  19 C :   -0.039626
  20 C :   -0.179414
  21 H :    0.022090
  22 C :    0.071840
  23 H :    0.022988
  24 H :    0.024521
  25 C :   -0.063410
  26 H :    0.030127
  27 H :    0.022635
  28 C :   -0.058606
  29 H :    0.040291
  30 H :    0.031358
  31 H :    0.031379
  32 H :    0.045862
  33 H :    0.065062
Sum of atomic charges:   -0.0000000

LOEWDIN ATOMIC CHARGES
----------------------
   0 S :    0.412113
   1 C :   -0.195728
   2 C :   -0.072027
   3 C :   -0.060943
   4 C :   -0.204681
   5 H :    0.037630
   6 C :   -0.028358
   7 H :    0.027888
   8 H :    0.041498
   9 C :   -0.045664
  10 H :    0.025622
  11 H :    0.022212
  12 C :   -0.063793
  13 H :    0.026226
  14 H :    0.027562
  15 H :    0.024789
  16 S :    0.413607
  17 C :   -0.199975
  18 C :   -0.079348
  19 C :   -0.056111
  20 C :   -0.196918
  21 H :    0.033596
  22 C :   -0.034215
  23 H :    0.029557
  24 H :    0.034309
  25 C :   -0.036014
  26 H :    0.024395
  27 H :    0.017596
  28 C :   -0.067875
  29 H :    0.035592
  30 H :    0.023557
  31 H :    0.019159
  32 H :    0.028624
  33 H :    0.036119

  Mayer bond orders larger than 0.100000
B(  0-S ,  1-C ) :   1.1575 B(  0-S ,  4-C ) :   1.1334 B(  1-C ,  2-C ) :   1.6067
B(  1-C ,  4-C ) :   0.1039 B(  1-C , 32-H ) :   0.9710 B(  2-C ,  3-C ) :   1.2655
B(  2-C ,  6-C ) :   0.9939 B(  3-C ,  4-C ) :   1.5791 B(  3-C ,  5-H ) :   0.9823
B(  4-C , 20-C ) :   1.0433 B(  6-C ,  7-H ) :   0.9457 B(  6-C ,  8-H ) :   0.9390
B(  6-C ,  9-C ) :   1.0791 B(  9-C , 10-H ) :   0.9532 B(  9-C , 11-H ) :   0.9529
B(  9-C , 12-C ) :   1.0906 B( 12-C , 13-H ) :   0.9737 B( 12-C , 14-H ) :   0.9759
B( 12-C , 15-H ) :   0.9722 B( 16-S , 17-C ) :   1.1633 B( 16-S , 20-C ) :   1.1387
B( 17-C , 18-C ) :   1.6215 B( 17-C , 33-H ) :   0.9594 B( 18-C , 19-C ) :   1.2172
B( 18-C , 21-H ) :   0.9901 B( 19-C , 20-C ) :   1.6119 B( 19-C , 22-C ) :   1.0467
B( 22-C , 23-H ) :   0.9290 B( 22-C , 24-H ) :   0.9375 B( 22-C , 25-C ) :   1.0696
B( 25-C , 26-H ) :   0.9604 B( 25-C , 27-H ) :   0.9611 B( 25-C , 28-C ) :   1.0717
B( 28-C , 29-H ) :   0.9742 B( 28-C , 30-H ) :   0.9782 B( 28-C , 31-H ) :   0.9794

Dispersion correction           -0.014409392
FINAL SINGLE POINT ENERGY     -1339.872309186574

DIPOLE MOMENT
-------------
                                X             Y             Z
Electronic contribution:    -22.32734      -6.53640       4.35743
Nuclear contribution   :     22.89295       6.99351      -4.40237
                        -----------------------------------------
Total Dipole Moment    :      0.56560       0.45711      -0.04494
                        -----------------------------------------
Magnitude (a.u.)       :      0.72861
Magnitude (Debye)      :      1.85199

Rotational constants in cm-1:     0.019026     0.008016     0.007425
Rotational constants in MHz :   570.388114   240.313243   222.596567

                             ****ORCA TERMINATED NORMALLY****
TOTAL RUN TIME: 0 days 0 hours 0 minutes 28 seconds 959 msec
