                         Program Version 4.2.1 -  RELEASE  -
|  1> ! wB97X-D3 SP def2-SVP
|  2> %pal
|  3> nprocs 16
|  4> end
|  5>
|  6> * xyz 0 1
|  7> S 	 -14.8722 	 36.1533 	 38.0761
|  8> C 	 -15.1958 	 37.5258 	 39.0256
|  9> C 	 -15.2367 	 38.7046 	 38.2798
| 10> C 	 -15.0277 	 38.4272 	 36.888
| 11> C 	 -14.9384 	 37.1001 	 36.6208
| 12> H 	 -14.8655 	 39.0972 	 36.0723
| 13> C 	 -15.4427 	 40.1144 	 38.8169
| 14> H 	 -16.0011 	 40.7335 	 38.0737
| 15> H 	 -14.4539 	 40.6133 	 39.0912
| 16> C 	 -16.3297 	 40.1198 	 40.1074
| 17> H 	 -15.8825 	 39.5946 	 40.8654
| 18> H 	 -16.3123 	 41.1221 	 40.4875
| 19> C 	 -17.775 	 39.522 	 40.0116
| 20> H 	 -18.6101 	 40.1022 	 39.546
| 21> H 	 -17.799 	 38.6148 	 39.5204
| 22> H 	 -18.043 	 39.2877 	 41.0527
| 23> S 	 -13.3968 	 35.5448 	 35.0055
| 24> C 	 -13.6612 	 35.6957 	 33.3017
| 25> C 	 -14.8756 	 36.2646 	 33.0282
| 26> C 	 -15.5469 	 36.756 	 34.1412
| 27> C 	 -14.8219 	 36.4883 	 35.2829
| 28> H 	 -15.212 	 36.4159 	 32.0217
| 29> C 	 -16.808 	 37.5653 	 34.0984
| 30> H 	 -17.0483 	 37.7114 	 35.1583
| 31> H 	 -17.5943 	 36.9327 	 33.739
| 32> C 	 -16.6904 	 38.8837 	 33.2691
| 33> H 	 -16.3579 	 38.6891 	 32.2348
| 34> H 	 -15.7634 	 39.321 	 33.5408
| 35> C 	 -17.8261 	 39.8696 	 33.3369
| 36> H 	 -18.7841 	 39.31 	 33.3339
| 37> H 	 -17.8018 	 40.6628 	 32.5722
| 38> H 	 -17.8245 	 40.3774 	 34.2956
| 39> H 	 -15.2443 	 37.3777 	 40.1218
| 40> H 	 -13.0339 	 35.3327 	 32.4381
| 41> *
| 42>
| 43>                          ****END OF INPUT****

CARTESIAN COORDINATES (ANGSTROEM)
---------------------------------
  S    -14.872200   36.153300   38.076100
  C    -15.195800   37.525800   39.025600
  C    -15.236700   38.704600   38.279800
  C    -15.027700   38.427200   36.888000
  C    -14.938400   37.100100   36.620800
  H    -14.865500   39.097200   36.072300
  C    -15.442700   40.114400   38.816900
  H    -16.001100   40.733500   38.073700
  H    -14.453900   40.613300   39.091200
  C    -16.329700   40.119800   40.107400
  H    -15.882500   39.594600   40.865400
  H    -16.312300   41.122100   40.487500
  C    -17.775000   39.522000   40.011600
  H    -18.610100   40.102200   39.546000
  H    -17.799000   38.614800   39.520400
  H    -18.043000   39.287700   41.052700
  S    -13.396800   35.544800   35.005500
  C    -13.661200   35.695700   33.301700
  C    -14.875600   36.264600   33.028200
  C    -15.546900   36.756000   34.141200
  C    -14.821900   36.488300   35.282900
  H    -15.212000   36.415900   32.021700
  C    -16.808000   37.565300   34.098400
  H    -17.048300   37.711400   35.158300
  H    -17.594300   36.932700   33.739000
  C    -16.690400   38.883700   33.269100
  H    -16.357900   38.689100   32.234800
  H    -15.763400   39.321000   33.540800
  C    -17.826100   39.869600   33.336900
  H    -18.784100   39.310000   33.333900
  H    -17.801800   40.662800   32.572200
  H    -17.824500   40.377400   34.295600
  H    -15.244300   37.377700   40.121800
  H    -13.033900   35.332700   32.438100

 Total Charge           Charge          ....    0
 Multiplicity           Mult            ....    1
 Number of Electrons    NEL             ....  134
 Basis Dimension        Dim             ....  322

ORBITAL ENERGIES
----------------

  NO   OCC          E(Eh)            E(eV)
   0   2.0000     -88.967216     -2420.9210
   1   2.0000     -88.963014     -2420.8067
   2   2.0000     -10.321874      -280.8725
   3   2.0000     -10.320283      -280.8292
   4   2.0000     -10.316912      -280.7374
   5   2.0000     -10.313553      -280.6461
   6   2.0000     -10.303444      -280.3710
   7   2.0000     -10.301896      -280.3288
   8   2.0000     -10.295714      -280.1606
   9   2.0000     -10.289679      -279.9964
  10   2.0000     -10.288236      -279.9571
  11   2.0000     -10.285798      -279.8908
  12   2.0000     -10.285164      -279.8735
  13   2.0000     -10.281687      -279.7789
  14   2.0000     -10.281373      -279.7704
  15   2.0000     -10.273659      -279.5605
  16   2.0000      -8.082663      -219.9404
  17   2.0000      -8.079260      -219.8478
  18   2.0000      -6.041068      -164.3858
  19   2.0000      -6.037567      -164.2906
  20   2.0000      -6.037151      -164.2792
  21   2.0000      -6.033638      -164.1836
  22   2.0000      -6.033404      -164.1773
  23   2.0000      -6.030089      -164.0871
  24   2.0000      -1.014719       -27.6119
  25   2.0000      -0.992328       -27.0026
  26   2.0000      -0.910632       -24.7795
  27   2.0000      -0.905146       -24.6303
  28   2.0000      -0.867130       -23.5958
  29   2.0000      -0.858734       -23.3673
  30   2.0000      -0.848708       -23.0945
  31   2.0000      -0.812910       -22.1204
  32   2.0000      -0.783939       -21.3321
  33   2.0000      -0.771324       -20.9888
  34   2.0000      -0.710158       -19.3244
  35   2.0000      -0.707970       -19.2648
  36   2.0000      -0.691519       -18.8172
  37   2.0000      -0.663389       -18.0517
  38   2.0000      -0.645492       -17.5647
  39   2.0000      -0.610325       -16.6078
  40   2.0000      -0.594896       -16.1879
  41   2.0000      -0.572210       -15.5706
  42   2.0000      -0.554278       -15.0827
  43   2.0000      -0.546122       -14.8607
  44   2.0000      -0.532670       -14.4947
  45   2.0000      -0.528525       -14.3819
  46   2.0000      -0.519370       -14.1328
  47   2.0000      -0.513246       -13.9661
  48   2.0000      -0.506355       -13.7786
  49   2.0000      -0.491779       -13.3820
  50   2.0000      -0.489657       -13.3242
  51   2.0000      -0.481053       -13.0901
  52   2.0000      -0.475745       -12.9457
  53   2.0000      -0.467159       -12.7121
  54   2.0000      -0.459691       -12.5088
  55   2.0000      -0.450960       -12.2713
  56   2.0000      -0.443049       -12.0560
  57   2.0000      -0.439131       -11.9494
  58   2.0000      -0.436744       -11.8844
  59   2.0000      -0.433786       -11.8039
  60   2.0000      -0.421901       -11.4805
  61   2.0000      -0.419230       -11.4078
  62   2.0000      -0.406309       -11.0562
  63   2.0000      -0.347483        -9.4555
  64   2.0000      -0.334574        -9.1042
  65   2.0000      -0.328109        -8.9283
  66   2.0000      -0.291180        -7.9234
  67   0.0000       0.038131         1.0376
  68   0.0000       0.069068         1.8794
  69   0.0000       0.111613         3.0371
  70   0.0000       0.125841         3.4243
  71   0.0000       0.128813         3.5052

MULLIKEN ATOMIC CHARGES
-----------------------
   0 S :    0.113023
   1 C :   -0.147979
   2 C :   -0.080440
   3 C :    0.030732
   4 C :   -0.169132
   5 H :    0.006954
   6 C :    0.049469
   7 H :    0.037892
   8 H :    0.058804
   9 C :   -0.051774
  10 H :    0.001457
  11 H :    0.018254
  12 C :   -0.048770
  13 H :    0.039313
  14 H :    0.021891
  15 H :    0.026598
  16 S :    0.124720
  17 C :   -0.104726
  18 C :   -0.044627
  19 C :   -0.045557
  20 C :   -0.161017
  21 H :    0.007181
  22 C :    0.109229
  23 H :    0.028867
  24 H :    0.024469
  25 C :   -0.080937
  26 H :    0.016885
  27 H :    0.004770
  28 C :   -0.019800
  29 H :    0.032092
  30 H :    0.041254
  31 H :    0.026483
  32 H :    0.063813
  33 H :    0.070609
Sum of atomic charges:   -0.0000000

LOEWDIN ATOMIC CHARGES
----------------------
   0 S :    0.423691
   1 C :   -0.216832
   2 C :   -0.066983
   3 C :   -0.061785
   4 C :   -0.198946
   5 H :    0.031161
   6 C :   -0.033889
   7 H :    0.033509
   8 H :    0.043922
   9 C :   -0.035198
  10 H :    0.009688
  11 H :    0.023411
  12 C :   -0.065727
  13 H :    0.029067
  14 H :    0.013657
  15 H :    0.030344
  16 S :    0.423084
  17 C :   -0.199875
  18 C :   -0.072950
  19 C :   -0.057359
  20 C :   -0.204901
  21 H :    0.027438
  22 C :   -0.026182
  23 H :    0.033950
  24 H :    0.029270
  25 C :   -0.049388
  26 H :    0.025395
  27 H :    0.017002
  28 C :   -0.065500
  29 H :    0.029909
  30 H :    0.031142
  31 H :    0.025238
  32 H :    0.031158
  33 H :    0.043481

  Mayer bond orders larger than 0.100000
B(  0-S ,  1-C ) :   1.1565 B(  0-S ,  4-C ) :   1.1599 B(  1-C ,  2-C ) :   1.5886
B(  1-C , 32-H ) :   0.9672 B(  2-C ,  3-C ) :   1.2323 B(  2-C ,  6-C ) :   1.0144
B(  3-C ,  4-C ) :   1.5916 B(  3-C ,  5-H ) :   1.0040 B(  4-C , 20-C ) :   0.9858
B(  6-C ,  7-H ) :   0.9501 B(  6-C ,  8-H ) :   0.9350 B(  6-C ,  9-C ) :   1.0817
B(  9-C , 10-H ) :   0.9519 B(  9-C , 11-H ) :   0.9542 B(  9-C , 12-C ) :   1.0678
B( 12-C , 13-H ) :   0.9781 B( 12-C , 14-H ) :   0.9743 B( 12-C , 15-H ) :   0.9760
B( 16-S , 17-C ) :   1.1551 B( 16-S , 20-C ) :   1.1568 B( 17-C , 18-C ) :   1.6103
B( 17-C , 33-H ) :   0.9581 B( 18-C , 19-C ) :   1.2479 B( 18-C , 21-H ) :   0.9937
B( 19-C , 20-C ) :   1.5974 B( 19-C , 22-C ) :   1.0488 B( 22-C , 23-H ) :   0.9311
B( 22-C , 24-H ) :   0.9198 B( 22-C , 25-C ) :   1.0457 B( 25-C , 26-H ) :   0.9491
B( 25-C , 27-H ) :   0.9503 B( 25-C , 28-C ) :   1.0844 B( 28-C , 29-H ) :   0.9733
B( 28-C , 30-H ) :   0.9734 B( 28-C , 31-H ) :   0.9733

Dispersion correction           -0.014733867
FINAL SINGLE POINT ENERGY     -1339.876375832642

DIPOLE MOMENT
-------------
                                X             Y             Z
Electronic contribution:     18.56539     -23.06810      -1.38262
Nuclear contribution   :    -18.74690      23.61131       1.22217
                        -----------------------------------------
Total Dipole Moment    :     -0.18151       0.54322      -0.16045
                        -----------------------------------------
Magnitude (a.u.)       :      0.59479
Magnitude (Debye)      :      1.51183

Rotational constants in cm-1:     0.018500     0.009348     0.006735
Rotational constants in MHz :   554.617054   280.235303   201.915148

                             ****ORCA TERMINATED NORMALLY****
TOTAL RUN TIME: 0 days 0 hours 0 minutes 35 seconds 529 msec
