                         Program Version 4.2.1 -  RELEASE  -
|  1> ! wB97X-D3 SP def2-SVP
|  2> %pal
|  3> nprocs 16
|  4> end
|  5>
|  6> * xyz 0 1
|  7> S 	 -39.7811 	 28.2998 	 75.3049
|  8> C 	 -39.2347 	 27.5573 	 73.883
|  9> C 	 -38.0099 	 26.9548 	 73.9994
| 10> C 	 -37.6495 	 26.93 	 75.4106
| 11> C 	 -38.4508 	 27.7211 	 76.2025
| 12> H 	 -36.7217 	 26.4616 	 75.863
| 13> C 	 -37.2192 	 26.1491 	 72.9655
| 14> H 	 -37.8969 	 25.5417 	 72.4038
| 15> H 	 -36.6787 	 25.421 	 73.5036
| 16> C 	 -36.307 	 26.9584 	 71.9289
| 17> H 	 -36.8167 	 27.8519 	 71.6005
| 18> H 	 -35.322 	 27.2475 	 72.2923
| 19> C 	 -36.0788 	 25.9916 	 70.7385
| 20> H 	 -35.5543 	 25.1003 	 70.9929
| 21> H 	 -36.999 	 25.6502 	 70.233
| 22> H 	 -35.4392 	 26.4336 	 70.033
| 23> S 	 -39.218 	 27.3923 	 78.8227
| 24> C 	 -38.5712 	 28.4349 	 80.0812
| 25> C 	 -37.571 	 29.2431 	 79.4931
| 26> C 	 -37.3828 	 29.0665 	 78.1481
| 27> C 	 -38.2396 	 28.1012 	 77.6116
| 28> H 	 -37.1456 	 29.8746 	 80.1832
| 29> C 	 -36.4572 	 30.0188 	 77.3218
| 30> H 	 -36.8065 	 31.0602 	 77.4878
| 31> H 	 -36.5376 	 29.9216 	 76.2719
| 32> C 	 -34.9994 	 29.7627 	 77.6558
| 33> H 	 -34.9455 	 29.5882 	 78.6828
| 34> H 	 -34.4787 	 30.6736 	 77.5697
| 35> C 	 -34.3992 	 28.603 	 76.885
| 36> H 	 -34.2617 	 28.8301 	 75.8292
| 37> H 	 -34.9299 	 27.6442 	 76.932
| 38> H 	 -33.395 	 28.3857 	 77.3036
| 39> H 	 -39.8329 	 27.5532 	 72.9455
| 40> H 	 -38.7003 	 28.2824 	 81.1677
| 41> *
| 42>
| 43>                          ****END OF INPUT****

CARTESIAN COORDINATES (ANGSTROEM)
---------------------------------
  S    -39.781100   28.299800   75.304900
  C    -39.234700   27.557300   73.883000
  C    -38.009900   26.954800   73.999400
  C    -37.649500   26.930000   75.410600
  C    -38.450800   27.721100   76.202500
  H    -36.721700   26.461600   75.863000
  C    -37.219200   26.149100   72.965500
  H    -37.896900   25.541700   72.403800
  H    -36.678700   25.421000   73.503600
  C    -36.307000   26.958400   71.928900
  H    -36.816700   27.851900   71.600500
  H    -35.322000   27.247500   72.292300
  C    -36.078800   25.991600   70.738500
  H    -35.554300   25.100300   70.992900
  H    -36.999000   25.650200   70.233000
  H    -35.439200   26.433600   70.033000
  S    -39.218000   27.392300   78.822700
  C    -38.571200   28.434900   80.081200
  C    -37.571000   29.243100   79.493100
  C    -37.382800   29.066500   78.148100
  C    -38.239600   28.101200   77.611600
  H    -37.145600   29.874600   80.183200
  C    -36.457200   30.018800   77.321800
  H    -36.806500   31.060200   77.487800
  H    -36.537600   29.921600   76.271900
  C    -34.999400   29.762700   77.655800
  H    -34.945500   29.588200   78.682800
  H    -34.478700   30.673600   77.569700
  C    -34.399200   28.603000   76.885000
  H    -34.261700   28.830100   75.829200
  H    -34.929900   27.644200   76.932000
  H    -33.395000   28.385700   77.303600
  H    -39.832900   27.553200   72.945500
  H    -38.700300   28.282400   81.167700

 Total Charge           Charge          ....    0
 Multiplicity           Mult            ....    1
 Number of Electrons    NEL             ....  134
 Basis Dimension        Dim             ....  322

ORBITAL ENERGIES
----------------

  NO   OCC          E(Eh)            E(eV)
   0   2.0000     -88.965808     -2420.8827
   1   2.0000     -88.963314     -2420.8149
   2   2.0000     -10.323022      -280.9037
   3   2.0000     -10.321134      -280.8523
   4   2.0000     -10.318622      -280.7840
   5   2.0000     -10.310394      -280.5601
   6   2.0000     -10.300286      -280.2850
   7   2.0000     -10.300132      -280.2808
   8   2.0000     -10.296116      -280.1716
   9   2.0000     -10.293171      -280.0914
  10   2.0000     -10.291353      -280.0419
  11   2.0000     -10.286559      -279.9115
  12   2.0000     -10.285502      -279.8827
  13   2.0000     -10.276550      -279.6391
  14   2.0000     -10.273093      -279.5451
  15   2.0000     -10.272283      -279.5230
  16   2.0000      -8.080774      -219.8890
  17   2.0000      -8.079954      -219.8667
  18   2.0000      -6.039081      -164.3317
  19   2.0000      -6.038305      -164.3106
  20   2.0000      -6.034949      -164.2193
  21   2.0000      -6.034103      -164.1963
  22   2.0000      -6.032051      -164.1405
  23   2.0000      -6.030856      -164.1079
  24   2.0000      -1.012209       -27.5436
  25   2.0000      -0.990392       -26.9499
  26   2.0000      -0.910613       -24.7790
  27   2.0000      -0.904744       -24.6193
  28   2.0000      -0.868080       -23.6216
  29   2.0000      -0.849361       -23.1123
  30   2.0000      -0.847501       -23.0617
  31   2.0000      -0.811014       -22.0688
  32   2.0000      -0.781745       -21.2724
  33   2.0000      -0.772938       -21.0327
  34   2.0000      -0.710545       -19.3349
  35   2.0000      -0.703740       -19.1497
  36   2.0000      -0.693717       -18.8770
  37   2.0000      -0.657931       -17.9032
  38   2.0000      -0.643746       -17.5172
  39   2.0000      -0.617118       -16.7926
  40   2.0000      -0.599910       -16.3244
  41   2.0000      -0.570932       -15.5359
  42   2.0000      -0.559351       -15.2207
  43   2.0000      -0.550104       -14.9691
  44   2.0000      -0.533390       -14.5143
  45   2.0000      -0.524750       -14.2792
  46   2.0000      -0.520233       -14.1563
  47   2.0000      -0.508822       -13.8458
  48   2.0000      -0.500494       -13.6191
  49   2.0000      -0.497605       -13.5405
  50   2.0000      -0.489191       -13.3116
  51   2.0000      -0.476575       -12.9683
  52   2.0000      -0.473990       -12.8979
  53   2.0000      -0.464672       -12.6444
  54   2.0000      -0.459102       -12.4928
  55   2.0000      -0.448088       -12.1931
  56   2.0000      -0.443842       -12.0776
  57   2.0000      -0.438050       -11.9199
  58   2.0000      -0.432254       -11.7622
  59   2.0000      -0.427827       -11.6418
  60   2.0000      -0.425360       -11.5746
  61   2.0000      -0.418418       -11.3857
  62   2.0000      -0.410895       -11.1810
  63   2.0000      -0.337744        -9.1905
  64   2.0000      -0.328454        -8.9377
  65   2.0000      -0.324190        -8.8217
  66   2.0000      -0.306212        -8.3325
  67   0.0000       0.043803         1.1919
  68   0.0000       0.063274         1.7218
  69   0.0000       0.123342         3.3563
  70   0.0000       0.128817         3.5053
  71   0.0000       0.134032         3.6472

MULLIKEN ATOMIC CHARGES
-----------------------
   0 S :    0.137485
   1 C :   -0.137197
   2 C :   -0.089198
   3 C :    0.013104
   4 C :   -0.175623
   5 H :    0.034969
   6 C :    0.082714
   7 H :    0.014506
   8 H :    0.007552
   9 C :   -0.044515
  10 H :    0.033882
  11 H :    0.033714
  12 C :   -0.051093
  13 H :    0.019888
  14 H :    0.033707
  15 H :    0.017895
  16 S :    0.123002
  17 C :   -0.130418
  18 C :   -0.034481
  19 C :    0.019307
  20 C :   -0.199214
  21 H :   -0.009764
  22 C :    0.078410
  23 H :    0.036034
  24 H :    0.010565
  25 C :   -0.013983
  26 H :    0.002611
  27 H :    0.010151
  28 C :   -0.047453
  29 H :    0.030951
  30 H :    0.029180
  31 H :    0.029750
  32 H :    0.059356
  33 H :    0.074205
Sum of atomic charges:   -0.0000000

LOEWDIN ATOMIC CHARGES
----------------------
   0 S :    0.448139
   1 C :   -0.216953
   2 C :   -0.070219
   3 C :   -0.066359
   4 C :   -0.221937
   5 H :    0.038327
   6 C :   -0.024010
   7 H :    0.027823
   8 H :    0.025184
   9 C :   -0.025072
  10 H :    0.023330
  11 H :    0.025158
  12 C :   -0.065410
  13 H :    0.021102
  14 H :    0.026276
  15 H :    0.017704
  16 S :    0.433615
  17 C :   -0.197772
  18 C :   -0.064608
  19 C :   -0.056111
  20 C :   -0.219534
  21 H :    0.018609
  22 C :   -0.020337
  23 H :    0.034846
  24 H :    0.022059
  25 C :   -0.037202
  26 H :    0.015334
  27 H :    0.020810
  28 C :   -0.063157
  29 H :    0.024024
  30 H :    0.024818
  31 H :    0.029822
  32 H :    0.034543
  33 H :    0.037157

  Mayer bond orders larger than 0.100000
B(  0-S ,  1-C ) :   1.1649 B(  0-S ,  4-C ) :   1.1691 B(  1-C ,  2-C ) :   1.6038
B(  1-C , 32-H ) :   0.9623 B(  2-C ,  3-C ) :   1.2470 B(  2-C ,  6-C ) :   1.0153
B(  3-C ,  4-C ) :   1.6031 B(  3-C ,  5-H ) :   0.9774 B(  4-C , 20-C ) :   0.9882
B(  6-C ,  7-H ) :   0.9519 B(  6-C ,  8-H ) :   0.9393 B(  6-C ,  9-C ) :   1.0412
B(  9-C , 10-H ) :   0.9638 B(  9-C , 11-H ) :   0.9576 B(  9-C , 12-C ) :   1.0788
B( 12-C , 13-H ) :   0.9743 B( 12-C , 14-H ) :   0.9768 B( 12-C , 15-H ) :   0.9731
B( 16-S , 17-C ) :   1.1761 B( 16-S , 20-C ) :   1.1972 B( 17-C , 18-C ) :   1.5554
B( 17-C , 20-C ) :   0.1206 B( 17-C , 33-H ) :   0.9640 B( 18-C , 19-C ) :   1.2861
B( 18-C , 21-H ) :   1.0052 B( 19-C , 20-C ) :   1.5351 B( 19-C , 22-C ) :   1.0308
B( 22-C , 23-H ) :   0.9458 B( 22-C , 24-H ) :   0.9364 B( 22-C , 25-C ) :   1.0632
B( 25-C , 26-H ) :   0.9578 B( 25-C , 27-H ) :   0.9473 B( 25-C , 28-C ) :   1.0809
B( 28-C , 29-H ) :   0.9744 B( 28-C , 30-H ) :   0.9725 B( 28-C , 31-H ) :   0.9690

Dispersion correction           -0.014629132
FINAL SINGLE POINT ENERGY     -1339.872166213324

DIPOLE MOMENT
-------------
                                X             Y             Z
Electronic contribution:    -24.20601       1.12370      17.60134
Nuclear contribution   :     24.77420      -1.07532     -17.83380
                        -----------------------------------------
Total Dipole Moment    :      0.56819       0.04837      -0.23246
                        -----------------------------------------
Magnitude (a.u.)       :      0.61581
Magnitude (Debye)      :      1.56525

Rotational constants in cm-1:     0.021051     0.008241     0.006598
Rotational constants in MHz :   631.098670   247.069667   197.788246

                             ****ORCA TERMINATED NORMALLY****
TOTAL RUN TIME: 0 days 0 hours 0 minutes 28 seconds 631 msec
