                         Program Version 4.2.1 -  RELEASE  -
|  1> ! wB97X-D3 SP def2-SVP
|  2> %pal
|  3> nprocs 16
|  4> end
|  5>
|  6> * xyz 0 1
|  7> S 	 -89.537 	 43.2084 	 112.616
|  8> C 	 -89.0197 	 44.2981 	 113.9
|  9> C 	 -89.8748 	 44.2598 	 115.003
| 10> C 	 -90.9711 	 43.3626 	 114.799
| 11> C 	 -90.9877 	 42.6928 	 113.567
| 12> H 	 -91.757 	 43.2855 	 115.472
| 13> C 	 -89.5408 	 45.093 	 116.187
| 14> H 	 -90.3983 	 45.0466 	 116.929
| 15> H 	 -89.4262 	 46.0897 	 115.859
| 16> C 	 -88.3003 	 44.6387 	 116.882
| 17> H 	 -87.4042 	 44.4914 	 116.268
| 18> H 	 -88.0718 	 45.1963 	 117.777
| 19> C 	 -88.5182 	 43.2213 	 117.339
| 20> H 	 -87.6535 	 42.7771 	 117.861
| 21> H 	 -89.3301 	 43.2498 	 118.033
| 22> H 	 -88.6492 	 42.5127 	 116.489
| 23> S 	 -92.7217 	 42.1262 	 111.454
| 24> C 	 -93.7554 	 40.7092 	 111.599
| 25> C 	 -93.6269 	 40.0244 	 112.799
| 26> C 	 -92.7473 	 40.721 	 113.692
| 27> C 	 -92.0542 	 41.8125 	 113.088
| 28> H 	 -94.2124 	 39.1898 	 113.048
| 29> C 	 -92.3979 	 40.157 	 115.049
| 30> H 	 -92.4003 	 41.0364 	 115.728
| 31> H 	 -91.3136 	 39.8582 	 115.016
| 32> C 	 -93.3659 	 39.1053 	 115.638
| 33> H 	 -93.0493 	 38.7796 	 116.617
| 34> H 	 -93.2355 	 38.1549 	 115.074
| 35> C 	 -94.8527 	 39.6049 	 115.845
| 36> H 	 -95.5005 	 38.788 	 115.982
| 37> H 	 -95.3588 	 40.2076 	 115.049
| 38> H 	 -94.8528 	 40.4336 	 116.627
| 39> H 	 -88.1024 	 44.8914 	 113.82
| 40> H 	 -94.4312 	 40.4412 	 110.823
| 41> *
| 42>
| 43>                          ****END OF INPUT****

CARTESIAN COORDINATES (ANGSTROEM)
---------------------------------
  S    -89.537000   43.208400  112.616000
  C    -89.019700   44.298100  113.900000
  C    -89.874800   44.259800  115.003000
  C    -90.971100   43.362600  114.799000
  C    -90.987700   42.692800  113.567000
  H    -91.757000   43.285500  115.472000
  C    -89.540800   45.093000  116.187000
  H    -90.398300   45.046600  116.929000
  H    -89.426200   46.089700  115.859000
  C    -88.300300   44.638700  116.882000
  H    -87.404200   44.491400  116.268000
  H    -88.071800   45.196300  117.777000
  C    -88.518200   43.221300  117.339000
  H    -87.653500   42.777100  117.861000
  H    -89.330100   43.249800  118.033000
  H    -88.649200   42.512700  116.489000
  S    -92.721700   42.126200  111.454000
  C    -93.755400   40.709200  111.599000
  C    -93.626900   40.024400  112.799000
  C    -92.747300   40.721000  113.692000
  C    -92.054200   41.812500  113.088000
  H    -94.212400   39.189800  113.048000
  C    -92.397900   40.157000  115.049000
  H    -92.400300   41.036400  115.728000
  H    -91.313600   39.858200  115.016000
  C    -93.365900   39.105300  115.638000
  H    -93.049300   38.779600  116.617000
  H    -93.235500   38.154900  115.074000
  C    -94.852700   39.604900  115.845000
  H    -95.500500   38.788000  115.982000
  H    -95.358800   40.207600  115.049000
  H    -94.852800   40.433600  116.627000
  H    -88.102400   44.891400  113.820000
  H    -94.431200   40.441200  110.823000

 Total Charge           Charge          ....    0
 Multiplicity           Mult            ....    1
 Number of Electrons    NEL             ....  134
 Basis Dimension        Dim             ....  322

ORBITAL ENERGIES
----------------

  NO   OCC          E(Eh)            E(eV)
   0   2.0000     -88.968185     -2420.9474
   1   2.0000     -88.966269     -2420.8952
   2   2.0000     -10.337281      -281.2917
   3   2.0000     -10.331683      -281.1394
   4   2.0000     -10.317530      -280.7543
   5   2.0000     -10.316262      -280.7198
   6   2.0000     -10.308623      -280.5119
   7   2.0000     -10.300955      -280.3032
   8   2.0000     -10.297752      -280.2161
   9   2.0000     -10.297361      -280.2054
  10   2.0000     -10.293904      -280.1114
  11   2.0000     -10.292662      -280.0776
  12   2.0000     -10.290753      -280.0256
  13   2.0000     -10.288700      -279.9698
  14   2.0000     -10.280216      -279.7389
  15   2.0000     -10.269646      -279.4513
  16   2.0000      -8.081537      -219.9098
  17   2.0000      -8.080097      -219.8706
  18   2.0000      -6.040128      -164.3602
  19   2.0000      -6.038558      -164.3175
  20   2.0000      -6.036171      -164.2526
  21   2.0000      -6.034741      -164.2137
  22   2.0000      -6.032362      -164.1489
  23   2.0000      -6.030970      -164.1110
  24   2.0000      -0.995354       -27.0850
  25   2.0000      -0.976666       -26.5764
  26   2.0000      -0.924017       -25.1438
  27   2.0000      -0.903621       -24.5888
  28   2.0000      -0.865901       -23.5624
  29   2.0000      -0.847421       -23.0595
  30   2.0000      -0.841149       -22.8888
  31   2.0000      -0.814794       -22.1717
  32   2.0000      -0.783365       -21.3164
  33   2.0000      -0.767252       -20.8780
  34   2.0000      -0.710881       -19.3440
  35   2.0000      -0.699703       -19.0399
  36   2.0000      -0.693431       -18.8692
  37   2.0000      -0.658934       -17.9305
  38   2.0000      -0.640430       -17.4270
  39   2.0000      -0.615396       -16.7458
  40   2.0000      -0.593062       -16.1380
  41   2.0000      -0.584750       -15.9119
  42   2.0000      -0.562205       -15.2984
  43   2.0000      -0.556848       -15.1526
  44   2.0000      -0.546861       -14.8809
  45   2.0000      -0.527113       -14.3435
  46   2.0000      -0.515479       -14.0269
  47   2.0000      -0.509734       -13.8706
  48   2.0000      -0.499687       -13.5972
  49   2.0000      -0.495311       -13.4781
  50   2.0000      -0.493692       -13.4340
  51   2.0000      -0.474907       -12.9229
  52   2.0000      -0.466692       -12.6993
  53   2.0000      -0.463811       -12.6209
  54   2.0000      -0.458574       -12.4784
  55   2.0000      -0.445076       -12.1111
  56   2.0000      -0.441255       -12.0071
  57   2.0000      -0.435681       -11.8555
  58   2.0000      -0.430921       -11.7259
  59   2.0000      -0.426049       -11.5934
  60   2.0000      -0.421228       -11.4622
  61   2.0000      -0.415750       -11.3131
  62   2.0000      -0.410891       -11.1809
  63   2.0000      -0.347629        -9.4595
  64   2.0000      -0.330535        -8.9943
  65   2.0000      -0.328329        -8.9343
  66   2.0000      -0.282803        -7.6955
  67   0.0000       0.021109         0.5744
  68   0.0000       0.065284         1.7765
  69   0.0000       0.110406         3.0043
  70   0.0000       0.124194         3.3795
  71   0.0000       0.129976         3.5368

MULLIKEN ATOMIC CHARGES
-----------------------
   0 S :    0.108193
   1 C :   -0.146715
   2 C :   -0.106937
   3 C :    0.052857
   4 C :   -0.144283
   5 H :   -0.012190
   6 C :    0.101033
   7 H :    0.026924
   8 H :    0.029092
   9 C :   -0.058299
  10 H :    0.030796
  11 H :    0.030382
  12 C :   -0.085693
  13 H :    0.026536
  14 H :    0.013396
  15 H :    0.055124
  16 S :    0.102899
  17 C :   -0.082798
  18 C :   -0.000147
  19 C :   -0.062028
  20 C :   -0.158363
  21 H :    0.008447
  22 C :    0.048345
  23 H :    0.021736
  24 H :    0.060434
  25 C :   -0.068938
  26 H :    0.028414
  27 H :    0.034678
  28 C :   -0.083476
  29 H :    0.037818
  30 H :    0.041344
  31 H :    0.040811
  32 H :    0.062401
  33 H :    0.048207
Sum of atomic charges:   -0.0000000

LOEWDIN ATOMIC CHARGES
----------------------
   0 S :    0.381015
   1 C :   -0.193714
   2 C :   -0.062070
   3 C :   -0.051922
   4 C :   -0.179509
   5 H :    0.017823
   6 C :   -0.030715
   7 H :    0.035723
   8 H :    0.028272
   9 C :   -0.043523
  10 H :    0.026245
  11 H :    0.024346
  12 C :   -0.066211
  13 H :    0.023871
  14 H :    0.013496
  15 H :    0.031564
  16 S :    0.389275
  17 C :   -0.170253
  18 C :   -0.064435
  19 C :   -0.048455
  20 C :   -0.195095
  21 H :    0.026137
  22 C :   -0.041915
  23 H :    0.031352
  24 H :    0.045922
  25 C :   -0.045554
  26 H :    0.027697
  27 H :    0.025686
  28 C :   -0.075329
  29 H :    0.021493
  30 H :    0.030381
  31 H :    0.036277
  32 H :    0.031206
  33 H :    0.020920

  Mayer bond orders larger than 0.100000
B(  0-S ,  1-C ) :   1.1436 B(  0-S ,  4-C ) :   1.1371 B(  1-C ,  2-C ) :   1.5810
B(  1-C ,  4-C ) :   0.1004 B(  1-C , 32-H ) :   0.9667 B(  2-C ,  3-C ) :   1.2646
B(  2-C ,  6-C ) :   1.0139 B(  3-C ,  4-C ) :   1.5446 B(  3-C ,  5-H ) :   0.9986
B(  4-C , 20-C ) :   1.0796 B(  6-C ,  7-H ) :   0.9424 B(  6-C ,  8-H ) :   0.9335
B(  6-C ,  9-C ) :   1.0782 B(  9-C , 10-H ) :   0.9562 B(  9-C , 11-H ) :   0.9551
B(  9-C , 12-C ) :   1.0689 B( 12-C , 13-H ) :   0.9724 B( 12-C , 14-H ) :   0.9778
B( 12-C , 15-H ) :   0.9702 B( 16-S , 17-C ) :   1.1655 B( 16-S , 20-C ) :   1.1301
B( 17-C , 18-C ) :   1.5859 B( 17-C , 20-C ) :   0.1024 B( 17-C , 33-H ) :   0.9675
B( 18-C , 19-C ) :   1.2593 B( 18-C , 21-H ) :   0.9912 B( 19-C , 20-C ) :   1.5690
B( 19-C , 22-C ) :   1.0313 B( 22-C , 23-H ) :   0.9302 B( 22-C , 24-H ) :   0.9320
B( 22-C , 25-C ) :   1.0787 B( 25-C , 26-H ) :   0.9529 B( 25-C , 27-H ) :   0.9522
B( 25-C , 28-C ) :   1.0504 B( 28-C , 29-H ) :   0.9767 B( 28-C , 30-H ) :   0.9779
B( 28-C , 31-H ) :   0.9727

Dispersion correction           -0.014718975
FINAL SINGLE POINT ENERGY     -1339.868680428585

DIPOLE MOMENT
-------------
                                X             Y             Z
Electronic contribution:      0.68486       5.51184     -26.85622
Nuclear contribution   :     -0.80261      -5.65362      27.52800
                        -----------------------------------------
Total Dipole Moment    :     -0.11775      -0.14178       0.67178
                        -----------------------------------------
Magnitude (a.u.)       :      0.69660
Magnitude (Debye)      :      1.77063

Rotational constants in cm-1:     0.019650     0.008687     0.006478
Rotational constants in MHz :   589.106312   260.436173   194.197367

                             ****ORCA TERMINATED NORMALLY****
TOTAL RUN TIME: 0 days 0 hours 0 minutes 34 seconds 910 msec
