                         Program Version 4.2.1 -  RELEASE  -
|  1> ! wB97X-D3 SP def2-SVP
|  2> %pal
|  3> nprocs 16
|  4> end
|  5>
|  6> * xyz 0 1
|  7> S 	 32.3592 	 18.9849 	 69.5688
|  8> C 	 31.177 	 17.6835 	 69.872
|  9> C 	 30.8939 	 17.6411 	 71.2259
| 10> C 	 31.622 	 18.5457 	 72.0598
| 11> C 	 32.4744 	 19.3277 	 71.2629
| 12> H 	 31.4235 	 18.823 	 73.1231
| 13> C 	 29.8391 	 16.7119 	 71.8253
| 14> H 	 29.0652 	 16.5404 	 71.0439
| 15> H 	 29.3019 	 17.3198 	 72.5425
| 16> C 	 30.3388 	 15.4954 	 72.6229
| 17> H 	 30.8165 	 14.8052 	 71.993
| 18> H 	 31.0664 	 15.8432 	 73.2701
| 19> C 	 29.124 	 14.7721 	 73.2779
| 20> H 	 29.6015 	 13.9327 	 73.8331
| 21> H 	 28.4515 	 15.488 	 73.8253
| 22> H 	 28.3536 	 14.3619 	 72.6279
| 23> S 	 32.7857 	 21.9424 	 72.1647
| 24> C 	 34.3273 	 22.5105 	 72.7138
| 25> C 	 35.1176 	 21.3965 	 72.9058
| 26> C 	 34.5592 	 20.1372 	 72.4753
| 27> C 	 33.301 	 20.2987 	 71.9141
| 28> H 	 36.073 	 21.5089 	 73.4237
| 29> C 	 35.4238 	 18.8655 	 72.5762
| 30> H 	 34.779 	 18.0962 	 72.469
| 31> H 	 35.8563 	 18.7792 	 73.5542
| 32> C 	 36.62 	 18.7689 	 71.6003
| 33> H 	 36.2153 	 19.1053 	 70.6191
| 34> H 	 37.0402 	 17.7585 	 71.5391
| 35> C 	 37.7815 	 19.606 	 72.0784
| 36> H 	 37.9778 	 19.3516 	 73.1598
| 37> H 	 37.5596 	 20.6836 	 72.1786
| 38> H 	 38.7352 	 19.477 	 71.5397
| 39> H 	 30.6251 	 17.1106 	 69.1909
| 40> H 	 34.5694 	 23.5058 	 73.0017
| 41> *
| 42>
| 43>                          ****END OF INPUT****

CARTESIAN COORDINATES (ANGSTROEM)
---------------------------------
  S     32.359200   18.984900   69.568800
  C     31.177000   17.683500   69.872000
  C     30.893900   17.641100   71.225900
  C     31.622000   18.545700   72.059800
  C     32.474400   19.327700   71.262900
  H     31.423500   18.823000   73.123100
  C     29.839100   16.711900   71.825300
  H     29.065200   16.540400   71.043900
  H     29.301900   17.319800   72.542500
  C     30.338800   15.495400   72.622900
  H     30.816500   14.805200   71.993000
  H     31.066400   15.843200   73.270100
  C     29.124000   14.772100   73.277900
  H     29.601500   13.932700   73.833100
  H     28.451500   15.488000   73.825300
  H     28.353600   14.361900   72.627900
  S     32.785700   21.942400   72.164700
  C     34.327300   22.510500   72.713800
  C     35.117600   21.396500   72.905800
  C     34.559200   20.137200   72.475300
  C     33.301000   20.298700   71.914100
  H     36.073000   21.508900   73.423700
  C     35.423800   18.865500   72.576200
  H     34.779000   18.096200   72.469000
  H     35.856300   18.779200   73.554200
  C     36.620000   18.768900   71.600300
  H     36.215300   19.105300   70.619100
  H     37.040200   17.758500   71.539100
  C     37.781500   19.606000   72.078400
  H     37.977800   19.351600   73.159800
  H     37.559600   20.683600   72.178600
  H     38.735200   19.477000   71.539700
  H     30.625100   17.110600   69.190900
  H     34.569400   23.505800   73.001700

 Total Charge           Charge          ....    0
 Multiplicity           Mult            ....    1
 Number of Electrons    NEL             ....  134
 Basis Dimension        Dim             ....  322

ORBITAL ENERGIES
----------------

  NO   OCC          E(Eh)            E(eV)
   0   2.0000     -88.974076     -2421.1077
   1   2.0000     -88.961625     -2420.7689
   2   2.0000     -10.329580      -281.0822
   3   2.0000     -10.324028      -280.9311
   4   2.0000     -10.315024      -280.6861
   5   2.0000     -10.314051      -280.6596
   6   2.0000     -10.303262      -280.3660
   7   2.0000     -10.301248      -280.3112
   8   2.0000     -10.299581      -280.2658
   9   2.0000     -10.291725      -280.0521
  10   2.0000     -10.290211      -280.0109
  11   2.0000     -10.286567      -279.9117
  12   2.0000     -10.285956      -279.8951
  13   2.0000     -10.281133      -279.7638
  14   2.0000     -10.280213      -279.7388
  15   2.0000     -10.278138      -279.6823
  16   2.0000      -8.087867      -220.0821
  17   2.0000      -8.076960      -219.7853
  18   2.0000      -6.046405      -164.5311
  19   2.0000      -6.042469      -164.4239
  20   2.0000      -6.038668      -164.3205
  21   2.0000      -6.035467      -164.2334
  22   2.0000      -6.031292      -164.1198
  23   2.0000      -6.027766      -164.0238
  24   2.0000      -1.008254       -27.4360
  25   2.0000      -0.984285       -26.7838
  26   2.0000      -0.911137       -24.7933
  27   2.0000      -0.909118       -24.7384
  28   2.0000      -0.873981       -23.7822
  29   2.0000      -0.849201       -23.1079
  30   2.0000      -0.841911       -22.9096
  31   2.0000      -0.812718       -22.1152
  32   2.0000      -0.781185       -21.2571
  33   2.0000      -0.771661       -20.9980
  34   2.0000      -0.713188       -19.4068
  35   2.0000      -0.708136       -19.2694
  36   2.0000      -0.691774       -18.8241
  37   2.0000      -0.659824       -17.9547
  38   2.0000      -0.641192       -17.4477
  39   2.0000      -0.613004       -16.6807
  40   2.0000      -0.596401       -16.2289
  41   2.0000      -0.572568       -15.5804
  42   2.0000      -0.560426       -15.2500
  43   2.0000      -0.557358       -15.1665
  44   2.0000      -0.545701       -14.8493
  45   2.0000      -0.531213       -14.4550
  46   2.0000      -0.516780       -14.0623
  47   2.0000      -0.512798       -13.9540
  48   2.0000      -0.504340       -13.7238
  49   2.0000      -0.501663       -13.6509
  50   2.0000      -0.485616       -13.2143
  51   2.0000      -0.476115       -12.9558
  52   2.0000      -0.472014       -12.8441
  53   2.0000      -0.467804       -12.7296
  54   2.0000      -0.461747       -12.5648
  55   2.0000      -0.448533       -12.2052
  56   2.0000      -0.440862       -11.9965
  57   2.0000      -0.437015       -11.8918
  58   2.0000      -0.428383       -11.6569
  59   2.0000      -0.424676       -11.5560
  60   2.0000      -0.420713       -11.4482
  61   2.0000      -0.410916       -11.1816
  62   2.0000      -0.409173       -11.1342
  63   2.0000      -0.335544        -9.1306
  64   2.0000      -0.325750        -8.8641
  65   2.0000      -0.318748        -8.6736
  66   2.0000      -0.316132        -8.6024
  67   0.0000       0.040192         1.0937
  68   0.0000       0.053294         1.4502
  69   0.0000       0.109738         2.9861
  70   0.0000       0.117194         3.1890
  71   0.0000       0.134315         3.6549

MULLIKEN ATOMIC CHARGES
-----------------------
   0 S :    0.131724
   1 C :   -0.094191
   2 C :   -0.081778
   3 C :    0.007794
   4 C :   -0.166445
   5 H :    0.048655
   6 C :    0.027480
   7 H :    0.020051
   8 H :    0.011880
   9 C :    0.011178
  10 H :    0.016095
  11 H :    0.013463
  12 C :   -0.073383
  13 H :    0.050211
  14 H :    0.030743
  15 H :    0.028942
  16 S :    0.107743
  17 C :   -0.078642
  18 C :   -0.051892
  19 C :   -0.039559
  20 C :   -0.200491
  21 H :    0.027858
  22 C :    0.149782
  23 H :   -0.010890
  24 H :    0.008757
  25 C :   -0.047656
  26 H :    0.037079
  27 H :    0.036439
  28 C :   -0.088225
  29 H :    0.015815
  30 H :    0.032574
  31 H :    0.043979
  32 H :    0.024531
  33 H :    0.050380
Sum of atomic charges:   -0.0000000

LOEWDIN ATOMIC CHARGES
----------------------
   0 S :    0.414059
   1 C :   -0.188416
   2 C :   -0.059844
   3 C :   -0.063677
   4 C :   -0.203844
   5 H :    0.045563
   6 C :   -0.036114
   7 H :    0.028993
   8 H :    0.026195
   9 C :   -0.025098
  10 H :    0.019125
  11 H :    0.017422
  12 C :   -0.072539
  13 H :    0.034084
  14 H :    0.029006
  15 H :    0.025399
  16 S :    0.413942
  17 C :   -0.187073
  18 C :   -0.077067
  19 C :   -0.049833
  20 C :   -0.209839
  21 H :    0.029831
  22 C :   -0.016661
  23 H :    0.013158
  24 H :    0.027184
  25 C :   -0.036739
  26 H :    0.028239
  27 H :    0.028931
  28 C :   -0.078342
  29 H :    0.024856
  30 H :    0.022874
  31 H :    0.027705
  32 H :    0.020812
  33 H :    0.027706

  Mayer bond orders larger than 0.100000
B(  0-S ,  1-C ) :   1.1152 B(  0-S ,  4-C ) :   1.1646 B(  1-C ,  2-C ) :   1.6247
B(  1-C , 32-H ) :   0.9745 B(  2-C ,  3-C ) :   1.2358 B(  2-C ,  6-C ) :   1.0232
B(  3-C ,  4-C ) :   1.5605 B(  3-C ,  5-H ) :   0.9837 B(  4-C , 20-C ) :   1.0404
B(  6-C ,  7-H ) :   0.9447 B(  6-C ,  8-H ) :   0.9388 B(  6-C ,  9-C ) :   1.0590
B(  9-C , 10-H ) :   0.9533 B(  9-C , 11-H ) :   0.9535 B(  9-C , 12-C ) :   1.0694
B( 12-C , 13-H ) :   0.9752 B( 12-C , 14-H ) :   0.9746 B( 12-C , 15-H ) :   0.9760
B( 16-S , 17-C ) :   1.1571 B( 16-S , 20-C ) :   1.1506 B( 17-C , 18-C ) :   1.5919
B( 17-C , 33-H ) :   0.9740 B( 18-C , 19-C ) :   1.2507 B( 18-C , 21-H ) :   0.9776
B( 19-C , 20-C ) :   1.5848 B( 19-C , 22-C ) :   1.0471 B( 22-C , 23-H ) :   0.9165
B( 22-C , 24-H ) :   0.9340 B( 22-C , 25-C ) :   1.0670 B( 25-C , 26-H ) :   0.9521
B( 25-C , 27-H ) :   0.9554 B( 25-C , 28-C ) :   1.0765 B( 28-C , 29-H ) :   0.9707
B( 28-C , 30-H ) :   0.9684 B( 28-C , 31-H ) :   0.9717

Dispersion correction           -0.014195235
FINAL SINGLE POINT ENERGY     -1339.861741221536

DIPOLE MOMENT
-------------
                                X             Y             Z
Electronic contribution:     -4.44348      19.55696     -10.29777
Nuclear contribution   :      4.43924     -19.95129      10.65374
                        -----------------------------------------
Total Dipole Moment    :     -0.00424      -0.39433       0.35597
                        -----------------------------------------
Magnitude (a.u.)       :      0.53125
Magnitude (Debye)      :      1.35033

Rotational constants in cm-1:     0.020189     0.007348     0.006735
Rotational constants in MHz :   605.249348   220.291202   201.915693

                             ****ORCA TERMINATED NORMALLY****
TOTAL RUN TIME: 0 days 0 hours 0 minutes 28 seconds 76 msec
