                         Program Version 4.2.1 -  RELEASE  -
|  1> ! wB97X-D3 SP def2-SVP
|  2> %pal
|  3> nprocs 16
|  4> end
|  5>
|  6> * xyz 0 1
|  7> S 	 0.689633 	 -13.3451 	 76.3813
|  8> C 	 2.15878 	 -12.4728 	 76.0566
|  9> C 	 2.22771 	 -11.339 	 76.8656
| 10> C 	 1.18723 	 -11.2829 	 77.8572
| 11> C 	 0.292704 	 -12.3104 	 77.707
| 12> H 	 0.975012 	 -10.4399 	 78.5814
| 13> C 	 3.31811 	 -10.3398 	 76.8038
| 14> H 	 2.93959 	 -9.25617 	 76.85
| 15> H 	 3.81035 	 -10.4084 	 75.7981
| 16> C 	 4.48443 	 -10.4793 	 77.8459
| 17> H 	 4.04927 	 -10.604 	 78.8632
| 18> H 	 4.92884 	 -11.5039 	 77.6155
| 19> C 	 5.66367 	 -9.42787 	 77.7976
| 20> H 	 6.34249 	 -9.52578 	 76.9454
| 21> H 	 5.17498 	 -8.40661 	 77.7502
| 22> H 	 6.27212 	 -9.21099 	 78.6486
| 23> S 	 -2.54232 	 -12.2692 	 77.8223
| 24> C 	 -3.24173 	 -12.437 	 79.3945
| 25> C 	 -2.27665 	 -12.608 	 80.3759
| 26> C 	 -0.975014 	 -12.6967 	 79.9128
| 27> C 	 -0.926681 	 -12.5136 	 78.5487
| 28> H 	 -2.51057 	 -12.8866 	 81.4391
| 29> C 	 0.176776 	 -12.8938 	 80.8613
| 30> H 	 1.02987 	 -12.9856 	 80.2215
| 31> H 	 0.107376 	 -13.9305 	 81.2716
| 32> C 	 0.231569 	 -11.9042 	 82.013
| 33> H 	 -0.684661 	 -11.8546 	 82.5938
| 34> H 	 0.380927 	 -10.9076 	 81.7164
| 35> C 	 1.24126 	 -12.2725 	 83.094
| 36> H 	 1.09062 	 -11.491 	 83.8893
| 37> H 	 2.28655 	 -12.2095 	 82.7195
| 38> H 	 0.896969 	 -13.2826 	 83.4487
| 39> H 	 2.91528 	 -12.7862 	 75.3156
| 40> H 	 -4.32198 	 -12.3792 	 79.503
| 41> *
| 42>
| 43>                          ****END OF INPUT****

CARTESIAN COORDINATES (ANGSTROEM)
---------------------------------
  S      0.689633  -13.345100   76.381300
  C      2.158780  -12.472800   76.056600
  C      2.227710  -11.339000   76.865600
  C      1.187230  -11.282900   77.857200
  C      0.292704  -12.310400   77.707000
  H      0.975012  -10.439900   78.581400
  C      3.318110  -10.339800   76.803800
  H      2.939590   -9.256170   76.850000
  H      3.810350  -10.408400   75.798100
  C      4.484430  -10.479300   77.845900
  H      4.049270  -10.604000   78.863200
  H      4.928840  -11.503900   77.615500
  C      5.663670   -9.427870   77.797600
  H      6.342490   -9.525780   76.945400
  H      5.174980   -8.406610   77.750200
  H      6.272120   -9.210990   78.648600
  S     -2.542320  -12.269200   77.822300
  C     -3.241730  -12.437000   79.394500
  C     -2.276650  -12.608000   80.375900
  C     -0.975014  -12.696700   79.912800
  C     -0.926681  -12.513600   78.548700
  H     -2.510570  -12.886600   81.439100
  C      0.176776  -12.893800   80.861300
  H      1.029870  -12.985600   80.221500
  H      0.107376  -13.930500   81.271600
  C      0.231569  -11.904200   82.013000
  H     -0.684661  -11.854600   82.593800
  H      0.380927  -10.907600   81.716400
  C      1.241260  -12.272500   83.094000
  H      1.090620  -11.491000   83.889300
  H      2.286550  -12.209500   82.719500
  H      0.896969  -13.282600   83.448700
  H      2.915280  -12.786200   75.315600
  H     -4.321980  -12.379200   79.503000

 Total Charge           Charge          ....    0
 Multiplicity           Mult            ....    1
 Number of Electrons    NEL             ....  134
 Basis Dimension        Dim             ....  322

ORBITAL ENERGIES
----------------

  NO   OCC          E(Eh)            E(eV)
   0   2.0000     -88.967201     -2420.9206
   1   2.0000     -88.967163     -2420.9196
   2   2.0000     -10.327496      -281.0254
   3   2.0000     -10.326580      -281.0005
   4   2.0000     -10.318151      -280.7712
   5   2.0000     -10.317981      -280.7665
   6   2.0000     -10.303463      -280.3715
   7   2.0000     -10.300500      -280.2909
   8   2.0000     -10.299990      -280.2770
   9   2.0000     -10.298202      -280.2283
  10   2.0000     -10.295880      -280.1651
  11   2.0000     -10.291400      -280.0432
  12   2.0000     -10.290516      -280.0192
  13   2.0000     -10.287281      -279.9312
  14   2.0000     -10.286253      -279.9032
  15   2.0000     -10.281340      -279.7695
  16   2.0000      -8.082425      -219.9340
  17   2.0000      -8.081817      -219.9174
  18   2.0000      -6.040856      -164.3800
  19   2.0000      -6.040201      -164.3622
  20   2.0000      -6.036788      -164.2694
  21   2.0000      -6.036417      -164.2593
  22   2.0000      -6.033317      -164.1749
  23   2.0000      -6.032662      -164.1571
  24   2.0000      -1.007916       -27.4268
  25   2.0000      -0.988277       -26.8924
  26   2.0000      -0.915265       -24.9056
  27   2.0000      -0.903025       -24.5725
  28   2.0000      -0.863798       -23.5051
  29   2.0000      -0.856471       -23.3058
  30   2.0000      -0.845415       -23.0049
  31   2.0000      -0.810313       -22.0497
  32   2.0000      -0.783008       -21.3067
  33   2.0000      -0.769358       -20.9353
  34   2.0000      -0.701132       -19.0788
  35   2.0000      -0.699206       -19.0264
  36   2.0000      -0.693154       -18.8617
  37   2.0000      -0.656426       -17.8623
  38   2.0000      -0.640893       -17.4396
  39   2.0000      -0.615864       -16.7585
  40   2.0000      -0.601345       -16.3634
  41   2.0000      -0.569995       -15.5104
  42   2.0000      -0.562269       -15.3001
  43   2.0000      -0.549058       -14.9406
  44   2.0000      -0.537318       -14.6212
  45   2.0000      -0.518849       -14.1186
  46   2.0000      -0.515820       -14.0362
  47   2.0000      -0.506886       -13.7931
  48   2.0000      -0.502533       -13.6746
  49   2.0000      -0.494444       -13.4545
  50   2.0000      -0.486810       -13.2468
  51   2.0000      -0.477584       -12.9957
  52   2.0000      -0.469073       -12.7641
  53   2.0000      -0.463982       -12.6256
  54   2.0000      -0.457314       -12.4441
  55   2.0000      -0.451804       -12.2942
  56   2.0000      -0.448642       -12.2082
  57   2.0000      -0.440744       -11.9933
  58   2.0000      -0.430754       -11.7214
  59   2.0000      -0.424427       -11.5492
  60   2.0000      -0.420091       -11.4313
  61   2.0000      -0.419088       -11.4040
  62   2.0000      -0.408246       -11.1089
  63   2.0000      -0.339813        -9.2468
  64   2.0000      -0.334973        -9.1151
  65   2.0000      -0.328833        -8.9480
  66   2.0000      -0.298530        -8.1234
  67   0.0000       0.039140         1.0650
  68   0.0000       0.062596         1.7033
  69   0.0000       0.113424         3.0864
  70   0.0000       0.118201         3.2164
  71   0.0000       0.126441         3.4406

MULLIKEN ATOMIC CHARGES
-----------------------
   0 S :    0.120482
   1 C :   -0.131356
   2 C :   -0.077265
   3 C :    0.025494
   4 C :   -0.186366
   5 H :    0.044630
   6 C :    0.018619
   7 H :    0.039693
   8 H :    0.023770
   9 C :   -0.090756
  10 H :    0.034643
  11 H :    0.031277
  12 C :   -0.052049
  13 H :    0.041743
  14 H :    0.021607
  15 H :    0.032139
  16 S :    0.112752
  17 C :   -0.099625
  18 C :   -0.048858
  19 C :   -0.020406
  20 C :   -0.182400
  21 H :    0.034100
  22 C :    0.116670
  23 H :    0.017432
  24 H :    0.025441
  25 C :   -0.066396
  26 H :    0.021283
  27 H :    0.013377
  28 C :   -0.072637
  29 H :    0.041058
  30 H :    0.046693
  31 H :    0.039037
  32 H :    0.063581
  33 H :    0.062595
Sum of atomic charges:    0.0000000

LOEWDIN ATOMIC CHARGES
----------------------
   0 S :    0.421548
   1 C :   -0.204463
   2 C :   -0.068943
   3 C :   -0.068263
   4 C :   -0.204050
   5 H :    0.046936
   6 C :   -0.045346
   7 H :    0.035677
   8 H :    0.031871
   9 C :   -0.047693
  10 H :    0.024462
  11 H :    0.027559
  12 C :   -0.079327
  13 H :    0.027257
  14 H :    0.030838
  15 H :    0.026301
  16 S :    0.401499
  17 C :   -0.185858
  18 C :   -0.079872
  19 C :   -0.058278
  20 C :   -0.193945
  21 H :    0.038056
  22 C :   -0.029520
  23 H :    0.028720
  24 H :    0.038113
  25 C :   -0.041184
  26 H :    0.025152
  27 H :    0.015513
  28 C :   -0.065262
  29 H :    0.031734
  30 H :    0.026641
  31 H :    0.029137
  32 H :    0.036619
  33 H :    0.028370

  Mayer bond orders larger than 0.100000
B(  0-S ,  1-C ) :   1.1415 B(  0-S ,  4-C ) :   1.1722 B(  1-C ,  2-C ) :   1.5956
B(  1-C , 32-H ) :   0.9676 B(  2-C ,  3-C ) :   1.2300 B(  2-C ,  6-C ) :   1.0503
B(  3-C ,  4-C ) :   1.5834 B(  3-C ,  5-H ) :   0.9859 B(  4-C , 20-C ) :   0.9885
B(  6-C ,  7-H ) :   0.9371 B(  6-C ,  8-H ) :   0.9414 B(  6-C ,  9-C ) :   1.0456
B(  9-C , 10-H ) :   0.9619 B(  9-C , 11-H ) :   0.9573 B(  9-C , 12-C ) :   1.0564
B( 12-C , 13-H ) :   0.9791 B( 12-C , 14-H ) :   0.9727 B( 12-C , 15-H ) :   0.9774
B( 16-S , 17-C ) :   1.1688 B( 16-S , 20-C ) :   1.1482 B( 17-C , 18-C ) :   1.5788
B( 17-C , 20-C ) :   0.1032 B( 17-C , 33-H ) :   0.9695 B( 18-C , 19-C ) :   1.2697
B( 18-C , 21-H ) :   0.9767 B( 19-C , 20-C ) :   1.6013 B( 19-C , 22-C ) :   1.0438
B( 22-C , 23-H ) :   0.9241 B( 22-C , 24-H ) :   0.9244 B( 22-C , 25-C ) :   1.0566
B( 25-C , 26-H ) :   0.9538 B( 25-C , 27-H ) :   0.9540 B( 25-C , 28-C ) :   1.0828
B( 28-C , 29-H ) :   0.9756 B( 28-C , 30-H ) :   0.9757 B( 28-C , 31-H ) :   0.9752

Dispersion correction           -0.013890349
FINAL SINGLE POINT ENERGY     -1339.880176001457

DIPOLE MOMENT
-------------
                                X             Y             Z
Electronic contribution:    -23.85280     -11.19753     -18.25776
Nuclear contribution   :     24.15780      11.47044      18.71221
                        -----------------------------------------
Total Dipole Moment    :      0.30500       0.27292       0.45445
                        -----------------------------------------
Magnitude (a.u.)       :      0.61158
Magnitude (Debye)      :      1.55451

Rotational constants in cm-1:     0.016561     0.008837     0.006375
Rotational constants in MHz :   496.471711   264.920220   191.123057

                             ****ORCA TERMINATED NORMALLY****
TOTAL RUN TIME: 0 days 0 hours 0 minutes 32 seconds 573 msec
