                         Program Version 4.2.1 -  RELEASE  -
|  1> ! wB97X-D3 SP def2-SVP
|  2> %pal
|  3> nprocs 16
|  4> end
|  5>
|  6> * xyz 0 1
|  7> S 	 -34.9301 	 2.2507 	 99.0624
|  8> C 	 -33.4538 	 3.03517 	 98.3148
|  9> C 	 -33.7848 	 3.40611 	 97.0074
| 10> C 	 -35.0377 	 2.86544 	 96.5643
| 11> C 	 -35.7599 	 2.10514 	 97.5017
| 12> H 	 -35.421 	 2.91449 	 95.584
| 13> C 	 -32.8749 	 4.00219 	 96.0193
| 14> H 	 -32.314 	 4.73784 	 96.6441
| 15> H 	 -33.4578 	 4.57782 	 95.2847
| 16> C 	 -31.9863 	 2.91611 	 95.3736
| 17> H 	 -31.3158 	 2.48525 	 96.0596
| 18> H 	 -32.6706 	 2.11751 	 95.0431
| 19> C 	 -31.1628 	 3.46079 	 94.1945
| 20> H 	 -31.8044 	 3.85358 	 93.4404
| 21> H 	 -30.4983 	 4.25506 	 94.4786
| 22> H 	 -30.4547 	 2.68691 	 93.7988
| 23> S 	 -38.0375 	 1.17953 	 98.6673
| 24> C 	 -39.0899 	 0.262032 	 97.7575
| 25> C 	 -38.7177 	 0.0652783 	 96.4966
| 26> C 	 -37.5401 	 0.73464 	 96.1238
| 27> C 	 -36.9956 	 1.40339 	 97.2405
| 28> H 	 -39.4174 	 -0.588552 	 95.9747
| 29> C 	 -36.8872 	 0.48329 	 94.725
| 30> H 	 -35.8074 	 0.53686 	 94.7985
| 31> H 	 -37.242 	 1.29703 	 94.1043
| 32> C 	 -37.135 	 -0.854369 	 93.9987
| 33> H 	 -36.827 	 -0.728368 	 92.9902
| 34> H 	 -38.1609 	 -1.15698 	 94.2277
| 35> C 	 -36.3018 	 -2.0931 	 94.5244
| 36> H 	 -36.3546 	 -2.26676 	 95.5209
| 37> H 	 -35.2344 	 -1.97034 	 94.4322
| 38> H 	 -36.5923 	 -3.00861 	 93.9514
| 39> H 	 -32.5768 	 3.24807 	 98.8436
| 40> H 	 -40.1033 	 0.0108554 	 98.0415
| 41> *
| 42>
| 43>                          ****END OF INPUT****

CARTESIAN COORDINATES (ANGSTROEM)
---------------------------------
  S    -34.930100    2.250700   99.062400
  C    -33.453800    3.035170   98.314800
  C    -33.784800    3.406110   97.007400
  C    -35.037700    2.865440   96.564300
  C    -35.759900    2.105140   97.501700
  H    -35.421000    2.914490   95.584000
  C    -32.874900    4.002190   96.019300
  H    -32.314000    4.737840   96.644100
  H    -33.457800    4.577820   95.284700
  C    -31.986300    2.916110   95.373600
  H    -31.315800    2.485250   96.059600
  H    -32.670600    2.117510   95.043100
  C    -31.162800    3.460790   94.194500
  H    -31.804400    3.853580   93.440400
  H    -30.498300    4.255060   94.478600
  H    -30.454700    2.686910   93.798800
  S    -38.037500    1.179530   98.667300
  C    -39.089900    0.262032   97.757500
  C    -38.717700    0.065278   96.496600
  C    -37.540100    0.734640   96.123800
  C    -36.995600    1.403390   97.240500
  H    -39.417400   -0.588552   95.974700
  C    -36.887200    0.483290   94.725000
  H    -35.807400    0.536860   94.798500
  H    -37.242000    1.297030   94.104300
  C    -37.135000   -0.854369   93.998700
  H    -36.827000   -0.728368   92.990200
  H    -38.160900   -1.156980   94.227700
  C    -36.301800   -2.093100   94.524400
  H    -36.354600   -2.266760   95.520900
  H    -35.234400   -1.970340   94.432200
  H    -36.592300   -3.008610   93.951400
  H    -32.576800    3.248070   98.843600
  H    -40.103300    0.010855   98.041500

 Total Charge           Charge          ....    0
 Multiplicity           Mult            ....    1
 Number of Electrons    NEL             ....  134
 Basis Dimension        Dim             ....  322

ORBITAL ENERGIES
----------------

  NO   OCC          E(Eh)            E(eV)
   0   2.0000     -88.965119     -2420.8640
   1   2.0000     -88.964020     -2420.8340
   2   2.0000     -10.334130      -281.2060
   3   2.0000     -10.333884      -281.1993
   4   2.0000     -10.317443      -280.7519
   5   2.0000     -10.313509      -280.6449
   6   2.0000     -10.305227      -280.4195
   7   2.0000     -10.301058      -280.3060
   8   2.0000     -10.297446      -280.2077
   9   2.0000     -10.292314      -280.0681
  10   2.0000     -10.291641      -280.0498
  11   2.0000     -10.288321      -279.9594
  12   2.0000     -10.286571      -279.9118
  13   2.0000     -10.286507      -279.9101
  14   2.0000     -10.276858      -279.6475
  15   2.0000     -10.271181      -279.4930
  16   2.0000      -8.081517      -219.9093
  17   2.0000      -8.077075      -219.7884
  18   2.0000      -6.039807      -164.3515
  19   2.0000      -6.035924      -164.2459
  20   2.0000      -6.035828      -164.2432
  21   2.0000      -6.032373      -164.1492
  22   2.0000      -6.031893      -164.1362
  23   2.0000      -6.027478      -164.0160
  24   2.0000      -1.012229       -27.5441
  25   2.0000      -0.980109       -26.6701
  26   2.0000      -0.915040       -24.8995
  27   2.0000      -0.907669       -24.6989
  28   2.0000      -0.871356       -23.7108
  29   2.0000      -0.853471       -23.2241
  30   2.0000      -0.842631       -22.9291
  31   2.0000      -0.814784       -22.1714
  32   2.0000      -0.788863       -21.4661
  33   2.0000      -0.772160       -21.0115
  34   2.0000      -0.714963       -19.4551
  35   2.0000      -0.707408       -19.2496
  36   2.0000      -0.699323       -19.0295
  37   2.0000      -0.654458       -17.8087
  38   2.0000      -0.639294       -17.3961
  39   2.0000      -0.621500       -16.9119
  40   2.0000      -0.602521       -16.3954
  41   2.0000      -0.572968       -15.5913
  42   2.0000      -0.560383       -15.2488
  43   2.0000      -0.553006       -15.0480
  44   2.0000      -0.544942       -14.8286
  45   2.0000      -0.526157       -14.3175
  46   2.0000      -0.520238       -14.1564
  47   2.0000      -0.516086       -14.0434
  48   2.0000      -0.509898       -13.8750
  49   2.0000      -0.504075       -13.7166
  50   2.0000      -0.491784       -13.3821
  51   2.0000      -0.476384       -12.9631
  52   2.0000      -0.469208       -12.7678
  53   2.0000      -0.464394       -12.6368
  54   2.0000      -0.458542       -12.4776
  55   2.0000      -0.452520       -12.3137
  56   2.0000      -0.447171       -12.1681
  57   2.0000      -0.439250       -11.9526
  58   2.0000      -0.429914       -11.6986
  59   2.0000      -0.425298       -11.5729
  60   2.0000      -0.421544       -11.4708
  61   2.0000      -0.416117       -11.3231
  62   2.0000      -0.410254       -11.1636
  63   2.0000      -0.359137        -9.7726
  64   2.0000      -0.338520        -9.2116
  65   2.0000      -0.325080        -8.8459
  66   2.0000      -0.279699        -7.6110
  67   0.0000       0.017928         0.4879
  68   0.0000       0.075206         2.0465
  69   0.0000       0.101428         2.7600
  70   0.0000       0.123792         3.3686
  71   0.0000       0.132973         3.6184

MULLIKEN ATOMIC CHARGES
-----------------------
   0 S :    0.083272
   1 C :   -0.117946
   2 C :   -0.061428
   3 C :    0.002530
   4 C :   -0.098820
   5 H :   -0.010488
   6 C :    0.040144
   7 H :    0.028834
   8 H :    0.029110
   9 C :   -0.044720
  10 H :    0.017883
  11 H :    0.031612
  12 C :   -0.033709
  13 H :    0.025830
  14 H :    0.021420
  15 H :    0.039056
  16 S :    0.109462
  17 C :   -0.067875
  18 C :   -0.081858
  19 C :   -0.010850
  20 C :   -0.173983
  21 H :    0.022583
  22 C :    0.055173
  23 H :    0.027544
  24 H :    0.043647
  25 C :   -0.054275
  26 H :    0.035218
  27 H :    0.035711
  28 C :   -0.047330
  29 H :    0.013821
  30 H :    0.016280
  31 H :    0.042025
  32 H :    0.033145
  33 H :    0.048983
Sum of atomic charges:   -0.0000000

LOEWDIN ATOMIC CHARGES
----------------------
   0 S :    0.355578
   1 C :   -0.168686
   2 C :   -0.056979
   3 C :   -0.069458
   4 C :   -0.179012
   5 H :    0.019429
   6 C :   -0.036780
   7 H :    0.034061
   8 H :    0.031909
   9 C :   -0.029465
  10 H :    0.019149
  11 H :    0.027928
  12 C :   -0.065924
  13 H :    0.019314
  14 H :    0.021849
  15 H :    0.032492
  16 S :    0.426379
  17 C :   -0.205079
  18 C :   -0.087406
  19 C :   -0.048527
  20 C :   -0.181714
  21 H :    0.036760
  22 C :   -0.030386
  23 H :    0.028353
  24 H :    0.033927
  25 C :   -0.030222
  26 H :    0.026521
  27 H :    0.024435
  28 C :   -0.062606
  29 H :    0.010495
  30 H :    0.021264
  31 H :    0.033396
  32 H :    0.017680
  33 H :    0.031326

  Mayer bond orders larger than 0.100000
B(  0-S ,  1-C ) :   1.1069 B(  0-S ,  4-C ) :   1.1306 B(  1-C ,  2-C ) :   1.5888
B(  1-C ,  4-C ) :   0.1004 B(  1-C , 32-H ) :   0.9844 B(  2-C ,  3-C ) :   1.2254
B(  2-C ,  6-C ) :   1.0451 B(  3-C ,  4-C ) :   1.5524 B(  3-C ,  5-H ) :   1.0013
B(  4-C , 20-C ) :   1.1109 B(  6-C ,  7-H ) :   0.9324 B(  6-C ,  8-H ) :   0.9420
B(  6-C ,  9-C ) :   1.0563 B(  9-C , 10-H ) :   0.9533 B(  9-C , 11-H ) :   0.9575
B(  9-C , 12-C ) :   1.0848 B( 12-C , 13-H ) :   0.9764 B( 12-C , 14-H ) :   0.9727
B( 12-C , 15-H ) :   0.9735 B( 16-S , 17-C ) :   1.1686 B( 16-S , 20-C ) :   1.1437
B( 17-C , 18-C ) :   1.6474 B( 17-C , 33-H ) :   0.9539 B( 18-C , 19-C ) :   1.2381
B( 18-C , 21-H ) :   0.9845 B( 19-C , 20-C ) :   1.5635 B( 19-C , 22-C ) :   1.0141
B( 22-C , 23-H ) :   0.9427 B( 22-C , 24-H ) :   0.9272 B( 22-C , 25-C ) :   1.0797
B( 25-C , 26-H ) :   0.9517 B( 25-C , 27-H ) :   0.9541 B( 25-C , 28-C ) :   1.0757
B( 28-C , 29-H ) :   0.9783 B( 28-C , 30-H ) :   0.9714 B( 28-C , 31-H ) :   0.9768

Dispersion correction           -0.013793295
FINAL SINGLE POINT ENERGY     -1339.854933687159

DIPOLE MOMENT
-------------
                                X             Y             Z
Electronic contribution:    -15.04077       4.93067      26.14890
Nuclear contribution   :     15.17204      -5.05910     -26.86442
                        -----------------------------------------
Total Dipole Moment    :      0.13127      -0.12842      -0.71552
                        -----------------------------------------
Magnitude (a.u.)       :      0.73872
Magnitude (Debye)      :      1.87766

Rotational constants in cm-1:     0.017523     0.008957     0.006429
Rotational constants in MHz :   525.311898   268.525571   192.726388

                             ****ORCA TERMINATED NORMALLY****
TOTAL RUN TIME: 0 days 0 hours 0 minutes 29 seconds 401 msec
