                         Program Version 4.2.1 -  RELEASE  -
|  1> ! wB97X-D3 SP def2-SVP
|  2> %pal
|  3> nprocs 16
|  4> end
|  5>
|  6> * xyz 0 1
|  7> S 	 -23.178 	 46.3901 	 63.9883
|  8> C 	 -21.6764 	 47.2361 	 63.6726
|  9> C 	 -21.7308 	 47.935 	 62.499
| 10> C 	 -23.0362 	 47.8781 	 61.8874
| 11> C 	 -23.84 	 46.9198 	 62.4845
| 12> H 	 -23.5208 	 48.3122 	 61.0507
| 13> C 	 -20.5772 	 48.7756 	 61.8737
| 14> H 	 -20.5272 	 48.5648 	 60.7997
| 15> H 	 -19.6145 	 48.5134 	 62.3024
| 16> C 	 -20.6861 	 50.2765 	 62.1567
| 17> H 	 -19.9859 	 50.7739 	 61.4369
| 18> H 	 -21.738 	 50.5939 	 62.0347
| 19> C 	 -20.2937 	 50.7157 	 63.5372
| 20> H 	 -20.6361 	 51.7331 	 63.5856
| 21> H 	 -20.8343 	 50.221 	 64.4146
| 22> H 	 -19.2654 	 50.7749 	 63.8439
| 23> S 	 -25.6522 	 46.3716 	 60.4618
| 24> C 	 -27.1835 	 45.7373 	 60.7752
| 25> C 	 -27.5069 	 46.0485 	 62.1268
| 26> C 	 -26.3588 	 46.4595 	 62.9483
| 27> C 	 -25.2116 	 46.6375 	 62.1541
| 28> H 	 -28.5282 	 45.863 	 62.4855
| 29> C 	 -26.3615 	 46.5622 	 64.4849
| 30> H 	 -27.2327 	 47.1117 	 64.7237
| 31> H 	 -25.5424 	 47.1849 	 64.7911
| 32> C 	 -26.2905 	 45.1287 	 65.2108
| 33> H 	 -26.1061 	 45.1791 	 66.2838
| 34> H 	 -25.4109 	 44.6973 	 64.8012
| 35> C 	 -27.4792 	 44.1639 	 64.9293
| 36> H 	 -27.6299 	 44.1914 	 63.8936
| 37> H 	 -28.4841 	 44.465 	 65.3625
| 38> H 	 -27.0678 	 43.1773 	 65.2727
| 39> H 	 -20.8811 	 47.2303 	 64.3721
| 40> H 	 -27.8938 	 45.3794 	 60.1154
| 41> *
| 42>
| 43>                          ****END OF INPUT****

CARTESIAN COORDINATES (ANGSTROEM)
---------------------------------
  S    -23.178000   46.390100   63.988300
  C    -21.676400   47.236100   63.672600
  C    -21.730800   47.935000   62.499000
  C    -23.036200   47.878100   61.887400
  C    -23.840000   46.919800   62.484500
  H    -23.520800   48.312200   61.050700
  C    -20.577200   48.775600   61.873700
  H    -20.527200   48.564800   60.799700
  H    -19.614500   48.513400   62.302400
  C    -20.686100   50.276500   62.156700
  H    -19.985900   50.773900   61.436900
  H    -21.738000   50.593900   62.034700
  C    -20.293700   50.715700   63.537200
  H    -20.636100   51.733100   63.585600
  H    -20.834300   50.221000   64.414600
  H    -19.265400   50.774900   63.843900
  S    -25.652200   46.371600   60.461800
  C    -27.183500   45.737300   60.775200
  C    -27.506900   46.048500   62.126800
  C    -26.358800   46.459500   62.948300
  C    -25.211600   46.637500   62.154100
  H    -28.528200   45.863000   62.485500
  C    -26.361500   46.562200   64.484900
  H    -27.232700   47.111700   64.723700
  H    -25.542400   47.184900   64.791100
  C    -26.290500   45.128700   65.210800
  H    -26.106100   45.179100   66.283800
  H    -25.410900   44.697300   64.801200
  C    -27.479200   44.163900   64.929300
  H    -27.629900   44.191400   63.893600
  H    -28.484100   44.465000   65.362500
  H    -27.067800   43.177300   65.272700
  H    -20.881100   47.230300   64.372100
  H    -27.893800   45.379400   60.115400

 Total Charge           Charge          ....    0
 Multiplicity           Mult            ....    1
 Number of Electrons    NEL             ....  134
 Basis Dimension        Dim             ....  322

ORBITAL ENERGIES
----------------

  NO   OCC          E(Eh)            E(eV)
   0   2.0000     -88.966740     -2420.9081
   1   2.0000     -88.966348     -2420.8974
   2   2.0000     -10.328913      -281.0640
   3   2.0000     -10.327243      -281.0186
   4   2.0000     -10.316760      -280.7333
   5   2.0000     -10.312288      -280.6116
   6   2.0000     -10.312038      -280.6048
   7   2.0000     -10.307763      -280.4885
   8   2.0000     -10.303995      -280.3860
   9   2.0000     -10.293504      -280.1005
  10   2.0000     -10.293066      -280.0886
  11   2.0000     -10.290640      -280.0225
  12   2.0000     -10.290423      -280.0166
  13   2.0000     -10.286078      -279.8984
  14   2.0000     -10.278141      -279.6824
  15   2.0000     -10.275280      -279.6046
  16   2.0000      -8.081689      -219.9139
  17   2.0000      -8.081492      -219.9086
  18   2.0000      -6.040177      -164.3616
  19   2.0000      -6.040021      -164.3573
  20   2.0000      -6.035979      -164.2473
  21   2.0000      -6.035973      -164.2472
  22   2.0000      -6.032565      -164.1544
  23   2.0000      -6.032253      -164.1459
  24   2.0000      -1.010531       -27.4979
  25   2.0000      -0.986055       -26.8319
  26   2.0000      -0.912741       -24.8369
  27   2.0000      -0.900018       -24.4907
  28   2.0000      -0.873753       -23.7760
  29   2.0000      -0.849650       -23.1202
  30   2.0000      -0.841246       -22.8915
  31   2.0000      -0.811610       -22.0850
  32   2.0000      -0.785989       -21.3879
  33   2.0000      -0.777868       -21.1669
  34   2.0000      -0.707904       -19.2631
  35   2.0000      -0.695594       -18.9281
  36   2.0000      -0.690125       -18.7793
  37   2.0000      -0.669264       -18.2116
  38   2.0000      -0.643668       -17.5151
  39   2.0000      -0.615138       -16.7388
  40   2.0000      -0.589797       -16.0492
  41   2.0000      -0.574877       -15.6432
  42   2.0000      -0.552261       -15.0278
  43   2.0000      -0.550284       -14.9740
  44   2.0000      -0.542689       -14.7673
  45   2.0000      -0.535721       -14.5777
  46   2.0000      -0.523122       -14.2349
  47   2.0000      -0.516791       -14.0626
  48   2.0000      -0.507201       -13.8016
  49   2.0000      -0.492923       -13.4131
  50   2.0000      -0.492466       -13.4007
  51   2.0000      -0.480437       -13.0733
  52   2.0000      -0.473943       -12.8966
  53   2.0000      -0.468881       -12.7589
  54   2.0000      -0.459623       -12.5070
  55   2.0000      -0.443306       -12.0630
  56   2.0000      -0.438073       -11.9206
  57   2.0000      -0.434658       -11.8276
  58   2.0000      -0.432488       -11.7686
  59   2.0000      -0.422553       -11.4983
  60   2.0000      -0.419575       -11.4172
  61   2.0000      -0.411669       -11.2021
  62   2.0000      -0.409999       -11.1566
  63   2.0000      -0.356317        -9.6959
  64   2.0000      -0.330352        -8.9893
  65   2.0000      -0.325850        -8.8668
  66   2.0000      -0.287957        -7.8357
  67   0.0000       0.025312         0.6888
  68   0.0000       0.069139         1.8814
  69   0.0000       0.105964         2.8834
  70   0.0000       0.120516         3.2794
  71   0.0000       0.134453         3.6586

MULLIKEN ATOMIC CHARGES
-----------------------
   0 S :    0.085562
   1 C :   -0.102458
   2 C :   -0.061623
   3 C :    0.017940
   4 C :   -0.126991
   5 H :    0.003151
   6 C :    0.092653
   7 H :    0.036764
   8 H :    0.010625
   9 C :   -0.078048
  10 H :    0.040449
  11 H :    0.036441
  12 C :   -0.070521
  13 H :    0.024407
  14 H :    0.037229
  15 H :    0.028477
  16 S :    0.112762
  17 C :   -0.065296
  18 C :   -0.064751
  19 C :   -0.079535
  20 C :   -0.157565
  21 H :    0.031466
  22 C :    0.082637
  23 H :    0.017771
  24 H :    0.027467
  25 C :   -0.056801
  26 H :    0.035121
  27 H :    0.016105
  28 C :   -0.055601
  29 H :    0.018476
  30 H :    0.040016
  31 H :    0.047539
  32 H :    0.035538
  33 H :    0.040593
Sum of atomic charges:   -0.0000000

LOEWDIN ATOMIC CHARGES
----------------------
   0 S :    0.430273
   1 C :   -0.189943
   2 C :   -0.054588
   3 C :   -0.062927
   4 C :   -0.192076
   5 H :    0.024588
   6 C :   -0.029375
   7 H :    0.032599
   8 H :    0.026640
   9 C :   -0.043099
  10 H :    0.033186
  11 H :    0.028605
  12 C :   -0.078706
  13 H :    0.028084
  14 H :    0.032082
  15 H :    0.019621
  16 S :    0.428454
  17 C :   -0.197610
  18 C :   -0.074372
  19 C :   -0.053832
  20 C :   -0.198986
  21 H :    0.029610
  22 C :   -0.034438
  23 H :    0.024127
  24 H :    0.017849
  25 C :   -0.032598
  26 H :    0.023431
  27 H :    0.011838
  28 C :   -0.068155
  29 H :    0.013118
  30 H :    0.029639
  31 H :    0.036689
  32 H :    0.020350
  33 H :    0.019921

  Mayer bond orders larger than 0.100000
B(  0-S ,  1-C ) :   1.1286 B(  0-S ,  4-C ) :   1.1510 B(  1-C ,  2-C ) :   1.6258
B(  1-C , 32-H ) :   0.9757 B(  2-C ,  3-C ) :   1.2000 B(  2-C ,  6-C ) :   1.0208
B(  3-C ,  4-C ) :   1.5834 B(  3-C ,  5-H ) :   0.9955 B(  4-C , 20-C ) :   1.0557
B(  6-C ,  7-H ) :   0.9446 B(  6-C ,  8-H ) :   0.9413 B(  6-C ,  9-C ) :   1.0661
B(  9-C , 10-H ) :   0.9507 B(  9-C , 11-H ) :   0.9599 B(  9-C , 12-C ) :   1.0848
B( 12-C , 13-H ) :   0.9704 B( 12-C , 14-H ) :   0.9704 B( 12-C , 15-H ) :   0.9742
B( 16-S , 17-C ) :   1.1803 B( 16-S , 20-C ) :   1.1437 B( 17-C , 18-C ) :   1.5696
B( 17-C , 20-C ) :   0.1020 B( 17-C , 33-H ) :   0.9785 B( 18-C , 19-C ) :   1.2470
B( 18-C , 21-H ) :   0.9802 B( 19-C , 20-C ) :   1.5548 B( 19-C , 22-C ) :   1.0430
B( 22-C , 23-H ) :   0.9339 B( 22-C , 24-H ) :   0.9306 B( 22-C , 25-C ) :   1.0456
B( 25-C , 26-H ) :   0.9612 B( 25-C , 27-H ) :   0.9537 B( 25-C , 28-C ) :   1.0746
B( 28-C , 29-H ) :   0.9710 B( 28-C , 30-H ) :   0.9758 B( 28-C , 31-H ) :   0.9721

Dispersion correction           -0.014691476
FINAL SINGLE POINT ENERGY     -1339.862198842331

DIPOLE MOMENT
-------------
                                X             Y             Z
Electronic contribution:     -4.54149      -7.34830     -10.86660
Nuclear contribution   :      4.57293       7.64094      10.99019
                        -----------------------------------------
Total Dipole Moment    :      0.03144       0.29265       0.12359
                        -----------------------------------------
Magnitude (a.u.)       :      0.31923
Magnitude (Debye)      :      0.81141

Rotational constants in cm-1:     0.024560     0.007796     0.006457
Rotational constants in MHz :   736.280042   233.710792   193.586990

                             ****ORCA TERMINATED NORMALLY****
TOTAL RUN TIME: 0 days 0 hours 0 minutes 32 seconds 970 msec
