                         Program Version 4.2.1 -  RELEASE  -
|  1> ! wB97X-D3 SP def2-SVP
|  2> %pal
|  3> nprocs 16
|  4> end
|  5>
|  6> * xyz 0 1
|  7> S 	 -56.1282 	 35.4847 	 93.9953
|  8> C 	 -57.2524 	 34.522 	 93.1662
|  9> C 	 -57.6948 	 33.437 	 93.8848
| 10> C 	 -56.8874 	 33.2299 	 95.0226
| 11> C 	 -55.8997 	 34.1303 	 95.141
| 12> H 	 -56.8535 	 32.3392 	 95.6841
| 13> C 	 -58.9521 	 32.5182 	 93.6503
| 14> H 	 -58.6728 	 31.626 	 93.1906
| 15> H 	 -59.5631 	 33.0386 	 92.9039
| 16> C 	 -59.7275 	 32.2031 	 94.9898
| 17> H 	 -59.0446 	 31.7307 	 95.7163
| 18> H 	 -60.069 	 33.0693 	 95.5325
| 19> C 	 -60.8005 	 31.2098 	 94.7445
| 20> H 	 -61.5811 	 31.0019 	 95.574
| 21> H 	 -61.4692 	 31.4754 	 93.9075
| 22> H 	 -60.3939 	 30.1969 	 94.5353
| 23> S 	 -54.5794 	 32.6332 	 97.0213
| 24> C 	 -53.607 	 33.403 	 98.1998
| 25> C 	 -53.6721 	 34.7424 	 98.1029
| 26> C 	 -54.3679 	 35.1918 	 96.9521
| 27> C 	 -55.0465 	 34.151 	 96.2962
| 28> H 	 -53.2322 	 35.3069 	 98.8563
| 29> C 	 -54.4645 	 36.6186 	 96.5188
| 30> H 	 -55.5096 	 36.9082 	 96.4851
| 31> H 	 -54.1957 	 36.8058 	 95.4683
| 32> C 	 -53.7677 	 37.6647 	 97.3366
| 33> H 	 -52.694 	 37.47 	 97.3006
| 34> H 	 -54.1338 	 37.5969 	 98.3967
| 35> C 	 -54.0451 	 39.0369 	 96.6477
| 36> H 	 -53.5866 	 39.6829 	 97.3613
| 37> H 	 -55.1698 	 39.2576 	 96.553
| 38> H 	 -53.529 	 39.2165 	 95.6758
| 39> H 	 -57.6702 	 34.981 	 92.3297
| 40> H 	 -53.2462 	 32.8555 	 99.0307
| 41> *
| 42>
| 43>                          ****END OF INPUT****

CARTESIAN COORDINATES (ANGSTROEM)
---------------------------------
  S    -56.128200   35.484700   93.995300
  C    -57.252400   34.522000   93.166200
  C    -57.694800   33.437000   93.884800
  C    -56.887400   33.229900   95.022600
  C    -55.899700   34.130300   95.141000
  H    -56.853500   32.339200   95.684100
  C    -58.952100   32.518200   93.650300
  H    -58.672800   31.626000   93.190600
  H    -59.563100   33.038600   92.903900
  C    -59.727500   32.203100   94.989800
  H    -59.044600   31.730700   95.716300
  H    -60.069000   33.069300   95.532500
  C    -60.800500   31.209800   94.744500
  H    -61.581100   31.001900   95.574000
  H    -61.469200   31.475400   93.907500
  H    -60.393900   30.196900   94.535300
  S    -54.579400   32.633200   97.021300
  C    -53.607000   33.403000   98.199800
  C    -53.672100   34.742400   98.102900
  C    -54.367900   35.191800   96.952100
  C    -55.046500   34.151000   96.296200
  H    -53.232200   35.306900   98.856300
  C    -54.464500   36.618600   96.518800
  H    -55.509600   36.908200   96.485100
  H    -54.195700   36.805800   95.468300
  C    -53.767700   37.664700   97.336600
  H    -52.694000   37.470000   97.300600
  H    -54.133800   37.596900   98.396700
  C    -54.045100   39.036900   96.647700
  H    -53.586600   39.682900   97.361300
  H    -55.169800   39.257600   96.553000
  H    -53.529000   39.216500   95.675800
  H    -57.670200   34.981000   92.329700
  H    -53.246200   32.855500   99.030700

 Total Charge           Charge          ....    0
 Multiplicity           Mult            ....    1
 Number of Electrons    NEL             ....  134
 Basis Dimension        Dim             ....  322

ORBITAL ENERGIES
----------------

  NO   OCC          E(Eh)            E(eV)
   0   2.0000     -88.966675     -2420.9063
   1   2.0000     -88.960554     -2420.7398
   2   2.0000     -10.323779      -280.9243
   3   2.0000     -10.321231      -280.8550
   4   2.0000     -10.306000      -280.4405
   5   2.0000     -10.304264      -280.3933
   6   2.0000     -10.302156      -280.3359
   7   2.0000     -10.297636      -280.2129
   8   2.0000     -10.296782      -280.1897
   9   2.0000     -10.289473      -279.9908
  10   2.0000     -10.289152      -279.9820
  11   2.0000     -10.287445      -279.9356
  12   2.0000     -10.285238      -279.8756
  13   2.0000     -10.284651      -279.8596
  14   2.0000     -10.283520      -279.8288
  15   2.0000     -10.282057      -279.7890
  16   2.0000      -8.081495      -219.9087
  17   2.0000      -8.076182      -219.7641
  18   2.0000      -6.039910      -164.3543
  19   2.0000      -6.036242      -164.2545
  20   2.0000      -6.034663      -164.2115
  21   2.0000      -6.032103      -164.1419
  22   2.0000      -6.030522      -164.0989
  23   2.0000      -6.027011      -164.0033
  24   2.0000      -1.014535       -27.6069
  25   2.0000      -0.992222       -26.9997
  26   2.0000      -0.915162       -24.9028
  27   2.0000      -0.907943       -24.7064
  28   2.0000      -0.881347       -23.9827
  29   2.0000      -0.855749       -23.2861
  30   2.0000      -0.845561       -23.0089
  31   2.0000      -0.816508       -22.2183
  32   2.0000      -0.778592       -21.1866
  33   2.0000      -0.768282       -20.9060
  34   2.0000      -0.709085       -19.2952
  35   2.0000      -0.704521       -19.1710
  36   2.0000      -0.693168       -18.8621
  37   2.0000      -0.664826       -18.0908
  38   2.0000      -0.635044       -17.2804
  39   2.0000      -0.622970       -16.9519
  40   2.0000      -0.607659       -16.5352
  41   2.0000      -0.571532       -15.5522
  42   2.0000      -0.568949       -15.4819
  43   2.0000      -0.559504       -15.2249
  44   2.0000      -0.526988       -14.3401
  45   2.0000      -0.522503       -14.2180
  46   2.0000      -0.518408       -14.1066
  47   2.0000      -0.510441       -13.8898
  48   2.0000      -0.507381       -13.8065
  49   2.0000      -0.497191       -13.5293
  50   2.0000      -0.486417       -13.2361
  51   2.0000      -0.481374       -13.0989
  52   2.0000      -0.476359       -12.9624
  53   2.0000      -0.469248       -12.7689
  54   2.0000      -0.459568       -12.5055
  55   2.0000      -0.454524       -12.3682
  56   2.0000      -0.443557       -12.0698
  57   2.0000      -0.436497       -11.8777
  58   2.0000      -0.431565       -11.7435
  59   2.0000      -0.426523       -11.6063
  60   2.0000      -0.418416       -11.3857
  61   2.0000      -0.417671       -11.3654
  62   2.0000      -0.405594       -11.0368
  63   2.0000      -0.367761       -10.0073
  64   2.0000      -0.331981        -9.0337
  65   2.0000      -0.326513        -8.8849
  66   2.0000      -0.278688        -7.5835
  67   0.0000       0.025281         0.6879
  68   0.0000       0.084734         2.3057
  69   0.0000       0.109411         2.9772
  70   0.0000       0.118376         3.2212
  71   0.0000       0.136873         3.7245

MULLIKEN ATOMIC CHARGES
-----------------------
   0 S :    0.077682
   1 C :   -0.095759
   2 C :   -0.046949
   3 C :   -0.069633
   4 C :   -0.077342
   5 H :    0.042549
   6 C :    0.102937
   7 H :    0.022287
   8 H :    0.020418
   9 C :   -0.065438
  10 H :    0.033543
  11 H :    0.036827
  12 C :   -0.091357
  13 H :    0.042023
  14 H :    0.029245
  15 H :    0.034678
  16 S :    0.080839
  17 C :   -0.060449
  18 C :   -0.027074
  19 C :   -0.013899
  20 C :   -0.131972
  21 H :   -0.007496
  22 C :   -0.009589
  23 H :    0.023357
  24 H :    0.033656
  25 C :   -0.095780
  26 H :    0.035597
  27 H :    0.043343
  28 C :   -0.057360
  29 H :    0.026984
  30 H :    0.048823
  31 H :    0.049896
  32 H :    0.021550
  33 H :    0.043862
Sum of atomic charges:   -0.0000000

LOEWDIN ATOMIC CHARGES
----------------------
   0 S :    0.415430
   1 C :   -0.198486
   2 C :   -0.058672
   3 C :   -0.071991
   4 C :   -0.172856
   5 H :    0.032213
   6 C :   -0.014195
   7 H :    0.022479
   8 H :    0.029630
   9 C :   -0.043162
  10 H :    0.028581
  11 H :    0.026455
  12 C :   -0.080600
  13 H :    0.035234
  14 H :    0.023367
  15 H :    0.027020
  16 S :    0.419953
  17 C :   -0.190765
  18 C :   -0.067637
  19 C :   -0.061814
  20 C :   -0.185648
  21 H :    0.022580
  22 C :   -0.056623
  23 H :    0.026182
  24 H :    0.026003
  25 C :   -0.041648
  26 H :    0.025204
  27 H :    0.029063
  28 C :   -0.067927
  29 H :    0.022434
  30 H :    0.034926
  31 H :    0.032227
  32 H :    0.010750
  33 H :    0.022294

  Mayer bond orders larger than 0.100000
B(  0-S ,  1-C ) :   1.1478 B(  0-S ,  4-C ) :   1.1257 B(  1-C ,  2-C ) :   1.6112
B(  1-C , 32-H ) :   0.9781 B(  2-C ,  3-C ) :   1.2385 B(  2-C ,  6-C ) :   1.0056
B(  3-C ,  4-C ) :   1.5784 B(  3-C ,  5-H ) :   0.9808 B(  4-C , 20-C ) :   1.0899
B(  6-C ,  7-H ) :   0.9412 B(  6-C ,  8-H ) :   0.9448 B(  6-C ,  9-C ) :   1.0550
B(  9-C , 10-H ) :   0.9488 B(  9-C , 11-H ) :   0.9592 B(  9-C , 12-C ) :   1.0853
B( 12-C , 13-H ) :   0.9721 B( 12-C , 14-H ) :   0.9726 B( 12-C , 15-H ) :   0.9741
B( 16-S , 17-C ) :   1.1598 B( 16-S , 20-C ) :   1.1465 B( 17-C , 18-C ) :   1.6013
B( 17-C , 33-H ) :   0.9628 B( 18-C , 19-C ) :   1.2490 B( 18-C , 21-H ) :   1.0022
B( 19-C , 20-C ) :   1.5505 B( 19-C , 22-C ) :   1.0290 B( 22-C , 23-H ) :   0.9275
B( 22-C , 24-H ) :   0.9265 B( 22-C , 25-C ) :   1.0983 B( 25-C , 26-H ) :   0.9459
B( 25-C , 27-H ) :   0.9463 B( 25-C , 28-C ) :   1.0801 B( 28-C , 29-H ) :   0.9725
B( 28-C , 30-H ) :   0.9732 B( 28-C , 31-H ) :   0.9719

Dispersion correction           -0.013405087
FINAL SINGLE POINT ENERGY     -1339.865695238986

DIPOLE MOMENT
-------------
                                X             Y             Z
Electronic contribution:     11.73031      -5.62659      -1.63549
Nuclear contribution   :    -12.03803       5.78404       1.80369
                        -----------------------------------------
Total Dipole Moment    :     -0.30772       0.15745       0.16820
                        -----------------------------------------
Magnitude (a.u.)       :      0.38441
Magnitude (Debye)      :      0.97710

Rotational constants in cm-1:     0.020869     0.007873     0.006272
Rotational constants in MHz :   625.638649   236.036879   188.032677

                             ****ORCA TERMINATED NORMALLY****
TOTAL RUN TIME: 0 days 0 hours 0 minutes 27 seconds 728 msec
