                         Program Version 4.2.1 -  RELEASE  -
|  1> ! wB97X-D3 SP def2-SVP
|  2> %pal
|  3> nprocs 16
|  4> end
|  5>
|  6> * xyz 0 1
|  7> S 	 -46.3265 	 68.0766 	 125.977
|  8> C 	 -47.1869 	 67.5125 	 124.494
|  9> C 	 -48.2648 	 66.7103 	 124.779
| 10> C 	 -48.5255 	 66.7338 	 126.193
| 11> C 	 -47.5961 	 67.4134 	 126.937
| 12> H 	 -49.335 	 66.2555 	 126.569
| 13> C 	 -49.0484 	 65.9822 	 123.65
| 14> H 	 -48.5506 	 64.9581 	 123.633
| 15> H 	 -48.7832 	 66.443 	 122.737
| 16> C 	 -50.5697 	 65.8622 	 123.788
| 17> H 	 -50.687 	 65.2121 	 124.691
| 18> H 	 -50.9607 	 66.9162 	 124.016
| 19> C 	 -51.2616 	 65.25 	 122.601
| 20> H 	 -51.6741 	 66.025 	 121.943
| 21> H 	 -50.6254 	 64.503 	 122.054
| 22> H 	 -52.1152 	 64.5899 	 122.86
| 23> S 	 -46.3292 	 66.6819 	 129.313
| 24> C 	 -47.0806 	 67.0688 	 130.861
| 25> C 	 -48.2393 	 67.8579 	 130.66
| 26> C 	 -48.4582 	 68.1834 	 129.29
| 27> C 	 -47.592 	 67.5095 	 128.406
| 28> H 	 -48.9502 	 68.0277 	 131.449
| 29> C 	 -49.7082 	 68.9137 	 128.943
| 30> H 	 -49.4761 	 69.2791 	 127.985
| 31> H 	 -49.7889 	 69.8071 	 129.614
| 32> C 	 -51.0534 	 68.1682 	 128.93
| 33> H 	 -51.2115 	 67.5233 	 129.757
| 34> H 	 -51.1951 	 67.5871 	 128.028
| 35> C 	 -52.1715 	 69.2319 	 128.976
| 36> H 	 -53.1288 	 68.6777 	 129.044
| 37> H 	 -52.1685 	 69.8128 	 128.046
| 38> H 	 -52.0839 	 69.8839 	 129.83
| 39> H 	 -46.8975 	 67.6224 	 123.468
| 40> H 	 -46.7797 	 66.7463 	 131.849
| 41> *
| 42>
| 43>                          ****END OF INPUT****

CARTESIAN COORDINATES (ANGSTROEM)
---------------------------------
  S    -46.326500   68.076600  125.977000
  C    -47.186900   67.512500  124.494000
  C    -48.264800   66.710300  124.779000
  C    -48.525500   66.733800  126.193000
  C    -47.596100   67.413400  126.937000
  H    -49.335000   66.255500  126.569000
  C    -49.048400   65.982200  123.650000
  H    -48.550600   64.958100  123.633000
  H    -48.783200   66.443000  122.737000
  C    -50.569700   65.862200  123.788000
  H    -50.687000   65.212100  124.691000
  H    -50.960700   66.916200  124.016000
  C    -51.261600   65.250000  122.601000
  H    -51.674100   66.025000  121.943000
  H    -50.625400   64.503000  122.054000
  H    -52.115200   64.589900  122.860000
  S    -46.329200   66.681900  129.313000
  C    -47.080600   67.068800  130.861000
  C    -48.239300   67.857900  130.660000
  C    -48.458200   68.183400  129.290000
  C    -47.592000   67.509500  128.406000
  H    -48.950200   68.027700  131.449000
  C    -49.708200   68.913700  128.943000
  H    -49.476100   69.279100  127.985000
  H    -49.788900   69.807100  129.614000
  C    -51.053400   68.168200  128.930000
  H    -51.211500   67.523300  129.757000
  H    -51.195100   67.587100  128.028000
  C    -52.171500   69.231900  128.976000
  H    -53.128800   68.677700  129.044000
  H    -52.168500   69.812800  128.046000
  H    -52.083900   69.883900  129.830000
  H    -46.897500   67.622400  123.468000
  H    -46.779700   66.746300  131.849000

 Total Charge           Charge          ....    0
 Multiplicity           Mult            ....    1
 Number of Electrons    NEL             ....  134
 Basis Dimension        Dim             ....  322

ORBITAL ENERGIES
----------------

  NO   OCC          E(Eh)            E(eV)
   0   2.0000     -88.968728     -2420.9622
   1   2.0000     -88.966935     -2420.9134
   2   2.0000     -10.328923      -281.0643
   3   2.0000     -10.328265      -281.0464
   4   2.0000     -10.320545      -280.8363
   5   2.0000     -10.312777      -280.6249
   6   2.0000     -10.302283      -280.3394
   7   2.0000     -10.300074      -280.2793
   8   2.0000     -10.299158      -280.2543
   9   2.0000     -10.299144      -280.2540
  10   2.0000     -10.292164      -280.0640
  11   2.0000     -10.288194      -279.9560
  12   2.0000     -10.287657      -279.9414
  13   2.0000     -10.283590      -279.8307
  14   2.0000     -10.283042      -279.8158
  15   2.0000     -10.277758      -279.6720
  16   2.0000      -8.082922      -219.9475
  17   2.0000      -8.080900      -219.8925
  18   2.0000      -6.041535      -164.3985
  19   2.0000      -6.039471      -164.3424
  20   2.0000      -6.037607      -164.2916
  21   2.0000      -6.035360      -164.2305
  22   2.0000      -6.033490      -164.1796
  23   2.0000      -6.031803      -164.1337
  24   2.0000      -1.002575       -27.2815
  25   2.0000      -0.978461       -26.6253
  26   2.0000      -0.913055       -24.8455
  27   2.0000      -0.909443       -24.7472
  28   2.0000      -0.868051       -23.6209
  29   2.0000      -0.851318       -23.1655
  30   2.0000      -0.845418       -23.0050
  31   2.0000      -0.814574       -22.1657
  32   2.0000      -0.782912       -21.3041
  33   2.0000      -0.766867       -20.8675
  34   2.0000      -0.709850       -19.3160
  35   2.0000      -0.700249       -19.0547
  36   2.0000      -0.687407       -18.7053
  37   2.0000      -0.660112       -17.9625
  38   2.0000      -0.640389       -17.4259
  39   2.0000      -0.625570       -17.0226
  40   2.0000      -0.591919       -16.1069
  41   2.0000      -0.574473       -15.6322
  42   2.0000      -0.568117       -15.4592
  43   2.0000      -0.561683       -15.2842
  44   2.0000      -0.527044       -14.3416
  45   2.0000      -0.522286       -14.2121
  46   2.0000      -0.517530       -14.0827
  47   2.0000      -0.508909       -13.8481
  48   2.0000      -0.505365       -13.7517
  49   2.0000      -0.500280       -13.6133
  50   2.0000      -0.494885       -13.4665
  51   2.0000      -0.473932       -12.8963
  52   2.0000      -0.470100       -12.7921
  53   2.0000      -0.462915       -12.5966
  54   2.0000      -0.456582       -12.4242
  55   2.0000      -0.455804       -12.4031
  56   2.0000      -0.445076       -12.1111
  57   2.0000      -0.438136       -11.9223
  58   2.0000      -0.432727       -11.7751
  59   2.0000      -0.426685       -11.6107
  60   2.0000      -0.422170       -11.4878
  61   2.0000      -0.415986       -11.3196
  62   2.0000      -0.413252       -11.2452
  63   2.0000      -0.335444        -9.1279
  64   2.0000      -0.331945        -9.0327
  65   2.0000      -0.325840        -8.8665
  66   2.0000      -0.299154        -8.1404
  67   0.0000       0.038795         1.0557
  68   0.0000       0.057298         1.5592
  69   0.0000       0.110903         3.0178
  70   0.0000       0.125599         3.4177
  71   0.0000       0.126387         3.4392

MULLIKEN ATOMIC CHARGES
-----------------------
   0 S :    0.121275
   1 C :   -0.118557
   2 C :   -0.100899
   3 C :    0.075593
   4 C :   -0.150178
   5 H :   -0.041264
   6 C :    0.069754
   7 H :    0.051767
   8 H :    0.007449
   9 C :   -0.111707
  10 H :    0.042271
  11 H :    0.050527
  12 C :   -0.051082
  13 H :    0.046289
  14 H :    0.034736
  15 H :    0.034506
  16 S :    0.112851
  17 C :   -0.092590
  18 C :   -0.043067
  19 C :   -0.021028
  20 C :   -0.173814
  21 H :    0.021589
  22 C :    0.057905
  23 H :    0.014058
  24 H :    0.027075
  25 C :   -0.030342
  26 H :    0.018328
  27 H :    0.027631
  28 C :   -0.066875
  29 H :    0.032384
  30 H :    0.036136
  31 H :    0.031306
  32 H :    0.031641
  33 H :    0.056333
Sum of atomic charges:   -0.0000000

LOEWDIN ATOMIC CHARGES
----------------------
   0 S :    0.398031
   1 C :   -0.181537
   2 C :   -0.056655
   3 C :   -0.048508
   4 C :   -0.201886
   5 H :    0.010263
   6 C :   -0.030183
   7 H :    0.042781
   8 H :    0.019402
   9 C :   -0.055081
  10 H :    0.028448
  11 H :    0.035480
  12 C :   -0.076633
  13 H :    0.031159
  14 H :    0.031987
  15 H :    0.032333
  16 S :    0.403194
  17 C :   -0.184298
  18 C :   -0.069181
  19 C :   -0.057176
  20 C :   -0.202247
  21 H :    0.029234
  22 C :   -0.034840
  23 H :    0.025941
  24 H :    0.035901
  25 C :   -0.030043
  26 H :    0.016902
  27 H :    0.024007
  28 C :   -0.061271
  29 H :    0.027273
  30 H :    0.026046
  31 H :    0.019394
  32 H :    0.022533
  33 H :    0.029233

  Mayer bond orders larger than 0.100000
B(  0-S ,  1-C ) :   1.1191 B(  0-S ,  4-C ) :   1.1472 B(  1-C ,  2-C ) :   1.6538
B(  1-C , 32-H ) :   0.9645 B(  2-C ,  3-C ) :   1.2256 B(  2-C ,  6-C ) :   1.0084
B(  3-C ,  4-C ) :   1.5831 B(  3-C ,  5-H ) :   1.0149 B(  4-C , 20-C ) :   1.0176
B(  6-C ,  7-H ) :   0.9283 B(  6-C ,  8-H ) :   0.9435 B(  6-C ,  9-C ) :   1.0640
B(  9-C , 10-H ) :   0.9497 B(  9-C , 11-H ) :   0.9625 B(  9-C , 12-C ) :   1.0785
B( 12-C , 13-H ) :   0.9746 B( 12-C , 14-H ) :   0.9721 B( 12-C , 15-H ) :   0.9736
B( 16-S , 17-C ) :   1.1608 B( 16-S , 20-C ) :   1.1447 B( 17-C , 18-C ) :   1.5906
B( 17-C , 20-C ) :   0.1068 B( 17-C , 33-H ) :   0.9684 B( 18-C , 19-C ) :   1.2507
B( 18-C , 21-H ) :   0.9892 B( 19-C , 20-C ) :   1.5760 B( 19-C , 22-C ) :   1.0621
B( 22-C , 23-H ) :   0.9166 B( 22-C , 24-H ) :   0.9394 B( 22-C , 25-C ) :   1.0596
B( 25-C , 26-H ) :   0.9603 B( 25-C , 27-H ) :   0.9502 B( 25-C , 28-C ) :   1.0812
B( 28-C , 29-H ) :   0.9744 B( 28-C , 30-H ) :   0.9773 B( 28-C , 31-H ) :   0.9780

Dispersion correction           -0.013882993
FINAL SINGLE POINT ENERGY     -1339.872179051271

DIPOLE MOMENT
-------------
                                X             Y             Z
Electronic contribution:     29.78683       1.58062      10.34634
Nuclear contribution   :    -30.56670      -1.83734     -10.56196
                        -----------------------------------------
Total Dipole Moment    :     -0.77987      -0.25672      -0.21563
                        -----------------------------------------
Magnitude (a.u.)       :      0.84888
Magnitude (Debye)      :      2.15767

Rotational constants in cm-1:     0.016535     0.008728     0.006518
Rotational constants in MHz :   495.698158   261.650267   195.411386

                             ****ORCA TERMINATED NORMALLY****
TOTAL RUN TIME: 0 days 0 hours 0 minutes 34 seconds 510 msec
