                         Program Version 4.2.1 -  RELEASE  -
|  1> ! wB97X-D3 SP def2-SVP
|  2> %pal
|  3> nprocs 16
|  4> end
|  5>
|  6> * xyz 0 1
|  7> S 	 42.7541 	 15.7499 	 86.8795
|  8> C 	 43.9494 	 15.6626 	 85.6831
|  9> C 	 43.8936 	 14.4685 	 85.0668
| 10> C 	 42.8921 	 13.5885 	 85.5087
| 11> C 	 42.0322 	 14.1745 	 86.3957
| 12> H 	 42.873 	 12.5481 	 85.1681
| 13> C 	 44.8964 	 13.9736 	 83.9145
| 14> H 	 45.2805 	 14.7966 	 83.3071
| 15> H 	 44.2601 	 13.3256 	 83.3214
| 16> C 	 46.0906 	 13.1589 	 84.4014
| 17> H 	 45.7864 	 12.295 	 84.9947
| 18> H 	 46.5654 	 12.7729 	 83.469
| 19> C 	 47.1617 	 14.0569 	 85.0644
| 20> H 	 48.1262 	 13.6288 	 85.1039
| 21> H 	 47.3539 	 15.0033 	 84.5507
| 22> H 	 46.9077 	 14.4136 	 86.0637
| 23> S 	 39.6126 	 14.7854 	 87.3081
| 24> C 	 38.62 	 13.5606 	 87.9856
| 25> C 	 39.2666 	 12.326 	 88.1533
| 26> C 	 40.6175 	 12.3958 	 87.7015
| 27> C 	 40.9084 	 13.651 	 87.1759
| 28> H 	 38.6735 	 11.5247 	 88.6109
| 29> C 	 41.4457 	 11.1432 	 87.6408
| 30> H 	 41.4987 	 10.7432 	 88.6824
| 31> H 	 42.4637 	 11.5117 	 87.4236
| 32> C 	 41.0191 	 9.9107 	 86.7539
| 33> H 	 40.9656 	 10.0842 	 85.6967
| 34> H 	 40.0783 	 9.51373 	 87.0489
| 35> C 	 42.0678 	 8.84457 	 86.9404
| 36> H 	 42.0951 	 8.32862 	 87.8766
| 37> H 	 43.1022 	 9.18114 	 86.931
| 38> H 	 42.0473 	 8.14715 	 86.1707
| 39> H 	 44.6434 	 16.4309 	 85.5004
| 40> H 	 37.6142 	 13.6818 	 88.2013
| 41> *
| 42>
| 43>                          ****END OF INPUT****

CARTESIAN COORDINATES (ANGSTROEM)
---------------------------------
  S     42.754100   15.749900   86.879500
  C     43.949400   15.662600   85.683100
  C     43.893600   14.468500   85.066800
  C     42.892100   13.588500   85.508700
  C     42.032200   14.174500   86.395700
  H     42.873000   12.548100   85.168100
  C     44.896400   13.973600   83.914500
  H     45.280500   14.796600   83.307100
  H     44.260100   13.325600   83.321400
  C     46.090600   13.158900   84.401400
  H     45.786400   12.295000   84.994700
  H     46.565400   12.772900   83.469000
  C     47.161700   14.056900   85.064400
  H     48.126200   13.628800   85.103900
  H     47.353900   15.003300   84.550700
  H     46.907700   14.413600   86.063700
  S     39.612600   14.785400   87.308100
  C     38.620000   13.560600   87.985600
  C     39.266600   12.326000   88.153300
  C     40.617500   12.395800   87.701500
  C     40.908400   13.651000   87.175900
  H     38.673500   11.524700   88.610900
  C     41.445700   11.143200   87.640800
  H     41.498700   10.743200   88.682400
  H     42.463700   11.511700   87.423600
  C     41.019100    9.910700   86.753900
  H     40.965600   10.084200   85.696700
  H     40.078300    9.513730   87.048900
  C     42.067800    8.844570   86.940400
  H     42.095100    8.328620   87.876600
  H     43.102200    9.181140   86.931000
  H     42.047300    8.147150   86.170700
  H     44.643400   16.430900   85.500400
  H     37.614200   13.681800   88.201300

 Total Charge           Charge          ....    0
 Multiplicity           Mult            ....    1
 Number of Electrons    NEL             ....  134
 Basis Dimension        Dim             ....  322

ORBITAL ENERGIES
----------------

  NO   OCC          E(Eh)            E(eV)
   0   2.0000     -88.967181     -2420.9201
   1   2.0000     -88.959464     -2420.7101
   2   2.0000     -10.331002      -281.1209
   3   2.0000     -10.324531      -280.9448
   4   2.0000     -10.309782      -280.5434
   5   2.0000     -10.304264      -280.3933
   6   2.0000     -10.302920      -280.3567
   7   2.0000     -10.297514      -280.2096
   8   2.0000     -10.295192      -280.1464
   9   2.0000     -10.293798      -280.1085
  10   2.0000     -10.293483      -280.0999
  11   2.0000     -10.292105      -280.0624
  12   2.0000     -10.290858      -280.0285
  13   2.0000     -10.289102      -279.9807
  14   2.0000     -10.273078      -279.5447
  15   2.0000     -10.268421      -279.4180
  16   2.0000      -8.082891      -219.9467
  17   2.0000      -8.074964      -219.7309
  18   2.0000      -6.041176      -164.3888
  19   2.0000      -6.037227      -164.2813
  20   2.0000      -6.033863      -164.1898
  21   2.0000      -6.033489      -164.1796
  22   2.0000      -6.029354      -164.0671
  23   2.0000      -6.025668      -163.9668
  24   2.0000      -1.011743       -27.5309
  25   2.0000      -0.990288       -26.9471
  26   2.0000      -0.911501       -24.8032
  27   2.0000      -0.904008       -24.5993
  28   2.0000      -0.869924       -23.6718
  29   2.0000      -0.861793       -23.4506
  30   2.0000      -0.845686       -23.0123
  31   2.0000      -0.812361       -22.1055
  32   2.0000      -0.782412       -21.2905
  33   2.0000      -0.773430       -21.0461
  34   2.0000      -0.716202       -19.4888
  35   2.0000      -0.701032       -19.0761
  36   2.0000      -0.694192       -18.8899
  37   2.0000      -0.665138       -18.0993
  38   2.0000      -0.641955       -17.4685
  39   2.0000      -0.627027       -17.0623
  40   2.0000      -0.596136       -16.2217
  41   2.0000      -0.569776       -15.5044
  42   2.0000      -0.562663       -15.3108
  43   2.0000      -0.547782       -14.9059
  44   2.0000      -0.538345       -14.6491
  45   2.0000      -0.528010       -14.3679
  46   2.0000      -0.517809       -14.0903
  47   2.0000      -0.513581       -13.9752
  48   2.0000      -0.505338       -13.7510
  49   2.0000      -0.501335       -13.6420
  50   2.0000      -0.487230       -13.2582
  51   2.0000      -0.480616       -13.0782
  52   2.0000      -0.472827       -12.8663
  53   2.0000      -0.465224       -12.6594
  54   2.0000      -0.459069       -12.4919
  55   2.0000      -0.447407       -12.1746
  56   2.0000      -0.443546       -12.0695
  57   2.0000      -0.440922       -11.9981
  58   2.0000      -0.435322       -11.8457
  59   2.0000      -0.431725       -11.7478
  60   2.0000      -0.427776       -11.6404
  61   2.0000      -0.423394       -11.5211
  62   2.0000      -0.399377       -10.8676
  63   2.0000      -0.352581        -9.5942
  64   2.0000      -0.332098        -9.0368
  65   2.0000      -0.329642        -8.9700
  66   2.0000      -0.288230        -7.8431
  67   0.0000       0.032021         0.8713
  68   0.0000       0.071977         1.9586
  69   0.0000       0.114836         3.1248
  70   0.0000       0.122533         3.3343
  71   0.0000       0.123727         3.3668

MULLIKEN ATOMIC CHARGES
-----------------------
   0 S :    0.085851
   1 C :   -0.097990
   2 C :   -0.091402
   3 C :    0.005049
   4 C :   -0.106365
   5 H :    0.016648
   6 C :    0.053734
   7 H :    0.026895
   8 H :    0.019819
   9 C :   -0.053521
  10 H :    0.031508
  11 H :    0.033278
  12 C :   -0.045268
  13 H :    0.024305
  14 H :    0.011768
  15 H :    0.032869
  16 S :    0.128214
  17 C :   -0.069156
  18 C :   -0.065153
  19 C :    0.004392
  20 C :   -0.160467
  21 H :    0.029473
  22 C :    0.008157
  23 H :    0.033479
  24 H :    0.023987
  25 C :   -0.001057
  26 H :    0.027905
  27 H :    0.020302
  28 C :   -0.025276
  29 H :    0.018748
  30 H :    0.009802
  31 H :    0.013179
  32 H :    0.028521
  33 H :    0.027774
Sum of atomic charges:    0.0000000

LOEWDIN ATOMIC CHARGES
----------------------
   0 S :    0.398938
   1 C :   -0.203052
   2 C :   -0.070270
   3 C :   -0.070490
   4 C :   -0.175209
   5 H :    0.034661
   6 C :   -0.023465
   7 H :    0.028033
   8 H :    0.024983
   9 C :   -0.039507
  10 H :    0.023688
  11 H :    0.029644
  12 C :   -0.070180
  13 H :    0.020121
  14 H :    0.024017
  15 H :    0.025311
  16 S :    0.440179
  17 C :   -0.184374
  18 C :   -0.069780
  19 C :   -0.058011
  20 C :   -0.210530
  21 H :    0.036968
  22 C :   -0.035991
  23 H :    0.039175
  24 H :    0.030241
  25 C :   -0.025421
  26 H :    0.023943
  27 H :    0.021775
  28 C :   -0.063644
  29 H :    0.022449
  30 H :    0.025551
  31 H :    0.017225
  32 H :    0.021498
  33 H :    0.011526

  Mayer bond orders larger than 0.100000
B(  0-S ,  1-C ) :   1.1366 B(  0-S ,  4-C ) :   1.1507 B(  1-C ,  2-C ) :   1.6209
B(  1-C , 32-H ) :   0.9787 B(  2-C ,  3-C ) :   1.2598 B(  2-C ,  6-C ) :   0.9982
B(  3-C ,  4-C ) :   1.5705 B(  3-C ,  5-H ) :   0.9960 B(  4-C , 20-C ) :   1.0115
B(  6-C ,  7-H ) :   0.9496 B(  6-C ,  8-H ) :   0.9434 B(  6-C ,  9-C ) :   1.0829
B(  9-C , 10-H ) :   0.9552 B(  9-C , 11-H ) :   0.9537 B(  9-C , 12-C ) :   1.0688
B( 12-C , 13-H ) :   0.9756 B( 12-C , 14-H ) :   0.9727 B( 12-C , 15-H ) :   0.9752
B( 16-S , 17-C ) :   1.1733 B( 16-S , 20-C ) :   1.1572 B( 17-C , 18-C ) :   1.6045
B( 17-C , 33-H ) :   0.9745 B( 18-C , 19-C ) :   1.2224 B( 18-C , 21-H ) :   0.9922
B( 19-C , 20-C ) :   1.5859 B( 19-C , 22-C ) :   1.0520 B( 22-C , 23-H ) :   0.9312
B( 22-C , 24-H ) :   0.9373 B( 22-C , 25-C ) :   1.0580 B( 25-C , 26-H ) :   0.9589
B( 25-C , 27-H ) :   0.9486 B( 25-C , 28-C ) :   1.0831 B( 28-C , 29-H ) :   0.9727
B( 28-C , 30-H ) :   0.9699 B( 28-C , 31-H ) :   0.9728

Dispersion correction           -0.014031062
FINAL SINGLE POINT ENERGY     -1339.872476106405

DIPOLE MOMENT
-------------
                                X             Y             Z
Electronic contribution:    -19.00023      22.34751       8.01092
Nuclear contribution   :     19.21030     -23.01444      -8.21165
                        -----------------------------------------
Total Dipole Moment    :      0.21006      -0.66693      -0.20073
                        -----------------------------------------
Magnitude (a.u.)       :      0.72747
Magnitude (Debye)      :      1.84907

Rotational constants in cm-1:     0.017621     0.009213     0.006423
Rotational constants in MHz :   528.272562   276.207411   192.557611

                             ****ORCA TERMINATED NORMALLY****
TOTAL RUN TIME: 0 days 0 hours 0 minutes 30 seconds 495 msec
