                         Program Version 4.2.1 -  RELEASE  -
|  1> ! wB97X-D3 SP def2-SVP
|  2> %pal
|  3> nprocs 16
|  4> end
|  5>
|  6> * xyz 0 1
|  7> S 	 -14.5985 	 -5.67634 	 87.9726
|  8> C 	 -14.7676 	 -4.60506 	 86.6039
|  9> C 	 -15.9642 	 -3.81305 	 86.7782
| 10> C 	 -16.621 	 -4.12722 	 88.0184
| 11> C 	 -16.0374 	 -5.10126 	 88.742
| 12> H 	 -17.4495 	 -3.59233 	 88.5035
| 13> C 	 -16.4242 	 -2.86835 	 85.7276
| 14> H 	 -17.2715 	 -2.3196 	 86.0361
| 15> H 	 -16.6316 	 -3.56607 	 84.8624
| 16> C 	 -15.3966 	 -1.7748 	 85.3821
| 17> H 	 -14.5464 	 -2.32298 	 84.9416
| 18> H 	 -15.8382 	 -1.1357 	 84.6006
| 19> C 	 -14.9789 	 -0.787403 	 86.5156
| 20> H 	 -14.371 	 0.025133 	 86.0783
| 21> H 	 -15.8058 	 -0.394151 	 87.1046
| 22> H 	 -14.3949 	 -1.35494 	 87.3119
| 23> S 	 -14.9585 	 -5.87467 	 91.0733
| 24> C 	 -15.9358 	 -6.20063 	 92.5002
| 25> C 	 -17.3033 	 -6.0087 	 92.1884
| 26> C 	 -17.5709 	 -5.56319 	 90.8771
| 27> C 	 -16.375 	 -5.56892 	 90.0895
| 28> H 	 -18.0283 	 -6.12038 	 93.0024
| 29> C 	 -18.8764 	 -5.02363 	 90.407
| 30> H 	 -19.7059 	 -5.6427 	 90.871
| 31> H 	 -18.9245 	 -5.26152 	 89.3238
| 32> C 	 -19.1394 	 -3.50991 	 90.6847
| 33> H 	 -18.1741 	 -2.9544 	 90.5346
| 34> H 	 -19.4101 	 -3.39141 	 91.7349
| 35> C 	 -20.1178 	 -2.92444 	 89.6752
| 36> H 	 -20.2385 	 -1.83973 	 89.7935
| 37> H 	 -21.1482 	 -3.0417 	 89.8621
| 38> H 	 -19.936 	 -3.06564 	 88.6072
| 39> H 	 -14.1618 	 -4.55648 	 85.7174
| 40> H 	 -15.5696 	 -6.59854 	 93.4732
| 41> *
| 42>
| 43>                          ****END OF INPUT****

CARTESIAN COORDINATES (ANGSTROEM)
---------------------------------
  S    -14.598500   -5.676340   87.972600
  C    -14.767600   -4.605060   86.603900
  C    -15.964200   -3.813050   86.778200
  C    -16.621000   -4.127220   88.018400
  C    -16.037400   -5.101260   88.742000
  H    -17.449500   -3.592330   88.503500
  C    -16.424200   -2.868350   85.727600
  H    -17.271500   -2.319600   86.036100
  H    -16.631600   -3.566070   84.862400
  C    -15.396600   -1.774800   85.382100
  H    -14.546400   -2.322980   84.941600
  H    -15.838200   -1.135700   84.600600
  C    -14.978900   -0.787403   86.515600
  H    -14.371000    0.025133   86.078300
  H    -15.805800   -0.394151   87.104600
  H    -14.394900   -1.354940   87.311900
  S    -14.958500   -5.874670   91.073300
  C    -15.935800   -6.200630   92.500200
  C    -17.303300   -6.008700   92.188400
  C    -17.570900   -5.563190   90.877100
  C    -16.375000   -5.568920   90.089500
  H    -18.028300   -6.120380   93.002400
  C    -18.876400   -5.023630   90.407000
  H    -19.705900   -5.642700   90.871000
  H    -18.924500   -5.261520   89.323800
  C    -19.139400   -3.509910   90.684700
  H    -18.174100   -2.954400   90.534600
  H    -19.410100   -3.391410   91.734900
  C    -20.117800   -2.924440   89.675200
  H    -20.238500   -1.839730   89.793500
  H    -21.148200   -3.041700   89.862100
  H    -19.936000   -3.065640   88.607200
  H    -14.161800   -4.556480   85.717400
  H    -15.569600   -6.598540   93.473200

 Total Charge           Charge          ....    0
 Multiplicity           Mult            ....    1
 Number of Electrons    NEL             ....  134
 Basis Dimension        Dim             ....  322

ORBITAL ENERGIES
----------------

  NO   OCC          E(Eh)            E(eV)
   0   2.0000     -88.968623     -2420.9593
   1   2.0000     -88.966983     -2420.9147
   2   2.0000     -10.331681      -281.1393
   3   2.0000     -10.326137      -280.9885
   4   2.0000     -10.322689      -280.8947
   5   2.0000     -10.316805      -280.7345
   6   2.0000     -10.306800      -280.4623
   7   2.0000     -10.306795      -280.4622
   8   2.0000     -10.298917      -280.2478
   9   2.0000     -10.298141      -280.2267
  10   2.0000     -10.297843      -280.2186
  11   2.0000     -10.292229      -280.0658
  12   2.0000     -10.291316      -280.0409
  13   2.0000     -10.291056      -280.0339
  14   2.0000     -10.284770      -279.8628
  15   2.0000     -10.278914      -279.7035
  16   2.0000      -8.082782      -219.9437
  17   2.0000      -8.081824      -219.9176
  18   2.0000      -6.041295      -164.3920
  19   2.0000      -6.040399      -164.3676
  20   2.0000      -6.037226      -164.2813
  21   2.0000      -6.036118      -164.2511
  22   2.0000      -6.033707      -164.1855
  23   2.0000      -6.032698      -164.1581
  24   2.0000      -1.008348       -27.4385
  25   2.0000      -0.980449       -26.6794
  26   2.0000      -0.913671       -24.8623
  27   2.0000      -0.909014       -24.7355
  28   2.0000      -0.863451       -23.4957
  29   2.0000      -0.856403       -23.3039
  30   2.0000      -0.844046       -22.9677
  31   2.0000      -0.814253       -22.1569
  32   2.0000      -0.783090       -21.3090
  33   2.0000      -0.768954       -20.9243
  34   2.0000      -0.710582       -19.3359
  35   2.0000      -0.703894       -19.1539
  36   2.0000      -0.691995       -18.8301
  37   2.0000      -0.661519       -18.0008
  38   2.0000      -0.637241       -17.3402
  39   2.0000      -0.612674       -16.6717
  40   2.0000      -0.590050       -16.0561
  41   2.0000      -0.577248       -15.7077
  42   2.0000      -0.565973       -15.4009
  43   2.0000      -0.550673       -14.9846
  44   2.0000      -0.538995       -14.6668
  45   2.0000      -0.522867       -14.2279
  46   2.0000      -0.517672       -14.0866
  47   2.0000      -0.508351       -13.8329
  48   2.0000      -0.507300       -13.8043
  49   2.0000      -0.500541       -13.6204
  50   2.0000      -0.494114       -13.4455
  51   2.0000      -0.481589       -13.1047
  52   2.0000      -0.473201       -12.8764
  53   2.0000      -0.466098       -12.6832
  54   2.0000      -0.453470       -12.3395
  55   2.0000      -0.449560       -12.2332
  56   2.0000      -0.443468       -12.0674
  57   2.0000      -0.439279       -11.9534
  58   2.0000      -0.436579       -11.8799
  59   2.0000      -0.423355       -11.5201
  60   2.0000      -0.417982       -11.3739
  61   2.0000      -0.412802       -11.2329
  62   2.0000      -0.410038       -11.1577
  63   2.0000      -0.354667        -9.6510
  64   2.0000      -0.332810        -9.0562
  65   2.0000      -0.325505        -8.8575
  66   2.0000      -0.280991        -7.6462
  67   0.0000       0.019967         0.5433
  68   0.0000       0.073199         1.9918
  69   0.0000       0.105088         2.8596
  70   0.0000       0.116982         3.1833
  71   0.0000       0.131711         3.5840

MULLIKEN ATOMIC CHARGES
-----------------------
   0 S :    0.112565
   1 C :   -0.120078
   2 C :   -0.115651
   3 C :    0.011642
   4 C :   -0.112872
   5 H :   -0.008783
   6 C :    0.075370
   7 H :    0.005799
   8 H :    0.060250
   9 C :   -0.092832
  10 H :    0.026466
  11 H :    0.032545
  12 C :   -0.075762
  13 H :    0.050970
  14 H :    0.030281
  15 H :    0.050026
  16 S :    0.100838
  17 C :   -0.115754
  18 C :   -0.045070
  19 C :   -0.035849
  20 C :   -0.131051
  21 H :    0.022517
  22 C :    0.015169
  23 H :    0.035959
  24 H :    0.037018
  25 C :   -0.051736
  26 H :    0.048064
  27 H :    0.035022
  28 C :   -0.045227
  29 H :    0.017204
  30 H :    0.013852
  31 H :    0.044596
  32 H :    0.050118
  33 H :    0.074393
Sum of atomic charges:   -0.0000000

LOEWDIN ATOMIC CHARGES
----------------------
   0 S :    0.418428
   1 C :   -0.209206
   2 C :   -0.054319
   3 C :   -0.079632
   4 C :   -0.199731
   5 H :    0.035131
   6 C :   -0.037930
   7 H :    0.021056
   8 H :    0.048743
   9 C :   -0.041428
  10 H :    0.020659
  11 H :    0.024267
  12 C :   -0.073389
  13 H :    0.032188
  14 H :    0.023486
  15 H :    0.034733
  16 S :    0.412329
  17 C :   -0.200169
  18 C :   -0.072576
  19 C :   -0.063245
  20 C :   -0.190728
  21 H :    0.033152
  22 C :   -0.043468
  23 H :    0.037405
  24 H :    0.034261
  25 C :   -0.037515
  26 H :    0.030406
  27 H :    0.029850
  28 C :   -0.080873
  29 H :    0.032831
  30 H :    0.022526
  31 H :    0.028192
  32 H :    0.025851
  33 H :    0.038714

  Mayer bond orders larger than 0.100000
B(  0-S ,  1-C ) :   1.1444 B(  0-S ,  4-C ) :   1.1546 B(  1-C ,  2-C ) :   1.5578
B(  1-C , 32-H ) :   0.9746 B(  2-C ,  3-C ) :   1.2515 B(  2-C ,  6-C ) :   1.0248
B(  3-C ,  4-C ) :   1.5711 B(  3-C ,  5-H ) :   0.9889 B(  4-C , 20-C ) :   1.0362
B(  6-C ,  7-H ) :   0.9395 B(  6-C ,  8-H ) :   0.9382 B(  6-C ,  9-C ) :   1.0740
B(  9-C , 10-H ) :   0.9558 B(  9-C , 11-H ) :   0.9593 B(  9-C , 12-C ) :   1.0660
B( 12-C , 13-H ) :   0.9756 B( 12-C , 14-H ) :   0.9750 B( 12-C , 15-H ) :   0.9725
B( 16-S , 17-C ) :   1.1601 B( 16-S , 20-C ) :   1.1660 B( 17-C , 18-C ) :   1.5696
B( 17-C , 20-C ) :   0.1158 B( 17-C , 33-H ) :   0.9639 B( 18-C , 19-C ) :   1.2819
B( 18-C , 21-H ) :   0.9876 B( 19-C , 20-C ) :   1.5274 B( 19-C , 22-C ) :   1.0603
B( 22-C , 23-H ) :   0.9284 B( 22-C , 24-H ) :   0.9399 B( 22-C , 25-C ) :   1.0396
B( 25-C , 26-H ) :   0.9612 B( 25-C , 27-H ) :   0.9500 B( 25-C , 28-C ) :   1.0762
B( 28-C , 29-H ) :   0.9635 B( 28-C , 30-H ) :   0.9675 B( 28-C , 31-H ) :   0.9744

Dispersion correction           -0.014808184
FINAL SINGLE POINT ENERGY     -1339.872315186557

DIPOLE MOMENT
-------------
                                X             Y             Z
Electronic contribution:     16.03869     -21.67111       9.19096
Nuclear contribution   :    -16.59213      22.20913      -9.21442
                        -----------------------------------------
Total Dipole Moment    :     -0.55345       0.53801      -0.02346
                        -----------------------------------------
Magnitude (a.u.)       :      0.77221
Magnitude (Debye)      :      1.96281

Rotational constants in cm-1:     0.018335     0.009576     0.007042
Rotational constants in MHz :   549.665727   287.093961   211.100212

                             ****ORCA TERMINATED NORMALLY****
TOTAL RUN TIME: 0 days 0 hours 0 minutes 32 seconds 915 msec
