                         Program Version 4.2.1 -  RELEASE  -
|  1> ! wB97X-D3 SP def2-SVP
|  2> %pal
|  3> nprocs 16
|  4> end
|  5>
|  6> * xyz 0 1
|  7> S 	 -42.8926 	 21.4433 	 85.1283
|  8> C 	 -42.9645 	 19.681 	 85.2151
|  9> C 	 -42.2088 	 19.1399 	 86.2114
| 10> C 	 -41.5332 	 20.1351 	 86.9321
| 11> C 	 -41.709 	 21.3783 	 86.406
| 12> H 	 -40.9233 	 19.9492 	 87.7997
| 13> C 	 -42.0921 	 17.7234 	 86.5781
| 14> H 	 -41.1537 	 17.4227 	 86.9066
| 15> H 	 -42.3946 	 17.105 	 85.7039
| 16> C 	 -43.1571 	 17.2836 	 87.6245
| 17> H 	 -42.9716 	 16.245 	 87.9094
| 18> H 	 -42.9462 	 17.8721 	 88.5414
| 19> C 	 -44.6338 	 17.4214 	 87.2989
| 20> H 	 -44.9115 	 18.5006 	 87.2627
| 21> H 	 -44.9769 	 16.8784 	 86.4102
| 22> H 	 -45.1204 	 16.9407 	 88.0578
| 23> S 	 -41.8585 	 23.8944 	 87.3103
| 24> C 	 -40.3832 	 24.7647 	 87.6187
| 25> C 	 -39.2948 	 24.1701 	 87.0327
| 26> C 	 -39.5898 	 22.8324 	 86.5913
| 27> C 	 -40.9673 	 22.594 	 86.7158
| 28> H 	 -38.3873 	 24.7723 	 86.896
| 29> C 	 -38.6 	 21.8152 	 86.0966
| 30> H 	 -38.4857 	 22.0611 	 85.0567
| 31> H 	 -39.1696 	 20.8465 	 85.9905
| 32> C 	 -37.3525 	 21.7268 	 86.8435
| 33> H 	 -37.4625 	 21.3697 	 87.9131
| 34> H 	 -36.833 	 22.6586 	 86.9563
| 35> C 	 -36.3894 	 20.7832 	 86.0469
| 36> H 	 -35.7272 	 21.1896 	 85.3158
| 37> H 	 -36.8909 	 19.8553 	 85.6521
| 38> H 	 -35.8332 	 20.1789 	 86.73
| 39> H 	 -43.5584 	 19.1547 	 84.4831
| 40> H 	 -40.2996 	 25.807 	 87.8434
| 41> *
| 42>
| 43>                          ****END OF INPUT****

CARTESIAN COORDINATES (ANGSTROEM)
---------------------------------
  S    -42.892600   21.443300   85.128300
  C    -42.964500   19.681000   85.215100
  C    -42.208800   19.139900   86.211400
  C    -41.533200   20.135100   86.932100
  C    -41.709000   21.378300   86.406000
  H    -40.923300   19.949200   87.799700
  C    -42.092100   17.723400   86.578100
  H    -41.153700   17.422700   86.906600
  H    -42.394600   17.105000   85.703900
  C    -43.157100   17.283600   87.624500
  H    -42.971600   16.245000   87.909400
  H    -42.946200   17.872100   88.541400
  C    -44.633800   17.421400   87.298900
  H    -44.911500   18.500600   87.262700
  H    -44.976900   16.878400   86.410200
  H    -45.120400   16.940700   88.057800
  S    -41.858500   23.894400   87.310300
  C    -40.383200   24.764700   87.618700
  C    -39.294800   24.170100   87.032700
  C    -39.589800   22.832400   86.591300
  C    -40.967300   22.594000   86.715800
  H    -38.387300   24.772300   86.896000
  C    -38.600000   21.815200   86.096600
  H    -38.485700   22.061100   85.056700
  H    -39.169600   20.846500   85.990500
  C    -37.352500   21.726800   86.843500
  H    -37.462500   21.369700   87.913100
  H    -36.833000   22.658600   86.956300
  C    -36.389400   20.783200   86.046900
  H    -35.727200   21.189600   85.315800
  H    -36.890900   19.855300   85.652100
  H    -35.833200   20.178900   86.730000
  H    -43.558400   19.154700   84.483100
  H    -40.299600   25.807000   87.843400

 Total Charge           Charge          ....    0
 Multiplicity           Mult            ....    1
 Number of Electrons    NEL             ....  134
 Basis Dimension        Dim             ....  322

ORBITAL ENERGIES
----------------

  NO   OCC          E(Eh)            E(eV)
   0   2.0000     -88.964327     -2420.8424
   1   2.0000     -88.963814     -2420.8284
   2   2.0000     -10.322131      -280.8795
   3   2.0000     -10.315127      -280.6889
   4   2.0000     -10.309987      -280.5490
   5   2.0000     -10.307114      -280.4708
   6   2.0000     -10.299338      -280.2592
   7   2.0000     -10.293382      -280.0972
   8   2.0000     -10.293021      -280.0873
   9   2.0000     -10.288351      -279.9603
  10   2.0000     -10.286675      -279.9147
  11   2.0000     -10.286567      -279.9117
  12   2.0000     -10.286407      -279.9074
  13   2.0000     -10.283366      -279.8246
  14   2.0000     -10.275146      -279.6009
  15   2.0000     -10.270815      -279.4831
  16   2.0000      -8.079888      -219.8649
  17   2.0000      -8.079446      -219.8529
  18   2.0000      -6.038235      -164.3087
  19   2.0000      -6.037752      -164.2956
  20   2.0000      -6.034331      -164.2025
  21   2.0000      -6.034117      -164.1967
  22   2.0000      -6.030625      -164.1017
  23   2.0000      -6.030199      -164.0901
  24   2.0000      -1.013177       -27.5699
  25   2.0000      -0.989195       -26.9174
  26   2.0000      -0.916874       -24.9494
  27   2.0000      -0.914920       -24.8962
  28   2.0000      -0.868590       -23.6355
  29   2.0000      -0.853017       -23.2118
  30   2.0000      -0.848046       -23.0765
  31   2.0000      -0.816436       -22.2164
  32   2.0000      -0.788614       -21.4593
  33   2.0000      -0.771658       -20.9979
  34   2.0000      -0.709344       -19.3022
  35   2.0000      -0.699816       -19.0430
  36   2.0000      -0.692727       -18.8501
  37   2.0000      -0.653851       -17.7922
  38   2.0000      -0.641637       -17.4598
  39   2.0000      -0.625806       -17.0290
  40   2.0000      -0.595883       -16.2148
  41   2.0000      -0.573532       -15.6066
  42   2.0000      -0.565860       -15.3978
  43   2.0000      -0.549533       -14.9535
  44   2.0000      -0.545089       -14.8326
  45   2.0000      -0.529085       -14.3971
  46   2.0000      -0.516232       -14.0474
  47   2.0000      -0.512085       -13.9345
  48   2.0000      -0.503902       -13.7119
  49   2.0000      -0.495033       -13.4705
  50   2.0000      -0.490158       -13.3379
  51   2.0000      -0.484717       -13.1898
  52   2.0000      -0.466900       -12.7050
  53   2.0000      -0.459988       -12.5169
  54   2.0000      -0.457787       -12.4570
  55   2.0000      -0.451503       -12.2860
  56   2.0000      -0.446283       -12.1440
  57   2.0000      -0.442440       -12.0394
  58   2.0000      -0.434233       -11.8161
  59   2.0000      -0.424198       -11.5430
  60   2.0000      -0.417889       -11.3713
  61   2.0000      -0.413636       -11.2556
  62   2.0000      -0.410312       -11.1652
  63   2.0000      -0.340271        -9.2592
  64   2.0000      -0.333699        -9.0804
  65   2.0000      -0.323354        -8.7989
  66   2.0000      -0.292783        -7.9670
  67   0.0000       0.040854         1.1117
  68   0.0000       0.066084         1.7982
  69   0.0000       0.109616         2.9828
  70   0.0000       0.124066         3.3760
  71   0.0000       0.129920         3.5353

MULLIKEN ATOMIC CHARGES
-----------------------
   0 S :    0.109348
   1 C :   -0.134693
   2 C :   -0.065602
   3 C :    0.033448
   4 C :   -0.164063
   5 H :    0.008898
   6 C :    0.120887
   7 H :    0.008208
   8 H :    0.016987
   9 C :   -0.114502
  10 H :    0.025539
  11 H :    0.022243
  12 C :   -0.018105
  13 H :    0.053830
  14 H :    0.023578
  15 H :    0.013145
  16 S :    0.121587
  17 C :   -0.075693
  18 C :   -0.076581
  19 C :   -0.026495
  20 C :   -0.178640
  21 H :    0.032714
  22 C :    0.090922
  23 H :    0.028251
  24 H :    0.031878
  25 C :   -0.066868
  26 H :    0.040503
  27 H :    0.028176
  28 C :   -0.043655
  29 H :    0.045872
  30 H :    0.018042
  31 H :    0.006871
  32 H :    0.039042
  33 H :    0.044928
Sum of atomic charges:   -0.0000000

LOEWDIN ATOMIC CHARGES
----------------------
   0 S :    0.396209
   1 C :   -0.184937
   2 C :   -0.065872
   3 C :   -0.059681
   4 C :   -0.190381
   5 H :    0.032638
   6 C :   -0.026468
   7 H :    0.021029
   8 H :    0.034511
   9 C :   -0.037456
  10 H :    0.021198
  11 H :    0.022694
  12 C :   -0.062934
  13 H :    0.034471
  14 H :    0.024550
  15 H :    0.017326
  16 S :    0.436524
  17 C :   -0.196617
  18 C :   -0.070309
  19 C :   -0.052577
  20 C :   -0.229461
  21 H :    0.036225
  22 C :   -0.044971
  23 H :    0.036344
  24 H :    0.040477
  25 C :   -0.039719
  26 H :    0.034554
  27 H :    0.023146
  28 C :   -0.073658
  29 H :    0.023024
  30 H :    0.032569
  31 H :    0.022954
  32 H :    0.021037
  33 H :    0.023561

  Mayer bond orders larger than 0.100000
B(  0-S ,  1-C ) :   1.1272 B(  0-S ,  4-C ) :   1.1613 B(  1-C ,  2-C ) :   1.6209
B(  1-C , 32-H ) :   0.9699 B(  2-C ,  3-C ) :   1.2141 B(  2-C ,  6-C ) :   1.0467
B(  3-C ,  4-C ) :   1.5957 B(  3-C ,  5-H ) :   1.0055 B(  4-C , 20-C ) :   0.9890
B(  6-C ,  7-H ) :   0.9352 B(  6-C ,  8-H ) :   0.9326 B(  6-C ,  9-C ) :   1.0661
B(  9-C , 10-H ) :   0.9586 B(  9-C , 11-H ) :   0.9533 B(  9-C , 12-C ) :   1.0877
B( 12-C , 13-H ) :   0.9708 B( 12-C , 14-H ) :   0.9717 B( 12-C , 15-H ) :   0.9674
B( 16-S , 17-C ) :   1.1497 B( 16-S , 20-C ) :   1.1716 B( 17-C , 18-C ) :   1.6366
B( 17-C , 33-H ) :   0.9620 B( 18-C , 19-C ) :   1.2256 B( 18-C , 21-H ) :   0.9829
B( 19-C , 20-C ) :   1.5865 B( 19-C , 22-C ) :   1.0354 B( 22-C , 23-H ) :   0.9203
B( 22-C , 24-H ) :   0.9210 B( 22-C , 25-C ) :   1.0690 B( 25-C , 26-H ) :   0.9560
B( 25-C , 27-H ) :   0.9524 B( 25-C , 28-C ) :   1.0714 B( 28-C , 29-H ) :   0.9803
B( 28-C , 30-H ) :   0.9673 B( 28-C , 31-H ) :   0.9686

Dispersion correction           -0.014447076
FINAL SINGLE POINT ENERGY     -1339.863592017829

DIPOLE MOMENT
-------------
                                X             Y             Z
Electronic contribution:    -11.72068      21.48453      -3.27084
Nuclear contribution   :     12.14968     -21.93479       3.29553
                        -----------------------------------------
Total Dipole Moment    :      0.42901      -0.45026       0.02469
                        -----------------------------------------
Magnitude (a.u.)       :      0.62241
Magnitude (Debye)      :      1.58204

Rotational constants in cm-1:     0.018830     0.008735     0.006803
Rotational constants in MHz :   564.494882   261.871756   203.936564

                             ****ORCA TERMINATED NORMALLY****
TOTAL RUN TIME: 0 days 0 hours 0 minutes 30 seconds 662 msec
