                         Program Version 4.2.1 -  RELEASE  -
|  1> ! wB97X-D3 SP def2-SVP
|  2> %pal
|  3> nprocs 16
|  4> end
|  5>
|  6> * xyz 0 1
|  7> S 	 12.7099 	 -7.02743 	 72.9047
|  8> C 	 12.4304 	 -5.51651 	 73.785
|  9> C 	 12.2596 	 -4.4468 	 72.8808
| 10> C 	 12.6409 	 -4.95095 	 71.546
| 11> C 	 13.1247 	 -6.2083 	 71.4331
| 12> H 	 12.702 	 -4.2992 	 70.624
| 13> C 	 11.8026 	 -3.06402 	 73.1913
| 14> H 	 11.6826 	 -2.98348 	 74.2677
| 15> H 	 10.8962 	 -3.00371 	 72.5723
| 16> C 	 12.8194 	 -1.99912 	 72.8089
| 17> H 	 13.8006 	 -2.2295 	 73.1384
| 18> H 	 12.9447 	 -2.09891 	 71.7015
| 19> C 	 12.356 	 -0.597419 	 73.1839
| 20> H 	 12.1026 	 -0.471223 	 74.2393
| 21> H 	 13.0146 	 0.146718 	 72.8811
| 22> H 	 11.3195 	 -0.295589 	 72.7458
| 23> S 	 15.1396 	 -7.44622 	 70.0286
| 24> C 	 14.8629 	 -7.7494 	 68.356
| 25> C 	 13.4831 	 -7.69333 	 67.9692
| 26> C 	 12.6697 	 -7.21188 	 69.0678
| 27> C 	 13.4562 	 -6.93475 	 70.177
| 28> H 	 13.092 	 -7.89332 	 66.9207
| 29> C 	 11.1472 	 -7.07904 	 68.9468
| 30> H 	 10.8789 	 -6.73511 	 67.9408
| 31> H 	 10.7927 	 -6.24501 	 69.5133
| 32> C 	 10.4208 	 -8.30866 	 69.5037
| 33> H 	 10.1332 	 -8.03844 	 70.5395
| 34> H 	 11.1338 	 -9.11193 	 69.5157
| 35> C 	 9.22205 	 -8.74923 	 68.6051
| 36> H 	 8.8954 	 -9.79042 	 68.8193
| 37> H 	 9.50735 	 -8.81343 	 67.4847
| 38> H 	 8.35784 	 -8.08774 	 68.5869
| 39> H 	 12.1412 	 -5.49957 	 74.8345
| 40> H 	 15.6115 	 -8.12346 	 67.6507
| 41> *
| 42>
| 43>                          ****END OF INPUT****

CARTESIAN COORDINATES (ANGSTROEM)
---------------------------------
  S     12.709900   -7.027430   72.904700
  C     12.430400   -5.516510   73.785000
  C     12.259600   -4.446800   72.880800
  C     12.640900   -4.950950   71.546000
  C     13.124700   -6.208300   71.433100
  H     12.702000   -4.299200   70.624000
  C     11.802600   -3.064020   73.191300
  H     11.682600   -2.983480   74.267700
  H     10.896200   -3.003710   72.572300
  C     12.819400   -1.999120   72.808900
  H     13.800600   -2.229500   73.138400
  H     12.944700   -2.098910   71.701500
  C     12.356000   -0.597419   73.183900
  H     12.102600   -0.471223   74.239300
  H     13.014600    0.146718   72.881100
  H     11.319500   -0.295589   72.745800
  S     15.139600   -7.446220   70.028600
  C     14.862900   -7.749400   68.356000
  C     13.483100   -7.693330   67.969200
  C     12.669700   -7.211880   69.067800
  C     13.456200   -6.934750   70.177000
  H     13.092000   -7.893320   66.920700
  C     11.147200   -7.079040   68.946800
  H     10.878900   -6.735110   67.940800
  H     10.792700   -6.245010   69.513300
  C     10.420800   -8.308660   69.503700
  H     10.133200   -8.038440   70.539500
  H     11.133800   -9.111930   69.515700
  C      9.222050   -8.749230   68.605100
  H      8.895400   -9.790420   68.819300
  H      9.507350   -8.813430   67.484700
  H      8.357840   -8.087740   68.586900
  H     12.141200   -5.499570   74.834500
  H     15.611500   -8.123460   67.650700

 Total Charge           Charge          ....    0
 Multiplicity           Mult            ....    1
 Number of Electrons    NEL             ....  134
 Basis Dimension        Dim             ....  322

ORBITAL ENERGIES
----------------

  NO   OCC          E(Eh)            E(eV)
   0   2.0000     -88.971105     -2421.0268
   1   2.0000     -88.958191     -2420.6754
   2   2.0000     -10.327827      -281.0345
   3   2.0000     -10.324183      -280.9353
   4   2.0000     -10.323558      -280.9183
   5   2.0000     -10.317200      -280.7453
   6   2.0000     -10.309566      -280.5375
   7   2.0000     -10.307844      -280.4907
   8   2.0000     -10.306227      -280.4467
   9   2.0000     -10.296902      -280.1930
  10   2.0000     -10.294662      -280.1320
  11   2.0000     -10.288788      -279.9721
  12   2.0000     -10.288127      -279.9542
  13   2.0000     -10.287544      -279.9383
  14   2.0000     -10.286906      -279.9209
  15   2.0000     -10.281742      -279.7804
  16   2.0000      -8.085867      -220.0276
  17   2.0000      -8.073110      -219.6805
  18   2.0000      -6.044189      -164.4707
  19   2.0000      -6.040496      -164.3703
  20   2.0000      -6.036699      -164.2669
  21   2.0000      -6.031684      -164.1305
  22   2.0000      -6.027776      -164.0241
  23   2.0000      -6.023594      -163.9103
  24   2.0000      -1.002860       -27.2892
  25   2.0000      -0.980671       -26.6854
  26   2.0000      -0.918218       -24.9860
  27   2.0000      -0.907001       -24.6807
  28   2.0000      -0.862893       -23.4805
  29   2.0000      -0.847254       -23.0550
  30   2.0000      -0.839436       -22.8422
  31   2.0000      -0.807976       -21.9861
  32   2.0000      -0.782102       -21.2821
  33   2.0000      -0.770854       -20.9760
  34   2.0000      -0.708316       -19.2743
  35   2.0000      -0.699826       -19.0432
  36   2.0000      -0.685735       -18.6598
  37   2.0000      -0.658199       -17.9105
  38   2.0000      -0.639957       -17.4141
  39   2.0000      -0.616333       -16.7713
  40   2.0000      -0.598104       -16.2752
  41   2.0000      -0.568567       -15.4715
  42   2.0000      -0.560923       -15.2635
  43   2.0000      -0.552926       -15.0459
  44   2.0000      -0.525903       -14.3105
  45   2.0000      -0.518150       -14.0996
  46   2.0000      -0.517560       -14.0835
  47   2.0000      -0.508112       -13.8264
  48   2.0000      -0.502457       -13.6726
  49   2.0000      -0.498545       -13.5661
  50   2.0000      -0.494667       -13.4606
  51   2.0000      -0.470450       -12.8016
  52   2.0000      -0.469021       -12.7627
  53   2.0000      -0.459604       -12.5065
  54   2.0000      -0.455993       -12.4082
  55   2.0000      -0.453424       -12.3383
  56   2.0000      -0.449713       -12.2373
  57   2.0000      -0.439591       -11.9619
  58   2.0000      -0.433908       -11.8073
  59   2.0000      -0.420011       -11.4291
  60   2.0000      -0.417722       -11.3668
  61   2.0000      -0.413779       -11.2595
  62   2.0000      -0.411275       -11.1914
  63   2.0000      -0.335076        -9.1179
  64   2.0000      -0.328895        -8.9497
  65   2.0000      -0.319692        -8.6993
  66   2.0000      -0.304630        -8.2894
  67   0.0000       0.038707         1.0533
  68   0.0000       0.055555         1.5117
  69   0.0000       0.106706         2.9036
  70   0.0000       0.111625         3.0375
  71   0.0000       0.127248         3.4626

MULLIKEN ATOMIC CHARGES
-----------------------
   0 S :    0.084242
   1 C :   -0.121387
   2 C :   -0.121770
   3 C :    0.000177
   4 C :   -0.119898
   5 H :    0.031356
   6 C :    0.099124
   7 H :    0.018149
   8 H :    0.047842
   9 C :   -0.081967
  10 H :    0.026481
  11 H :    0.026756
  12 C :   -0.031417
  13 H :    0.026265
  14 H :    0.029512
  15 H :    0.025908
  16 S :    0.138063
  17 C :   -0.099209
  18 C :   -0.071389
  19 C :   -0.043959
  20 C :   -0.211642
  21 H :    0.047365
  22 C :    0.097193
  23 H :    0.019487
  24 H :    0.009231
  25 C :   -0.037893
  26 H :    0.047608
  27 H :    0.038096
  28 C :   -0.102446
  29 H :    0.040790
  30 H :    0.033421
  31 H :    0.037604
  32 H :    0.053141
  33 H :    0.065166
Sum of atomic charges:    0.0000000

LOEWDIN ATOMIC CHARGES
----------------------
   0 S :    0.388070
   1 C :   -0.194081
   2 C :   -0.059074
   3 C :   -0.073275
   4 C :   -0.208761
   5 H :    0.034642
   6 C :   -0.029768
   7 H :    0.030758
   8 H :    0.043416
   9 C :   -0.041449
  10 H :    0.022473
  11 H :    0.027471
  12 C :   -0.068240
  13 H :    0.024545
  14 H :    0.017523
  15 H :    0.034921
  16 S :    0.425534
  17 C :   -0.197386
  18 C :   -0.079876
  19 C :   -0.045317
  20 C :   -0.205900
  21 H :    0.043305
  22 C :   -0.031770
  23 H :    0.028598
  24 H :    0.028013
  25 C :   -0.033263
  26 H :    0.032612
  27 H :    0.024148
  28 C :   -0.076666
  29 H :    0.028210
  30 H :    0.031231
  31 H :    0.021558
  32 H :    0.027285
  33 H :    0.030513

  Mayer bond orders larger than 0.100000
B(  0-S ,  1-C ) :   1.1364 B(  0-S ,  4-C ) :   1.1374 B(  1-C ,  2-C ) :   1.6092
B(  1-C , 32-H ) :   0.9685 B(  2-C ,  3-C ) :   1.2056 B(  2-C ,  6-C ) :   1.0347
B(  3-C ,  4-C ) :   1.6337 B(  3-C ,  5-H ) :   0.9810 B(  4-C , 20-C ) :   0.9911
B(  6-C ,  7-H ) :   0.9389 B(  6-C ,  8-H ) :   0.9278 B(  6-C ,  9-C ) :   1.0682
B(  9-C , 10-H ) :   0.9561 B(  9-C , 11-H ) :   0.9497 B(  9-C , 12-C ) :   1.0854
B( 12-C , 13-H ) :   0.9730 B( 12-C , 14-H ) :   0.9746 B( 12-C , 15-H ) :   0.9703
B( 16-S , 17-C ) :   1.1773 B( 16-S , 20-C ) :   1.1440 B( 17-C , 18-C ) :   1.5911
B( 17-C , 20-C ) :   0.1024 B( 17-C , 33-H ) :   0.9652 B( 18-C , 19-C ) :   1.2393
B( 18-C , 21-H ) :   0.9778 B( 19-C , 20-C ) :   1.6085 B( 19-C , 22-C ) :   1.0534
B( 22-C , 23-H ) :   0.9426 B( 22-C , 24-H ) :   0.9281 B( 22-C , 25-C ) :   1.0303
B( 25-C , 26-H ) :   0.9553 B( 25-C , 27-H ) :   0.9668 B( 25-C , 28-C ) :   1.0673
B( 28-C , 29-H ) :   0.9772 B( 28-C , 30-H ) :   0.9772 B( 28-C , 31-H ) :   0.9781

Dispersion correction           -0.014238360
FINAL SINGLE POINT ENERGY     -1339.859414388395

DIPOLE MOMENT
-------------
                                X             Y             Z
Electronic contribution:     17.84727     -14.70506       3.20020
Nuclear contribution   :    -18.28296      15.14118      -3.48571
                        -----------------------------------------
Total Dipole Moment    :     -0.43569       0.43612      -0.28550
                        -----------------------------------------
Magnitude (a.u.)       :      0.67936
Magnitude (Debye)      :      1.72680

Rotational constants in cm-1:     0.018287     0.007616     0.006815
Rotational constants in MHz :   548.233008   228.320402   204.313039

                             ****ORCA TERMINATED NORMALLY****
TOTAL RUN TIME: 0 days 0 hours 0 minutes 33 seconds 968 msec
