                         Program Version 4.2.1 -  RELEASE  -
|  1> ! wB97X-D3 SP def2-SVP
|  2> %pal
|  3> nprocs 16
|  4> end
|  5>
|  6> * xyz 0 1
|  7> S 	 51.9135 	 11.7099 	 81.0577
|  8> C 	 51.132 	 13.0025 	 80.1823
|  9> C 	 49.9399 	 12.6756 	 79.6066
| 10> C 	 49.6084 	 11.3095 	 79.9004
| 11> C 	 50.5646 	 10.6026 	 80.646
| 12> H 	 48.7249 	 10.7936 	 79.5923
| 13> C 	 49.1536 	 13.6601 	 78.7535
| 14> H 	 49.3936 	 14.6956 	 79.1064
| 15> H 	 48.134 	 13.397 	 78.9341
| 16> C 	 49.6127 	 13.5726 	 77.245
| 17> H 	 50.6187 	 13.8249 	 77.2238
| 18> H 	 49.4162 	 12.5906 	 76.7995
| 19> C 	 48.9303 	 14.4565 	 76.196
| 20> H 	 48.7759 	 15.5228 	 76.4203
| 21> H 	 49.3933 	 14.447 	 75.2533
| 22> H 	 48.0464 	 13.9733 	 75.8401
| 23> S 	 52.2842 	 8.40635 	 80.4655
| 24> C 	 51.7944 	 6.93551 	 81.1151
| 25> C 	 50.4124 	 6.8548 	 81.1097
| 26> C 	 49.759 	 8.10403 	 80.8995
| 27> C 	 50.6681 	 9.14541 	 80.7558
| 28> H 	 49.9876 	 5.85586 	 81.2805
| 29> C 	 48.2666 	 8.27138 	 80.8988
| 30> H 	 47.9576 	 7.54821 	 80.0144
| 31> H 	 47.7529 	 9.23011 	 80.4428
| 32> C 	 47.5657 	 7.92165 	 82.2348
| 33> H 	 47.5346 	 6.78679 	 82.2949
| 34> H 	 46.5358 	 8.18992 	 82.0879
| 35> C 	 48.0549 	 8.55441 	 83.5922
| 36> H 	 47.9562 	 9.7065 	 83.5625
| 37> H 	 49.1269 	 8.34597 	 83.7413
| 38> H 	 47.4282 	 8.20991 	 84.3618
| 39> H 	 51.5906 	 14.0278 	 80.1036
| 40> H 	 52.383 	 6.05983 	 81.2099
| 41> *
| 42>
| 43>                          ****END OF INPUT****

CARTESIAN COORDINATES (ANGSTROEM)
---------------------------------
  S     51.913500   11.709900   81.057700
  C     51.132000   13.002500   80.182300
  C     49.939900   12.675600   79.606600
  C     49.608400   11.309500   79.900400
  C     50.564600   10.602600   80.646000
  H     48.724900   10.793600   79.592300
  C     49.153600   13.660100   78.753500
  H     49.393600   14.695600   79.106400
  H     48.134000   13.397000   78.934100
  C     49.612700   13.572600   77.245000
  H     50.618700   13.824900   77.223800
  H     49.416200   12.590600   76.799500
  C     48.930300   14.456500   76.196000
  H     48.775900   15.522800   76.420300
  H     49.393300   14.447000   75.253300
  H     48.046400   13.973300   75.840100
  S     52.284200    8.406350   80.465500
  C     51.794400    6.935510   81.115100
  C     50.412400    6.854800   81.109700
  C     49.759000    8.104030   80.899500
  C     50.668100    9.145410   80.755800
  H     49.987600    5.855860   81.280500
  C     48.266600    8.271380   80.898800
  H     47.957600    7.548210   80.014400
  H     47.752900    9.230110   80.442800
  C     47.565700    7.921650   82.234800
  H     47.534600    6.786790   82.294900
  H     46.535800    8.189920   82.087900
  C     48.054900    8.554410   83.592200
  H     47.956200    9.706500   83.562500
  H     49.126900    8.345970   83.741300
  H     47.428200    8.209910   84.361800
  H     51.590600   14.027800   80.103600
  H     52.383000    6.059830   81.209900

 Total Charge           Charge          ....    0
 Multiplicity           Mult            ....    1
 Number of Electrons    NEL             ....  134
 Basis Dimension        Dim             ....  322

ORBITAL ENERGIES
----------------

  NO   OCC          E(Eh)            E(eV)
   0   2.0000     -88.967727     -2420.9349
   1   2.0000     -88.959756     -2420.7180
   2   2.0000     -10.334775      -281.2235
   3   2.0000     -10.329810      -281.0884
   4   2.0000     -10.315680      -280.7039
   5   2.0000     -10.311158      -280.5809
   6   2.0000     -10.308424      -280.5065
   7   2.0000     -10.305476      -280.4263
   8   2.0000     -10.300871      -280.3009
   9   2.0000     -10.300605      -280.2937
  10   2.0000     -10.297518      -280.2097
  11   2.0000     -10.293347      -280.0962
  12   2.0000     -10.292171      -280.0642
  13   2.0000     -10.286490      -279.9096
  14   2.0000     -10.282222      -279.7935
  15   2.0000     -10.270975      -279.4874
  16   2.0000      -8.081671      -219.9134
  17   2.0000      -8.075347      -219.7414
  18   2.0000      -6.040232      -164.3631
  19   2.0000      -6.036323      -164.2567
  20   2.0000      -6.033777      -164.1874
  21   2.0000      -6.032379      -164.1494
  22   2.0000      -6.029908      -164.0822
  23   2.0000      -6.025945      -163.9743
  24   2.0000      -1.004988       -27.3471
  25   2.0000      -0.984498       -26.7896
  26   2.0000      -0.908033       -24.7088
  27   2.0000      -0.902183       -24.5497
  28   2.0000      -0.868351       -23.6290
  29   2.0000      -0.851361       -23.1667
  30   2.0000      -0.841044       -22.8860
  31   2.0000      -0.813418       -22.1342
  32   2.0000      -0.783819       -21.3288
  33   2.0000      -0.773589       -21.0504
  34   2.0000      -0.707599       -19.2547
  35   2.0000      -0.702436       -19.1143
  36   2.0000      -0.690006       -18.7760
  37   2.0000      -0.655149       -17.8275
  38   2.0000      -0.636292       -17.3144
  39   2.0000      -0.618299       -16.8248
  40   2.0000      -0.592700       -16.1282
  41   2.0000      -0.573229       -15.5984
  42   2.0000      -0.562183       -15.2978
  43   2.0000      -0.547690       -14.9034
  44   2.0000      -0.533920       -14.5287
  45   2.0000      -0.518281       -14.1031
  46   2.0000      -0.514616       -14.0034
  47   2.0000      -0.512037       -13.9332
  48   2.0000      -0.506582       -13.7848
  49   2.0000      -0.492741       -13.4082
  50   2.0000      -0.487434       -13.2637
  51   2.0000      -0.483784       -13.1644
  52   2.0000      -0.473624       -12.8880
  53   2.0000      -0.462271       -12.5790
  54   2.0000      -0.456956       -12.4344
  55   2.0000      -0.451774       -12.2934
  56   2.0000      -0.444201       -12.0873
  57   2.0000      -0.438496       -11.9321
  58   2.0000      -0.430088       -11.7033
  59   2.0000      -0.427433       -11.6310
  60   2.0000      -0.418160       -11.3787
  61   2.0000      -0.414848       -11.2886
  62   2.0000      -0.395276       -10.7560
  63   2.0000      -0.353366        -9.6156
  64   2.0000      -0.332283        -9.0419
  65   2.0000      -0.322695        -8.7810
  66   2.0000      -0.283202        -7.7063
  67   0.0000       0.020040         0.5453
  68   0.0000       0.076130         2.0716
  69   0.0000       0.098497         2.6803
  70   0.0000       0.116901         3.1810
  71   0.0000       0.138100         3.7579

MULLIKEN ATOMIC CHARGES
-----------------------
   0 S :    0.112244
   1 C :   -0.151190
   2 C :   -0.084317
   3 C :    0.029366
   4 C :   -0.131711
   5 H :   -0.008854
   6 C :    0.092212
   7 H :    0.031692
   8 H :    0.021723
   9 C :   -0.054322
  10 H :    0.016565
  11 H :    0.032360
  12 C :   -0.022513
  13 H :    0.033109
  14 H :    0.010339
  15 H :    0.009962
  16 S :    0.098721
  17 C :   -0.068568
  18 C :   -0.067236
  19 C :    0.018243
  20 C :   -0.161388
  21 H :    0.025180
  22 C :   -0.056293
  23 H :    0.053538
  24 H :    0.050017
  25 C :   -0.080990
  26 H :    0.034467
  27 H :    0.020469
  28 C :   -0.045048
  29 H :    0.041533
  30 H :    0.054203
  31 H :    0.034642
  32 H :    0.065514
  33 H :    0.046333
Sum of atomic charges:   -0.0000000

LOEWDIN ATOMIC CHARGES
----------------------
   0 S :    0.392575
   1 C :   -0.199851
   2 C :   -0.069413
   3 C :   -0.050903
   4 C :   -0.184678
   5 H :    0.020634
   6 C :   -0.020382
   7 H :    0.036383
   8 H :    0.025626
   9 C :   -0.030668
  10 H :    0.015046
  11 H :    0.031042
  12 C :   -0.073102
  13 H :    0.024429
  14 H :    0.023986
  15 H :    0.022442
  16 S :    0.405848
  17 C :   -0.200534
  18 C :   -0.077025
  19 C :   -0.067036
  20 C :   -0.177065
  21 H :    0.034303
  22 C :   -0.054457
  23 H :    0.050041
  24 H :    0.038839
  25 C :   -0.048819
  26 H :    0.026869
  27 H :    0.019894
  28 C :   -0.063347
  29 H :    0.035836
  30 H :    0.030874
  31 H :    0.020644
  32 H :    0.037298
  33 H :    0.024672

  Mayer bond orders larger than 0.100000
B(  0-S ,  1-C ) :   1.1433 B(  0-S ,  4-C ) :   1.1365 B(  1-C ,  2-C ) :   1.6175
B(  1-C , 32-H ) :   0.9539 B(  2-C ,  3-C ) :   1.2527 B(  2-C ,  6-C ) :   1.0202
B(  3-C ,  4-C ) :   1.5551 B(  3-C ,  5-H ) :   0.9898 B(  4-C , 20-C ) :   1.0829
B(  6-C ,  7-H ) :   0.9417 B(  6-C ,  8-H ) :   0.9392 B(  6-C ,  9-C ) :   1.0574
B(  9-C , 10-H ) :   0.9603 B(  9-C , 11-H ) :   0.9605 B(  9-C , 12-C ) :   1.0875
B( 12-C , 13-H ) :   0.9736 B( 12-C , 14-H ) :   0.9655 B( 12-C , 15-H ) :   0.9730
B( 16-S , 17-C ) :   1.1644 B( 16-S , 20-C ) :   1.1373 B( 17-C , 18-C ) :   1.5977
B( 17-C , 33-H ) :   0.9698 B( 18-C , 19-C ) :   1.2344 B( 18-C , 21-H ) :   0.9915
B( 19-C , 20-C ) :   1.5663 B( 19-C , 22-C ) :   1.0255 B( 22-C , 23-H ) :   0.9340
B( 22-C , 24-H ) :   0.9477 B( 22-C , 25-C ) :   1.0643 B( 25-C , 26-H ) :   0.9551
B( 25-C , 27-H ) :   0.9553 B( 25-C , 28-C ) :   1.0688 B( 28-C , 29-H ) :   0.9752
B( 28-C , 30-H ) :   0.9733 B( 28-C , 31-H ) :   0.9738

Dispersion correction           -0.013956184
FINAL SINGLE POINT ENERGY     -1339.847190236872

DIPOLE MOMENT
-------------
                                X             Y             Z
Electronic contribution:     21.66485      -7.16004       6.97735
Nuclear contribution   :    -22.25353       7.15112      -7.36346
                        -----------------------------------------
Total Dipole Moment    :     -0.58869      -0.00892      -0.38611
                        -----------------------------------------
Magnitude (a.u.)       :      0.70406
Magnitude (Debye)      :      1.78959

Rotational constants in cm-1:     0.020062     0.007569     0.006655
Rotational constants in MHz :   601.454610   226.917101   199.498742

                             ****ORCA TERMINATED NORMALLY****
TOTAL RUN TIME: 0 days 0 hours 0 minutes 30 seconds 74 msec
