                         Program Version 4.2.1 -  RELEASE  -
|  1> ! wB97X-D3 SP def2-SVP
|  2> %pal
|  3> nprocs 16
|  4> end
|  5>
|  6> * xyz 0 1
|  7> S 	 -67.5429 	 39.2609 	 134.995
|  8> C 	 -67.5889 	 39.4293 	 133.265
|  9> C 	 -67.6225 	 38.2113 	 132.628
| 10> C 	 -67.8028 	 37.1044 	 133.493
| 11> C 	 -67.8667 	 37.5458 	 134.798
| 12> H 	 -67.7803 	 36.0858 	 133.317
| 13> C 	 -67.4051 	 37.9602 	 131.174
| 14> H 	 -68.3706 	 38.0524 	 130.546
| 15> H 	 -67.1329 	 36.9223 	 130.986
| 16> C 	 -66.3939 	 38.8935 	 130.431
| 17> H 	 -66.4874 	 38.7343 	 129.353
| 18> H 	 -66.6032 	 39.9531 	 130.561
| 19> C 	 -64.8934 	 38.5944 	 130.7
| 20> H 	 -64.7021 	 38.4696 	 131.763
| 21> H 	 -64.6997 	 37.5758 	 130.381
| 22> H 	 -64.2829 	 39.3543 	 130.181
| 23> S 	 -66.9757 	 37.0582 	 137.371
| 24> C 	 -67.2183 	 35.5721 	 138.116
| 25> C 	 -68.1801 	 34.8695 	 137.412
| 26> C 	 -68.5885 	 35.5058 	 136.204
| 27> C 	 -67.8601 	 36.6727 	 135.946
| 28> H 	 -68.7255 	 33.9369 	 137.738
| 29> C 	 -69.6581 	 35.005 	 135.333
| 30> H 	 -70.1146 	 35.8366 	 134.753
| 31> H 	 -70.4567 	 34.6472 	 136.048
| 32> C 	 -69.3676 	 33.8162 	 134.304
| 33> H 	 -68.5359 	 34.1648 	 133.664
| 34> H 	 -70.2916 	 33.7234 	 133.645
| 35> C 	 -69.1923 	 32.4198 	 134.96
| 36> H 	 -68.4367 	 32.4513 	 135.78
| 37> H 	 -68.9219 	 31.616 	 134.241
| 38> H 	 -70.1239 	 32.0636 	 135.353
| 39> H 	 -67.4158 	 40.3606 	 132.767
| 40> H 	 -67.0131 	 35.2394 	 139.142
| 41> *
| 42>
| 43>                          ****END OF INPUT****

CARTESIAN COORDINATES (ANGSTROEM)
---------------------------------
  S    -67.542900   39.260900  134.995000
  C    -67.588900   39.429300  133.265000
  C    -67.622500   38.211300  132.628000
  C    -67.802800   37.104400  133.493000
  C    -67.866700   37.545800  134.798000
  H    -67.780300   36.085800  133.317000
  C    -67.405100   37.960200  131.174000
  H    -68.370600   38.052400  130.546000
  H    -67.132900   36.922300  130.986000
  C    -66.393900   38.893500  130.431000
  H    -66.487400   38.734300  129.353000
  H    -66.603200   39.953100  130.561000
  C    -64.893400   38.594400  130.700000
  H    -64.702100   38.469600  131.763000
  H    -64.699700   37.575800  130.381000
  H    -64.282900   39.354300  130.181000
  S    -66.975700   37.058200  137.371000
  C    -67.218300   35.572100  138.116000
  C    -68.180100   34.869500  137.412000
  C    -68.588500   35.505800  136.204000
  C    -67.860100   36.672700  135.946000
  H    -68.725500   33.936900  137.738000
  C    -69.658100   35.005000  135.333000
  H    -70.114600   35.836600  134.753000
  H    -70.456700   34.647200  136.048000
  C    -69.367600   33.816200  134.304000
  H    -68.535900   34.164800  133.664000
  H    -70.291600   33.723400  133.645000
  C    -69.192300   32.419800  134.960000
  H    -68.436700   32.451300  135.780000
  H    -68.921900   31.616000  134.241000
  H    -70.123900   32.063600  135.353000
  H    -67.415800   40.360600  132.767000
  H    -67.013100   35.239400  139.142000

 Total Charge           Charge          ....    0
 Multiplicity           Mult            ....    1
 Number of Electrons    NEL             ....  134
 Basis Dimension        Dim             ....  322

ORBITAL ENERGIES
----------------

  NO   OCC          E(Eh)            E(eV)
   0   2.0000     -88.970209     -2421.0025
   1   2.0000     -88.965949     -2420.8866
   2   2.0000     -10.329763      -281.0871
   3   2.0000     -10.321751      -280.8691
   4   2.0000     -10.313919      -280.6560
   5   2.0000     -10.311733      -280.5965
   6   2.0000     -10.301081      -280.3067
   7   2.0000     -10.300979      -280.3039
   8   2.0000     -10.298714      -280.2422
   9   2.0000     -10.296317      -280.1770
  10   2.0000     -10.294903      -280.1386
  11   2.0000     -10.294727      -280.1338
  12   2.0000     -10.290752      -280.0256
  13   2.0000     -10.288529      -279.9651
  14   2.0000     -10.283839      -279.8375
  15   2.0000     -10.276141      -279.6280
  16   2.0000      -8.085123      -220.0074
  17   2.0000      -8.082212      -219.9282
  18   2.0000      -6.043608      -164.4549
  19   2.0000      -6.040664      -164.3748
  20   2.0000      -6.039830      -164.3521
  21   2.0000      -6.036442      -164.2599
  22   2.0000      -6.035692      -164.2395
  23   2.0000      -6.033008      -164.1665
  24   2.0000      -1.017484       -27.6871
  25   2.0000      -0.993568       -27.0364
  26   2.0000      -0.908784       -24.7293
  27   2.0000      -0.904738       -24.6192
  28   2.0000      -0.871246       -23.7078
  29   2.0000      -0.857086       -23.3225
  30   2.0000      -0.847136       -23.0517
  31   2.0000      -0.814876       -22.1739
  32   2.0000      -0.781489       -21.2654
  33   2.0000      -0.770851       -20.9759
  34   2.0000      -0.711706       -19.3665
  35   2.0000      -0.702405       -19.1134
  36   2.0000      -0.691342       -18.8124
  37   2.0000      -0.666591       -18.1389
  38   2.0000      -0.643948       -17.5227
  39   2.0000      -0.614205       -16.7134
  40   2.0000      -0.592126       -16.1126
  41   2.0000      -0.572983       -15.5917
  42   2.0000      -0.547297       -14.8927
  43   2.0000      -0.545464       -14.8428
  44   2.0000      -0.540528       -14.7085
  45   2.0000      -0.531248       -14.4560
  46   2.0000      -0.520603       -14.1663
  47   2.0000      -0.514349       -13.9961
  48   2.0000      -0.507538       -13.8108
  49   2.0000      -0.497949       -13.5499
  50   2.0000      -0.491452       -13.3731
  51   2.0000      -0.485097       -13.2002
  52   2.0000      -0.479109       -13.0372
  53   2.0000      -0.468401       -12.7458
  54   2.0000      -0.460870       -12.5409
  55   2.0000      -0.449277       -12.2255
  56   2.0000      -0.439367       -11.9558
  57   2.0000      -0.434266       -11.8170
  58   2.0000      -0.431352       -11.7377
  59   2.0000      -0.426503       -11.6057
  60   2.0000      -0.420806       -11.4507
  61   2.0000      -0.415798       -11.3144
  62   2.0000      -0.412834       -11.2338
  63   2.0000      -0.358596        -9.7579
  64   2.0000      -0.334529        -9.1030
  65   2.0000      -0.325201        -8.8492
  66   2.0000      -0.284240        -7.7346
  67   0.0000       0.021675         0.5898
  68   0.0000       0.074354         2.0233
  69   0.0000       0.103930         2.8281
  70   0.0000       0.117662         3.2017
  71   0.0000       0.131049         3.5660

MULLIKEN ATOMIC CHARGES
-----------------------
   0 S :    0.108910
   1 C :   -0.106700
   2 C :   -0.031547
   3 C :    0.034708
   4 C :   -0.118669
   5 H :   -0.035935
   6 C :    0.028355
   7 H :    0.051532
   8 H :    0.017653
   9 C :   -0.096719
  10 H :    0.024562
  11 H :    0.027196
  12 C :   -0.039156
  13 H :    0.031833
  14 H :    0.015314
  15 H :    0.050123
  16 S :    0.116145
  17 C :   -0.074346
  18 C :   -0.066745
  19 C :   -0.040605
  20 C :   -0.148293
  21 H :    0.034691
  22 C :   -0.010551
  23 H :    0.043487
  24 H :    0.030979
  25 C :   -0.078123
  26 H :    0.039766
  27 H :    0.040637
  28 C :   -0.060867
  29 H :    0.042332
  30 H :    0.039928
  31 H :    0.023523
  32 H :    0.038871
  33 H :    0.067710
Sum of atomic charges:    0.0000000

LOEWDIN ATOMIC CHARGES
----------------------
   0 S :    0.407308
   1 C :   -0.195914
   2 C :   -0.061724
   3 C :   -0.047293
   4 C :   -0.175579
   5 H :    0.019763
   6 C :   -0.038829
   7 H :    0.045507
   8 H :    0.027929
   9 C :   -0.044288
  10 H :    0.024794
  11 H :    0.018126
  12 C :   -0.067871
  13 H :    0.024647
  14 H :    0.021984
  15 H :    0.031576
  16 S :    0.446579
  17 C :   -0.221406
  18 C :   -0.081372
  19 C :   -0.072078
  20 C :   -0.209528
  21 H :    0.037259
  22 C :   -0.045305
  23 H :    0.036547
  24 H :    0.037224
  25 C :   -0.040438
  26 H :    0.019230
  27 H :    0.032202
  28 C :   -0.074020
  29 H :    0.027166
  30 H :    0.031931
  31 H :    0.021224
  32 H :    0.023069
  33 H :    0.041579

  Mayer bond orders larger than 0.100000
B(  0-S ,  1-C ) :   1.1268 B(  0-S ,  4-C ) :   1.1498 B(  1-C ,  2-C ) :   1.6129
B(  1-C , 32-H ) :   0.9703 B(  2-C ,  3-C ) :   1.2208 B(  2-C ,  6-C ) :   1.0265
B(  3-C ,  4-C ) :   1.5490 B(  3-C ,  5-H ) :   1.0127 B(  4-C , 20-C ) :   1.0888
B(  6-C ,  7-H ) :   0.9291 B(  6-C ,  8-H ) :   0.9492 B(  6-C ,  9-C ) :   1.0755
B(  9-C , 10-H ) :   0.9550 B(  9-C , 11-H ) :   0.9575 B(  9-C , 12-C ) :   1.0692
B( 12-C , 13-H ) :   0.9791 B( 12-C , 14-H ) :   0.9718 B( 12-C , 15-H ) :   0.9751
B( 16-S , 17-C ) :   1.1802 B( 16-S , 20-C ) :   1.1510 B( 17-C , 18-C ) :   1.5532
B( 17-C , 33-H ) :   0.9631 B( 18-C , 19-C ) :   1.3029 B( 18-C , 21-H ) :   0.9731
B( 19-C , 20-C ) :   1.5186 B( 19-C , 22-C ) :   1.0671 B( 22-C , 23-H ) :   0.9297
B( 22-C , 24-H ) :   0.9317 B( 22-C , 25-C ) :   1.0584 B( 25-C , 26-H ) :   0.9543
B( 25-C , 27-H ) :   0.9549 B( 25-C , 28-C ) :   1.0715 B( 28-C , 29-H ) :   0.9749
B( 28-C , 30-H ) :   0.9723 B( 28-C , 31-H ) :   0.9744

Dispersion correction           -0.014548774
FINAL SINGLE POINT ENERGY     -1339.876884276832

DIPOLE MOMENT
-------------
                                X             Y             Z
Electronic contribution:      1.55656      14.14922      21.60292
Nuclear contribution   :     -1.74182     -14.53204     -22.01898
                        -----------------------------------------
Total Dipole Moment    :     -0.18526      -0.38282      -0.41606
                        -----------------------------------------
Magnitude (a.u.)       :      0.59496
Magnitude (Debye)      :      1.51226

Rotational constants in cm-1:     0.019829     0.008562     0.006701
Rotational constants in MHz :   594.472411   256.678410   200.900783

                             ****ORCA TERMINATED NORMALLY****
TOTAL RUN TIME: 0 days 0 hours 0 minutes 33 seconds 489 msec
