                         Program Version 4.2.1 -  RELEASE  -
|  1> ! wB97X-D3 SP def2-SVP
|  2> %pal
|  3> nprocs 16
|  4> end
|  5>
|  6> * xyz 0 1
|  7> S 	 -88.8326 	 48.2547 	 131.077
|  8> C 	 -89.4854 	 49.8979 	 131.087
|  9> C 	 -88.8374 	 50.6618 	 130.127
| 10> C 	 -87.8785 	 49.9413 	 129.32
| 11> C 	 -87.7913 	 48.5969 	 129.695
| 12> H 	 -87.2299 	 50.309 	 128.493
| 13> C 	 -89.0406 	 52.1 	 129.911
| 14> H 	 -90.0599 	 52.1919 	 130.305
| 15> H 	 -89.0834 	 52.2905 	 128.823
| 16> C 	 -88.1544 	 53.093 	 130.669
| 17> H 	 -88.4453 	 54.0941 	 130.351
| 18> H 	 -88.2692 	 52.9746 	 131.797
| 19> C 	 -86.6037 	 53.0438 	 130.377
| 20> H 	 -86.2248 	 53.141 	 129.367
| 21> H 	 -86.1788 	 53.7905 	 131.03
| 22> H 	 -86.1899 	 52.2032 	 130.887
| 23> S 	 -87.7629 	 46.2731 	 128.115
| 24> C 	 -86.1481 	 45.6071 	 127.68
| 25> C 	 -85.1459 	 46.2686 	 128.344
| 26> C 	 -85.5618 	 47.3522 	 129.204
| 27> C 	 -86.9825 	 47.5672 	 129.109
| 28> H 	 -84.1305 	 45.833 	 128.189
| 29> C 	 -84.6734 	 48.3028 	 129.967
| 30> H 	 -85.2511 	 48.8146 	 130.742
| 31> H 	 -84.2126 	 48.9544 	 129.205
| 32> C 	 -83.481 	 47.6268 	 130.624
| 33> H 	 -82.8111 	 48.268 	 131.131
| 34> H 	 -82.8434 	 47.187 	 129.897
| 35> C 	 -84.0291 	 46.5735 	 131.648
| 36> H 	 -83.3296 	 46.4881 	 132.466
| 37> H 	 -84.419 	 45.6792 	 131.179
| 38> H 	 -84.965 	 46.8756 	 132.202
| 39> H 	 -90.1236 	 50.3004 	 131.834
| 40> H 	 -86.129 	 44.8846 	 126.888
| 41> *
| 42>
| 43>                          ****END OF INPUT****

CARTESIAN COORDINATES (ANGSTROEM)
---------------------------------
  S    -88.832600   48.254700  131.077000
  C    -89.485400   49.897900  131.087000
  C    -88.837400   50.661800  130.127000
  C    -87.878500   49.941300  129.320000
  C    -87.791300   48.596900  129.695000
  H    -87.229900   50.309000  128.493000
  C    -89.040600   52.100000  129.911000
  H    -90.059900   52.191900  130.305000
  H    -89.083400   52.290500  128.823000
  C    -88.154400   53.093000  130.669000
  H    -88.445300   54.094100  130.351000
  H    -88.269200   52.974600  131.797000
  C    -86.603700   53.043800  130.377000
  H    -86.224800   53.141000  129.367000
  H    -86.178800   53.790500  131.030000
  H    -86.189900   52.203200  130.887000
  S    -87.762900   46.273100  128.115000
  C    -86.148100   45.607100  127.680000
  C    -85.145900   46.268600  128.344000
  C    -85.561800   47.352200  129.204000
  C    -86.982500   47.567200  129.109000
  H    -84.130500   45.833000  128.189000
  C    -84.673400   48.302800  129.967000
  H    -85.251100   48.814600  130.742000
  H    -84.212600   48.954400  129.205000
  C    -83.481000   47.626800  130.624000
  H    -82.811100   48.268000  131.131000
  H    -82.843400   47.187000  129.897000
  C    -84.029100   46.573500  131.648000
  H    -83.329600   46.488100  132.466000
  H    -84.419000   45.679200  131.179000
  H    -84.965000   46.875600  132.202000
  H    -90.123600   50.300400  131.834000
  H    -86.129000   44.884600  126.888000

 Total Charge           Charge          ....    0
 Multiplicity           Mult            ....    1
 Number of Electrons    NEL             ....  134
 Basis Dimension        Dim             ....  322

ORBITAL ENERGIES
----------------

  NO   OCC          E(Eh)            E(eV)
   0   2.0000     -88.964919     -2420.8585
   1   2.0000     -88.961836     -2420.7746
   2   2.0000     -10.331259      -281.1278
   3   2.0000     -10.328645      -281.0567
   4   2.0000     -10.322963      -280.9021
   5   2.0000     -10.314368      -280.6682
   6   2.0000     -10.314277      -280.6657
   7   2.0000     -10.303256      -280.3658
   8   2.0000     -10.299467      -280.2628
   9   2.0000     -10.298969      -280.2492
  10   2.0000     -10.297338      -280.2048
  11   2.0000     -10.291920      -280.0574
  12   2.0000     -10.287955      -279.9495
  13   2.0000     -10.280638      -279.7504
  14   2.0000     -10.274510      -279.5836
  15   2.0000     -10.274065      -279.5715
  16   2.0000      -8.079066      -219.8426
  17   2.0000      -8.075292      -219.7399
  18   2.0000      -6.037579      -164.2909
  19   2.0000      -6.033808      -164.1883
  20   2.0000      -6.033629      -164.1834
  21   2.0000      -6.030007      -164.0848
  22   2.0000      -6.029873      -164.0812
  23   2.0000      -6.026097      -163.9784
  24   2.0000      -0.996832       -27.1252
  25   2.0000      -0.973375       -26.4869
  26   2.0000      -0.910996       -24.7895
  27   2.0000      -0.909424       -24.7467
  28   2.0000      -0.867428       -23.6039
  29   2.0000      -0.843830       -22.9618
  30   2.0000      -0.836937       -22.7742
  31   2.0000      -0.814175       -22.1548
  32   2.0000      -0.783447       -21.3187
  33   2.0000      -0.769269       -20.9329
  34   2.0000      -0.711732       -19.3672
  35   2.0000      -0.701376       -19.0854
  36   2.0000      -0.700181       -19.0529
  37   2.0000      -0.648119       -17.6362
  38   2.0000      -0.639317       -17.3967
  39   2.0000      -0.609664       -16.5898
  40   2.0000      -0.594971       -16.1900
  41   2.0000      -0.573821       -15.6145
  42   2.0000      -0.555659       -15.1202
  43   2.0000      -0.548283       -14.9195
  44   2.0000      -0.540699       -14.7132
  45   2.0000      -0.537143       -14.6164
  46   2.0000      -0.522102       -14.2071
  47   2.0000      -0.517640       -14.0857
  48   2.0000      -0.502659       -13.6781
  49   2.0000      -0.490648       -13.3512
  50   2.0000      -0.485840       -13.2204
  51   2.0000      -0.476363       -12.9625
  52   2.0000      -0.466328       -12.6894
  53   2.0000      -0.462639       -12.5890
  54   2.0000      -0.456446       -12.4205
  55   2.0000      -0.447515       -12.1775
  56   2.0000      -0.441070       -12.0021
  57   2.0000      -0.435171       -11.8416
  58   2.0000      -0.433020       -11.7831
  59   2.0000      -0.420863       -11.4523
  60   2.0000      -0.419573       -11.4172
  61   2.0000      -0.410677       -11.1751
  62   2.0000      -0.404727       -11.0132
  63   2.0000      -0.337352        -9.1798
  64   2.0000      -0.326369        -8.8810
  65   2.0000      -0.322296        -8.7701
  66   2.0000      -0.299564        -8.1516
  67   0.0000       0.034016         0.9256
  68   0.0000       0.050740         1.3807
  69   0.0000       0.114933         3.1275
  70   0.0000       0.120531         3.2798
  71   0.0000       0.122455         3.3322

MULLIKEN ATOMIC CHARGES
-----------------------
   0 S :    0.109602
   1 C :   -0.103865
   2 C :   -0.111684
   3 C :    0.045760
   4 C :   -0.190974
   5 H :    0.032700
   6 C :    0.066568
   7 H :    0.017050
   8 H :    0.034867
   9 C :   -0.072157
  10 H :    0.033454
  11 H :    0.037188
  12 C :   -0.047804
  13 H :    0.043046
  14 H :    0.019734
  15 H :    0.023101
  16 S :    0.085397
  17 C :   -0.102165
  18 C :   -0.039019
  19 C :   -0.033357
  20 C :   -0.177988
  21 H :    0.043140
  22 C :    0.082860
  23 H :    0.048134
  24 H :    0.042416
  25 C :   -0.045335
  26 H :    0.015435
  27 H :    0.016709
  28 C :   -0.074629
  29 H :    0.031599
  30 H :    0.043427
  31 H :    0.025714
  32 H :    0.039736
  33 H :    0.061342
Sum of atomic charges:    0.0000000

LOEWDIN ATOMIC CHARGES
----------------------
   0 S :    0.395178
   1 C :   -0.192447
   2 C :   -0.065046
   3 C :   -0.057614
   4 C :   -0.197275
   5 H :    0.042423
   6 C :   -0.044927
   7 H :    0.034745
   8 H :    0.035335
   9 C :   -0.034132
  10 H :    0.023762
  11 H :    0.033938
  12 C :   -0.073912
  13 H :    0.023978
  14 H :    0.028236
  15 H :    0.022399
  16 S :    0.357743
  17 C :   -0.158674
  18 C :   -0.080887
  19 C :   -0.044251
  20 C :   -0.192416
  21 H :    0.041949
  22 C :   -0.029054
  23 H :    0.035158
  24 H :    0.037846
  25 C :   -0.036788
  26 H :    0.019824
  27 H :    0.017458
  28 C :   -0.073635
  29 H :    0.022839
  30 H :    0.026970
  31 H :    0.031737
  32 H :    0.023928
  33 H :    0.025613

  Mayer bond orders larger than 0.100000
B(  0-S ,  1-C ) :   1.1247 B(  0-S ,  4-C ) :   1.1534 B(  1-C ,  2-C ) :   1.6177
B(  1-C , 32-H ) :   0.9707 B(  2-C ,  3-C ) :   1.2168 B(  2-C ,  6-C ) :   1.0258
B(  3-C ,  4-C ) :   1.5795 B(  3-C ,  5-H ) :   0.9888 B(  4-C , 20-C ) :   1.0568
B(  6-C ,  7-H ) :   0.9322 B(  6-C ,  8-H ) :   0.9400 B(  6-C ,  9-C ) :   1.0760
B(  9-C , 10-H ) :   0.9576 B(  9-C , 11-H ) :   0.9532 B(  9-C , 12-C ) :   1.0799
B( 12-C , 13-H ) :   0.9774 B( 12-C , 14-H ) :   0.9683 B( 12-C , 15-H ) :   0.9701
B( 16-S , 17-C ) :   1.1428 B( 16-S , 20-C ) :   1.1328 B( 17-C , 18-C ) :   1.6249
B( 17-C , 20-C ) :   0.1062 B( 17-C , 33-H ) :   0.9711 B( 18-C , 19-C ) :   1.2069
B( 18-C , 21-H ) :   0.9800 B( 19-C , 20-C ) :   1.5788 B( 19-C , 22-C ) :   1.0448
B( 22-C , 23-H ) :   0.9338 B( 22-C , 24-H ) :   0.9315 B( 22-C , 25-C ) :   1.0826
B( 25-C , 26-H ) :   0.9585 B( 25-C , 27-H ) :   0.9496 B( 25-C , 28-C ) :   1.0628
B( 28-C , 29-H ) :   0.9781 B( 28-C , 30-H ) :   0.9718 B( 28-C , 31-H ) :   0.9749

Dispersion correction           -0.015196804
FINAL SINGLE POINT ENERGY     -1339.866468590788

DIPOLE MOMENT
-------------
                                X             Y             Z
Electronic contribution:    -15.75670     -17.23163      -7.74247
Nuclear contribution   :     16.30509      17.75946       7.73670
                        -----------------------------------------
Total Dipole Moment    :      0.54839       0.52783      -0.00578
                        -----------------------------------------
Magnitude (a.u.)       :      0.76116
Magnitude (Debye)      :      1.93472

Rotational constants in cm-1:     0.019232     0.008811     0.007377
Rotational constants in MHz :   576.552747   264.162097   221.144673

                             ****ORCA TERMINATED NORMALLY****
TOTAL RUN TIME: 0 days 0 hours 0 minutes 34 seconds 358 msec
