                         Program Version 4.2.1 -  RELEASE  -
|  1> ! wB97X-D3 SP def2-SVP
|  2> %pal
|  3> nprocs 16
|  4> end
|  5>
|  6> * xyz 0 1
|  7> S 	 37.1486 	 -7.34653 	 71.4331
|  8> C 	 37.2108 	 -5.63812 	 71.7646
|  9> C 	 38.2108 	 -5.04104 	 70.9734
| 10> C 	 38.6313 	 -5.93294 	 69.9381
| 11> C 	 38.1739 	 -7.23787 	 70.0647
| 12> H 	 39.4313 	 -5.82941 	 69.2543
| 13> C 	 38.6823 	 -3.57724 	 71.0837
| 14> H 	 37.9326 	 -2.84744 	 71.2983
| 15> H 	 38.9305 	 -3.25783 	 70.018
| 16> C 	 39.8793 	 -3.38004 	 72.0282
| 17> H 	 39.4559 	 -3.64492 	 72.9971
| 18> H 	 40.5904 	 -4.19086 	 71.7975
| 19> C 	 40.596 	 -2.02221 	 71.9169
| 20> H 	 41.0278 	 -1.97854 	 70.9172
| 21> H 	 39.9225 	 -1.18797 	 72.0289
| 22> H 	 41.4331 	 -1.7713 	 72.5915
| 23> S 	 38.4201 	 -9.95064 	 69.945
| 24> C 	 38.7817 	 -10.7246 	 68.4179
| 25> C 	 38.9017 	 -9.81061 	 67.3768
| 26> C 	 38.6368 	 -8.45123 	 67.7809
| 27> C 	 38.4825 	 -8.34158 	 69.1756
| 28> H 	 39.0416 	 -10.1134 	 66.4317
| 29> C 	 38.5269 	 -7.42008 	 66.7587
| 30> H 	 39.3338 	 -7.56103 	 66.0068
| 31> H 	 38.6324 	 -6.38081 	 67.1766
| 32> C 	 37.1793 	 -7.49082 	 66.0398
| 33> H 	 36.4035 	 -7.13462 	 66.6553
| 34> H 	 36.9785 	 -8.53412 	 65.8305
| 35> C 	 37.2198 	 -6.5244 	 64.8393
| 36> H 	 37.452 	 -5.58439 	 65.2347
| 37> H 	 36.2498 	 -6.63987 	 64.3271
| 38> H 	 38.0955 	 -6.7842 	 64.1736
| 39> H 	 36.716 	 -5.10786 	 72.602
| 40> H 	 38.7839 	 -11.8467 	 68.23
| 41> *
| 42>
| 43>                          ****END OF INPUT****

CARTESIAN COORDINATES (ANGSTROEM)
---------------------------------
  S     37.148600   -7.346530   71.433100
  C     37.210800   -5.638120   71.764600
  C     38.210800   -5.041040   70.973400
  C     38.631300   -5.932940   69.938100
  C     38.173900   -7.237870   70.064700
  H     39.431300   -5.829410   69.254300
  C     38.682300   -3.577240   71.083700
  H     37.932600   -2.847440   71.298300
  H     38.930500   -3.257830   70.018000
  C     39.879300   -3.380040   72.028200
  H     39.455900   -3.644920   72.997100
  H     40.590400   -4.190860   71.797500
  C     40.596000   -2.022210   71.916900
  H     41.027800   -1.978540   70.917200
  H     39.922500   -1.187970   72.028900
  H     41.433100   -1.771300   72.591500
  S     38.420100   -9.950640   69.945000
  C     38.781700  -10.724600   68.417900
  C     38.901700   -9.810610   67.376800
  C     38.636800   -8.451230   67.780900
  C     38.482500   -8.341580   69.175600
  H     39.041600  -10.113400   66.431700
  C     38.526900   -7.420080   66.758700
  H     39.333800   -7.561030   66.006800
  H     38.632400   -6.380810   67.176600
  C     37.179300   -7.490820   66.039800
  H     36.403500   -7.134620   66.655300
  H     36.978500   -8.534120   65.830500
  C     37.219800   -6.524400   64.839300
  H     37.452000   -5.584390   65.234700
  H     36.249800   -6.639870   64.327100
  H     38.095500   -6.784200   64.173600
  H     36.716000   -5.107860   72.602000
  H     38.783900  -11.846700   68.230000

 Total Charge           Charge          ....    0
 Multiplicity           Mult            ....    1
 Number of Electrons    NEL             ....  134
 Basis Dimension        Dim             ....  322

ORBITAL ENERGIES
----------------

  NO   OCC          E(Eh)            E(eV)
   0   2.0000     -88.968327     -2420.9513
   1   2.0000     -88.966882     -2420.9119
   2   2.0000     -10.331933      -281.1462
   3   2.0000     -10.327759      -281.0326
   4   2.0000     -10.325325      -280.9664
   5   2.0000     -10.318776      -280.7882
   6   2.0000     -10.308608      -280.5115
   7   2.0000     -10.305869      -280.4370
   8   2.0000     -10.296284      -280.1761
   9   2.0000     -10.292123      -280.0629
  10   2.0000     -10.289401      -279.9888
  11   2.0000     -10.289028      -279.9787
  12   2.0000     -10.288997      -279.9778
  13   2.0000     -10.281442      -279.7723
  14   2.0000     -10.279561      -279.7211
  15   2.0000     -10.278845      -279.7016
  16   2.0000      -8.083572      -219.9652
  17   2.0000      -8.081215      -219.9010
  18   2.0000      -6.042047      -164.4125
  19   2.0000      -6.039873      -164.3533
  20   2.0000      -6.037905      -164.2997
  21   2.0000      -6.035817      -164.2429
  22   2.0000      -6.034425      -164.2051
  23   2.0000      -6.031822      -164.1342
  24   2.0000      -1.008779       -27.4503
  25   2.0000      -0.983328       -26.7577
  26   2.0000      -0.918685       -24.9987
  27   2.0000      -0.908444       -24.7200
  28   2.0000      -0.869550       -23.6617
  29   2.0000      -0.855684       -23.2844
  30   2.0000      -0.845658       -23.0115
  31   2.0000      -0.813652       -22.1406
  32   2.0000      -0.782419       -21.2907
  33   2.0000      -0.768755       -20.9189
  34   2.0000      -0.706249       -19.2180
  35   2.0000      -0.701392       -19.0858
  36   2.0000      -0.692301       -18.8385
  37   2.0000      -0.670620       -18.2485
  38   2.0000      -0.643440       -17.5089
  39   2.0000      -0.620120       -16.8743
  40   2.0000      -0.598168       -16.2770
  41   2.0000      -0.573578       -15.6079
  42   2.0000      -0.564738       -15.3673
  43   2.0000      -0.557483       -15.1699
  44   2.0000      -0.531397       -14.4601
  45   2.0000      -0.524084       -14.2611
  46   2.0000      -0.517506       -14.0820
  47   2.0000      -0.509516       -13.8646
  48   2.0000      -0.504929       -13.7398
  49   2.0000      -0.502224       -13.6662
  50   2.0000      -0.498480       -13.5643
  51   2.0000      -0.480836       -13.0842
  52   2.0000      -0.467421       -12.7192
  53   2.0000      -0.460864       -12.5408
  54   2.0000      -0.457331       -12.4446
  55   2.0000      -0.454388       -12.3645
  56   2.0000      -0.446053       -12.1377
  57   2.0000      -0.441656       -12.0181
  58   2.0000      -0.429717       -11.6932
  59   2.0000      -0.428109       -11.6494
  60   2.0000      -0.425541       -11.5796
  61   2.0000      -0.415813       -11.3149
  62   2.0000      -0.409768       -11.1504
  63   2.0000      -0.356570        -9.7028
  64   2.0000      -0.333957        -9.0874
  65   2.0000      -0.328259        -8.9324
  66   2.0000      -0.282512        -7.6876
  67   0.0000       0.021696         0.5904
  68   0.0000       0.073944         2.0121
  69   0.0000       0.102204         2.7811
  70   0.0000       0.112218         3.0536
  71   0.0000       0.137206         3.7336

MULLIKEN ATOMIC CHARGES
-----------------------
   0 S :    0.118536
   1 C :   -0.125806
   2 C :   -0.082257
   3 C :    0.010965
   4 C :   -0.126894
   5 H :    0.009686
   6 C :    0.023910
   7 H :    0.019961
   8 H :    0.020211
   9 C :   -0.055291
  10 H :    0.022936
  11 H :    0.032300
  12 C :   -0.036801
  13 H :    0.028069
  14 H :    0.024344
  15 H :    0.042187
  16 S :    0.089491
  17 C :   -0.100807
  18 C :    0.013205
  19 C :   -0.035505
  20 C :   -0.142044
  21 H :   -0.030306
  22 C :    0.022611
  23 H :    0.029037
  24 H :    0.022006
  25 C :   -0.070023
  26 H :    0.025787
  27 H :    0.023774
  28 C :   -0.015293
  29 H :    0.017542
  30 H :    0.050014
  31 H :    0.027497
  32 H :    0.064731
  33 H :    0.082230
Sum of atomic charges:    0.0000000

LOEWDIN ATOMIC CHARGES
----------------------
   0 S :    0.426933
   1 C :   -0.210595
   2 C :   -0.056987
   3 C :   -0.072245
   4 C :   -0.205830
   5 H :    0.023968
   6 C :   -0.035740
   7 H :    0.023261
   8 H :    0.031182
   9 C :   -0.041538
  10 H :    0.021704
  11 H :    0.027434
  12 C :   -0.069092
  13 H :    0.027928
  14 H :    0.021482
  15 H :    0.031924
  16 S :    0.386698
  17 C :   -0.188440
  18 C :   -0.056612
  19 C :   -0.049857
  20 C :   -0.184320
  21 H :    0.009296
  22 C :   -0.040137
  23 H :    0.033525
  24 H :    0.032592
  25 C :   -0.030377
  26 H :    0.022203
  27 H :    0.019614
  28 C :   -0.057812
  29 H :    0.017050
  30 H :    0.031981
  31 H :    0.027394
  32 H :    0.037744
  33 H :    0.045668

  Mayer bond orders larger than 0.100000
B(  0-S ,  1-C ) :   1.1486 B(  0-S ,  4-C ) :   1.1594 B(  1-C ,  2-C ) :   1.5771
B(  1-C ,  4-C ) :   0.1003 B(  1-C , 32-H ) :   0.9664 B(  2-C ,  3-C ) :   1.2679
B(  2-C ,  6-C ) :   1.0177 B(  3-C ,  4-C ) :   1.5539 B(  3-C ,  5-H ) :   0.9895
B(  4-C , 20-C ) :   1.0790 B(  6-C ,  7-H ) :   0.9482 B(  6-C ,  8-H ) :   0.9482
B(  6-C ,  9-C ) :   1.0429 B(  9-C , 10-H ) :   0.9571 B(  9-C , 11-H ) :   0.9602
B(  9-C , 12-C ) :   1.0681 B( 12-C , 13-H ) :   0.9736 B( 12-C , 14-H ) :   0.9758
B( 12-C , 15-H ) :   0.9763 B( 16-S , 17-C ) :   1.1523 B( 16-S , 20-C ) :   1.1184
B( 17-C , 18-C ) :   1.6116 B( 17-C , 33-H ) :   0.9566 B( 18-C , 19-C ) :   1.2292
B( 18-C , 21-H ) :   1.0039 B( 19-C , 20-C ) :   1.5795 B( 19-C , 22-C ) :   1.0667
B( 22-C , 23-H ) :   0.9326 B( 22-C , 24-H ) :   0.9268 B( 22-C , 25-C ) :   1.0610
B( 25-C , 26-H ) :   0.9490 B( 25-C , 27-H ) :   0.9607 B( 25-C , 28-C ) :   1.0744
B( 28-C , 29-H ) :   0.9705 B( 28-C , 30-H ) :   0.9737 B( 28-C , 31-H ) :   0.9757

Dispersion correction           -0.013495188
FINAL SINGLE POINT ENERGY     -1339.871410461011

DIPOLE MOMENT
-------------
                                X             Y             Z
Electronic contribution:     -5.90821     -23.92920      12.54255
Nuclear contribution   :      6.00313      24.31483     -12.97367
                        -----------------------------------------
Total Dipole Moment    :      0.09492       0.38562      -0.43112
                        -----------------------------------------
Magnitude (a.u.)       :      0.58616
Magnitude (Debye)      :      1.48989

Rotational constants in cm-1:     0.018337     0.007852     0.006328
Rotational constants in MHz :   549.719463   235.399798   189.716328

                             ****ORCA TERMINATED NORMALLY****
TOTAL RUN TIME: 0 days 0 hours 0 minutes 29 seconds 118 msec
