                         Program Version 4.2.1 -  RELEASE  -
|  1> ! wB97X-D3 SP def2-SVP
|  2> %pal
|  3> nprocs 16
|  4> end
|  5>
|  6> * xyz 0 1
|  7> S 	 54.5753 	 15.6064 	 51.7908
|  8> C 	 55.5125 	 16.7033 	 52.8606
|  9> C 	 54.6021 	 17.5611 	 53.4768
| 10> C 	 53.2507 	 17.3419 	 53.1212
| 11> C 	 53.0333 	 16.2928 	 52.29
| 12> H 	 52.4066 	 17.8411 	 53.5281
| 13> C 	 54.9888 	 18.5953 	 54.4595
| 14> H 	 55.8801 	 18.3091 	 54.8022
| 15> H 	 54.2658 	 18.5354 	 55.2205
| 16> C 	 54.9983 	 20.0601 	 53.885
| 17> H 	 53.9638 	 20.4033 	 53.6756
| 18> H 	 55.3832 	 20.7638 	 54.5939
| 19> C 	 55.7859 	 20.1787 	 52.5746
| 20> H 	 56.7103 	 19.6 	 52.601
| 21> H 	 55.269 	 19.7322 	 51.721
| 22> H 	 56.0285 	 21.2223 	 52.3823
| 23> S 	 51.738 	 16.1621 	 49.9054
| 24> C 	 50.099 	 15.931 	 49.688
| 25> C 	 49.5314 	 15.7373 	 50.9208
| 26> C 	 50.432 	 15.8028 	 52.0287
| 27> C 	 51.7537 	 15.9727 	 51.6515
| 28> H 	 48.4233 	 15.7712 	 51.0718
| 29> C 	 49.9415 	 15.643 	 53.4198
| 30> H 	 50.8187 	 15.5352 	 54.0451
| 31> H 	 49.3962 	 14.6856 	 53.3623
| 32> C 	 48.9531 	 16.7092 	 53.9167
| 33> H 	 47.9539 	 16.5513 	 53.5071
| 34> H 	 49.389 	 17.6421 	 53.5012
| 35> C 	 48.8112 	 16.7257 	 55.4502
| 36> H 	 48.2375 	 15.8599 	 55.7347
| 37> H 	 48.3867 	 17.6389 	 55.8849
| 38> H 	 49.8343 	 16.6907 	 55.9047
| 39> H 	 56.5543 	 16.8252 	 53.0414
| 40> H 	 49.5778 	 16.0253 	 48.7481
| 41> *
| 42>
| 43>                          ****END OF INPUT****

CARTESIAN COORDINATES (ANGSTROEM)
---------------------------------
  S     54.575300   15.606400   51.790800
  C     55.512500   16.703300   52.860600
  C     54.602100   17.561100   53.476800
  C     53.250700   17.341900   53.121200
  C     53.033300   16.292800   52.290000
  H     52.406600   17.841100   53.528100
  C     54.988800   18.595300   54.459500
  H     55.880100   18.309100   54.802200
  H     54.265800   18.535400   55.220500
  C     54.998300   20.060100   53.885000
  H     53.963800   20.403300   53.675600
  H     55.383200   20.763800   54.593900
  C     55.785900   20.178700   52.574600
  H     56.710300   19.600000   52.601000
  H     55.269000   19.732200   51.721000
  H     56.028500   21.222300   52.382300
  S     51.738000   16.162100   49.905400
  C     50.099000   15.931000   49.688000
  C     49.531400   15.737300   50.920800
  C     50.432000   15.802800   52.028700
  C     51.753700   15.972700   51.651500
  H     48.423300   15.771200   51.071800
  C     49.941500   15.643000   53.419800
  H     50.818700   15.535200   54.045100
  H     49.396200   14.685600   53.362300
  C     48.953100   16.709200   53.916700
  H     47.953900   16.551300   53.507100
  H     49.389000   17.642100   53.501200
  C     48.811200   16.725700   55.450200
  H     48.237500   15.859900   55.734700
  H     48.386700   17.638900   55.884900
  H     49.834300   16.690700   55.904700
  H     56.554300   16.825200   53.041400
  H     49.577800   16.025300   48.748100

 Total Charge           Charge          ....    0
 Multiplicity           Mult            ....    1
 Number of Electrons    NEL             ....  134
 Basis Dimension        Dim             ....  322

ORBITAL ENERGIES
----------------

  NO   OCC          E(Eh)            E(eV)
   0   2.0000     -88.968007     -2420.9425
   1   2.0000     -88.958311     -2420.6787
   2   2.0000     -10.332451      -281.1603
   3   2.0000     -10.327631      -281.0291
   4   2.0000     -10.317750      -280.7602
   5   2.0000     -10.313837      -280.6538
   6   2.0000     -10.301550      -280.3194
   7   2.0000     -10.297211      -280.2014
   8   2.0000     -10.292317      -280.0682
   9   2.0000     -10.291326      -280.0412
  10   2.0000     -10.288890      -279.9749
  11   2.0000     -10.287905      -279.9481
  12   2.0000     -10.287755      -279.9440
  13   2.0000     -10.283145      -279.8186
  14   2.0000     -10.278172      -279.6833
  15   2.0000     -10.273238      -279.5490
  16   2.0000      -8.081540      -219.9099
  17   2.0000      -8.075011      -219.7322
  18   2.0000      -6.040279      -164.3643
  19   2.0000      -6.036133      -164.2515
  20   2.0000      -6.033344      -164.1756
  21   2.0000      -6.032163      -164.1435
  22   2.0000      -6.029050      -164.0588
  23   2.0000      -6.025968      -163.9749
  24   2.0000      -1.013605       -27.5816
  25   2.0000      -0.989917       -26.9370
  26   2.0000      -0.915696       -24.9174
  27   2.0000      -0.915081       -24.9006
  28   2.0000      -0.870572       -23.6895
  29   2.0000      -0.852903       -23.2087
  30   2.0000      -0.844834       -22.9891
  31   2.0000      -0.818992       -22.2859
  32   2.0000      -0.783128       -21.3100
  33   2.0000      -0.775899       -21.1133
  34   2.0000      -0.711883       -19.3713
  35   2.0000      -0.701083       -19.0774
  36   2.0000      -0.699862       -19.0442
  37   2.0000      -0.658715       -17.9246
  38   2.0000      -0.642983       -17.4965
  39   2.0000      -0.623306       -16.9610
  40   2.0000      -0.599045       -16.3008
  41   2.0000      -0.574257       -15.6263
  42   2.0000      -0.566753       -15.4221
  43   2.0000      -0.552920       -15.0457
  44   2.0000      -0.549059       -14.9407
  45   2.0000      -0.524426       -14.2703
  46   2.0000      -0.523706       -14.2508
  47   2.0000      -0.517337       -14.0774
  48   2.0000      -0.511853       -13.9282
  49   2.0000      -0.503714       -13.7068
  50   2.0000      -0.487623       -13.2689
  51   2.0000      -0.481578       -13.1044
  52   2.0000      -0.474852       -12.9214
  53   2.0000      -0.465354       -12.6629
  54   2.0000      -0.463528       -12.6132
  55   2.0000      -0.449604       -12.2343
  56   2.0000      -0.445271       -12.1164
  57   2.0000      -0.433764       -11.8033
  58   2.0000      -0.429731       -11.6936
  59   2.0000      -0.425803       -11.5867
  60   2.0000      -0.422706       -11.5024
  61   2.0000      -0.417203       -11.3527
  62   2.0000      -0.409966       -11.1558
  63   2.0000      -0.349539        -9.5114
  64   2.0000      -0.329226        -8.9587
  65   2.0000      -0.324290        -8.8244
  66   2.0000      -0.299028        -8.1370
  67   0.0000       0.033375         0.9082
  68   0.0000       0.068234         1.8567
  69   0.0000       0.117113         3.1868
  70   0.0000       0.118823         3.2333
  71   0.0000       0.128425         3.4946

MULLIKEN ATOMIC CHARGES
-----------------------
   0 S :    0.105347
   1 C :   -0.098095
   2 C :   -0.145914
   3 C :    0.054451
   4 C :   -0.142583
   5 H :   -0.005442
   6 C :    0.174239
   7 H :   -0.022307
   8 H :    0.012646
   9 C :   -0.077529
  10 H :    0.030785
  11 H :    0.029779
  12 C :   -0.054261
  13 H :    0.013813
  14 H :    0.045948
  15 H :    0.035666
  16 S :    0.096876
  17 C :   -0.074994
  18 C :   -0.050911
  19 C :   -0.078139
  20 C :   -0.136161
  21 H :    0.031098
  22 C :    0.063629
  23 H :    0.020213
  24 H :    0.035682
  25 C :   -0.092171
  26 H :    0.034243
  27 H :    0.034980
  28 C :   -0.046240
  29 H :    0.035909
  30 H :    0.040577
  31 H :    0.028870
  32 H :    0.036787
  33 H :    0.063208
Sum of atomic charges:   -0.0000000

LOEWDIN ATOMIC CHARGES
----------------------
   0 S :    0.387902
   1 C :   -0.186122
   2 C :   -0.056607
   3 C :   -0.059895
   4 C :   -0.189522
   5 H :    0.026635
   6 C :   -0.014645
   7 H :    0.010434
   8 H :    0.028057
   9 C :   -0.033705
  10 H :    0.026051
  11 H :    0.020447
  12 C :   -0.068333
  13 H :    0.019836
  14 H :    0.029817
  15 H :    0.026434
  16 S :    0.438266
  17 C :   -0.203118
  18 C :   -0.088788
  19 C :   -0.062054
  20 C :   -0.199982
  21 H :    0.035089
  22 C :   -0.035195
  23 H :    0.027898
  24 H :    0.038075
  25 C :   -0.041982
  26 H :    0.023669
  27 H :    0.024134
  28 C :   -0.066531
  29 H :    0.025162
  30 H :    0.028331
  31 H :    0.028047
  32 H :    0.026981
  33 H :    0.035215

  Mayer bond orders larger than 0.100000
B(  0-S ,  1-C ) :   1.1165 B(  0-S ,  4-C ) :   1.1437 B(  1-C ,  2-C ) :   1.6073
B(  1-C , 32-H ) :   0.9691 B(  2-C ,  3-C ) :   1.2319 B(  2-C ,  6-C ) :   1.0338
B(  3-C ,  4-C ) :   1.5846 B(  3-C ,  5-H ) :   0.9995 B(  4-C , 20-C ) :   1.0113
B(  6-C ,  7-H ) :   0.9274 B(  6-C ,  8-H ) :   0.9354 B(  6-C ,  9-C ) :   1.0635
B(  9-C , 10-H ) :   0.9560 B(  9-C , 11-H ) :   0.9621 B(  9-C , 12-C ) :   1.0767
B( 12-C , 13-H ) :   0.9769 B( 12-C , 14-H ) :   0.9698 B( 12-C , 15-H ) :   0.9742
B( 16-S , 17-C ) :   1.1939 B( 16-S , 20-C ) :   1.1477 B( 17-C , 18-C ) :   1.5591
B( 17-C , 33-H ) :   0.9713 B( 18-C , 19-C ) :   1.2727 B( 18-C , 21-H ) :   0.9823
B( 19-C , 20-C ) :   1.5787 B( 19-C , 22-C ) :   1.0610 B( 22-C , 23-H ) :   0.9388
B( 22-C , 24-H ) :   0.9274 B( 22-C , 25-C ) :   1.0487 B( 25-C , 26-H ) :   0.9501
B( 25-C , 27-H ) :   0.9634 B( 25-C , 28-C ) :   1.0846 B( 28-C , 29-H ) :   0.9745
B( 28-C , 30-H ) :   0.9758 B( 28-C , 31-H ) :   0.9758

Dispersion correction           -0.014493640
FINAL SINGLE POINT ENERGY     -1339.875216056780

DIPOLE MOMENT
-------------
                                X             Y             Z
Electronic contribution:      5.51815     -15.21661     -18.86041
Nuclear contribution   :     -5.87474      15.72588      19.33659
                        -----------------------------------------
Total Dipole Moment    :     -0.35659       0.50927       0.47618
                        -----------------------------------------
Magnitude (a.u.)       :      0.78311
Magnitude (Debye)      :      1.99051

Rotational constants in cm-1:     0.017506     0.009010     0.007075
Rotational constants in MHz :   524.823936   270.106753   212.117022

                             ****ORCA TERMINATED NORMALLY****
TOTAL RUN TIME: 0 days 0 hours 0 minutes 30 seconds 824 msec
