                         Program Version 4.2.1 -  RELEASE  -
|  1> ! wB97X-D3 SP def2-SVP
|  2> %pal
|  3> nprocs 16
|  4> end
|  5>
|  6> * xyz 0 1
|  7> S 	 55.213 	 14.5759 	 56.1589
|  8> C 	 54.8227 	 16.1213 	 55.4987
|  9> C 	 55.8528 	 17.0854 	 55.8121
| 10> C 	 56.9284 	 16.4399 	 56.4228
| 11> C 	 56.778 	 15.0708 	 56.61
| 12> H 	 57.8909 	 16.9482 	 56.7036
| 13> C 	 55.7913 	 18.6306 	 55.5194
| 14> H 	 54.8078 	 19.0119 	 55.3592
| 15> H 	 56.3182 	 18.8389 	 54.6236
| 16> C 	 56.4094 	 19.5453 	 56.6367
| 17> H 	 55.7946 	 19.3335 	 57.5516
| 18> H 	 57.3977 	 19.3266 	 56.9364
| 19> C 	 56.3326 	 21.1017 	 56.3322
| 20> H 	 56.9369 	 21.5961 	 57.1122
| 21> H 	 56.8233 	 21.4091 	 55.4169
| 22> H 	 55.2828 	 21.52 	 56.3722
| 23> S 	 57.538 	 13.4885 	 58.8343
| 24> C 	 59.0311 	 12.5607 	 58.6243
| 25> C 	 59.7708 	 12.8952 	 57.5047
| 26> C 	 59.0242 	 13.7754 	 56.6837
| 27> C 	 57.7727 	 14.1066 	 57.1698
| 28> H 	 60.7473 	 12.437 	 57.4618
| 29> C 	 59.6459 	 14.2317 	 55.3845
| 30> H 	 60.7067 	 14.2477 	 55.4308
| 31> H 	 59.3942 	 15.2679 	 55.308
| 32> C 	 59.3306 	 13.4648 	 54.109
| 33> H 	 59.5374 	 12.4363 	 54.1839
| 34> H 	 60.0015 	 13.7932 	 53.3342
| 35> C 	 57.8132 	 13.4959 	 53.8422
| 36> H 	 57.3947 	 14.4818 	 53.7637
| 37> H 	 57.3798 	 12.8948 	 54.6409
| 38> H 	 57.5097 	 13.0366 	 52.916
| 39> H 	 53.9233 	 16.4821 	 55.0538
| 40> H 	 59.3236 	 11.7225 	 59.2583
| 41> *
| 42>
| 43>                          ****END OF INPUT****

CARTESIAN COORDINATES (ANGSTROEM)
---------------------------------
  S     55.213000   14.575900   56.158900
  C     54.822700   16.121300   55.498700
  C     55.852800   17.085400   55.812100
  C     56.928400   16.439900   56.422800
  C     56.778000   15.070800   56.610000
  H     57.890900   16.948200   56.703600
  C     55.791300   18.630600   55.519400
  H     54.807800   19.011900   55.359200
  H     56.318200   18.838900   54.623600
  C     56.409400   19.545300   56.636700
  H     55.794600   19.333500   57.551600
  H     57.397700   19.326600   56.936400
  C     56.332600   21.101700   56.332200
  H     56.936900   21.596100   57.112200
  H     56.823300   21.409100   55.416900
  H     55.282800   21.520000   56.372200
  S     57.538000   13.488500   58.834300
  C     59.031100   12.560700   58.624300
  C     59.770800   12.895200   57.504700
  C     59.024200   13.775400   56.683700
  C     57.772700   14.106600   57.169800
  H     60.747300   12.437000   57.461800
  C     59.645900   14.231700   55.384500
  H     60.706700   14.247700   55.430800
  H     59.394200   15.267900   55.308000
  C     59.330600   13.464800   54.109000
  H     59.537400   12.436300   54.183900
  H     60.001500   13.793200   53.334200
  C     57.813200   13.495900   53.842200
  H     57.394700   14.481800   53.763700
  H     57.379800   12.894800   54.640900
  H     57.509700   13.036600   52.916000
  H     53.923300   16.482100   55.053800
  H     59.323600   11.722500   59.258300

 Total Charge           Charge          ....    0
 Multiplicity           Mult            ....    1
 Number of Electrons    NEL             ....  134
 Basis Dimension        Dim             ....  322

ORBITAL ENERGIES
----------------

  NO   OCC          E(Eh)            E(eV)
   0   2.0000     -88.971645     -2421.0416
   1   2.0000     -88.966352     -2420.8975
   2   2.0000     -10.329016      -281.0668
   3   2.0000     -10.326076      -280.9868
   4   2.0000     -10.317564      -280.7552
   5   2.0000     -10.315600      -280.7018
   6   2.0000     -10.307237      -280.4742
   7   2.0000     -10.303420      -280.3703
   8   2.0000     -10.295526      -280.1555
   9   2.0000     -10.294815      -280.1362
  10   2.0000     -10.293046      -280.0880
  11   2.0000     -10.292248      -280.0663
  12   2.0000     -10.288399      -279.9616
  13   2.0000     -10.279275      -279.7133
  14   2.0000     -10.275091      -279.5994
  15   2.0000     -10.261887      -279.2401
  16   2.0000      -8.086623      -220.0482
  17   2.0000      -8.080198      -219.8734
  18   2.0000      -6.044843      -164.4885
  19   2.0000      -6.040887      -164.3809
  20   2.0000      -6.038663      -164.3204
  21   2.0000      -6.037882      -164.2991
  22   2.0000      -6.035078      -164.2228
  23   2.0000      -6.030828      -164.1072
  24   2.0000      -1.006133       -27.3783
  25   2.0000      -0.983325       -26.7576
  26   2.0000      -0.908006       -24.7081
  27   2.0000      -0.901233       -24.5238
  28   2.0000      -0.861486       -23.4422
  29   2.0000      -0.847734       -23.0680
  30   2.0000      -0.844031       -22.9672
  31   2.0000      -0.809791       -22.0355
  32   2.0000      -0.784764       -21.3545
  33   2.0000      -0.771768       -21.0009
  34   2.0000      -0.707861       -19.2619
  35   2.0000      -0.699230       -19.0270
  36   2.0000      -0.688678       -18.7399
  37   2.0000      -0.656297       -17.8587
  38   2.0000      -0.640910       -17.4400
  39   2.0000      -0.619636       -16.8611
  40   2.0000      -0.595042       -16.1919
  41   2.0000      -0.570949       -15.5363
  42   2.0000      -0.561996       -15.2927
  43   2.0000      -0.547197       -14.8900
  44   2.0000      -0.537892       -14.6368
  45   2.0000      -0.520666       -14.1680
  46   2.0000      -0.509932       -13.8760
  47   2.0000      -0.507949       -13.8220
  48   2.0000      -0.498890       -13.5755
  49   2.0000      -0.495133       -13.4732
  50   2.0000      -0.491699       -13.3798
  51   2.0000      -0.472682       -12.8623
  52   2.0000      -0.468163       -12.7394
  53   2.0000      -0.463050       -12.6002
  54   2.0000      -0.459493       -12.5034
  55   2.0000      -0.450748       -12.2655
  56   2.0000      -0.445428       -12.1207
  57   2.0000      -0.435698       -11.8559
  58   2.0000      -0.429061       -11.6753
  59   2.0000      -0.424828       -11.5602
  60   2.0000      -0.421049       -11.4573
  61   2.0000      -0.418076       -11.3764
  62   2.0000      -0.407369       -11.0851
  63   2.0000      -0.338595        -9.2136
  64   2.0000      -0.332849        -9.0573
  65   2.0000      -0.324287        -8.8243
  66   2.0000      -0.298811        -8.1311
  67   0.0000       0.034633         0.9424
  68   0.0000       0.057681         1.5696
  69   0.0000       0.105787         2.8786
  70   0.0000       0.123282         3.3547
  71   0.0000       0.131690         3.5835

MULLIKEN ATOMIC CHARGES
-----------------------
   0 S :    0.152905
   1 C :   -0.106266
   2 C :   -0.108381
   3 C :    0.032302
   4 C :   -0.207981
   5 H :    0.031844
   6 C :    0.113572
   7 H :    0.013094
   8 H :    0.027559
   9 C :   -0.115271
  10 H :    0.040496
  11 H :    0.026000
  12 C :   -0.077883
  13 H :    0.036118
  14 H :    0.033225
  15 H :    0.048993
  16 S :    0.106820
  17 C :   -0.107543
  18 C :   -0.037076
  19 C :   -0.035603
  20 C :   -0.153141
  21 H :    0.024778
  22 C :    0.111545
  23 H :    0.001885
  24 H :    0.007156
  25 C :   -0.021971
  26 H :    0.006625
  27 H :    0.021145
  28 C :   -0.045230
  29 H :    0.031902
  30 H :    0.038260
  31 H :    0.018069
  32 H :    0.033163
  33 H :    0.058890
Sum of atomic charges:    0.0000000

LOEWDIN ATOMIC CHARGES
----------------------
   0 S :    0.464963
   1 C :   -0.213088
   2 C :   -0.060026
   3 C :   -0.070852
   4 C :   -0.220920
   5 H :    0.038904
   6 C :   -0.023504
   7 H :    0.025678
   8 H :    0.025604
   9 C :   -0.039124
  10 H :    0.031495
  11 H :    0.013323
  12 C :   -0.072162
  13 H :    0.030922
  14 H :    0.021521
  15 H :    0.031868
  16 S :    0.378046
  17 C :   -0.172240
  18 C :   -0.071356
  19 C :   -0.048957
  20 C :   -0.195584
  21 H :    0.038053
  22 C :   -0.027767
  23 H :    0.025633
  24 H :    0.026110
  25 C :   -0.030721
  26 H :    0.018052
  27 H :    0.020856
  28 C :   -0.063374
  29 H :    0.020892
  30 H :    0.025943
  31 H :    0.020281
  32 H :    0.022951
  33 H :    0.028580

  Mayer bond orders larger than 0.100000
B(  0-S ,  1-C ) :   1.1816 B(  0-S ,  4-C ) :   1.1940 B(  1-C ,  2-C ) :   1.5409
B(  1-C ,  4-C ) :   0.1178 B(  1-C , 32-H ) :   0.9724 B(  2-C ,  3-C ) :   1.3160
B(  2-C ,  6-C ) :   1.0092 B(  3-C ,  4-C ) :   1.5290 B(  3-C ,  5-H ) :   0.9820
B(  4-C , 20-C ) :   1.0044 B(  6-C ,  7-H ) :   0.9474 B(  6-C ,  8-H ) :   0.9397
B(  6-C ,  9-C ) :   1.0551 B(  9-C , 10-H ) :   0.9602 B(  9-C , 11-H ) :   0.9588
B(  9-C , 12-C ) :   1.0784 B( 12-C , 13-H ) :   0.9756 B( 12-C , 14-H ) :   0.9767
B( 12-C , 15-H ) :   0.9771 B( 16-S , 17-C ) :   1.1530 B( 16-S , 20-C ) :   1.1275
B( 17-C , 18-C ) :   1.6379 B( 17-C , 33-H ) :   0.9605 B( 18-C , 19-C ) :   1.2090
B( 18-C , 21-H ) :   0.9968 B( 19-C , 20-C ) :   1.6217 B( 19-C , 22-C ) :   1.0368
B( 22-C , 23-H ) :   0.9288 B( 22-C , 24-H ) :   0.9242 B( 22-C , 25-C ) :   1.0832
B( 25-C , 26-H ) :   0.9520 B( 25-C , 27-H ) :   0.9546 B( 25-C , 28-C ) :   1.0753
B( 28-C , 29-H ) :   0.9763 B( 28-C , 30-H ) :   0.9705 B( 28-C , 31-H ) :   0.9730

Dispersion correction           -0.015492062
FINAL SINGLE POINT ENERGY     -1339.866656681650

DIPOLE MOMENT
-------------
                                X             Y             Z
Electronic contribution:     -6.16188     -18.54948      13.74529
Nuclear contribution   :      6.55481      18.91787     -13.99258
                        -----------------------------------------
Total Dipole Moment    :      0.39293       0.36838      -0.24729
                        -----------------------------------------
Magnitude (a.u.)       :      0.59267
Magnitude (Debye)      :      1.50644

Rotational constants in cm-1:     0.019692     0.007957     0.007581
Rotational constants in MHz :   590.358293   238.557389   227.261926

                             ****ORCA TERMINATED NORMALLY****
TOTAL RUN TIME: 0 days 0 hours 0 minutes 31 seconds 345 msec
