                         Program Version 4.2.1 -  RELEASE  -
|  1> ! wB97X-D3 SP def2-SVP
|  2> %pal
|  3> nprocs 16
|  4> end
|  5>
|  6> * xyz 0 1
|  7> S 	 -30.5524 	 75.5331 	 161.802
|  8> C 	 -29.3117 	 74.6287 	 160.914
|  9> C 	 -29.8221 	 73.7222 	 159.992
| 10> C 	 -31.2658 	 73.7608 	 159.971
| 11> C 	 -31.8395 	 74.5979 	 160.951
| 12> H 	 -31.8905 	 73.1845 	 159.3
| 13> C 	 -28.9338 	 72.9698 	 158.995
| 14> H 	 -29.4787 	 72.1331 	 158.483
| 15> H 	 -28.0356 	 72.5434 	 159.539
| 16> C 	 -28.4574 	 73.8357 	 157.906
| 17> H 	 -29.3501 	 74.3219 	 157.579
| 18> H 	 -27.7709 	 74.5388 	 158.346
| 19> C 	 -27.8625 	 73.0597 	 156.655
| 20> H 	 -27.484 	 73.7732 	 155.897
| 21> H 	 -27.0589 	 72.3528 	 156.828
| 22> H 	 -28.7138 	 72.6599 	 156.094
| 23> S 	 -33.9317 	 76.3826 	 161.15
| 24> C 	 -35.506 	 75.7702 	 161.575
| 25> C 	 -35.5145 	 74.4301 	 161.728
| 26> C 	 -34.2293 	 73.8702 	 161.522
| 27> C 	 -33.2616 	 74.7639 	 161.192
| 28> H 	 -36.4568 	 73.9768 	 161.911
| 29> C 	 -33.9906 	 72.3267 	 161.539
| 30> H 	 -33.183 	 72.1076 	 162.27
| 31> H 	 -33.7555 	 72.0248 	 160.532
| 32> C 	 -35.1028 	 71.4159 	 161.98
| 33> H 	 -34.8 	 70.4114 	 161.728
| 34> H 	 -36.0086 	 71.7323 	 161.418
| 35> C 	 -35.5659 	 71.5175 	 163.46
| 36> H 	 -36.3083 	 70.692 	 163.614
| 37> H 	 -36.1093 	 72.401 	 163.836
| 38> H 	 -34.7848 	 71.3823 	 164.216
| 39> H 	 -28.2586 	 74.7049 	 161.138
| 40> H 	 -36.3599 	 76.4646 	 161.706
| 41> *
| 42>
| 43>                          ****END OF INPUT****

CARTESIAN COORDINATES (ANGSTROEM)
---------------------------------
  S    -30.552400   75.533100  161.802000
  C    -29.311700   74.628700  160.914000
  C    -29.822100   73.722200  159.992000
  C    -31.265800   73.760800  159.971000
  C    -31.839500   74.597900  160.951000
  H    -31.890500   73.184500  159.300000
  C    -28.933800   72.969800  158.995000
  H    -29.478700   72.133100  158.483000
  H    -28.035600   72.543400  159.539000
  C    -28.457400   73.835700  157.906000
  H    -29.350100   74.321900  157.579000
  H    -27.770900   74.538800  158.346000
  C    -27.862500   73.059700  156.655000
  H    -27.484000   73.773200  155.897000
  H    -27.058900   72.352800  156.828000
  H    -28.713800   72.659900  156.094000
  S    -33.931700   76.382600  161.150000
  C    -35.506000   75.770200  161.575000
  C    -35.514500   74.430100  161.728000
  C    -34.229300   73.870200  161.522000
  C    -33.261600   74.763900  161.192000
  H    -36.456800   73.976800  161.911000
  C    -33.990600   72.326700  161.539000
  H    -33.183000   72.107600  162.270000
  H    -33.755500   72.024800  160.532000
  C    -35.102800   71.415900  161.980000
  H    -34.800000   70.411400  161.728000
  H    -36.008600   71.732300  161.418000
  C    -35.565900   71.517500  163.460000
  H    -36.308300   70.692000  163.614000
  H    -36.109300   72.401000  163.836000
  H    -34.784800   71.382300  164.216000
  H    -28.258600   74.704900  161.138000
  H    -36.359900   76.464600  161.706000

 Total Charge           Charge          ....    0
 Multiplicity           Mult            ....    1
 Number of Electrons    NEL             ....  134
 Basis Dimension        Dim             ....  322

ORBITAL ENERGIES
----------------

  NO   OCC          E(Eh)            E(eV)
   0   2.0000     -88.969861     -2420.9930
   1   2.0000     -88.961055     -2420.7534
   2   2.0000     -10.335891      -281.2539
   3   2.0000     -10.321514      -280.8627
   4   2.0000     -10.317367      -280.7498
   5   2.0000     -10.316046      -280.7139
   6   2.0000     -10.305752      -280.4338
   7   2.0000     -10.301843      -280.3274
   8   2.0000     -10.301307      -280.3128
   9   2.0000     -10.296314      -280.1769
  10   2.0000     -10.289801      -279.9997
  11   2.0000     -10.289388      -279.9885
  12   2.0000     -10.288574      -279.9663
  13   2.0000     -10.284096      -279.8445
  14   2.0000     -10.281738      -279.7803
  15   2.0000     -10.281486      -279.7735
  16   2.0000      -8.083153      -219.9538
  17   2.0000      -8.076463      -219.7717
  18   2.0000      -6.041844      -164.4069
  19   2.0000      -6.037879      -164.2991
  20   2.0000      -6.034891      -164.2177
  21   2.0000      -6.033808      -164.1883
  22   2.0000      -6.030928      -164.1099
  23   2.0000      -6.027224      -164.0091
  24   2.0000      -1.006635       -27.3919
  25   2.0000      -0.979042       -26.6411
  26   2.0000      -0.915930       -24.9237
  27   2.0000      -0.907988       -24.7076
  28   2.0000      -0.870670       -23.6921
  29   2.0000      -0.846208       -23.0265
  30   2.0000      -0.840002       -22.8576
  31   2.0000      -0.813669       -22.1411
  32   2.0000      -0.785137       -21.3647
  33   2.0000      -0.774231       -21.0679
  34   2.0000      -0.705393       -19.1947
  35   2.0000      -0.696186       -18.9442
  36   2.0000      -0.691082       -18.8053
  37   2.0000      -0.657169       -17.8825
  38   2.0000      -0.639717       -17.4076
  39   2.0000      -0.618053       -16.8181
  40   2.0000      -0.599739       -16.3197
  41   2.0000      -0.576338       -15.6830
  42   2.0000      -0.567692       -15.4477
  43   2.0000      -0.557302       -15.1650
  44   2.0000      -0.535007       -14.5583
  45   2.0000      -0.519534       -14.1372
  46   2.0000      -0.515498       -14.0274
  47   2.0000      -0.510030       -13.8786
  48   2.0000      -0.501817       -13.6551
  49   2.0000      -0.497445       -13.5362
  50   2.0000      -0.493442       -13.4272
  51   2.0000      -0.480866       -13.0850
  52   2.0000      -0.468659       -12.7529
  53   2.0000      -0.464574       -12.6417
  54   2.0000      -0.456704       -12.4275
  55   2.0000      -0.451291       -12.2802
  56   2.0000      -0.441484       -12.0134
  57   2.0000      -0.432565       -11.7707
  58   2.0000      -0.429198       -11.6791
  59   2.0000      -0.422722       -11.5029
  60   2.0000      -0.419602       -11.4180
  61   2.0000      -0.417833       -11.3698
  62   2.0000      -0.410298       -11.1648
  63   2.0000      -0.345756        -9.4085
  64   2.0000      -0.332837        -9.0570
  65   2.0000      -0.331939        -9.0325
  66   2.0000      -0.293384        -7.9834
  67   0.0000       0.029333         0.7982
  68   0.0000       0.065619         1.7856
  69   0.0000       0.109099         2.9687
  70   0.0000       0.124963         3.4004
  71   0.0000       0.136111         3.7038

MULLIKEN ATOMIC CHARGES
-----------------------
   0 S :    0.113837
   1 C :   -0.128189
   2 C :   -0.070034
   3 C :    0.029781
   4 C :   -0.152668
   5 H :    0.015390
   6 C :    0.036635
   7 H :    0.021439
   8 H :    0.035703
   9 C :   -0.054023
  10 H :    0.023050
  11 H :    0.025025
  12 C :   -0.058330
  13 H :    0.032777
  14 H :    0.042427
  15 H :    0.031025
  16 S :    0.096029
  17 C :   -0.103354
  18 C :   -0.030311
  19 C :   -0.023827
  20 C :   -0.171854
  21 H :    0.008324
  22 C :    0.083959
  23 H :    0.040814
  24 H :    0.034416
  25 C :   -0.066859
  26 H :    0.034989
  27 H :    0.025835
  28 C :   -0.092253
  29 H :    0.035072
  30 H :    0.038413
  31 H :    0.030001
  32 H :    0.050582
  33 H :    0.066178
Sum of atomic charges:   -0.0000000

LOEWDIN ATOMIC CHARGES
----------------------
   0 S :    0.379032
   1 C :   -0.185649
   2 C :   -0.061748
   3 C :   -0.053161
   4 C :   -0.177833
   5 H :    0.029761
   6 C :   -0.037926
   7 H :    0.030448
   8 H :    0.033997
   9 C :   -0.038434
  10 H :    0.024416
  11 H :    0.019159
  12 C :   -0.071404
  13 H :    0.031415
  14 H :    0.023885
  15 H :    0.027966
  16 S :    0.399256
  17 C :   -0.178935
  18 C :   -0.077310
  19 C :   -0.052788
  20 C :   -0.203563
  21 H :    0.030132
  22 C :   -0.031038
  23 H :    0.038164
  24 H :    0.029252
  25 C :   -0.043173
  26 H :    0.029341
  27 H :    0.025517
  28 C :   -0.080174
  29 H :    0.031786
  30 H :    0.026614
  31 H :    0.022370
  32 H :    0.025991
  33 H :    0.034635

  Mayer bond orders larger than 0.100000
B(  0-S ,  1-C ) :   1.1357 B(  0-S ,  4-C ) :   1.1323 B(  1-C ,  2-C ) :   1.6099
B(  1-C , 32-H ) :   0.9654 B(  2-C ,  3-C ) :   1.2391 B(  2-C ,  6-C ) :   1.0300
B(  3-C ,  4-C ) :   1.5752 B(  3-C ,  5-H ) :   0.9887 B(  4-C , 20-C ) :   1.0595
B(  6-C ,  7-H ) :   0.9435 B(  6-C ,  8-H ) :   0.9358 B(  6-C ,  9-C ) :   1.0662
B(  9-C , 10-H ) :   0.9536 B(  9-C , 11-H ) :   0.9564 B(  9-C , 12-C ) :   1.0776
B( 12-C , 13-H ) :   0.9740 B( 12-C , 14-H ) :   0.9780 B( 12-C , 15-H ) :   0.9729
B( 16-S , 17-C ) :   1.1621 B( 16-S , 20-C ) :   1.1303 B( 17-C , 18-C ) :   1.6184
B( 17-C , 33-H ) :   0.9586 B( 18-C , 19-C ) :   1.2232 B( 18-C , 21-H ) :   0.9985
B( 19-C , 20-C ) :   1.6387 B( 19-C , 22-C ) :   1.0088 B( 22-C , 23-H ) :   0.9285
B( 22-C , 24-H ) :   0.9380 B( 22-C , 25-C ) :   1.1018 B( 25-C , 26-H ) :   0.9516
B( 25-C , 27-H ) :   0.9446 B( 25-C , 28-C ) :   1.0715 B( 28-C , 29-H ) :   0.9749
B( 28-C , 30-H ) :   0.9754 B( 28-C , 31-H ) :   0.9744

Dispersion correction           -0.013755866
FINAL SINGLE POINT ENERGY     -1339.879289429324

DIPOLE MOMENT
-------------
                                X             Y             Z
Electronic contribution:     -3.46111      21.62668       9.06017
Nuclear contribution   :      3.37475     -22.17347      -9.34972
                        -----------------------------------------
Total Dipole Moment    :     -0.08636      -0.54679      -0.28955
                        -----------------------------------------
Magnitude (a.u.)       :      0.62472
Magnitude (Debye)      :      1.58791

Rotational constants in cm-1:     0.020891     0.007121     0.006152
Rotational constants in MHz :   626.303477   213.477339   184.443224

                             ****ORCA TERMINATED NORMALLY****
TOTAL RUN TIME: 0 days 0 hours 0 minutes 32 seconds 822 msec
