                         Program Version 4.2.1 -  RELEASE  -
|  1> ! wB97X-D3 SP def2-SVP
|  2> %pal
|  3> nprocs 16
|  4> end
|  5>
|  6> * xyz 0 1
|  7> S 	 -48.7553 	 64.9449 	 136.433
|  8> C 	 -48.2322 	 63.4559 	 135.508
|  9> C 	 -48.284 	 62.435 	 136.421
| 10> C 	 -48.431 	 62.8357 	 137.824
| 11> C 	 -48.6052 	 64.1914 	 138.028
| 12> H 	 -48.415 	 62.1356 	 138.675
| 13> C 	 -48.057 	 60.9215 	 136.107
| 14> H 	 -47.7316 	 60.4958 	 137.022
| 15> H 	 -47.206 	 61.0299 	 135.452
| 16> C 	 -49.1959 	 60.2385 	 135.352
| 17> H 	 -50.0317 	 59.9939 	 135.952
| 18> H 	 -49.4882 	 60.8095 	 134.514
| 19> C 	 -48.6799 	 58.9273 	 134.795
| 20> H 	 -48.1478 	 58.2403 	 135.583
| 21> H 	 -49.4649 	 58.3844 	 134.34
| 22> H 	 -47.8552 	 59.0104 	 134.09
| 23> S 	 -50.034 	 65.7914 	 139.513
| 24> C 	 -49.5194 	 66.2309 	 141.128
| 25> C 	 -48.3148 	 65.6338 	 141.455
| 26> C 	 -47.7857 	 64.9316 	 140.324
| 27> C 	 -48.5984 	 64.9185 	 139.234
| 28> H 	 -47.9072 	 65.822 	 142.487
| 29> C 	 -46.4524 	 64.1645 	 140.475
| 30> H 	 -45.771 	 64.9992 	 140.144
| 31> H 	 -46.4461 	 63.2779 	 139.828
| 32> C 	 -45.8511 	 63.8095 	 141.883
| 33> H 	 -46.2744 	 62.8424 	 142.189
| 34> H 	 -46.0338 	 64.5668 	 142.718
| 35> C 	 -44.2591 	 63.6343 	 142.022
| 36> H 	 -44.0547 	 63.3302 	 143.071
| 37> H 	 -43.707 	 64.4754 	 141.826
| 38> H 	 -43.7722 	 62.8636 	 141.35
| 39> H 	 -48.2537 	 63.3046 	 134.436
| 40> H 	 -49.9472 	 67.0283 	 141.76
| 41> *
| 42>
| 43>                          ****END OF INPUT****

CARTESIAN COORDINATES (ANGSTROEM)
---------------------------------
  S    -48.755300   64.944900  136.433000
  C    -48.232200   63.455900  135.508000
  C    -48.284000   62.435000  136.421000
  C    -48.431000   62.835700  137.824000
  C    -48.605200   64.191400  138.028000
  H    -48.415000   62.135600  138.675000
  C    -48.057000   60.921500  136.107000
  H    -47.731600   60.495800  137.022000
  H    -47.206000   61.029900  135.452000
  C    -49.195900   60.238500  135.352000
  H    -50.031700   59.993900  135.952000
  H    -49.488200   60.809500  134.514000
  C    -48.679900   58.927300  134.795000
  H    -48.147800   58.240300  135.583000
  H    -49.464900   58.384400  134.340000
  H    -47.855200   59.010400  134.090000
  S    -50.034000   65.791400  139.513000
  C    -49.519400   66.230900  141.128000
  C    -48.314800   65.633800  141.455000
  C    -47.785700   64.931600  140.324000
  C    -48.598400   64.918500  139.234000
  H    -47.907200   65.822000  142.487000
  C    -46.452400   64.164500  140.475000
  H    -45.771000   64.999200  140.144000
  H    -46.446100   63.277900  139.828000
  C    -45.851100   63.809500  141.883000
  H    -46.274400   62.842400  142.189000
  H    -46.033800   64.566800  142.718000
  C    -44.259100   63.634300  142.022000
  H    -44.054700   63.330200  143.071000
  H    -43.707000   64.475400  141.826000
  H    -43.772200   62.863600  141.350000
  H    -48.253700   63.304600  134.436000
  H    -49.947200   67.028300  141.760000

 Total Charge           Charge          ....    0
 Multiplicity           Mult            ....    1
 Number of Electrons    NEL             ....  134
 Basis Dimension        Dim             ....  322

ORBITAL ENERGIES
----------------

  NO   OCC          E(Eh)            E(eV)
   0   2.0000     -88.963923     -2420.8314
   1   2.0000     -88.959870     -2420.7211
   2   2.0000     -10.330173      -281.0983
   3   2.0000     -10.319917      -280.8192
   4   2.0000     -10.318817      -280.7893
   5   2.0000     -10.317851      -280.7630
   6   2.0000     -10.308223      -280.5010
   7   2.0000     -10.305252      -280.4202
   8   2.0000     -10.304100      -280.3888
   9   2.0000     -10.300830      -280.2998
  10   2.0000     -10.299043      -280.2512
  11   2.0000     -10.297878      -280.2195
  12   2.0000     -10.290558      -280.0203
  13   2.0000     -10.284177      -279.8467
  14   2.0000     -10.282991      -279.8144
  15   2.0000     -10.280120      -279.7363
  16   2.0000      -8.079766      -219.8616
  17   2.0000      -8.073461      -219.6900
  18   2.0000      -6.038268      -164.3096
  19   2.0000      -6.034046      -164.1947
  20   2.0000      -6.032386      -164.1496
  21   2.0000      -6.030513      -164.0986
  22   2.0000      -6.028140      -164.0340
  23   2.0000      -6.023786      -163.9156
  24   2.0000      -1.013786       -27.5865
  25   2.0000      -0.978560       -26.6280
  26   2.0000      -0.915599       -24.9147
  27   2.0000      -0.896716       -24.4009
  28   2.0000      -0.877787       -23.8858
  29   2.0000      -0.847501       -23.0617
  30   2.0000      -0.838796       -22.8248
  31   2.0000      -0.815816       -22.1995
  32   2.0000      -0.779779       -21.2189
  33   2.0000      -0.772025       -21.0079
  34   2.0000      -0.711544       -19.3621
  35   2.0000      -0.708117       -19.2688
  36   2.0000      -0.696286       -18.9469
  37   2.0000      -0.658858       -17.9284
  38   2.0000      -0.637392       -17.3443
  39   2.0000      -0.615350       -16.7445
  40   2.0000      -0.590171       -16.0594
  41   2.0000      -0.575174       -15.6513
  42   2.0000      -0.562832       -15.3154
  43   2.0000      -0.559834       -15.2338
  44   2.0000      -0.531442       -14.4613
  45   2.0000      -0.522711       -14.2237
  46   2.0000      -0.518079       -14.0977
  47   2.0000      -0.515458       -14.0263
  48   2.0000      -0.506541       -13.7837
  49   2.0000      -0.504375       -13.7247
  50   2.0000      -0.498146       -13.5553
  51   2.0000      -0.475691       -12.9442
  52   2.0000      -0.467791       -12.7292
  53   2.0000      -0.463443       -12.6109
  54   2.0000      -0.460090       -12.5197
  55   2.0000      -0.453404       -12.3378
  56   2.0000      -0.441847       -12.0233
  57   2.0000      -0.436135       -11.8678
  58   2.0000      -0.429961       -11.6998
  59   2.0000      -0.426398       -11.6029
  60   2.0000      -0.422969       -11.5096
  61   2.0000      -0.406617       -11.0646
  62   2.0000      -0.401147       -10.9158
  63   2.0000      -0.346064        -9.4169
  64   2.0000      -0.328080        -8.9275
  65   2.0000      -0.322948        -8.7879
  66   2.0000      -0.299100        -8.1389
  67   0.0000       0.027802         0.7565
  68   0.0000       0.065943         1.7944
  69   0.0000       0.104182         2.8349
  70   0.0000       0.122562         3.3351
  71   0.0000       0.130609         3.5540

MULLIKEN ATOMIC CHARGES
-----------------------
   0 S :    0.079286
   1 C :   -0.111516
   2 C :   -0.123284
   3 C :    0.025043
   4 C :   -0.143678
   5 H :    0.023403
   6 C :    0.066165
   7 H :    0.012240
   8 H :    0.025456
   9 C :    0.008465
  10 H :    0.029815
  11 H :    0.018456
  12 C :   -0.080093
  13 H :    0.030275
  14 H :    0.030063
  15 H :    0.023263
  16 S :    0.112671
  17 C :   -0.097478
  18 C :   -0.079481
  19 C :   -0.020934
  20 C :   -0.151890
  21 H :    0.046172
  22 C :    0.064541
  23 H :    0.050065
  24 H :    0.040416
  25 C :   -0.108880
  26 H :    0.037827
  27 H :    0.043862
  28 C :   -0.067370
  29 H :    0.038722
  30 H :    0.019664
  31 H :    0.035814
  32 H :    0.056606
  33 H :    0.066317
Sum of atomic charges:   -0.0000000

LOEWDIN ATOMIC CHARGES
----------------------
   0 S :    0.358213
   1 C :   -0.181123
   2 C :   -0.056772
   3 C :   -0.071409
   4 C :   -0.186418
   5 H :    0.032465
   6 C :   -0.022561
   7 H :    0.023130
   8 H :    0.033170
   9 C :   -0.028455
  10 H :    0.024448
  11 H :    0.022577
  12 C :   -0.069198
  13 H :    0.032415
  14 H :    0.018186
  15 H :    0.020024
  16 S :    0.430465
  17 C :   -0.188167
  18 C :   -0.080874
  19 C :   -0.052293
  20 C :   -0.224729
  21 H :    0.044239
  22 C :   -0.038743
  23 H :    0.047923
  24 H :    0.031855
  25 C :   -0.044713
  26 H :    0.023437
  27 H :    0.030892
  28 C :   -0.066718
  29 H :    0.032351
  30 H :    0.008719
  31 H :    0.028908
  32 H :    0.032662
  33 H :    0.036095

  Mayer bond orders larger than 0.100000
B(  0-S ,  1-C ) :   1.0942 B(  0-S ,  4-C ) :   1.1305 B(  1-C ,  2-C ) :   1.6505
B(  1-C ,  4-C ) :   0.1004 B(  1-C , 32-H ) :   0.9699 B(  2-C ,  3-C ) :   1.2114
B(  2-C ,  6-C ) :   0.9961 B(  3-C ,  4-C ) :   1.5972 B(  3-C ,  5-H ) :   0.9873
B(  4-C , 20-C ) :   1.0360 B(  6-C ,  7-H ) :   0.9452 B(  6-C ,  8-H ) :   0.9471
B(  6-C ,  9-C ) :   1.0699 B(  9-C , 10-H ) :   0.9539 B(  9-C , 11-H ) :   0.9519
B(  9-C , 12-C ) :   1.0836 B( 12-C , 13-H ) :   0.9718 B( 12-C , 14-H ) :   0.9743
B( 12-C , 15-H ) :   0.9759 B( 16-S , 17-C ) :   1.1643 B( 16-S , 20-C ) :   1.1436
B( 17-C , 18-C ) :   1.6204 B( 17-C , 20-C ) :   0.1001 B( 17-C , 33-H ) :   0.9596
B( 18-C , 19-C ) :   1.2308 B( 18-C , 21-H ) :   0.9806 B( 19-C , 20-C ) :   1.6184
B( 19-C , 22-C ) :   1.0130 B( 22-C , 23-H ) :   0.9313 B( 22-C , 24-H ) :   0.9448
B( 22-C , 25-C ) :   1.0556 B( 25-C , 26-H ) :   0.9602 B( 25-C , 27-H ) :   0.9520
B( 25-C , 28-C ) :   1.0696 B( 28-C , 29-H ) :   0.9762 B( 28-C , 30-H ) :   0.9783
B( 28-C , 31-H ) :   0.9779

Dispersion correction           -0.013095181
FINAL SINGLE POINT ENERGY     -1339.840227805996

DIPOLE MOMENT
-------------
                                X             Y             Z
Electronic contribution:    -16.08409      23.20764      -2.87036
Nuclear contribution   :     16.43509     -23.74981       3.16669
                        -----------------------------------------
Total Dipole Moment    :      0.35100      -0.54216       0.29634
                        -----------------------------------------
Magnitude (a.u.)       :      0.71060
Magnitude (Debye)      :      1.80621

Rotational constants in cm-1:     0.017781     0.007511     0.005887
Rotational constants in MHz :   533.071610   225.186934   176.490354

                             ****ORCA TERMINATED NORMALLY****
TOTAL RUN TIME: 0 days 0 hours 0 minutes 32 seconds 999 msec
