                         Program Version 4.2.1 -  RELEASE  -
|  1> ! wB97X-D3 SP def2-SVP
|  2> %pal
|  3> nprocs 16
|  4> end
|  5>
|  6> * xyz 0 1
|  7> S 	 -5.35399 	 -11.7001 	 83.378
|  8> C 	 -4.97746 	 -10.0248 	 82.9656
|  9> C 	 -5.50216 	 -9.13342 	 83.9214
| 10> C 	 -6.35965 	 -9.82682 	 84.876
| 11> C 	 -6.41018 	 -11.2091 	 84.6461
| 12> H 	 -6.87424 	 -9.37043 	 85.6849
| 13> C 	 -5.48311 	 -7.61412 	 83.9943
| 14> H 	 -4.6408 	 -7.38442 	 83.3392
| 15> H 	 -5.30567 	 -7.37987 	 85.0579
| 16> C 	 -6.66689 	 -6.95781 	 83.2832
| 17> H 	 -6.75969 	 -7.3133 	 82.2418
| 18> H 	 -7.50811 	 -7.29958 	 83.9061
| 19> C 	 -6.60042 	 -5.39677 	 83.2539
| 20> H 	 -5.79421 	 -5.06745 	 82.5798
| 21> H 	 -7.49445 	 -4.99128 	 82.77
| 22> H 	 -6.39246 	 -4.90342 	 84.2483
| 23> S 	 -6.4202 	 -13.5224 	 86.1147
| 24> C 	 -7.87201 	 -14.0126 	 86.9425
| 25> C 	 -8.96784 	 -13.21 	 86.6738
| 26> C 	 -8.58331 	 -12.0923 	 85.8671
| 27> C 	 -7.22884 	 -12.1763 	 85.379
| 28> H 	 -9.93283 	 -13.3811 	 87.1581
| 29> C 	 -9.59631 	 -11.1196 	 85.3327
| 30> H 	 -8.99393 	 -10.2703 	 85.0102
| 31> H 	 -10.1729 	 -10.7937 	 86.164
| 32> C 	 -10.441 	 -11.6229 	 84.1957
| 33> H 	 -11.0283 	 -12.4669 	 84.4109
| 34> H 	 -9.78895 	 -11.9579 	 83.3906
| 35> C 	 -11.4791 	 -10.6017 	 83.8368
| 36> H 	 -12.0231 	 -10.944 	 82.8834
| 37> H 	 -11.1055 	 -9.54092 	 83.8179
| 38> H 	 -12.2909 	 -10.6015 	 84.5562
| 39> H 	 -4.45836 	 -9.64747 	 82.0718
| 40> H 	 -7.96594 	 -14.8215 	 87.6189
| 41> *
| 42>
| 43>                          ****END OF INPUT****

CARTESIAN COORDINATES (ANGSTROEM)
---------------------------------
  S     -5.353990  -11.700100   83.378000
  C     -4.977460  -10.024800   82.965600
  C     -5.502160   -9.133420   83.921400
  C     -6.359650   -9.826820   84.876000
  C     -6.410180  -11.209100   84.646100
  H     -6.874240   -9.370430   85.684900
  C     -5.483110   -7.614120   83.994300
  H     -4.640800   -7.384420   83.339200
  H     -5.305670   -7.379870   85.057900
  C     -6.666890   -6.957810   83.283200
  H     -6.759690   -7.313300   82.241800
  H     -7.508110   -7.299580   83.906100
  C     -6.600420   -5.396770   83.253900
  H     -5.794210   -5.067450   82.579800
  H     -7.494450   -4.991280   82.770000
  H     -6.392460   -4.903420   84.248300
  S     -6.420200  -13.522400   86.114700
  C     -7.872010  -14.012600   86.942500
  C     -8.967840  -13.210000   86.673800
  C     -8.583310  -12.092300   85.867100
  C     -7.228840  -12.176300   85.379000
  H     -9.932830  -13.381100   87.158100
  C     -9.596310  -11.119600   85.332700
  H     -8.993930  -10.270300   85.010200
  H    -10.172900  -10.793700   86.164000
  C    -10.441000  -11.622900   84.195700
  H    -11.028300  -12.466900   84.410900
  H     -9.788950  -11.957900   83.390600
  C    -11.479100  -10.601700   83.836800
  H    -12.023100  -10.944000   82.883400
  H    -11.105500   -9.540920   83.817900
  H    -12.290900  -10.601500   84.556200
  H     -4.458360   -9.647470   82.071800
  H     -7.965940  -14.821500   87.618900

 Total Charge           Charge          ....    0
 Multiplicity           Mult            ....    1
 Number of Electrons    NEL             ....  134
 Basis Dimension        Dim             ....  322

ORBITAL ENERGIES
----------------

  NO   OCC          E(Eh)            E(eV)
   0   2.0000     -88.970113     -2420.9999
   1   2.0000     -88.968318     -2420.9510
   2   2.0000     -10.331200      -281.1262
   3   2.0000     -10.328483      -281.0523
   4   2.0000     -10.319730      -280.8141
   5   2.0000     -10.314209      -280.6639
   6   2.0000     -10.305504      -280.4270
   7   2.0000     -10.304893      -280.4104
   8   2.0000     -10.295268      -280.1485
   9   2.0000     -10.294592      -280.1301
  10   2.0000     -10.294295      -280.1220
  11   2.0000     -10.293467      -280.0995
  12   2.0000     -10.287193      -279.9288
  13   2.0000     -10.281513      -279.7742
  14   2.0000     -10.280733      -279.7530
  15   2.0000     -10.274587      -279.5857
  16   2.0000      -8.084823      -219.9992
  17   2.0000      -8.083243      -219.9562
  18   2.0000      -6.043364      -164.4483
  19   2.0000      -6.041631      -164.4011
  20   2.0000      -6.039351      -164.3391
  21   2.0000      -6.037626      -164.2921
  22   2.0000      -6.035531      -164.2351
  23   2.0000      -6.034232      -164.1998
  24   2.0000      -1.004453       -27.3326
  25   2.0000      -0.980760       -26.6878
  26   2.0000      -0.916503       -24.9393
  27   2.0000      -0.912401       -24.8277
  28   2.0000      -0.866370       -23.5751
  29   2.0000      -0.852444       -23.1962
  30   2.0000      -0.845285       -23.0014
  31   2.0000      -0.811374       -22.0786
  32   2.0000      -0.780895       -21.2492
  33   2.0000      -0.765495       -20.8302
  34   2.0000      -0.704377       -19.1671
  35   2.0000      -0.698443       -19.0056
  36   2.0000      -0.695406       -18.9230
  37   2.0000      -0.660036       -17.9605
  38   2.0000      -0.636630       -17.3236
  39   2.0000      -0.620325       -16.8799
  40   2.0000      -0.593713       -16.1558
  41   2.0000      -0.573282       -15.5998
  42   2.0000      -0.567981       -15.4556
  43   2.0000      -0.558051       -15.1853
  44   2.0000      -0.526697       -14.3322
  45   2.0000      -0.524178       -14.2636
  46   2.0000      -0.516019       -14.0416
  47   2.0000      -0.510644       -13.8953
  48   2.0000      -0.503483       -13.7005
  49   2.0000      -0.498590       -13.5673
  50   2.0000      -0.493588       -13.4312
  51   2.0000      -0.480113       -13.0645
  52   2.0000      -0.467706       -12.7269
  53   2.0000      -0.461510       -12.5583
  54   2.0000      -0.459192       -12.4953
  55   2.0000      -0.450242       -12.2517
  56   2.0000      -0.446629       -12.1534
  57   2.0000      -0.442512       -12.0414
  58   2.0000      -0.437367       -11.9014
  59   2.0000      -0.422986       -11.5100
  60   2.0000      -0.420534       -11.4433
  61   2.0000      -0.412619       -11.2279
  62   2.0000      -0.407885       -11.0991
  63   2.0000      -0.347871        -9.4660
  64   2.0000      -0.330319        -8.9884
  65   2.0000      -0.329255        -8.9595
  66   2.0000      -0.285627        -7.7723
  67   0.0000       0.029061         0.7908
  68   0.0000       0.067518         1.8372
  69   0.0000       0.106751         2.9048
  70   0.0000       0.116981         3.1832
  71   0.0000       0.130033         3.5384

MULLIKEN ATOMIC CHARGES
-----------------------
   0 S :    0.120923
   1 C :   -0.128382
   2 C :   -0.113934
   3 C :    0.028367
   4 C :   -0.152146
   5 H :    0.009576
   6 C :    0.058509
   7 H :    0.011157
   8 H :    0.047469
   9 C :   -0.072246
  10 H :    0.039988
  11 H :    0.027169
  12 C :   -0.058390
  13 H :    0.027946
  14 H :    0.039991
  15 H :    0.043355
  16 S :    0.115645
  17 C :   -0.073343
  18 C :   -0.037516
  19 C :   -0.074151
  20 C :   -0.135269
  21 H :    0.027455
  22 C :    0.078905
  23 H :    0.008597
  24 H :    0.007979
  25 C :   -0.011904
  26 H :    0.007028
  27 H :    0.032326
  28 C :   -0.070723
  29 H :    0.041534
  30 H :    0.038341
  31 H :    0.021383
  32 H :    0.054438
  33 H :    0.039922
Sum of atomic charges:    0.0000000

LOEWDIN ATOMIC CHARGES
----------------------
   0 S :    0.415805
   1 C :   -0.209941
   2 C :   -0.055340
   3 C :   -0.064866
   4 C :   -0.202600
   5 H :    0.024509
   6 C :   -0.036625
   7 H :    0.027326
   8 H :    0.037930
   9 C :   -0.038424
  10 H :    0.031907
  11 H :    0.022033
  12 C :   -0.074110
  13 H :    0.024736
  14 H :    0.028148
  15 H :    0.031287
  16 S :    0.423142
  17 C :   -0.182910
  18 C :   -0.071204
  19 C :   -0.050666
  20 C :   -0.214571
  21 H :    0.037130
  22 C :   -0.033965
  23 H :    0.029536
  24 H :    0.024021
  25 C :   -0.038962
  26 H :    0.019399
  27 H :    0.028854
  28 C :   -0.069936
  29 H :    0.035783
  30 H :    0.026966
  31 H :    0.020444
  32 H :    0.033985
  33 H :    0.021179

  Mayer bond orders larger than 0.100000
B(  0-S ,  1-C ) :   1.1256 B(  0-S ,  4-C ) :   1.1648 B(  1-C ,  2-C ) :   1.6206
B(  1-C , 32-H ) :   0.9647 B(  2-C ,  3-C ) :   1.2254 B(  2-C ,  6-C ) :   1.0285
B(  3-C ,  4-C ) :   1.5645 B(  3-C ,  5-H ) :   0.9925 B(  4-C , 20-C ) :   1.0236
B(  6-C ,  7-H ) :   0.9341 B(  6-C ,  8-H ) :   0.9401 B(  6-C ,  9-C ) :   1.0623
B(  9-C , 10-H ) :   0.9538 B(  9-C , 11-H ) :   0.9580 B(  9-C , 12-C ) :   1.0772
B( 12-C , 13-H ) :   0.9745 B( 12-C , 14-H ) :   0.9746 B( 12-C , 15-H ) :   0.9751
B( 16-S , 17-C ) :   1.1702 B( 16-S , 20-C ) :   1.1541 B( 17-C , 18-C ) :   1.5907
B( 17-C , 20-C ) :   0.1026 B( 17-C , 33-H ) :   0.9693 B( 18-C , 19-C ) :   1.2612
B( 18-C , 21-H ) :   0.9886 B( 19-C , 20-C ) :   1.5483 B( 19-C , 22-C ) :   1.0602
B( 22-C , 23-H ) :   0.9227 B( 22-C , 24-H ) :   0.9239 B( 22-C , 25-C ) :   1.0782
B( 25-C , 26-H ) :   0.9481 B( 25-C , 27-H ) :   0.9520 B( 25-C , 28-C ) :   1.0786
B( 28-C , 29-H ) :   0.9704 B( 28-C , 30-H ) :   0.9742 B( 28-C , 31-H ) :   0.9736

Dispersion correction           -0.013961292
FINAL SINGLE POINT ENERGY     -1339.875522685406

DIPOLE MOMENT
-------------
                                X             Y             Z
Electronic contribution:     17.41423     -25.29094       6.46409
Nuclear contribution   :    -17.87790      25.76573      -6.38598
                        -----------------------------------------
Total Dipole Moment    :     -0.46367       0.47479       0.07811
                        -----------------------------------------
Magnitude (a.u.)       :      0.66822
Magnitude (Debye)      :      1.69847

Rotational constants in cm-1:     0.017466     0.008850     0.006670
Rotational constants in MHz :   523.603656   265.315512   199.947322

                             ****ORCA TERMINATED NORMALLY****
TOTAL RUN TIME: 0 days 0 hours 0 minutes 33 seconds 994 msec
