                         Program Version 4.2.1 -  RELEASE  -
|  1> ! wB97X-D3 SP def2-SVP
|  2> %pal
|  3> nprocs 16
|  4> end
|  5>
|  6> * xyz 0 1
|  7> S 	 -101.293 	 43.4251 	 118.965
|  8> C 	 -100.918 	 41.88 	 118.388
|  9> C 	 -99.9949 	 41.2081 	 119.148
| 10> C 	 -99.5666 	 42.0505 	 120.231
| 11> C 	 -100.161 	 43.2599 	 120.307
| 12> H 	 -98.9197 	 41.7693 	 120.989
| 13> C 	 -99.4618 	 39.799 	 118.895
| 14> H 	 -100.346 	 39.2695 	 118.605
| 15> H 	 -98.9501 	 39.4863 	 119.8
| 16> C 	 -98.4163 	 39.7243 	 117.799
| 17> H 	 -98.8194 	 39.9316 	 116.811
| 18> H 	 -97.7165 	 40.4968 	 117.957
| 19> C 	 -97.6523 	 38.3684 	 117.658
| 20> H 	 -96.7019 	 38.2985 	 117.034
| 21> H 	 -97.3698 	 37.9182 	 118.655
| 22> H 	 -98.261 	 37.6343 	 117.143
| 23> S 	 -100.369 	 45.9426 	 120.566
| 24> C 	 -99.872 	 46.7764 	 121.985
| 25> C 	 -99.4426 	 45.9318 	 122.94
| 26> C 	 -99.3635 	 44.5933 	 122.508
| 27> C 	 -99.853 	 44.4167 	 121.174
| 28> H 	 -99.2229 	 46.3967 	 123.892
| 29> C 	 -98.9626 	 43.4458 	 123.471
| 30> H 	 -98.171 	 43.7608 	 124.203
| 31> H 	 -98.3324 	 42.6512 	 123.008
| 32> C 	 -100.209 	 42.8185 	 124.178
| 33> H 	 -100.912 	 42.5628 	 123.341
| 34> H 	 -100.662 	 43.6628 	 124.745
| 35> C 	 -99.9567 	 41.6964 	 125.189
| 36> H 	 -99.698 	 41.9094 	 126.2
| 37> H 	 -99.1677 	 41.0792 	 124.918
| 38> H 	 -100.793 	 41.0039 	 125.171
| 39> H 	 -101.481 	 41.5277 	 117.65
| 40> H 	 -100.185 	 47.8493 	 122.025
| 41> *
| 42>
| 43>                          ****END OF INPUT****

CARTESIAN COORDINATES (ANGSTROEM)
---------------------------------
  S    -101.293000   43.425100  118.965000
  C    -100.918000   41.880000  118.388000
  C    -99.994900   41.208100  119.148000
  C    -99.566600   42.050500  120.231000
  C    -100.161000   43.259900  120.307000
  H    -98.919700   41.769300  120.989000
  C    -99.461800   39.799000  118.895000
  H    -100.346000   39.269500  118.605000
  H    -98.950100   39.486300  119.800000
  C    -98.416300   39.724300  117.799000
  H    -98.819400   39.931600  116.811000
  H    -97.716500   40.496800  117.957000
  C    -97.652300   38.368400  117.658000
  H    -96.701900   38.298500  117.034000
  H    -97.369800   37.918200  118.655000
  H    -98.261000   37.634300  117.143000
  S    -100.369000   45.942600  120.566000
  C    -99.872000   46.776400  121.985000
  C    -99.442600   45.931800  122.940000
  C    -99.363500   44.593300  122.508000
  C    -99.853000   44.416700  121.174000
  H    -99.222900   46.396700  123.892000
  C    -98.962600   43.445800  123.471000
  H    -98.171000   43.760800  124.203000
  H    -98.332400   42.651200  123.008000
  C    -100.209000   42.818500  124.178000
  H    -100.912000   42.562800  123.341000
  H    -100.662000   43.662800  124.745000
  C    -99.956700   41.696400  125.189000
  H    -99.698000   41.909400  126.200000
  H    -99.167700   41.079200  124.918000
  H    -100.793000   41.003900  125.171000
  H    -101.481000   41.527700  117.650000
  H    -100.185000   47.849300  122.025000

 Total Charge           Charge          ....    0
 Multiplicity           Mult            ....    1
 Number of Electrons    NEL             ....  134
 Basis Dimension        Dim             ....  322

ORBITAL ENERGIES
----------------

  NO   OCC          E(Eh)            E(eV)
   0   2.0000     -88.962944     -2420.8048
   1   2.0000     -88.961976     -2420.7784
   2   2.0000     -10.332776      -281.1691
   3   2.0000     -10.329175      -281.0711
   4   2.0000     -10.313066      -280.6328
   5   2.0000     -10.311142      -280.5804
   6   2.0000     -10.301972      -280.3309
   7   2.0000     -10.301058      -280.3060
   8   2.0000     -10.300206      -280.2829
   9   2.0000     -10.293386      -280.0973
  10   2.0000     -10.292432      -280.0713
  11   2.0000     -10.292114      -280.0627
  12   2.0000     -10.287137      -279.9272
  13   2.0000     -10.286130      -279.8998
  14   2.0000     -10.284031      -279.8427
  15   2.0000     -10.269819      -279.4560
  16   2.0000      -8.079039      -219.8418
  17   2.0000      -8.078353      -219.8232
  18   2.0000      -6.037530      -164.2896
  19   2.0000      -6.036663      -164.2659
  20   2.0000      -6.033284      -164.1740
  21   2.0000      -6.032506      -164.1528
  22   2.0000      -6.029819      -164.0797
  23   2.0000      -6.029356      -164.0671
  24   2.0000      -1.014751       -27.6128
  25   2.0000      -0.993954       -27.0469
  26   2.0000      -0.913495       -24.8575
  27   2.0000      -0.900693       -24.5091
  28   2.0000      -0.874909       -23.8075
  29   2.0000      -0.855397       -23.2765
  30   2.0000      -0.845695       -23.0125
  31   2.0000      -0.821165       -22.3450
  32   2.0000      -0.783785       -21.3279
  33   2.0000      -0.773076       -21.0365
  34   2.0000      -0.706551       -19.2262
  35   2.0000      -0.704684       -19.1754
  36   2.0000      -0.693338       -18.8667
  37   2.0000      -0.670593       -18.2478
  38   2.0000      -0.647829       -17.6283
  39   2.0000      -0.626036       -17.0353
  40   2.0000      -0.600118       -16.3300
  41   2.0000      -0.577589       -15.7170
  42   2.0000      -0.564242       -15.3538
  43   2.0000      -0.551539       -15.0081
  44   2.0000      -0.526158       -14.3175
  45   2.0000      -0.521146       -14.1811
  46   2.0000      -0.515649       -14.0315
  47   2.0000      -0.511447       -13.9172
  48   2.0000      -0.509093       -13.8531
  49   2.0000      -0.500917       -13.6307
  50   2.0000      -0.490381       -13.3439
  51   2.0000      -0.489033       -13.3073
  52   2.0000      -0.473372       -12.8811
  53   2.0000      -0.464750       -12.6465
  54   2.0000      -0.461681       -12.5630
  55   2.0000      -0.452924       -12.3247
  56   2.0000      -0.446897       -12.1607
  57   2.0000      -0.435977       -11.8635
  58   2.0000      -0.428469       -11.6592
  59   2.0000      -0.425747       -11.5852
  60   2.0000      -0.420086       -11.4311
  61   2.0000      -0.415333       -11.3018
  62   2.0000      -0.407096       -11.0776
  63   2.0000      -0.366064        -9.9611
  64   2.0000      -0.338432        -9.2092
  65   2.0000      -0.327173        -8.9028
  66   2.0000      -0.284520        -7.7422
  67   0.0000       0.023947         0.6516
  68   0.0000       0.083900         2.2830
  69   0.0000       0.105439         2.8691
  70   0.0000       0.124363         3.3841
  71   0.0000       0.141969         3.8632

MULLIKEN ATOMIC CHARGES
-----------------------
   0 S :    0.094407
   1 C :   -0.072778
   2 C :   -0.091680
   3 C :    0.020131
   4 C :   -0.097015
   5 H :   -0.035116
   6 C :    0.127405
   7 H :    0.027568
   8 H :    0.017079
   9 C :   -0.043277
  10 H :    0.021862
  11 H :    0.019658
  12 C :   -0.091753
  13 H :    0.044574
  14 H :    0.032170
  15 H :    0.026592
  16 S :    0.082580
  17 C :   -0.115767
  18 C :   -0.023959
  19 C :   -0.029704
  20 C :   -0.122434
  21 H :    0.022038
  22 C :    0.006378
  23 H :    0.023358
  24 H :    0.024428
  25 C :   -0.088042
  26 H :    0.050206
  27 H :    0.033646
  28 C :    0.012957
  29 H :    0.027840
  30 H :   -0.003479
  31 H :    0.028412
  32 H :   -0.005979
  33 H :    0.077693
Sum of atomic charges:   -0.0000000

LOEWDIN ATOMIC CHARGES
----------------------
   0 S :    0.414483
   1 C :   -0.185349
   2 C :   -0.056312
   3 C :   -0.059543
   4 C :   -0.184645
   5 H :    0.016651
   6 C :   -0.020143
   7 H :    0.031683
   8 H :    0.031605
   9 C :   -0.038165
  10 H :    0.023738
  11 H :    0.019491
  12 C :   -0.081150
  13 H :    0.035702
  14 H :    0.025719
  15 H :    0.020777
  16 S :    0.426945
  17 C :   -0.201088
  18 C :   -0.074274
  19 C :   -0.059654
  20 C :   -0.196685
  21 H :    0.037656
  22 C :   -0.045318
  23 H :    0.031589
  24 H :    0.024958
  25 C :   -0.043213
  26 H :    0.034614
  27 H :    0.029244
  28 C :   -0.067772
  29 H :    0.024811
  30 H :    0.015497
  31 H :    0.032987
  32 H :   -0.002208
  33 H :    0.037369

  Mayer bond orders larger than 0.100000
B(  0-S ,  1-C ) :   1.1625 B(  0-S ,  4-C ) :   1.1351 B(  1-C ,  2-C ) :   1.5873
B(  1-C , 32-H ) :   0.9886 B(  2-C ,  3-C ) :   1.2394 B(  2-C ,  6-C ) :   1.0231
B(  3-C ,  4-C ) :   1.5931 B(  3-C ,  5-H ) :   1.0079 B(  4-C , 20-C ) :   1.0575
B(  6-C ,  7-H ) :   0.9331 B(  6-C ,  8-H ) :   0.9343 B(  6-C ,  9-C ) :   1.0748
B(  9-C , 10-H ) :   0.9547 B(  9-C , 11-H ) :   0.9567 B(  9-C , 12-C ) :   1.0694
B( 12-C , 13-H ) :   0.9764 B( 12-C , 14-H ) :   0.9761 B( 12-C , 15-H ) :   0.9772
B( 16-S , 17-C ) :   1.1722 B( 16-S , 20-C ) :   1.1739 B( 17-C , 18-C ) :   1.5821
B( 17-C , 33-H ) :   0.9617 B( 18-C , 19-C ) :   1.2706 B( 18-C , 21-H ) :   0.9989
B( 19-C , 20-C ) :   1.5306 B( 19-C , 22-C ) :   1.0400 B( 22-C , 23-H ) :   0.9381
B( 22-C , 24-H ) :   0.9395 B( 22-C , 25-C ) :   1.0483 B( 25-C , 26-H ) :   0.9604
B( 25-C , 27-H ) :   0.9587 B( 25-C , 28-C ) :   1.0662 B( 28-C , 29-H ) :   0.9748
B( 28-C , 30-H ) :   0.9694 B( 28-C , 31-H ) :   0.9715

Dispersion correction           -0.013631512
FINAL SINGLE POINT ENERGY     -1339.864453899915

DIPOLE MOMENT
-------------
                                X             Y             Z
Electronic contribution:    -10.94611      25.39415      -8.79687
Nuclear contribution   :     11.08790     -25.80577       9.10496
                        -----------------------------------------
Total Dipole Moment    :      0.14179      -0.41163       0.30809
                        -----------------------------------------
Magnitude (a.u.)       :      0.53335
Magnitude (Debye)      :      1.35567

Rotational constants in cm-1:     0.018178     0.008112     0.006272
Rotational constants in MHz :   544.973701   243.188230   188.023653

                             ****ORCA TERMINATED NORMALLY****
TOTAL RUN TIME: 0 days 0 hours 0 minutes 33 seconds 252 msec
