                         Program Version 4.2.1 -  RELEASE  -
|  1> ! wB97X-D3 SP def2-SVP
|  2> %pal
|  3> nprocs 16
|  4> end
|  5>
|  6> * xyz 0 1
|  7> S 	 -69.3247 	 36.2288 	 119.26
|  8> C 	 -68.2446 	 36.6183 	 117.938
|  9> C 	 -68.8313 	 36.3827 	 116.726
| 10> C 	 -70.1753 	 35.9716 	 116.831
| 11> C 	 -70.61 	 35.8338 	 118.151
| 12> H 	 -70.7904 	 35.7362 	 116.053
| 13> C 	 -68.1294 	 36.536 	 115.373
| 14> H 	 -68.6035 	 35.8769 	 114.627
| 15> H 	 -67.0102 	 36.3249 	 115.465
| 16> C 	 -68.2758 	 37.92 	 114.764
| 17> H 	 -67.6452 	 38.0922 	 113.955
| 18> H 	 -69.2496 	 38.0061 	 114.394
| 19> C 	 -68.0456 	 39.0901 	 115.722
| 20> H 	 -68.4195 	 39.9896 	 115.326
| 21> H 	 -68.7284 	 39.0438 	 116.582
| 22> H 	 -66.9933 	 39.1824 	 115.944
| 23> S 	 -73.2194 	 36.3913 	 117.536
| 24> C 	 -74.3906 	 35.9143 	 118.735
| 25> C 	 -73.8494 	 35.2171 	 119.755
| 26> C 	 -72.4456 	 35.062 	 119.691
| 27> C 	 -71.95 	 35.6498 	 118.513
| 28> H 	 -74.3958 	 34.9999 	 120.654
| 29> C 	 -71.6793 	 34.2142 	 120.758
| 30> H 	 -71.3443 	 35.0437 	 121.394
| 31> H 	 -70.9232 	 33.7355 	 120.227
| 32> C 	 -72.4623 	 33.1651 	 121.487
| 33> H 	 -72.6934 	 32.2552 	 120.837
| 34> H 	 -73.3472 	 33.5492 	 121.96
| 35> C 	 -71.6143 	 32.2816 	 122.531
| 36> H 	 -70.5956 	 32.4216 	 122.31
| 37> H 	 -71.8703 	 31.2233 	 122.396
| 38> H 	 -71.8088 	 32.5354 	 123.584
| 39> H 	 -67.2432 	 37.0652 	 117.942
| 40> H 	 -75.3946 	 36.2312 	 118.651
| 41> *
| 42>
| 43>                          ****END OF INPUT****

CARTESIAN COORDINATES (ANGSTROEM)
---------------------------------
  S    -69.324700   36.228800  119.260000
  C    -68.244600   36.618300  117.938000
  C    -68.831300   36.382700  116.726000
  C    -70.175300   35.971600  116.831000
  C    -70.610000   35.833800  118.151000
  H    -70.790400   35.736200  116.053000
  C    -68.129400   36.536000  115.373000
  H    -68.603500   35.876900  114.627000
  H    -67.010200   36.324900  115.465000
  C    -68.275800   37.920000  114.764000
  H    -67.645200   38.092200  113.955000
  H    -69.249600   38.006100  114.394000
  C    -68.045600   39.090100  115.722000
  H    -68.419500   39.989600  115.326000
  H    -68.728400   39.043800  116.582000
  H    -66.993300   39.182400  115.944000
  S    -73.219400   36.391300  117.536000
  C    -74.390600   35.914300  118.735000
  C    -73.849400   35.217100  119.755000
  C    -72.445600   35.062000  119.691000
  C    -71.950000   35.649800  118.513000
  H    -74.395800   34.999900  120.654000
  C    -71.679300   34.214200  120.758000
  H    -71.344300   35.043700  121.394000
  H    -70.923200   33.735500  120.227000
  C    -72.462300   33.165100  121.487000
  H    -72.693400   32.255200  120.837000
  H    -73.347200   33.549200  121.960000
  C    -71.614300   32.281600  122.531000
  H    -70.595600   32.421600  122.310000
  H    -71.870300   31.223300  122.396000
  H    -71.808800   32.535400  123.584000
  H    -67.243200   37.065200  117.942000
  H    -75.394600   36.231200  118.651000

 Total Charge           Charge          ....    0
 Multiplicity           Mult            ....    1
 Number of Electrons    NEL             ....  134
 Basis Dimension        Dim             ....  322

ORBITAL ENERGIES
----------------

  NO   OCC          E(Eh)            E(eV)
   0   2.0000     -88.969285     -2420.9773
   1   2.0000     -88.966746     -2420.9082
   2   2.0000     -10.322919      -280.9009
   3   2.0000     -10.322062      -280.8776
   4   2.0000     -10.310377      -280.5596
   5   2.0000     -10.308822      -280.5173
   6   2.0000     -10.301748      -280.3248
   7   2.0000     -10.295592      -280.1573
   8   2.0000     -10.294377      -280.1242
   9   2.0000     -10.293314      -280.0953
  10   2.0000     -10.293037      -280.0878
  11   2.0000     -10.285904      -279.8937
  12   2.0000     -10.281803      -279.7821
  13   2.0000     -10.280009      -279.7333
  14   2.0000     -10.270482      -279.4740
  15   2.0000     -10.264885      -279.3217
  16   2.0000      -8.083472      -219.9625
  17   2.0000      -8.081408      -219.9063
  18   2.0000      -6.042108      -164.4141
  19   2.0000      -6.039933      -164.3549
  20   2.0000      -6.038020      -164.3029
  21   2.0000      -6.036072      -164.2499
  22   2.0000      -6.034176      -164.1983
  23   2.0000      -6.032030      -164.1399
  24   2.0000      -1.009881       -27.4803
  25   2.0000      -0.984709       -26.7953
  26   2.0000      -0.913744       -24.8642
  27   2.0000      -0.909257       -24.7421
  28   2.0000      -0.874575       -23.7984
  29   2.0000      -0.853389       -23.2219
  30   2.0000      -0.843835       -22.9619
  31   2.0000      -0.809652       -22.0317
  32   2.0000      -0.788038       -21.4436
  33   2.0000      -0.776507       -21.1298
  34   2.0000      -0.710790       -19.3416
  35   2.0000      -0.703711       -19.1489
  36   2.0000      -0.692218       -18.8362
  37   2.0000      -0.659748       -17.9527
  38   2.0000      -0.636953       -17.3324
  39   2.0000      -0.610878       -16.6228
  40   2.0000      -0.605085       -16.4652
  41   2.0000      -0.573909       -15.6169
  42   2.0000      -0.567021       -15.4294
  43   2.0000      -0.562199       -15.2982
  44   2.0000      -0.540032       -14.6950
  45   2.0000      -0.530710       -14.4413
  46   2.0000      -0.520152       -14.1541
  47   2.0000      -0.512714       -13.9516
  48   2.0000      -0.508901       -13.8479
  49   2.0000      -0.492517       -13.4021
  50   2.0000      -0.491182       -13.3657
  51   2.0000      -0.477936       -13.0053
  52   2.0000      -0.474263       -12.9053
  53   2.0000      -0.462463       -12.5843
  54   2.0000      -0.460854       -12.5405
  55   2.0000      -0.451717       -12.2919
  56   2.0000      -0.448749       -12.2111
  57   2.0000      -0.434587       -11.8257
  58   2.0000      -0.429143       -11.6776
  59   2.0000      -0.426404       -11.6031
  60   2.0000      -0.422203       -11.4887
  61   2.0000      -0.415330       -11.3017
  62   2.0000      -0.397653       -10.8207
  63   2.0000      -0.356255        -9.6942
  64   2.0000      -0.334132        -9.0922
  65   2.0000      -0.333229        -9.0676
  66   2.0000      -0.276786        -7.5317
  67   0.0000       0.021898         0.5959
  68   0.0000       0.079794         2.1713
  69   0.0000       0.103715         2.8222
  70   0.0000       0.117897         3.2081
  71   0.0000       0.137730         3.7478

MULLIKEN ATOMIC CHARGES
-----------------------
   0 S :    0.115815
   1 C :   -0.124422
   2 C :   -0.075667
   3 C :    0.008929
   4 C :   -0.126314
   5 H :   -0.029603
   6 C :    0.054589
   7 H :    0.031649
   8 H :    0.038310
   9 C :   -0.035496
  10 H :    0.014934
  11 H :    0.005317
  12 C :   -0.045936
  13 H :    0.009877
  14 H :    0.041464
  15 H :    0.030016
  16 S :    0.106366
  17 C :   -0.071628
  18 C :   -0.013340
  19 C :   -0.098552
  20 C :   -0.145147
  21 H :    0.010239
  22 C :    0.133172
  23 H :    0.051073
  24 H :    0.022560
  25 C :   -0.135740
  26 H :    0.048868
  27 H :    0.033967
  28 C :   -0.043862
  29 H :    0.024609
  30 H :    0.035919
  31 H :    0.039336
  32 H :    0.047755
  33 H :    0.040944
Sum of atomic charges:   -0.0000000

LOEWDIN ATOMIC CHARGES
----------------------
   0 S :    0.418428
   1 C :   -0.205932
   2 C :   -0.061552
   3 C :   -0.063157
   4 C :   -0.190501
   5 H :    0.010311
   6 C :   -0.030646
   7 H :    0.034874
   8 H :    0.035505
   9 C :   -0.036092
  10 H :    0.016842
  11 H :    0.015415
  12 C :   -0.064876
  13 H :    0.019943
  14 H :    0.031005
  15 H :    0.020959
  16 S :    0.406063
  17 C :   -0.174974
  18 C :   -0.073074
  19 C :   -0.051683
  20 C :   -0.197910
  21 H :    0.029241
  22 C :   -0.031074
  23 H :    0.039368
  24 H :    0.023449
  25 C :   -0.045609
  26 H :    0.040763
  27 H :    0.017036
  28 C :   -0.059074
  29 H :    0.018586
  30 H :    0.027125
  31 H :    0.025763
  32 H :    0.035052
  33 H :    0.020427

  Mayer bond orders larger than 0.100000
B(  0-S ,  1-C ) :   1.1288 B(  0-S ,  4-C ) :   1.1426 B(  1-C ,  2-C ) :   1.6107
B(  1-C , 32-H ) :   0.9584 B(  2-C ,  3-C ) :   1.2517 B(  2-C ,  6-C ) :   1.0236
B(  3-C ,  4-C ) :   1.5030 B(  3-C ,  5-H ) :   1.0177 B(  4-C , 20-C ) :   1.1425
B(  6-C ,  7-H ) :   0.9435 B(  6-C ,  8-H ) :   0.9446 B(  6-C ,  9-C ) :   1.0704
B(  9-C , 10-H ) :   0.9553 B(  9-C , 11-H ) :   0.9512 B(  9-C , 12-C ) :   1.0999
B( 12-C , 13-H ) :   0.9683 B( 12-C , 14-H ) :   0.9631 B( 12-C , 15-H ) :   0.9774
B( 16-S , 17-C ) :   1.1449 B( 16-S , 20-C ) :   1.1303 B( 17-C , 18-C ) :   1.6078
B( 17-C , 33-H ) :   0.9699 B( 18-C , 19-C ) :   1.2658 B( 18-C , 21-H ) :   0.9857
B( 19-C , 20-C ) :   1.5656 B( 19-C , 22-C ) :   0.9963 B( 22-C , 23-H ) :   0.9225
B( 22-C , 24-H ) :   0.9311 B( 22-C , 25-C ) :   1.1033 B( 25-C , 26-H ) :   0.9669
B( 25-C , 27-H ) :   0.9529 B( 25-C , 28-C ) :   1.0509 B( 28-C , 29-H ) :   0.9767
B( 28-C , 30-H ) :   0.9870 B( 28-C , 31-H ) :   0.9777

Dispersion correction           -0.014074472
FINAL SINGLE POINT ENERGY     -1339.856487145845

DIPOLE MOMENT
-------------
                                X             Y             Z
Electronic contribution:     -8.09501       3.78445      -1.44729
Nuclear contribution   :      8.05273      -3.83067       1.47158
                        -----------------------------------------
Total Dipole Moment    :     -0.04228      -0.04622       0.02429
                        -----------------------------------------
Magnitude (a.u.)       :      0.06718
Magnitude (Debye)      :      0.17077

Rotational constants in cm-1:     0.023733     0.007669     0.006216
Rotational constants in MHz :   711.500444   229.903939   186.339406

                             ****ORCA TERMINATED NORMALLY****
TOTAL RUN TIME: 0 days 0 hours 0 minutes 31 seconds 840 msec
