                         Program Version 4.2.1 -  RELEASE  -
|  1> ! wB97X-D3 SP def2-SVP
|  2> %pal
|  3> nprocs 16
|  4> end
|  5>
|  6> * xyz 0 1
|  7> S 	 -3.27109 	 -13.2469 	 69.3023
|  8> C 	 -2.37574 	 -13.3379 	 67.7687
|  9> C 	 -2.35191 	 -12.1246 	 67.2025
| 10> C 	 -2.82067 	 -11.0554 	 68.0079
| 11> C 	 -3.45187 	 -11.4563 	 69.1384
| 12> H 	 -2.99756 	 -10.0824 	 67.5712
| 13> C 	 -1.71336 	 -11.884 	 65.907
| 14> H 	 -0.980915 	 -12.6939 	 65.7126
| 15> H 	 -1.24054 	 -10.9211 	 65.8331
| 16> C 	 -2.78004 	 -11.9425 	 64.8339
| 17> H 	 -2.29029 	 -11.9532 	 63.8579
| 18> H 	 -3.13621 	 -12.9985 	 64.9114
| 19> C 	 -3.95892 	 -11.039 	 64.7645
| 20> H 	 -4.51898 	 -11.3823 	 63.8599
| 21> H 	 -4.55852 	 -11.1 	 65.6698
| 22> H 	 -3.7646 	 -9.97733 	 64.6098
| 23> S 	 -4.79843 	 -11.4453 	 71.5676
| 24> C 	 -5.25277 	 -9.9476 	 72.313
| 25> C 	 -4.90906 	 -8.90657 	 71.4738
| 26> C 	 -4.20057 	 -9.2563 	 70.3187
| 27> C 	 -4.1527 	 -10.6551 	 70.1146
| 28> H 	 -4.98487 	 -7.94165 	 71.8723
| 29> C 	 -3.67141 	 -8.17651 	 69.4268
| 30> H 	 -2.67421 	 -8.36737 	 69.0623
| 31> H 	 -3.45847 	 -7.22782 	 69.951
| 32> C 	 -4.60713 	 -7.83497 	 68.3204
| 33> H 	 -5.34469 	 -7.03846 	 68.6649
| 34> H 	 -5.14283 	 -8.72369 	 68.0397
| 35> C 	 -3.90057 	 -7.1993 	 67.1478
| 36> H 	 -3.30799 	 -6.42783 	 67.531
| 37> H 	 -4.59357 	 -6.81801 	 66.4003
| 38> H 	 -3.37203 	 -7.95715 	 66.5026
| 39> H 	 -1.94232 	 -14.22 	 67.3418
| 40> H 	 -5.90159 	 -9.8883 	 73.1641
| 41> *
| 42>
| 43>                          ****END OF INPUT****

CARTESIAN COORDINATES (ANGSTROEM)
---------------------------------
  S     -3.271090  -13.246900   69.302300
  C     -2.375740  -13.337900   67.768700
  C     -2.351910  -12.124600   67.202500
  C     -2.820670  -11.055400   68.007900
  C     -3.451870  -11.456300   69.138400
  H     -2.997560  -10.082400   67.571200
  C     -1.713360  -11.884000   65.907000
  H     -0.980915  -12.693900   65.712600
  H     -1.240540  -10.921100   65.833100
  C     -2.780040  -11.942500   64.833900
  H     -2.290290  -11.953200   63.857900
  H     -3.136210  -12.998500   64.911400
  C     -3.958920  -11.039000   64.764500
  H     -4.518980  -11.382300   63.859900
  H     -4.558520  -11.100000   65.669800
  H     -3.764600   -9.977330   64.609800
  S     -4.798430  -11.445300   71.567600
  C     -5.252770   -9.947600   72.313000
  C     -4.909060   -8.906570   71.473800
  C     -4.200570   -9.256300   70.318700
  C     -4.152700  -10.655100   70.114600
  H     -4.984870   -7.941650   71.872300
  C     -3.671410   -8.176510   69.426800
  H     -2.674210   -8.367370   69.062300
  H     -3.458470   -7.227820   69.951000
  C     -4.607130   -7.834970   68.320400
  H     -5.344690   -7.038460   68.664900
  H     -5.142830   -8.723690   68.039700
  C     -3.900570   -7.199300   67.147800
  H     -3.307990   -6.427830   67.531000
  H     -4.593570   -6.818010   66.400300
  H     -3.372030   -7.957150   66.502600
  H     -1.942320  -14.220000   67.341800
  H     -5.901590   -9.888300   73.164100

 Total Charge           Charge          ....    0
 Multiplicity           Mult            ....    1
 Number of Electrons    NEL             ....  134
 Basis Dimension        Dim             ....  322

ORBITAL ENERGIES
----------------

  NO   OCC          E(Eh)            E(eV)
   0   2.0000     -88.967382     -2420.9255
   1   2.0000     -88.962603     -2420.7955
   2   2.0000     -10.335790      -281.2512
   3   2.0000     -10.334509      -281.2163
   4   2.0000     -10.317838      -280.7626
   5   2.0000     -10.309096      -280.5248
   6   2.0000     -10.306790      -280.4620
   7   2.0000     -10.289393      -279.9886
   8   2.0000     -10.289136      -279.9816
   9   2.0000     -10.288406      -279.9618
  10   2.0000     -10.288269      -279.9580
  11   2.0000     -10.285108      -279.8720
  12   2.0000     -10.284841      -279.8648
  13   2.0000     -10.281786      -279.7816
  14   2.0000     -10.278865      -279.7021
  15   2.0000     -10.278658      -279.6965
  16   2.0000      -8.081981      -219.9219
  17   2.0000      -8.076274      -219.7666
  18   2.0000      -6.040491      -164.3701
  19   2.0000      -6.036372      -164.2580
  20   2.0000      -6.035157      -164.2250
  21   2.0000      -6.032895      -164.1634
  22   2.0000      -6.031055      -164.1133
  23   2.0000      -6.026567      -163.9912
  24   2.0000      -1.008997       -27.4562
  25   2.0000      -0.988664       -26.9029
  26   2.0000      -0.923981       -25.1428
  27   2.0000      -0.920752       -25.0549
  28   2.0000      -0.875000       -23.8100
  29   2.0000      -0.858091       -23.3499
  30   2.0000      -0.844185       -22.9714
  31   2.0000      -0.823084       -22.3973
  32   2.0000      -0.787762       -21.4361
  33   2.0000      -0.776644       -21.1335
  34   2.0000      -0.712835       -19.3972
  35   2.0000      -0.697318       -18.9750
  36   2.0000      -0.693809       -18.8795
  37   2.0000      -0.668456       -18.1896
  38   2.0000      -0.637686       -17.3523
  39   2.0000      -0.625016       -17.0076
  40   2.0000      -0.608964       -16.5708
  41   2.0000      -0.580039       -15.7837
  42   2.0000      -0.574162       -15.6238
  43   2.0000      -0.549944       -14.9647
  44   2.0000      -0.545453       -14.8425
  45   2.0000      -0.530741       -14.4422
  46   2.0000      -0.523634       -14.2488
  47   2.0000      -0.516588       -14.0571
  48   2.0000      -0.513407       -13.9705
  49   2.0000      -0.504453       -13.7269
  50   2.0000      -0.494766       -13.4633
  51   2.0000      -0.486871       -13.2484
  52   2.0000      -0.482688       -13.1346
  53   2.0000      -0.465983       -12.6800
  54   2.0000      -0.461530       -12.5589
  55   2.0000      -0.445715       -12.1285
  56   2.0000      -0.443341       -12.0639
  57   2.0000      -0.437372       -11.9015
  58   2.0000      -0.431907       -11.7528
  59   2.0000      -0.420774       -11.4498
  60   2.0000      -0.416537       -11.3345
  61   2.0000      -0.408199       -11.1077
  62   2.0000      -0.405331       -11.0296
  63   2.0000      -0.367437        -9.9985
  64   2.0000      -0.337192        -9.1755
  65   2.0000      -0.327382        -8.9085
  66   2.0000      -0.282012        -7.6739
  67   0.0000       0.012554         0.3416
  68   0.0000       0.086365         2.3501
  69   0.0000       0.094743         2.5781
  70   0.0000       0.120004         3.2655
  71   0.0000       0.124350         3.3837

MULLIKEN ATOMIC CHARGES
-----------------------
   0 S :    0.077893
   1 C :   -0.111490
   2 C :   -0.092729
   3 C :   -0.001097
   4 C :   -0.071951
   5 H :   -0.014711
   6 C :    0.096132
   7 H :    0.024733
   8 H :    0.017087
   9 C :   -0.102956
  10 H :    0.019426
  11 H :    0.014376
  12 C :   -0.040089
  13 H :    0.043939
  14 H :    0.045481
  15 H :    0.026434
  16 S :    0.092187
  17 C :   -0.083669
  18 C :   -0.004664
  19 C :   -0.065348
  20 C :   -0.105923
  21 H :    0.001732
  22 C :    0.047306
  23 H :    0.025818
  24 H :    0.017384
  25 C :   -0.079927
  26 H :    0.038754
  27 H :    0.033824
  28 C :   -0.042841
  29 H :    0.027612
  30 H :    0.028522
  31 H :    0.037803
  32 H :    0.039209
  33 H :    0.061741
Sum of atomic charges:    0.0000000

LOEWDIN ATOMIC CHARGES
----------------------
   0 S :    0.354733
   1 C :   -0.180022
   2 C :   -0.066607
   3 C :   -0.074802
   4 C :   -0.154283
   5 H :    0.028554
   6 C :   -0.030114
   7 H :    0.036850
   8 H :    0.024660
   9 C :   -0.049696
  10 H :    0.020623
  11 H :    0.026106
  12 C :   -0.069561
  13 H :    0.040409
  14 H :    0.026156
  15 H :    0.020545
  16 S :    0.408647
  17 C :   -0.182423
  18 C :   -0.067887
  19 C :   -0.047247
  20 C :   -0.187215
  21 H :    0.024101
  22 C :   -0.040842
  23 H :    0.027131
  24 H :    0.034747
  25 C :   -0.044156
  26 H :    0.033873
  27 H :    0.020254
  28 C :   -0.063355
  29 H :    0.018238
  30 H :    0.027805
  31 H :    0.026503
  32 H :    0.028328
  33 H :    0.029946

  Mayer bond orders larger than 0.100000
B(  0-S ,  1-C ) :   1.0953 B(  0-S ,  4-C ) :   1.1156 B(  1-C ,  2-C ) :   1.6559
B(  1-C , 32-H ) :   0.9670 B(  2-C ,  3-C ) :   1.2236 B(  2-C ,  6-C ) :   1.0340
B(  3-C ,  4-C ) :   1.5986 B(  3-C ,  5-H ) :   0.9794 B(  4-C , 20-C ) :   1.1183
B(  6-C ,  7-H ) :   0.9371 B(  6-C ,  8-H ) :   0.9390 B(  6-C ,  9-C ) :   1.0711
B(  9-C , 10-H ) :   0.9529 B(  9-C , 11-H ) :   0.9479 B(  9-C , 12-C ) :   1.0930
B( 12-C , 13-H ) :   0.9645 B( 12-C , 14-H ) :   0.9659 B( 12-C , 15-H ) :   0.9712
B( 16-S , 17-C ) :   1.1752 B( 16-S , 20-C ) :   1.1397 B( 17-C , 18-C ) :   1.5685
B( 17-C , 20-C ) :   0.1076 B( 17-C , 33-H ) :   0.9676 B( 18-C , 19-C ) :   1.2989
B( 18-C , 21-H ) :   0.9931 B( 19-C , 20-C ) :   1.5188 B( 19-C , 22-C ) :   1.0594
B( 22-C , 23-H ) :   0.9358 B( 22-C , 24-H ) :   0.9181 B( 22-C , 25-C ) :   1.0520
B( 25-C , 26-H ) :   0.9490 B( 25-C , 27-H ) :   0.9623 B( 25-C , 28-C ) :   1.0889
B( 28-C , 29-H ) :   0.9691 B( 28-C , 30-H ) :   0.9674 B( 28-C , 31-H ) :   0.9702

Dispersion correction           -0.015542106
FINAL SINGLE POINT ENERGY     -1339.873033745792

DIPOLE MOMENT
-------------
                                X             Y             Z
Electronic contribution:     -2.15109     -17.21809      25.71548
Nuclear contribution   :      2.20757      17.85939     -26.16046
                        -----------------------------------------
Total Dipole Moment    :      0.05649       0.64130      -0.44498
                        -----------------------------------------
Magnitude (a.u.)       :      0.78260
Magnitude (Debye)      :      1.98921

Rotational constants in cm-1:     0.018190     0.010818     0.007268
Rotational constants in MHz :   545.331916   324.325476   217.895245

                             ****ORCA TERMINATED NORMALLY****
TOTAL RUN TIME: 0 days 0 hours 0 minutes 35 seconds 765 msec
