                         Program Version 4.2.1 -  RELEASE  -
|  1> ! wB97X-D3 SP def2-SVP
|  2> %pal
|  3> nprocs 16
|  4> end
|  5>
|  6> * xyz 0 1
|  7> S 	 13.3854 	 18.3681 	 39.6604
|  8> C 	 13.4224 	 17.0296 	 38.5319
|  9> C 	 12.5862 	 17.3048 	 37.4194
| 10> C 	 11.7948 	 18.4982 	 37.6414
| 11> C 	 12.0006 	 19.1397 	 38.829
| 12> H 	 11.2452 	 19.0888 	 36.8817
| 13> C 	 12.5808 	 16.4916 	 36.1529
| 14> H 	 13.6147 	 16.3291 	 35.9265
| 15> H 	 12.1755 	 17.1516 	 35.3476
| 16> C 	 11.8388 	 15.1394 	 36.2099
| 17> H 	 12.0808 	 14.5079 	 35.2672
| 18> H 	 12.2786 	 14.6489 	 37.1071
| 19> C 	 10.3254 	 15.2809 	 36.4339
| 20> H 	 10.0122 	 14.2738 	 36.3876
| 21> H 	 10.0461 	 15.6482 	 37.4493
| 22> H 	 9.8136 	 15.8447 	 35.6868
| 23> S 	 12.9076 	 21.6559 	 39.3808
| 24> C 	 11.7488 	 22.8993 	 39.7871
| 25> C 	 10.4416 	 22.4724 	 39.5745
| 26> C 	 10.3835 	 21.1054 	 39.1339
| 27> C 	 11.623 	 20.5145 	 39.0825
| 28> H 	 9.68499 	 23.1856 	 39.8311
| 29> C 	 9.08656 	 20.4175 	 38.8496
| 30> H 	 9.21136 	 19.654 	 38.0876
| 31> H 	 8.45756 	 21.1314 	 38.352
| 32> C 	 8.50857 	 19.7153 	 40.0782
| 33> H 	 9.16842 	 19.0644 	 40.6594
| 34> H 	 7.70139 	 18.9838 	 39.7948
| 35> C 	 7.80937 	 20.6489 	 41.0876
| 36> H 	 7.31779 	 19.9995 	 41.7863
| 37> H 	 7.06957 	 21.2991 	 40.6761
| 38> H 	 8.58125 	 21.3128 	 41.6414
| 39> H 	 14.1776 	 16.2679 	 38.6374
| 40> H 	 11.9893 	 23.8507 	 40.17
| 41> *
| 42>
| 43>                          ****END OF INPUT****

CARTESIAN COORDINATES (ANGSTROEM)
---------------------------------
  S     13.385400   18.368100   39.660400
  C     13.422400   17.029600   38.531900
  C     12.586200   17.304800   37.419400
  C     11.794800   18.498200   37.641400
  C     12.000600   19.139700   38.829000
  H     11.245200   19.088800   36.881700
  C     12.580800   16.491600   36.152900
  H     13.614700   16.329100   35.926500
  H     12.175500   17.151600   35.347600
  C     11.838800   15.139400   36.209900
  H     12.080800   14.507900   35.267200
  H     12.278600   14.648900   37.107100
  C     10.325400   15.280900   36.433900
  H     10.012200   14.273800   36.387600
  H     10.046100   15.648200   37.449300
  H      9.813600   15.844700   35.686800
  S     12.907600   21.655900   39.380800
  C     11.748800   22.899300   39.787100
  C     10.441600   22.472400   39.574500
  C     10.383500   21.105400   39.133900
  C     11.623000   20.514500   39.082500
  H      9.684990   23.185600   39.831100
  C      9.086560   20.417500   38.849600
  H      9.211360   19.654000   38.087600
  H      8.457560   21.131400   38.352000
  C      8.508570   19.715300   40.078200
  H      9.168420   19.064400   40.659400
  H      7.701390   18.983800   39.794800
  C      7.809370   20.648900   41.087600
  H      7.317790   19.999500   41.786300
  H      7.069570   21.299100   40.676100
  H      8.581250   21.312800   41.641400
  H     14.177600   16.267900   38.637400
  H     11.989300   23.850700   40.170000

 Total Charge           Charge          ....    0
 Multiplicity           Mult            ....    1
 Number of Electrons    NEL             ....  134
 Basis Dimension        Dim             ....  322

ORBITAL ENERGIES
----------------

  NO   OCC          E(Eh)            E(eV)
   0   2.0000     -88.966101     -2420.8907
   1   2.0000     -88.963652     -2420.8240
   2   2.0000     -10.328158      -281.0435
   3   2.0000     -10.321995      -280.8758
   4   2.0000     -10.321325      -280.8575
   5   2.0000     -10.312334      -280.6129
   6   2.0000     -10.309528      -280.5365
   7   2.0000     -10.299966      -280.2763
   8   2.0000     -10.298151      -280.2269
   9   2.0000     -10.297979      -280.2223
  10   2.0000     -10.293112      -280.0898
  11   2.0000     -10.290695      -280.0240
  12   2.0000     -10.287121      -279.9268
  13   2.0000     -10.286707      -279.9155
  14   2.0000     -10.275091      -279.5994
  15   2.0000     -10.273336      -279.5517
  16   2.0000      -8.080218      -219.8739
  17   2.0000      -8.078642      -219.8310
  18   2.0000      -6.038767      -164.3232
  19   2.0000      -6.037163      -164.2796
  20   2.0000      -6.034811      -164.2156
  21   2.0000      -6.033122      -164.1696
  22   2.0000      -6.030955      -164.1106
  23   2.0000      -6.029356      -164.0671
  24   2.0000      -1.006421       -27.3861
  25   2.0000      -0.980438       -26.6791
  26   2.0000      -0.909693       -24.7540
  27   2.0000      -0.907770       -24.7017
  28   2.0000      -0.870177       -23.6787
  29   2.0000      -0.848696       -23.0942
  30   2.0000      -0.842300       -22.9202
  31   2.0000      -0.817104       -22.2345
  32   2.0000      -0.783638       -21.3239
  33   2.0000      -0.770960       -20.9789
  34   2.0000      -0.705102       -19.1868
  35   2.0000      -0.697775       -18.9874
  36   2.0000      -0.688289       -18.7293
  37   2.0000      -0.663454       -18.0535
  38   2.0000      -0.643472       -17.5098
  39   2.0000      -0.611516       -16.6402
  40   2.0000      -0.593315       -16.1449
  41   2.0000      -0.570813       -15.5326
  42   2.0000      -0.552082       -15.0229
  43   2.0000      -0.548617       -14.9286
  44   2.0000      -0.541963       -14.7476
  45   2.0000      -0.534747       -14.5512
  46   2.0000      -0.518830       -14.1181
  47   2.0000      -0.515181       -14.0188
  48   2.0000      -0.504648       -13.7322
  49   2.0000      -0.493677       -13.4336
  50   2.0000      -0.489131       -13.3099
  51   2.0000      -0.478739       -13.0272
  52   2.0000      -0.469538       -12.7768
  53   2.0000      -0.463839       -12.6217
  54   2.0000      -0.462483       -12.5848
  55   2.0000      -0.444733       -12.1018
  56   2.0000      -0.440583       -11.9889
  57   2.0000      -0.433847       -11.8056
  58   2.0000      -0.429702       -11.6928
  59   2.0000      -0.428898       -11.6709
  60   2.0000      -0.417604       -11.3636
  61   2.0000      -0.413509       -11.2522
  62   2.0000      -0.406442       -11.0599
  63   2.0000      -0.350844        -9.5469
  64   2.0000      -0.330716        -8.9992
  65   2.0000      -0.323867        -8.8129
  66   2.0000      -0.290029        -7.8921
  67   0.0000       0.025087         0.6826
  68   0.0000       0.064564         1.7569
  69   0.0000       0.106334         2.8935
  70   0.0000       0.121305         3.3009
  71   0.0000       0.129995         3.5374

MULLIKEN ATOMIC CHARGES
-----------------------
   0 S :    0.092729
   1 C :   -0.120057
   2 C :   -0.110534
   3 C :    0.017867
   4 C :   -0.138716
   5 H :    0.043106
   6 C :    0.077239
   7 H :    0.024341
   8 H :    0.025166
   9 C :   -0.111897
  10 H :    0.049793
  11 H :    0.031465
  12 C :   -0.026769
  13 H :    0.023015
  14 H :    0.047127
  15 H :    0.026946
  16 S :    0.109659
  17 C :   -0.089577
  18 C :   -0.035897
  19 C :   -0.046498
  20 C :   -0.162850
  21 H :    0.015607
  22 C :    0.124126
  23 H :    0.008082
  24 H :    0.019870
  25 C :   -0.083192
  26 H :    0.037875
  27 H :    0.026358
  28 C :   -0.064918
  29 H :    0.028026
  30 H :    0.021810
  31 H :    0.046212
  32 H :    0.056720
  33 H :    0.037766
Sum of atomic charges:    0.0000000

LOEWDIN ATOMIC CHARGES
----------------------
   0 S :    0.390228
   1 C :   -0.191820
   2 C :   -0.059597
   3 C :   -0.063359
   4 C :   -0.189322
   5 H :    0.039751
   6 C :   -0.040481
   7 H :    0.028400
   8 H :    0.031532
   9 C :   -0.043353
  10 H :    0.034013
  11 H :    0.026909
  12 C :   -0.064090
  13 H :    0.023350
  14 H :    0.033949
  15 H :    0.019440
  16 S :    0.405523
  17 C :   -0.180312
  18 C :   -0.067485
  19 C :   -0.057676
  20 C :   -0.197722
  21 H :    0.030875
  22 C :   -0.032356
  23 H :    0.029395
  24 H :    0.030999
  25 C :   -0.039988
  26 H :    0.030309
  27 H :    0.026886
  28 C :   -0.069639
  29 H :    0.023120
  30 H :    0.015508
  31 H :    0.032092
  32 H :    0.025947
  33 H :    0.018972

  Mayer bond orders larger than 0.100000
B(  0-S ,  1-C ) :   1.1525 B(  0-S ,  4-C ) :   1.1364 B(  1-C ,  2-C ) :   1.5735
B(  1-C , 32-H ) :   0.9733 B(  2-C ,  3-C ) :   1.2553 B(  2-C ,  6-C ) :   1.0202
B(  3-C ,  4-C ) :   1.5802 B(  3-C ,  5-H ) :   0.9720 B(  4-C , 20-C ) :   1.0494
B(  6-C ,  7-H ) :   0.9368 B(  6-C ,  8-H ) :   0.9443 B(  6-C ,  9-C ) :   1.0669
B(  9-C , 10-H ) :   0.9563 B(  9-C , 11-H ) :   0.9549 B(  9-C , 12-C ) :   1.0746
B( 12-C , 13-H ) :   0.9723 B( 12-C , 14-H ) :   0.9718 B( 12-C , 15-H ) :   0.9774
B( 16-S , 17-C ) :   1.1490 B( 16-S , 20-C ) :   1.1409 B( 17-C , 18-C ) :   1.6219
B( 17-C , 33-H ) :   0.9726 B( 18-C , 19-C ) :   1.2161 B( 18-C , 21-H ) :   0.9970
B( 19-C , 20-C ) :   1.6136 B( 19-C , 22-C ) :   1.0518 B( 22-C , 23-H ) :   0.9221
B( 22-C , 24-H ) :   0.9340 B( 22-C , 25-C ) :   1.0634 B( 25-C , 26-H ) :   0.9566
B( 25-C , 27-H ) :   0.9565 B( 25-C , 28-C ) :   1.0828 B( 28-C , 29-H ) :   0.9742
B( 28-C , 30-H ) :   0.9768 B( 28-C , 31-H ) :   0.9724

Dispersion correction           -0.014695094
FINAL SINGLE POINT ENERGY     -1339.876969135872

DIPOLE MOMENT
-------------
                                X             Y             Z
Electronic contribution:     20.82034      13.25223       6.78745
Nuclear contribution   :    -21.13656     -13.44372      -7.18634
                        -----------------------------------------
Total Dipole Moment    :     -0.31622      -0.19149      -0.39889
                        -----------------------------------------
Magnitude (a.u.)       :      0.54385
Magnitude (Debye)      :      1.38237

Rotational constants in cm-1:     0.019884     0.008770     0.006931
Rotational constants in MHz :   596.109664   262.912595   207.776820

                             ****ORCA TERMINATED NORMALLY****
TOTAL RUN TIME: 0 days 0 hours 0 minutes 36 seconds 155 msec
