                         Program Version 4.2.1 -  RELEASE  -
|  1> ! wB97X-D3 SP def2-SVP
|  2> %pal
|  3> nprocs 16
|  4> end
|  5>
|  6> * xyz 0 1
|  7> S 	 -59.3858 	 27.4771 	 95.341
|  8> C 	 -57.8134 	 26.9207 	 95.746
|  9> C 	 -57.1008 	 26.3581 	 94.6683
| 10> C 	 -57.8473 	 26.6406 	 93.4458
| 11> C 	 -59.1494 	 27.1503 	 93.6785
| 12> H 	 -57.616 	 26.3798 	 92.5104
| 13> C 	 -55.7078 	 25.8247 	 94.7904
| 14> H 	 -55.0896 	 26.1921 	 93.9616
| 15> H 	 -55.6822 	 24.8122 	 94.4902
| 16> C 	 -54.9467 	 26.0898 	 96.1219
| 17> H 	 -55.1021 	 27.1477 	 96.3654
| 18> H 	 -55.3627 	 25.5774 	 96.9796
| 19> C 	 -53.4847 	 25.7494 	 96.2734
| 20> H 	 -52.8102 	 26.449 	 95.7887
| 21> H 	 -53.1946 	 25.64 	 97.3846
| 22> H 	 -53.2518 	 24.7757 	 95.7498
| 23> S 	 -61.8892 	 26.7594 	 93.2176
| 24> C 	 -62.5332 	 26.823 	 91.6245
| 25> C 	 -61.4929 	 27.0648 	 90.7756
| 26> C 	 -60.2571 	 27.3696 	 91.3463
| 27> C 	 -60.2294 	 27.1959 	 92.7109
| 28> H 	 -61.6583 	 26.9499 	 89.6612
| 29> C 	 -59.0619 	 27.6752 	 90.4217
| 30> H 	 -58.6244 	 26.6668 	 90.374
| 31> H 	 -58.3696 	 28.3885 	 90.9828
| 32> C 	 -59.3056 	 28.2398 	 88.9169
| 33> H 	 -59.8467 	 27.4689 	 88.3694
| 34> H 	 -58.3559 	 28.4232 	 88.3968
| 35> C 	 -60.0765 	 29.5084 	 88.8674
| 36> H 	 -60.9721 	 29.4647 	 89.5323
| 37> H 	 -60.3832 	 29.5241 	 87.8504
| 38> H 	 -59.468 	 30.42 	 89.0883
| 39> H 	 -57.4517 	 26.8331 	 96.7331
| 40> H 	 -63.5292 	 26.4368 	 91.2721
| 41> *
| 42>
| 43>                          ****END OF INPUT****

CARTESIAN COORDINATES (ANGSTROEM)
---------------------------------
  S    -59.385800   27.477100   95.341000
  C    -57.813400   26.920700   95.746000
  C    -57.100800   26.358100   94.668300
  C    -57.847300   26.640600   93.445800
  C    -59.149400   27.150300   93.678500
  H    -57.616000   26.379800   92.510400
  C    -55.707800   25.824700   94.790400
  H    -55.089600   26.192100   93.961600
  H    -55.682200   24.812200   94.490200
  C    -54.946700   26.089800   96.121900
  H    -55.102100   27.147700   96.365400
  H    -55.362700   25.577400   96.979600
  C    -53.484700   25.749400   96.273400
  H    -52.810200   26.449000   95.788700
  H    -53.194600   25.640000   97.384600
  H    -53.251800   24.775700   95.749800
  S    -61.889200   26.759400   93.217600
  C    -62.533200   26.823000   91.624500
  C    -61.492900   27.064800   90.775600
  C    -60.257100   27.369600   91.346300
  C    -60.229400   27.195900   92.710900
  H    -61.658300   26.949900   89.661200
  C    -59.061900   27.675200   90.421700
  H    -58.624400   26.666800   90.374000
  H    -58.369600   28.388500   90.982800
  C    -59.305600   28.239800   88.916900
  H    -59.846700   27.468900   88.369400
  H    -58.355900   28.423200   88.396800
  C    -60.076500   29.508400   88.867400
  H    -60.972100   29.464700   89.532300
  H    -60.383200   29.524100   87.850400
  H    -59.468000   30.420000   89.088300
  H    -57.451700   26.833100   96.733100
  H    -63.529200   26.436800   91.272100

 Total Charge           Charge          ....    0
 Multiplicity           Mult            ....    1
 Number of Electrons    NEL             ....  134
 Basis Dimension        Dim             ....  322

ORBITAL ENERGIES
----------------

  NO   OCC          E(Eh)            E(eV)
   0   2.0000     -88.968347     -2420.9518
   1   2.0000     -88.962725     -2420.7988
   2   2.0000     -10.330571      -281.1091
   3   2.0000     -10.329462      -281.0790
   4   2.0000     -10.317130      -280.7434
   5   2.0000     -10.309442      -280.5342
   6   2.0000     -10.309005      -280.5223
   7   2.0000     -10.303227      -280.3650
   8   2.0000     -10.300441      -280.2893
   9   2.0000     -10.295466      -280.1539
  10   2.0000     -10.293671      -280.1050
  11   2.0000     -10.292475      -280.0725
  12   2.0000     -10.290581      -280.0210
  13   2.0000     -10.290105      -280.0080
  14   2.0000     -10.289672      -279.9962
  15   2.0000     -10.274640      -279.5872
  16   2.0000      -8.084077      -219.9789
  17   2.0000      -8.077486      -219.7996
  18   2.0000      -6.042449      -164.4234
  19   2.0000      -6.038363      -164.3122
  20   2.0000      -6.036099      -164.2506
  21   2.0000      -6.035026      -164.2214
  22   2.0000      -6.031955      -164.1378
  23   2.0000      -6.028139      -164.0340
  24   2.0000      -1.010456       -27.4959
  25   2.0000      -0.988432       -26.8966
  26   2.0000      -0.914413       -24.8825
  27   2.0000      -0.903891       -24.5961
  28   2.0000      -0.871838       -23.7239
  29   2.0000      -0.859158       -23.3789
  30   2.0000      -0.847968       -23.0744
  31   2.0000      -0.814279       -22.1577
  32   2.0000      -0.784003       -21.3338
  33   2.0000      -0.772399       -21.0181
  34   2.0000      -0.712595       -19.3907
  35   2.0000      -0.699464       -19.0334
  36   2.0000      -0.689612       -18.7653
  37   2.0000      -0.662406       -18.0250
  38   2.0000      -0.641506       -17.4563
  39   2.0000      -0.614459       -16.7203
  40   2.0000      -0.589855       -16.0508
  41   2.0000      -0.573203       -15.5977
  42   2.0000      -0.566165       -15.4061
  43   2.0000      -0.552907       -15.0454
  44   2.0000      -0.542752       -14.7690
  45   2.0000      -0.527046       -14.3416
  46   2.0000      -0.521421       -14.1886
  47   2.0000      -0.515191       -14.0191
  48   2.0000      -0.506376       -13.7792
  49   2.0000      -0.502006       -13.6603
  50   2.0000      -0.486064       -13.2265
  51   2.0000      -0.483151       -13.1472
  52   2.0000      -0.474529       -12.9126
  53   2.0000      -0.464525       -12.6404
  54   2.0000      -0.462263       -12.5788
  55   2.0000      -0.452933       -12.3249
  56   2.0000      -0.441155       -12.0044
  57   2.0000      -0.440299       -11.9812
  58   2.0000      -0.435341       -11.8462
  59   2.0000      -0.424856       -11.5609
  60   2.0000      -0.417261       -11.3542
  61   2.0000      -0.410944       -11.1824
  62   2.0000      -0.407081       -11.0772
  63   2.0000      -0.356994        -9.7143
  64   2.0000      -0.328863        -8.9488
  65   2.0000      -0.328162        -8.9297
  66   2.0000      -0.282898        -7.6981
  67   0.0000       0.024676         0.6715
  68   0.0000       0.079604         2.1661
  69   0.0000       0.115525         3.1436
  70   0.0000       0.116370         3.1666
  71   0.0000       0.135722         3.6932

MULLIKEN ATOMIC CHARGES
-----------------------
   0 S :    0.131697
   1 C :   -0.105123
   2 C :   -0.099878
   3 C :    0.075096
   4 C :   -0.156117
   5 H :   -0.059550
   6 C :    0.111676
   7 H :    0.020933
   8 H :    0.016417
   9 C :   -0.104805
  10 H :    0.034639
  11 H :    0.031805
  12 C :   -0.071960
  13 H :    0.034188
  14 H :    0.051554
  15 H :    0.032104
  16 S :    0.090217
  17 C :   -0.098129
  18 C :   -0.081511
  19 C :   -0.049991
  20 C :   -0.122293
  21 H :    0.035926
  22 C :   -0.006640
  23 H :    0.060946
  24 H :    0.051856
  25 C :   -0.069477
  26 H :    0.027295
  27 H :    0.037670
  28 C :   -0.049350
  29 H :    0.048248
  30 H :    0.024620
  31 H :    0.043176
  32 H :    0.035469
  33 H :    0.079291
Sum of atomic charges:    0.0000000

LOEWDIN ATOMIC CHARGES
----------------------
   0 S :    0.442526
   1 C :   -0.207245
   2 C :   -0.048817
   3 C :   -0.044128
   4 C :   -0.203387
   5 H :    0.001836
   6 C :   -0.035779
   7 H :    0.037803
   8 H :    0.029445
   9 C :   -0.051920
  10 H :    0.027159
  11 H :    0.024270
  12 C :   -0.071711
  13 H :    0.020445
  14 H :    0.040114
  15 H :    0.029440
  16 S :    0.397831
  17 C :   -0.208013
  18 C :   -0.089091
  19 C :   -0.069252
  20 C :   -0.185307
  21 H :    0.038158
  22 C :   -0.039946
  23 H :    0.035171
  24 H :    0.038086
  25 C :   -0.040216
  26 H :    0.019583
  27 H :    0.031356
  28 C :   -0.069721
  29 H :    0.031157
  30 H :    0.024298
  31 H :    0.030781
  32 H :    0.017258
  33 H :    0.047815

  Mayer bond orders larger than 0.100000
B(  0-S ,  1-C ) :   1.1514 B(  0-S ,  4-C ) :   1.1643 B(  1-C ,  2-C ) :   1.6017
B(  1-C , 32-H ) :   0.9587 B(  2-C ,  3-C ) :   1.2538 B(  2-C ,  6-C ) :   1.0336
B(  3-C ,  4-C ) :   1.5316 B(  3-C ,  5-H ) :   1.0034 B(  4-C , 20-C ) :   1.0784
B(  6-C ,  7-H ) :   0.9357 B(  6-C ,  8-H ) :   0.9112 B(  6-C ,  9-C ) :   1.0677
B(  9-C , 10-H ) :   0.9510 B(  9-C , 11-H ) :   0.9529 B(  9-C , 12-C ) :   1.0837
B( 12-C , 13-H ) :   0.9742 B( 12-C , 14-H ) :   0.9752 B( 12-C , 15-H ) :   0.9726
B( 16-S , 17-C ) :   1.1577 B( 16-S , 20-C ) :   1.1312 B( 17-C , 18-C ) :   1.5975
B( 17-C , 20-C ) :   0.1010 B( 17-C , 33-H ) :   0.9573 B( 18-C , 19-C ) :   1.2762
B( 18-C , 21-H ) :   0.9719 B( 19-C , 20-C ) :   1.5894 B( 19-C , 22-C ) :   1.0092
B( 22-C , 23-H ) :   0.9328 B( 22-C , 24-H ) :   0.9413 B( 22-C , 25-C ) :   1.0630
B( 25-C , 26-H ) :   0.9525 B( 25-C , 27-H ) :   0.9533 B( 25-C , 28-C ) :   1.0848
B( 28-C , 29-H ) :   0.9716 B( 28-C , 30-H ) :   0.9720 B( 28-C , 31-H ) :   0.9738

Dispersion correction           -0.013457210
FINAL SINGLE POINT ENERGY     -1339.858870817732

DIPOLE MOMENT
-------------
                                X             Y             Z
Electronic contribution:    -22.90076      -0.65526      10.38657
Nuclear contribution   :     23.46864       0.34005     -10.88485
                        -----------------------------------------
Total Dipole Moment    :      0.56788      -0.31521      -0.49829
                        -----------------------------------------
Magnitude (a.u.)       :      0.81862
Magnitude (Debye)      :      2.08076

Rotational constants in cm-1:     0.022883     0.006808     0.005585
Rotational constants in MHz :   686.019556   204.110738   167.430830

                             ****ORCA TERMINATED NORMALLY****
TOTAL RUN TIME: 0 days 0 hours 0 minutes 28 seconds 813 msec
