                         Program Version 4.2.1 -  RELEASE  -
|  1> ! wB97X-D3 SP def2-SVP
|  2> %pal
|  3> nprocs 16
|  4> end
|  5>
|  6> * xyz 0 1
|  7> S 	 -72.6906 	 44.5169 	 124.836
|  8> C 	 -73.862 	 43.3411 	 125.365
|  9> C 	 -74.9947 	 43.452 	 124.543
| 10> C 	 -74.9493 	 44.5976 	 123.738
| 11> C 	 -73.7693 	 45.3257 	 123.781
| 12> H 	 -75.7756 	 44.8962 	 123.138
| 13> C 	 -76.1949 	 42.5639 	 124.626
| 14> H 	 -77.0177 	 43.0428 	 124.1
| 15> H 	 -76.3903 	 42.7538 	 125.688
| 16> C 	 -76.0681 	 41.0466 	 124.285
| 17> H 	 -75.8002 	 41.009 	 123.24
| 18> H 	 -75.1406 	 40.5925 	 124.623
| 19> C 	 -77.2502 	 40.216 	 124.454
| 20> H 	 -77.0233 	 39.2354 	 124.137
| 21> H 	 -77.6054 	 40.0913 	 125.473
| 22> H 	 -78.1346 	 40.6145 	 123.8
| 23> S 	 -73.4312 	 48.0196 	 124.353
| 24> C 	 -73.4051 	 49.1825 	 123.041
| 25> C 	 -73.7864 	 48.617 	 121.857
| 26> C 	 -73.9484 	 47.2014 	 121.957
| 27> C 	 -73.507 	 46.6672 	 123.185
| 28> H 	 -74.0518 	 49.2092 	 120.986
| 29> C 	 -74.2566 	 46.3772 	 120.788
| 30> H 	 -75.233 	 45.8999 	 120.856
| 31> H 	 -73.4556 	 45.6589 	 120.982
| 32> C 	 -74.2032 	 46.9384 	 119.329
| 33> H 	 -73.3048 	 47.5536 	 119.342
| 34> H 	 -75.0175 	 47.6779 	 119.207
| 35> C 	 -74.0137 	 46.0468 	 118.1
| 36> H 	 -73.1911 	 45.2546 	 118.38
| 37> H 	 -73.6847 	 46.6293 	 117.306
| 38> H 	 -74.9707 	 45.5896 	 117.739
| 39> H 	 -73.7943 	 42.4993 	 125.963
| 40> H 	 -73.3027 	 50.2205 	 123.287
| 41> *
| 42>
| 43>                          ****END OF INPUT****

CARTESIAN COORDINATES (ANGSTROEM)
---------------------------------
  S    -72.690600   44.516900  124.836000
  C    -73.862000   43.341100  125.365000
  C    -74.994700   43.452000  124.543000
  C    -74.949300   44.597600  123.738000
  C    -73.769300   45.325700  123.781000
  H    -75.775600   44.896200  123.138000
  C    -76.194900   42.563900  124.626000
  H    -77.017700   43.042800  124.100000
  H    -76.390300   42.753800  125.688000
  C    -76.068100   41.046600  124.285000
  H    -75.800200   41.009000  123.240000
  H    -75.140600   40.592500  124.623000
  C    -77.250200   40.216000  124.454000
  H    -77.023300   39.235400  124.137000
  H    -77.605400   40.091300  125.473000
  H    -78.134600   40.614500  123.800000
  S    -73.431200   48.019600  124.353000
  C    -73.405100   49.182500  123.041000
  C    -73.786400   48.617000  121.857000
  C    -73.948400   47.201400  121.957000
  C    -73.507000   46.667200  123.185000
  H    -74.051800   49.209200  120.986000
  C    -74.256600   46.377200  120.788000
  H    -75.233000   45.899900  120.856000
  H    -73.455600   45.658900  120.982000
  C    -74.203200   46.938400  119.329000
  H    -73.304800   47.553600  119.342000
  H    -75.017500   47.677900  119.207000
  C    -74.013700   46.046800  118.100000
  H    -73.191100   45.254600  118.380000
  H    -73.684700   46.629300  117.306000
  H    -74.970700   45.589600  117.739000
  H    -73.794300   42.499300  125.963000
  H    -73.302700   50.220500  123.287000

 Total Charge           Charge          ....    0
 Multiplicity           Mult            ....    1
 Number of Electrons    NEL             ....  134
 Basis Dimension        Dim             ....  322

ORBITAL ENERGIES
----------------

  NO   OCC          E(Eh)            E(eV)
   0   2.0000     -88.967207     -2420.9208
   1   2.0000     -88.960906     -2420.7493
   2   2.0000     -10.328991      -281.0661
   3   2.0000     -10.327874      -281.0357
   4   2.0000     -10.317480      -280.7529
   5   2.0000     -10.306942      -280.4661
   6   2.0000     -10.306921      -280.4656
   7   2.0000     -10.295963      -280.1674
   8   2.0000     -10.293255      -280.0937
   9   2.0000     -10.290987      -280.0320
  10   2.0000     -10.290982      -280.0318
  11   2.0000     -10.289177      -279.9827
  12   2.0000     -10.288387      -279.9613
  13   2.0000     -10.285648      -279.8867
  14   2.0000     -10.284550      -279.8568
  15   2.0000     -10.280403      -279.7440
  16   2.0000      -8.082068      -219.9242
  17   2.0000      -8.075354      -219.7416
  18   2.0000      -6.040465      -164.3694
  19   2.0000      -6.036337      -164.2571
  20   2.0000      -6.033863      -164.1898
  21   2.0000      -6.033140      -164.1701
  22   2.0000      -6.030066      -164.0864
  23   2.0000      -6.025962      -163.9748
  24   2.0000      -1.007449       -27.4141
  25   2.0000      -0.986588       -26.8464
  26   2.0000      -0.916226       -24.9318
  27   2.0000      -0.909240       -24.7417
  28   2.0000      -0.872825       -23.7508
  29   2.0000      -0.857597       -23.3364
  30   2.0000      -0.849934       -23.1279
  31   2.0000      -0.816778       -22.2257
  32   2.0000      -0.783603       -21.3229
  33   2.0000      -0.771712       -20.9993
  34   2.0000      -0.708753       -19.2862
  35   2.0000      -0.705971       -19.2105
  36   2.0000      -0.698730       -19.0134
  37   2.0000      -0.649990       -17.6871
  38   2.0000      -0.638813       -17.3830
  39   2.0000      -0.617820       -16.8117
  40   2.0000      -0.599970       -16.3260
  41   2.0000      -0.577928       -15.7262
  42   2.0000      -0.571019       -15.5382
  43   2.0000      -0.556019       -15.1301
  44   2.0000      -0.532367       -14.4864
  45   2.0000      -0.529136       -14.3985
  46   2.0000      -0.522187       -14.2094
  47   2.0000      -0.515299       -14.0220
  48   2.0000      -0.507091       -13.7986
  49   2.0000      -0.501278       -13.6405
  50   2.0000      -0.494801       -13.4642
  51   2.0000      -0.482139       -13.1197
  52   2.0000      -0.471079       -12.8187
  53   2.0000      -0.462167       -12.5762
  54   2.0000      -0.460683       -12.5358
  55   2.0000      -0.455904       -12.4058
  56   2.0000      -0.445559       -12.1243
  57   2.0000      -0.436378       -11.8744
  58   2.0000      -0.429008       -11.6739
  59   2.0000      -0.423941       -11.5360
  60   2.0000      -0.421001       -11.4560
  61   2.0000      -0.407648       -11.0927
  62   2.0000      -0.404857       -11.0167
  63   2.0000      -0.343059        -9.3351
  64   2.0000      -0.325309        -8.8521
  65   2.0000      -0.322388        -8.7726
  66   2.0000      -0.294090        -8.0026
  67   0.0000       0.023608         0.6424
  68   0.0000       0.064065         1.7433
  69   0.0000       0.110234         2.9996
  70   0.0000       0.127453         3.4682
  71   0.0000       0.133638         3.6365

MULLIKEN ATOMIC CHARGES
-----------------------
   0 S :    0.127812
   1 C :   -0.074502
   2 C :   -0.131624
   3 C :    0.038760
   4 C :   -0.164568
   5 H :   -0.009283
   6 C :    0.059994
   7 H :    0.012547
   8 H :    0.039517
   9 C :   -0.046584
  10 H :    0.015288
  11 H :    0.013603
  12 C :   -0.030455
  13 H :    0.022786
  14 H :    0.029792
  15 H :    0.040344
  16 S :    0.089833
  17 C :   -0.070995
  18 C :   -0.025274
  19 C :   -0.069188
  20 C :   -0.122371
  21 H :    0.025809
  22 C :    0.049981
  23 H :    0.039302
  24 H :    0.047095
  25 C :   -0.123444
  26 H :    0.022152
  27 H :    0.032341
  28 C :   -0.024157
  29 H :    0.050537
  30 H :    0.024923
  31 H :    0.039306
  32 H :    0.017042
  33 H :    0.053681
Sum of atomic charges:    0.0000000

LOEWDIN ATOMIC CHARGES
----------------------
   0 S :    0.440410
   1 C :   -0.201701
   2 C :   -0.061032
   3 C :   -0.064512
   4 C :   -0.218767
   5 H :    0.023087
   6 C :   -0.035956
   7 H :    0.028294
   8 H :    0.039721
   9 C :   -0.051356
  10 H :    0.028312
  11 H :    0.024428
  12 C :   -0.064285
  13 H :    0.024012
  14 H :    0.022718
  15 H :    0.037547
  16 S :    0.392297
  17 C :   -0.165263
  18 C :   -0.079554
  19 C :   -0.044448
  20 C :   -0.201815
  21 H :    0.035017
  22 C :   -0.044618
  23 H :    0.031407
  24 H :    0.046200
  25 C :   -0.052076
  26 H :    0.022372
  27 H :    0.022833
  28 C :   -0.061949
  29 H :    0.042427
  30 H :    0.018780
  31 H :    0.027906
  32 H :    0.015552
  33 H :    0.024014

  Mayer bond orders larger than 0.100000
B(  0-S ,  1-C ) :   1.1573 B(  0-S ,  4-C ) :   1.1801 B(  1-C ,  2-C ) :   1.5506
B(  1-C ,  4-C ) :   0.1056 B(  1-C , 32-H ) :   0.9751 B(  2-C ,  3-C ) :   1.3130
B(  2-C ,  6-C ) :   1.0072 B(  3-C ,  4-C ) :   1.5099 B(  3-C ,  5-H ) :   0.9986
B(  4-C , 20-C ) :   1.0104 B(  6-C ,  7-H ) :   0.9428 B(  6-C ,  8-H ) :   0.9403
B(  6-C ,  9-C ) :   1.0462 B(  9-C , 10-H ) :   0.9422 B(  9-C , 11-H ) :   0.9502
B(  9-C , 12-C ) :   1.1063 B( 12-C , 13-H ) :   0.9657 B( 12-C , 14-H ) :   0.9737
B( 12-C , 15-H ) :   0.9684 B( 16-S , 17-C ) :   1.1785 B( 16-S , 20-C ) :   1.1345
B( 17-C , 18-C ) :   1.5693 B( 17-C , 20-C ) :   0.1023 B( 17-C , 33-H ) :   0.9687
B( 18-C , 19-C ) :   1.2619 B( 18-C , 21-H ) :   0.9884 B( 19-C , 20-C ) :   1.5662
B( 19-C , 22-C ) :   1.0362 B( 22-C , 23-H ) :   0.9153 B( 22-C , 24-H ) :   0.9385
B( 22-C , 25-C ) :   1.0829 B( 25-C , 26-H ) :   0.9517 B( 25-C , 27-H ) :   0.9475
B( 25-C , 28-C ) :   1.0855 B( 28-C , 29-H ) :   0.9712 B( 28-C , 30-H ) :   0.9715
B( 28-C , 31-H ) :   0.9741

Dispersion correction           -0.013309359
FINAL SINGLE POINT ENERGY     -1339.840806862389

DIPOLE MOMENT
-------------
                                X             Y             Z
Electronic contribution:     15.08127      16.69301      17.75759
Nuclear contribution   :    -15.66168     -16.88098     -18.29320
                        -----------------------------------------
Total Dipole Moment    :     -0.58041      -0.18797      -0.53561
                        -----------------------------------------
Magnitude (a.u.)       :      0.81184
Magnitude (Debye)      :      2.06354

Rotational constants in cm-1:     0.017666     0.007614     0.005874
Rotational constants in MHz :   529.613526   228.266201   176.086809

                             ****ORCA TERMINATED NORMALLY****
TOTAL RUN TIME: 0 days 0 hours 0 minutes 31 seconds 804 msec
