                         Program Version 4.2.1 -  RELEASE  -
|  1> ! wB97X-D3 SP def2-SVP
|  2> %pal
|  3> nprocs 16
|  4> end
|  5>
|  6> * xyz 0 1
|  7> S 	 -60.2329 	 27.0536 	 93.2907
|  8> C 	 -59.2123 	 28.3884 	 93.8542
|  9> C 	 -58.2604 	 27.8993 	 94.763
| 10> C 	 -58.4156 	 26.5099 	 94.9715
| 11> C 	 -59.3444 	 25.8785 	 94.2418
| 12> H 	 -57.9434 	 25.9142 	 95.7073
| 13> C 	 -57.1739 	 28.7104 	 95.3832
| 14> H 	 -57.5266 	 29.7607 	 95.5955
| 15> H 	 -56.4755 	 28.8868 	 94.5304
| 16> C 	 -56.4179 	 28.2209 	 96.6633
| 17> H 	 -57.1343 	 28.1182 	 97.3968
| 18> H 	 -55.8339 	 27.3103 	 96.5076
| 19> C 	 -55.3688 	 29.2172 	 97.0968
| 20> H 	 -54.3958 	 29.1809 	 96.5607
| 21> H 	 -55.8007 	 30.2181 	 97.1258
| 22> H 	 -55.169 	 28.9758 	 98.1857
| 23> S 	 -61.3759 	 24.0268 	 94.5792
| 24> C 	 -60.9682 	 22.3264 	 94.6883
| 25> C 	 -59.5951 	 22.0578 	 94.5413
| 26> C 	 -58.8505 	 23.3117 	 94.4708
| 27> C 	 -59.6892 	 24.4449 	 94.3933
| 28> H 	 -59.2626 	 21.0228 	 94.387
| 29> C 	 -57.3495 	 23.3295 	 94.1617
| 30> H 	 -56.9249 	 22.93 	 95.056
| 31> H 	 -57.0034 	 24.3957 	 94.1992
| 32> C 	 -56.9146 	 22.5252 	 92.9222
| 33> H 	 -57.2661 	 21.5107 	 93.0029
| 34> H 	 -55.7909 	 22.5808 	 92.814
| 35> C 	 -57.4475 	 23.0519 	 91.604
| 36> H 	 -58.5106 	 23.0898 	 91.4631
| 37> H 	 -57.1154 	 22.4389 	 90.7895
| 38> H 	 -57.0987 	 24.1168 	 91.5212
| 39> H 	 -59.3849 	 29.4207 	 93.5547
| 40> H 	 -61.722 	 21.5187 	 94.6606
| 41> *
| 42>
| 43>                          ****END OF INPUT****

CARTESIAN COORDINATES (ANGSTROEM)
---------------------------------
  S    -60.232900   27.053600   93.290700
  C    -59.212300   28.388400   93.854200
  C    -58.260400   27.899300   94.763000
  C    -58.415600   26.509900   94.971500
  C    -59.344400   25.878500   94.241800
  H    -57.943400   25.914200   95.707300
  C    -57.173900   28.710400   95.383200
  H    -57.526600   29.760700   95.595500
  H    -56.475500   28.886800   94.530400
  C    -56.417900   28.220900   96.663300
  H    -57.134300   28.118200   97.396800
  H    -55.833900   27.310300   96.507600
  C    -55.368800   29.217200   97.096800
  H    -54.395800   29.180900   96.560700
  H    -55.800700   30.218100   97.125800
  H    -55.169000   28.975800   98.185700
  S    -61.375900   24.026800   94.579200
  C    -60.968200   22.326400   94.688300
  C    -59.595100   22.057800   94.541300
  C    -58.850500   23.311700   94.470800
  C    -59.689200   24.444900   94.393300
  H    -59.262600   21.022800   94.387000
  C    -57.349500   23.329500   94.161700
  H    -56.924900   22.930000   95.056000
  H    -57.003400   24.395700   94.199200
  C    -56.914600   22.525200   92.922200
  H    -57.266100   21.510700   93.002900
  H    -55.790900   22.580800   92.814000
  C    -57.447500   23.051900   91.604000
  H    -58.510600   23.089800   91.463100
  H    -57.115400   22.438900   90.789500
  H    -57.098700   24.116800   91.521200
  H    -59.384900   29.420700   93.554700
  H    -61.722000   21.518700   94.660600

 Total Charge           Charge          ....    0
 Multiplicity           Mult            ....    1
 Number of Electrons    NEL             ....  134
 Basis Dimension        Dim             ....  322

ORBITAL ENERGIES
----------------

  NO   OCC          E(Eh)            E(eV)
   0   2.0000     -88.968150     -2420.9464
   1   2.0000     -88.965189     -2420.8659
   2   2.0000     -10.330919      -281.1186
   3   2.0000     -10.325707      -280.9768
   4   2.0000     -10.321757      -280.8693
   5   2.0000     -10.317265      -280.7470
   6   2.0000     -10.310065      -280.5511
   7   2.0000     -10.303525      -280.3732
   8   2.0000     -10.303046      -280.3601
   9   2.0000     -10.298057      -280.2244
  10   2.0000     -10.290830      -280.0277
  11   2.0000     -10.289399      -279.9888
  12   2.0000     -10.286001      -279.8963
  13   2.0000     -10.284707      -279.8611
  14   2.0000     -10.282550      -279.8024
  15   2.0000     -10.268813      -279.4286
  16   2.0000      -8.082718      -219.9419
  17   2.0000      -8.079406      -219.8518
  18   2.0000      -6.041211      -164.3897
  19   2.0000      -6.038064      -164.3041
  20   2.0000      -6.037268      -164.2824
  21   2.0000      -6.033900      -164.1908
  22   2.0000      -6.033491      -164.1796
  23   2.0000      -6.030143      -164.0885
  24   2.0000      -1.004578       -27.3360
  25   2.0000      -0.980516       -26.6812
  26   2.0000      -0.912568       -24.8322
  27   2.0000      -0.906189       -24.6587
  28   2.0000      -0.869408       -23.6578
  29   2.0000      -0.852224       -23.1902
  30   2.0000      -0.844707       -22.9857
  31   2.0000      -0.815933       -22.2027
  32   2.0000      -0.780339       -21.2341
  33   2.0000      -0.766764       -20.8647
  34   2.0000      -0.708233       -19.2720
  35   2.0000      -0.694680       -18.9032
  36   2.0000      -0.689547       -18.7635
  37   2.0000      -0.653239       -17.7755
  38   2.0000      -0.643079       -17.4991
  39   2.0000      -0.621649       -16.9159
  40   2.0000      -0.591680       -16.1004
  41   2.0000      -0.579063       -15.7571
  42   2.0000      -0.563983       -15.3468
  43   2.0000      -0.552348       -15.0302
  44   2.0000      -0.541442       -14.7334
  45   2.0000      -0.526017       -14.3137
  46   2.0000      -0.515443       -14.0259
  47   2.0000      -0.506019       -13.7695
  48   2.0000      -0.503227       -13.6935
  49   2.0000      -0.496157       -13.5011
  50   2.0000      -0.488077       -13.2813
  51   2.0000      -0.475599       -12.9417
  52   2.0000      -0.470926       -12.8145
  53   2.0000      -0.461222       -12.5505
  54   2.0000      -0.452426       -12.3112
  55   2.0000      -0.451792       -12.2939
  56   2.0000      -0.445749       -12.1294
  57   2.0000      -0.439530       -11.9602
  58   2.0000      -0.433360       -11.7923
  59   2.0000      -0.425885       -11.5889
  60   2.0000      -0.417480       -11.3602
  61   2.0000      -0.416484       -11.3331
  62   2.0000      -0.412308       -11.2195
  63   2.0000      -0.348813        -9.4917
  64   2.0000      -0.330584        -8.9956
  65   2.0000      -0.326842        -8.8938
  66   2.0000      -0.289202        -7.8696
  67   0.0000       0.028622         0.7788
  68   0.0000       0.072770         1.9802
  69   0.0000       0.113370         3.0850
  70   0.0000       0.117773         3.2048
  71   0.0000       0.134485         3.6595

MULLIKEN ATOMIC CHARGES
-----------------------
   0 S :    0.097064
   1 C :   -0.144384
   2 C :   -0.033693
   3 C :    0.006769
   4 C :   -0.119929
   5 H :    0.005451
   6 C :   -0.005645
   7 H :    0.026375
   8 H :    0.047265
   9 C :   -0.032799
  10 H :    0.023226
  11 H :    0.036575
  12 C :   -0.074514
  13 H :    0.051844
  14 H :    0.026758
  15 H :    0.035522
  16 S :    0.114693
  17 C :   -0.109752
  18 C :   -0.053250
  19 C :   -0.069507
  20 C :   -0.156681
  21 H :    0.039610
  22 C :    0.081591
  23 H :    0.020881
  24 H :    0.024037
  25 C :   -0.069578
  26 H :    0.024966
  27 H :    0.044167
  28 C :   -0.051700
  29 H :    0.032617
  30 H :    0.028015
  31 H :    0.033476
  32 H :    0.053936
  33 H :    0.066595
Sum of atomic charges:    0.0000000

LOEWDIN ATOMIC CHARGES
----------------------
   0 S :    0.390930
   1 C :   -0.193411
   2 C :   -0.061879
   3 C :   -0.070470
   4 C :   -0.190543
   5 H :    0.026437
   6 C :   -0.044457
   7 H :    0.034193
   8 H :    0.041031
   9 C :   -0.035786
  10 H :    0.016548
  11 H :    0.028681
  12 C :   -0.067665
  13 H :    0.030424
  14 H :    0.021418
  15 H :    0.034523
  16 S :    0.408340
  17 C :   -0.190580
  18 C :   -0.073124
  19 C :   -0.054162
  20 C :   -0.198696
  21 H :    0.038243
  22 C :   -0.037664
  23 H :    0.028276
  24 H :    0.033301
  25 C :   -0.040039
  26 H :    0.019167
  27 H :    0.035535
  28 C :   -0.067121
  29 H :    0.022028
  30 H :    0.022997
  31 H :    0.031269
  32 H :    0.030023
  33 H :    0.032233

  Mayer bond orders larger than 0.100000
B(  0-S ,  1-C ) :   1.1352 B(  0-S ,  4-C ) :   1.1420 B(  1-C ,  2-C ) :   1.5806
B(  1-C , 32-H ) :   0.9766 B(  2-C ,  3-C ) :   1.2471 B(  2-C ,  6-C ) :   1.0178
B(  3-C ,  4-C ) :   1.5818 B(  3-C ,  5-H ) :   0.9956 B(  4-C , 20-C ) :   1.0301
B(  6-C ,  7-H ) :   0.9389 B(  6-C ,  8-H ) :   0.9354 B(  6-C ,  9-C ) :   1.0723
B(  9-C , 10-H ) :   0.9564 B(  9-C , 11-H ) :   0.9457 B(  9-C , 12-C ) :   1.0934
B( 12-C , 13-H ) :   0.9767 B( 12-C , 14-H ) :   0.9717 B( 12-C , 15-H ) :   0.9721
B( 16-S , 17-C ) :   1.1592 B( 16-S , 20-C ) :   1.1412 B( 17-C , 18-C ) :   1.6227
B( 17-C , 33-H ) :   0.9611 B( 18-C , 19-C ) :   1.2201 B( 18-C , 21-H ) :   0.9852
B( 19-C , 20-C ) :   1.5921 B( 19-C , 22-C ) :   1.0362 B( 22-C , 23-H ) :   0.9228
B( 22-C , 24-H ) :   0.9343 B( 22-C , 25-C ) :   1.0750 B( 25-C , 26-H ) :   0.9524
B( 25-C , 27-H ) :   0.9536 B( 25-C , 28-C ) :   1.0795 B( 28-C , 29-H ) :   0.9750
B( 28-C , 30-H ) :   0.9731 B( 28-C , 31-H ) :   0.9744

Dispersion correction           -0.014301535
FINAL SINGLE POINT ENERGY     -1339.879076284707

DIPOLE MOMENT
-------------
                                X             Y             Z
Electronic contribution:    -25.93888      -2.87168      -3.47898
Nuclear contribution   :     26.54882       2.81521       3.64921
                        -----------------------------------------
Total Dipole Moment    :      0.60993      -0.05647       0.17023
                        -----------------------------------------
Magnitude (a.u.)       :      0.63576
Magnitude (Debye)      :      1.61597

Rotational constants in cm-1:     0.018559     0.008230     0.007083
Rotational constants in MHz :   556.397963   246.723024   212.333541

                             ****ORCA TERMINATED NORMALLY****
TOTAL RUN TIME: 0 days 0 hours 0 minutes 28 seconds 612 msec
