                         Program Version 4.2.1 -  RELEASE  -
|  1> ! wB97X-D3 SP def2-SVP
|  2> %pal
|  3> nprocs 16
|  4> end
|  5>
|  6> * xyz 0 1
|  7> S 	 6.95752 	 20.9023 	 52.5518
|  8> C 	 6.72162 	 19.6339 	 53.719
|  9> C 	 6.16745 	 18.4636 	 53.2887
| 10> C 	 6.03453 	 18.56 	 51.8459
| 11> C 	 6.31563 	 19.7844 	 51.3219
| 12> H 	 5.84062 	 17.7202 	 51.282
| 13> C 	 6.00875 	 17.1391 	 54.0043
| 14> H 	 7.02433 	 16.8437 	 54.4482
| 15> H 	 5.70745 	 16.3251 	 53.3714
| 16> C 	 5.10054 	 17.2351 	 55.2143
| 17> H 	 5.47019 	 18.115 	 55.85
| 18> H 	 4.09805 	 17.5089 	 54.8708
| 19> C 	 5.09875 	 15.9459 	 56.0737
| 20> H 	 4.31058 	 15.8636 	 56.7406
| 21> H 	 4.90986 	 15.1404 	 55.3782
| 22> H 	 6.01431 	 15.5828 	 56.6941
| 23> S 	 7.84345 	 21.212 	 49.4933
| 24> C 	 7.29067 	 21.211 	 47.8355
| 25> C 	 6.00697 	 20.7747 	 47.7239
| 26> C 	 5.57101 	 20.0469 	 48.8269
| 27> C 	 6.41631 	 20.2266 	 49.945
| 28> H 	 5.53452 	 21.0445 	 46.7431
| 29> C 	 4.24961 	 19.3303 	 48.9325
| 30> H 	 3.83693 	 19.2392 	 49.9306
| 31> H 	 4.34696 	 18.2561 	 48.56
| 32> C 	 3.06915 	 19.9206 	 48.1574
| 33> H 	 2.16016 	 19.237 	 48.2291
| 34> H 	 3.31492 	 19.9234 	 47.1276
| 35> C 	 2.68362 	 21.2167 	 48.6301
| 36> H 	 2.50546 	 21.2499 	 49.7011
| 37> H 	 1.70762 	 21.5109 	 48.2105
| 38> H 	 3.42872 	 21.982 	 48.4193
| 39> H 	 7.19043 	 19.7638 	 54.6426
| 40> H 	 7.83783 	 21.8088 	 47.0617
| 41> *
| 42>
| 43>                          ****END OF INPUT****

CARTESIAN COORDINATES (ANGSTROEM)
---------------------------------
  S      6.957520   20.902300   52.551800
  C      6.721620   19.633900   53.719000
  C      6.167450   18.463600   53.288700
  C      6.034530   18.560000   51.845900
  C      6.315630   19.784400   51.321900
  H      5.840620   17.720200   51.282000
  C      6.008750   17.139100   54.004300
  H      7.024330   16.843700   54.448200
  H      5.707450   16.325100   53.371400
  C      5.100540   17.235100   55.214300
  H      5.470190   18.115000   55.850000
  H      4.098050   17.508900   54.870800
  C      5.098750   15.945900   56.073700
  H      4.310580   15.863600   56.740600
  H      4.909860   15.140400   55.378200
  H      6.014310   15.582800   56.694100
  S      7.843450   21.212000   49.493300
  C      7.290670   21.211000   47.835500
  C      6.006970   20.774700   47.723900
  C      5.571010   20.046900   48.826900
  C      6.416310   20.226600   49.945000
  H      5.534520   21.044500   46.743100
  C      4.249610   19.330300   48.932500
  H      3.836930   19.239200   49.930600
  H      4.346960   18.256100   48.560000
  C      3.069150   19.920600   48.157400
  H      2.160160   19.237000   48.229100
  H      3.314920   19.923400   47.127600
  C      2.683620   21.216700   48.630100
  H      2.505460   21.249900   49.701100
  H      1.707620   21.510900   48.210500
  H      3.428720   21.982000   48.419300
  H      7.190430   19.763800   54.642600
  H      7.837830   21.808800   47.061700

 Total Charge           Charge          ....    0
 Multiplicity           Mult            ....    1
 Number of Electrons    NEL             ....  134
 Basis Dimension        Dim             ....  322

ORBITAL ENERGIES
----------------

  NO   OCC          E(Eh)            E(eV)
   0   2.0000     -88.965030     -2420.8615
   1   2.0000     -88.964744     -2420.8537
   2   2.0000     -10.329396      -281.0772
   3   2.0000     -10.327281      -281.0196
   4   2.0000     -10.317193      -280.7451
   5   2.0000     -10.307908      -280.4924
   6   2.0000     -10.306546      -280.4554
   7   2.0000     -10.301556      -280.3196
   8   2.0000     -10.298407      -280.2339
   9   2.0000     -10.295777      -280.1623
  10   2.0000     -10.295374      -280.1514
  11   2.0000     -10.291027      -280.0331
  12   2.0000     -10.288623      -279.9677
  13   2.0000     -10.281256      -279.7672
  14   2.0000     -10.278058      -279.6802
  15   2.0000     -10.266140      -279.3559
  16   2.0000      -8.079730      -219.8606
  17   2.0000      -8.079353      -219.8504
  18   2.0000      -6.038233      -164.3087
  19   2.0000      -6.037780      -164.2964
  20   2.0000      -6.034465      -164.2061
  21   2.0000      -6.034086      -164.1958
  22   2.0000      -6.030225      -164.0908
  23   2.0000      -6.030050      -164.0860
  24   2.0000      -1.006715       -27.3941
  25   2.0000      -0.985180       -26.8081
  26   2.0000      -0.919228       -25.0135
  27   2.0000      -0.913948       -24.8698
  28   2.0000      -0.869602       -23.6631
  29   2.0000      -0.856682       -23.3115
  30   2.0000      -0.847263       -23.0552
  31   2.0000      -0.814933       -22.1755
  32   2.0000      -0.785676       -21.3793
  33   2.0000      -0.772203       -21.0127
  34   2.0000      -0.705935       -19.2095
  35   2.0000      -0.700548       -19.0629
  36   2.0000      -0.690073       -18.7778
  37   2.0000      -0.657276       -17.8854
  38   2.0000      -0.640045       -17.4165
  39   2.0000      -0.625124       -17.0105
  40   2.0000      -0.604723       -16.4554
  41   2.0000      -0.573550       -15.6071
  42   2.0000      -0.557668       -15.1749
  43   2.0000      -0.555053       -15.1038
  44   2.0000      -0.544350       -14.8125
  45   2.0000      -0.529453       -14.4072
  46   2.0000      -0.518167       -14.1000
  47   2.0000      -0.505005       -13.7419
  48   2.0000      -0.502029       -13.6609
  49   2.0000      -0.494305       -13.4507
  50   2.0000      -0.491034       -13.3617
  51   2.0000      -0.478580       -13.0228
  52   2.0000      -0.471161       -12.8210
  53   2.0000      -0.465691       -12.6721
  54   2.0000      -0.461898       -12.5689
  55   2.0000      -0.449796       -12.2396
  56   2.0000      -0.440107       -11.9759
  57   2.0000      -0.437497       -11.9049
  58   2.0000      -0.433809       -11.8045
  59   2.0000      -0.429100       -11.6764
  60   2.0000      -0.418405       -11.3854
  61   2.0000      -0.414339       -11.2747
  62   2.0000      -0.409133       -11.1331
  63   2.0000      -0.351142        -9.5551
  64   2.0000      -0.333982        -9.0881
  65   2.0000      -0.329855        -8.9758
  66   2.0000      -0.283399        -7.7117
  67   0.0000       0.022898         0.6231
  68   0.0000       0.065468         1.7815
  69   0.0000       0.102299         2.7837
  70   0.0000       0.121866         3.3161
  71   0.0000       0.131663         3.5827

MULLIKEN ATOMIC CHARGES
-----------------------
   0 S :    0.092262
   1 C :   -0.112295
   2 C :   -0.048553
   3 C :    0.031993
   4 C :   -0.121534
   5 H :   -0.017783
   6 C :    0.055156
   7 H :    0.045893
   8 H :    0.019705
   9 C :   -0.108008
  10 H :    0.042211
  11 H :    0.034827
  12 C :   -0.033293
  13 H :    0.016524
  14 H :    0.013247
  15 H :    0.047949
  16 S :    0.095426
  17 C :   -0.117695
  18 C :   -0.062303
  19 C :    0.007359
  20 C :   -0.146550
  21 H :    0.044503
  22 C :    0.032735
  23 H :    0.029262
  24 H :    0.043695
  25 C :   -0.085865
  26 H :    0.030266
  27 H :    0.015814
  28 C :   -0.024173
  29 H :    0.019531
  30 H :    0.027092
  31 H :    0.032955
  32 H :    0.027673
  33 H :    0.071976
Sum of atomic charges:   -0.0000000

LOEWDIN ATOMIC CHARGES
----------------------
   0 S :    0.386793
   1 C :   -0.178997
   2 C :   -0.059077
   3 C :   -0.047391
   4 C :   -0.176997
   5 H :    0.018138
   6 C :   -0.033802
   7 H :    0.043027
   8 H :    0.024583
   9 C :   -0.042232
  10 H :    0.030284
  11 H :    0.026175
  12 C :   -0.075524
  13 H :    0.015621
  14 H :    0.022486
  15 H :    0.039355
  16 S :    0.384203
  17 C :   -0.189625
  18 C :   -0.082144
  19 C :   -0.056577
  20 C :   -0.182162
  21 H :    0.045575
  22 C :   -0.035338
  23 H :    0.028544
  24 H :    0.039688
  25 C :   -0.050552
  26 H :    0.033215
  27 H :    0.013951
  28 C :   -0.067035
  29 H :    0.025291
  30 H :    0.028620
  31 H :    0.025649
  32 H :    0.010188
  33 H :    0.036066

  Mayer bond orders larger than 0.100000
B(  0-S ,  1-C ) :   1.1393 B(  0-S ,  4-C ) :   1.1158 B(  1-C ,  2-C ) :   1.6385
B(  1-C , 32-H ) :   0.9664 B(  2-C ,  3-C ) :   1.2084 B(  2-C ,  6-C ) :   1.0208
B(  3-C ,  4-C ) :   1.6017 B(  3-C ,  5-H ) :   1.0091 B(  4-C , 20-C ) :   1.0743
B(  6-C ,  7-H ) :   0.9413 B(  6-C ,  8-H ) :   0.9438 B(  6-C ,  9-C ) :   1.0513
B(  9-C , 10-H ) :   0.9600 B(  9-C , 11-H ) :   0.9553 B(  9-C , 12-C ) :   1.0698
B( 12-C , 13-H ) :   0.9744 B( 12-C , 14-H ) :   0.9693 B( 12-C , 15-H ) :   0.9747
B( 16-S , 17-C ) :   1.1552 B( 16-S , 20-C ) :   1.1370 B( 17-C , 18-C ) :   1.6227
B( 17-C , 20-C ) :   0.1078 B( 17-C , 33-H ) :   0.9569 B( 18-C , 19-C ) :   1.2329
B( 18-C , 21-H ) :   0.9788 B( 19-C , 20-C ) :   1.5624 B( 19-C , 22-C ) :   1.0390
B( 22-C , 23-H ) :   0.9423 B( 22-C , 24-H ) :   0.9243 B( 22-C , 25-C ) :   1.0863
B( 25-C , 26-H ) :   0.9487 B( 25-C , 27-H ) :   0.9411 B( 25-C , 28-C ) :   1.1039
B( 28-C , 29-H ) :   0.9669 B( 28-C , 30-H ) :   0.9677 B( 28-C , 31-H ) :   0.9679

Dispersion correction           -0.013715764
FINAL SINGLE POINT ENERGY     -1339.860049387342

DIPOLE MOMENT
-------------
                                X             Y             Z
Electronic contribution:     19.72056      15.60480      -6.78945
Nuclear contribution   :    -20.06342     -16.05167       6.73631
                        -----------------------------------------
Total Dipole Moment    :     -0.34286      -0.44687      -0.05314
                        -----------------------------------------
Magnitude (a.u.)       :      0.56574
Magnitude (Debye)      :      1.43800

Rotational constants in cm-1:     0.021712     0.007420     0.006102
Rotational constants in MHz :   650.900387   222.456703   182.919987

                             ****ORCA TERMINATED NORMALLY****
TOTAL RUN TIME: 0 days 0 hours 0 minutes 34 seconds 280 msec
