                         Program Version 4.2.1 -  RELEASE  -
|  1> ! wB97X-D3 SP def2-SVP
|  2> %pal
|  3> nprocs 16
|  4> end
|  5>
|  6> * xyz 0 1
|  7> S 	 9.09729 	 -4.70124 	 64.672
|  8> C 	 7.64995 	 -4.30681 	 63.7482
|  9> C 	 7.75957 	 -4.80253 	 62.4489
| 10> C 	 8.98898 	 -5.44312 	 62.2149
| 11> C 	 9.84963 	 -5.38823 	 63.2594
| 12> H 	 9.42718 	 -5.75322 	 61.2666
| 13> C 	 6.74013 	 -4.65273 	 61.2909
| 14> H 	 5.76815 	 -4.94062 	 61.7464
| 15> H 	 6.84539 	 -5.34423 	 60.5381
| 16> C 	 6.56411 	 -3.2574 	 60.7171
| 17> H 	 5.98034 	 -3.31117 	 59.8257
| 18> H 	 5.77915 	 -2.92736 	 61.4252
| 19> C 	 7.71543 	 -2.25397 	 60.6496
| 20> H 	 8.04859 	 -1.98172 	 61.6427
| 21> H 	 8.52154 	 -2.73549 	 60.0873
| 22> H 	 7.37429 	 -1.35327 	 60.1652
| 23> S 	 12.0156 	 -6.00366 	 61.5954
| 24> C 	 13.4704 	 -6.70418 	 62.2362
| 25> C 	 13.4449 	 -6.66997 	 63.6115
| 26> C 	 12.2021 	 -6.17399 	 64.1449
| 27> C 	 11.2033 	 -5.89912 	 63.2161
| 28> H 	 14.2907 	 -7.00953 	 64.1714
| 29> C 	 11.9985 	 -5.93229 	 65.6896
| 30> H 	 11.2385 	 -5.19098 	 65.8909
| 31> H 	 12.9727 	 -5.55176 	 65.9759
| 32> C 	 11.6751 	 -7.18182 	 66.5533
| 33> H 	 12.301 	 -8.00033 	 66.4101
| 34> H 	 10.6397 	 -7.53797 	 66.3336
| 35> C 	 11.7728 	 -6.88414 	 68.0454
| 36> H 	 11.7289 	 -7.7948 	 68.6253
| 37> H 	 10.9449 	 -6.1875 	 68.2408
| 38> H 	 12.7143 	 -6.36749 	 68.328
| 39> H 	 6.77497 	 -3.83198 	 64.1004
| 40> H 	 14.3397 	 -6.76762 	 61.567
| 41> *
| 42>
| 43>                          ****END OF INPUT****

CARTESIAN COORDINATES (ANGSTROEM)
---------------------------------
  S      9.097290   -4.701240   64.672000
  C      7.649950   -4.306810   63.748200
  C      7.759570   -4.802530   62.448900
  C      8.988980   -5.443120   62.214900
  C      9.849630   -5.388230   63.259400
  H      9.427180   -5.753220   61.266600
  C      6.740130   -4.652730   61.290900
  H      5.768150   -4.940620   61.746400
  H      6.845390   -5.344230   60.538100
  C      6.564110   -3.257400   60.717100
  H      5.980340   -3.311170   59.825700
  H      5.779150   -2.927360   61.425200
  C      7.715430   -2.253970   60.649600
  H      8.048590   -1.981720   61.642700
  H      8.521540   -2.735490   60.087300
  H      7.374290   -1.353270   60.165200
  S     12.015600   -6.003660   61.595400
  C     13.470400   -6.704180   62.236200
  C     13.444900   -6.669970   63.611500
  C     12.202100   -6.173990   64.144900
  C     11.203300   -5.899120   63.216100
  H     14.290700   -7.009530   64.171400
  C     11.998500   -5.932290   65.689600
  H     11.238500   -5.190980   65.890900
  H     12.972700   -5.551760   65.975900
  C     11.675100   -7.181820   66.553300
  H     12.301000   -8.000330   66.410100
  H     10.639700   -7.537970   66.333600
  C     11.772800   -6.884140   68.045400
  H     11.728900   -7.794800   68.625300
  H     10.944900   -6.187500   68.240800
  H     12.714300   -6.367490   68.328000
  H      6.774970   -3.831980   64.100400
  H     14.339700   -6.767620   61.567000

 Total Charge           Charge          ....    0
 Multiplicity           Mult            ....    1
 Number of Electrons    NEL             ....  134
 Basis Dimension        Dim             ....  322

ORBITAL ENERGIES
----------------

  NO   OCC          E(Eh)            E(eV)
   0   2.0000     -88.972956     -2421.0772
   1   2.0000     -88.961135     -2420.7556
   2   2.0000     -10.333698      -281.1942
   3   2.0000     -10.329976      -281.0929
   4   2.0000     -10.321574      -280.8643
   5   2.0000     -10.315130      -280.6890
   6   2.0000     -10.310387      -280.5599
   7   2.0000     -10.304782      -280.4074
   8   2.0000     -10.298138      -280.2266
   9   2.0000     -10.295587      -280.1572
  10   2.0000     -10.287468      -279.9362
  11   2.0000     -10.287103      -279.9263
  12   2.0000     -10.280544      -279.7478
  13   2.0000     -10.280041      -279.7341
  14   2.0000     -10.275983      -279.6237
  15   2.0000     -10.274040      -279.5708
  16   2.0000      -8.086793      -220.0528
  17   2.0000      -8.075509      -219.7458
  18   2.0000      -6.045466      -164.5055
  19   2.0000      -6.041425      -164.3955
  20   2.0000      -6.037458      -164.2876
  21   2.0000      -6.034134      -164.1971
  22   2.0000      -6.030111      -164.0877
  23   2.0000      -6.026124      -163.9792
  24   2.0000      -1.009265       -27.4635
  25   2.0000      -0.983661       -26.7668
  26   2.0000      -0.912076       -24.8189
  27   2.0000      -0.904266       -24.6063
  28   2.0000      -0.873119       -23.7588
  29   2.0000      -0.854155       -23.2428
  30   2.0000      -0.843471       -22.9520
  31   2.0000      -0.813506       -22.1366
  32   2.0000      -0.789040       -21.4709
  33   2.0000      -0.773987       -21.0613
  34   2.0000      -0.707067       -19.2403
  35   2.0000      -0.700713       -19.0674
  36   2.0000      -0.692661       -18.8483
  37   2.0000      -0.668537       -18.1918
  38   2.0000      -0.634888       -17.2762
  39   2.0000      -0.613780       -16.7018
  40   2.0000      -0.596785       -16.2394
  41   2.0000      -0.576383       -15.6842
  42   2.0000      -0.564353       -15.3568
  43   2.0000      -0.553180       -15.0528
  44   2.0000      -0.546345       -14.8668
  45   2.0000      -0.529071       -14.3967
  46   2.0000      -0.517949       -14.0941
  47   2.0000      -0.514264       -13.9938
  48   2.0000      -0.507823       -13.8186
  49   2.0000      -0.496681       -13.5154
  50   2.0000      -0.486495       -13.2382
  51   2.0000      -0.479901       -13.0588
  52   2.0000      -0.473850       -12.8941
  53   2.0000      -0.469663       -12.7802
  54   2.0000      -0.467592       -12.7238
  55   2.0000      -0.448203       -12.1962
  56   2.0000      -0.444324       -12.0907
  57   2.0000      -0.441250       -12.0070
  58   2.0000      -0.432786       -11.7767
  59   2.0000      -0.424267       -11.5449
  60   2.0000      -0.415811       -11.3148
  61   2.0000      -0.403715       -10.9856
  62   2.0000      -0.395943       -10.7741
  63   2.0000      -0.365046        -9.9334
  64   2.0000      -0.337440        -9.1822
  65   2.0000      -0.327971        -8.9246
  66   2.0000      -0.283953        -7.7268
  67   0.0000       0.016788         0.4568
  68   0.0000       0.080449         2.1891
  69   0.0000       0.103353         2.8124
  70   0.0000       0.111880         3.0444
  71   0.0000       0.128208         3.4887

MULLIKEN ATOMIC CHARGES
-----------------------
   0 S :    0.089988
   1 C :   -0.094438
   2 C :   -0.089023
   3 C :   -0.029887
   4 C :   -0.085913
   5 H :    0.023423
   6 C :    0.106809
   7 H :    0.025032
   8 H :   -0.000325
   9 C :   -0.105170
  10 H :    0.018167
  11 H :    0.011832
  12 C :    0.009129
  13 H :    0.034071
  14 H :    0.034601
  15 H :    0.033064
  16 S :    0.049601
  17 C :   -0.085612
  18 C :   -0.022542
  19 C :   -0.070557
  20 C :   -0.107775
  21 H :    0.016836
  22 C :    0.041230
  23 H :    0.031055
  24 H :    0.019536
  25 C :   -0.044059
  26 H :    0.009380
  27 H :    0.033911
  28 C :   -0.060214
  29 H :    0.038322
  30 H :    0.032816
  31 H :    0.028783
  32 H :    0.029869
  33 H :    0.078060
Sum of atomic charges:   -0.0000000

LOEWDIN ATOMIC CHARGES
----------------------
   0 S :    0.416824
   1 C :   -0.193040
   2 C :   -0.051029
   3 C :   -0.074685
   4 C :   -0.184118
   5 H :    0.026919
   6 C :   -0.024600
   7 H :    0.037045
   8 H :    0.013857
   9 C :   -0.050676
  10 H :    0.020726
  11 H :    0.024361
  12 C :   -0.057779
  13 H :    0.026907
  14 H :    0.027900
  15 H :    0.027879
  16 S :    0.377950
  17 C :   -0.184037
  18 C :   -0.071979
  19 C :   -0.056879
  20 C :   -0.167275
  21 H :    0.030429
  22 C :   -0.027979
  23 H :    0.012426
  24 H :    0.029571
  25 C :   -0.037975
  26 H :    0.011350
  27 H :    0.029085
  28 C :   -0.065783
  29 H :    0.025588
  30 H :    0.026233
  31 H :    0.024579
  32 H :    0.021371
  33 H :    0.036834

  Mayer bond orders larger than 0.100000
B(  0-S ,  1-C ) :   1.1235 B(  0-S ,  4-C ) :   1.1328 B(  1-C ,  2-C ) :   1.6065
B(  1-C , 32-H ) :   0.9751 B(  2-C ,  3-C ) :   1.2456 B(  2-C ,  6-C ) :   1.0116
B(  3-C ,  4-C ) :   1.5634 B(  3-C ,  5-H ) :   0.9870 B(  4-C , 20-C ) :   1.1038
B(  6-C ,  7-H ) :   0.9468 B(  6-C ,  8-H ) :   0.9442 B(  6-C ,  9-C ) :   1.0561
B(  9-C , 10-H ) :   0.9563 B(  9-C , 11-H ) :   0.9590 B(  9-C , 12-C ) :   1.0841
B( 12-C , 13-H ) :   0.9658 B( 12-C , 14-H ) :   0.9774 B( 12-C , 15-H ) :   0.9716
B( 16-S , 17-C ) :   1.1582 B( 16-S , 20-C ) :   1.1133 B( 17-C , 18-C ) :   1.5973
B( 17-C , 33-H ) :   0.9629 B( 18-C , 19-C ) :   1.2434 B( 18-C , 21-H ) :   0.9966
B( 19-C , 20-C ) :   1.5850 B( 19-C , 22-C ) :   1.0239 B( 22-C , 23-H ) :   0.9425
B( 22-C , 24-H ) :   0.9326 B( 22-C , 25-C ) :   1.0621 B( 25-C , 26-H ) :   0.9589
B( 25-C , 27-H ) :   0.9532 B( 25-C , 28-C ) :   1.0815 B( 28-C , 29-H ) :   0.9745
B( 28-C , 30-H ) :   0.9774 B( 28-C , 31-H ) :   0.9749

Dispersion correction           -0.014199001
FINAL SINGLE POINT ENERGY     -1339.869241181855

DIPOLE MOMENT
-------------
                                X             Y             Z
Electronic contribution:      7.01065      -3.69003      -5.42243
Nuclear contribution   :     -7.01697       3.76751       5.45508
                        -----------------------------------------
Total Dipole Moment    :     -0.00632       0.07748       0.03265
                        -----------------------------------------
Magnitude (a.u.)       :      0.08431
Magnitude (Debye)      :      0.21431

Rotational constants in cm-1:     0.021182     0.008393     0.006398
Rotational constants in MHz :   635.034979   251.604783   191.806969

                             ****ORCA TERMINATED NORMALLY****
TOTAL RUN TIME: 0 days 0 hours 0 minutes 32 seconds 722 msec
