                         Program Version 4.2.1 -  RELEASE  -
|  1> ! wB97X-D3 SP def2-SVP
|  2> %pal
|  3> nprocs 16
|  4> end
|  5>
|  6> * xyz 0 1
|  7> S 	 42.9677 	 17.0558 	 76.7108
|  8> C 	 42.4044 	 16.956 	 78.3383
|  9> C 	 43.507 	 17.158 	 79.1883
| 10> C 	 44.6986 	 17.5885 	 78.5141
| 11> C 	 44.6201 	 17.5519 	 77.136
| 12> H 	 45.6812 	 17.6918 	 79.0009
| 13> C 	 43.4122 	 16.9623 	 80.6755
| 14> H 	 44.4297 	 16.6868 	 81.0598
| 15> H 	 42.8225 	 16.1 	 80.9095
| 16> C 	 42.9422 	 18.2286 	 81.516
| 17> H 	 42.0742 	 18.7045 	 81.1292
| 18> H 	 42.6629 	 17.9084 	 82.5568
| 19> C 	 44.0535 	 19.2162 	 81.7021
| 20> H 	 44.764 	 18.9144 	 82.4432
| 21> H 	 44.6609 	 19.2796 	 80.7672
| 22> H 	 43.7412 	 20.2561 	 81.9002
| 23> S 	 45.3537 	 17.4468 	 74.5823
| 24> C 	 46.8075 	 18.0141 	 73.9218
| 25> C 	 47.6736 	 18.3275 	 74.9044
| 26> C 	 47.0812 	 18.2797 	 76.2593
| 27> C 	 45.7246 	 17.8405 	 76.2272
| 28> H 	 48.6223 	 18.715 	 74.6725
| 29> C 	 47.841 	 18.878 	 77.5453
| 30> H 	 46.9516 	 19.3795 	 78.1088
| 31> H 	 48.4605 	 19.636 	 77.1499
| 32> C 	 48.8228 	 17.9512 	 78.409
| 33> H 	 49.4295 	 18.5393 	 79.1114
| 34> H 	 49.5132 	 17.3673 	 77.7256
| 35> C 	 48.0579 	 16.8662 	 79.1969
| 36> H 	 47.505 	 16.3414 	 78.4387
| 37> H 	 47.4352 	 17.1945 	 79.9897
| 38> H 	 48.7059 	 16.1339 	 79.6516
| 39> H 	 41.4255 	 16.6035 	 78.6105
| 40> H 	 47.0989 	 18.0636 	 72.9011
| 41> *
| 42>
| 43>                          ****END OF INPUT****

CARTESIAN COORDINATES (ANGSTROEM)
---------------------------------
  S     42.967700   17.055800   76.710800
  C     42.404400   16.956000   78.338300
  C     43.507000   17.158000   79.188300
  C     44.698600   17.588500   78.514100
  C     44.620100   17.551900   77.136000
  H     45.681200   17.691800   79.000900
  C     43.412200   16.962300   80.675500
  H     44.429700   16.686800   81.059800
  H     42.822500   16.100000   80.909500
  C     42.942200   18.228600   81.516000
  H     42.074200   18.704500   81.129200
  H     42.662900   17.908400   82.556800
  C     44.053500   19.216200   81.702100
  H     44.764000   18.914400   82.443200
  H     44.660900   19.279600   80.767200
  H     43.741200   20.256100   81.900200
  S     45.353700   17.446800   74.582300
  C     46.807500   18.014100   73.921800
  C     47.673600   18.327500   74.904400
  C     47.081200   18.279700   76.259300
  C     45.724600   17.840500   76.227200
  H     48.622300   18.715000   74.672500
  C     47.841000   18.878000   77.545300
  H     46.951600   19.379500   78.108800
  H     48.460500   19.636000   77.149900
  C     48.822800   17.951200   78.409000
  H     49.429500   18.539300   79.111400
  H     49.513200   17.367300   77.725600
  C     48.057900   16.866200   79.196900
  H     47.505000   16.341400   78.438700
  H     47.435200   17.194500   79.989700
  H     48.705900   16.133900   79.651600
  H     41.425500   16.603500   78.610500
  H     47.098900   18.063600   72.901100

 Total Charge           Charge          ....    0
 Multiplicity           Mult            ....    1
 Number of Electrons    NEL             ....  134
 Basis Dimension        Dim             ....  322

ORBITAL ENERGIES
----------------

  NO   OCC          E(Eh)            E(eV)
   0   2.0000     -88.969090     -2420.9720
   1   2.0000     -88.960800     -2420.7464
   2   2.0000     -10.337119      -281.2873
   3   2.0000     -10.336576      -281.2725
   4   2.0000     -10.320408      -280.8326
   5   2.0000     -10.317825      -280.7623
   6   2.0000     -10.310839      -280.5722
   7   2.0000     -10.308973      -280.5214
   8   2.0000     -10.304653      -280.4039
   9   2.0000     -10.302228      -280.3379
  10   2.0000     -10.294827      -280.1365
  11   2.0000     -10.294784      -280.1353
  12   2.0000     -10.292511      -280.0735
  13   2.0000     -10.287330      -279.9325
  14   2.0000     -10.273695      -279.5615
  15   2.0000     -10.272031      -279.5162
  16   2.0000      -8.083345      -219.9590
  17   2.0000      -8.077437      -219.7982
  18   2.0000      -6.042071      -164.4131
  19   2.0000      -6.037739      -164.2952
  20   2.0000      -6.035999      -164.2479
  21   2.0000      -6.034059      -164.1951
  22   2.0000      -6.031501      -164.1255
  23   2.0000      -6.028204      -164.0358
  24   2.0000      -1.010695       -27.5024
  25   2.0000      -0.988014       -26.8852
  26   2.0000      -0.908039       -24.7090
  27   2.0000      -0.896609       -24.3980
  28   2.0000      -0.876956       -23.8632
  29   2.0000      -0.849638       -23.1198
  30   2.0000      -0.842596       -22.9282
  31   2.0000      -0.822672       -22.3860
  32   2.0000      -0.779494       -21.2111
  33   2.0000      -0.769926       -20.9507
  34   2.0000      -0.710388       -19.3306
  35   2.0000      -0.701646       -19.0927
  36   2.0000      -0.693329       -18.8664
  37   2.0000      -0.663587       -18.0571
  38   2.0000      -0.639726       -17.4078
  39   2.0000      -0.620475       -16.8840
  40   2.0000      -0.587704       -15.9922
  41   2.0000      -0.573849       -15.6152
  42   2.0000      -0.554706       -15.0943
  43   2.0000      -0.551107       -14.9964
  44   2.0000      -0.541558       -14.7365
  45   2.0000      -0.534805       -14.5528
  46   2.0000      -0.520096       -14.1525
  47   2.0000      -0.518535       -14.1101
  48   2.0000      -0.509175       -13.8553
  49   2.0000      -0.501111       -13.6359
  50   2.0000      -0.489559       -13.3216
  51   2.0000      -0.482813       -13.1380
  52   2.0000      -0.469659       -12.7801
  53   2.0000      -0.464540       -12.6408
  54   2.0000      -0.460788       -12.5387
  55   2.0000      -0.444332       -12.0909
  56   2.0000      -0.441226       -12.0064
  57   2.0000      -0.434468       -11.8225
  58   2.0000      -0.432848       -11.7784
  59   2.0000      -0.426919       -11.6171
  60   2.0000      -0.420405       -11.4398
  61   2.0000      -0.412217       -11.2170
  62   2.0000      -0.403375       -10.9764
  63   2.0000      -0.370639       -10.0856
  64   2.0000      -0.333512        -9.0753
  65   2.0000      -0.323319        -8.7980
  66   2.0000      -0.284239        -7.7345
  67   0.0000       0.016198         0.4408
  68   0.0000       0.090028         2.4498
  69   0.0000       0.101828         2.7709
  70   0.0000       0.117669         3.2019
  71   0.0000       0.130763         3.5582

MULLIKEN ATOMIC CHARGES
-----------------------
   0 S :    0.112686
   1 C :   -0.104417
   2 C :   -0.093424
   3 C :   -0.000446
   4 C :   -0.072871
   5 H :   -0.019106
   6 C :    0.041692
   7 H :    0.022966
   8 H :    0.021759
   9 C :   -0.037496
  10 H :    0.023342
  11 H :    0.029587
  12 C :   -0.066056
  13 H :    0.024393
  14 H :    0.022182
  15 H :    0.037502
  16 S :    0.080478
  17 C :   -0.046504
  18 C :   -0.025424
  19 C :   -0.080732
  20 C :   -0.139749
  21 H :    0.000178
  22 C :    0.016089
  23 H :    0.062142
  24 H :    0.020113
  25 C :   -0.068712
  26 H :    0.039743
  27 H :    0.041555
  28 C :   -0.051216
  29 H :    0.039100
  30 H :    0.043427
  31 H :    0.025894
  32 H :    0.053903
  33 H :    0.047422
Sum of atomic charges:   -0.0000000

LOEWDIN ATOMIC CHARGES
----------------------
   0 S :    0.408423
   1 C :   -0.199632
   2 C :   -0.063316
   3 C :   -0.073310
   4 C :   -0.189896
   5 H :    0.032524
   6 C :   -0.031943
   7 H :    0.033358
   8 H :    0.026490
   9 C :   -0.036763
  10 H :    0.018408
  11 H :    0.027837
  12 C :   -0.073112
  13 H :    0.019823
  14 H :    0.025619
  15 H :    0.029208
  16 S :    0.428861
  17 C :   -0.194273
  18 C :   -0.070989
  19 C :   -0.062021
  20 C :   -0.193075
  21 H :    0.022651
  22 C :   -0.036501
  23 H :    0.044913
  24 H :    0.022636
  25 C :   -0.036044
  26 H :    0.023897
  27 H :    0.034436
  28 C :   -0.069004
  29 H :    0.028231
  30 H :    0.015705
  31 H :    0.025412
  32 H :    0.030684
  33 H :    0.030764

  Mayer bond orders larger than 0.100000
B(  0-S ,  1-C ) :   1.1474 B(  0-S ,  4-C ) :   1.1422 B(  1-C ,  2-C ) :   1.5628
B(  1-C , 32-H ) :   0.9749 B(  2-C ,  3-C ) :   1.2736 B(  2-C ,  6-C ) :   1.0370
B(  3-C ,  4-C ) :   1.5520 B(  3-C ,  5-H ) :   0.9725 B(  4-C , 20-C ) :   1.0964
B(  6-C ,  7-H ) :   0.9455 B(  6-C ,  8-H ) :   0.9425 B(  6-C ,  9-C ) :   1.0536
B(  9-C , 10-H ) :   0.9620 B(  9-C , 11-H ) :   0.9571 B(  9-C , 12-C ) :   1.0759
B( 12-C , 13-H ) :   0.9742 B( 12-C , 14-H ) :   0.9749 B( 12-C , 15-H ) :   0.9724
B( 16-S , 17-C ) :   1.1584 B( 16-S , 20-C ) :   1.1494 B( 17-C , 18-C ) :   1.6186
B( 17-C , 33-H ) :   0.9705 B( 18-C , 19-C ) :   1.2465 B( 18-C , 21-H ) :   0.9942
B( 19-C , 20-C ) :   1.5522 B( 19-C , 22-C ) :   1.0052 B( 22-C , 23-H ) :   0.9482
B( 22-C , 24-H ) :   0.9404 B( 22-C , 25-C ) :   1.0528 B( 25-C , 26-H ) :   0.9596
B( 25-C , 27-H ) :   0.9571 B( 25-C , 28-C ) :   1.0846 B( 28-C , 29-H ) :   0.9713
B( 28-C , 30-H ) :   0.9606 B( 28-C , 31-H ) :   0.9677

Dispersion correction           -0.015084277
FINAL SINGLE POINT ENERGY     -1339.864606191880

DIPOLE MOMENT
-------------
                                X             Y             Z
Electronic contribution:    -10.96174      -4.57583     -27.83286
Nuclear contribution   :     11.40616       4.60872      28.29902
                        -----------------------------------------
Total Dipole Moment    :      0.44442       0.03289       0.46616
                        -----------------------------------------
Magnitude (a.u.)       :      0.64490
Magnitude (Debye)      :      1.63921

Rotational constants in cm-1:     0.018681     0.009811     0.006980
Rotational constants in MHz :   560.037689   294.127302   209.258775

                             ****ORCA TERMINATED NORMALLY****
TOTAL RUN TIME: 0 days 0 hours 0 minutes 31 seconds 609 msec
