                         Program Version 4.2.1 -  RELEASE  -
|  1> ! wB97X-D3 SP def2-SVP
|  2> %pal
|  3> nprocs 16
|  4> end
|  5>
|  6> * xyz 0 1
|  7> S 	 -107.709 	 52.8845 	 112.262
|  8> C 	 -108.6 	 52.2685 	 113.618
|  9> C 	 -108.481 	 52.9668 	 114.828
| 10> C 	 -107.556 	 54.0338 	 114.585
| 11> C 	 -107.051 	 54.1617 	 113.333
| 12> H 	 -107.253 	 54.6803 	 115.335
| 13> C 	 -109.205 	 52.7491 	 116.143
| 14> H 	 -108.677 	 53.2588 	 116.887
| 15> H 	 -109.165 	 51.6274 	 116.334
| 16> C 	 -110.659 	 53.2862 	 116.284
| 17> H 	 -111.224 	 52.9814 	 115.45
| 18> H 	 -111.075 	 52.684 	 117.102
| 19> C 	 -110.664 	 54.7783 	 116.467
| 20> H 	 -111.73 	 55.0773 	 116.553
| 21> H 	 -110.163 	 55.0288 	 117.402
| 22> H 	 -110.102 	 55.2957 	 115.692
| 23> S 	 -104.756 	 54.5074 	 111.921
| 24> C 	 -103.946 	 56.005 	 111.826
| 25> C 	 -104.256 	 56.7591 	 112.909
| 26> C 	 -105.483 	 56.2842 	 113.552
| 27> C 	 -105.985 	 55.1065 	 112.978
| 28> H 	 -103.654 	 57.572 	 113.13
| 29> C 	 -105.995 	 57.077 	 114.691
| 30> H 	 -105.328 	 56.953 	 115.524
| 31> H 	 -106.898 	 56.6921 	 115.035
| 32> C 	 -106.265 	 58.5923 	 114.492
| 33> H 	 -105.274 	 58.9573 	 114.218
| 34> H 	 -106.546 	 59.0782 	 115.407
| 35> C 	 -107.285 	 59.0176 	 113.401
| 36> H 	 -108.325 	 58.8771 	 113.694
| 37> H 	 -107.086 	 58.4673 	 112.477
| 38> H 	 -107.247 	 60.0632 	 113.202
| 39> H 	 -109.205 	 51.3903 	 113.623
| 40> H 	 -103.054 	 56.2809 	 111.237
| 41> *
| 42>
| 43>                          ****END OF INPUT****

CARTESIAN COORDINATES (ANGSTROEM)
---------------------------------
  S    -107.709000   52.884500  112.262000
  C    -108.600000   52.268500  113.618000
  C    -108.481000   52.966800  114.828000
  C    -107.556000   54.033800  114.585000
  C    -107.051000   54.161700  113.333000
  H    -107.253000   54.680300  115.335000
  C    -109.205000   52.749100  116.143000
  H    -108.677000   53.258800  116.887000
  H    -109.165000   51.627400  116.334000
  C    -110.659000   53.286200  116.284000
  H    -111.224000   52.981400  115.450000
  H    -111.075000   52.684000  117.102000
  C    -110.664000   54.778300  116.467000
  H    -111.730000   55.077300  116.553000
  H    -110.163000   55.028800  117.402000
  H    -110.102000   55.295700  115.692000
  S    -104.756000   54.507400  111.921000
  C    -103.946000   56.005000  111.826000
  C    -104.256000   56.759100  112.909000
  C    -105.483000   56.284200  113.552000
  C    -105.985000   55.106500  112.978000
  H    -103.654000   57.572000  113.130000
  C    -105.995000   57.077000  114.691000
  H    -105.328000   56.953000  115.524000
  H    -106.898000   56.692100  115.035000
  C    -106.265000   58.592300  114.492000
  H    -105.274000   58.957300  114.218000
  H    -106.546000   59.078200  115.407000
  C    -107.285000   59.017600  113.401000
  H    -108.325000   58.877100  113.694000
  H    -107.086000   58.467300  112.477000
  H    -107.247000   60.063200  113.202000
  H    -109.205000   51.390300  113.623000
  H    -103.054000   56.280900  111.237000

 Total Charge           Charge          ....    0
 Multiplicity           Mult            ....    1
 Number of Electrons    NEL             ....  134
 Basis Dimension        Dim             ....  322

ORBITAL ENERGIES
----------------

  NO   OCC          E(Eh)            E(eV)
   0   2.0000     -88.973322     -2421.0872
   1   2.0000     -88.958391     -2420.6809
   2   2.0000     -10.330143      -281.0975
   3   2.0000     -10.328303      -281.0474
   4   2.0000     -10.314149      -280.6623
   5   2.0000     -10.310164      -280.5538
   6   2.0000     -10.304707      -280.4053
   7   2.0000     -10.302069      -280.3336
   8   2.0000     -10.295600      -280.1575
   9   2.0000     -10.286173      -279.9010
  10   2.0000     -10.285887      -279.8932
  11   2.0000     -10.284955      -279.8679
  12   2.0000     -10.284565      -279.8572
  13   2.0000     -10.281616      -279.7770
  14   2.0000     -10.280812      -279.7551
  15   2.0000     -10.271457      -279.5006
  16   2.0000      -8.087127      -220.0619
  17   2.0000      -8.074742      -219.7249
  18   2.0000      -6.045719      -164.5124
  19   2.0000      -6.041868      -164.4076
  20   2.0000      -6.037749      -164.2955
  21   2.0000      -6.033282      -164.1739
  22   2.0000      -6.029252      -164.0643
  23   2.0000      -6.025118      -163.9518
  24   2.0000      -1.010162       -27.4879
  25   2.0000      -0.986934       -26.8558
  26   2.0000      -0.915686       -24.9171
  27   2.0000      -0.909055       -24.7366
  28   2.0000      -0.873477       -23.7685
  29   2.0000      -0.854453       -23.2509
  30   2.0000      -0.842064       -22.9137
  31   2.0000      -0.818860       -22.2823
  32   2.0000      -0.784736       -21.3538
  33   2.0000      -0.775047       -21.0901
  34   2.0000      -0.709762       -19.3136
  35   2.0000      -0.708794       -19.2873
  36   2.0000      -0.692193       -18.8355
  37   2.0000      -0.660845       -17.9825
  38   2.0000      -0.638371       -17.3710
  39   2.0000      -0.624286       -16.9877
  40   2.0000      -0.596670       -16.2362
  41   2.0000      -0.579521       -15.7696
  42   2.0000      -0.555009       -15.1026
  43   2.0000      -0.552519       -15.0348
  44   2.0000      -0.549999       -14.9662
  45   2.0000      -0.535307       -14.5665
  46   2.0000      -0.517162       -14.0727
  47   2.0000      -0.509428       -13.8622
  48   2.0000      -0.500143       -13.6096
  49   2.0000      -0.499309       -13.5869
  50   2.0000      -0.494309       -13.4508
  51   2.0000      -0.475039       -12.9265
  52   2.0000      -0.474920       -12.9232
  53   2.0000      -0.468901       -12.7595
  54   2.0000      -0.459672       -12.5083
  55   2.0000      -0.448265       -12.1979
  56   2.0000      -0.446338       -12.1455
  57   2.0000      -0.441165       -12.0047
  58   2.0000      -0.435480       -11.8500
  59   2.0000      -0.432383       -11.7657
  60   2.0000      -0.423076       -11.5125
  61   2.0000      -0.415199       -11.2981
  62   2.0000      -0.406198       -11.0532
  63   2.0000      -0.358887        -9.7658
  64   2.0000      -0.331687        -9.0257
  65   2.0000      -0.320128        -8.7111
  66   2.0000      -0.285793        -7.7768
  67   0.0000       0.023249         0.6326
  68   0.0000       0.080003         2.1770
  69   0.0000       0.097374         2.6497
  70   0.0000       0.113592         3.0910
  71   0.0000       0.134518         3.6604

MULLIKEN ATOMIC CHARGES
-----------------------
   0 S :    0.132595
   1 C :   -0.102341
   2 C :   -0.098220
   3 C :    0.012371
   4 C :   -0.111567
   5 H :   -0.027563
   6 C :    0.053857
   7 H :   -0.000277
   8 H :    0.042610
   9 C :   -0.031130
  10 H :    0.014032
  11 H :    0.028911
  12 C :   -0.049447
  13 H :    0.045354
  14 H :    0.022087
  15 H :    0.046308
  16 S :    0.088649
  17 C :   -0.082405
  18 C :   -0.028524
  19 C :   -0.082868
  20 C :   -0.106854
  21 H :   -0.001147
  22 C :    0.096074
  23 H :    0.030732
  24 H :   -0.007827
  25 C :   -0.065058
  26 H :    0.014544
  27 H :    0.022655
  28 C :   -0.043530
  29 H :    0.026432
  30 H :    0.043733
  31 H :    0.025234
  32 H :    0.029149
  33 H :    0.063432
Sum of atomic charges:   -0.0000000

LOEWDIN ATOMIC CHARGES
----------------------
   0 S :    0.400721
   1 C :   -0.190678
   2 C :   -0.062668
   3 C :   -0.052254
   4 C :   -0.186542
   5 H :    0.015209
   6 C :   -0.029462
   7 H :    0.019370
   8 H :    0.040715
   9 C :   -0.035359
  10 H :    0.015688
  11 H :    0.027934
  12 C :   -0.063877
  13 H :    0.034153
  14 H :    0.023374
  15 H :    0.029284
  16 S :    0.419402
  17 C :   -0.199403
  18 C :   -0.064149
  19 C :   -0.058107
  20 C :   -0.195023
  21 H :    0.019680
  22 C :   -0.034793
  23 H :    0.036443
  24 H :    0.014074
  25 C :   -0.032271
  26 H :    0.017127
  27 H :    0.021013
  28 C :   -0.064531
  29 H :    0.023876
  30 H :    0.029393
  31 H :    0.023049
  32 H :    0.020317
  33 H :    0.038294

  Mayer bond orders larger than 0.100000
B(  0-S ,  1-C ) :   1.1487 B(  0-S ,  4-C ) :   1.1146 B(  1-C ,  2-C ) :   1.6158
B(  1-C , 32-H ) :   0.9604 B(  2-C ,  3-C ) :   1.2413 B(  2-C ,  6-C ) :   1.0309
B(  3-C ,  4-C ) :   1.5909 B(  3-C ,  5-H ) :   0.9954 B(  4-C , 20-C ) :   1.0611
B(  6-C ,  7-H ) :   0.9367 B(  6-C ,  8-H ) :   0.9362 B(  6-C ,  9-C ) :   1.0630
B(  9-C , 10-H ) :   0.9558 B(  9-C , 11-H ) :   0.9530 B(  9-C , 12-C ) :   1.0751
B( 12-C , 13-H ) :   0.9713 B( 12-C , 14-H ) :   0.9732 B( 12-C , 15-H ) :   0.9756
B( 16-S , 17-C ) :   1.1520 B( 16-S , 20-C ) :   1.1440 B( 17-C , 18-C ) :   1.6262
B( 17-C , 33-H ) :   0.9622 B( 18-C , 19-C ) :   1.2111 B( 18-C , 21-H ) :   1.0025
B( 19-C , 20-C ) :   1.5756 B( 19-C , 22-C ) :   1.0624 B( 22-C , 23-H ) :   0.9252
B( 22-C , 24-H ) :   0.9237 B( 22-C , 25-C ) :   1.0706 B( 25-C , 26-H ) :   0.9572
B( 25-C , 27-H ) :   0.9548 B( 25-C , 28-C ) :   1.0781 B( 28-C , 29-H ) :   0.9754
B( 28-C , 30-H ) :   0.9751 B( 28-C , 31-H ) :   0.9735

Dispersion correction           -0.014293615
FINAL SINGLE POINT ENERGY     -1339.859769728650

DIPOLE MOMENT
-------------
                                X             Y             Z
Electronic contribution:     14.36779     -15.97112     -19.28358
Nuclear contribution   :    -14.51440      16.22992      20.01640
                        -----------------------------------------
Total Dipole Moment    :     -0.14661       0.25880       0.73282
                        -----------------------------------------
Magnitude (a.u.)       :      0.79089
Magnitude (Debye)      :      2.01027

Rotational constants in cm-1:     0.018171     0.009377     0.006770
Rotational constants in MHz :   544.746025   281.118986   202.960021

                             ****ORCA TERMINATED NORMALLY****
TOTAL RUN TIME: 0 days 0 hours 0 minutes 33 seconds 729 msec
