                         Program Version 4.2.1 -  RELEASE  -
|  1> ! wB97X-D3 SP def2-SVP
|  2> %pal
|  3> nprocs 16
|  4> end
|  5>
|  6> * xyz 0 1
|  7> S 	 -34.5113 	 67.2979 	 145.225
|  8> C 	 -33.1052 	 66.5544 	 144.563
|  9> C 	 -32.4276 	 65.7727 	 145.464
| 10> C 	 -33.1412 	 65.6739 	 146.744
| 11> C 	 -34.2368 	 66.5081 	 146.844
| 12> H 	 -32.8741 	 65.1823 	 147.664
| 13> C 	 -31.1846 	 64.9526 	 145.288
| 14> H 	 -31.19 	 64.2549 	 146.125
| 15> H 	 -30.2697 	 65.5705 	 145.515
| 16> C 	 -30.9924 	 64.2679 	 143.867
| 17> H 	 -31.3659 	 64.7982 	 142.986
| 18> H 	 -29.8355 	 64.2885 	 143.69
| 19> C 	 -31.3857 	 62.792 	 143.925
| 20> H 	 -31.281 	 62.3284 	 142.974
| 21> H 	 -30.6713 	 62.1876 	 144.537
| 22> H 	 -32.3349 	 62.5896 	 144.285
| 23> S 	 -36.6368 	 67.1305 	 148.087
| 24> C 	 -36.6224 	 67.6953 	 149.749
| 25> C 	 -35.3861 	 67.6299 	 150.299
| 26> C 	 -34.3696 	 67.2421 	 149.365
| 27> C 	 -34.8809 	 67.0205 	 148.089
| 28> H 	 -35.2875 	 68.1361 	 151.273
| 29> C 	 -32.8728 	 67.3587 	 149.756
| 30> H 	 -32.9752 	 68.4257 	 150.018
| 31> H 	 -32.1963 	 67.3084 	 148.922
| 32> C 	 -32.2547 	 66.374 	 150.779
| 33> H 	 -33.013 	 66.1805 	 151.516
| 34> H 	 -31.4319 	 66.825 	 151.221
| 35> C 	 -31.7189 	 65.0732 	 150.249
| 36> H 	 -32.5067 	 64.4807 	 149.884
| 37> H 	 -31.1233 	 64.4671 	 150.884
| 38> H 	 -31.1786 	 65.1853 	 149.32
| 39> H 	 -32.6636 	 66.8411 	 143.667
| 40> H 	 -37.2949 	 68.3409 	 150.226
| 41> *
| 42>
| 43>                          ****END OF INPUT****

CARTESIAN COORDINATES (ANGSTROEM)
---------------------------------
  S    -34.511300   67.297900  145.225000
  C    -33.105200   66.554400  144.563000
  C    -32.427600   65.772700  145.464000
  C    -33.141200   65.673900  146.744000
  C    -34.236800   66.508100  146.844000
  H    -32.874100   65.182300  147.664000
  C    -31.184600   64.952600  145.288000
  H    -31.190000   64.254900  146.125000
  H    -30.269700   65.570500  145.515000
  C    -30.992400   64.267900  143.867000
  H    -31.365900   64.798200  142.986000
  H    -29.835500   64.288500  143.690000
  C    -31.385700   62.792000  143.925000
  H    -31.281000   62.328400  142.974000
  H    -30.671300   62.187600  144.537000
  H    -32.334900   62.589600  144.285000
  S    -36.636800   67.130500  148.087000
  C    -36.622400   67.695300  149.749000
  C    -35.386100   67.629900  150.299000
  C    -34.369600   67.242100  149.365000
  C    -34.880900   67.020500  148.089000
  H    -35.287500   68.136100  151.273000
  C    -32.872800   67.358700  149.756000
  H    -32.975200   68.425700  150.018000
  H    -32.196300   67.308400  148.922000
  C    -32.254700   66.374000  150.779000
  H    -33.013000   66.180500  151.516000
  H    -31.431900   66.825000  151.221000
  C    -31.718900   65.073200  150.249000
  H    -32.506700   64.480700  149.884000
  H    -31.123300   64.467100  150.884000
  H    -31.178600   65.185300  149.320000
  H    -32.663600   66.841100  143.667000
  H    -37.294900   68.340900  150.226000

 Total Charge           Charge          ....    0
 Multiplicity           Mult            ....    1
 Number of Electrons    NEL             ....  134
 Basis Dimension        Dim             ....  322

ORBITAL ENERGIES
----------------

  NO   OCC          E(Eh)            E(eV)
   0   2.0000     -88.963208     -2420.8119
   1   2.0000     -88.963117     -2420.8095
   2   2.0000     -10.334227      -281.2086
   3   2.0000     -10.332152      -281.1522
   4   2.0000     -10.310724      -280.5691
   5   2.0000     -10.310442      -280.5614
   6   2.0000     -10.309615      -280.5389
   7   2.0000     -10.303764      -280.3797
   8   2.0000     -10.301370      -280.3145
   9   2.0000     -10.299834      -280.2727
  10   2.0000     -10.296993      -280.1954
  11   2.0000     -10.295670      -280.1594
  12   2.0000     -10.294516      -280.1280
  13   2.0000     -10.282872      -279.8112
  14   2.0000     -10.271940      -279.5137
  15   2.0000     -10.271782      -279.5094
  16   2.0000      -8.077946      -219.8121
  17   2.0000      -8.077520      -219.8005
  18   2.0000      -6.036586      -164.2639
  19   2.0000      -6.036148      -164.2519
  20   2.0000      -6.032530      -164.1535
  21   2.0000      -6.032099      -164.1418
  22   2.0000      -6.028494      -164.0437
  23   2.0000      -6.028138      -164.0340
  24   2.0000      -1.001958       -27.2647
  25   2.0000      -0.982134       -26.7252
  26   2.0000      -0.912240       -24.8233
  27   2.0000      -0.904116       -24.6022
  28   2.0000      -0.870155       -23.6781
  29   2.0000      -0.855669       -23.2839
  30   2.0000      -0.847717       -23.0675
  31   2.0000      -0.820755       -22.3339
  32   2.0000      -0.783866       -21.3301
  33   2.0000      -0.773336       -21.0435
  34   2.0000      -0.715360       -19.4659
  35   2.0000      -0.709756       -19.3134
  36   2.0000      -0.694715       -18.9041
  37   2.0000      -0.658963       -17.9313
  38   2.0000      -0.644109       -17.5271
  39   2.0000      -0.611279       -16.6337
  40   2.0000      -0.595369       -16.2008
  41   2.0000      -0.572555       -15.5800
  42   2.0000      -0.565566       -15.3898
  43   2.0000      -0.550078       -14.9684
  44   2.0000      -0.542132       -14.7522
  45   2.0000      -0.527722       -14.3600
  46   2.0000      -0.518233       -14.1018
  47   2.0000      -0.514026       -13.9874
  48   2.0000      -0.508511       -13.8373
  49   2.0000      -0.499206       -13.5841
  50   2.0000      -0.487530       -13.2664
  51   2.0000      -0.486484       -13.2379
  52   2.0000      -0.474775       -12.9193
  53   2.0000      -0.466076       -12.6826
  54   2.0000      -0.461035       -12.5454
  55   2.0000      -0.456585       -12.4243
  56   2.0000      -0.442726       -12.0472
  57   2.0000      -0.437405       -11.9024
  58   2.0000      -0.431458       -11.7406
  59   2.0000      -0.425899       -11.5893
  60   2.0000      -0.422275       -11.4907
  61   2.0000      -0.410058       -11.1582
  62   2.0000      -0.407123       -11.0784
  63   2.0000      -0.351153        -9.5554
  64   2.0000      -0.331269        -9.0143
  65   2.0000      -0.325677        -8.8621
  66   2.0000      -0.293185        -7.9780
  67   0.0000       0.023866         0.6494
  68   0.0000       0.071548         1.9469
  69   0.0000       0.107956         2.9376
  70   0.0000       0.118737         3.2310
  71   0.0000       0.122766         3.3406

MULLIKEN ATOMIC CHARGES
-----------------------
   0 S :    0.090071
   1 C :   -0.075479
   2 C :   -0.098370
   3 C :    0.026920
   4 C :   -0.117902
   5 H :   -0.021527
   6 C :    0.057221
   7 H :    0.023131
   8 H :    0.047093
   9 C :   -0.102323
  10 H :    0.041798
  11 H :    0.032869
  12 C :   -0.020440
  13 H :    0.020372
  14 H :    0.026613
  15 H :    0.028241
  16 S :    0.092858
  17 C :   -0.060949
  18 C :   -0.063933
  19 C :   -0.053309
  20 C :   -0.142458
  21 H :    0.035592
  22 C :    0.015803
  23 H :    0.047953
  24 H :    0.019805
  25 C :   -0.000253
  26 H :    0.023579
  27 H :    0.017453
  28 C :   -0.032777
  29 H :    0.027866
  30 H :    0.033095
  31 H :    0.010467
  32 H :    0.027288
  33 H :    0.043630
Sum of atomic charges:    0.0000000

LOEWDIN ATOMIC CHARGES
----------------------
   0 S :    0.380399
   1 C :   -0.190889
   2 C :   -0.064554
   3 C :   -0.057595
   4 C :   -0.173461
   5 H :    0.027857
   6 C :   -0.036572
   7 H :    0.030793
   8 H :    0.040348
   9 C :   -0.042567
  10 H :    0.024216
  11 H :    0.033352
  12 C :   -0.061674
  13 H :    0.022121
  14 H :    0.030261
  15 H :    0.015562
  16 S :    0.390452
  17 C :   -0.176739
  18 C :   -0.076607
  19 C :   -0.058756
  20 C :   -0.194126
  21 H :    0.039398
  22 C :   -0.030343
  23 H :    0.043821
  24 H :    0.024726
  25 C :   -0.028760
  26 H :    0.023246
  27 H :    0.019443
  28 C :   -0.061854
  29 H :    0.019579
  30 H :    0.026710
  31 H :    0.021153
  32 H :    0.017082
  33 H :    0.023978

  Mayer bond orders larger than 0.100000
B(  0-S ,  1-C ) :   1.1338 B(  0-S ,  4-C ) :   1.1229 B(  1-C ,  2-C ) :   1.6469
B(  1-C , 32-H ) :   0.9679 B(  2-C ,  3-C ) :   1.1974 B(  2-C ,  6-C ) :   1.0224
B(  3-C ,  4-C ) :   1.6311 B(  3-C ,  5-H ) :   0.9870 B(  4-C , 20-C ) :   1.0114
B(  6-C ,  7-H ) :   0.9497 B(  6-C ,  8-H ) :   0.9325 B(  6-C ,  9-C ) :   1.0405
B(  9-C , 10-H ) :   0.9658 B(  9-C , 11-H ) :   0.9587 B(  9-C , 12-C ) :   1.0795
B( 12-C , 13-H ) :   0.9718 B( 12-C , 14-H ) :   0.9737 B( 12-C , 15-H ) :   0.9795
B( 16-S , 17-C ) :   1.1397 B( 16-S , 20-C ) :   1.1258 B( 17-C , 18-C ) :   1.6686
B( 17-C , 33-H ) :   0.9606 B( 18-C , 19-C ) :   1.2148 B( 18-C , 21-H ) :   0.9770
B( 19-C , 20-C ) :   1.6253 B( 19-C , 22-C ) :   1.0078 B( 22-C , 23-H ) :   0.9446
B( 22-C , 24-H ) :   0.9464 B( 22-C , 25-C ) :   1.0544 B( 25-C , 26-H ) :   0.9575
B( 25-C , 27-H ) :   0.9523 B( 25-C , 28-C ) :   1.0888 B( 28-C , 29-H ) :   0.9638
B( 28-C , 30-H ) :   0.9675 B( 28-C , 31-H ) :   0.9648

Dispersion correction           -0.014608116
FINAL SINGLE POINT ENERGY     -1339.844233939067

DIPOLE MOMENT
-------------
                                X             Y             Z
Electronic contribution:    -25.11560      15.27198      -3.11200
Nuclear contribution   :     25.94976     -15.27593       3.44610
                        -----------------------------------------
Total Dipole Moment    :      0.83416      -0.00395       0.33411
                        -----------------------------------------
Magnitude (a.u.)       :      0.89859
Magnitude (Debye)      :      2.28404

Rotational constants in cm-1:     0.019494     0.008577     0.006515
Rotational constants in MHz :   584.410672   257.128922   195.323500

                             ****ORCA TERMINATED NORMALLY****
TOTAL RUN TIME: 0 days 0 hours 0 minutes 34 seconds 815 msec
