                         Program Version 4.2.1 -  RELEASE  -
|  1> ! wB97X-D3 SP def2-SVP
|  2> %pal
|  3> nprocs 16
|  4> end
|  5>
|  6> * xyz 0 1
|  7> S 	 -36.9098 	 71.4912 	 169.198
|  8> C 	 -35.396 	 71.2592 	 168.374
|  9> C 	 -35.3452 	 72.0897 	 167.259
| 10> C 	 -36.455 	 72.9932 	 167.146
| 11> C 	 -37.3027 	 72.8182 	 168.188
| 12> H 	 -36.7053 	 73.7382 	 166.378
| 13> C 	 -34.2856 	 72.0634 	 166.204
| 14> H 	 -34.8474 	 71.8959 	 165.287
| 15> H 	 -33.7349 	 71.102 	 166.297
| 16> C 	 -33.3479 	 73.278 	 166.174
| 17> H 	 -33.9657 	 74.1436 	 166.308
| 18> H 	 -32.6962 	 73.198 	 167.055
| 19> C 	 -32.5365 	 73.3741 	 164.86
| 20> H 	 -32.1085 	 72.423 	 164.513
| 21> H 	 -33.0238 	 73.7577 	 163.885
| 22> H 	 -31.754 	 74.13 	 165.071
| 23> S 	 -39.9057 	 72.8196 	 168.841
| 24> C 	 -40.793 	 74.3687 	 168.71
| 25> C 	 -39.96 	 75.4649 	 168.521
| 26> C 	 -38.5902 	 75.1159 	 168.446
| 27> C 	 -38.4184 	 73.6946 	 168.517
| 28> H 	 -40.2706 	 76.4752 	 168.535
| 29> C 	 -37.3817 	 76.1088 	 168.324
| 30> H 	 -36.513 	 75.4928 	 168.135
| 31> H 	 -37.2035 	 76.4057 	 169.341
| 32> C 	 -37.6238 	 77.2609 	 167.376
| 33> H 	 -36.8424 	 78.0429 	 167.33
| 34> H 	 -38.5906 	 77.6284 	 167.654
| 35> C 	 -37.8151 	 76.8285 	 165.907
| 36> H 	 -37.8507 	 77.72 	 165.326
| 37> H 	 -38.7592 	 76.2926 	 165.71
| 38> H 	 -36.9622 	 76.2433 	 165.555
| 39> H 	 -34.5932 	 70.6088 	 168.731
| 40> H 	 -41.8918 	 74.4616 	 168.857
| 41> *
| 42>
| 43>                          ****END OF INPUT****

CARTESIAN COORDINATES (ANGSTROEM)
---------------------------------
  S    -36.909800   71.491200  169.198000
  C    -35.396000   71.259200  168.374000
  C    -35.345200   72.089700  167.259000
  C    -36.455000   72.993200  167.146000
  C    -37.302700   72.818200  168.188000
  H    -36.705300   73.738200  166.378000
  C    -34.285600   72.063400  166.204000
  H    -34.847400   71.895900  165.287000
  H    -33.734900   71.102000  166.297000
  C    -33.347900   73.278000  166.174000
  H    -33.965700   74.143600  166.308000
  H    -32.696200   73.198000  167.055000
  C    -32.536500   73.374100  164.860000
  H    -32.108500   72.423000  164.513000
  H    -33.023800   73.757700  163.885000
  H    -31.754000   74.130000  165.071000
  S    -39.905700   72.819600  168.841000
  C    -40.793000   74.368700  168.710000
  C    -39.960000   75.464900  168.521000
  C    -38.590200   75.115900  168.446000
  C    -38.418400   73.694600  168.517000
  H    -40.270600   76.475200  168.535000
  C    -37.381700   76.108800  168.324000
  H    -36.513000   75.492800  168.135000
  H    -37.203500   76.405700  169.341000
  C    -37.623800   77.260900  167.376000
  H    -36.842400   78.042900  167.330000
  H    -38.590600   77.628400  167.654000
  C    -37.815100   76.828500  165.907000
  H    -37.850700   77.720000  165.326000
  H    -38.759200   76.292600  165.710000
  H    -36.962200   76.243300  165.555000
  H    -34.593200   70.608800  168.731000
  H    -41.891800   74.461600  168.857000

 Total Charge           Charge          ....    0
 Multiplicity           Mult            ....    1
 Number of Electrons    NEL             ....  134
 Basis Dimension        Dim             ....  322

ORBITAL ENERGIES
----------------

  NO   OCC          E(Eh)            E(eV)
   0   2.0000     -88.968556     -2420.9575
   1   2.0000     -88.963103     -2420.8091
   2   2.0000     -10.327236      -281.0184
   3   2.0000     -10.324784      -280.9517
   4   2.0000     -10.321033      -280.8496
   5   2.0000     -10.312756      -280.6244
   6   2.0000     -10.309836      -280.5449
   7   2.0000     -10.299757      -280.2706
   8   2.0000     -10.295611      -280.1578
   9   2.0000     -10.291534      -280.0469
  10   2.0000     -10.290436      -280.0170
  11   2.0000     -10.289644      -279.9954
  12   2.0000     -10.289591      -279.9940
  13   2.0000     -10.289131      -279.9815
  14   2.0000     -10.287295      -279.9315
  15   2.0000     -10.275730      -279.6168
  16   2.0000      -8.082582      -219.9382
  17   2.0000      -8.079061      -219.8424
  18   2.0000      -6.041037      -164.3850
  19   2.0000      -6.037526      -164.2894
  20   2.0000      -6.037294      -164.2831
  21   2.0000      -6.033473      -164.1791
  22   2.0000      -6.033347      -164.1757
  23   2.0000      -6.029729      -164.0773
  24   2.0000      -1.009815       -27.4785
  25   2.0000      -0.980200       -26.6726
  26   2.0000      -0.912943       -24.8424
  27   2.0000      -0.909029       -24.7359
  28   2.0000      -0.868188       -23.6246
  29   2.0000      -0.851607       -23.1734
  30   2.0000      -0.844502       -22.9801
  31   2.0000      -0.814255       -22.1570
  32   2.0000      -0.782857       -21.3026
  33   2.0000      -0.767438       -20.8830
  34   2.0000      -0.707838       -19.2612
  35   2.0000      -0.699602       -19.0371
  36   2.0000      -0.693942       -18.8831
  37   2.0000      -0.658579       -17.9208
  38   2.0000      -0.643247       -17.5036
  39   2.0000      -0.618480       -16.8297
  40   2.0000      -0.596069       -16.2199
  41   2.0000      -0.561243       -15.2722
  42   2.0000      -0.554639       -15.0925
  43   2.0000      -0.552791       -15.0422
  44   2.0000      -0.548980       -14.9385
  45   2.0000      -0.529994       -14.4219
  46   2.0000      -0.520060       -14.1515
  47   2.0000      -0.509226       -13.8567
  48   2.0000      -0.502984       -13.6869
  49   2.0000      -0.496068       -13.4987
  50   2.0000      -0.491455       -13.3732
  51   2.0000      -0.475339       -12.9346
  52   2.0000      -0.471310       -12.8250
  53   2.0000      -0.463338       -12.6081
  54   2.0000      -0.455153       -12.3854
  55   2.0000      -0.450731       -12.2650
  56   2.0000      -0.446005       -12.1364
  57   2.0000      -0.444580       -12.0976
  58   2.0000      -0.437709       -11.9107
  59   2.0000      -0.424345       -11.5470
  60   2.0000      -0.417908       -11.3718
  61   2.0000      -0.415253       -11.2996
  62   2.0000      -0.414403       -11.2765
  63   2.0000      -0.349576        -9.5124
  64   2.0000      -0.334337        -9.0978
  65   2.0000      -0.327036        -8.8991
  66   2.0000      -0.283296        -7.7089
  67   0.0000       0.027912         0.7595
  68   0.0000       0.070077         1.9069
  69   0.0000       0.097252         2.6464
  70   0.0000       0.122906         3.3444
  71   0.0000       0.127113         3.4589

MULLIKEN ATOMIC CHARGES
-----------------------
   0 S :    0.107737
   1 C :   -0.125595
   2 C :   -0.109306
   3 C :    0.008454
   4 C :   -0.130237
   5 H :    0.025125
   6 C :    0.052831
   7 H :    0.029164
   8 H :    0.014555
   9 C :   -0.034091
  10 H :    0.023936
  11 H :    0.035027
  12 C :   -0.086211
  13 H :    0.036080
  14 H :    0.042932
  15 H :    0.040138
  16 S :    0.100902
  17 C :   -0.099203
  18 C :   -0.025473
  19 C :   -0.079827
  20 C :   -0.163819
  21 H :    0.007952
  22 C :    0.128845
  23 H :    0.011657
  24 H :    0.033752
  25 C :   -0.066181
  26 H :    0.042104
  27 H :    0.018916
  28 C :   -0.065308
  29 H :    0.024109
  30 H :    0.046022
  31 H :    0.030038
  32 H :    0.055014
  33 H :    0.069962
Sum of atomic charges:    0.0000000

LOEWDIN ATOMIC CHARGES
----------------------
   0 S :    0.414262
   1 C :   -0.210111
   2 C :   -0.060137
   3 C :   -0.072397
   4 C :   -0.203790
   5 H :    0.039763
   6 C :   -0.040903
   7 H :    0.032955
   8 H :    0.028764
   9 C :   -0.035784
  10 H :    0.021376
  11 H :    0.030673
  12 C :   -0.079363
  13 H :    0.024643
  14 H :    0.034502
  15 H :    0.030024
  16 S :    0.392560
  17 C :   -0.177235
  18 C :   -0.070428
  19 C :   -0.050159
  20 C :   -0.195619
  21 H :    0.026188
  22 C :   -0.027217
  23 H :    0.026657
  24 H :    0.033970
  25 C :   -0.039432
  26 H :    0.031103
  27 H :    0.020285
  28 C :   -0.064648
  29 H :    0.022025
  30 H :    0.028879
  31 H :    0.020610
  32 H :    0.033028
  33 H :    0.034954

  Mayer bond orders larger than 0.100000
B(  0-S ,  1-C ) :   1.1212 B(  0-S ,  4-C ) :   1.1644 B(  1-C ,  2-C ) :   1.6198
B(  1-C , 32-H ) :   0.9718 B(  2-C ,  3-C ) :   1.2024 B(  2-C ,  6-C ) :   1.0295
B(  3-C ,  4-C ) :   1.5914 B(  3-C ,  5-H ) :   0.9964 B(  4-C , 20-C ) :   1.0048
B(  6-C ,  7-H ) :   0.9415 B(  6-C ,  8-H ) :   0.9370 B(  6-C ,  9-C ) :   1.0531
B(  9-C , 10-H ) :   0.9599 B(  9-C , 11-H ) :   0.9540 B(  9-C , 12-C ) :   1.0684
B( 12-C , 13-H ) :   0.9760 B( 12-C , 14-H ) :   0.9756 B( 12-C , 15-H ) :   0.9758
B( 16-S , 17-C ) :   1.1484 B( 16-S , 20-C ) :   1.1519 B( 17-C , 18-C ) :   1.5966
B( 17-C , 20-C ) :   0.1118 B( 17-C , 33-H ) :   0.9626 B( 18-C , 19-C ) :   1.2630
B( 18-C , 21-H ) :   0.9910 B( 19-C , 20-C ) :   1.5772 B( 19-C , 22-C ) :   1.0047
B( 22-C , 23-H ) :   0.9376 B( 22-C , 24-H ) :   0.9327 B( 22-C , 25-C ) :   1.0628
B( 25-C , 26-H ) :   0.9588 B( 25-C , 27-H ) :   0.9536 B( 25-C , 28-C ) :   1.0810
B( 28-C , 29-H ) :   0.9732 B( 28-C , 30-H ) :   0.9732 B( 28-C , 31-H ) :   0.9737

Dispersion correction           -0.014746912
FINAL SINGLE POINT ENERGY     -1339.876520883550

DIPOLE MOMENT
-------------
                                X             Y             Z
Electronic contribution:    -18.98932     -17.15763      18.59417
Nuclear contribution   :     19.32420      17.71189     -18.91777
                        -----------------------------------------
Total Dipole Moment    :      0.33488       0.55426      -0.32360
                        -----------------------------------------
Magnitude (a.u.)       :      0.72393
Magnitude (Debye)      :      1.84007

Rotational constants in cm-1:     0.017793     0.009695     0.006742
Rotational constants in MHz :   533.421556   290.653883   202.119968

                             ****ORCA TERMINATED NORMALLY****
TOTAL RUN TIME: 0 days 0 hours 0 minutes 35 seconds 315 msec
