                         Program Version 4.2.1 -  RELEASE  -
|  1> ! wB97X-D3 SP def2-SVP
|  2> %pal
|  3> nprocs 16
|  4> end
|  5>
|  6> * xyz 0 1
|  7> S 	 -49.3886 	 65.0882 	 127.348
|  8> C 	 -47.8245 	 65.6484 	 126.792
|  9> C 	 -46.8402 	 64.771 	 127.165
| 10> C 	 -47.3259 	 63.7793 	 128.034
| 11> C 	 -48.7102 	 63.6924 	 128.195
| 12> H 	 -46.7051 	 63.0519 	 128.486
| 13> C 	 -45.3741 	 65.0572 	 127.025
| 14> H 	 -45.2911 	 65.6735 	 126.148
| 15> H 	 -44.9483 	 64.139 	 126.87
| 16> C 	 -44.647 	 65.7581 	 128.253
| 17> H 	 -45.3526 	 66.5024 	 128.541
| 18> H 	 -44.6452 	 65.2121 	 129.148
| 19> C 	 -43.2259 	 66.345 	 127.9
| 20> H 	 -42.5897 	 65.5181 	 127.646
| 21> H 	 -43.328 	 66.9045 	 126.999
| 22> H 	 -42.8179 	 67.0036 	 128.613
| 23> S 	 -51.1022 	 63.1308 	 129.535
| 24> C 	 -51.3579 	 61.5594 	 130.247
| 25> C 	 -50.3172 	 60.7864 	 130.072
| 26> C 	 -49.1959 	 61.4411 	 129.426
| 27> C 	 -49.519 	 62.6971 	 128.937
| 28> H 	 -50.3804 	 59.7227 	 130.237
| 29> C 	 -47.9605 	 60.6047 	 129.233
| 30> H 	 -47.4694 	 60.8853 	 128.243
| 31> H 	 -48.2454 	 59.5519 	 128.994
| 32> C 	 -46.8467 	 60.7235 	 130.28
| 33> H 	 -47.3047 	 60.4116 	 131.268
| 34> H 	 -46.6736 	 61.8442 	 130.449
| 35> C 	 -45.5745 	 59.8799 	 130.067
| 36> H 	 -44.9191 	 60.2277 	 129.232
| 37> H 	 -45.6369 	 58.7846 	 130.106
| 38> H 	 -44.9666 	 60.1374 	 130.95
| 39> H 	 -47.769 	 66.5726 	 126.312
| 40> H 	 -52.3368 	 61.2955 	 130.643
| 41> *
| 42>
| 43>                          ****END OF INPUT****

CARTESIAN COORDINATES (ANGSTROEM)
---------------------------------
  S    -49.388600   65.088200  127.348000
  C    -47.824500   65.648400  126.792000
  C    -46.840200   64.771000  127.165000
  C    -47.325900   63.779300  128.034000
  C    -48.710200   63.692400  128.195000
  H    -46.705100   63.051900  128.486000
  C    -45.374100   65.057200  127.025000
  H    -45.291100   65.673500  126.148000
  H    -44.948300   64.139000  126.870000
  C    -44.647000   65.758100  128.253000
  H    -45.352600   66.502400  128.541000
  H    -44.645200   65.212100  129.148000
  C    -43.225900   66.345000  127.900000
  H    -42.589700   65.518100  127.646000
  H    -43.328000   66.904500  126.999000
  H    -42.817900   67.003600  128.613000
  S    -51.102200   63.130800  129.535000
  C    -51.357900   61.559400  130.247000
  C    -50.317200   60.786400  130.072000
  C    -49.195900   61.441100  129.426000
  C    -49.519000   62.697100  128.937000
  H    -50.380400   59.722700  130.237000
  C    -47.960500   60.604700  129.233000
  H    -47.469400   60.885300  128.243000
  H    -48.245400   59.551900  128.994000
  C    -46.846700   60.723500  130.280000
  H    -47.304700   60.411600  131.268000
  H    -46.673600   61.844200  130.449000
  C    -45.574500   59.879900  130.067000
  H    -44.919100   60.227700  129.232000
  H    -45.636900   58.784600  130.106000
  H    -44.966600   60.137400  130.950000
  H    -47.769000   66.572600  126.312000
  H    -52.336800   61.295500  130.643000

 Total Charge           Charge          ....    0
 Multiplicity           Mult            ....    1
 Number of Electrons    NEL             ....  134
 Basis Dimension        Dim             ....  322

ORBITAL ENERGIES
----------------

  NO   OCC          E(Eh)            E(eV)
   0   2.0000     -88.964338     -2420.8427
   1   2.0000     -88.961128     -2420.7554
   2   2.0000     -10.336981      -281.2835
   3   2.0000     -10.334835      -281.2251
   4   2.0000     -10.312519      -280.6179
   5   2.0000     -10.312399      -280.6146
   6   2.0000     -10.305075      -280.4154
   7   2.0000     -10.301559      -280.3197
   8   2.0000     -10.297291      -280.2035
   9   2.0000     -10.296594      -280.1846
  10   2.0000     -10.290620      -280.0220
  11   2.0000     -10.289037      -279.9789
  12   2.0000     -10.287949      -279.9493
  13   2.0000     -10.286213      -279.9021
  14   2.0000     -10.284587      -279.8578
  15   2.0000     -10.275991      -279.6239
  16   2.0000      -8.078882      -219.8376
  17   2.0000      -8.076688      -219.7778
  18   2.0000      -6.037421      -164.2866
  19   2.0000      -6.035346      -164.2301
  20   2.0000      -6.033279      -164.1739
  21   2.0000      -6.031097      -164.1145
  22   2.0000      -6.029771      -164.0784
  23   2.0000      -6.027217      -164.0089
  24   2.0000      -1.009848       -27.4794
  25   2.0000      -0.990758       -26.9599
  26   2.0000      -0.908495       -24.7214
  27   2.0000      -0.906015       -24.6539
  28   2.0000      -0.872704       -23.7475
  29   2.0000      -0.851568       -23.1723
  30   2.0000      -0.846287       -23.0286
  31   2.0000      -0.822359       -22.3775
  32   2.0000      -0.784012       -21.3341
  33   2.0000      -0.775114       -21.0919
  34   2.0000      -0.717544       -19.5254
  35   2.0000      -0.707000       -19.2385
  36   2.0000      -0.690721       -18.7955
  37   2.0000      -0.666546       -18.1376
  38   2.0000      -0.645382       -17.5617
  39   2.0000      -0.626183       -17.0393
  40   2.0000      -0.600734       -16.3468
  41   2.0000      -0.571517       -15.5518
  42   2.0000      -0.562339       -15.3020
  43   2.0000      -0.552855       -15.0440
  44   2.0000      -0.531923       -14.4744
  45   2.0000      -0.525394       -14.2967
  46   2.0000      -0.519464       -14.1353
  47   2.0000      -0.515992       -14.0408
  48   2.0000      -0.506624       -13.7859
  49   2.0000      -0.501837       -13.6557
  50   2.0000      -0.501043       -13.6341
  51   2.0000      -0.478702       -13.0261
  52   2.0000      -0.475350       -12.9349
  53   2.0000      -0.468031       -12.7358
  54   2.0000      -0.458414       -12.4741
  55   2.0000      -0.454011       -12.3543
  56   2.0000      -0.446071       -12.1382
  57   2.0000      -0.438732       -11.9385
  58   2.0000      -0.433019       -11.7831
  59   2.0000      -0.426280       -11.5997
  60   2.0000      -0.419785       -11.4229
  61   2.0000      -0.413225       -11.2444
  62   2.0000      -0.404552       -11.0084
  63   2.0000      -0.365247        -9.9389
  64   2.0000      -0.332890        -9.0584
  65   2.0000      -0.327237        -8.9046
  66   2.0000      -0.289564        -7.8794
  67   0.0000       0.020615         0.5610
  68   0.0000       0.087922         2.3925
  69   0.0000       0.107982         2.9383
  70   0.0000       0.122074         3.3218
  71   0.0000       0.128666         3.5012

MULLIKEN ATOMIC CHARGES
-----------------------
   0 S :    0.090476
   1 C :   -0.114356
   2 C :   -0.073723
   3 C :    0.007990
   4 C :   -0.111101
   5 H :   -0.023889
   6 C :    0.106543
   7 H :    0.014774
   8 H :    0.003591
   9 C :   -0.053698
  10 H :    0.011654
  11 H :    0.012835
  12 C :   -0.012711
  13 H :    0.030576
  14 H :    0.015886
  15 H :    0.035825
  16 S :    0.080788
  17 C :   -0.080131
  18 C :   -0.009195
  19 C :   -0.061285
  20 C :   -0.087999
  21 H :    0.021835
  22 C :    0.000604
  23 H :    0.024666
  24 H :    0.028502
  25 C :   -0.100774
  26 H :    0.027269
  27 H :    0.045481
  28 C :   -0.045564
  29 H :    0.039154
  30 H :    0.047459
  31 H :    0.033438
  32 H :    0.035063
  33 H :    0.060016
Sum of atomic charges:    0.0000000

LOEWDIN ATOMIC CHARGES
----------------------
   0 S :    0.394602
   1 C :   -0.175315
   2 C :   -0.067693
   3 C :   -0.062219
   4 C :   -0.179268
   5 H :    0.019791
   6 C :   -0.017001
   7 H :    0.028933
   8 H :    0.016174
   9 C :   -0.031721
  10 H :    0.019663
  11 H :    0.015678
  12 C :   -0.054281
  13 H :    0.025593
  14 H :    0.021914
  15 H :    0.023298
  16 S :    0.393393
  17 C :   -0.174914
  18 C :   -0.072481
  19 C :   -0.058261
  20 C :   -0.188956
  21 H :    0.034715
  22 C :   -0.051271
  23 H :    0.030875
  24 H :    0.032285
  25 C :   -0.052125
  26 H :    0.027551
  27 H :    0.033189
  28 C :   -0.076026
  29 H :    0.029188
  30 H :    0.030460
  31 H :    0.034527
  32 H :    0.017000
  33 H :    0.032704

  Mayer bond orders larger than 0.100000
B(  0-S ,  1-C ) :   1.1515 B(  0-S ,  4-C ) :   1.1482 B(  1-C ,  2-C ) :   1.5581
B(  1-C ,  4-C ) :   0.1027 B(  1-C , 32-H ) :   0.9832 B(  2-C ,  3-C ) :   1.2692
B(  2-C ,  6-C ) :   1.0506 B(  3-C ,  4-C ) :   1.5473 B(  3-C ,  5-H ) :   0.9935
B(  4-C , 20-C ) :   1.0622 B(  6-C ,  7-H ) :   0.9407 B(  6-C ,  8-H ) :   0.9256
B(  6-C ,  9-C ) :   1.0484 B(  9-C , 10-H ) :   0.9564 B(  9-C , 11-H ) :   0.9565
B(  9-C , 12-C ) :   1.0712 B( 12-C , 13-H ) :   0.9783 B( 12-C , 14-H ) :   0.9766
B( 12-C , 15-H ) :   0.9764 B( 16-S , 17-C ) :   1.1337 B( 16-S , 20-C ) :   1.1255
B( 17-C , 18-C ) :   1.6474 B( 17-C , 33-H ) :   0.9650 B( 18-C , 19-C ) :   1.2122
B( 18-C , 21-H ) :   0.9911 B( 19-C , 20-C ) :   1.6162 B( 19-C , 22-C ) :   1.0465
B( 22-C , 23-H ) :   0.9351 B( 22-C , 24-H ) :   0.9391 B( 22-C , 25-C ) :   1.0532
B( 25-C , 26-H ) :   0.9501 B( 25-C , 27-H ) :   0.9503 B( 25-C , 28-C ) :   1.0763
B( 28-C , 29-H ) :   0.9728 B( 28-C , 30-H ) :   0.9738 B( 28-C , 31-H ) :   0.9700

Dispersion correction           -0.013864503
FINAL SINGLE POINT ENERGY     -1339.868764463398

DIPOLE MOMENT
-------------
                                X             Y             Z
Electronic contribution:    -31.71319       5.60120      -3.10751
Nuclear contribution   :     32.32275      -5.93407       3.25828
                        -----------------------------------------
Total Dipole Moment    :      0.60956      -0.33287       0.15077
                        -----------------------------------------
Magnitude (a.u.)       :      0.71071
Magnitude (Debye)      :      1.80647

Rotational constants in cm-1:     0.017333     0.008906     0.006228
Rotational constants in MHz :   519.616902   266.988030   186.716221

                             ****ORCA TERMINATED NORMALLY****
TOTAL RUN TIME: 0 days 0 hours 0 minutes 34 seconds 501 msec
