                         Program Version 4.2.1 -  RELEASE  -
|  1> ! wB97X-D3 SP def2-SVP
|  2> %pal
|  3> nprocs 16
|  4> end
|  5>
|  6> * xyz 0 1
|  7> S 	 -97.8966 	 43.117 	 126.554
|  8> C 	 -98.2293 	 42.4419 	 128.186
|  9> C 	 -97.1346 	 41.7928 	 128.624
| 10> C 	 -96.1271 	 41.6134 	 127.643
| 11> C 	 -96.4971 	 42.0334 	 126.399
| 12> H 	 -95.1761 	 41.1453 	 127.729
| 13> C 	 -96.87 	 41.5342 	 130.127
| 14> H 	 -97.2818 	 42.3951 	 130.66
| 15> H 	 -95.8262 	 41.6251 	 130.425
| 16> C 	 -97.5402 	 40.2979 	 130.749
| 17> H 	 -97.084 	 40.1247 	 131.723
| 18> H 	 -98.5629 	 40.6387 	 130.973
| 19> C 	 -97.5034 	 39.0454 	 129.804
| 20> H 	 -96.5315 	 39.0537 	 129.239
| 21> H 	 -97.6404 	 38.102 	 130.406
| 22> H 	 -98.3603 	 39.18 	 129.09
| 23> S 	 -95.1381 	 40.2176 	 124.783
| 24> C 	 -94.2642 	 40.8185 	 123.431
| 25> C 	 -94.5711 	 42.0773 	 123.08
| 26> C 	 -95.3689 	 42.6513 	 124.104
| 27> C 	 -95.6417 	 41.8369 	 125.19
| 28> H 	 -94.2616 	 42.6642 	 122.23
| 29> C 	 -95.8428 	 44.1123 	 123.925
| 30> H 	 -96.0698 	 44.4818 	 124.947
| 31> H 	 -96.8933 	 44.1251 	 123.39
| 32> C 	 -94.9678 	 45.2416 	 123.393
| 33> H 	 -94.6701 	 45.0695 	 122.343
| 34> H 	 -94.0514 	 45.1812 	 124.05
| 35> C 	 -95.725 	 46.5625 	 123.395
| 36> H 	 -96.7339 	 46.445 	 122.93
| 37> H 	 -95.2622 	 47.4283 	 122.882
| 38> H 	 -95.686 	 46.8658 	 124.394
| 39> H 	 -99.1597 	 42.5661 	 128.741
| 40> H 	 -93.5529 	 40.158 	 122.84
| 41> *
| 42>
| 43>                          ****END OF INPUT****

CARTESIAN COORDINATES (ANGSTROEM)
---------------------------------
  S    -97.896600   43.117000  126.554000
  C    -98.229300   42.441900  128.186000
  C    -97.134600   41.792800  128.624000
  C    -96.127100   41.613400  127.643000
  C    -96.497100   42.033400  126.399000
  H    -95.176100   41.145300  127.729000
  C    -96.870000   41.534200  130.127000
  H    -97.281800   42.395100  130.660000
  H    -95.826200   41.625100  130.425000
  C    -97.540200   40.297900  130.749000
  H    -97.084000   40.124700  131.723000
  H    -98.562900   40.638700  130.973000
  C    -97.503400   39.045400  129.804000
  H    -96.531500   39.053700  129.239000
  H    -97.640400   38.102000  130.406000
  H    -98.360300   39.180000  129.090000
  S    -95.138100   40.217600  124.783000
  C    -94.264200   40.818500  123.431000
  C    -94.571100   42.077300  123.080000
  C    -95.368900   42.651300  124.104000
  C    -95.641700   41.836900  125.190000
  H    -94.261600   42.664200  122.230000
  C    -95.842800   44.112300  123.925000
  H    -96.069800   44.481800  124.947000
  H    -96.893300   44.125100  123.390000
  C    -94.967800   45.241600  123.393000
  H    -94.670100   45.069500  122.343000
  H    -94.051400   45.181200  124.050000
  C    -95.725000   46.562500  123.395000
  H    -96.733900   46.445000  122.930000
  H    -95.262200   47.428300  122.882000
  H    -95.686000   46.865800  124.394000
  H    -99.159700   42.566100  128.741000
  H    -93.552900   40.158000  122.840000

 Total Charge           Charge          ....    0
 Multiplicity           Mult            ....    1
 Number of Electrons    NEL             ....  134
 Basis Dimension        Dim             ....  322

ORBITAL ENERGIES
----------------

  NO   OCC          E(Eh)            E(eV)
   0   2.0000     -88.966895     -2420.9123
   1   2.0000     -88.965284     -2420.8684
   2   2.0000     -10.332577      -281.1637
   3   2.0000     -10.327557      -281.0271
   4   2.0000     -10.317723      -280.7595
   5   2.0000     -10.315757      -280.7060
   6   2.0000     -10.301518      -280.3186
   7   2.0000     -10.299768      -280.2709
   8   2.0000     -10.298080      -280.2250
   9   2.0000     -10.291936      -280.0578
  10   2.0000     -10.290122      -280.0085
  11   2.0000     -10.288911      -279.9755
  12   2.0000     -10.288820      -279.9730
  13   2.0000     -10.286947      -279.9221
  14   2.0000     -10.286480      -279.9094
  15   2.0000     -10.278341      -279.6879
  16   2.0000      -8.082391      -219.9330
  17   2.0000      -8.078668      -219.8317
  18   2.0000      -6.040855      -164.3800
  19   2.0000      -6.037394      -164.2858
  20   2.0000      -6.036960      -164.2740
  21   2.0000      -6.033656      -164.1841
  22   2.0000      -6.032975      -164.1656
  23   2.0000      -6.028974      -164.0567
  24   2.0000      -1.010906       -27.5081
  25   2.0000      -0.989962       -26.9382
  26   2.0000      -0.908627       -24.7250
  27   2.0000      -0.904734       -24.6191
  28   2.0000      -0.868894       -23.6438
  29   2.0000      -0.852875       -23.2079
  30   2.0000      -0.837686       -22.7946
  31   2.0000      -0.816839       -22.2273
  32   2.0000      -0.778636       -21.1878
  33   2.0000      -0.770205       -20.9584
  34   2.0000      -0.703115       -19.1327
  35   2.0000      -0.692868       -18.8539
  36   2.0000      -0.688545       -18.7363
  37   2.0000      -0.660489       -17.9728
  38   2.0000      -0.637586       -17.3496
  39   2.0000      -0.610147       -16.6029
  40   2.0000      -0.598317       -16.2810
  41   2.0000      -0.573173       -15.5968
  42   2.0000      -0.572911       -15.5897
  43   2.0000      -0.546589       -14.8734
  44   2.0000      -0.537721       -14.6321
  45   2.0000      -0.519664       -14.1408
  46   2.0000      -0.518020       -14.0960
  47   2.0000      -0.508885       -13.8475
  48   2.0000      -0.506020       -13.7695
  49   2.0000      -0.489506       -13.3201
  50   2.0000      -0.488471       -13.2920
  51   2.0000      -0.472750       -12.8642
  52   2.0000      -0.471587       -12.8325
  53   2.0000      -0.467405       -12.7187
  54   2.0000      -0.461598       -12.5607
  55   2.0000      -0.452182       -12.3045
  56   2.0000      -0.439663       -11.9638
  57   2.0000      -0.430488       -11.7142
  58   2.0000      -0.427446       -11.6314
  59   2.0000      -0.421536       -11.4706
  60   2.0000      -0.418287       -11.3822
  61   2.0000      -0.411729       -11.2037
  62   2.0000      -0.402414       -10.9502
  63   2.0000      -0.351989        -9.5781
  64   2.0000      -0.333707        -9.0806
  65   2.0000      -0.327170        -8.9027
  66   2.0000      -0.291278        -7.9261
  67   0.0000       0.023851         0.6490
  68   0.0000       0.071404         1.9430
  69   0.0000       0.096607         2.6288
  70   0.0000       0.109897         2.9904
  71   0.0000       0.135952         3.6994

MULLIKEN ATOMIC CHARGES
-----------------------
   0 S :    0.089587
   1 C :   -0.129922
   2 C :   -0.041375
   3 C :    0.003356
   4 C :   -0.115839
   5 H :    0.008289
   6 C :    0.039063
   7 H :    0.022981
   8 H :    0.026828
   9 C :   -0.082029
  10 H :    0.028567
  11 H :    0.024809
  12 C :   -0.072627
  13 H :    0.044716
  14 H :    0.050398
  15 H :    0.050946
  16 S :    0.112607
  17 C :   -0.102070
  18 C :    0.004059
  19 C :   -0.059895
  20 C :   -0.141826
  21 H :    0.016435
  22 C :   -0.037605
  23 H :    0.022454
  24 H :    0.053542
  25 C :   -0.080728
  26 H :    0.028390
  27 H :    0.045625
  28 C :   -0.042401
  29 H :    0.045471
  30 H :    0.034040
  31 H :    0.024070
  32 H :    0.055978
  33 H :    0.074110
Sum of atomic charges:    0.0000000

LOEWDIN ATOMIC CHARGES
----------------------
   0 S :    0.372381
   1 C :   -0.173847
   2 C :   -0.065564
   3 C :   -0.062081
   4 C :   -0.173667
   5 H :    0.026671
   6 C :   -0.034610
   7 H :    0.031156
   8 H :    0.028881
   9 C :   -0.046573
  10 H :    0.021997
  11 H :    0.020614
  12 C :   -0.075454
  13 H :    0.030773
  14 H :    0.031650
  15 H :    0.034429
  16 S :    0.423428
  17 C :   -0.192935
  18 C :   -0.071501
  19 C :   -0.062460
  20 C :   -0.200227
  21 H :    0.035182
  22 C :   -0.053320
  23 H :    0.021596
  24 H :    0.039691
  25 C :   -0.049136
  26 H :    0.016374
  27 H :    0.033468
  28 C :   -0.065112
  29 H :    0.034438
  30 H :    0.030513
  31 H :    0.020098
  32 H :    0.033515
  33 H :    0.039634

  Mayer bond orders larger than 0.100000
B(  0-S ,  1-C ) :   1.1146 B(  0-S ,  4-C ) :   1.1243 B(  1-C ,  2-C ) :   1.6412
B(  1-C , 32-H ) :   0.9699 B(  2-C ,  3-C ) :   1.2019 B(  2-C ,  6-C ) :   0.9967
B(  3-C ,  4-C ) :   1.5774 B(  3-C ,  5-H ) :   1.0060 B(  4-C , 20-C ) :   1.0417
B(  6-C ,  7-H ) :   0.9515 B(  6-C ,  8-H ) :   0.9519 B(  6-C ,  9-C ) :   1.0682
B(  9-C , 10-H ) :   0.9587 B(  9-C , 11-H ) :   0.9631 B(  9-C , 12-C ) :   1.0658
B( 12-C , 13-H ) :   0.9791 B( 12-C , 14-H ) :   0.9763 B( 12-C , 15-H ) :   0.9685
B( 16-S , 17-C ) :   1.1667 B( 16-S , 20-C ) :   1.1349 B( 17-C , 18-C ) :   1.5849
B( 17-C , 33-H ) :   0.9547 B( 18-C , 19-C ) :   1.2585 B( 18-C , 21-H ) :   0.9982
B( 19-C , 20-C ) :   1.5981 B( 19-C , 22-C ) :   1.0264 B( 22-C , 23-H ) :   0.9408
B( 22-C , 24-H ) :   0.9310 B( 22-C , 25-C ) :   1.0595 B( 25-C , 26-H ) :   0.9495
B( 25-C , 27-H ) :   0.9579 B( 25-C , 28-C ) :   1.0733 B( 28-C , 29-H ) :   0.9708
B( 28-C , 30-H ) :   0.9727 B( 28-C , 31-H ) :   0.9765

Dispersion correction           -0.014113663
FINAL SINGLE POINT ENERGY     -1339.852564500243

DIPOLE MOMENT
-------------
                                X             Y             Z
Electronic contribution:      0.25335      -7.73154      -7.57082
Nuclear contribution   :     -0.07936       7.96823       7.74635
                        -----------------------------------------
Total Dipole Moment    :      0.17399       0.23669       0.17552
                        -----------------------------------------
Magnitude (a.u.)       :      0.34220
Magnitude (Debye)      :      0.86982

Rotational constants in cm-1:     0.021804     0.007907     0.006176
Rotational constants in MHz :   653.675841   237.033944   185.149346

                             ****ORCA TERMINATED NORMALLY****
TOTAL RUN TIME: 0 days 0 hours 0 minutes 32 seconds 875 msec
