                         Program Version 4.2.1 -  RELEASE  -
|  1> ! wB97X-D3 SP def2-SVP
|  2> %pal
|  3> nprocs 16
|  4> end
|  5>
|  6> * xyz 0 1
|  7> S 	 -15.3988 	 38.8199 	 36.8025
|  8> C 	 -15.4361 	 39.1565 	 35.1285
|  9> C 	 -14.5065 	 38.4353 	 34.4477
| 10> C 	 -13.835 	 37.4663 	 35.2695
| 11> C 	 -14.287 	 37.4095 	 36.5797
| 12> H 	 -13.2379 	 36.7071 	 34.8731
| 13> C 	 -14.3547 	 38.4916 	 32.9517
| 14> H 	 -13.3181 	 38.6626 	 32.7173
| 15> H 	 -14.7259 	 39.4321 	 32.6835
| 16> C 	 -15.1338 	 37.4423 	 32.0959
| 17> H 	 -16.1884 	 37.4239 	 32.3807
| 18> H 	 -15.1599 	 37.8916 	 31.0599
| 19> C 	 -14.4434 	 36.0985 	 31.8726
| 20> H 	 -14.4108 	 35.57 	 32.8452
| 21> H 	 -15.0998 	 35.4268 	 31.3157
| 22> H 	 -13.3951 	 36.0753 	 31.5307
| 23> S 	 -12.7262 	 37.8737 	 38.7559
| 24> C 	 -11.8887 	 36.6191 	 39.5376
| 25> C 	 -12.2392 	 35.3925 	 38.9698
| 26> C 	 -13.193 	 35.4805 	 37.9431
| 27> C 	 -13.5618 	 36.7962 	 37.7018
| 28> H 	 -11.8016 	 34.4792 	 39.3459
| 29> C 	 -13.7356 	 34.1673 	 37.2897
| 30> H 	 -14.5437 	 34.4132 	 36.612
| 31> H 	 -14.2637 	 33.6817 	 38.104
| 32> C 	 -12.8531 	 33.1948 	 36.5314
| 33> H 	 -12.329 	 32.6342 	 37.2839
| 34> H 	 -11.9989 	 33.5369 	 35.9211
| 35> C 	 -13.6568 	 32.3029 	 35.5817
| 36> H 	 -13.8227 	 32.7217 	 34.6104
| 37> H 	 -14.5534 	 31.9999 	 36.0508
| 38> H 	 -13.215 	 31.322 	 35.3974
| 39> H 	 -15.9897 	 40.0179 	 34.8078
| 40> H 	 -11.1993 	 36.8695 	 40.3566
| 41> *
| 42>
| 43>                          ****END OF INPUT****

CARTESIAN COORDINATES (ANGSTROEM)
---------------------------------
  S    -15.398800   38.819900   36.802500
  C    -15.436100   39.156500   35.128500
  C    -14.506500   38.435300   34.447700
  C    -13.835000   37.466300   35.269500
  C    -14.287000   37.409500   36.579700
  H    -13.237900   36.707100   34.873100
  C    -14.354700   38.491600   32.951700
  H    -13.318100   38.662600   32.717300
  H    -14.725900   39.432100   32.683500
  C    -15.133800   37.442300   32.095900
  H    -16.188400   37.423900   32.380700
  H    -15.159900   37.891600   31.059900
  C    -14.443400   36.098500   31.872600
  H    -14.410800   35.570000   32.845200
  H    -15.099800   35.426800   31.315700
  H    -13.395100   36.075300   31.530700
  S    -12.726200   37.873700   38.755900
  C    -11.888700   36.619100   39.537600
  C    -12.239200   35.392500   38.969800
  C    -13.193000   35.480500   37.943100
  C    -13.561800   36.796200   37.701800
  H    -11.801600   34.479200   39.345900
  C    -13.735600   34.167300   37.289700
  H    -14.543700   34.413200   36.612000
  H    -14.263700   33.681700   38.104000
  C    -12.853100   33.194800   36.531400
  H    -12.329000   32.634200   37.283900
  H    -11.998900   33.536900   35.921100
  C    -13.656800   32.302900   35.581700
  H    -13.822700   32.721700   34.610400
  H    -14.553400   31.999900   36.050800
  H    -13.215000   31.322000   35.397400
  H    -15.989700   40.017900   34.807800
  H    -11.199300   36.869500   40.356600

 Total Charge           Charge          ....    0
 Multiplicity           Mult            ....    1
 Number of Electrons    NEL             ....  134
 Basis Dimension        Dim             ....  322

ORBITAL ENERGIES
----------------

  NO   OCC          E(Eh)            E(eV)
   0   2.0000     -88.962158     -2420.7834
   1   2.0000     -88.960350     -2420.7342
   2   2.0000     -10.331610      -281.1374
   3   2.0000     -10.323498      -280.9167
   4   2.0000     -10.315042      -280.6866
   5   2.0000     -10.309420      -280.5336
   6   2.0000     -10.302553      -280.3467
   7   2.0000     -10.295176      -280.1460
   8   2.0000     -10.295120      -280.1445
   9   2.0000     -10.292271      -280.0669
  10   2.0000     -10.290694      -280.0240
  11   2.0000     -10.290224      -280.0112
  12   2.0000     -10.285839      -279.8919
  13   2.0000     -10.284436      -279.8537
  14   2.0000     -10.281976      -279.7868
  15   2.0000     -10.272918      -279.5403
  16   2.0000      -8.078480      -219.8266
  17   2.0000      -8.075429      -219.7436
  18   2.0000      -6.036690      -164.2667
  19   2.0000      -6.033852      -164.1895
  20   2.0000      -6.032612      -164.1557
  21   2.0000      -6.029840      -164.0803
  22   2.0000      -6.029590      -164.0735
  23   2.0000      -6.026299      -163.9839
  24   2.0000      -1.009516       -27.4703
  25   2.0000      -0.987862       -26.8811
  26   2.0000      -0.909928       -24.7604
  27   2.0000      -0.906557       -24.6687
  28   2.0000      -0.869700       -23.6658
  29   2.0000      -0.855181       -23.2707
  30   2.0000      -0.845730       -23.0135
  31   2.0000      -0.815264       -22.1845
  32   2.0000      -0.785293       -21.3689
  33   2.0000      -0.772918       -21.0322
  34   2.0000      -0.708293       -19.2736
  35   2.0000      -0.701534       -19.0897
  36   2.0000      -0.694524       -18.8990
  37   2.0000      -0.662289       -18.0218
  38   2.0000      -0.646254       -17.5855
  39   2.0000      -0.618946       -16.8424
  40   2.0000      -0.601075       -16.3561
  41   2.0000      -0.568721       -15.4757
  42   2.0000      -0.564063       -15.3489
  43   2.0000      -0.541384       -14.7318
  44   2.0000      -0.534426       -14.5425
  45   2.0000      -0.527604       -14.3568
  46   2.0000      -0.522100       -14.2071
  47   2.0000      -0.512024       -13.9329
  48   2.0000      -0.509739       -13.8707
  49   2.0000      -0.495828       -13.4922
  50   2.0000      -0.487786       -13.2733
  51   2.0000      -0.483379       -13.1534
  52   2.0000      -0.481405       -13.0997
  53   2.0000      -0.469206       -12.7678
  54   2.0000      -0.459186       -12.4951
  55   2.0000      -0.449026       -12.2186
  56   2.0000      -0.443723       -12.0743
  57   2.0000      -0.436717       -11.8837
  58   2.0000      -0.429736       -11.6937
  59   2.0000      -0.426184       -11.5971
  60   2.0000      -0.419558       -11.4167
  61   2.0000      -0.406375       -11.0580
  62   2.0000      -0.403258       -10.9732
  63   2.0000      -0.347513        -9.4563
  64   2.0000      -0.331965        -9.0332
  65   2.0000      -0.323674        -8.8076
  66   2.0000      -0.295546        -8.0422
  67   0.0000       0.034725         0.9449
  68   0.0000       0.065511         1.7826
  69   0.0000       0.119920         3.2632
  70   0.0000       0.121662         3.3106
  71   0.0000       0.131879         3.5886

MULLIKEN ATOMIC CHARGES
-----------------------
   0 S :    0.081079
   1 C :   -0.107940
   2 C :   -0.115549
   3 C :    0.076971
   4 C :   -0.156637
   5 H :   -0.003673
   6 C :    0.111061
   7 H :    0.018138
   8 H :   -0.014176
   9 C :   -0.067263
  10 H :    0.036119
  11 H :    0.031427
  12 C :   -0.052392
  13 H :    0.020916
  14 H :    0.032783
  15 H :    0.044351
  16 S :    0.119290
  17 C :   -0.116328
  18 C :   -0.032669
  19 C :   -0.035381
  20 C :   -0.154760
  21 H :    0.014472
  22 C :    0.065150
  23 H :    0.016066
  24 H :    0.037377
  25 C :   -0.051545
  26 H :    0.015225
  27 H :    0.032114
  28 C :   -0.042303
  29 H :    0.040017
  30 H :    0.015199
  31 H :    0.020745
  32 H :    0.050847
  33 H :    0.071268
Sum of atomic charges:    0.0000000

LOEWDIN ATOMIC CHARGES
----------------------
   0 S :    0.390563
   1 C :   -0.195518
   2 C :   -0.072437
   3 C :   -0.043506
   4 C :   -0.180605
   5 H :    0.021571
   6 C :   -0.033477
   7 H :    0.031203
   8 H :    0.023301
   9 C :   -0.038368
  10 H :    0.030189
  11 H :    0.030091
  12 C :   -0.076686
  13 H :    0.023417
  14 H :    0.028641
  15 H :    0.030667
  16 S :    0.446173
  17 C :   -0.206020
  18 C :   -0.075257
  19 C :   -0.058887
  20 C :   -0.212528
  21 H :    0.028586
  22 C :   -0.030017
  23 H :    0.027226
  24 H :    0.037565
  25 C :   -0.046502
  26 H :    0.019373
  27 H :    0.029795
  28 C :   -0.061540
  29 H :    0.024613
  30 H :    0.019001
  31 H :    0.029318
  32 H :    0.026408
  33 H :    0.033651

  Mayer bond orders larger than 0.100000
B(  0-S ,  1-C ) :   1.1559 B(  0-S ,  4-C ) :   1.1405 B(  1-C ,  2-C ) :   1.6002
B(  1-C , 32-H ) :   0.9690 B(  2-C ,  3-C ) :   1.2522 B(  2-C ,  6-C ) :   1.0351
B(  3-C ,  4-C ) :   1.5687 B(  3-C ,  5-H ) :   0.9984 B(  4-C , 20-C ) :   1.0103
B(  6-C ,  7-H ) :   0.9337 B(  6-C ,  8-H ) :   0.9248 B(  6-C ,  9-C ) :   1.0623
B(  9-C , 10-H ) :   0.9538 B(  9-C , 11-H ) :   0.9558 B(  9-C , 12-C ) :   1.0791
B( 12-C , 13-H ) :   0.9712 B( 12-C , 14-H ) :   0.9691 B( 12-C , 15-H ) :   0.9745
B( 16-S , 17-C ) :   1.1918 B( 16-S , 20-C ) :   1.1746 B( 17-C , 18-C ) :   1.5427
B( 17-C , 20-C ) :   0.1006 B( 17-C , 33-H ) :   0.9706 B( 18-C , 19-C ) :   1.2870
B( 18-C , 21-H ) :   0.9996 B( 19-C , 20-C ) :   1.5792 B( 19-C , 22-C ) :   1.0237
B( 22-C , 23-H ) :   0.9451 B( 22-C , 24-H ) :   0.9320 B( 22-C , 25-C ) :   1.0489
B( 25-C , 26-H ) :   0.9503 B( 25-C , 27-H ) :   0.9618 B( 25-C , 28-C ) :   1.0895
B( 28-C , 29-H ) :   0.9762 B( 28-C , 30-H ) :   0.9727 B( 28-C , 31-H ) :   0.9694

Dispersion correction           -0.014059696
FINAL SINGLE POINT ENERGY     -1339.867129788635

DIPOLE MOMENT
-------------
                                X             Y             Z
Electronic contribution:     -0.14239      21.41760      23.08769
Nuclear contribution   :      0.34318     -21.79421     -23.57454
                        -----------------------------------------
Total Dipole Moment    :      0.20079      -0.37661      -0.48685
                        -----------------------------------------
Magnitude (a.u.)       :      0.64743
Magnitude (Debye)      :      1.64564

Rotational constants in cm-1:     0.015562     0.010211     0.006749
Rotational constants in MHz :   466.533464   306.108223   202.331658

                             ****ORCA TERMINATED NORMALLY****
TOTAL RUN TIME: 0 days 0 hours 0 minutes 33 seconds 931 msec
