                         Program Version 4.2.1 -  RELEASE  -
|  1> ! wB97X-D3 SP def2-SVP
|  2> %pal
|  3> nprocs 16
|  4> end
|  5>
|  6> * xyz 0 1
|  7> S 	 14.6086 	 -13.1773 	 76.5009
|  8> C 	 14.4669 	 -14.3275 	 77.7436
|  9> C 	 13.1013 	 -14.7054 	 77.9456
| 10> C 	 12.2596 	 -13.9136 	 77.0949
| 11> C 	 12.9512 	 -12.9285 	 76.4212
| 12> H 	 11.239 	 -14.1032 	 76.8026
| 13> C 	 12.6461 	 -15.8479 	 78.8562
| 14> H 	 13.3781 	 -16.5848 	 79.0777
| 15> H 	 11.8118 	 -16.5098 	 78.4615
| 16> C 	 12.1817 	 -15.3316 	 80.2701
| 17> H 	 12.9674 	 -14.6181 	 80.5081
| 18> H 	 11.3401 	 -14.7021 	 80.2161
| 19> C 	 11.9035 	 -16.3224 	 81.4015
| 20> H 	 10.9478 	 -16.8617 	 81.3525
| 21> H 	 12.7802 	 -16.9143 	 81.3829
| 22> H 	 11.88 	 -15.7575 	 82.3477
| 23> S 	 10.7837 	 -11.3184 	 75.9491
| 24> C 	 10.6174 	 -10.6048 	 74.2932
| 25> C 	 11.8001 	 -10.7408 	 73.62
| 26> C 	 12.756 	 -11.5432 	 74.2306
| 27> C 	 12.3558 	 -12.0129 	 75.4545
| 28> H 	 11.9145 	 -10.2762 	 72.7002
| 29> C 	 13.9742 	 -11.8465 	 73.4455
| 30> H 	 14.932 	 -11.8121 	 73.9817
| 31> H 	 14.0571 	 -11.0705 	 72.774
| 32> C 	 13.8739 	 -13.1752 	 72.5864
| 33> H 	 12.9876 	 -13.1805 	 71.9541
| 34> H 	 13.701 	 -13.9559 	 73.267
| 35> C 	 15.2231 	 -13.5386 	 71.8183
| 36> H 	 15.4668 	 -12.8 	 71.0403
| 37> H 	 15.2507 	 -14.4301 	 71.3511
| 38> H 	 16.1267 	 -13.5463 	 72.4183
| 39> H 	 15.2364 	 -14.7467 	 78.3766
| 40> H 	 9.77619 	 -10.074 	 73.9028
| 41> *
| 42>
| 43>                          ****END OF INPUT****

CARTESIAN COORDINATES (ANGSTROEM)
---------------------------------
  S     14.608600  -13.177300   76.500900
  C     14.466900  -14.327500   77.743600
  C     13.101300  -14.705400   77.945600
  C     12.259600  -13.913600   77.094900
  C     12.951200  -12.928500   76.421200
  H     11.239000  -14.103200   76.802600
  C     12.646100  -15.847900   78.856200
  H     13.378100  -16.584800   79.077700
  H     11.811800  -16.509800   78.461500
  C     12.181700  -15.331600   80.270100
  H     12.967400  -14.618100   80.508100
  H     11.340100  -14.702100   80.216100
  C     11.903500  -16.322400   81.401500
  H     10.947800  -16.861700   81.352500
  H     12.780200  -16.914300   81.382900
  H     11.880000  -15.757500   82.347700
  S     10.783700  -11.318400   75.949100
  C     10.617400  -10.604800   74.293200
  C     11.800100  -10.740800   73.620000
  C     12.756000  -11.543200   74.230600
  C     12.355800  -12.012900   75.454500
  H     11.914500  -10.276200   72.700200
  C     13.974200  -11.846500   73.445500
  H     14.932000  -11.812100   73.981700
  H     14.057100  -11.070500   72.774000
  C     13.873900  -13.175200   72.586400
  H     12.987600  -13.180500   71.954100
  H     13.701000  -13.955900   73.267000
  C     15.223100  -13.538600   71.818300
  H     15.466800  -12.800000   71.040300
  H     15.250700  -14.430100   71.351100
  H     16.126700  -13.546300   72.418300
  H     15.236400  -14.746700   78.376600
  H      9.776190  -10.074000   73.902800

 Total Charge           Charge          ....    0
 Multiplicity           Mult            ....    1
 Number of Electrons    NEL             ....  134
 Basis Dimension        Dim             ....  322

ORBITAL ENERGIES
----------------

  NO   OCC          E(Eh)            E(eV)
   0   2.0000     -88.971768     -2421.0449
   1   2.0000     -88.965943     -2420.8864
   2   2.0000     -10.328697      -281.0581
   3   2.0000     -10.323551      -280.9181
   4   2.0000     -10.316436      -280.7245
   5   2.0000     -10.315358      -280.6952
   6   2.0000     -10.310267      -280.5566
   7   2.0000     -10.297296      -280.2037
   8   2.0000     -10.294475      -280.1269
   9   2.0000     -10.293038      -280.0878
  10   2.0000     -10.288511      -279.9646
  11   2.0000     -10.286140      -279.9001
  12   2.0000     -10.284131      -279.8454
  13   2.0000     -10.277167      -279.6559
  14   2.0000     -10.277048      -279.6527
  15   2.0000     -10.272140      -279.5191
  16   2.0000      -8.087946      -220.0842
  17   2.0000      -8.079026      -219.8415
  18   2.0000      -6.046207      -164.5256
  19   2.0000      -6.042219      -164.4171
  20   2.0000      -6.038927      -164.3275
  21   2.0000      -6.037697      -164.2941
  22   2.0000      -6.033874      -164.1900
  23   2.0000      -6.029601      -164.0738
  24   2.0000      -1.016167       -27.6513
  25   2.0000      -0.987436       -26.8695
  26   2.0000      -0.906831       -24.6761
  27   2.0000      -0.903271       -24.5792
  28   2.0000      -0.871610       -23.7177
  29   2.0000      -0.854756       -23.2591
  30   2.0000      -0.844926       -22.9916
  31   2.0000      -0.814618       -22.1669
  32   2.0000      -0.786903       -21.4127
  33   2.0000      -0.773422       -21.0459
  34   2.0000      -0.716067       -19.4852
  35   2.0000      -0.699485       -19.0339
  36   2.0000      -0.692910       -18.8550
  37   2.0000      -0.675905       -18.3923
  38   2.0000      -0.643310       -17.5054
  39   2.0000      -0.618699       -16.8357
  40   2.0000      -0.599593       -16.3158
  41   2.0000      -0.571773       -15.5587
  42   2.0000      -0.561701       -15.2847
  43   2.0000      -0.555670       -15.1205
  44   2.0000      -0.526001       -14.3132
  45   2.0000      -0.522330       -14.2133
  46   2.0000      -0.517149       -14.0723
  47   2.0000      -0.514404       -13.9977
  48   2.0000      -0.506287       -13.7768
  49   2.0000      -0.501424       -13.6444
  50   2.0000      -0.489505       -13.3201
  51   2.0000      -0.483000       -13.1431
  52   2.0000      -0.473440       -12.8830
  53   2.0000      -0.464021       -12.6266
  54   2.0000      -0.463502       -12.6125
  55   2.0000      -0.450289       -12.2530
  56   2.0000      -0.445105       -12.1119
  57   2.0000      -0.439096       -11.9484
  58   2.0000      -0.430682       -11.7195
  59   2.0000      -0.429794       -11.6953
  60   2.0000      -0.424768       -11.5585
  61   2.0000      -0.416754       -11.3404
  62   2.0000      -0.407709       -11.0943
  63   2.0000      -0.353568        -9.6211
  64   2.0000      -0.334543        -9.1034
  65   2.0000      -0.329355        -8.9622
  66   2.0000      -0.284012        -7.7284
  67   0.0000       0.021807         0.5934
  68   0.0000       0.076172         2.0727
  69   0.0000       0.098651         2.6844
  70   0.0000       0.114673         3.1204
  71   0.0000       0.139350         3.7919

MULLIKEN ATOMIC CHARGES
-----------------------
   0 S :    0.131404
   1 C :   -0.101723
   2 C :   -0.083371
   3 C :   -0.002755
   4 C :   -0.128542
   5 H :    0.024666
   6 C :    0.058573
   7 H :    0.004505
   8 H :    0.036189
   9 C :   -0.099670
  10 H :    0.018536
  11 H :    0.013596
  12 C :   -0.020427
  13 H :    0.044725
  14 H :    0.019443
  15 H :    0.036369
  16 S :    0.090962
  17 C :   -0.085740
  18 C :   -0.010548
  19 C :   -0.030835
  20 C :   -0.140739
  21 H :   -0.008913
  22 C :    0.075925
  23 H :    0.030299
  24 H :   -0.008419
  25 C :   -0.039617
  26 H :    0.027230
  27 H :    0.018451
  28 C :   -0.017850
  29 H :    0.022311
  30 H :    0.009464
  31 H :    0.022057
  32 H :    0.047335
  33 H :    0.047107
Sum of atomic charges:    0.0000000

LOEWDIN ATOMIC CHARGES
----------------------
   0 S :    0.475220
   1 C :   -0.217889
   2 C :   -0.053717
   3 C :   -0.066771
   4 C :   -0.221714
   5 H :    0.030309
   6 C :   -0.036141
   7 H :    0.020404
   8 H :    0.037005
   9 C :   -0.044720
  10 H :    0.022503
  11 H :    0.013411
  12 C :   -0.062645
  13 H :    0.028972
  14 H :    0.018239
  15 H :    0.034146
  16 S :    0.371139
  17 C :   -0.163087
  18 C :   -0.057051
  19 C :   -0.071113
  20 C :   -0.168694
  21 H :    0.022203
  22 C :   -0.029772
  23 H :    0.026131
  24 H :    0.018914
  25 C :   -0.022725
  26 H :    0.025070
  27 H :    0.015852
  28 C :   -0.062205
  29 H :    0.026012
  30 H :    0.010377
  31 H :    0.026885
  32 H :    0.029242
  33 H :    0.026210

  Mayer bond orders larger than 0.100000
B(  0-S ,  1-C ) :   1.1699 B(  0-S ,  4-C ) :   1.1867 B(  1-C ,  2-C ) :   1.5533
B(  1-C , 32-H ) :   0.9691 B(  2-C ,  3-C ) :   1.2816 B(  2-C ,  6-C ) :   1.0393
B(  3-C ,  4-C ) :   1.5085 B(  3-C ,  5-H ) :   0.9933 B(  4-C , 20-C ) :   1.0510
B(  6-C ,  7-H ) :   0.9409 B(  6-C ,  8-H ) :   0.9456 B(  6-C ,  9-C ) :   1.0443
B(  9-C , 10-H ) :   0.9558 B(  9-C , 11-H ) :   0.9579 B(  9-C , 12-C ) :   1.0796
B( 12-C , 13-H ) :   0.9754 B( 12-C , 14-H ) :   0.9758 B( 12-C , 15-H ) :   0.9713
B( 16-S , 17-C ) :   1.1219 B( 16-S , 20-C ) :   1.1339 B( 17-C , 18-C ) :   1.6263
B( 17-C , 20-C ) :   0.1001 B( 17-C , 33-H ) :   0.9701 B( 18-C , 19-C ) :   1.2425
B( 18-C , 21-H ) :   0.9939 B( 19-C , 20-C ) :   1.5871 B( 19-C , 22-C ) :   1.0542
B( 22-C , 23-H ) :   0.9367 B( 22-C , 24-H ) :   0.9172 B( 22-C , 25-C ) :   1.0480
B( 25-C , 26-H ) :   0.9576 B( 25-C , 27-H ) :   0.9603 B( 25-C , 28-C ) :   1.0685
B( 28-C , 29-H ) :   0.9773 B( 28-C , 30-H ) :   0.9760 B( 28-C , 31-H ) :   0.9747

Dispersion correction           -0.013918047
FINAL SINGLE POINT ENERGY     -1339.850952430445

DIPOLE MOMENT
-------------
                                X             Y             Z
Electronic contribution:     -4.31632      14.71546      -1.68871
Nuclear contribution   :      4.41292     -14.99764       1.47155
                        -----------------------------------------
Total Dipole Moment    :      0.09660      -0.28218      -0.21716
                        -----------------------------------------
Magnitude (a.u.)       :      0.36894
Magnitude (Debye)      :      0.93777

Rotational constants in cm-1:     0.021238     0.007726     0.006106
Rotational constants in MHz :   636.708771   231.619491   183.067942

                             ****ORCA TERMINATED NORMALLY****
TOTAL RUN TIME: 0 days 0 hours 0 minutes 27 seconds 703 msec
