                         Program Version 4.2.1 -  RELEASE  -
|  1> ! wB97X-D3 SP def2-SVP
|  2> %pal
|  3> nprocs 16
|  4> end
|  5>
|  6> * xyz 0 1
|  7> S 	 13.495 	 -1.90802 	 63.252
|  8> C 	 12.4496 	 -2.76431 	 62.0925
|  9> C 	 11.8624 	 -1.89474 	 61.2144
| 10> C 	 12.2658 	 -0.542139 	 61.4427
| 11> C 	 13.044 	 -0.354646 	 62.5528
| 12> H 	 12.0113 	 0.374948 	 60.9333
| 13> C 	 11.0199 	 -2.32382 	 60.0001
| 14> H 	 10.1418 	 -2.84439 	 60.4112
| 15> H 	 11.6446 	 -3.11046 	 59.4423
| 16> C 	 10.5554 	 -1.23584 	 58.8969
| 17> H 	 9.7938 	 -0.643853 	 59.4417
| 18> H 	 11.2758 	 -0.583482 	 58.4523
| 19> C 	 9.8809 	 -1.92516 	 57.7059
| 20> H 	 9.03753 	 -2.43108 	 57.9006
| 21> H 	 9.64898 	 -1.2404 	 56.8339
| 22> H 	 10.5692 	 -2.69931 	 57.3559
| 23> S 	 15.391 	 0.94143 	 63.1791
| 24> C 	 15.3012 	 2.60184 	 63.6233
| 25> C 	 14.0083 	 3.11149 	 63.4132
| 26> C 	 13.0312 	 2.13916 	 62.9807
| 27> C 	 13.6254 	 0.898777 	 62.9936
| 28> H 	 13.797 	 4.06356 	 63.763
| 29> C 	 11.615 	 2.58109 	 62.631
| 30> H 	 11.6973 	 2.63996 	 61.5702
| 31> H 	 11.5941 	 3.63726 	 62.9942
| 32> C 	 10.3844 	 1.97103 	 63.2477
| 33> H 	 10.3986 	 2.05087 	 64.345
| 34> H 	 10.5085 	 0.901067 	 63.0654
| 35> C 	 9.10102 	 2.63742 	 62.6782
| 36> H 	 8.22756 	 2.04615 	 63.0112
| 37> H 	 9.11543 	 2.53845 	 61.5879
| 38> H 	 9.00474 	 3.67905 	 63.0257
| 39> H 	 12.3485 	 -3.8191 	 62.1256
| 40> H 	 16.1109 	 3.18444 	 63.9792
| 41> *
| 42>
| 43>                          ****END OF INPUT****

CARTESIAN COORDINATES (ANGSTROEM)
---------------------------------
  S     13.495000   -1.908020   63.252000
  C     12.449600   -2.764310   62.092500
  C     11.862400   -1.894740   61.214400
  C     12.265800   -0.542139   61.442700
  C     13.044000   -0.354646   62.552800
  H     12.011300    0.374948   60.933300
  C     11.019900   -2.323820   60.000100
  H     10.141800   -2.844390   60.411200
  H     11.644600   -3.110460   59.442300
  C     10.555400   -1.235840   58.896900
  H      9.793800   -0.643853   59.441700
  H     11.275800   -0.583482   58.452300
  C      9.880900   -1.925160   57.705900
  H      9.037530   -2.431080   57.900600
  H      9.648980   -1.240400   56.833900
  H     10.569200   -2.699310   57.355900
  S     15.391000    0.941430   63.179100
  C     15.301200    2.601840   63.623300
  C     14.008300    3.111490   63.413200
  C     13.031200    2.139160   62.980700
  C     13.625400    0.898777   62.993600
  H     13.797000    4.063560   63.763000
  C     11.615000    2.581090   62.631000
  H     11.697300    2.639960   61.570200
  H     11.594100    3.637260   62.994200
  C     10.384400    1.971030   63.247700
  H     10.398600    2.050870   64.345000
  H     10.508500    0.901067   63.065400
  C      9.101020    2.637420   62.678200
  H      8.227560    2.046150   63.011200
  H      9.115430    2.538450   61.587900
  H      9.004740    3.679050   63.025700
  H     12.348500   -3.819100   62.125600
  H     16.110900    3.184440   63.979200

 Total Charge           Charge          ....    0
 Multiplicity           Mult            ....    1
 Number of Electrons    NEL             ....  134
 Basis Dimension        Dim             ....  322

ORBITAL ENERGIES
----------------

  NO   OCC          E(Eh)            E(eV)
   0   2.0000     -88.965707     -2420.8800
   1   2.0000     -88.962663     -2420.7971
   2   2.0000     -10.323930      -280.9284
   3   2.0000     -10.323513      -280.9171
   4   2.0000     -10.313495      -280.6445
   5   2.0000     -10.312045      -280.6050
   6   2.0000     -10.308026      -280.4956
   7   2.0000     -10.304814      -280.4082
   8   2.0000     -10.304313      -280.3946
   9   2.0000     -10.296508      -280.1822
  10   2.0000     -10.293760      -280.1074
  11   2.0000     -10.290141      -280.0090
  12   2.0000     -10.289189      -279.9831
  13   2.0000     -10.286485      -279.9095
  14   2.0000     -10.285782      -279.8904
  15   2.0000     -10.275037      -279.5980
  16   2.0000      -8.080567      -219.8834
  17   2.0000      -8.076893      -219.7834
  18   2.0000      -6.039080      -164.3317
  19   2.0000      -6.035418      -164.2321
  20   2.0000      -6.035164      -164.2252
  21   2.0000      -6.031508      -164.1257
  22   2.0000      -6.031216      -164.1177
  23   2.0000      -6.027645      -164.0206
  24   2.0000      -1.005196       -27.3528
  25   2.0000      -0.980736       -26.6872
  26   2.0000      -0.912869       -24.8404
  27   2.0000      -0.901884       -24.5415
  28   2.0000      -0.870650       -23.6916
  29   2.0000      -0.854691       -23.2573
  30   2.0000      -0.843928       -22.9645
  31   2.0000      -0.811621       -22.0853
  32   2.0000      -0.783705       -21.3257
  33   2.0000      -0.770415       -20.9641
  34   2.0000      -0.714173       -19.4336
  35   2.0000      -0.704703       -19.1759
  36   2.0000      -0.689515       -18.7627
  37   2.0000      -0.665400       -18.1065
  38   2.0000      -0.644369       -17.5342
  39   2.0000      -0.613765       -16.7014
  40   2.0000      -0.592302       -16.1173
  41   2.0000      -0.570771       -15.5315
  42   2.0000      -0.569524       -15.4975
  43   2.0000      -0.558125       -15.1874
  44   2.0000      -0.529906       -14.4195
  45   2.0000      -0.525552       -14.3010
  46   2.0000      -0.514019       -13.9872
  47   2.0000      -0.506667       -13.7871
  48   2.0000      -0.503717       -13.7068
  49   2.0000      -0.499801       -13.6003
  50   2.0000      -0.492463       -13.4006
  51   2.0000      -0.484320       -13.1790
  52   2.0000      -0.471190       -12.8217
  53   2.0000      -0.468897       -12.7593
  54   2.0000      -0.457233       -12.4419
  55   2.0000      -0.447176       -12.1683
  56   2.0000      -0.443954       -12.0806
  57   2.0000      -0.442462       -12.0400
  58   2.0000      -0.441144       -12.0042
  59   2.0000      -0.423767       -11.5313
  60   2.0000      -0.421648       -11.4736
  61   2.0000      -0.414591       -11.2816
  62   2.0000      -0.406096       -11.0504
  63   2.0000      -0.346479        -9.4282
  64   2.0000      -0.331686        -9.0256
  65   2.0000      -0.328878        -8.9492
  66   2.0000      -0.288578        -7.8526
  67   0.0000       0.027518         0.7488
  68   0.0000       0.073912         2.0112
  69   0.0000       0.106722         2.9041
  70   0.0000       0.120991         3.2923
  71   0.0000       0.133513         3.6331

MULLIKEN ATOMIC CHARGES
-----------------------
   0 S :    0.092888
   1 C :   -0.127561
   2 C :   -0.026417
   3 C :    0.017868
   4 C :   -0.166936
   5 H :    0.000856
   6 C :   -0.013779
   7 H :    0.046696
   8 H :    0.049094
   9 C :   -0.070152
  10 H :    0.035991
  11 H :    0.042341
  12 C :   -0.024505
  13 H :    0.001369
  14 H :    0.043290
  15 H :    0.020849
  16 S :    0.112750
  17 C :   -0.080186
  18 C :   -0.025016
  19 C :   -0.043575
  20 C :   -0.141354
  21 H :   -0.005177
  22 C :    0.041336
  23 H :    0.040649
  24 H :    0.014592
  25 C :   -0.057894
  26 H :    0.034874
  27 H :    0.037731
  28 C :   -0.048416
  29 H :    0.039505
  30 H :    0.031789
  31 H :    0.045687
  32 H :    0.035282
  33 H :    0.045532
Sum of atomic charges:   -0.0000000

LOEWDIN ATOMIC CHARGES
----------------------
   0 S :    0.381068
   1 C :   -0.179848
   2 C :   -0.064547
   3 C :   -0.067526
   4 C :   -0.188669
   5 H :    0.029962
   6 C :   -0.036055
   7 H :    0.036294
   8 H :    0.038303
   9 C :   -0.038543
  10 H :    0.025844
  11 H :    0.023899
  12 C :   -0.060708
  13 H :    0.004769
  14 H :    0.035939
  15 H :    0.026206
  16 S :    0.407273
  17 C :   -0.187972
  18 C :   -0.063336
  19 C :   -0.050570
  20 C :   -0.193539
  21 H :    0.016021
  22 C :   -0.036247
  23 H :    0.030249
  24 H :    0.035076
  25 C :   -0.044595
  26 H :    0.029565
  27 H :    0.024656
  28 C :   -0.062362
  29 H :    0.031226
  30 H :    0.025569
  31 H :    0.029514
  32 H :    0.020408
  33 H :    0.022676

  Mayer bond orders larger than 0.100000
B(  0-S ,  1-C ) :   1.1259 B(  0-S ,  4-C ) :   1.1432 B(  1-C ,  2-C ) :   1.6256
B(  1-C , 32-H ) :   0.9827 B(  2-C ,  3-C ) :   1.2225 B(  2-C ,  6-C ) :   0.9897
B(  3-C ,  4-C ) :   1.5849 B(  3-C ,  5-H ) :   0.9904 B(  4-C , 20-C ) :   1.0422
B(  6-C ,  7-H ) :   0.9427 B(  6-C ,  8-H ) :   0.9531 B(  6-C ,  9-C ) :   1.0602
B(  9-C , 10-H ) :   0.9544 B(  9-C , 11-H ) :   0.9602 B(  9-C , 12-C ) :   1.0809
B( 12-C , 13-H ) :   0.9750 B( 12-C , 14-H ) :   0.9741 B( 12-C , 15-H ) :   0.9723
B( 16-S , 17-C ) :   1.1527 B( 16-S , 20-C ) :   1.1392 B( 17-C , 18-C ) :   1.6131
B( 17-C , 33-H ) :   0.9718 B( 18-C , 19-C ) :   1.2355 B( 18-C , 21-H ) :   0.9928
B( 19-C , 20-C ) :   1.6135 B( 19-C , 22-C ) :   1.0164 B( 22-C , 23-H ) :   0.9254
B( 22-C , 24-H ) :   0.9323 B( 22-C , 25-C ) :   1.0606 B( 25-C , 26-H ) :   0.9524
B( 25-C , 27-H ) :   0.9525 B( 25-C , 28-C ) :   1.0761 B( 28-C , 29-H ) :   0.9737
B( 28-C , 30-H ) :   0.9764 B( 28-C , 31-H ) :   0.9751

Dispersion correction           -0.014191082
FINAL SINGLE POINT ENERGY     -1339.864536991729

DIPOLE MOMENT
-------------
                                X             Y             Z
Electronic contribution:     26.81877      -4.63978      16.59092
Nuclear contribution   :    -27.38837       4.89556     -16.98786
                        -----------------------------------------
Total Dipole Moment    :     -0.56961       0.25578      -0.39695
                        -----------------------------------------
Magnitude (a.u.)       :      0.73989
Magnitude (Debye)      :      1.88066

Rotational constants in cm-1:     0.016572     0.009233     0.006990
Rotational constants in MHz :   496.803030   276.807933   209.549869

                             ****ORCA TERMINATED NORMALLY****
TOTAL RUN TIME: 0 days 0 hours 0 minutes 33 seconds 156 msec
