                         Program Version 4.2.1 -  RELEASE  -
|  1> ! wB97X-D3 SP def2-SVP
|  2> %pal
|  3> nprocs 16
|  4> end
|  5>
|  6> * xyz 0 1
|  7> S 	 -7.56095 	 53.0631 	 50.1526
|  8> C 	 -7.4621 	 53.2057 	 51.8794
|  9> C 	 -6.46282 	 54.1496 	 52.2223
| 10> C 	 -5.53533 	 54.307 	 51.185
| 11> C 	 -5.92138 	 53.8001 	 49.9868
| 12> H 	 -4.64691 	 54.9347 	 51.3478
| 13> C 	 -6.15686 	 54.7717 	 53.5487
| 14> H 	 -5.18255 	 54.3372 	 53.7134
| 15> H 	 -6.85504 	 54.2766 	 54.238
| 16> C 	 -6.18684 	 56.2994 	 53.6275
| 17> H 	 -5.13861 	 56.5461 	 53.4117
| 18> H 	 -6.72813 	 56.7372 	 52.8039
| 19> C 	 -6.64221 	 56.8722 	 54.9721
| 20> H 	 -6.42374 	 56.0332 	 55.7081
| 21> H 	 -6.23916 	 57.8824 	 55.1558
| 22> H 	 -7.65031 	 57.0799 	 55.0227
| 23> S 	 -4.88614 	 52.5975 	 47.6897
| 24> C 	 -3.86743 	 53.6087 	 46.6838
| 25> C 	 -3.8052 	 54.8983 	 47.1191
| 26> C 	 -4.73689 	 55.1432 	 48.1689
| 27> C 	 -5.21517 	 53.9637 	 48.7448
| 28> H 	 -3.21694 	 55.653 	 46.6826
| 29> C 	 -4.7971 	 56.5471 	 48.7219
| 30> H 	 -4.2138 	 57.2038 	 48.1016
| 31> H 	 -4.26099 	 56.7 	 49.7558
| 32> C 	 -6.2748 	 57.0629 	 48.7258
| 33> H 	 -6.94407 	 56.5663 	 49.4433
| 34> H 	 -6.77416 	 56.8471 	 47.7537
| 35> C 	 -6.17174 	 58.6193 	 48.9106
| 36> H 	 -5.55261 	 59.0721 	 48.1246
| 37> H 	 -5.91167 	 59.051 	 49.8618
| 38> H 	 -7.16844 	 59.0064 	 48.7413
| 39> H 	 -8.32763 	 52.9675 	 52.5636
| 40> H 	 -3.31734 	 53.2437 	 45.8363
| 41> *
| 42>
| 43>                          ****END OF INPUT****

CARTESIAN COORDINATES (ANGSTROEM)
---------------------------------
  S     -7.560950   53.063100   50.152600
  C     -7.462100   53.205700   51.879400
  C     -6.462820   54.149600   52.222300
  C     -5.535330   54.307000   51.185000
  C     -5.921380   53.800100   49.986800
  H     -4.646910   54.934700   51.347800
  C     -6.156860   54.771700   53.548700
  H     -5.182550   54.337200   53.713400
  H     -6.855040   54.276600   54.238000
  C     -6.186840   56.299400   53.627500
  H     -5.138610   56.546100   53.411700
  H     -6.728130   56.737200   52.803900
  C     -6.642210   56.872200   54.972100
  H     -6.423740   56.033200   55.708100
  H     -6.239160   57.882400   55.155800
  H     -7.650310   57.079900   55.022700
  S     -4.886140   52.597500   47.689700
  C     -3.867430   53.608700   46.683800
  C     -3.805200   54.898300   47.119100
  C     -4.736890   55.143200   48.168900
  C     -5.215170   53.963700   48.744800
  H     -3.216940   55.653000   46.682600
  C     -4.797100   56.547100   48.721900
  H     -4.213800   57.203800   48.101600
  H     -4.260990   56.700000   49.755800
  C     -6.274800   57.062900   48.725800
  H     -6.944070   56.566300   49.443300
  H     -6.774160   56.847100   47.753700
  C     -6.171740   58.619300   48.910600
  H     -5.552610   59.072100   48.124600
  H     -5.911670   59.051000   49.861800
  H     -7.168440   59.006400   48.741300
  H     -8.327630   52.967500   52.563600
  H     -3.317340   53.243700   45.836300

 Total Charge           Charge          ....    0
 Multiplicity           Mult            ....    1
 Number of Electrons    NEL             ....  134
 Basis Dimension        Dim             ....  322

ORBITAL ENERGIES
----------------

  NO   OCC          E(Eh)            E(eV)
   0   2.0000     -88.964882     -2420.8575
   1   2.0000     -88.964497     -2420.8470
   2   2.0000     -10.326879      -281.0087
   3   2.0000     -10.323711      -280.9224
   4   2.0000     -10.317809      -280.7618
   5   2.0000     -10.315156      -280.6897
   6   2.0000     -10.299964      -280.2763
   7   2.0000     -10.298165      -280.2273
   8   2.0000     -10.297147      -280.1996
   9   2.0000     -10.292336      -280.0687
  10   2.0000     -10.289424      -279.9895
  11   2.0000     -10.288455      -279.9631
  12   2.0000     -10.287765      -279.9443
  13   2.0000     -10.287579      -279.9392
  14   2.0000     -10.281691      -279.7790
  15   2.0000     -10.276511      -279.6381
  16   2.0000      -8.079607      -219.8573
  17   2.0000      -8.078612      -219.8302
  18   2.0000      -6.038066      -164.3041
  19   2.0000      -6.037128      -164.2786
  20   2.0000      -6.034140      -164.1973
  21   2.0000      -6.033480      -164.1794
  22   2.0000      -6.030395      -164.0954
  23   2.0000      -6.029118      -164.0606
  24   2.0000      -1.005536       -27.3620
  25   2.0000      -0.984518       -26.7901
  26   2.0000      -0.914700       -24.8902
  27   2.0000      -0.902376       -24.5549
  28   2.0000      -0.870477       -23.6869
  29   2.0000      -0.853638       -23.2287
  30   2.0000      -0.847065       -23.0498
  31   2.0000      -0.813504       -22.1366
  32   2.0000      -0.779679       -21.2161
  33   2.0000      -0.765183       -20.8217
  34   2.0000      -0.712473       -19.3874
  35   2.0000      -0.703629       -19.1467
  36   2.0000      -0.690718       -18.7954
  37   2.0000      -0.663328       -18.0501
  38   2.0000      -0.633385       -17.2353
  39   2.0000      -0.625313       -17.0156
  40   2.0000      -0.597911       -16.2700
  41   2.0000      -0.571232       -15.5440
  42   2.0000      -0.558928       -15.2092
  43   2.0000      -0.552119       -15.0239
  44   2.0000      -0.533287       -14.5115
  45   2.0000      -0.519284       -14.1304
  46   2.0000      -0.512736       -13.9522
  47   2.0000      -0.509474       -13.8635
  48   2.0000      -0.505102       -13.7445
  49   2.0000      -0.495782       -13.4909
  50   2.0000      -0.485676       -13.2159
  51   2.0000      -0.482459       -13.1284
  52   2.0000      -0.475626       -12.9424
  53   2.0000      -0.463316       -12.6075
  54   2.0000      -0.461092       -12.5470
  55   2.0000      -0.452146       -12.3035
  56   2.0000      -0.449772       -12.2389
  57   2.0000      -0.437826       -11.9139
  58   2.0000      -0.434438       -11.8217
  59   2.0000      -0.428383       -11.6569
  60   2.0000      -0.417526       -11.3615
  61   2.0000      -0.408256       -11.1092
  62   2.0000      -0.407147       -11.0790
  63   2.0000      -0.343736        -9.3535
  64   2.0000      -0.330967        -9.0061
  65   2.0000      -0.323122        -8.7926
  66   2.0000      -0.289914        -7.8890
  67   0.0000       0.023571         0.6414
  68   0.0000       0.067419         1.8346
  69   0.0000       0.106193         2.8897
  70   0.0000       0.119347         3.2476
  71   0.0000       0.124179         3.3791

MULLIKEN ATOMIC CHARGES
-----------------------
   0 S :    0.103846
   1 C :   -0.130496
   2 C :   -0.141169
   3 C :    0.021761
   4 C :   -0.124452
   5 H :    0.017245
   6 C :    0.050265
   7 H :    0.040851
   8 H :    0.013456
   9 C :   -0.054853
  10 H :    0.024883
  11 H :    0.032848
  12 C :   -0.037483
  13 H :    0.048464
  14 H :    0.037038
  15 H :    0.017586
  16 S :    0.114162
  17 C :   -0.075887
  18 C :   -0.010740
  19 C :   -0.020544
  20 C :   -0.169247
  21 H :    0.005428
  22 C :    0.034711
  23 H :    0.000395
  24 H :    0.049557
  25 C :   -0.099874
  26 H :    0.051696
  27 H :    0.039384
  28 C :   -0.042481
  29 H :    0.029650
  30 H :    0.031250
  31 H :    0.019667
  32 H :    0.072010
  33 H :    0.051074
Sum of atomic charges:    0.0000000

LOEWDIN ATOMIC CHARGES
----------------------
   0 S :    0.383086
   1 C :   -0.217673
   2 C :   -0.063454
   3 C :   -0.060599
   4 C :   -0.177478
   5 H :    0.035202
   6 C :   -0.037359
   7 H :    0.036284
   8 H :    0.027115
   9 C :   -0.042797
  10 H :    0.026499
  11 H :    0.023112
  12 C :   -0.063746
  13 H :    0.038157
  14 H :    0.033330
  15 H :    0.015171
  16 S :    0.403512
  17 C :   -0.174384
  18 C :   -0.065101
  19 C :   -0.052018
  20 C :   -0.202299
  21 H :    0.024975
  22 C :   -0.037037
  23 H :    0.021081
  24 H :    0.039988
  25 C :   -0.036326
  26 H :    0.027215
  27 H :    0.031325
  28 C :   -0.070312
  29 H :    0.025419
  30 H :    0.021423
  31 H :    0.023442
  32 H :    0.037870
  33 H :    0.026376

  Mayer bond orders larger than 0.100000
B(  0-S ,  1-C ) :   1.1394 B(  0-S ,  4-C ) :   1.1286 B(  1-C ,  2-C ) :   1.5893
B(  1-C ,  4-C ) :   0.1010 B(  1-C , 32-H ) :   0.9540 B(  2-C ,  3-C ) :   1.2505
B(  2-C ,  6-C ) :   1.0275 B(  3-C ,  4-C ) :   1.5775 B(  3-C ,  5-H ) :   0.9905
B(  4-C , 20-C ) :   1.0827 B(  6-C ,  7-H ) :   0.9429 B(  6-C ,  8-H ) :   0.9436
B(  6-C ,  9-C ) :   1.0342 B(  9-C , 10-H ) :   0.9506 B(  9-C , 11-H ) :   0.9646
B(  9-C , 12-C ) :   1.0816 B( 12-C , 13-H ) :   0.9778 B( 12-C , 14-H ) :   0.9720
B( 12-C , 15-H ) :   0.9742 B( 16-S , 17-C ) :   1.1546 B( 16-S , 20-C ) :   1.1293
B( 17-C , 18-C ) :   1.6069 B( 17-C , 33-H ) :   0.9684 B( 18-C , 19-C ) :   1.2444
B( 18-C , 21-H ) :   0.9940 B( 19-C , 20-C ) :   1.5675 B( 19-C , 22-C ) :   1.0525
B( 22-C , 23-H ) :   0.9397 B( 22-C , 24-H ) :   0.9355 B( 22-C , 25-C ) :   1.0391
B( 25-C , 26-H ) :   0.9585 B( 25-C , 27-H ) :   0.9581 B( 25-C , 28-C ) :   1.0724
B( 28-C , 29-H ) :   0.9755 B( 28-C , 30-H ) :   0.9771 B( 28-C , 31-H ) :   0.9735

Dispersion correction           -0.014871104
FINAL SINGLE POINT ENERGY     -1339.853400434597

DIPOLE MOMENT
-------------
                                X             Y             Z
Electronic contribution:      0.06332     -27.06139     -16.71787
Nuclear contribution   :      0.13182      27.86344      16.98104
                        -----------------------------------------
Total Dipole Moment    :      0.19514       0.80205       0.26317
                        -----------------------------------------
Magnitude (a.u.)       :      0.86638
Magnitude (Debye)      :      2.20217

Rotational constants in cm-1:     0.018483     0.009274     0.007108
Rotational constants in MHz :   554.109405   278.041370   213.097529

                             ****ORCA TERMINATED NORMALLY****
TOTAL RUN TIME: 0 days 0 hours 0 minutes 34 seconds 878 msec
