                         Program Version 4.2.1 -  RELEASE  -
|  1> ! wB97X-D3 SP def2-SVP
|  2> %pal
|  3> nprocs 16
|  4> end
|  5>
|  6> * xyz 0 1
|  7> S 	 -3.38856 	 -11.1541 	 53.3823
|  8> C 	 -4.56766 	 -10.7548 	 52.101
|  9> C 	 -4.61048 	 -11.7118 	 51.1284
| 10> C 	 -3.64892 	 -12.7045 	 51.3156
| 11> C 	 -2.9092 	 -12.5734 	 52.4518
| 12> H 	 -3.3685 	 -13.498 	 50.6968
| 13> C 	 -5.53343 	 -11.7604 	 49.8601
| 14> H 	 -5.31637 	 -10.8654 	 49.286
| 15> H 	 -6.52755 	 -11.455 	 50.1844
| 16> C 	 -5.54472 	 -13.0568 	 49.0219
| 17> H 	 -5.92439 	 -12.8541 	 47.9663
| 18> H 	 -4.54532 	 -13.3641 	 48.6556
| 19> C 	 -6.17028 	 -14.2996 	 49.7967
| 20> H 	 -5.71527 	 -14.2747 	 50.7867
| 21> H 	 -7.24973 	 -14.1824 	 49.8721
| 22> H 	 -5.88261 	 -15.3093 	 49.3875
| 23> S 	 -0.223725 	 -12.9514 	 52.7443
| 24> C 	 0.299217 	 -14.4198 	 53.469
| 25> C 	 -0.68399 	 -15.2578 	 53.883
| 26> C 	 -2.00587 	 -14.7184 	 53.5654
| 27> C 	 -1.90031 	 -13.4701 	 52.9715
| 28> H 	 -0.494573 	 -16.1933 	 54.3044
| 29> C 	 -3.28974 	 -15.5116 	 53.7793
| 30> H 	 -3.40664 	 -15.8624 	 52.8352
| 31> H 	 -4.23995 	 -14.9429 	 53.9537
| 32> C 	 -3.15776 	 -16.7405 	 54.7202
| 33> H 	 -3.10277 	 -16.3913 	 55.8258
| 34> H 	 -2.27324 	 -17.3282 	 54.6518
| 35> C 	 -4.26514 	 -17.7735 	 54.5626
| 36> H 	 -5.23295 	 -17.3778 	 54.6165
| 37> H 	 -4.13806 	 -18.4261 	 55.3551
| 38> H 	 -4.10596 	 -18.2586 	 53.6681
| 39> H 	 -5.27333 	 -9.83239 	 52.0017
| 40> H 	 1.27569 	 -14.7318 	 53.4354
| 41> *
| 42>
| 43>                          ****END OF INPUT****

CARTESIAN COORDINATES (ANGSTROEM)
---------------------------------
  S     -3.388560  -11.154100   53.382300
  C     -4.567660  -10.754800   52.101000
  C     -4.610480  -11.711800   51.128400
  C     -3.648920  -12.704500   51.315600
  C     -2.909200  -12.573400   52.451800
  H     -3.368500  -13.498000   50.696800
  C     -5.533430  -11.760400   49.860100
  H     -5.316370  -10.865400   49.286000
  H     -6.527550  -11.455000   50.184400
  C     -5.544720  -13.056800   49.021900
  H     -5.924390  -12.854100   47.966300
  H     -4.545320  -13.364100   48.655600
  C     -6.170280  -14.299600   49.796700
  H     -5.715270  -14.274700   50.786700
  H     -7.249730  -14.182400   49.872100
  H     -5.882610  -15.309300   49.387500
  S     -0.223725  -12.951400   52.744300
  C      0.299217  -14.419800   53.469000
  C     -0.683990  -15.257800   53.883000
  C     -2.005870  -14.718400   53.565400
  C     -1.900310  -13.470100   52.971500
  H     -0.494573  -16.193300   54.304400
  C     -3.289740  -15.511600   53.779300
  H     -3.406640  -15.862400   52.835200
  H     -4.239950  -14.942900   53.953700
  C     -3.157760  -16.740500   54.720200
  H     -3.102770  -16.391300   55.825800
  H     -2.273240  -17.328200   54.651800
  C     -4.265140  -17.773500   54.562600
  H     -5.232950  -17.377800   54.616500
  H     -4.138060  -18.426100   55.355100
  H     -4.105960  -18.258600   53.668100
  H     -5.273330   -9.832390   52.001700
  H      1.275690  -14.731800   53.435400

 Total Charge           Charge          ....    0
 Multiplicity           Mult            ....    1
 Number of Electrons    NEL             ....  134
 Basis Dimension        Dim             ....  322

ORBITAL ENERGIES
----------------

  NO   OCC          E(Eh)            E(eV)
   0   2.0000     -88.964817     -2420.8558
   1   2.0000     -88.961942     -2420.7775
   2   2.0000     -10.321104      -280.8515
   3   2.0000     -10.319160      -280.7986
   4   2.0000     -10.318723      -280.7867
   5   2.0000     -10.308381      -280.5053
   6   2.0000     -10.306138      -280.4443
   7   2.0000     -10.302464      -280.3443
   8   2.0000     -10.298872      -280.2465
   9   2.0000     -10.298345      -280.2322
  10   2.0000     -10.290818      -280.0274
  11   2.0000     -10.290662      -280.0231
  12   2.0000     -10.288416      -279.9620
  13   2.0000     -10.287427      -279.9351
  14   2.0000     -10.281875      -279.7840
  15   2.0000     -10.262370      -279.2533
  16   2.0000      -8.078694      -219.8324
  17   2.0000      -8.077290      -219.7942
  18   2.0000      -6.037267      -164.2824
  19   2.0000      -6.035695      -164.2396
  20   2.0000      -6.033396      -164.1770
  21   2.0000      -6.031844      -164.1348
  22   2.0000      -6.029353      -164.0670
  23   2.0000      -6.028008      -164.0304
  24   2.0000      -1.005021       -27.3480
  25   2.0000      -0.982780       -26.7428
  26   2.0000      -0.912046       -24.8180
  27   2.0000      -0.902613       -24.5613
  28   2.0000      -0.868305       -23.6278
  29   2.0000      -0.856066       -23.2947
  30   2.0000      -0.839822       -22.8527
  31   2.0000      -0.816660       -22.2224
  32   2.0000      -0.789539       -21.4845
  33   2.0000      -0.773769       -21.0553
  34   2.0000      -0.711029       -19.3481
  35   2.0000      -0.706345       -19.2206
  36   2.0000      -0.691986       -18.8299
  37   2.0000      -0.656232       -17.8570
  38   2.0000      -0.639309       -17.3965
  39   2.0000      -0.622594       -16.9417
  40   2.0000      -0.604382       -16.4461
  41   2.0000      -0.568346       -15.4655
  42   2.0000      -0.561204       -15.2711
  43   2.0000      -0.548534       -14.9264
  44   2.0000      -0.535682       -14.5767
  45   2.0000      -0.524764       -14.2795
  46   2.0000      -0.521148       -14.1811
  47   2.0000      -0.511272       -13.9124
  48   2.0000      -0.500676       -13.6241
  49   2.0000      -0.491297       -13.3689
  50   2.0000      -0.484955       -13.1963
  51   2.0000      -0.481857       -13.1120
  52   2.0000      -0.472243       -12.8504
  53   2.0000      -0.464028       -12.6268
  54   2.0000      -0.459995       -12.5171
  55   2.0000      -0.455206       -12.3868
  56   2.0000      -0.444956       -12.1079
  57   2.0000      -0.439677       -11.9642
  58   2.0000      -0.437654       -11.9092
  59   2.0000      -0.430316       -11.7095
  60   2.0000      -0.421306       -11.4643
  61   2.0000      -0.419457       -11.4140
  62   2.0000      -0.407881       -11.0990
  63   2.0000      -0.336971        -9.1694
  64   2.0000      -0.328291        -8.9332
  65   2.0000      -0.321425        -8.7464
  66   2.0000      -0.304368        -8.2823
  67   0.0000       0.046095         1.2543
  68   0.0000       0.058768         1.5992
  69   0.0000       0.116561         3.1718
  70   0.0000       0.121864         3.3161
  71   0.0000       0.131802         3.5865

MULLIKEN ATOMIC CHARGES
-----------------------
   0 S :    0.117248
   1 C :   -0.167814
   2 C :   -0.068670
   3 C :    0.051571
   4 C :   -0.178268
   5 H :   -0.013886
   6 C :    0.090791
   7 H :    0.030833
   8 H :    0.017628
   9 C :   -0.096319
  10 H :    0.036180
  11 H :    0.027149
  12 C :   -0.061798
  13 H :    0.036642
  14 H :    0.044429
  15 H :    0.043820
  16 S :    0.114574
  17 C :   -0.029930
  18 C :   -0.030176
  19 C :   -0.013708
  20 C :   -0.219423
  21 H :   -0.007893
  22 C :    0.141301
  23 H :   -0.000182
  24 H :    0.049939
  25 C :   -0.151980
  26 H :    0.039205
  27 H :    0.021515
  28 C :    0.040184
  29 H :    0.017775
  30 H :    0.012596
  31 H :    0.015757
  32 H :    0.069895
  33 H :    0.021017
Sum of atomic charges:    0.0000000

LOEWDIN ATOMIC CHARGES
----------------------
   0 S :    0.388593
   1 C :   -0.208420
   2 C :   -0.067331
   3 C :   -0.063005
   4 C :   -0.190328
   5 H :    0.024413
   6 C :   -0.033702
   7 H :    0.035895
   8 H :    0.031039
   9 C :   -0.054909
  10 H :    0.034730
  11 H :    0.024587
  12 C :   -0.068152
  13 H :    0.026289
  14 H :    0.025806
  15 H :    0.032380
  16 S :    0.408165
  17 C :   -0.171966
  18 C :   -0.066170
  19 C :   -0.033544
  20 C :   -0.211920
  21 H :    0.020285
  22 C :   -0.029252
  23 H :    0.022368
  24 H :    0.044262
  25 C :   -0.041107
  26 H :    0.030233
  27 H :    0.017174
  28 C :   -0.042973
  29 H :    0.018153
  30 H :    0.021783
  31 H :    0.016295
  32 H :    0.049044
  33 H :    0.011288

  Mayer bond orders larger than 0.100000
B(  0-S ,  1-C ) :   1.1249 B(  0-S ,  4-C ) :   1.1437 B(  1-C ,  2-C ) :   1.6595
B(  1-C , 32-H ) :   0.9536 B(  2-C ,  3-C ) :   1.2225 B(  2-C ,  6-C ) :   0.9800
B(  3-C ,  4-C ) :   1.6151 B(  3-C ,  5-H ) :   0.9997 B(  4-C , 20-C ) :   1.0115
B(  6-C ,  7-H ) :   0.9345 B(  6-C ,  8-H ) :   0.9392 B(  6-C ,  9-C ) :   1.0752
B(  9-C , 10-H ) :   0.9533 B(  9-C , 11-H ) :   0.9497 B(  9-C , 12-C ) :   1.0520
B( 12-C , 13-H ) :   0.9760 B( 12-C , 14-H ) :   0.9779 B( 12-C , 15-H ) :   0.9768
B( 16-S , 17-C ) :   1.1569 B( 16-S , 20-C ) :   1.1349 B( 17-C , 18-C ) :   1.6353
B( 17-C , 33-H ) :   0.9669 B( 18-C , 19-C ) :   1.2105 B( 18-C , 21-H ) :   0.9979
B( 19-C , 20-C ) :   1.6405 B( 19-C , 22-C ) :   1.0136 B( 22-C , 23-H ) :   0.9199
B( 22-C , 24-H ) :   0.9317 B( 22-C , 25-C ) :   1.0626 B( 25-C , 26-H ) :   0.9588
B( 25-C , 27-H ) :   0.9514 B( 25-C , 28-C ) :   1.0860 B( 28-C , 29-H ) :   0.9743
B( 28-C , 30-H ) :   0.9685 B( 28-C , 31-H ) :   0.9756

Dispersion correction           -0.014430283
FINAL SINGLE POINT ENERGY     -1339.848844877019

DIPOLE MOMENT
-------------
                                X             Y             Z
Electronic contribution:     18.78060      20.32053       6.72941
Nuclear contribution   :    -19.11300     -20.95463      -7.08705
                        -----------------------------------------
Total Dipole Moment    :     -0.33241      -0.63410      -0.35764
                        -----------------------------------------
Magnitude (a.u.)       :      0.80030
Magnitude (Debye)      :      2.03421

Rotational constants in cm-1:     0.015673     0.009579     0.007227
Rotational constants in MHz :   469.876403   287.160435   216.661719

                             ****ORCA TERMINATED NORMALLY****
TOTAL RUN TIME: 0 days 0 hours 0 minutes 29 seconds 782 msec
