                         Program Version 4.2.1 -  RELEASE  -
|  1> ! wB97X-D3 SP def2-SVP
|  2> %pal
|  3> nprocs 16
|  4> end
|  5>
|  6> * xyz 0 1
|  7> S 	 -13.9283 	 41.4826 	 34.047
|  8> C 	 -14.3336 	 40.0698 	 34.9671
|  9> C 	 -13.8358 	 38.9177 	 34.3767
| 10> C 	 -12.8847 	 39.2711 	 33.3668
| 11> C 	 -12.8435 	 40.5737 	 33.0424
| 12> H 	 -12.2801 	 38.5088 	 32.8369
| 13> C 	 -13.9774 	 37.5512 	 34.9194
| 14> H 	 -13.9492 	 37.5056 	 36.0226
| 15> H 	 -13.1673 	 36.8575 	 34.6804
| 16> C 	 -15.2898 	 36.9098 	 34.5265
| 17> H 	 -15.4406 	 35.965 	 34.953
| 18> H 	 -16.1219 	 37.4314 	 35.0364
| 19> C 	 -15.6283 	 37.0291 	 33.0851
| 20> H 	 -15.8692 	 38.0909 	 32.886
| 21> H 	 -14.8236 	 36.6905 	 32.3946
| 22> H 	 -16.3748 	 36.3373 	 32.7274
| 23> S 	 -10.5 	 41.687 	 32.207
| 24> C 	 -10.3701 	 42.1925 	 30.5219
| 25> C 	 -11.519 	 41.9092 	 29.7592
| 26> C 	 -12.4609 	 41.2393 	 30.5588
| 27> C 	 -12.1802 	 41.1718 	 31.9501
| 28> H 	 -11.4876 	 42.1734 	 28.702
| 29> C 	 -13.7864 	 40.8915 	 29.9563
| 30> H 	 -13.9118 	 41.6861 	 29.262
| 31> H 	 -14.5842 	 40.9024 	 30.7078
| 32> C 	 -13.7845 	 39.5371 	 29.1737
| 33> H 	 -14.8286 	 39.3452 	 28.8265
| 34> H 	 -13.615 	 38.7617 	 29.934
| 35> C 	 -12.9249 	 39.4622 	 27.9437
| 36> H 	 -13.03 	 38.4768 	 27.3719
| 37> H 	 -11.812 	 39.4929 	 28.1411
| 38> H 	 -13.1957 	 40.2166 	 27.272
| 39> H 	 -15.0617 	 40.0439 	 35.8136
| 40> H 	 -9.46847 	 42.6738 	 30.0283
| 41> *
| 42>
| 43>                          ****END OF INPUT****

CARTESIAN COORDINATES (ANGSTROEM)
---------------------------------
  S    -13.928300   41.482600   34.047000
  C    -14.333600   40.069800   34.967100
  C    -13.835800   38.917700   34.376700
  C    -12.884700   39.271100   33.366800
  C    -12.843500   40.573700   33.042400
  H    -12.280100   38.508800   32.836900
  C    -13.977400   37.551200   34.919400
  H    -13.949200   37.505600   36.022600
  H    -13.167300   36.857500   34.680400
  C    -15.289800   36.909800   34.526500
  H    -15.440600   35.965000   34.953000
  H    -16.121900   37.431400   35.036400
  C    -15.628300   37.029100   33.085100
  H    -15.869200   38.090900   32.886000
  H    -14.823600   36.690500   32.394600
  H    -16.374800   36.337300   32.727400
  S    -10.500000   41.687000   32.207000
  C    -10.370100   42.192500   30.521900
  C    -11.519000   41.909200   29.759200
  C    -12.460900   41.239300   30.558800
  C    -12.180200   41.171800   31.950100
  H    -11.487600   42.173400   28.702000
  C    -13.786400   40.891500   29.956300
  H    -13.911800   41.686100   29.262000
  H    -14.584200   40.902400   30.707800
  C    -13.784500   39.537100   29.173700
  H    -14.828600   39.345200   28.826500
  H    -13.615000   38.761700   29.934000
  C    -12.924900   39.462200   27.943700
  H    -13.030000   38.476800   27.371900
  H    -11.812000   39.492900   28.141100
  H    -13.195700   40.216600   27.272000
  H    -15.061700   40.043900   35.813600
  H     -9.468470   42.673800   30.028300

 Total Charge           Charge          ....    0
 Multiplicity           Mult            ....    1
 Number of Electrons    NEL             ....  134
 Basis Dimension        Dim             ....  322

ORBITAL ENERGIES
----------------

  NO   OCC          E(Eh)            E(eV)
   0   2.0000     -88.965688     -2420.8794
   1   2.0000     -88.965443     -2420.8728
   2   2.0000     -10.324354      -280.9399
   3   2.0000     -10.322481      -280.8890
   4   2.0000     -10.319016      -280.7947
   5   2.0000     -10.318078      -280.7692
   6   2.0000     -10.303449      -280.3711
   7   2.0000     -10.299095      -280.2526
   8   2.0000     -10.294789      -280.1354
   9   2.0000     -10.292508      -280.0734
  10   2.0000     -10.290068      -280.0070
  11   2.0000     -10.287402      -279.9344
  12   2.0000     -10.284334      -279.8510
  13   2.0000     -10.280426      -279.7446
  14   2.0000     -10.276983      -279.6509
  15   2.0000     -10.273201      -279.5480
  16   2.0000      -8.080791      -219.8895
  17   2.0000      -8.079611      -219.8574
  18   2.0000      -6.039231      -164.3358
  19   2.0000      -6.038042      -164.3035
  20   2.0000      -6.035126      -164.2241
  21   2.0000      -6.034165      -164.1980
  22   2.0000      -6.031657      -164.1297
  23   2.0000      -6.030574      -164.1003
  24   2.0000      -1.010975       -27.5100
  25   2.0000      -0.982590       -26.7376
  26   2.0000      -0.922637       -25.1062
  27   2.0000      -0.906677       -24.6719
  28   2.0000      -0.872868       -23.7519
  29   2.0000      -0.849453       -23.1148
  30   2.0000      -0.847444       -23.0601
  31   2.0000      -0.813975       -22.1494
  32   2.0000      -0.786711       -21.4075
  33   2.0000      -0.767723       -20.8908
  34   2.0000      -0.707582       -19.2543
  35   2.0000      -0.703531       -19.1441
  36   2.0000      -0.686084       -18.6693
  37   2.0000      -0.657609       -17.8944
  38   2.0000      -0.642613       -17.4864
  39   2.0000      -0.617120       -16.7927
  40   2.0000      -0.588892       -16.0246
  41   2.0000      -0.578825       -15.7506
  42   2.0000      -0.561228       -15.2718
  43   2.0000      -0.551377       -15.0037
  44   2.0000      -0.541321       -14.7301
  45   2.0000      -0.536958       -14.6114
  46   2.0000      -0.517967       -14.0946
  47   2.0000      -0.506092       -13.7715
  48   2.0000      -0.503784       -13.7087
  49   2.0000      -0.498681       -13.5698
  50   2.0000      -0.490520       -13.3477
  51   2.0000      -0.476629       -12.9697
  52   2.0000      -0.471333       -12.8256
  53   2.0000      -0.463441       -12.6109
  54   2.0000      -0.459249       -12.4968
  55   2.0000      -0.445471       -12.1219
  56   2.0000      -0.442270       -12.0348
  57   2.0000      -0.435369       -11.8470
  58   2.0000      -0.430393       -11.7116
  59   2.0000      -0.425521       -11.5790
  60   2.0000      -0.422775       -11.5043
  61   2.0000      -0.406147       -11.0518
  62   2.0000      -0.404757       -11.0140
  63   2.0000      -0.337763        -9.1910
  64   2.0000      -0.330035        -8.9807
  65   2.0000      -0.316952        -8.6247
  66   2.0000      -0.306852        -8.3499
  67   0.0000       0.042168         1.1475
  68   0.0000       0.049441         1.3454
  69   0.0000       0.113930         3.1002
  70   0.0000       0.117535         3.1983
  71   0.0000       0.125988         3.4283

MULLIKEN ATOMIC CHARGES
-----------------------
   0 S :    0.123908
   1 C :   -0.122694
   2 C :   -0.096002
   3 C :    0.047505
   4 C :   -0.173537
   5 H :    0.022486
   6 C :    0.056450
   7 H :    0.030530
   8 H :    0.025159
   9 C :   -0.055016
  10 H :    0.006895
  11 H :    0.013552
  12 C :   -0.054430
  13 H :    0.055124
  14 H :    0.017785
  15 H :    0.025815
  16 S :    0.112499
  17 C :   -0.122030
  18 C :   -0.047696
  19 C :   -0.006485
  20 C :   -0.178392
  21 H :    0.032049
  22 C :    0.076485
  23 H :    0.011788
  24 H :    0.029099
  25 C :   -0.067639
  26 H :    0.029804
  27 H :    0.029030
  28 C :   -0.069211
  29 H :    0.041159
  30 H :    0.047335
  31 H :    0.020699
  32 H :    0.063244
  33 H :    0.074731
Sum of atomic charges:   -0.0000000

LOEWDIN ATOMIC CHARGES
----------------------
   0 S :    0.422400
   1 C :   -0.197954
   2 C :   -0.068326
   3 C :   -0.051025
   4 C :   -0.218694
   5 H :    0.037462
   6 C :   -0.035223
   7 H :    0.036882
   8 H :    0.031052
   9 C :   -0.047101
  10 H :    0.014950
  11 H :    0.025444
  12 C :   -0.073057
  13 H :    0.033461
  14 H :    0.023468
  15 H :    0.026026
  16 S :    0.400531
  17 C :   -0.187850
  18 C :   -0.080507
  19 C :   -0.045210
  20 C :   -0.208994
  21 H :    0.038814
  22 C :   -0.026962
  23 H :    0.023921
  24 H :    0.031264
  25 C :   -0.041290
  26 H :    0.027877
  27 H :    0.023797
  28 C :   -0.075329
  29 H :    0.036746
  30 H :    0.030808
  31 H :    0.015438
  32 H :    0.036186
  33 H :    0.040996

  Mayer bond orders larger than 0.100000
B(  0-S ,  1-C ) :   1.1564 B(  0-S ,  4-C ) :   1.1364 B(  1-C ,  2-C ) :   1.5998
B(  1-C , 32-H ) :   0.9604 B(  2-C ,  3-C ) :   1.2320 B(  2-C ,  6-C ) :   1.0244
B(  3-C ,  4-C ) :   1.6040 B(  3-C ,  5-H ) :   0.9930 B(  4-C , 20-C ) :   1.0297
B(  6-C ,  7-H ) :   0.9434 B(  6-C ,  8-H ) :   0.9460 B(  6-C ,  9-C ) :   1.0726
B(  9-C , 10-H ) :   0.9536 B(  9-C , 11-H ) :   0.9507 B(  9-C , 12-C ) :   1.0813
B( 12-C , 13-H ) :   0.9657 B( 12-C , 14-H ) :   0.9736 B( 12-C , 15-H ) :   0.9691
B( 16-S , 17-C ) :   1.1795 B( 16-S , 20-C ) :   1.1312 B( 17-C , 18-C ) :   1.5901
B( 17-C , 20-C ) :   0.1161 B( 17-C , 33-H ) :   0.9554 B( 18-C , 19-C ) :   1.2525
B( 18-C , 21-H ) :   0.9875 B( 19-C , 20-C ) :   1.5720 B( 19-C , 22-C ) :   1.0320
B( 22-C , 23-H ) :   0.9409 B( 22-C , 24-H ) :   0.9378 B( 22-C , 25-C ) :   1.0689
B( 25-C , 26-H ) :   0.9548 B( 25-C , 27-H ) :   0.9544 B( 25-C , 28-C ) :   1.0841
B( 28-C , 29-H ) :   0.9696 B( 28-C , 30-H ) :   0.9684 B( 28-C , 31-H ) :   0.9720

Dispersion correction           -0.015657168
FINAL SINGLE POINT ENERGY     -1339.870468141348

DIPOLE MOMENT
-------------
                                X             Y             Z
Electronic contribution:     13.17666      20.16158      12.06636
Nuclear contribution   :    -13.42456     -20.67732     -12.35560
                        -----------------------------------------
Total Dipole Moment    :     -0.24790      -0.51574      -0.28924
                        -----------------------------------------
Magnitude (a.u.)       :      0.64117
Magnitude (Debye)      :      1.62973

Rotational constants in cm-1:     0.019304     0.009531     0.007368
Rotational constants in MHz :   578.732635   285.723909   220.887620

                             ****ORCA TERMINATED NORMALLY****
TOTAL RUN TIME: 0 days 0 hours 0 minutes 35 seconds 743 msec
