                         Program Version 4.2.1 -  RELEASE  -
|  1> ! wB97X-D3 SP def2-SVP
|  2> %pal
|  3> nprocs 16
|  4> end
|  5>
|  6> * xyz 0 1
|  7> S 	 -11.5371 	 67.9232 	 54.0366
|  8> C 	 -11.5587 	 66.1766 	 53.8352
|  9> C 	 -10.8252 	 65.7779 	 52.7161
| 10> C 	 -10.208 	 66.877 	 52.0379
| 11> C 	 -10.4599 	 68.0977 	 52.6239
| 12> H 	 -9.60286 	 66.7532 	 51.1638
| 13> C 	 -10.8064 	 64.3835 	 52.1418
| 14> H 	 -11.4369 	 63.7772 	 52.811
| 15> H 	 -9.83599 	 64.0001 	 52.272
| 16> C 	 -11.2967 	 64.3616 	 50.6939
| 17> H 	 -12.2439 	 64.8744 	 50.5571
| 18> H 	 -10.5825 	 64.9395 	 50.1126
| 19> C 	 -11.2596 	 62.9573 	 50.1834
| 20> H 	 -11.6033 	 62.8722 	 49.1486
| 21> H 	 -10.2129 	 62.6659 	 50.3265
| 22> H 	 -11.8223 	 62.3198 	 50.8966
| 23> S 	 -9.30688 	 70.2144 	 53.8948
| 24> C 	 -8.9451 	 71.5587 	 52.9944
| 25> C 	 -8.71338 	 71.2906 	 51.6803
| 26> C 	 -9.11971 	 69.9571 	 51.3279
| 27> C 	 -9.75812 	 69.3563 	 52.4475
| 28> H 	 -8.23258 	 72.0254 	 51.0523
| 29> C 	 -9.10097 	 69.3432 	 49.9766
| 30> H 	 -8.75529 	 68.3474 	 50.0595
| 31> H 	 -8.3931 	 69.8326 	 49.3787
| 32> C 	 -10.4349 	 69.2191 	 49.2149
| 33> H 	 -11.0313 	 70.1301 	 49.1845
| 34> H 	 -11.125 	 68.4221 	 49.6938
| 35> C 	 -10.2698 	 68.8585 	 47.7506
| 36> H 	 -9.44285 	 68.0971 	 47.6076
| 37> H 	 -9.92933 	 69.7374 	 47.2207
| 38> H 	 -11.2257 	 68.477 	 47.3353
| 39> H 	 -12.1566 	 65.4726 	 54.4192
| 40> H 	 -8.6877 	 72.4832 	 53.4862
| 41> *
| 42>
| 43>                          ****END OF INPUT****

CARTESIAN COORDINATES (ANGSTROEM)
---------------------------------
  S    -11.537100   67.923200   54.036600
  C    -11.558700   66.176600   53.835200
  C    -10.825200   65.777900   52.716100
  C    -10.208000   66.877000   52.037900
  C    -10.459900   68.097700   52.623900
  H     -9.602860   66.753200   51.163800
  C    -10.806400   64.383500   52.141800
  H    -11.436900   63.777200   52.811000
  H     -9.835990   64.000100   52.272000
  C    -11.296700   64.361600   50.693900
  H    -12.243900   64.874400   50.557100
  H    -10.582500   64.939500   50.112600
  C    -11.259600   62.957300   50.183400
  H    -11.603300   62.872200   49.148600
  H    -10.212900   62.665900   50.326500
  H    -11.822300   62.319800   50.896600
  S     -9.306880   70.214400   53.894800
  C     -8.945100   71.558700   52.994400
  C     -8.713380   71.290600   51.680300
  C     -9.119710   69.957100   51.327900
  C     -9.758120   69.356300   52.447500
  H     -8.232580   72.025400   51.052300
  C     -9.100970   69.343200   49.976600
  H     -8.755290   68.347400   50.059500
  H     -8.393100   69.832600   49.378700
  C    -10.434900   69.219100   49.214900
  H    -11.031300   70.130100   49.184500
  H    -11.125000   68.422100   49.693800
  C    -10.269800   68.858500   47.750600
  H     -9.442850   68.097100   47.607600
  H     -9.929330   69.737400   47.220700
  H    -11.225700   68.477000   47.335300
  H    -12.156600   65.472600   54.419200
  H     -8.687700   72.483200   53.486200

 Total Charge           Charge          ....    0
 Multiplicity           Mult            ....    1
 Number of Electrons    NEL             ....  134
 Basis Dimension        Dim             ....  322

ORBITAL ENERGIES
----------------

  NO   OCC          E(Eh)            E(eV)
   0   2.0000     -88.966863     -2420.9114
   1   2.0000     -88.961842     -2420.7748
   2   2.0000     -10.331071      -281.1227
   3   2.0000     -10.322690      -280.8947
   4   2.0000     -10.315417      -280.6968
   5   2.0000     -10.303587      -280.3749
   6   2.0000     -10.302646      -280.3492
   7   2.0000     -10.299623      -280.2670
   8   2.0000     -10.292417      -280.0709
   9   2.0000     -10.290165      -280.0096
  10   2.0000     -10.289002      -279.9780
  11   2.0000     -10.288024      -279.9514
  12   2.0000     -10.284935      -279.8673
  13   2.0000     -10.283988      -279.8415
  14   2.0000     -10.281497      -279.7737
  15   2.0000     -10.279849      -279.7289
  16   2.0000      -8.080661      -219.8860
  17   2.0000      -8.078746      -219.8338
  18   2.0000      -6.039247      -164.3363
  19   2.0000      -6.036950      -164.2737
  20   2.0000      -6.035299      -164.2288
  21   2.0000      -6.033190      -164.1714
  22   2.0000      -6.031387      -164.1224
  23   2.0000      -6.029436      -164.0693
  24   2.0000      -1.012131       -27.5415
  25   2.0000      -0.984707       -26.7952
  26   2.0000      -0.920610       -25.0511
  27   2.0000      -0.914584       -24.8871
  28   2.0000      -0.870128       -23.6774
  29   2.0000      -0.856450       -23.3052
  30   2.0000      -0.846899       -23.0453
  31   2.0000      -0.815601       -22.1936
  32   2.0000      -0.785595       -21.3771
  33   2.0000      -0.766751       -20.8644
  34   2.0000      -0.709369       -19.3029
  35   2.0000      -0.696424       -18.9507
  36   2.0000      -0.687169       -18.6988
  37   2.0000      -0.661586       -18.0027
  38   2.0000      -0.635847       -17.3023
  39   2.0000      -0.627016       -17.0620
  40   2.0000      -0.603211       -16.4142
  41   2.0000      -0.576211       -15.6795
  42   2.0000      -0.568063       -15.4578
  43   2.0000      -0.557770       -15.1777
  44   2.0000      -0.536421       -14.5968
  45   2.0000      -0.527094       -14.3429
  46   2.0000      -0.514572       -14.0022
  47   2.0000      -0.510431       -13.8895
  48   2.0000      -0.506431       -13.7807
  49   2.0000      -0.497143       -13.5279
  50   2.0000      -0.495245       -13.4763
  51   2.0000      -0.484147       -13.1743
  52   2.0000      -0.469162       -12.7665
  53   2.0000      -0.464475       -12.6390
  54   2.0000      -0.459400       -12.5009
  55   2.0000      -0.450139       -12.2489
  56   2.0000      -0.445627       -12.1261
  57   2.0000      -0.442361       -12.0372
  58   2.0000      -0.439484       -11.9590
  59   2.0000      -0.425899       -11.5893
  60   2.0000      -0.421089       -11.4584
  61   2.0000      -0.417653       -11.3649
  62   2.0000      -0.412254       -11.2180
  63   2.0000      -0.352694        -9.5973
  64   2.0000      -0.330236        -8.9862
  65   2.0000      -0.324181        -8.8214
  66   2.0000      -0.279839        -7.6148
  67   0.0000       0.019324         0.5258
  68   0.0000       0.079203         2.1552
  69   0.0000       0.103377         2.8130
  70   0.0000       0.113378         3.0852
  71   0.0000       0.130655         3.5553

MULLIKEN ATOMIC CHARGES
-----------------------
   0 S :    0.101017
   1 C :   -0.121793
   2 C :   -0.106633
   3 C :    0.024394
   4 C :   -0.125123
   5 H :   -0.001848
   6 C :    0.079907
   7 H :    0.008808
   8 H :    0.022160
   9 C :   -0.084178
  10 H :    0.037185
  11 H :    0.020195
  12 C :   -0.016902
  13 H :    0.046332
  14 H :    0.020872
  15 H :    0.026355
  16 S :    0.123353
  17 C :   -0.076901
  18 C :   -0.039452
  19 C :   -0.026241
  20 C :   -0.157499
  21 H :    0.012287
  22 C :    0.119655
  23 H :    0.006542
  24 H :   -0.004818
  25 C :   -0.101314
  26 H :    0.030679
  27 H :    0.045818
  28 C :   -0.064559
  29 H :    0.026184
  30 H :    0.031434
  31 H :    0.046363
  32 H :    0.049505
  33 H :    0.048215
Sum of atomic charges:   -0.0000000

LOEWDIN ATOMIC CHARGES
----------------------
   0 S :    0.388759
   1 C :   -0.201333
   2 C :   -0.059327
   3 C :   -0.060488
   4 C :   -0.178183
   5 H :    0.024228
   6 C :   -0.026700
   7 H :    0.028281
   8 H :    0.025593
   9 C :   -0.039814
  10 H :    0.025264
  11 H :    0.020654
  12 C :   -0.062744
  13 H :    0.028206
  14 H :    0.027240
  15 H :    0.026063
  16 S :    0.446703
  17 C :   -0.212275
  18 C :   -0.073022
  19 C :   -0.050531
  20 C :   -0.198327
  21 H :    0.030974
  22 C :   -0.031002
  23 H :    0.025646
  24 H :    0.023906
  25 C :   -0.045058
  26 H :    0.023943
  27 H :    0.031514
  28 C :   -0.070132
  29 H :    0.024313
  30 H :    0.021537
  31 H :    0.031894
  32 H :    0.029871
  33 H :    0.024351

  Mayer bond orders larger than 0.100000
B(  0-S ,  1-C ) :   1.1258 B(  0-S ,  4-C ) :   1.1413 B(  1-C ,  2-C ) :   1.6180
B(  1-C , 32-H ) :   0.9612 B(  2-C ,  3-C ) :   1.2487 B(  2-C ,  6-C ) :   1.0248
B(  3-C ,  4-C ) :   1.5496 B(  3-C ,  5-H ) :   0.9892 B(  4-C , 20-C ) :   1.0858
B(  6-C ,  7-H ) :   0.9395 B(  6-C ,  8-H ) :   0.9262 B(  6-C ,  9-C ) :   1.0661
B(  9-C , 10-H ) :   0.9579 B(  9-C , 11-H ) :   0.9466 B(  9-C , 12-C ) :   1.0862
B( 12-C , 13-H ) :   0.9713 B( 12-C , 14-H ) :   0.9706 B( 12-C , 15-H ) :   0.9737
B( 16-S , 17-C ) :   1.1767 B( 16-S , 20-C ) :   1.1682 B( 17-C , 18-C ) :   1.5753
B( 17-C , 33-H ) :   0.9688 B( 18-C , 19-C ) :   1.2504 B( 18-C , 21-H ) :   1.0018
B( 19-C , 20-C ) :   1.5236 B( 19-C , 22-C ) :   1.0749 B( 22-C , 23-H ) :   0.9125
B( 22-C , 24-H ) :   0.9237 B( 22-C , 25-C ) :   1.0613 B( 25-C , 26-H ) :   0.9579
B( 25-C , 27-H ) :   0.9522 B( 25-C , 28-C ) :   1.0788 B( 28-C , 29-H ) :   0.9732
B( 28-C , 30-H ) :   0.9759 B( 28-C , 31-H ) :   0.9732

Dispersion correction           -0.014317231
FINAL SINGLE POINT ENERGY     -1339.874057866121

DIPOLE MOMENT
-------------
                                X             Y             Z
Electronic contribution:      1.63270      17.64227      26.76865
Nuclear contribution   :     -1.43335     -17.95285     -27.30468
                        -----------------------------------------
Total Dipole Moment    :      0.19935      -0.31058      -0.53603
                        -----------------------------------------
Magnitude (a.u.)       :      0.65079
Magnitude (Debye)      :      1.65417

Rotational constants in cm-1:     0.018039     0.009646     0.006724
Rotational constants in MHz :   540.801713   289.184425   201.575952

                             ****ORCA TERMINATED NORMALLY****
TOTAL RUN TIME: 0 days 0 hours 0 minutes 33 seconds 102 msec
