                         Program Version 4.2.1 -  RELEASE  -
|  1> ! wB97X-D3 SP def2-SVP
|  2> %pal
|  3> nprocs 16
|  4> end
|  5>
|  6> * xyz 0 1
|  7> S 	 9.5499 	 20.6172 	 41.7125
|  8> C 	 9.6636 	 19.3915 	 42.8893
|  9> C 	 9.81777 	 19.9456 	 44.1509
| 10> C 	 9.89184 	 21.4046 	 44.1155
| 11> C 	 9.70092 	 21.9181 	 42.8533
| 12> H 	 9.99326 	 22.0299 	 45.0305
| 13> C 	 9.94162 	 19.0894 	 45.3725
| 14> H 	 9.29001 	 18.1743 	 45.3032
| 15> H 	 9.33578 	 19.4141 	 46.2326
| 16> C 	 11.4353 	 18.663 	 45.7197
| 17> H 	 12.1388 	 19.4797 	 45.7487
| 18> H 	 11.4062 	 18.3251 	 46.7397
| 19> C 	 11.953 	 17.5014 	 44.7985
| 20> H 	 12.2345 	 17.8849 	 43.7977
| 21> H 	 12.8049 	 16.989 	 45.29
| 22> H 	 11.1302 	 16.8195 	 44.73
| 23> S 	 8.61771 	 24.3746 	 43.581
| 24> C 	 9.0683 	 25.787 	 42.6614
| 25> C 	 9.63257 	 25.4398 	 41.4626
| 26> C 	 9.96727 	 24.0689 	 41.4062
| 27> C 	 9.48151 	 23.31 	 42.4655
| 28> H 	 9.88979 	 26.214 	 40.7473
| 29> C 	 10.9191 	 23.5367 	 40.3455
| 30> H 	 11.1906 	 22.5098 	 40.4589
| 31> H 	 11.8338 	 24.2128 	 40.28
| 32> C 	 10.312 	 23.5112 	 38.9183
| 33> H 	 10.158 	 24.5492 	 38.66
| 34> H 	 9.33738 	 23.0271 	 38.9791
| 35> C 	 11.157 	 22.7388 	 37.8106
| 36> H 	 11.0185 	 21.614 	 37.9039
| 37> H 	 12.1721 	 22.9785 	 37.8847
| 38> H 	 10.886 	 23.038 	 36.7551
| 39> H 	 9.39753 	 18.408 	 42.7273
| 40> H 	 8.86943 	 26.7883 	 42.9696
| 41> *
| 42>
| 43>                          ****END OF INPUT****

CARTESIAN COORDINATES (ANGSTROEM)
---------------------------------
  S      9.549900   20.617200   41.712500
  C      9.663600   19.391500   42.889300
  C      9.817770   19.945600   44.150900
  C      9.891840   21.404600   44.115500
  C      9.700920   21.918100   42.853300
  H      9.993260   22.029900   45.030500
  C      9.941620   19.089400   45.372500
  H      9.290010   18.174300   45.303200
  H      9.335780   19.414100   46.232600
  C     11.435300   18.663000   45.719700
  H     12.138800   19.479700   45.748700
  H     11.406200   18.325100   46.739700
  C     11.953000   17.501400   44.798500
  H     12.234500   17.884900   43.797700
  H     12.804900   16.989000   45.290000
  H     11.130200   16.819500   44.730000
  S      8.617710   24.374600   43.581000
  C      9.068300   25.787000   42.661400
  C      9.632570   25.439800   41.462600
  C      9.967270   24.068900   41.406200
  C      9.481510   23.310000   42.465500
  H      9.889790   26.214000   40.747300
  C     10.919100   23.536700   40.345500
  H     11.190600   22.509800   40.458900
  H     11.833800   24.212800   40.280000
  C     10.312000   23.511200   38.918300
  H     10.158000   24.549200   38.660000
  H      9.337380   23.027100   38.979100
  C     11.157000   22.738800   37.810600
  H     11.018500   21.614000   37.903900
  H     12.172100   22.978500   37.884700
  H     10.886000   23.038000   36.755100
  H      9.397530   18.408000   42.727300
  H      8.869430   26.788300   42.969600

 Total Charge           Charge          ....    0
 Multiplicity           Mult            ....    1
 Number of Electrons    NEL             ....  134
 Basis Dimension        Dim             ....  322

ORBITAL ENERGIES
----------------

  NO   OCC          E(Eh)            E(eV)
   0   2.0000     -88.966132     -2420.8915
   1   2.0000     -88.965129     -2420.8642
   2   2.0000     -10.331225      -281.1269
   3   2.0000     -10.329217      -281.0723
   4   2.0000     -10.317203      -280.7454
   5   2.0000     -10.306944      -280.4662
   6   2.0000     -10.303657      -280.3768
   7   2.0000     -10.303605      -280.3753
   8   2.0000     -10.299747      -280.2704
   9   2.0000     -10.297774      -280.2167
  10   2.0000     -10.293833      -280.1094
  11   2.0000     -10.290894      -280.0295
  12   2.0000     -10.289135      -279.9816
  13   2.0000     -10.284501      -279.8555
  14   2.0000     -10.283798      -279.8364
  15   2.0000     -10.280255      -279.7400
  16   2.0000      -8.080715      -219.8874
  17   2.0000      -8.080678      -219.8864
  18   2.0000      -6.039241      -164.3361
  19   2.0000      -6.039217      -164.3354
  20   2.0000      -6.035192      -164.2259
  21   2.0000      -6.034893      -164.2178
  22   2.0000      -6.031665      -164.1299
  23   2.0000      -6.031415      -164.1231
  24   2.0000      -1.010180       -27.4884
  25   2.0000      -0.989197       -26.9174
  26   2.0000      -0.904647       -24.6167
  27   2.0000      -0.901073       -24.5194
  28   2.0000      -0.871561       -23.7164
  29   2.0000      -0.846627       -23.0379
  30   2.0000      -0.840955       -22.8836
  31   2.0000      -0.816807       -22.2265
  32   2.0000      -0.779335       -21.2068
  33   2.0000      -0.769989       -20.9525
  34   2.0000      -0.709581       -19.3087
  35   2.0000      -0.698067       -18.9954
  36   2.0000      -0.691121       -18.8064
  37   2.0000      -0.666953       -18.1487
  38   2.0000      -0.640895       -17.4396
  39   2.0000      -0.618509       -16.8305
  40   2.0000      -0.600601       -16.3432
  41   2.0000      -0.576311       -15.6822
  42   2.0000      -0.564434       -15.3590
  43   2.0000      -0.545212       -14.8360
  44   2.0000      -0.536295       -14.5933
  45   2.0000      -0.520503       -14.1636
  46   2.0000      -0.514242       -13.9932
  47   2.0000      -0.505851       -13.7649
  48   2.0000      -0.501795       -13.6545
  49   2.0000      -0.500328       -13.6146
  50   2.0000      -0.489830       -13.3289
  51   2.0000      -0.473704       -12.8901
  52   2.0000      -0.471209       -12.8223
  53   2.0000      -0.469053       -12.7636
  54   2.0000      -0.458488       -12.4761
  55   2.0000      -0.451207       -12.2780
  56   2.0000      -0.443309       -12.0631
  57   2.0000      -0.440223       -11.9791
  58   2.0000      -0.429587       -11.6897
  59   2.0000      -0.420837       -11.4516
  60   2.0000      -0.417135       -11.3508
  61   2.0000      -0.413424       -11.2498
  62   2.0000      -0.407197       -11.0804
  63   2.0000      -0.355290        -9.6679
  64   2.0000      -0.333095        -9.0640
  65   2.0000      -0.327186        -8.9032
  66   2.0000      -0.290507        -7.9051
  67   0.0000       0.025732         0.7002
  68   0.0000       0.076778         2.0892
  69   0.0000       0.109884         2.9901
  70   0.0000       0.115907         3.1540
  71   0.0000       0.130109         3.5405

MULLIKEN ATOMIC CHARGES
-----------------------
   0 S :    0.109010
   1 C :   -0.069820
   2 C :   -0.097738
   3 C :    0.008264
   4 C :   -0.140438
   5 H :    0.031871
   6 C :   -0.002984
   7 H :    0.019611
   8 H :    0.025865
   9 C :   -0.047576
  10 H :    0.031470
  11 H :    0.020514
  12 C :   -0.052371
  13 H :    0.050836
  14 H :    0.042804
  15 H :    0.017509
  16 S :    0.102025
  17 C :   -0.090815
  18 C :   -0.021471
  19 C :   -0.032199
  20 C :   -0.118797
  21 H :    0.025633
  22 C :    0.052920
  23 H :    0.009466
  24 H :    0.043437
  25 C :   -0.100309
  26 H :    0.021817
  27 H :    0.033404
  28 C :   -0.058669
  29 H :    0.050250
  30 H :    0.019644
  31 H :    0.041226
  32 H :    0.025521
  33 H :    0.050092
Sum of atomic charges:   -0.0000000

LOEWDIN ATOMIC CHARGES
----------------------
   0 S :    0.435304
   1 C :   -0.199308
   2 C :   -0.061906
   3 C :   -0.068457
   4 C :   -0.195501
   5 H :    0.037920
   6 C :   -0.050990
   7 H :    0.035867
   8 H :    0.032945
   9 C :   -0.030950
  10 H :    0.021629
  11 H :    0.020586
  12 C :   -0.063934
  13 H :    0.029472
  14 H :    0.030745
  15 H :    0.017123
  16 S :    0.402538
  17 C :   -0.172637
  18 C :   -0.070642
  19 C :   -0.056814
  20 C :   -0.193132
  21 H :    0.034691
  22 C :   -0.034826
  23 H :    0.013317
  24 H :    0.037906
  25 C :   -0.039334
  26 H :    0.014756
  27 H :    0.022832
  28 C :   -0.071080
  29 H :    0.034638
  30 H :    0.013052
  31 H :    0.033828
  32 H :    0.015427
  33 H :    0.024936

  Mayer bond orders larger than 0.100000
B(  0-S ,  1-C ) :   1.1506 B(  0-S ,  4-C ) :   1.1604 B(  1-C ,  2-C ) :   1.5988
B(  1-C , 32-H ) :   0.9750 B(  2-C ,  3-C ) :   1.2451 B(  2-C ,  6-C ) :   1.0380
B(  3-C ,  4-C ) :   1.5595 B(  3-C ,  5-H ) :   0.9899 B(  4-C , 20-C ) :   1.0431
B(  6-C ,  7-H ) :   0.9401 B(  6-C ,  8-H ) :   0.9419 B(  6-C ,  9-C ) :   1.0532
B(  9-C , 10-H ) :   0.9629 B(  9-C , 11-H ) :   0.9560 B(  9-C , 12-C ) :   1.0699
B( 12-C , 13-H ) :   0.9756 B( 12-C , 14-H ) :   0.9757 B( 12-C , 15-H ) :   0.9768
B( 16-S , 17-C ) :   1.1624 B( 16-S , 20-C ) :   1.1264 B( 17-C , 18-C ) :   1.6067
B( 17-C , 33-H ) :   0.9705 B( 18-C , 19-C ) :   1.2372 B( 18-C , 21-H ) :   0.9904
B( 19-C , 20-C ) :   1.5843 B( 19-C , 22-C ) :   1.0567 B( 22-C , 23-H ) :   0.9339
B( 22-C , 24-H ) :   0.9352 B( 22-C , 25-C ) :   1.0469 B( 25-C , 26-H ) :   0.9624
B( 25-C , 27-H ) :   0.9590 B( 25-C , 28-C ) :   1.0722 B( 28-C , 29-H ) :   0.9760
B( 28-C , 30-H ) :   0.9762 B( 28-C , 31-H ) :   0.9763

Dispersion correction           -0.014220107
FINAL SINGLE POINT ENERGY     -1339.879146013702

DIPOLE MOMENT
-------------
                                X             Y             Z
Electronic contribution:    -12.83509      12.54835       4.91202
Nuclear contribution   :     13.01765     -12.58722      -4.76124
                        -----------------------------------------
Total Dipole Moment    :      0.18256      -0.03888       0.15079
                        -----------------------------------------
Magnitude (a.u.)       :      0.23995
Magnitude (Debye)      :      0.60991

Rotational constants in cm-1:     0.020170     0.008094     0.006259
Rotational constants in MHz :   604.679391   242.645014   187.627303

                             ****ORCA TERMINATED NORMALLY****
TOTAL RUN TIME: 0 days 0 hours 0 minutes 33 seconds 377 msec
