                         Program Version 4.2.1 -  RELEASE  -
|  1> ! wB97X-D3 SP def2-SVP
|  2> %pal
|  3> nprocs 16
|  4> end
|  5>
|  6> * xyz 0 1
|  7> S 	 -32.8927 	 62.2883 	 106.322
|  8> C 	 -31.7346 	 62.4772 	 107.563
|  9> C 	 -30.4644 	 62.8378 	 107.084
| 10> C 	 -30.5549 	 63.088 	 105.673
| 11> C 	 -31.756 	 62.7277 	 105.079
| 12> H 	 -29.7357 	 63.4573 	 105.048
| 13> C 	 -29.2317 	 63.1186 	 107.927
| 14> H 	 -28.4311 	 62.5113 	 107.434
| 15> H 	 -29.3299 	 62.7456 	 108.976
| 16> C 	 -28.7217 	 64.578 	 108.037
| 17> H 	 -29.5729 	 65.0552 	 108.416
| 18> H 	 -27.9183 	 64.5131 	 108.766
| 19> C 	 -28.2386 	 65.3238 	 106.726
| 20> H 	 -29.0695 	 65.4429 	 106.054
| 21> H 	 -27.9267 	 66.339 	 107.081
| 22> H 	 -27.4059 	 64.7641 	 106.149
| 23> S 	 -33.8146 	 63.0065 	 103.139
| 24> C 	 -33.3962 	 62.9431 	 101.462
| 25> C 	 -32.0608 	 62.7743 	 101.334
| 26> C 	 -31.3379 	 62.6914 	 102.562
| 27> C 	 -32.1277 	 62.8346 	 103.68
| 28> H 	 -31.6538 	 62.5195 	 100.308
| 29> C 	 -29.8766 	 62.2961 	 102.445
| 30> H 	 -29.8334 	 61.5721 	 101.672
| 31> H 	 -29.7312 	 61.7689 	 103.36
| 32> C 	 -28.8753 	 63.4294 	 102.221
| 33> H 	 -29.0905 	 64.3056 	 102.88
| 34> H 	 -28.9555 	 63.8156 	 101.155
| 35> C 	 -27.415 	 63.0725 	 102.275
| 36> H 	 -26.8386 	 63.4879 	 101.409
| 37> H 	 -27.3512 	 62.028 	 102.364
| 38> H 	 -26.9352 	 63.4841 	 103.083
| 39> H 	 -31.9155 	 62.308 	 108.599
| 40> H 	 -34.1489 	 62.971 	 100.658
| 41> *
| 42>
| 43>                          ****END OF INPUT****

CARTESIAN COORDINATES (ANGSTROEM)
---------------------------------
  S    -32.892700   62.288300  106.322000
  C    -31.734600   62.477200  107.563000
  C    -30.464400   62.837800  107.084000
  C    -30.554900   63.088000  105.673000
  C    -31.756000   62.727700  105.079000
  H    -29.735700   63.457300  105.048000
  C    -29.231700   63.118600  107.927000
  H    -28.431100   62.511300  107.434000
  H    -29.329900   62.745600  108.976000
  C    -28.721700   64.578000  108.037000
  H    -29.572900   65.055200  108.416000
  H    -27.918300   64.513100  108.766000
  C    -28.238600   65.323800  106.726000
  H    -29.069500   65.442900  106.054000
  H    -27.926700   66.339000  107.081000
  H    -27.405900   64.764100  106.149000
  S    -33.814600   63.006500  103.139000
  C    -33.396200   62.943100  101.462000
  C    -32.060800   62.774300  101.334000
  C    -31.337900   62.691400  102.562000
  C    -32.127700   62.834600  103.680000
  H    -31.653800   62.519500  100.308000
  C    -29.876600   62.296100  102.445000
  H    -29.833400   61.572100  101.672000
  H    -29.731200   61.768900  103.360000
  C    -28.875300   63.429400  102.221000
  H    -29.090500   64.305600  102.880000
  H    -28.955500   63.815600  101.155000
  C    -27.415000   63.072500  102.275000
  H    -26.838600   63.487900  101.409000
  H    -27.351200   62.028000  102.364000
  H    -26.935200   63.484100  103.083000
  H    -31.915500   62.308000  108.599000
  H    -34.148900   62.971000  100.658000

 Total Charge           Charge          ....    0
 Multiplicity           Mult            ....    1
 Number of Electrons    NEL             ....  134
 Basis Dimension        Dim             ....  322

ORBITAL ENERGIES
----------------

  NO   OCC          E(Eh)            E(eV)
   0   2.0000     -88.967949     -2420.9410
   1   2.0000     -88.963208     -2420.8120
   2   2.0000     -10.330962      -281.1198
   3   2.0000     -10.330432      -281.1053
   4   2.0000     -10.316978      -280.7392
   5   2.0000     -10.312658      -280.6217
   6   2.0000     -10.304868      -280.4097
   7   2.0000     -10.300141      -280.2811
   8   2.0000     -10.299668      -280.2682
   9   2.0000     -10.296527      -280.1827
  10   2.0000     -10.292686      -280.0782
  11   2.0000     -10.292122      -280.0629
  12   2.0000     -10.290692      -280.0240
  13   2.0000     -10.288418      -279.9621
  14   2.0000     -10.286686      -279.9150
  15   2.0000     -10.268401      -279.4174
  16   2.0000      -8.083476      -219.9626
  17   2.0000      -8.078101      -219.8163
  18   2.0000      -6.041989      -164.4109
  19   2.0000      -6.037767      -164.2960
  20   2.0000      -6.036782      -164.2692
  21   2.0000      -6.034301      -164.2017
  22   2.0000      -6.032594      -164.1552
  23   2.0000      -6.028662      -164.0482
  24   2.0000      -1.010372       -27.4936
  25   2.0000      -0.989027       -26.9128
  26   2.0000      -0.913345       -24.8534
  27   2.0000      -0.908105       -24.7108
  28   2.0000      -0.872746       -23.7486
  29   2.0000      -0.856311       -23.3014
  30   2.0000      -0.843872       -22.9629
  31   2.0000      -0.815423       -22.1888
  32   2.0000      -0.786464       -21.4008
  33   2.0000      -0.776141       -21.1199
  34   2.0000      -0.705730       -19.2039
  35   2.0000      -0.700544       -19.0628
  36   2.0000      -0.695398       -18.9227
  37   2.0000      -0.662014       -18.0143
  38   2.0000      -0.638006       -17.3610
  39   2.0000      -0.618619       -16.8335
  40   2.0000      -0.596636       -16.2353
  41   2.0000      -0.572951       -15.5908
  42   2.0000      -0.567092       -15.4314
  43   2.0000      -0.546407       -14.8685
  44   2.0000      -0.537861       -14.6359
  45   2.0000      -0.532735       -14.4964
  46   2.0000      -0.520539       -14.1646
  47   2.0000      -0.514123       -13.9900
  48   2.0000      -0.508508       -13.8372
  49   2.0000      -0.503266       -13.6946
  50   2.0000      -0.493098       -13.4179
  51   2.0000      -0.480947       -13.0872
  52   2.0000      -0.478908       -13.0318
  53   2.0000      -0.467036       -12.7087
  54   2.0000      -0.462260       -12.5787
  55   2.0000      -0.448596       -12.2069
  56   2.0000      -0.439844       -11.9688
  57   2.0000      -0.434633       -11.8270
  58   2.0000      -0.430198       -11.7063
  59   2.0000      -0.427655       -11.6371
  60   2.0000      -0.423236       -11.5168
  61   2.0000      -0.413477       -11.2513
  62   2.0000      -0.407445       -11.0871
  63   2.0000      -0.362529        -9.8649
  64   2.0000      -0.332387        -9.0447
  65   2.0000      -0.328481        -8.9384
  66   2.0000      -0.285519        -7.7694
  67   0.0000       0.023789         0.6473
  68   0.0000       0.085976         2.3395
  69   0.0000       0.107007         2.9118
  70   0.0000       0.121535         3.3071
  71   0.0000       0.121894         3.3169

MULLIKEN ATOMIC CHARGES
-----------------------
   0 S :    0.120308
   1 C :   -0.106018
   2 C :   -0.084387
   3 C :   -0.007766
   4 C :   -0.142965
   5 H :    0.002933
   6 C :    0.024595
   7 H :    0.033590
   8 H :    0.031370
   9 C :   -0.046131
  10 H :    0.022789
  11 H :    0.035532
  12 C :   -0.093960
  13 H :    0.044776
  14 H :    0.049442
  15 H :    0.049476
  16 S :    0.088027
  17 C :   -0.100715
  18 C :   -0.036804
  19 C :   -0.085322
  20 C :   -0.107000
  21 H :    0.038321
  22 C :    0.104242
  23 H :    0.013707
  24 H :    0.016921
  25 C :   -0.121814
  26 H :    0.041418
  27 H :    0.032848
  28 C :    0.014495
  29 H :    0.037072
  30 H :    0.017643
  31 H :    0.007082
  32 H :    0.036847
  33 H :    0.069449
Sum of atomic charges:    0.0000000

LOEWDIN ATOMIC CHARGES
----------------------
   0 S :    0.428707
   1 C :   -0.205298
   2 C :   -0.065028
   3 C :   -0.067337
   4 C :   -0.194270
   5 H :    0.029961
   6 C :   -0.039626
   7 H :    0.033030
   8 H :    0.035449
   9 C :   -0.032511
  10 H :    0.019061
  11 H :    0.025557
  12 C :   -0.074544
  13 H :    0.021141
  14 H :    0.034960
  15 H :    0.032919
  16 S :    0.389968
  17 C :   -0.188362
  18 C :   -0.083355
  19 C :   -0.055406
  20 C :   -0.189415
  21 H :    0.041443
  22 C :   -0.027871
  23 H :    0.026904
  24 H :    0.025237
  25 C :   -0.050117
  26 H :    0.025648
  27 H :    0.033184
  28 C :   -0.060230
  29 H :    0.034958
  30 H :    0.020900
  31 H :    0.013787
  32 H :    0.022776
  33 H :    0.037780

  Mayer bond orders larger than 0.100000
B(  0-S ,  1-C ) :   1.1610 B(  0-S ,  4-C ) :   1.1469 B(  1-C ,  2-C ) :   1.5785
B(  1-C , 32-H ) :   0.9695 B(  2-C ,  3-C ) :   1.2566 B(  2-C ,  6-C ) :   1.0337
B(  3-C ,  4-C ) :   1.5517 B(  3-C ,  5-H ) :   0.9822 B(  4-C , 20-C ) :   1.0884
B(  6-C ,  7-H ) :   0.9333 B(  6-C ,  8-H ) :   0.9441 B(  6-C ,  9-C ) :   1.0629
B(  9-C , 10-H ) :   0.9542 B(  9-C , 11-H ) :   0.9574 B(  9-C , 12-C ) :   1.0748
B( 12-C , 13-H ) :   0.9698 B( 12-C , 14-H ) :   0.9714 B( 12-C , 15-H ) :   0.9749
B( 16-S , 17-C ) :   1.1522 B( 16-S , 20-C ) :   1.1137 B( 17-C , 18-C ) :   1.6174
B( 17-C , 33-H ) :   0.9642 B( 18-C , 19-C ) :   1.2475 B( 18-C , 21-H ) :   0.9796
B( 19-C , 20-C ) :   1.6002 B( 19-C , 22-C ) :   1.0322 B( 22-C , 23-H ) :   0.9268
B( 22-C , 24-H ) :   0.9275 B( 22-C , 25-C ) :   1.0734 B( 25-C , 26-H ) :   0.9587
B( 25-C , 27-H ) :   0.9580 B( 25-C , 28-C ) :   1.0681 B( 28-C , 29-H ) :   0.9786
B( 28-C , 30-H ) :   0.9723 B( 28-C , 31-H ) :   0.9710

Dispersion correction           -0.014716670
FINAL SINGLE POINT ENERGY     -1339.877056130276

DIPOLE MOMENT
-------------
                                X             Y             Z
Electronic contribution:    -30.98284      -7.65580      -0.30087
Nuclear contribution   :     31.64245       7.68160       0.23079
                        -----------------------------------------
Total Dipole Moment    :      0.65960       0.02580      -0.07008
                        -----------------------------------------
Magnitude (a.u.)       :      0.66382
Magnitude (Debye)      :      1.68729

Rotational constants in cm-1:     0.016426     0.010481     0.006963
Rotational constants in MHz :   492.433995   314.202187   208.736724

                             ****ORCA TERMINATED NORMALLY****
TOTAL RUN TIME: 0 days 0 hours 0 minutes 31 seconds 256 msec
