                         Program Version 4.2.1 -  RELEASE  -
|  1> ! wB97X-D3 SP def2-SVP
|  2> %pal
|  3> nprocs 16
|  4> end
|  5>
|  6> * xyz 0 1
|  7> S 	 23.8527 	 6.80135 	 70.9504
|  8> C 	 25.2042 	 6.85537 	 69.8198
|  9> C 	 25.0512 	 7.73233 	 68.7374
| 10> C 	 23.7663 	 8.23606 	 68.7927
| 11> C 	 23.0069 	 7.9727 	 69.9288
| 12> H 	 23.3599 	 8.80568 	 68.01
| 13> C 	 26.0592 	 8.00899 	 67.6803
| 14> H 	 26.171 	 7.00941 	 67.1122
| 15> H 	 27.0127 	 8.1229 	 68.1548
| 16> C 	 25.7554 	 9.21477 	 66.7999
| 17> H 	 24.7998 	 9.0068 	 66.2557
| 18> H 	 25.574 	 10.1776 	 67.3396
| 19> C 	 26.8735 	 9.48274 	 65.7927
| 20> H 	 27.0982 	 8.72612 	 65.0529
| 21> H 	 26.6122 	 10.3645 	 65.2081
| 22> H 	 27.7831 	 9.72231 	 66.329
| 23> S 	 20.5174 	 7.0033 	 70.6965
| 24> C 	 19.1504 	 7.97958 	 70.3367
| 25> C 	 19.4488 	 9.21098 	 69.8874
| 26> C 	 20.8654 	 9.46796 	 69.9083
| 27> C 	 21.5917 	 8.29689 	 70.1634
| 28> H 	 18.719 	 9.99434 	 69.6668
| 29> C 	 21.3742 	 10.7837 	 69.3658
| 30> H 	 20.8503 	 10.9974 	 68.3948
| 31> H 	 22.4556 	 10.5581 	 69.0781
| 32> C 	 21.439 	 11.9636 	 70.3573
| 33> H 	 21.8843 	 11.6224 	 71.2173
| 34> H 	 20.4379 	 12.2927 	 70.5514
| 35> C 	 22.1089 	 13.2437 	 69.8555
| 36> H 	 23.0556 	 13.0821 	 69.2234
| 37> H 	 22.225 	 13.875 	 70.7532
| 38> H 	 21.514 	 13.794 	 69.1159
| 39> H 	 26.1439 	 6.29699 	 69.9953
| 40> H 	 18.0835 	 7.7052 	 70.4157
| 41> *
| 42>
| 43>                          ****END OF INPUT****

CARTESIAN COORDINATES (ANGSTROEM)
---------------------------------
  S     23.852700    6.801350   70.950400
  C     25.204200    6.855370   69.819800
  C     25.051200    7.732330   68.737400
  C     23.766300    8.236060   68.792700
  C     23.006900    7.972700   69.928800
  H     23.359900    8.805680   68.010000
  C     26.059200    8.008990   67.680300
  H     26.171000    7.009410   67.112200
  H     27.012700    8.122900   68.154800
  C     25.755400    9.214770   66.799900
  H     24.799800    9.006800   66.255700
  H     25.574000   10.177600   67.339600
  C     26.873500    9.482740   65.792700
  H     27.098200    8.726120   65.052900
  H     26.612200   10.364500   65.208100
  H     27.783100    9.722310   66.329000
  S     20.517400    7.003300   70.696500
  C     19.150400    7.979580   70.336700
  C     19.448800    9.210980   69.887400
  C     20.865400    9.467960   69.908300
  C     21.591700    8.296890   70.163400
  H     18.719000    9.994340   69.666800
  C     21.374200   10.783700   69.365800
  H     20.850300   10.997400   68.394800
  H     22.455600   10.558100   69.078100
  C     21.439000   11.963600   70.357300
  H     21.884300   11.622400   71.217300
  H     20.437900   12.292700   70.551400
  C     22.108900   13.243700   69.855500
  H     23.055600   13.082100   69.223400
  H     22.225000   13.875000   70.753200
  H     21.514000   13.794000   69.115900
  H     26.143900    6.296990   69.995300
  H     18.083500    7.705200   70.415700

 Total Charge           Charge          ....    0
 Multiplicity           Mult            ....    1
 Number of Electrons    NEL             ....  134
 Basis Dimension        Dim             ....  322

ORBITAL ENERGIES
----------------

  NO   OCC          E(Eh)            E(eV)
   0   2.0000     -88.969171     -2420.9742
   1   2.0000     -88.965296     -2420.8688
   2   2.0000     -10.329485      -281.0796
   3   2.0000     -10.328342      -281.0485
   4   2.0000     -10.315088      -280.6878
   5   2.0000     -10.311307      -280.5849
   6   2.0000     -10.300735      -280.2973
   7   2.0000     -10.298656      -280.2407
   8   2.0000     -10.297772      -280.2166
   9   2.0000     -10.296761      -280.1891
  10   2.0000     -10.295203      -280.1467
  11   2.0000     -10.287090      -279.9260
  12   2.0000     -10.285954      -279.8950
  13   2.0000     -10.284539      -279.8565
  14   2.0000     -10.278948      -279.7044
  15   2.0000     -10.277789      -279.6729
  16   2.0000      -8.083127      -219.9531
  17   2.0000      -8.080470      -219.8808
  18   2.0000      -6.041503      -164.3976
  19   2.0000      -6.039073      -164.3315
  20   2.0000      -6.037814      -164.2973
  21   2.0000      -6.035020      -164.2213
  22   2.0000      -6.034037      -164.1945
  23   2.0000      -6.030992      -164.1116
  24   2.0000      -1.005610       -27.3640
  25   2.0000      -0.985344       -26.8126
  26   2.0000      -0.917175       -24.9576
  27   2.0000      -0.906598       -24.6698
  28   2.0000      -0.868683       -23.6381
  29   2.0000      -0.854206       -23.2441
  30   2.0000      -0.848015       -23.0757
  31   2.0000      -0.814516       -22.1641
  32   2.0000      -0.783319       -21.3152
  33   2.0000      -0.767270       -20.8785
  34   2.0000      -0.713811       -19.4238
  35   2.0000      -0.696851       -18.9623
  36   2.0000      -0.686083       -18.6693
  37   2.0000      -0.656115       -17.8538
  38   2.0000      -0.638238       -17.3673
  39   2.0000      -0.626120       -17.0376
  40   2.0000      -0.591855       -16.1052
  41   2.0000      -0.570458       -15.5230
  42   2.0000      -0.566742       -15.4218
  43   2.0000      -0.562097       -15.2954
  44   2.0000      -0.529208       -14.4005
  45   2.0000      -0.527543       -14.3552
  46   2.0000      -0.514900       -14.0111
  47   2.0000      -0.506172       -13.7736
  48   2.0000      -0.497765       -13.5449
  49   2.0000      -0.496326       -13.5057
  50   2.0000      -0.491920       -13.3858
  51   2.0000      -0.482440       -13.1279
  52   2.0000      -0.470961       -12.8155
  53   2.0000      -0.460875       -12.5410
  54   2.0000      -0.456146       -12.4124
  55   2.0000      -0.454292       -12.3619
  56   2.0000      -0.444024       -12.0825
  57   2.0000      -0.439378       -11.9561
  58   2.0000      -0.434921       -11.8348
  59   2.0000      -0.429939       -11.6992
  60   2.0000      -0.423688       -11.5291
  61   2.0000      -0.420727       -11.4486
  62   2.0000      -0.406546       -11.0627
  63   2.0000      -0.348867        -9.4931
  64   2.0000      -0.334741        -9.1088
  65   2.0000      -0.328818        -8.9476
  66   2.0000      -0.281082        -7.6486
  67   0.0000       0.025595         0.6965
  68   0.0000       0.075135         2.0445
  69   0.0000       0.102095         2.7782
  70   0.0000       0.119991         3.2651
  71   0.0000       0.134611         3.6629

MULLIKEN ATOMIC CHARGES
-----------------------
   0 S :    0.110133
   1 C :   -0.146376
   2 C :   -0.075186
   3 C :    0.020848
   4 C :   -0.139731
   5 H :   -0.007138
   6 C :    0.077776
   7 H :    0.056861
   8 H :    0.020309
   9 C :   -0.131703
  10 H :    0.043832
  11 H :    0.047800
  12 C :   -0.020671
  13 H :    0.032339
  14 H :    0.028001
  15 H :    0.026983
  16 S :    0.110503
  17 C :   -0.076259
  18 C :   -0.039013
  19 C :   -0.051300
  20 C :   -0.139460
  21 H :    0.024007
  22 C :   -0.007452
  23 H :    0.039613
  24 H :    0.019563
  25 C :   -0.000678
  26 H :    0.018427
  27 H :    0.016317
  28 C :   -0.074662
  29 H :    0.034434
  30 H :    0.048109
  31 H :    0.024880
  32 H :    0.049450
  33 H :    0.059445
Sum of atomic charges:    0.0000000

LOEWDIN ATOMIC CHARGES
----------------------
   0 S :    0.396326
   1 C :   -0.196242
   2 C :   -0.066204
   3 C :   -0.058050
   4 C :   -0.189505
   5 H :    0.019995
   6 C :   -0.037235
   7 H :    0.050851
   8 H :    0.029228
   9 C :   -0.047581
  10 H :    0.028090
  11 H :    0.034045
  12 C :   -0.063913
  13 H :    0.024086
  14 H :    0.027980
  15 H :    0.024075
  16 S :    0.406755
  17 C :   -0.196905
  18 C :   -0.076152
  19 C :   -0.058854
  20 C :   -0.194466
  21 H :    0.034007
  22 C :   -0.042960
  23 H :    0.034017
  24 H :    0.032711
  25 C :   -0.031317
  26 H :    0.017075
  27 H :    0.022402
  28 C :   -0.072407
  29 H :    0.029512
  30 H :    0.033434
  31 H :    0.022210
  32 H :    0.027420
  33 H :    0.037572

  Mayer bond orders larger than 0.100000
B(  0-S ,  1-C ) :   1.1573 B(  0-S ,  4-C ) :   1.1457 B(  1-C ,  2-C ) :   1.5756
B(  1-C ,  4-C ) :   0.1103 B(  1-C , 32-H ) :   0.9635 B(  2-C ,  3-C ) :   1.3051
B(  2-C ,  6-C ) :   1.0053 B(  3-C ,  4-C ) :   1.5376 B(  3-C ,  5-H ) :   0.9811
B(  4-C , 20-C ) :   1.0466 B(  6-C ,  7-H ) :   0.9282 B(  6-C ,  8-H ) :   0.9343
B(  6-C ,  9-C ) :   1.0803 B(  9-C , 10-H ) :   0.9416 B(  9-C , 11-H ) :   0.9559
B(  9-C , 12-C ) :   1.0917 B( 12-C , 13-H ) :   0.9748 B( 12-C , 14-H ) :   0.9716
B( 12-C , 15-H ) :   0.9725 B( 16-S , 17-C ) :   1.1431 B( 16-S , 20-C ) :   1.1287
B( 17-C , 18-C ) :   1.6405 B( 17-C , 33-H ) :   0.9585 B( 18-C , 19-C ) :   1.2308
B( 18-C , 21-H ) :   0.9852 B( 19-C , 20-C ) :   1.5986 B( 19-C , 22-C ) :   1.0475
B( 22-C , 23-H ) :   0.9431 B( 22-C , 24-H ) :   0.9295 B( 22-C , 25-C ) :   1.0632
B( 25-C , 26-H ) :   0.9550 B( 25-C , 27-H ) :   0.9515 B( 25-C , 28-C ) :   1.0826
B( 28-C , 29-H ) :   0.9733 B( 28-C , 30-H ) :   0.9744 B( 28-C , 31-H ) :   0.9749

Dispersion correction           -0.013474418
FINAL SINGLE POINT ENERGY     -1339.875393828149

DIPOLE MOMENT
-------------
                                X             Y             Z
Electronic contribution:    -12.14826     -24.24778      17.34736
Nuclear contribution   :     12.31790      24.72590     -17.92803
                        -----------------------------------------
Total Dipole Moment    :      0.16964       0.47812      -0.58067
                        -----------------------------------------
Magnitude (a.u.)       :      0.77107
Magnitude (Debye)      :      1.95991

Rotational constants in cm-1:     0.015594     0.009219     0.006592
Rotational constants in MHz :   467.491508   276.391126   197.636511

                             ****ORCA TERMINATED NORMALLY****
TOTAL RUN TIME: 0 days 0 hours 0 minutes 29 seconds 787 msec
