                         Program Version 4.2.1 -  RELEASE  -
|  1> ! wB97X-D3 SP def2-SVP
|  2> %pal
|  3> nprocs 16
|  4> end
|  5>
|  6> * xyz 0 1
|  7> S 	 30.3046 	 26.8332 	 52.8462
|  8> C 	 31.2457 	 27.4455 	 51.4786
|  9> C 	 32.1065 	 28.4483 	 51.916
| 10> C 	 32.0309 	 28.6732 	 53.3139
| 11> C 	 31.1436 	 27.9127 	 53.9074
| 12> H 	 32.5589 	 29.4004 	 53.9565
| 13> C 	 33.0855 	 29.1988 	 50.9759
| 14> H 	 32.636 	 28.9168 	 50.0279
| 15> H 	 34.057 	 28.7792 	 51.0818
| 16> C 	 33.1536 	 30.7477 	 51.1004
| 17> H 	 32.1667 	 31.1366 	 51.3705
| 18> H 	 33.7093 	 31.064 	 52.0143
| 19> C 	 33.6599 	 31.5716 	 49.9082
| 20> H 	 33.4965 	 32.6214 	 50.1299
| 21> H 	 34.7134 	 31.2275 	 49.8303
| 22> H 	 33.1688 	 31.3508 	 48.9596
| 23> S 	 30.9479 	 26.4083 	 56.2216
| 24> C 	 30.3748 	 27.1246 	 57.6876
| 25> C 	 30.2828 	 28.479 	 57.5733
| 26> C 	 30.5072 	 28.9467 	 56.2913
| 27> C 	 30.8368 	 27.9292 	 55.3606
| 28> H 	 29.93 	 28.959 	 58.4499
| 29> C 	 30.1859 	 30.3979 	 56.0157
| 30> H 	 30.8493 	 30.7087 	 55.1846
| 31> H 	 30.3753 	 31.0302 	 56.9171
| 32> C 	 28.6924 	 30.6265 	 55.6171
| 33> H 	 27.9596 	 30.35 	 56.4358
| 34> H 	 28.5497 	 29.9845 	 54.7556
| 35> C 	 28.3081 	 32.1288 	 55.251
| 36> H 	 29.0302 	 32.7003 	 54.7229
| 37> H 	 28.2124 	 32.5961 	 56.158
| 38> H 	 27.3733 	 32.3383 	 54.7596
| 39> H 	 31.2131 	 27.1585 	 50.4116
| 40> H 	 30.2625 	 26.5248 	 58.635
| 41> *
| 42>
| 43>                          ****END OF INPUT****

CARTESIAN COORDINATES (ANGSTROEM)
---------------------------------
  S     30.304600   26.833200   52.846200
  C     31.245700   27.445500   51.478600
  C     32.106500   28.448300   51.916000
  C     32.030900   28.673200   53.313900
  C     31.143600   27.912700   53.907400
  H     32.558900   29.400400   53.956500
  C     33.085500   29.198800   50.975900
  H     32.636000   28.916800   50.027900
  H     34.057000   28.779200   51.081800
  C     33.153600   30.747700   51.100400
  H     32.166700   31.136600   51.370500
  H     33.709300   31.064000   52.014300
  C     33.659900   31.571600   49.908200
  H     33.496500   32.621400   50.129900
  H     34.713400   31.227500   49.830300
  H     33.168800   31.350800   48.959600
  S     30.947900   26.408300   56.221600
  C     30.374800   27.124600   57.687600
  C     30.282800   28.479000   57.573300
  C     30.507200   28.946700   56.291300
  C     30.836800   27.929200   55.360600
  H     29.930000   28.959000   58.449900
  C     30.185900   30.397900   56.015700
  H     30.849300   30.708700   55.184600
  H     30.375300   31.030200   56.917100
  C     28.692400   30.626500   55.617100
  H     27.959600   30.350000   56.435800
  H     28.549700   29.984500   54.755600
  C     28.308100   32.128800   55.251000
  H     29.030200   32.700300   54.722900
  H     28.212400   32.596100   56.158000
  H     27.373300   32.338300   54.759600
  H     31.213100   27.158500   50.411600
  H     30.262500   26.524800   58.635000

 Total Charge           Charge          ....    0
 Multiplicity           Mult            ....    1
 Number of Electrons    NEL             ....  134
 Basis Dimension        Dim             ....  322

ORBITAL ENERGIES
----------------

  NO   OCC          E(Eh)            E(eV)
   0   2.0000     -88.967921     -2420.9402
   1   2.0000     -88.964391     -2420.8442
   2   2.0000     -10.330123      -281.0970
   3   2.0000     -10.323386      -280.9136
   4   2.0000     -10.318125      -280.7705
   5   2.0000     -10.315596      -280.7016
   6   2.0000     -10.303473      -280.3718
   7   2.0000     -10.303237      -280.3653
   8   2.0000     -10.296942      -280.1940
   9   2.0000     -10.293776      -280.1079
  10   2.0000     -10.293135      -280.0905
  11   2.0000     -10.290089      -280.0076
  12   2.0000     -10.286814      -279.9184
  13   2.0000     -10.284285      -279.8496
  14   2.0000     -10.282943      -279.8131
  15   2.0000     -10.267027      -279.3800
  16   2.0000      -8.082576      -219.9381
  17   2.0000      -8.079584      -219.8567
  18   2.0000      -6.041212      -164.3897
  19   2.0000      -6.037862      -164.2986
  20   2.0000      -6.037119      -164.2783
  21   2.0000      -6.033924      -164.1914
  22   2.0000      -6.033171      -164.1709
  23   2.0000      -6.030667      -164.1028
  24   2.0000      -1.012581       -27.5537
  25   2.0000      -0.990959       -26.9654
  26   2.0000      -0.906593       -24.6696
  27   2.0000      -0.901152       -24.5216
  28   2.0000      -0.870255       -23.6808
  29   2.0000      -0.851865       -23.1804
  30   2.0000      -0.847255       -23.0550
  31   2.0000      -0.820932       -22.3387
  32   2.0000      -0.783816       -21.3287
  33   2.0000      -0.771071       -20.9819
  34   2.0000      -0.709130       -19.2964
  35   2.0000      -0.695804       -18.9338
  36   2.0000      -0.687807       -18.7162
  37   2.0000      -0.659455       -17.9447
  38   2.0000      -0.642704       -17.4889
  39   2.0000      -0.619761       -16.8645
  40   2.0000      -0.592362       -16.1190
  41   2.0000      -0.574964       -15.6456
  42   2.0000      -0.563738       -15.3401
  43   2.0000      -0.554836       -15.0979
  44   2.0000      -0.533589       -14.5197
  45   2.0000      -0.517620       -14.0851
  46   2.0000      -0.513705       -13.9786
  47   2.0000      -0.510456       -13.8902
  48   2.0000      -0.502142       -13.6640
  49   2.0000      -0.500117       -13.6089
  50   2.0000      -0.491299       -13.3689
  51   2.0000      -0.482329       -13.1248
  52   2.0000      -0.472378       -12.8541
  53   2.0000      -0.470395       -12.8001
  54   2.0000      -0.461327       -12.5534
  55   2.0000      -0.448782       -12.2120
  56   2.0000      -0.443263       -12.0618
  57   2.0000      -0.435185       -11.8420
  58   2.0000      -0.430990       -11.7278
  59   2.0000      -0.425078       -11.5670
  60   2.0000      -0.419724       -11.4213
  61   2.0000      -0.415780       -11.3139
  62   2.0000      -0.408957       -11.1283
  63   2.0000      -0.348637        -9.4869
  64   2.0000      -0.333434        -9.0732
  65   2.0000      -0.332895        -9.0585
  66   2.0000      -0.296138        -8.0583
  67   0.0000       0.033992         0.9250
  68   0.0000       0.072394         1.9699
  69   0.0000       0.116144         3.1605
  70   0.0000       0.121666         3.3107
  71   0.0000       0.134989         3.6732

MULLIKEN ATOMIC CHARGES
-----------------------
   0 S :    0.119123
   1 C :   -0.135340
   2 C :   -0.118165
   3 C :    0.023422
   4 C :   -0.136208
   5 H :    0.025700
   6 C :    0.125454
   7 H :    0.005993
   8 H :    0.041182
   9 C :   -0.121989
  10 H :    0.019008
  11 H :    0.030651
  12 C :   -0.044147
  13 H :    0.045260
  14 H :    0.038914
  15 H :    0.033605
  16 S :    0.107795
  17 C :   -0.122493
  18 C :   -0.034089
  19 C :   -0.001180
  20 C :   -0.180307
  21 H :    0.008132
  22 C :    0.056596
  23 H :    0.021507
  24 H :    0.028982
  25 C :   -0.091310
  26 H :    0.041891
  27 H :    0.036825
  28 C :   -0.008588
  29 H :    0.016248
  30 H :    0.003038
  31 H :    0.030770
  32 H :    0.057563
  33 H :    0.076156
Sum of atomic charges:    0.0000000

LOEWDIN ATOMIC CHARGES
----------------------
   0 S :    0.404865
   1 C :   -0.203430
   2 C :   -0.056788
   3 C :   -0.072966
   4 C :   -0.196879
   5 H :    0.041181
   6 C :   -0.024785
   7 H :    0.028202
   8 H :    0.028688
   9 C :   -0.052542
  10 H :    0.019666
  11 H :    0.025491
  12 C :   -0.063394
  13 H :    0.030776
  14 H :    0.030483
  15 H :    0.023662
  16 S :    0.418067
  17 C :   -0.195348
  18 C :   -0.075676
  19 C :   -0.060385
  20 C :   -0.200005
  21 H :    0.030583
  22 C :   -0.033019
  23 H :    0.029589
  24 H :    0.032095
  25 C :   -0.033620
  26 H :    0.031121
  27 H :    0.022055
  28 C :   -0.065966
  29 H :    0.019224
  30 H :    0.013595
  31 H :    0.028233
  32 H :    0.037031
  33 H :    0.040198

  Mayer bond orders larger than 0.100000
B(  0-S ,  1-C ) :   1.1190 B(  0-S ,  4-C ) :   1.1427 B(  1-C ,  2-C ) :   1.6496
B(  1-C , 32-H ) :   0.9611 B(  2-C ,  3-C ) :   1.1970 B(  2-C ,  6-C ) :   1.0116
B(  3-C ,  4-C ) :   1.6454 B(  3-C ,  5-H ) :   0.9896 B(  4-C , 20-C ) :   0.9955
B(  6-C ,  7-H ) :   0.9385 B(  6-C ,  8-H ) :   0.9383 B(  6-C ,  9-C ) :   1.0540
B(  9-C , 10-H ) :   0.9611 B(  9-C , 11-H ) :   0.9500 B(  9-C , 12-C ) :   1.0864
B( 12-C , 13-H ) :   0.9738 B( 12-C , 14-H ) :   0.9769 B( 12-C , 15-H ) :   0.9765
B( 16-S , 17-C ) :   1.1730 B( 16-S , 20-C ) :   1.1724 B( 17-C , 18-C ) :   1.5867
B( 17-C , 20-C ) :   0.1105 B( 17-C , 33-H ) :   0.9584 B( 18-C , 19-C ) :   1.2611
B( 18-C , 21-H ) :   1.0021 B( 19-C , 20-C ) :   1.5493 B( 19-C , 22-C ) :   1.0561
B( 22-C , 23-H ) :   0.9273 B( 22-C , 24-H ) :   0.9369 B( 22-C , 25-C ) :   1.0602
B( 25-C , 26-H ) :   0.9618 B( 25-C , 27-H ) :   0.9608 B( 25-C , 28-C ) :   1.0607
B( 28-C , 29-H ) :   0.9775 B( 28-C , 30-H ) :   0.9748 B( 28-C , 31-H ) :   0.9767

Dispersion correction           -0.013804346
FINAL SINGLE POINT ENERGY     -1339.868824559500

DIPOLE MOMENT
-------------
                                X             Y             Z
Electronic contribution:     -2.19872     -28.49081       9.81196
Nuclear contribution   :      2.29854      29.08758      -9.78881
                        -----------------------------------------
Total Dipole Moment    :      0.09982       0.59677       0.02315
                        -----------------------------------------
Magnitude (a.u.)       :      0.60551
Magnitude (Debye)      :      1.53908

Rotational constants in cm-1:     0.017110     0.008580     0.006659
Rotational constants in MHz :   512.951625   257.214781   199.620320

                             ****ORCA TERMINATED NORMALLY****
TOTAL RUN TIME: 0 days 0 hours 0 minutes 32 seconds 597 msec
