                         Program Version 4.2.1 -  RELEASE  -
|  1> ! wB97X-D3 SP def2-SVP
|  2> %pal
|  3> nprocs 16
|  4> end
|  5>
|  6> * xyz 0 1
|  7> S 	 -93.6462 	 50.1562 	 125.741
|  8> C 	 -95.1766 	 49.3966 	 126.026
|  9> C 	 -96.0455 	 49.6092 	 124.934
| 10> C 	 -95.386 	 50.2634 	 123.833
| 11> C 	 -94.0122 	 50.5224 	 124.114
| 12> H 	 -95.8343 	 50.513 	 122.923
| 13> C 	 -97.4765 	 49.1957 	 124.728
| 14> H 	 -98.1214 	 49.9839 	 125.142
| 15> H 	 -97.6012 	 48.3022 	 125.399
| 16> C 	 -98.0001 	 48.8359 	 123.333
| 17> H 	 -99.0639 	 48.6879 	 123.461
| 18> H 	 -97.8627 	 49.68 	 122.645
| 19> C 	 -97.446 	 47.6048 	 122.679
| 20> H 	 -96.3872 	 47.7732 	 122.327
| 21> H 	 -97.3296 	 46.7963 	 123.443
| 22> H 	 -97.9193 	 47.1356 	 121.803
| 23> S 	 -92.8602 	 52.5988 	 122.647
| 24> C 	 -91.6637 	 52.1791 	 121.465
| 25> C 	 -91.3218 	 50.7847 	 121.463
| 26> C 	 -92.1988 	 50.047 	 122.284
| 27> C 	 -92.9905 	 50.8945 	 123.132
| 28> H 	 -90.5554 	 50.3467 	 120.822
| 29> C 	 -92.0604 	 48.5473 	 122.352
| 30> H 	 -92.979 	 48.1166 	 122.887
| 31> H 	 -91.1271 	 48.4728 	 122.854
| 32> C 	 -92.0022 	 47.8171 	 121.051
| 33> H 	 -91.9114 	 46.7669 	 121.322
| 34> H 	 -91.0181 	 48.0365 	 120.545
| 35> C 	 -93.167 	 47.9488 	 120.095
| 36> H 	 -92.8673 	 47.741 	 119.101
| 37> H 	 -93.4377 	 48.961 	 120.007
| 38> H 	 -94.0532 	 47.3245 	 120.27
| 39> H 	 -95.4241 	 49.0512 	 127.002
| 40> H 	 -91.0958 	 52.9735 	 121.039
| 41> *
| 42>
| 43>                          ****END OF INPUT****

CARTESIAN COORDINATES (ANGSTROEM)
---------------------------------
  S    -93.646200   50.156200  125.741000
  C    -95.176600   49.396600  126.026000
  C    -96.045500   49.609200  124.934000
  C    -95.386000   50.263400  123.833000
  C    -94.012200   50.522400  124.114000
  H    -95.834300   50.513000  122.923000
  C    -97.476500   49.195700  124.728000
  H    -98.121400   49.983900  125.142000
  H    -97.601200   48.302200  125.399000
  C    -98.000100   48.835900  123.333000
  H    -99.063900   48.687900  123.461000
  H    -97.862700   49.680000  122.645000
  C    -97.446000   47.604800  122.679000
  H    -96.387200   47.773200  122.327000
  H    -97.329600   46.796300  123.443000
  H    -97.919300   47.135600  121.803000
  S    -92.860200   52.598800  122.647000
  C    -91.663700   52.179100  121.465000
  C    -91.321800   50.784700  121.463000
  C    -92.198800   50.047000  122.284000
  C    -92.990500   50.894500  123.132000
  H    -90.555400   50.346700  120.822000
  C    -92.060400   48.547300  122.352000
  H    -92.979000   48.116600  122.887000
  H    -91.127100   48.472800  122.854000
  C    -92.002200   47.817100  121.051000
  H    -91.911400   46.766900  121.322000
  H    -91.018100   48.036500  120.545000
  C    -93.167000   47.948800  120.095000
  H    -92.867300   47.741000  119.101000
  H    -93.437700   48.961000  120.007000
  H    -94.053200   47.324500  120.270000
  H    -95.424100   49.051200  127.002000
  H    -91.095800   52.973500  121.039000

 Total Charge           Charge          ....    0
 Multiplicity           Mult            ....    1
 Number of Electrons    NEL             ....  134
 Basis Dimension        Dim             ....  322

ORBITAL ENERGIES
----------------

  NO   OCC          E(Eh)            E(eV)
   0   2.0000     -88.967814     -2420.9373
   1   2.0000     -88.965484     -2420.8739
   2   2.0000     -10.326879      -281.0087
   3   2.0000     -10.325607      -280.9740
   4   2.0000     -10.319101      -280.7970
   5   2.0000     -10.313276      -280.6385
   6   2.0000     -10.304485      -280.3993
   7   2.0000     -10.304037      -280.3871
   8   2.0000     -10.298115      -280.2260
   9   2.0000     -10.296715      -280.1879
  10   2.0000     -10.290845      -280.0281
  11   2.0000     -10.289027      -279.9787
  12   2.0000     -10.288738      -279.9708
  13   2.0000     -10.285529      -279.8835
  14   2.0000     -10.281610      -279.7768
  15   2.0000     -10.267386      -279.3898
  16   2.0000      -8.082176      -219.9272
  17   2.0000      -8.081003      -219.8953
  18   2.0000      -6.040371      -164.3668
  19   2.0000      -6.039249      -164.3363
  20   2.0000      -6.036715      -164.2674
  21   2.0000      -6.035207      -164.2263
  22   2.0000      -6.033332      -164.1753
  23   2.0000      -6.032200      -164.1445
  24   2.0000      -1.000648       -27.2290
  25   2.0000      -0.979165       -26.6444
  26   2.0000      -0.916349       -24.9351
  27   2.0000      -0.913974       -24.8705
  28   2.0000      -0.862023       -23.4568
  29   2.0000      -0.851944       -23.1826
  30   2.0000      -0.846219       -23.0268
  31   2.0000      -0.805504       -21.9189
  32   2.0000      -0.788235       -21.4490
  33   2.0000      -0.772658       -21.0251
  34   2.0000      -0.707416       -19.2498
  35   2.0000      -0.699022       -19.0214
  36   2.0000      -0.686735       -18.6870
  37   2.0000      -0.655755       -17.8440
  38   2.0000      -0.642754       -17.4902
  39   2.0000      -0.616457       -16.7747
  40   2.0000      -0.593499       -16.1499
  41   2.0000      -0.565133       -15.3780
  42   2.0000      -0.560671       -15.2566
  43   2.0000      -0.556244       -15.1362
  44   2.0000      -0.543953       -14.8017
  45   2.0000      -0.535748       -14.5785
  46   2.0000      -0.517029       -14.0691
  47   2.0000      -0.514275       -13.9941
  48   2.0000      -0.496923       -13.5220
  49   2.0000      -0.494764       -13.4632
  50   2.0000      -0.491369       -13.3708
  51   2.0000      -0.478803       -13.0289
  52   2.0000      -0.469067       -12.7640
  53   2.0000      -0.464378       -12.6364
  54   2.0000      -0.452570       -12.3150
  55   2.0000      -0.449619       -12.2347
  56   2.0000      -0.445210       -12.1148
  57   2.0000      -0.442356       -12.0371
  58   2.0000      -0.439463       -11.9584
  59   2.0000      -0.419352       -11.4111
  60   2.0000      -0.417529       -11.3615
  61   2.0000      -0.412480       -11.2242
  62   2.0000      -0.406379       -11.0581
  63   2.0000      -0.333759        -9.0820
  64   2.0000      -0.327244        -8.9048
  65   2.0000      -0.313458        -8.5296
  66   2.0000      -0.301511        -8.2045
  67   0.0000       0.040556         1.1036
  68   0.0000       0.048815         1.3283
  69   0.0000       0.111957         3.0465
  70   0.0000       0.119949         3.2640
  71   0.0000       0.128455         3.4954

MULLIKEN ATOMIC CHARGES
-----------------------
   0 S :    0.131170
   1 C :   -0.127696
   2 C :   -0.082919
   3 C :    0.064065
   4 C :   -0.186740
   5 H :   -0.011556
   6 C :    0.036555
   7 H :    0.050061
   8 H :    0.027819
   9 C :   -0.055798
  10 H :    0.030508
  11 H :    0.033116
  12 C :   -0.077449
  13 H :    0.032912
  14 H :    0.025297
  15 H :    0.043717
  16 S :    0.117313
  17 C :   -0.096429
  18 C :   -0.040419
  19 C :   -0.040977
  20 C :   -0.183265
  21 H :    0.029591
  22 C :    0.079135
  23 H :    0.048988
  24 H :    0.040794
  25 C :   -0.105612
  26 H :    0.028294
  27 H :    0.023524
  28 C :   -0.003609
  29 H :    0.012628
  30 H :    0.020557
  31 H :    0.039339
  32 H :    0.040257
  33 H :    0.056827
Sum of atomic charges:   -0.0000000

LOEWDIN ATOMIC CHARGES
----------------------
   0 S :    0.445321
   1 C :   -0.209674
   2 C :   -0.062291
   3 C :   -0.051533
   4 C :   -0.221269
   5 H :    0.019363
   6 C :   -0.037318
   7 H :    0.040298
   8 H :    0.034899
   9 C :   -0.045786
  10 H :    0.029361
  11 H :    0.024103
  12 C :   -0.079048
  13 H :    0.028629
  14 H :    0.026820
  15 H :    0.029398
  16 S :    0.415993
  17 C :   -0.187473
  18 C :   -0.072928
  19 C :   -0.047768
  20 C :   -0.214387
  21 H :    0.033176
  22 C :   -0.034991
  23 H :    0.043546
  24 H :    0.037931
  25 C :   -0.048546
  26 H :    0.028158
  27 H :    0.023941
  28 C :   -0.063659
  29 H :    0.025511
  30 H :    0.021780
  31 H :    0.029736
  32 H :    0.020011
  33 H :    0.018697

  Mayer bond orders larger than 0.100000
B(  0-S ,  1-C ) :   1.1648 B(  0-S ,  4-C ) :   1.1961 B(  1-C ,  2-C ) :   1.5522
B(  1-C ,  4-C ) :   0.1057 B(  1-C , 32-H ) :   0.9779 B(  2-C ,  3-C ) :   1.2814
B(  2-C ,  6-C ) :   1.0136 B(  3-C ,  4-C ) :   1.5234 B(  3-C ,  5-H ) :   1.0010
B(  4-C , 20-C ) :   1.0045 B(  6-C ,  7-H ) :   0.9289 B(  6-C ,  8-H ) :   0.9431
B(  6-C ,  9-C ) :   1.0928 B(  9-C , 10-H ) :   0.9476 B(  9-C , 11-H ) :   0.9458
B(  9-C , 12-C ) :   1.0760 B( 12-C , 13-H ) :   0.9702 B( 12-C , 14-H ) :   0.9719
B( 12-C , 15-H ) :   0.9756 B( 16-S , 17-C ) :   1.1956 B( 16-S , 20-C ) :   1.1574
B( 17-C , 18-C ) :   1.5469 B( 17-C , 20-C ) :   0.1204 B( 17-C , 33-H ) :   0.9686
B( 18-C , 19-C ) :   1.2742 B( 18-C , 21-H ) :   0.9874 B( 19-C , 20-C ) :   1.5499
B( 19-C , 22-C ) :   1.0311 B( 22-C , 23-H ) :   0.9327 B( 22-C , 24-H ) :   0.9314
B( 22-C , 25-C ) :   1.0945 B( 25-C , 26-H ) :   0.9513 B( 25-C , 27-H ) :   0.9478
B( 25-C , 28-C ) :   1.0781 B( 28-C , 29-H ) :   0.9662 B( 28-C , 30-H ) :   0.9710
B( 28-C , 31-H ) :   0.9727

Dispersion correction           -0.015314255
FINAL SINGLE POINT ENERGY     -1339.869706828010

DIPOLE MOMENT
-------------
                                X             Y             Z
Electronic contribution:     11.65098      20.79491      14.08501
Nuclear contribution   :    -11.83991     -21.20061     -14.38354
                        -----------------------------------------
Total Dipole Moment    :     -0.18893      -0.40570      -0.29853
                        -----------------------------------------
Magnitude (a.u.)       :      0.53796
Magnitude (Debye)      :      1.36739

Rotational constants in cm-1:     0.016972     0.009905     0.007902
Rotational constants in MHz :   508.821902   296.952639   236.890852

                             ****ORCA TERMINATED NORMALLY****
TOTAL RUN TIME: 0 days 0 hours 0 minutes 35 seconds 910 msec
