                         Program Version 4.2.1 -  RELEASE  -
|  1> ! wB97X-D3 SP def2-SVP
|  2> %pal
|  3> nprocs 16
|  4> end
|  5>
|  6> * xyz 0 1
|  7> S 	 -117.809 	 48.1628 	 128.916
|  8> C 	 -117.036 	 49.1293 	 127.75
|  9> C 	 -116.573 	 50.3524 	 128.308
| 10> C 	 -116.964 	 50.4822 	 129.721
| 11> C 	 -117.485 	 49.3114 	 130.211
| 12> H 	 -116.969 	 51.3834 	 130.242
| 13> C 	 -116.118 	 51.5685 	 127.612
| 14> H 	 -115.016 	 51.4155 	 127.331
| 15> H 	 -116.34 	 52.4187 	 128.248
| 16> C 	 -116.868 	 51.7504 	 126.325
| 17> H 	 -116.379 	 52.5654 	 125.776
| 18> H 	 -116.79 	 50.9163 	 125.697
| 19> C 	 -118.357 	 52.0548 	 126.573
| 20> H 	 -118.833 	 51.2179 	 127.132
| 21> H 	 -118.449 	 53.0462 	 126.987
| 22> H 	 -118.829 	 52.0895 	 125.565
| 23> S 	 -119.84 	 49.2976 	 131.736
| 24> C 	 -119.66 	 49.218 	 133.438
| 25> C 	 -118.395 	 49.154 	 133.801
| 26> C 	 -117.461 	 49.2182 	 132.744
| 27> C 	 -118.141 	 49.2308 	 131.506
| 28> H 	 -118.191 	 49.0397 	 134.908
| 29> C 	 -115.961 	 49.0706 	 132.983
| 30> H 	 -115.391 	 49.2894 	 132.147
| 31> H 	 -115.713 	 48.0414 	 133.226
| 32> C 	 -115.397 	 49.8365 	 134.165
| 33> H 	 -115.673 	 49.3468 	 134.997
| 34> H 	 -115.682 	 50.8527 	 134.269
| 35> C 	 -113.874 	 49.8447 	 134.271
| 36> H 	 -113.453 	 48.8443 	 134.338
| 37> H 	 -113.406 	 50.3731 	 135.054
| 38> H 	 -113.518 	 50.3218 	 133.376
| 39> H 	 -117.056 	 48.852 	 126.758
| 40> H 	 -120.558 	 49.0799 	 134.058
| 41> *
| 42>
| 43>                          ****END OF INPUT****

CARTESIAN COORDINATES (ANGSTROEM)
---------------------------------
  S    -117.809000   48.162800  128.916000
  C    -117.036000   49.129300  127.750000
  C    -116.573000   50.352400  128.308000
  C    -116.964000   50.482200  129.721000
  C    -117.485000   49.311400  130.211000
  H    -116.969000   51.383400  130.242000
  C    -116.118000   51.568500  127.612000
  H    -115.016000   51.415500  127.331000
  H    -116.340000   52.418700  128.248000
  C    -116.868000   51.750400  126.325000
  H    -116.379000   52.565400  125.776000
  H    -116.790000   50.916300  125.697000
  C    -118.357000   52.054800  126.573000
  H    -118.833000   51.217900  127.132000
  H    -118.449000   53.046200  126.987000
  H    -118.829000   52.089500  125.565000
  S    -119.840000   49.297600  131.736000
  C    -119.660000   49.218000  133.438000
  C    -118.395000   49.154000  133.801000
  C    -117.461000   49.218200  132.744000
  C    -118.141000   49.230800  131.506000
  H    -118.191000   49.039700  134.908000
  C    -115.961000   49.070600  132.983000
  H    -115.391000   49.289400  132.147000
  H    -115.713000   48.041400  133.226000
  C    -115.397000   49.836500  134.165000
  H    -115.673000   49.346800  134.997000
  H    -115.682000   50.852700  134.269000
  C    -113.874000   49.844700  134.271000
  H    -113.453000   48.844300  134.338000
  H    -113.406000   50.373100  135.054000
  H    -113.518000   50.321800  133.376000
  H    -117.056000   48.852000  126.758000
  H    -120.558000   49.079900  134.058000

 Total Charge           Charge          ....    0
 Multiplicity           Mult            ....    1
 Number of Electrons    NEL             ....  134
 Basis Dimension        Dim             ....  322

ORBITAL ENERGIES
----------------

  NO   OCC          E(Eh)            E(eV)
   0   2.0000     -88.965442     -2420.8727
   1   2.0000     -88.962029     -2420.7799
   2   2.0000     -10.323743      -280.9233
   3   2.0000     -10.320876      -280.8453
   4   2.0000     -10.310969      -280.5757
   5   2.0000     -10.306833      -280.4632
   6   2.0000     -10.301752      -280.3249
   7   2.0000     -10.301068      -280.3063
   8   2.0000     -10.291154      -280.0366
   9   2.0000     -10.289377      -279.9882
  10   2.0000     -10.287272      -279.9309
  11   2.0000     -10.282402      -279.7984
  12   2.0000     -10.277328      -279.6603
  13   2.0000     -10.276282      -279.6318
  14   2.0000     -10.268400      -279.4174
  15   2.0000     -10.268073      -279.4085
  16   2.0000      -8.080878      -219.8919
  17   2.0000      -8.078341      -219.8228
  18   2.0000      -6.039380      -164.3399
  19   2.0000      -6.036652      -164.2656
  20   2.0000      -6.035150      -164.2248
  21   2.0000      -6.032654      -164.1569
  22   2.0000      -6.031755      -164.1324
  23   2.0000      -6.029194      -164.0627
  24   2.0000      -1.012002       -27.5380
  25   2.0000      -0.989282       -26.9197
  26   2.0000      -0.920960       -25.0606
  27   2.0000      -0.914851       -24.8944
  28   2.0000      -0.872978       -23.7549
  29   2.0000      -0.852930       -23.2094
  30   2.0000      -0.846852       -23.0440
  31   2.0000      -0.814108       -22.1530
  32   2.0000      -0.783141       -21.3104
  33   2.0000      -0.770214       -20.9586
  34   2.0000      -0.708275       -19.2732
  35   2.0000      -0.706517       -19.2253
  36   2.0000      -0.693116       -18.8606
  37   2.0000      -0.656600       -17.8670
  38   2.0000      -0.643058       -17.4985
  39   2.0000      -0.615478       -16.7480
  40   2.0000      -0.600874       -16.3506
  41   2.0000      -0.578985       -15.7550
  42   2.0000      -0.577627       -15.7180
  43   2.0000      -0.555540       -15.1170
  44   2.0000      -0.540290       -14.7020
  45   2.0000      -0.523821       -14.2539
  46   2.0000      -0.521081       -14.1793
  47   2.0000      -0.510463       -13.8904
  48   2.0000      -0.509534       -13.8651
  49   2.0000      -0.495705       -13.4888
  50   2.0000      -0.488468       -13.2919
  51   2.0000      -0.478238       -13.0135
  52   2.0000      -0.469339       -12.7714
  53   2.0000      -0.466847       -12.7035
  54   2.0000      -0.462161       -12.5760
  55   2.0000      -0.451786       -12.2937
  56   2.0000      -0.444496       -12.0953
  57   2.0000      -0.432407       -11.7664
  58   2.0000      -0.429087       -11.6761
  59   2.0000      -0.425390       -11.5755
  60   2.0000      -0.424214       -11.5435
  61   2.0000      -0.416879       -11.3439
  62   2.0000      -0.415051       -11.2941
  63   2.0000      -0.345326        -9.3968
  64   2.0000      -0.330123        -8.9831
  65   2.0000      -0.318456        -8.6656
  66   2.0000      -0.298508        -8.1228
  67   0.0000       0.037397         1.0176
  68   0.0000       0.068905         1.8750
  69   0.0000       0.112267         3.0549
  70   0.0000       0.129282         3.5180
  71   0.0000       0.131502         3.5783

MULLIKEN ATOMIC CHARGES
-----------------------
   0 S :    0.115460
   1 C :   -0.101084
   2 C :   -0.117576
   3 C :    0.042944
   4 C :   -0.166989
   5 H :    0.006011
   6 C :    0.089109
   7 H :    0.053316
   8 H :    0.021315
   9 C :   -0.085505
  10 H :    0.021889
  11 H :    0.010306
  12 C :   -0.064296
  13 H :    0.061118
  14 H :    0.031901
  15 H :    0.032231
  16 S :    0.118883
  17 C :   -0.111604
  18 C :   -0.041091
  19 C :   -0.027696
  20 C :   -0.162298
  21 H :    0.038842
  22 C :    0.129547
  23 H :   -0.002813
  24 H :    0.027765
  25 C :   -0.046101
  26 H :   -0.002713
  27 H :    0.020309
  28 C :   -0.038972
  29 H :    0.019280
  30 H :    0.022293
  31 H :    0.017022
  32 H :    0.025561
  33 H :    0.063635
Sum of atomic charges:   -0.0000000

LOEWDIN ATOMIC CHARGES
----------------------
   0 S :    0.426223
   1 C :   -0.204688
   2 C :   -0.058823
   3 C :   -0.042198
   4 C :   -0.197562
   5 H :    0.023939
   6 C :   -0.039052
   7 H :    0.046397
   8 H :    0.029702
   9 C :   -0.041260
  10 H :    0.023437
  11 H :    0.011133
  12 C :   -0.066315
  13 H :    0.033077
  14 H :    0.021975
  15 H :    0.029564
  16 S :    0.428650
  17 C :   -0.199133
  18 C :   -0.083437
  19 C :   -0.051038
  20 C :   -0.217030
  21 H :    0.043787
  22 C :   -0.018186
  23 H :    0.017148
  24 H :    0.038048
  25 C :   -0.030938
  26 H :    0.005938
  27 H :    0.020575
  28 C :   -0.057535
  29 H :    0.022378
  30 H :    0.021102
  31 H :    0.020960
  32 H :    0.009197
  33 H :    0.033963

  Mayer bond orders larger than 0.100000
B(  0-S ,  1-C ) :   1.1615 B(  0-S ,  4-C ) :   1.1528 B(  1-C ,  2-C ) :   1.5638
B(  1-C , 32-H ) :   0.9827 B(  2-C ,  3-C ) :   1.2440 B(  2-C ,  6-C ) :   1.0304
B(  3-C ,  4-C ) :   1.5780 B(  3-C ,  5-H ) :   0.9996 B(  4-C , 20-C ) :   1.0253
B(  6-C ,  7-H ) :   0.9177 B(  6-C ,  8-H ) :   0.9483 B(  6-C ,  9-C ) :   1.0913
B(  9-C , 10-H ) :   0.9521 B(  9-C , 11-H ) :   0.9514 B(  9-C , 12-C ) :   1.0756
B( 12-C , 13-H ) :   0.9730 B( 12-C , 14-H ) :   0.9756 B( 12-C , 15-H ) :   0.9733
B( 16-S , 17-C ) :   1.1560 B( 16-S , 20-C ) :   1.1673 B( 17-C , 18-C ) :   1.6259
B( 17-C , 33-H ) :   0.9618 B( 18-C , 19-C ) :   1.2459 B( 18-C , 21-H ) :   0.9813
B( 19-C , 20-C ) :   1.5750 B( 19-C , 22-C ) :   1.0519 B( 22-C , 23-H ) :   0.9319
B( 22-C , 24-H ) :   0.9290 B( 22-C , 25-C ) :   1.0566 B( 25-C , 26-H ) :   0.9457
B( 25-C , 27-H ) :   0.9613 B( 25-C , 28-C ) :   1.0939 B( 28-C , 29-H ) :   0.9725
B( 28-C , 30-H ) :   0.9742 B( 28-C , 31-H ) :   0.9748

Dispersion correction           -0.014185300
FINAL SINGLE POINT ENERGY     -1339.859413773237

DIPOLE MOMENT
-------------
                                X             Y             Z
Electronic contribution:    -16.46520     -12.95597       0.27945
Nuclear contribution   :     16.69201      13.28199      -0.21855
                        -----------------------------------------
Total Dipole Moment    :      0.22681       0.32602       0.06090
                        -----------------------------------------
Magnitude (a.u.)       :      0.40180
Magnitude (Debye)      :      1.02129

Rotational constants in cm-1:     0.019357     0.008293     0.006798
Rotational constants in MHz :   580.304749   248.613714   203.797006

                             ****ORCA TERMINATED NORMALLY****
TOTAL RUN TIME: 0 days 0 hours 0 minutes 34 seconds 151 msec
