                         Program Version 4.2.1 -  RELEASE  -
|  1> ! wB97X-D3 SP def2-SVP
|  2> %pal
|  3> nprocs 16
|  4> end
|  5>
|  6> * xyz 0 1
|  7> S 	 -17.1223 	 -3.29393 	 82.2365
|  8> C 	 -16.7359 	 -4.79743 	 81.4654
|  9> C 	 -17.394 	 -5.90808 	 81.9885
| 10> C 	 -18.2598 	 -5.51561 	 83.0755
| 11> C 	 -18.4068 	 -4.0961 	 83.1417
| 12> H 	 -18.8204 	 -6.21481 	 83.7058
| 13> C 	 -17.2064 	 -7.31377 	 81.412
| 14> H 	 -17.0934 	 -8.05481 	 82.1906
| 15> H 	 -16.3652 	 -7.27532 	 80.794
| 16> C 	 -18.4191 	 -7.76819 	 80.5194
| 17> H 	 -19.3724 	 -7.95946 	 80.9737
| 18> H 	 -18.655 	 -6.84096 	 79.9698
| 19> C 	 -18.1358 	 -8.98693 	 79.617
| 20> H 	 -17.1925 	 -9.04953 	 79.1025
| 21> H 	 -18.1575 	 -9.87982 	 80.1454
| 22> H 	 -18.8609 	 -9.13515 	 78.7929
| 23> S 	 -20.9943 	 -3.90012 	 84.0462
| 24> C 	 -21.3958 	 -2.74635 	 85.285
| 25> C 	 -20.3058 	 -1.98932 	 85.6225
| 26> C 	 -19.0866 	 -2.48542 	 85.0469
| 27> C 	 -19.2973 	 -3.46442 	 84.0739
| 28> H 	 -20.4336 	 -1.27127 	 86.4147
| 29> C 	 -17.789 	 -1.8006 	 85.4196
| 30> H 	 -16.9325 	 -2.48786 	 85.6314
| 31> H 	 -17.9628 	 -1.37666 	 86.4123
| 32> C 	 -17.3788 	 -0.593478 	 84.4259
| 33> H 	 -18.3109 	 -0.0498822 	 84.181
| 34> H 	 -17.016 	 -0.978632 	 83.5314
| 35> C 	 -16.3931 	 0.408762 	 84.9544
| 36> H 	 -16.8407 	 0.99182 	 85.7763
| 37> H 	 -16.0968 	 1.0878 	 84.1529
| 38> H 	 -15.412 	 -0.018505 	 85.2704
| 39> H 	 -15.9743 	 -4.87348 	 80.6557
| 40> H 	 -22.3933 	 -2.54321 	 85.6788
| 41> *
| 42>
| 43>                          ****END OF INPUT****

CARTESIAN COORDINATES (ANGSTROEM)
---------------------------------
  S    -17.122300   -3.293930   82.236500
  C    -16.735900   -4.797430   81.465400
  C    -17.394000   -5.908080   81.988500
  C    -18.259800   -5.515610   83.075500
  C    -18.406800   -4.096100   83.141700
  H    -18.820400   -6.214810   83.705800
  C    -17.206400   -7.313770   81.412000
  H    -17.093400   -8.054810   82.190600
  H    -16.365200   -7.275320   80.794000
  C    -18.419100   -7.768190   80.519400
  H    -19.372400   -7.959460   80.973700
  H    -18.655000   -6.840960   79.969800
  C    -18.135800   -8.986930   79.617000
  H    -17.192500   -9.049530   79.102500
  H    -18.157500   -9.879820   80.145400
  H    -18.860900   -9.135150   78.792900
  S    -20.994300   -3.900120   84.046200
  C    -21.395800   -2.746350   85.285000
  C    -20.305800   -1.989320   85.622500
  C    -19.086600   -2.485420   85.046900
  C    -19.297300   -3.464420   84.073900
  H    -20.433600   -1.271270   86.414700
  C    -17.789000   -1.800600   85.419600
  H    -16.932500   -2.487860   85.631400
  H    -17.962800   -1.376660   86.412300
  C    -17.378800   -0.593478   84.425900
  H    -18.310900   -0.049882   84.181000
  H    -17.016000   -0.978632   83.531400
  C    -16.393100    0.408762   84.954400
  H    -16.840700    0.991820   85.776300
  H    -16.096800    1.087800   84.152900
  H    -15.412000   -0.018505   85.270400
  H    -15.974300   -4.873480   80.655700
  H    -22.393300   -2.543210   85.678800

 Total Charge           Charge          ....    0
 Multiplicity           Mult            ....    1
 Number of Electrons    NEL             ....  134
 Basis Dimension        Dim             ....  322

ORBITAL ENERGIES
----------------

  NO   OCC          E(Eh)            E(eV)
   0   2.0000     -88.973249     -2421.0852
   1   2.0000     -88.964295     -2420.8415
   2   2.0000     -10.333260      -281.1823
   3   2.0000     -10.324026      -280.9310
   4   2.0000     -10.316725      -280.7324
   5   2.0000     -10.314566      -280.6736
   6   2.0000     -10.305031      -280.4142
   7   2.0000     -10.302920      -280.3567
   8   2.0000     -10.302390      -280.3423
   9   2.0000     -10.294818      -280.1362
  10   2.0000     -10.293213      -280.0926
  11   2.0000     -10.290482      -280.0183
  12   2.0000     -10.287333      -279.9326
  13   2.0000     -10.281960      -279.7863
  14   2.0000     -10.277602      -279.6678
  15   2.0000     -10.272842      -279.5382
  16   2.0000      -8.087038      -220.0595
  17   2.0000      -8.079118      -219.8440
  18   2.0000      -6.045523      -164.5070
  19   2.0000      -6.041768      -164.4049
  20   2.0000      -6.037802      -164.2969
  21   2.0000      -6.037664      -164.2932
  22   2.0000      -6.033538      -164.1809
  23   2.0000      -6.029902      -164.0820
  24   2.0000      -1.004584       -27.3361
  25   2.0000      -0.982260       -26.7287
  26   2.0000      -0.906876       -24.6773
  27   2.0000      -0.898976       -24.4624
  28   2.0000      -0.870033       -23.6748
  29   2.0000      -0.851812       -23.1790
  30   2.0000      -0.847348       -23.0575
  31   2.0000      -0.811375       -22.0786
  32   2.0000      -0.783355       -21.3162
  33   2.0000      -0.766333       -20.8530
  34   2.0000      -0.710843       -19.3430
  35   2.0000      -0.699113       -19.0238
  36   2.0000      -0.692964       -18.8565
  37   2.0000      -0.662485       -18.0271
  38   2.0000      -0.636492       -17.3198
  39   2.0000      -0.614094       -16.7104
  40   2.0000      -0.591793       -16.1035
  41   2.0000      -0.570440       -15.5225
  42   2.0000      -0.561131       -15.2692
  43   2.0000      -0.556147       -15.1335
  44   2.0000      -0.522039       -14.2054
  45   2.0000      -0.518757       -14.1161
  46   2.0000      -0.511558       -13.9202
  47   2.0000      -0.509839       -13.8734
  48   2.0000      -0.504868       -13.7382
  49   2.0000      -0.501057       -13.6345
  50   2.0000      -0.491993       -13.3878
  51   2.0000      -0.476459       -12.9651
  52   2.0000      -0.471134       -12.8202
  53   2.0000      -0.467645       -12.7253
  54   2.0000      -0.460114       -12.5203
  55   2.0000      -0.451259       -12.2794
  56   2.0000      -0.443603       -12.0710
  57   2.0000      -0.439355       -11.9554
  58   2.0000      -0.434218       -11.8157
  59   2.0000      -0.422040       -11.4843
  60   2.0000      -0.420392       -11.4394
  61   2.0000      -0.414165       -11.2700
  62   2.0000      -0.411582       -11.1997
  63   2.0000      -0.346425        -9.4267
  64   2.0000      -0.332254        -9.0411
  65   2.0000      -0.326684        -8.8895
  66   2.0000      -0.287662        -7.8277
  67   0.0000       0.024578         0.6688
  68   0.0000       0.071433         1.9438
  69   0.0000       0.104151         2.8341
  70   0.0000       0.121225         3.2987
  71   0.0000       0.133718         3.6386

MULLIKEN ATOMIC CHARGES
-----------------------
   0 S :    0.116479
   1 C :   -0.120467
   2 C :   -0.106518
   3 C :    0.007389
   4 C :   -0.141794
   5 H :    0.030603
   6 C :    0.130596
   7 H :    0.029093
   8 H :    0.000796
   9 C :   -0.081474
  10 H :    0.027878
  11 H :    0.028406
  12 C :   -0.034095
  13 H :    0.016684
  14 H :    0.013881
  15 H :    0.033364
  16 S :    0.110442
  17 C :   -0.100111
  18 C :   -0.029078
  19 C :   -0.051250
  20 C :   -0.154418
  21 H :    0.019378
  22 C :    0.042761
  23 H :    0.040369
  24 H :    0.009495
  25 C :   -0.049159
  26 H :    0.031163
  27 H :    0.015966
  28 C :   -0.059249
  29 H :    0.036469
  30 H :    0.033289
  31 H :    0.032075
  32 H :    0.060174
  33 H :    0.060860
Sum of atomic charges:    0.0000000

LOEWDIN ATOMIC CHARGES
----------------------
   0 S :    0.429280
   1 C :   -0.209405
   2 C :   -0.061862
   3 C :   -0.053067
   4 C :   -0.193960
   5 H :    0.033755
   6 C :   -0.016531
   7 H :    0.029017
   8 H :    0.022142
   9 C :   -0.040789
  10 H :    0.023470
  11 H :    0.026392
  12 C :   -0.068996
  13 H :    0.021302
  14 H :    0.016208
  15 H :    0.033095
  16 S :    0.413217
  17 C :   -0.191153
  18 C :   -0.071617
  19 C :   -0.060920
  20 C :   -0.201805
  21 H :    0.030716
  22 C :   -0.039205
  23 H :    0.034304
  24 H :    0.027796
  25 C :   -0.037748
  26 H :    0.029530
  27 H :   -0.001419
  28 C :   -0.070441
  29 H :    0.025623
  30 H :    0.029386
  31 H :    0.026899
  32 H :    0.033049
  33 H :    0.033736

  Mayer bond orders larger than 0.100000
B(  0-S ,  1-C ) :   1.1426 B(  0-S ,  4-C ) :   1.1461 B(  1-C ,  2-C ) :   1.6035
B(  1-C , 32-H ) :   0.9569 B(  2-C ,  3-C ) :   1.2499 B(  2-C ,  6-C ) :   1.0435
B(  3-C ,  4-C ) :   1.5331 B(  3-C ,  5-H ) :   0.9892 B(  4-C , 20-C ) :   1.0858
B(  6-C ,  7-H ) :   0.9387 B(  6-C ,  8-H ) :   0.9352 B(  6-C ,  9-C ) :   1.0455
B(  9-C , 10-H ) :   0.9576 B(  9-C , 11-H ) :   0.9592 B(  9-C , 12-C ) :   1.0757
B( 12-C , 13-H ) :   0.9760 B( 12-C , 14-H ) :   0.9746 B( 12-C , 15-H ) :   0.9741
B( 16-S , 17-C ) :   1.1537 B( 16-S , 20-C ) :   1.1401 B( 17-C , 18-C ) :   1.6215
B( 17-C , 33-H ) :   0.9639 B( 18-C , 19-C ) :   1.2389 B( 18-C , 21-H ) :   0.9861
B( 19-C , 20-C ) :   1.5651 B( 19-C , 22-C ) :   1.0621 B( 22-C , 23-H ) :   0.9353
B( 22-C , 24-H ) :   0.9334 B( 22-C , 25-C ) :   1.0397 B( 25-C , 26-H ) :   0.9551
B( 25-C , 27-H ) :   0.9504 B( 25-C , 28-C ) :   1.0981 B( 28-C , 29-H ) :   0.9763
B( 28-C , 30-H ) :   0.9698 B( 28-C , 31-H ) :   0.9721

Dispersion correction           -0.014046014
FINAL SINGLE POINT ENERGY     -1339.875342793546

DIPOLE MOMENT
-------------
                                X             Y             Z
Electronic contribution:     -9.68236       4.20830       4.49242
Nuclear contribution   :      9.85172      -4.32724      -4.42459
                        -----------------------------------------
Total Dipole Moment    :      0.16936      -0.11894       0.06783
                        -----------------------------------------
Magnitude (a.u.)       :      0.21779
Magnitude (Debye)      :      0.55357

Rotational constants in cm-1:     0.022217     0.007671     0.005957
Rotational constants in MHz :   666.044481   229.978719   178.574893

                             ****ORCA TERMINATED NORMALLY****
TOTAL RUN TIME: 0 days 0 hours 0 minutes 30 seconds 688 msec
