                         Program Version 4.2.1 -  RELEASE  -
|  1> ! wB97X-D3 SP def2-SVP
|  2> %pal
|  3> nprocs 16
|  4> end
|  5>
|  6> * xyz 0 1
|  7> S 	 1.55866 	 19.879 	 53.5592
|  8> C 	 3.15852 	 20.246 	 52.9413
|  9> C 	 4.07827 	 20.0849 	 53.9613
| 10> C 	 3.43803 	 19.7219 	 55.22
| 11> C 	 2.06284 	 19.7416 	 55.1971
| 12> H 	 3.98479 	 19.5491 	 56.1331
| 13> C 	 5.59435 	 20.1454 	 53.8508
| 14> H 	 5.90292 	 21.2118 	 53.9014
| 15> H 	 5.90046 	 19.8974 	 52.8158
| 16> C 	 6.38433 	 19.2983 	 54.867
| 17> H 	 6.13196 	 19.4528 	 55.9739
| 18> H 	 6.18329 	 18.2198 	 54.7733
| 19> C 	 7.87504 	 19.54 	 54.6985
| 20> H 	 8.4405 	 18.909 	 55.3759
| 21> H 	 8.19527 	 19.3526 	 53.7162
| 22> H 	 8.16793 	 20.5708 	 54.87
| 23> S 	 0.284422 	 17.8122 	 56.1175
| 24> C 	 -0.479608 	 17.9804 	 57.6864
| 25> C 	 0.0834585 	 19.0311 	 58.3416
| 26> C 	 0.976313 	 19.8247 	 57.5496
| 27> C 	 1.17457 	 19.3848 	 56.2765
| 28> H 	 -0.118969 	 19.3148 	 59.3577
| 29> C 	 1.56002 	 20.9625 	 58.2421
| 30> H 	 0.873953 	 21.7663 	 58.4298
| 31> H 	 2.1761 	 21.4499 	 57.3744
| 32> C 	 2.37856 	 20.6338 	 59.548
| 33> H 	 1.77946 	 20.3374 	 60.4207
| 34> H 	 2.75608 	 21.4748 	 60.0288
| 35> C 	 3.63119 	 19.7727 	 59.2389
| 36> H 	 4.27716 	 20.0902 	 58.4146
| 37> H 	 3.27106 	 18.7132 	 58.9667
| 38> H 	 4.26289 	 19.6304 	 60.0604
| 39> H 	 3.43535 	 20.5561 	 51.8798
| 40> H 	 -1.1818 	 17.2526 	 58.0738
| 41> *
| 42>
| 43>                          ****END OF INPUT****

CARTESIAN COORDINATES (ANGSTROEM)
---------------------------------
  S      1.558660   19.879000   53.559200
  C      3.158520   20.246000   52.941300
  C      4.078270   20.084900   53.961300
  C      3.438030   19.721900   55.220000
  C      2.062840   19.741600   55.197100
  H      3.984790   19.549100   56.133100
  C      5.594350   20.145400   53.850800
  H      5.902920   21.211800   53.901400
  H      5.900460   19.897400   52.815800
  C      6.384330   19.298300   54.867000
  H      6.131960   19.452800   55.973900
  H      6.183290   18.219800   54.773300
  C      7.875040   19.540000   54.698500
  H      8.440500   18.909000   55.375900
  H      8.195270   19.352600   53.716200
  H      8.167930   20.570800   54.870000
  S      0.284422   17.812200   56.117500
  C     -0.479608   17.980400   57.686400
  C      0.083459   19.031100   58.341600
  C      0.976313   19.824700   57.549600
  C      1.174570   19.384800   56.276500
  H     -0.118969   19.314800   59.357700
  C      1.560020   20.962500   58.242100
  H      0.873953   21.766300   58.429800
  H      2.176100   21.449900   57.374400
  C      2.378560   20.633800   59.548000
  H      1.779460   20.337400   60.420700
  H      2.756080   21.474800   60.028800
  C      3.631190   19.772700   59.238900
  H      4.277160   20.090200   58.414600
  H      3.271060   18.713200   58.966700
  H      4.262890   19.630400   60.060400
  H      3.435350   20.556100   51.879800
  H     -1.181800   17.252600   58.073800

 Total Charge           Charge          ....    0
 Multiplicity           Mult            ....    1
 Number of Electrons    NEL             ....  134
 Basis Dimension        Dim             ....  322

ORBITAL ENERGIES
----------------

  NO   OCC          E(Eh)            E(eV)
   0   2.0000     -88.963971     -2420.8327
   1   2.0000     -88.957043     -2420.6442
   2   2.0000     -10.328139      -281.0429
   3   2.0000     -10.326874      -281.0085
   4   2.0000     -10.321241      -280.8552
   5   2.0000     -10.317918      -280.7648
   6   2.0000     -10.304001      -280.3861
   7   2.0000     -10.300164      -280.2817
   8   2.0000     -10.296450      -280.1806
   9   2.0000     -10.296348      -280.1779
  10   2.0000     -10.294147      -280.1180
  11   2.0000     -10.293440      -280.0987
  12   2.0000     -10.291560      -280.0476
  13   2.0000     -10.286917      -279.9212
  14   2.0000     -10.281194      -279.7655
  15   2.0000     -10.273664      -279.5606
  16   2.0000      -8.079132      -219.8444
  17   2.0000      -8.071478      -219.6361
  18   2.0000      -6.037736      -164.2952
  19   2.0000      -6.033478      -164.1793
  20   2.0000      -6.030158      -164.0889
  21   2.0000      -6.029833      -164.0801
  22   2.0000      -6.026131      -163.9794
  23   2.0000      -6.021947      -163.8655
  24   2.0000      -1.007514       -27.4158
  25   2.0000      -0.984574       -26.7916
  26   2.0000      -0.912749       -24.8371
  27   2.0000      -0.906697       -24.6725
  28   2.0000      -0.874337       -23.7919
  29   2.0000      -0.849593       -23.1186
  30   2.0000      -0.843348       -22.9487
  31   2.0000      -0.813814       -22.1450
  32   2.0000      -0.779361       -21.2075
  33   2.0000      -0.772868       -21.0308
  34   2.0000      -0.719723       -19.5846
  35   2.0000      -0.707865       -19.2620
  36   2.0000      -0.692609       -18.8468
  37   2.0000      -0.662271       -18.0213
  38   2.0000      -0.639870       -17.4118
  39   2.0000      -0.619112       -16.8469
  40   2.0000      -0.597062       -16.2469
  41   2.0000      -0.567272       -15.4362
  42   2.0000      -0.560549       -15.2533
  43   2.0000      -0.558946       -15.2097
  44   2.0000      -0.534480       -14.5439
  45   2.0000      -0.526240       -14.3197
  46   2.0000      -0.519866       -14.1463
  47   2.0000      -0.508568       -13.8388
  48   2.0000      -0.506797       -13.7906
  49   2.0000      -0.500425       -13.6173
  50   2.0000      -0.493255       -13.4222
  51   2.0000      -0.481043       -13.0898
  52   2.0000      -0.471122       -12.8199
  53   2.0000      -0.467244       -12.7144
  54   2.0000      -0.459299       -12.4982
  55   2.0000      -0.450709       -12.2644
  56   2.0000      -0.444484       -12.0950
  57   2.0000      -0.441243       -12.0068
  58   2.0000      -0.424833       -11.5603
  59   2.0000      -0.424290       -11.5455
  60   2.0000      -0.419402       -11.4125
  61   2.0000      -0.412336       -11.2202
  62   2.0000      -0.402815       -10.9611
  63   2.0000      -0.343637        -9.3508
  64   2.0000      -0.326515        -8.8849
  65   2.0000      -0.322210        -8.7678
  66   2.0000      -0.301421        -8.2021
  67   0.0000       0.033681         0.9165
  68   0.0000       0.065574         1.7844
  69   0.0000       0.114553         3.1172
  70   0.0000       0.121170         3.2972
  71   0.0000       0.126926         3.4538

MULLIKEN ATOMIC CHARGES
-----------------------
   0 S :    0.112193
   1 C :   -0.146449
   2 C :   -0.079231
   3 C :    0.047381
   4 C :   -0.161867
   5 H :   -0.015369
   6 C :    0.057152
   7 H :    0.040477
   8 H :    0.022259
   9 C :   -0.123817
  10 H :    0.044011
  11 H :    0.040420
  12 C :   -0.001904
  13 H :    0.029582
  14 H :    0.011084
  15 H :    0.022096
  16 S :    0.071916
  17 C :   -0.076035
  18 C :   -0.006613
  19 C :   -0.033019
  20 C :   -0.125297
  21 H :    0.006634
  22 C :    0.016794
  23 H :    0.035180
  24 H :    0.034732
  25 C :   -0.031360
  26 H :    0.025710
  27 H :    0.004326
  28 C :   -0.066052
  29 H :    0.040295
  30 H :    0.046538
  31 H :    0.020641
  32 H :    0.074324
  33 H :    0.063270
Sum of atomic charges:   -0.0000000

LOEWDIN ATOMIC CHARGES
----------------------
   0 S :    0.421559
   1 C :   -0.209745
   2 C :   -0.066766
   3 C :   -0.056782
   4 C :   -0.212173
   5 H :    0.024090
   6 C :   -0.037311
   7 H :    0.037477
   8 H :    0.032796
   9 C :   -0.047841
  10 H :    0.029799
  11 H :    0.028636
  12 C :   -0.057942
  13 H :    0.026949
  14 H :    0.016374
  15 H :    0.023859
  16 S :    0.366863
  17 C :   -0.169382
  18 C :   -0.069145
  19 C :   -0.064498
  20 C :   -0.176207
  21 H :    0.026746
  22 C :   -0.039337
  23 H :    0.030865
  24 H :    0.043113
  25 C :   -0.039450
  26 H :    0.029860
  27 H :    0.017936
  28 C :   -0.066956
  29 H :    0.025071
  30 H :    0.034954
  31 H :    0.016763
  32 H :    0.047711
  33 H :    0.032116

  Mayer bond orders larger than 0.100000
B(  0-S ,  1-C ) :   1.1390 B(  0-S ,  4-C ) :   1.1591 B(  1-C ,  2-C ) :   1.6063
B(  1-C , 32-H ) :   0.9627 B(  2-C ,  3-C ) :   1.2535 B(  2-C ,  6-C ) :   1.0093
B(  3-C ,  4-C ) :   1.5554 B(  3-C ,  5-H ) :   0.9931 B(  4-C , 20-C ) :   1.0277
B(  6-C ,  7-H ) :   0.9348 B(  6-C ,  8-H ) :   0.9438 B(  6-C ,  9-C ) :   1.0654
B(  9-C , 10-H ) :   0.9467 B(  9-C , 11-H ) :   0.9556 B(  9-C , 12-C ) :   1.0892
B( 12-C , 13-H ) :   0.9714 B( 12-C , 14-H ) :   0.9717 B( 12-C , 15-H ) :   0.9741
B( 16-S , 17-C ) :   1.1437 B( 16-S , 20-C ) :   1.1091 B( 17-C , 18-C ) :   1.6082
B( 17-C , 33-H ) :   0.9702 B( 18-C , 19-C ) :   1.2186 B( 18-C , 21-H ) :   0.9946
B( 19-C , 20-C ) :   1.6337 B( 19-C , 22-C ) :   1.0603 B( 22-C , 23-H ) :   0.9344
B( 22-C , 24-H ) :   0.9378 B( 22-C , 25-C ) :   1.0604 B( 25-C , 26-H ) :   0.9500
B( 25-C , 27-H ) :   0.9491 B( 25-C , 28-C ) :   1.0672 B( 28-C , 29-H ) :   0.9715
B( 28-C , 30-H ) :   0.9757 B( 28-C , 31-H ) :   0.9717

Dispersion correction           -0.014862856
FINAL SINGLE POINT ENERGY     -1339.866187526558

DIPOLE MOMENT
-------------
                                X             Y             Z
Electronic contribution:    -26.27694      -5.79001     -12.59692
Nuclear contribution   :     26.93495       6.01365      13.08981
                        -----------------------------------------
Total Dipole Moment    :      0.65801       0.22364       0.49290
                        -----------------------------------------
Magnitude (a.u.)       :      0.85202
Magnitude (Debye)      :      2.16567

Rotational constants in cm-1:     0.018064     0.009227     0.006996
Rotational constants in MHz :   541.547739   276.605462   209.725388

                             ****ORCA TERMINATED NORMALLY****
TOTAL RUN TIME: 0 days 0 hours 0 minutes 35 seconds 934 msec
