                         Program Version 4.2.1 -  RELEASE  -
|  1> ! wB97X-D3 SP def2-SVP
|  2> %pal
|  3> nprocs 16
|  4> end
|  5>
|  6> * xyz 0 1
|  7> S 	 9.21289 	 -10.5839 	 66.9628
|  8> C 	 8.40428 	 -9.05448 	 66.5612
|  9> C 	 8.04973 	 -8.36682 	 67.6743
| 10> C 	 8.65712 	 -9.04192 	 68.8769
| 11> C 	 9.40701 	 -10.1684 	 68.5937
| 12> H 	 8.58119 	 -8.67407 	 69.9234
| 13> C 	 7.51347 	 -6.91073 	 67.7623
| 14> H 	 6.81377 	 -6.7004 	 67.0025
| 15> H 	 8.34045 	 -6.30502 	 67.5087
| 16> C 	 7.10074 	 -6.44879 	 69.141
| 17> H 	 6.29066 	 -7.12037 	 69.4967
| 18> H 	 7.93142 	 -6.50406 	 69.8064
| 19> C 	 6.43493 	 -5.05724 	 69.1001
| 20> H 	 5.51587 	 -4.97326 	 68.4806
| 21> H 	 6.27377 	 -4.61754 	 70.0915
| 22> H 	 7.31201 	 -4.43796 	 68.6847
| 23> S 	 9.22244 	 -11.5751 	 70.9225
| 24> C 	 10.5212 	 -12.689 	 71.4458
| 25> C 	 11.4845 	 -12.7707 	 70.4572
| 26> C 	 11.2748 	 -11.8556 	 69.3603
| 27> C 	 10.1444 	 -11.0612 	 69.5116
| 28> H 	 12.378 	 -13.3752 	 70.6253
| 29> C 	 12.1595 	 -11.8769 	 68.1222
| 30> H 	 13.2095 	 -11.7858 	 68.402
| 31> H 	 11.9605 	 -10.9746 	 67.6033
| 32> C 	 12.0372 	 -13.1559 	 67.2842
| 33> H 	 10.9644 	 -13.1966 	 66.8304
| 34> H 	 12.0932 	 -14.0293 	 67.9481
| 35> C 	 13.1103 	 -13.2165 	 66.0753
| 36> H 	 12.8121 	 -12.5046 	 65.3556
| 37> H 	 13.0911 	 -14.2362 	 65.7039
| 38> H 	 14.0942 	 -12.9569 	 66.4509
| 39> H 	 8.27249 	 -8.6882 	 65.5674
| 40> H 	 10.5462 	 -13.2744 	 72.3537
| 41> *
| 42>
| 43>                          ****END OF INPUT****

CARTESIAN COORDINATES (ANGSTROEM)
---------------------------------
  S      9.212890  -10.583900   66.962800
  C      8.404280   -9.054480   66.561200
  C      8.049730   -8.366820   67.674300
  C      8.657120   -9.041920   68.876900
  C      9.407010  -10.168400   68.593700
  H      8.581190   -8.674070   69.923400
  C      7.513470   -6.910730   67.762300
  H      6.813770   -6.700400   67.002500
  H      8.340450   -6.305020   67.508700
  C      7.100740   -6.448790   69.141000
  H      6.290660   -7.120370   69.496700
  H      7.931420   -6.504060   69.806400
  C      6.434930   -5.057240   69.100100
  H      5.515870   -4.973260   68.480600
  H      6.273770   -4.617540   70.091500
  H      7.312010   -4.437960   68.684700
  S      9.222440  -11.575100   70.922500
  C     10.521200  -12.689000   71.445800
  C     11.484500  -12.770700   70.457200
  C     11.274800  -11.855600   69.360300
  C     10.144400  -11.061200   69.511600
  H     12.378000  -13.375200   70.625300
  C     12.159500  -11.876900   68.122200
  H     13.209500  -11.785800   68.402000
  H     11.960500  -10.974600   67.603300
  C     12.037200  -13.155900   67.284200
  H     10.964400  -13.196600   66.830400
  H     12.093200  -14.029300   67.948100
  C     13.110300  -13.216500   66.075300
  H     12.812100  -12.504600   65.355600
  H     13.091100  -14.236200   65.703900
  H     14.094200  -12.956900   66.450900
  H      8.272490   -8.688200   65.567400
  H     10.546200  -13.274400   72.353700

 Total Charge           Charge          ....    0
 Multiplicity           Mult            ....    1
 Number of Electrons    NEL             ....  134
 Basis Dimension        Dim             ....  322

ORBITAL ENERGIES
----------------

  NO   OCC          E(Eh)            E(eV)
   0   2.0000     -88.964643     -2420.8510
   1   2.0000     -88.962600     -2420.7954
   2   2.0000     -10.331023      -281.1214
   3   2.0000     -10.329567      -281.0818
   4   2.0000     -10.322952      -280.9018
   5   2.0000     -10.311845      -280.5996
   6   2.0000     -10.309646      -280.5397
   7   2.0000     -10.307109      -280.4707
   8   2.0000     -10.300573      -280.2928
   9   2.0000     -10.298191      -280.2280
  10   2.0000     -10.295490      -280.1545
  11   2.0000     -10.289825      -280.0004
  12   2.0000     -10.289503      -279.9916
  13   2.0000     -10.287318      -279.9321
  14   2.0000     -10.285600      -279.8854
  15   2.0000     -10.278374      -279.6888
  16   2.0000      -8.078543      -219.8283
  17   2.0000      -8.077813      -219.8085
  18   2.0000      -6.037208      -164.2808
  19   2.0000      -6.036438      -164.2598
  20   2.0000      -6.033169      -164.1709
  21   2.0000      -6.032292      -164.1470
  22   2.0000      -6.029163      -164.0619
  23   2.0000      -6.028372      -164.0403
  24   2.0000      -1.005772       -27.3684
  25   2.0000      -0.980457       -26.6796
  26   2.0000      -0.916788       -24.9471
  27   2.0000      -0.900473       -24.5031
  28   2.0000      -0.871936       -23.7266
  29   2.0000      -0.842956       -22.9380
  30   2.0000      -0.836228       -22.7549
  31   2.0000      -0.813123       -22.1262
  32   2.0000      -0.783309       -21.3149
  33   2.0000      -0.772944       -21.0329
  34   2.0000      -0.709330       -19.3018
  35   2.0000      -0.696221       -18.9451
  36   2.0000      -0.688118       -18.7246
  37   2.0000      -0.665392       -18.1062
  38   2.0000      -0.635614       -17.2959
  39   2.0000      -0.613191       -16.6858
  40   2.0000      -0.593674       -16.1547
  41   2.0000      -0.578581       -15.7440
  42   2.0000      -0.569385       -15.4938
  43   2.0000      -0.556949       -15.1554
  44   2.0000      -0.526724       -14.3329
  45   2.0000      -0.522708       -14.2236
  46   2.0000      -0.517860       -14.0917
  47   2.0000      -0.510570       -13.8933
  48   2.0000      -0.504353       -13.7241
  49   2.0000      -0.500586       -13.6216
  50   2.0000      -0.488914       -13.3040
  51   2.0000      -0.476908       -12.9773
  52   2.0000      -0.472953       -12.8697
  53   2.0000      -0.466842       -12.7034
  54   2.0000      -0.455911       -12.4060
  55   2.0000      -0.450606       -12.2616
  56   2.0000      -0.444895       -12.1062
  57   2.0000      -0.440765       -11.9938
  58   2.0000      -0.437721       -11.9110
  59   2.0000      -0.419197       -11.4069
  60   2.0000      -0.416877       -11.3438
  61   2.0000      -0.411438       -11.1958
  62   2.0000      -0.406875       -11.0716
  63   2.0000      -0.348706        -9.4888
  64   2.0000      -0.327869        -8.9218
  65   2.0000      -0.324763        -8.8373
  66   2.0000      -0.298750        -8.1294
  67   0.0000       0.027023         0.7353
  68   0.0000       0.079710         2.1690
  69   0.0000       0.107135         2.9153
  70   0.0000       0.115506         3.1431
  71   0.0000       0.121579         3.3083

MULLIKEN ATOMIC CHARGES
-----------------------
   0 S :    0.100786
   1 C :   -0.121482
   2 C :   -0.053155
   3 C :   -0.039849
   4 C :   -0.127540
   5 H :    0.030411
   6 C :    0.080433
   7 H :    0.014103
   8 H :    0.026453
   9 C :   -0.100906
  10 H :    0.036569
  11 H :    0.038699
  12 C :   -0.067872
  13 H :    0.053594
  14 H :    0.040225
  15 H :    0.027807
  16 S :    0.090996
  17 C :   -0.091779
  18 C :   -0.034723
  19 C :   -0.067163
  20 C :   -0.112144
  21 H :    0.030908
  22 C :    0.088477
  23 H :    0.015906
  24 H :    0.012172
  25 C :   -0.126655
  26 H :    0.040007
  27 H :    0.031906
  28 C :   -0.019912
  29 H :    0.035902
  30 H :    0.042884
  31 H :    0.026742
  32 H :    0.038165
  33 H :    0.060035
Sum of atomic charges:   -0.0000000

LOEWDIN ATOMIC CHARGES
----------------------
   0 S :    0.419289
   1 C :   -0.186366
   2 C :   -0.050926
   3 C :   -0.078245
   4 C :   -0.210822
   5 H :    0.032218
   6 C :   -0.025468
   7 H :    0.024324
   8 H :    0.031389
   9 C :   -0.043485
  10 H :    0.026029
  11 H :    0.021607
  12 C :   -0.070556
  13 H :    0.031095
  14 H :    0.027020
  15 H :    0.030861
  16 S :    0.388801
  17 C :   -0.169238
  18 C :   -0.071523
  19 C :   -0.053623
  20 C :   -0.193200
  21 H :    0.034974
  22 C :   -0.039535
  23 H :    0.028758
  24 H :    0.017244
  25 C :   -0.041297
  26 H :    0.027766
  27 H :    0.020041
  28 C :   -0.055121
  29 H :    0.022242
  30 H :    0.028811
  31 H :    0.021457
  32 H :    0.023959
  33 H :    0.031521

  Mayer bond orders larger than 0.100000
B(  0-S ,  1-C ) :   1.1165 B(  0-S ,  4-C ) :   1.1472 B(  1-C ,  2-C ) :   1.6628
B(  1-C , 32-H ) :   0.9749 B(  2-C ,  3-C ) :   1.1884 B(  2-C ,  6-C ) :   1.0142
B(  3-C ,  4-C ) :   1.6020 B(  3-C ,  5-H ) :   0.9861 B(  4-C , 20-C ) :   1.0219
B(  6-C ,  7-H ) :   0.9422 B(  6-C ,  8-H ) :   0.9327 B(  6-C ,  9-C ) :   1.0749
B(  9-C , 10-H ) :   0.9605 B(  9-C , 11-H ) :   0.9447 B(  9-C , 12-C ) :   1.0783
B( 12-C , 13-H ) :   0.9750 B( 12-C , 14-H ) :   0.9733 B( 12-C , 15-H ) :   0.9733
B( 16-S , 17-C ) :   1.1419 B( 16-S , 20-C ) :   1.1289 B( 17-C , 18-C ) :   1.6247
B( 17-C , 33-H ) :   0.9688 B( 18-C , 19-C ) :   1.2219 B( 18-C , 21-H ) :   0.9850
B( 19-C , 20-C ) :   1.6073 B( 19-C , 22-C ) :   1.0552 B( 22-C , 23-H ) :   0.9287
B( 22-C , 24-H ) :   0.9288 B( 22-C , 25-C ) :   1.0521 B( 25-C , 26-H ) :   0.9527
B( 25-C , 27-H ) :   0.9612 B( 25-C , 28-C ) :   1.0624 B( 28-C , 29-H ) :   0.9791
B( 28-C , 30-H ) :   0.9777 B( 28-C , 31-H ) :   0.9782

Dispersion correction           -0.013767499
FINAL SINGLE POINT ENERGY     -1339.872392141337

DIPOLE MOMENT
-------------
                                X             Y             Z
Electronic contribution:     -3.11141     -10.71991       7.15111
Nuclear contribution   :      3.34059      10.97969      -7.20862
                        -----------------------------------------
Total Dipole Moment    :      0.22918       0.25978      -0.05751
                        -----------------------------------------
Magnitude (a.u.)       :      0.35117
Magnitude (Debye)      :      0.89260

Rotational constants in cm-1:     0.022059     0.007548     0.005956
Rotational constants in MHz :   661.313252   226.282672   178.546854

                             ****ORCA TERMINATED NORMALLY****
TOTAL RUN TIME: 0 days 0 hours 0 minutes 33 seconds 130 msec
