                         Program Version 4.2.1 -  RELEASE  -
|  1> ! wB97X-D3 SP def2-SVP
|  2> %pal
|  3> nprocs 16
|  4> end
|  5>
|  6> * xyz 0 1
|  7> S 	 71.2273 	 29.3975 	 70.9242
|  8> C 	 70.582 	 30.293 	 69.619
|  9> C 	 70.9247 	 29.7485 	 68.3704
| 10> C 	 71.3745 	 28.4198 	 68.5584
| 11> C 	 71.6108 	 28.0943 	 69.9097
| 12> H 	 71.502 	 27.7394 	 67.7471
| 13> C 	 70.5246 	 30.2836 	 66.991
| 14> H 	 71.3896 	 30.672 	 66.4372
| 15> H 	 70.0382 	 31.1887 	 67.199
| 16> C 	 69.6178 	 29.3968 	 66.0399
| 17> H 	 70.1577 	 28.5007 	 65.8615
| 18> H 	 68.7531 	 29.0739 	 66.5876
| 19> C 	 69.2806 	 29.9813 	 64.6666
| 20> H 	 69.8454 	 29.7235 	 63.7709
| 21> H 	 68.2835 	 29.7829 	 64.3517
| 22> H 	 69.2939 	 31.0281 	 64.7257
| 23> S 	 73.7769 	 26.9303 	 70.8841
| 24> C 	 73.8646 	 25.1716 	 71.0803
| 25> C 	 72.6434 	 24.5887 	 70.7507
| 26> C 	 71.648 	 25.5184 	 70.333
| 27> C 	 72.137 	 26.814 	 70.3754
| 28> H 	 72.5679 	 23.5223 	 70.9766
| 29> C 	 70.2537 	 25.1574 	 69.8215
| 30> H 	 69.7401 	 26.0334 	 69.6547
| 31> H 	 69.6181 	 24.866 	 70.6606
| 32> C 	 70.3158 	 24.1844 	 68.6188
| 33> H 	 69.2371 	 23.9489 	 68.4048
| 34> H 	 70.7888 	 23.3204 	 69.0083
| 35> C 	 71.0236 	 24.6148 	 67.3499
| 36> H 	 70.4825 	 25.4631 	 67.0642
| 37> H 	 70.8738 	 23.8861 	 66.5341
| 38> H 	 72.0794 	 24.9492 	 67.4562
| 39> H 	 69.9817 	 31.2252 	 69.7187
| 40> H 	 74.6939 	 24.6598 	 71.4214
| 41> *
| 42>
| 43>                          ****END OF INPUT****

CARTESIAN COORDINATES (ANGSTROEM)
---------------------------------
  S     71.227300   29.397500   70.924200
  C     70.582000   30.293000   69.619000
  C     70.924700   29.748500   68.370400
  C     71.374500   28.419800   68.558400
  C     71.610800   28.094300   69.909700
  H     71.502000   27.739400   67.747100
  C     70.524600   30.283600   66.991000
  H     71.389600   30.672000   66.437200
  H     70.038200   31.188700   67.199000
  C     69.617800   29.396800   66.039900
  H     70.157700   28.500700   65.861500
  H     68.753100   29.073900   66.587600
  C     69.280600   29.981300   64.666600
  H     69.845400   29.723500   63.770900
  H     68.283500   29.782900   64.351700
  H     69.293900   31.028100   64.725700
  S     73.776900   26.930300   70.884100
  C     73.864600   25.171600   71.080300
  C     72.643400   24.588700   70.750700
  C     71.648000   25.518400   70.333000
  C     72.137000   26.814000   70.375400
  H     72.567900   23.522300   70.976600
  C     70.253700   25.157400   69.821500
  H     69.740100   26.033400   69.654700
  H     69.618100   24.866000   70.660600
  C     70.315800   24.184400   68.618800
  H     69.237100   23.948900   68.404800
  H     70.788800   23.320400   69.008300
  C     71.023600   24.614800   67.349900
  H     70.482500   25.463100   67.064200
  H     70.873800   23.886100   66.534100
  H     72.079400   24.949200   67.456200
  H     69.981700   31.225200   69.718700
  H     74.693900   24.659800   71.421400

 Total Charge           Charge          ....    0
 Multiplicity           Mult            ....    1
 Number of Electrons    NEL             ....  134
 Basis Dimension        Dim             ....  322

ORBITAL ENERGIES
----------------

  NO   OCC          E(Eh)            E(eV)
   0   2.0000     -88.970676     -2421.0152
   1   2.0000     -88.961480     -2420.7650
   2   2.0000     -10.322895      -280.9003
   3   2.0000     -10.320161      -280.8259
   4   2.0000     -10.315635      -280.7027
   5   2.0000     -10.311708      -280.5959
   6   2.0000     -10.301807      -280.3264
   7   2.0000     -10.301398      -280.3153
   8   2.0000     -10.294444      -280.1261
   9   2.0000     -10.292649      -280.0772
  10   2.0000     -10.289930      -280.0032
  11   2.0000     -10.288397      -279.9615
  12   2.0000     -10.286475      -279.9092
  13   2.0000     -10.283944      -279.8403
  14   2.0000     -10.275372      -279.6071
  15   2.0000     -10.273342      -279.5519
  16   2.0000      -8.086697      -220.0502
  17   2.0000      -8.076616      -219.7759
  18   2.0000      -6.044988      -164.4925
  19   2.0000      -6.040914      -164.3816
  20   2.0000      -6.037726      -164.2949
  21   2.0000      -6.035056      -164.2222
  22   2.0000      -6.031025      -164.1125
  23   2.0000      -6.027478      -164.0160
  24   2.0000      -1.011821       -27.5330
  25   2.0000      -0.985813       -26.8253
  26   2.0000      -0.908836       -24.7307
  27   2.0000      -0.906495       -24.6670
  28   2.0000      -0.868771       -23.6405
  29   2.0000      -0.853522       -23.2255
  30   2.0000      -0.847171       -23.0527
  31   2.0000      -0.812760       -22.1163
  32   2.0000      -0.787762       -21.4361
  33   2.0000      -0.776023       -21.1166
  34   2.0000      -0.717568       -19.5260
  35   2.0000      -0.701897       -19.0996
  36   2.0000      -0.694167       -18.8892
  37   2.0000      -0.655890       -17.8477
  38   2.0000      -0.640716       -17.4348
  39   2.0000      -0.623828       -16.9752
  40   2.0000      -0.602060       -16.3829
  41   2.0000      -0.567862       -15.4523
  42   2.0000      -0.555602       -15.1187
  43   2.0000      -0.547244       -14.8913
  44   2.0000      -0.542424       -14.7601
  45   2.0000      -0.526161       -14.3176
  46   2.0000      -0.523816       -14.2537
  47   2.0000      -0.506313       -13.7775
  48   2.0000      -0.500908       -13.6304
  49   2.0000      -0.496820       -13.5192
  50   2.0000      -0.489982       -13.3331
  51   2.0000      -0.480555       -13.0766
  52   2.0000      -0.470935       -12.8148
  53   2.0000      -0.468468       -12.7477
  54   2.0000      -0.463403       -12.6098
  55   2.0000      -0.452450       -12.3118
  56   2.0000      -0.444997       -12.1090
  57   2.0000      -0.439219       -11.9517
  58   2.0000      -0.435114       -11.8401
  59   2.0000      -0.432658       -11.7732
  60   2.0000      -0.419008       -11.4018
  61   2.0000      -0.416456       -11.3323
  62   2.0000      -0.408975       -11.1288
  63   2.0000      -0.338530        -9.2119
  64   2.0000      -0.332633        -9.0514
  65   2.0000      -0.324021        -8.8171
  66   2.0000      -0.295535        -8.0419
  67   0.0000       0.044958         1.2234
  68   0.0000       0.058749         1.5986
  69   0.0000       0.116123         3.1599
  70   0.0000       0.129089         3.5127
  71   0.0000       0.130550         3.5524

MULLIKEN ATOMIC CHARGES
-----------------------
   0 S :    0.151853
   1 C :   -0.147106
   2 C :   -0.086174
   3 C :    0.045422
   4 C :   -0.179262
   5 H :   -0.009050
   6 C :    0.083444
   7 H :    0.035058
   8 H :   -0.008981
   9 C :   -0.055688
  10 H :    0.024195
  11 H :    0.030863
  12 C :   -0.020360
  13 H :    0.034627
  14 H :    0.016864
  15 H :    0.009903
  16 S :    0.105737
  17 C :   -0.076295
  18 C :   -0.059266
  19 C :   -0.036272
  20 C :   -0.179086
  21 H :    0.030227
  22 C :    0.133976
  23 H :   -0.014037
  24 H :    0.025991
  25 C :   -0.080973
  26 H :    0.034264
  27 H :    0.021834
  28 C :   -0.029837
  29 H :    0.009351
  30 H :    0.040898
  31 H :    0.057248
  32 H :    0.062838
  33 H :    0.027795
Sum of atomic charges:    0.0000000

LOEWDIN ATOMIC CHARGES
----------------------
   0 S :    0.458460
   1 C :   -0.218571
   2 C :   -0.063645
   3 C :   -0.053377
   4 C :   -0.230401
   5 H :    0.023469
   6 C :   -0.031623
   7 H :    0.035728
   8 H :    0.018499
   9 C :   -0.033372
  10 H :    0.019280
  11 H :    0.025564
  12 C :   -0.065689
  13 H :    0.029883
  14 H :    0.026718
  15 H :    0.019117
  16 S :    0.410516
  17 C :   -0.170222
  18 C :   -0.071507
  19 C :   -0.058260
  20 C :   -0.207486
  21 H :    0.035481
  22 C :   -0.030019
  23 H :    0.017087
  24 H :    0.039160
  25 C :   -0.034984
  26 H :    0.031580
  27 H :    0.014345
  28 C :   -0.066045
  29 H :    0.015676
  30 H :    0.033804
  31 H :    0.034004
  32 H :    0.034852
  33 H :    0.011981

  Mayer bond orders larger than 0.100000
B(  0-S ,  1-C ) :   1.1782 B(  0-S ,  4-C ) :   1.1830 B(  1-C ,  2-C ) :   1.5599
B(  1-C ,  4-C ) :   0.1059 B(  1-C , 32-H ) :   0.9596 B(  2-C ,  3-C ) :   1.2822
B(  2-C ,  6-C ) :   1.0351 B(  3-C ,  4-C ) :   1.5299 B(  3-C ,  5-H ) :   1.0021
B(  4-C , 20-C ) :   0.9921 B(  6-C ,  7-H ) :   0.9311 B(  6-C ,  8-H ) :   0.9320
B(  6-C ,  9-C ) :   1.0590 B(  9-C , 10-H ) :   0.9559 B(  9-C , 11-H ) :   0.9615
B(  9-C , 12-C ) :   1.0697 B( 12-C , 13-H ) :   0.9761 B( 12-C , 14-H ) :   0.9717
B( 12-C , 15-H ) :   0.9767 B( 16-S , 17-C ) :   1.1462 B( 16-S , 20-C ) :   1.1717
B( 17-C , 18-C ) :   1.6212 B( 17-C , 20-C ) :   0.1060 B( 17-C , 33-H ) :   0.9788
B( 18-C , 19-C ) :   1.2147 B( 18-C , 21-H ) :   0.9869 B( 19-C , 20-C ) :   1.6090
B( 19-C , 22-C ) :   1.0412 B( 22-C , 23-H ) :   0.9192 B( 22-C , 24-H ) :   0.9270
B( 22-C , 25-C ) :   1.0566 B( 25-C , 26-H ) :   0.9540 B( 25-C , 27-H ) :   0.9601
B( 25-C , 28-C ) :   1.0771 B( 28-C , 29-H ) :   0.9691 B( 28-C , 30-H ) :   0.9685
B( 28-C , 31-H ) :   0.9693

Dispersion correction           -0.015094148
FINAL SINGLE POINT ENERGY     -1339.860708349648

DIPOLE MOMENT
-------------
                                X             Y             Z
Electronic contribution:     15.10701       5.24613      26.23174
Nuclear contribution   :    -15.56315      -5.40752     -26.73367
                        -----------------------------------------
Total Dipole Moment    :     -0.45613      -0.16140      -0.50193
                        -----------------------------------------
Magnitude (a.u.)       :      0.69717
Magnitude (Debye)      :      1.77206

Rotational constants in cm-1:     0.018381     0.009276     0.007002
Rotational constants in MHz :   551.058830   278.102358   209.903561

                             ****ORCA TERMINATED NORMALLY****
TOTAL RUN TIME: 0 days 0 hours 0 minutes 31 seconds 264 msec
