                         Program Version 4.2.1 -  RELEASE  -
|  1> ! wB97X-D3 SP def2-SVP
|  2> %pal
|  3> nprocs 16
|  4> end
|  5>
|  6> * xyz 0 1
|  7> S 	 -44.3086 	 51.9782 	 105.824
|  8> C 	 -44.303 	 51.2643 	 104.284
|  9> C 	 -44.0952 	 52.1563 	 103.284
| 10> C 	 -43.9124 	 53.458 	 103.794
| 11> C 	 -44.12 	 53.5666 	 105.206
| 12> H 	 -43.6937 	 54.3908 	 103.161
| 13> C 	 -43.962 	 51.8242 	 101.817
| 14> H 	 -44.1812 	 50.7255 	 101.625
| 15> H 	 -42.9225 	 51.9521 	 101.586
| 16> C 	 -44.8004 	 52.5833 	 100.802
| 17> H 	 -44.6706 	 53.6529 	 100.962
| 18> H 	 -44.5281 	 52.3518 	 99.7797
| 19> C 	 -46.277 	 52.0889 	 100.87
| 20> H 	 -46.9847 	 52.6241 	 100.246
| 21> H 	 -46.4854 	 51.0949 	 100.798
| 22> H 	 -46.5826 	 52.2897 	 101.882
| 23> S 	 -43.3825 	 54.4826 	 107.74
| 24> C 	 -43.3714 	 56.2361 	 108.043
| 25> C 	 -43.6661 	 56.9911 	 106.942
| 26> C 	 -44.1235 	 56.107 	 105.886
| 27> C 	 -43.9309 	 54.7385 	 106.093
| 28> H 	 -43.5455 	 58.0864 	 106.904
| 29> C 	 -44.5882 	 56.741 	 104.579
| 30> H 	 -43.9732 	 56.3211 	 103.728
| 31> H 	 -44.4042 	 57.8475 	 104.705
| 32> C 	 -46.0771 	 56.6149 	 104.288
| 33> H 	 -46.3944 	 55.604 	 104.497
| 34> H 	 -46.2363 	 56.8512 	 103.303
| 35> C 	 -46.9534 	 57.4602 	 105.136
| 36> H 	 -47.3385 	 56.8247 	 105.919
| 37> H 	 -47.7822 	 57.8901 	 104.502
| 38> H 	 -46.3627 	 58.2152 	 105.575
| 39> H 	 -44.4351 	 50.251 	 104.043
| 40> H 	 -43.0601 	 56.6073 	 109.064
| 41> *
| 42>
| 43>                          ****END OF INPUT****

CARTESIAN COORDINATES (ANGSTROEM)
---------------------------------
  S    -44.308600   51.978200  105.824000
  C    -44.303000   51.264300  104.284000
  C    -44.095200   52.156300  103.284000
  C    -43.912400   53.458000  103.794000
  C    -44.120000   53.566600  105.206000
  H    -43.693700   54.390800  103.161000
  C    -43.962000   51.824200  101.817000
  H    -44.181200   50.725500  101.625000
  H    -42.922500   51.952100  101.586000
  C    -44.800400   52.583300  100.802000
  H    -44.670600   53.652900  100.962000
  H    -44.528100   52.351800   99.779700
  C    -46.277000   52.088900  100.870000
  H    -46.984700   52.624100  100.246000
  H    -46.485400   51.094900  100.798000
  H    -46.582600   52.289700  101.882000
  S    -43.382500   54.482600  107.740000
  C    -43.371400   56.236100  108.043000
  C    -43.666100   56.991100  106.942000
  C    -44.123500   56.107000  105.886000
  C    -43.930900   54.738500  106.093000
  H    -43.545500   58.086400  106.904000
  C    -44.588200   56.741000  104.579000
  H    -43.973200   56.321100  103.728000
  H    -44.404200   57.847500  104.705000
  C    -46.077100   56.614900  104.288000
  H    -46.394400   55.604000  104.497000
  H    -46.236300   56.851200  103.303000
  C    -46.953400   57.460200  105.136000
  H    -47.338500   56.824700  105.919000
  H    -47.782200   57.890100  104.502000
  H    -46.362700   58.215200  105.575000
  H    -44.435100   50.251000  104.043000
  H    -43.060100   56.607300  109.064000

 Total Charge           Charge          ....    0
 Multiplicity           Mult            ....    1
 Number of Electrons    NEL             ....  134
 Basis Dimension        Dim             ....  322

ORBITAL ENERGIES
----------------

  NO   OCC          E(Eh)            E(eV)
   0   2.0000     -88.970487     -2421.0100
   1   2.0000     -88.966747     -2420.9083
   2   2.0000     -10.336806      -281.2788
   3   2.0000     -10.333303      -281.1835
   4   2.0000     -10.325838      -280.9803
   5   2.0000     -10.306144      -280.4444
   6   2.0000     -10.305514      -280.4273
   7   2.0000     -10.303094      -280.3614
   8   2.0000     -10.302260      -280.3387
   9   2.0000     -10.297796      -280.2173
  10   2.0000     -10.295618      -280.1580
  11   2.0000     -10.294893      -280.1383
  12   2.0000     -10.289232      -279.9842
  13   2.0000     -10.266434      -279.3639
  14   2.0000     -10.265941      -279.3505
  15   2.0000     -10.265580      -279.3406
  16   2.0000      -8.086495      -220.0447
  17   2.0000      -8.081174      -219.8999
  18   2.0000      -6.044889      -164.4898
  19   2.0000      -6.040739      -164.3769
  20   2.0000      -6.039812      -164.3516
  21   2.0000      -6.037394      -164.2858
  22   2.0000      -6.035795      -164.2423
  23   2.0000      -6.031757      -164.1324
  24   2.0000      -1.013307       -27.5735
  25   2.0000      -0.988161       -26.8892
  26   2.0000      -0.916891       -24.9499
  27   2.0000      -0.913947       -24.8698
  28   2.0000      -0.872172       -23.7330
  29   2.0000      -0.851660       -23.1749
  30   2.0000      -0.846807       -23.0428
  31   2.0000      -0.814600       -22.1664
  32   2.0000      -0.786363       -21.3980
  33   2.0000      -0.771224       -20.9861
  34   2.0000      -0.713453       -19.4140
  35   2.0000      -0.702166       -19.1069
  36   2.0000      -0.684123       -18.6159
  37   2.0000      -0.663941       -18.0667
  38   2.0000      -0.635014       -17.2796
  39   2.0000      -0.622418       -16.9369
  40   2.0000      -0.592322       -16.1179
  41   2.0000      -0.574202       -15.6248
  42   2.0000      -0.558680       -15.2025
  43   2.0000      -0.557489       -15.1700
  44   2.0000      -0.552828       -15.0432
  45   2.0000      -0.541519       -14.7355
  46   2.0000      -0.518763       -14.1163
  47   2.0000      -0.508353       -13.8330
  48   2.0000      -0.501689       -13.6517
  49   2.0000      -0.494056       -13.4440
  50   2.0000      -0.487698       -13.2709
  51   2.0000      -0.483885       -13.1672
  52   2.0000      -0.474608       -12.9148
  53   2.0000      -0.468711       -12.7543
  54   2.0000      -0.461085       -12.5468
  55   2.0000      -0.448095       -12.1933
  56   2.0000      -0.443686       -12.0733
  57   2.0000      -0.439369       -11.9558
  58   2.0000      -0.430986       -11.7277
  59   2.0000      -0.427494       -11.6327
  60   2.0000      -0.416986       -11.3468
  61   2.0000      -0.412404       -11.2221
  62   2.0000      -0.407970       -11.1014
  63   2.0000      -0.359415        -9.7802
  64   2.0000      -0.336007        -9.1432
  65   2.0000      -0.330597        -8.9960
  66   2.0000      -0.285074        -7.7573
  67   0.0000       0.020308         0.5526
  68   0.0000       0.084427         2.2974
  69   0.0000       0.095875         2.6089
  70   0.0000       0.120712         3.2847
  71   0.0000       0.128109         3.4860

MULLIKEN ATOMIC CHARGES
-----------------------
   0 S :    0.121918
   1 C :   -0.087600
   2 C :   -0.074611
   3 C :   -0.021965
   4 C :   -0.137615
   5 H :    0.034013
   6 C :    0.040419
   7 H :    0.021902
   8 H :    0.038470
   9 C :   -0.049913
  10 H :    0.030687
  11 H :    0.028593
  12 C :   -0.023869
  13 H :    0.029553
  14 H :    0.004813
  15 H :    0.015367
  16 S :    0.087804
  17 C :   -0.118565
  18 C :   -0.015516
  19 C :   -0.086311
  20 C :   -0.107968
  21 H :    0.043942
  22 C :   -0.007260
  23 H :    0.046630
  24 H :    0.020972
  25 C :   -0.015814
  26 H :    0.028850
  27 H :    0.004444
  28 C :   -0.028983
  29 H :    0.034912
  30 H :    0.040859
  31 H :    0.003889
  32 H :    0.020082
  33 H :    0.077868
Sum of atomic charges:   -0.0000000

LOEWDIN ATOMIC CHARGES
----------------------
   0 S :    0.448692
   1 C :   -0.206574
   2 C :   -0.071053
   3 C :   -0.073067
   4 C :   -0.205779
   5 H :    0.038254
   6 C :   -0.032006
   7 H :    0.034641
   8 H :    0.032722
   9 C :   -0.033651
  10 H :    0.022921
  11 H :    0.024237
  12 C :   -0.062128
  13 H :    0.025290
  14 H :    0.011384
  15 H :    0.025555
  16 S :    0.383667
  17 C :   -0.175667
  18 C :   -0.074345
  19 C :   -0.060467
  20 C :   -0.197744
  21 H :    0.042666
  22 C :   -0.034888
  23 H :    0.032325
  24 H :    0.029328
  25 C :   -0.039529
  26 H :    0.026610
  27 H :    0.011220
  28 C :   -0.058109
  29 H :    0.028686
  30 H :    0.035476
  31 H :    0.012147
  32 H :    0.021274
  33 H :    0.037913

  Mayer bond orders larger than 0.100000
B(  0-S ,  1-C ) :   1.1564 B(  0-S ,  4-C ) :   1.1820 B(  1-C ,  2-C ) :   1.5889
B(  1-C , 32-H ) :   0.9666 B(  2-C ,  3-C ) :   1.2909 B(  2-C ,  6-C ) :   1.0156
B(  3-C ,  4-C ) :   1.5108 B(  3-C ,  5-H ) :   0.9716 B(  4-C , 20-C ) :   1.0681
B(  6-C ,  7-H ) :   0.9442 B(  6-C ,  8-H ) :   0.9361 B(  6-C ,  9-C ) :   1.0791
B(  9-C , 10-H ) :   0.9566 B(  9-C , 11-H ) :   0.9560 B(  9-C , 12-C ) :   1.0628
B( 12-C , 13-H ) :   0.9753 B( 12-C , 14-H ) :   0.9741 B( 12-C , 15-H ) :   0.9755
B( 16-S , 17-C ) :   1.1535 B( 16-S , 20-C ) :   1.1197 B( 17-C , 18-C ) :   1.6178
B( 17-C , 33-H ) :   0.9579 B( 18-C , 19-C ) :   1.2308 B( 18-C , 21-H ) :   0.9840
B( 19-C , 20-C ) :   1.6092 B( 19-C , 22-C ) :   1.0343 B( 22-C , 23-H ) :   0.9387
B( 22-C , 24-H ) :   0.9394 B( 22-C , 25-C ) :   1.0760 B( 25-C , 26-H ) :   0.9601
B( 25-C , 27-H ) :   0.9561 B( 25-C , 28-C ) :   1.0693 B( 28-C , 29-H ) :   0.9778
B( 28-C , 30-H ) :   0.9765 B( 28-C , 31-H ) :   0.9780

Dispersion correction           -0.014665632
FINAL SINGLE POINT ENERGY     -1339.864840129197

DIPOLE MOMENT
-------------
                                X             Y             Z
Electronic contribution:     12.84653      -8.47405      24.13553
Nuclear contribution   :    -12.85598       8.73451     -24.66541
                        -----------------------------------------
Total Dipole Moment    :     -0.00945       0.26046      -0.52989
                        -----------------------------------------
Magnitude (a.u.)       :      0.59051
Magnitude (Debye)      :      1.50096

Rotational constants in cm-1:     0.019574     0.009288     0.006959
Rotational constants in MHz :   586.803259   278.447066   208.628187

                             ****ORCA TERMINATED NORMALLY****
TOTAL RUN TIME: 0 days 0 hours 0 minutes 31 seconds 502 msec
