                         Program Version 4.2.1 -  RELEASE  -
|  1> ! wB97X-D3 SP def2-SVP
|  2> %pal
|  3> nprocs 16
|  4> end
|  5>
|  6> * xyz 0 1
|  7> S 	 -45.1729 	 24.2185 	 83.693
|  8> C 	 -44.7026 	 23.1517 	 82.4703
|  9> C 	 -45.2143 	 23.5857 	 81.251
| 10> C 	 -45.8292 	 24.8909 	 81.2823
| 11> C 	 -45.76 	 25.4428 	 82.5263
| 12> H 	 -46.1878 	 25.4054 	 80.4054
| 13> C 	 -44.9848 	 22.9018 	 79.8911
| 14> H 	 -45.6346 	 23.4333 	 79.1902
| 15> H 	 -45.2974 	 21.9493 	 79.9008
| 16> C 	 -43.4686 	 22.7954 	 79.389
| 17> H 	 -43.281 	 22.5324 	 78.3035
| 18> H 	 -42.9906 	 23.7872 	 79.562
| 19> C 	 -42.6407 	 21.8007 	 80.1414
| 20> H 	 -42.6146 	 21.9967 	 81.2357
| 21> H 	 -42.9953 	 20.8011 	 80.0261
| 22> H 	 -41.5797 	 21.9067 	 79.8591
| 23> S 	 -47.8422 	 26.8842 	 83.8409
| 24> C 	 -47.6771 	 28.5819 	 83.9012
| 25> C 	 -46.6376 	 29.0584 	 83.1115
| 26> C 	 -45.8655 	 28.0248 	 82.4918
| 27> C 	 -46.2811 	 26.7251 	 82.9068
| 28> H 	 -46.4577 	 30.1171 	 82.9067
| 29> C 	 -44.7976 	 28.4459 	 81.4912
| 30> H 	 -43.9236 	 27.7974 	 81.6552
| 31> H 	 -44.4229 	 29.3868 	 81.7198
| 32> C 	 -45.1347 	 28.2683 	 79.9523
| 33> H 	 -45.1828 	 27.1611 	 79.8059
| 34> H 	 -44.3055 	 28.6417 	 79.4197
| 35> C 	 -46.4563 	 28.9759 	 79.6266
| 36> H 	 -47.3563 	 28.4407 	 80.0273
| 37> H 	 -46.7455 	 28.8733 	 78.5841
| 38> H 	 -46.4826 	 30.0582 	 79.8737
| 39> H 	 -44.2741 	 22.2031 	 82.7431
| 40> H 	 -48.3028 	 29.2146 	 84.4928
| 41> *
| 42>
| 43>                          ****END OF INPUT****

CARTESIAN COORDINATES (ANGSTROEM)
---------------------------------
  S    -45.172900   24.218500   83.693000
  C    -44.702600   23.151700   82.470300
  C    -45.214300   23.585700   81.251000
  C    -45.829200   24.890900   81.282300
  C    -45.760000   25.442800   82.526300
  H    -46.187800   25.405400   80.405400
  C    -44.984800   22.901800   79.891100
  H    -45.634600   23.433300   79.190200
  H    -45.297400   21.949300   79.900800
  C    -43.468600   22.795400   79.389000
  H    -43.281000   22.532400   78.303500
  H    -42.990600   23.787200   79.562000
  C    -42.640700   21.800700   80.141400
  H    -42.614600   21.996700   81.235700
  H    -42.995300   20.801100   80.026100
  H    -41.579700   21.906700   79.859100
  S    -47.842200   26.884200   83.840900
  C    -47.677100   28.581900   83.901200
  C    -46.637600   29.058400   83.111500
  C    -45.865500   28.024800   82.491800
  C    -46.281100   26.725100   82.906800
  H    -46.457700   30.117100   82.906700
  C    -44.797600   28.445900   81.491200
  H    -43.923600   27.797400   81.655200
  H    -44.422900   29.386800   81.719800
  C    -45.134700   28.268300   79.952300
  H    -45.182800   27.161100   79.805900
  H    -44.305500   28.641700   79.419700
  C    -46.456300   28.975900   79.626600
  H    -47.356300   28.440700   80.027300
  H    -46.745500   28.873300   78.584100
  H    -46.482600   30.058200   79.873700
  H    -44.274100   22.203100   82.743100
  H    -48.302800   29.214600   84.492800

 Total Charge           Charge          ....    0
 Multiplicity           Mult            ....    1
 Number of Electrons    NEL             ....  134
 Basis Dimension        Dim             ....  322

ORBITAL ENERGIES
----------------

  NO   OCC          E(Eh)            E(eV)
   0   2.0000     -88.966270     -2420.8953
   1   2.0000     -88.963635     -2420.8236
   2   2.0000     -10.329938      -281.0919
   3   2.0000     -10.327859      -281.0353
   4   2.0000     -10.314385      -280.6687
   5   2.0000     -10.314156      -280.6625
   6   2.0000     -10.307427      -280.4794
   7   2.0000     -10.304169      -280.3907
   8   2.0000     -10.296694      -280.1873
   9   2.0000     -10.293436      -280.0986
  10   2.0000     -10.292304      -280.0678
  11   2.0000     -10.291156      -280.0366
  12   2.0000     -10.288040      -279.9518
  13   2.0000     -10.287678      -279.9420
  14   2.0000     -10.280823      -279.7554
  15   2.0000     -10.275358      -279.6067
  16   2.0000      -8.080559      -219.8832
  17   2.0000      -8.079260      -219.8478
  18   2.0000      -6.039039      -164.3306
  19   2.0000      -6.037670      -164.2934
  20   2.0000      -6.035179      -164.2256
  21   2.0000      -6.033589      -164.1823
  22   2.0000      -6.031331      -164.1209
  23   2.0000      -6.030096      -164.0872
  24   2.0000      -1.004759       -27.3409
  25   2.0000      -0.981175       -26.6991
  26   2.0000      -0.905053       -24.6277
  27   2.0000      -0.904515       -24.6131
  28   2.0000      -0.872617       -23.7451
  29   2.0000      -0.852307       -23.1924
  30   2.0000      -0.845500       -23.0072
  31   2.0000      -0.809135       -22.0177
  32   2.0000      -0.784667       -21.3519
  33   2.0000      -0.770369       -20.9628
  34   2.0000      -0.711311       -19.3558
  35   2.0000      -0.693529       -18.8719
  36   2.0000      -0.690730       -18.7957
  37   2.0000      -0.659477       -17.9453
  38   2.0000      -0.650577       -17.7031
  39   2.0000      -0.619371       -16.8540
  40   2.0000      -0.591924       -16.1071
  41   2.0000      -0.567473       -15.4417
  42   2.0000      -0.558165       -15.1884
  43   2.0000      -0.543925       -14.8010
  44   2.0000      -0.540042       -14.6953
  45   2.0000      -0.538281       -14.6474
  46   2.0000      -0.519105       -14.1256
  47   2.0000      -0.513041       -13.9606
  48   2.0000      -0.508893       -13.8477
  49   2.0000      -0.490469       -13.3463
  50   2.0000      -0.487988       -13.2788
  51   2.0000      -0.483288       -13.1509
  52   2.0000      -0.475404       -12.9364
  53   2.0000      -0.465467       -12.6660
  54   2.0000      -0.461355       -12.5541
  55   2.0000      -0.443255       -12.0616
  56   2.0000      -0.440818       -11.9953
  57   2.0000      -0.431049       -11.7295
  58   2.0000      -0.428581       -11.6623
  59   2.0000      -0.425585       -11.5807
  60   2.0000      -0.423828       -11.5329
  61   2.0000      -0.416899       -11.3444
  62   2.0000      -0.409508       -11.1433
  63   2.0000      -0.344170        -9.3653
  64   2.0000      -0.328918        -8.9503
  65   2.0000      -0.320805        -8.7295
  66   2.0000      -0.297182        -8.0867
  67   0.0000       0.029781         0.8104
  68   0.0000       0.054825         1.4919
  69   0.0000       0.111974         3.0470
  70   0.0000       0.118791         3.2325
  71   0.0000       0.129650         3.5280

MULLIKEN ATOMIC CHARGES
-----------------------
   0 S :    0.118558
   1 C :   -0.123413
   2 C :   -0.114133
   3 C :    0.050256
   4 C :   -0.178396
   5 H :    0.024026
   6 C :    0.130154
   7 H :    0.016660
   8 H :   -0.005559
   9 C :   -0.090773
  10 H :    0.043269
  11 H :    0.031422
  12 C :   -0.068474
  13 H :    0.023811
  14 H :    0.026601
  15 H :    0.037831
  16 S :    0.113386
  17 C :   -0.079756
  18 C :   -0.037826
  19 C :   -0.032810
  20 C :   -0.177350
  21 H :    0.021413
  22 C :    0.074335
  23 H :    0.027546
  24 H :    0.003540
  25 C :   -0.037786
  26 H :    0.026206
  27 H :    0.027379
  28 C :   -0.073437
  29 H :    0.044299
  30 H :    0.023125
  31 H :    0.042572
  32 H :    0.062255
  33 H :    0.051071
Sum of atomic charges:   -0.0000000

LOEWDIN ATOMIC CHARGES
----------------------
   0 S :    0.419306
   1 C :   -0.209051
   2 C :   -0.064395
   3 C :   -0.048545
   4 C :   -0.191126
   5 H :    0.032043
   6 C :   -0.021528
   7 H :    0.030033
   8 H :    0.009854
   9 C :   -0.044667
  10 H :    0.032306
  11 H :    0.025535
  12 C :   -0.072652
  13 H :    0.023855
  14 H :    0.017070
  15 H :    0.032270
  16 S :    0.398685
  17 C :   -0.191692
  18 C :   -0.077795
  19 C :   -0.040395
  20 C :   -0.192917
  21 H :    0.031865
  22 C :   -0.028365
  23 H :    0.035850
  24 H :    0.016813
  25 C :   -0.028635
  26 H :    0.026937
  27 H :    0.019569
  28 C :   -0.080906
  29 H :    0.035844
  30 H :    0.023441
  31 H :    0.029089
  32 H :    0.027274
  33 H :    0.025032

  Mayer bond orders larger than 0.100000
B(  0-S ,  1-C ) :   1.1650 B(  0-S ,  4-C ) :   1.1444 B(  1-C ,  2-C ) :   1.5765
B(  1-C , 32-H ) :   0.9679 B(  2-C ,  3-C ) :   1.2513 B(  2-C ,  6-C ) :   1.0311
B(  3-C ,  4-C ) :   1.5717 B(  3-C ,  5-H ) :   0.9870 B(  4-C , 20-C ) :   1.0704
B(  6-C ,  7-H ) :   0.9439 B(  6-C ,  8-H ) :   0.9356 B(  6-C ,  9-C ) :   1.0416
B(  9-C , 10-H ) :   0.9585 B(  9-C , 11-H ) :   0.9588 B(  9-C , 12-C ) :   1.0852
B( 12-C , 13-H ) :   0.9668 B( 12-C , 14-H ) :   0.9759 B( 12-C , 15-H ) :   0.9693
B( 16-S , 17-C ) :   1.1730 B( 16-S , 20-C ) :   1.1289 B( 17-C , 18-C ) :   1.5791
B( 17-C , 20-C ) :   0.1043 B( 17-C , 33-H ) :   0.9681 B( 18-C , 19-C ) :   1.2656
B( 18-C , 21-H ) :   0.9864 B( 19-C , 20-C ) :   1.5653 B( 19-C , 22-C ) :   1.0452
B( 22-C , 23-H ) :   0.9291 B( 22-C , 24-H ) :   0.9397 B( 22-C , 25-C ) :   1.0631
B( 25-C , 26-H ) :   0.9540 B( 25-C , 27-H ) :   0.9544 B( 25-C , 28-C ) :   1.0785
B( 28-C , 29-H ) :   0.9668 B( 28-C , 30-H ) :   0.9720 B( 28-C , 31-H ) :   0.9759

Dispersion correction           -0.015433605
FINAL SINGLE POINT ENERGY     -1339.865703604846

DIPOLE MOMENT
-------------
                                X             Y             Z
Electronic contribution:    -12.48831       0.80337      23.88270
Nuclear contribution   :     12.69345      -0.68799     -24.49093
                        -----------------------------------------
Total Dipole Moment    :      0.20514       0.11538      -0.60822
                        -----------------------------------------
Magnitude (a.u.)       :      0.65217
Magnitude (Debye)      :      1.65769

Rotational constants in cm-1:     0.021371     0.008636     0.006799
Rotational constants in MHz :   640.681351   258.915355   203.828383

                             ****ORCA TERMINATED NORMALLY****
TOTAL RUN TIME: 0 days 0 hours 0 minutes 29 seconds 159 msec
