                         Program Version 4.2.1 -  RELEASE  -
|  1> ! wB97X-D3 SP def2-SVP
|  2> %pal
|  3> nprocs 16
|  4> end
|  5>
|  6> * xyz 0 1
|  7> S 	 -30.5566 	 62.1198 	 112.14
|  8> C 	 -29.3354 	 61.6735 	 110.943
|  9> C 	 -29.9214 	 61.2905 	 109.743
| 10> C 	 -31.3257 	 61.1363 	 109.859
| 11> C 	 -31.8697 	 61.5516 	 111.104
| 12> H 	 -31.9372 	 60.811 	 108.95
| 13> C 	 -29.2161 	 61.0156 	 108.398
| 14> H 	 -29.8416 	 61.4059 	 107.673
| 15> H 	 -29.2507 	 59.9144 	 108.341
| 16> C 	 -27.7576 	 61.5169 	 108.36
| 17> H 	 -27.1319 	 60.8462 	 108.979
| 18> H 	 -27.4269 	 61.1152 	 107.387
| 19> C 	 -27.585 	 62.9815 	 108.721
| 20> H 	 -28.3197 	 63.5784 	 108.209
| 21> H 	 -27.5619 	 63.1423 	 109.776
| 22> H 	 -26.6424 	 63.4295 	 108.342
| 23> S 	 -33.8884 	 62.8524 	 112.257
| 24> C 	 -35.5581 	 62.3706 	 112.017
| 25> C 	 -35.5742 	 61.0689 	 111.527
| 26> C 	 -34.2627 	 60.5752 	 111.238
| 27> C 	 -33.2681 	 61.4952 	 111.493
| 28> H 	 -36.5034 	 60.5815 	 111.376
| 29> C 	 -34.0301 	 59.219 	 110.616
| 30> H 	 -34.7782 	 58.5514 	 111.03
| 31> H 	 -33.0571 	 58.8956 	 110.928
| 32> C 	 -34.0923 	 59.2431 	 109.045
| 33> H 	 -33.9288 	 60.3128 	 108.699
| 34> H 	 -35.0544 	 58.9023 	 108.865
| 35> C 	 -33.1123 	 58.3236 	 108.318
| 36> H 	 -33.1108 	 57.2939 	 108.553
| 37> H 	 -32.1436 	 58.7622 	 108.506
| 38> H 	 -33.377 	 58.4041 	 107.311
| 39> H 	 -28.3252 	 61.3419 	 111.066
| 40> H 	 -36.3164 	 63.08 	 112.279
| 41> *
| 42>
| 43>                          ****END OF INPUT****

CARTESIAN COORDINATES (ANGSTROEM)
---------------------------------
  S    -30.556600   62.119800  112.140000
  C    -29.335400   61.673500  110.943000
  C    -29.921400   61.290500  109.743000
  C    -31.325700   61.136300  109.859000
  C    -31.869700   61.551600  111.104000
  H    -31.937200   60.811000  108.950000
  C    -29.216100   61.015600  108.398000
  H    -29.841600   61.405900  107.673000
  H    -29.250700   59.914400  108.341000
  C    -27.757600   61.516900  108.360000
  H    -27.131900   60.846200  108.979000
  H    -27.426900   61.115200  107.387000
  C    -27.585000   62.981500  108.721000
  H    -28.319700   63.578400  108.209000
  H    -27.561900   63.142300  109.776000
  H    -26.642400   63.429500  108.342000
  S    -33.888400   62.852400  112.257000
  C    -35.558100   62.370600  112.017000
  C    -35.574200   61.068900  111.527000
  C    -34.262700   60.575200  111.238000
  C    -33.268100   61.495200  111.493000
  H    -36.503400   60.581500  111.376000
  C    -34.030100   59.219000  110.616000
  H    -34.778200   58.551400  111.030000
  H    -33.057100   58.895600  110.928000
  C    -34.092300   59.243100  109.045000
  H    -33.928800   60.312800  108.699000
  H    -35.054400   58.902300  108.865000
  C    -33.112300   58.323600  108.318000
  H    -33.110800   57.293900  108.553000
  H    -32.143600   58.762200  108.506000
  H    -33.377000   58.404100  107.311000
  H    -28.325200   61.341900  111.066000
  H    -36.316400   63.080000  112.279000

 Total Charge           Charge          ....    0
 Multiplicity           Mult            ....    1
 Number of Electrons    NEL             ....  134
 Basis Dimension        Dim             ....  322

ORBITAL ENERGIES
----------------

  NO   OCC          E(Eh)            E(eV)
   0   2.0000     -88.969870     -2420.9932
   1   2.0000     -88.958449     -2420.6825
   2   2.0000     -10.337184      -281.2891
   3   2.0000     -10.319429      -280.8059
   4   2.0000     -10.317490      -280.7532
   5   2.0000     -10.309539      -280.5368
   6   2.0000     -10.299673      -280.2684
   7   2.0000     -10.298871      -280.2465
   8   2.0000     -10.298053      -280.2243
   9   2.0000     -10.295342      -280.1505
  10   2.0000     -10.293204      -280.0923
  11   2.0000     -10.293149      -280.0908
  12   2.0000     -10.285026      -279.8698
  13   2.0000     -10.284707      -279.8611
  14   2.0000     -10.275901      -279.6215
  15   2.0000     -10.269573      -279.4493
  16   2.0000      -8.083579      -219.9654
  17   2.0000      -8.075278      -219.7395
  18   2.0000      -6.042331      -164.4202
  19   2.0000      -6.038178      -164.3072
  20   2.0000      -6.034188      -164.1986
  21   2.0000      -6.033606      -164.1828
  22   2.0000      -6.029401      -164.0683
  23   2.0000      -6.026200      -163.9812
  24   2.0000      -1.011473       -27.5236
  25   2.0000      -0.982780       -26.7428
  26   2.0000      -0.913576       -24.8597
  27   2.0000      -0.908213       -24.7137
  28   2.0000      -0.868540       -23.6342
  29   2.0000      -0.854004       -23.2386
  30   2.0000      -0.846519       -23.0349
  31   2.0000      -0.809725       -22.0337
  32   2.0000      -0.788142       -21.4464
  33   2.0000      -0.776202       -21.1215
  34   2.0000      -0.712657       -19.3924
  35   2.0000      -0.703871       -19.1533
  36   2.0000      -0.695005       -18.9120
  37   2.0000      -0.670651       -18.2493
  38   2.0000      -0.626247       -17.0410
  39   2.0000      -0.610832       -16.6216
  40   2.0000      -0.594895       -16.1879
  41   2.0000      -0.576992       -15.7008
  42   2.0000      -0.571832       -15.5603
  43   2.0000      -0.557911       -15.1815
  44   2.0000      -0.537901       -14.6370
  45   2.0000      -0.528662       -14.3856
  46   2.0000      -0.521977       -14.2037
  47   2.0000      -0.516294       -14.0491
  48   2.0000      -0.513567       -13.9749
  49   2.0000      -0.496448       -13.5090
  50   2.0000      -0.488039       -13.2802
  51   2.0000      -0.485385       -13.2080
  52   2.0000      -0.476096       -12.9552
  53   2.0000      -0.467982       -12.7344
  54   2.0000      -0.458928       -12.4881
  55   2.0000      -0.445499       -12.1226
  56   2.0000      -0.443170       -12.0593
  57   2.0000      -0.432775       -11.7764
  58   2.0000      -0.429843       -11.6966
  59   2.0000      -0.427438       -11.6312
  60   2.0000      -0.422741       -11.5034
  61   2.0000      -0.415674       -11.3111
  62   2.0000      -0.408489       -11.1155
  63   2.0000      -0.352304        -9.5867
  64   2.0000      -0.331012        -9.0073
  65   2.0000      -0.324330        -8.8255
  66   2.0000      -0.281118        -7.6496
  67   0.0000       0.025214         0.6861
  68   0.0000       0.067252         1.8300
  69   0.0000       0.105522         2.8714
  70   0.0000       0.121719         3.3121
  71   0.0000       0.128105         3.4859

MULLIKEN ATOMIC CHARGES
-----------------------
   0 S :    0.118964
   1 C :   -0.111310
   2 C :   -0.154942
   3 C :   -0.018126
   4 C :   -0.116279
   5 H :    0.028036
   6 C :    0.074282
   7 H :    0.022542
   8 H :    0.045006
   9 C :   -0.076266
  10 H :    0.019192
  11 H :    0.022205
  12 C :   -0.008635
  13 H :    0.031166
  14 H :    0.039376
  15 H :    0.027313
  16 S :    0.090619
  17 C :   -0.106692
  18 C :   -0.005944
  19 C :   -0.088118
  20 C :   -0.131356
  21 H :    0.009019
  22 C :    0.096675
  23 H :    0.023435
  24 H :    0.019756
  25 C :   -0.095696
  26 H :    0.057374
  27 H :    0.009192
  28 C :   -0.000520
  29 H :    0.027490
  30 H :    0.016147
  31 H :    0.022039
  32 H :    0.054185
  33 H :    0.059871
Sum of atomic charges:    0.0000000

LOEWDIN ATOMIC CHARGES
----------------------
   0 S :    0.397996
   1 C :   -0.211173
   2 C :   -0.059618
   3 C :   -0.079227
   4 C :   -0.183998
   5 H :    0.041222
   6 C :   -0.022843
   7 H :    0.020569
   8 H :    0.040508
   9 C :   -0.049971
  10 H :    0.024169
  11 H :    0.029112
  12 C :   -0.062260
  13 H :    0.027598
  14 H :    0.025008
  15 H :    0.030726
  16 S :    0.429738
  17 C :   -0.178393
  18 C :   -0.064155
  19 C :   -0.061911
  20 C :   -0.222071
  21 H :    0.027387
  22 C :   -0.026718
  23 H :    0.030042
  24 H :    0.024911
  25 C :   -0.033850
  26 H :    0.030559
  27 H :    0.012356
  28 C :   -0.055573
  29 H :    0.021543
  30 H :    0.019446
  31 H :    0.022567
  32 H :    0.031504
  33 H :    0.024800

  Mayer bond orders larger than 0.100000
B(  0-S ,  1-C ) :   1.1235 B(  0-S ,  4-C ) :   1.1526 B(  1-C ,  2-C ) :   1.6253
B(  1-C ,  4-C ) :   0.1049 B(  1-C , 32-H ) :   0.9468 B(  2-C ,  3-C ) :   1.2895
B(  2-C ,  6-C ) :   0.9867 B(  3-C ,  4-C ) :   1.5370 B(  3-C ,  5-H ) :   0.9650
B(  4-C , 20-C ) :   1.0417 B(  6-C ,  7-H ) :   0.9434 B(  6-C ,  8-H ) :   0.9343
B(  6-C ,  9-C ) :   1.0906 B(  9-C , 10-H ) :   0.9487 B(  9-C , 11-H ) :   0.9502
B(  9-C , 12-C ) :   1.0623 B( 12-C , 13-H ) :   0.9779 B( 12-C , 14-H ) :   0.9687
B( 12-C , 15-H ) :   0.9703 B( 16-S , 17-C ) :   1.1746 B( 16-S , 20-C ) :   1.1591
B( 17-C , 18-C ) :   1.5530 B( 17-C , 20-C ) :   0.1011 B( 17-C , 33-H ) :   0.9798
B( 18-C , 19-C ) :   1.2495 B( 18-C , 21-H ) :   1.0064 B( 19-C , 20-C ) :   1.5681
B( 19-C , 22-C ) :   1.0577 B( 22-C , 23-H ) :   0.9346 B( 22-C , 24-H ) :   0.9389
B( 22-C , 25-C ) :   1.0297 B( 25-C , 26-H ) :   0.9610 B( 25-C , 27-H ) :   0.9504
B( 25-C , 28-C ) :   1.0857 B( 28-C , 29-H ) :   0.9721 B( 28-C , 30-H ) :   0.9712
B( 28-C , 31-H ) :   0.9702

Dispersion correction           -0.015370695
FINAL SINGLE POINT ENERGY     -1339.852934804412

DIPOLE MOMENT
-------------
                                X             Y             Z
Electronic contribution:     -9.96979      12.22455      22.00504
Nuclear contribution   :      9.92042     -12.69785     -22.66760
                        -----------------------------------------
Total Dipole Moment    :     -0.04937      -0.47331      -0.66256
                        -----------------------------------------
Magnitude (a.u.)       :      0.81575
Magnitude (Debye)      :      2.07347

Rotational constants in cm-1:     0.020709     0.009113     0.006850
Rotational constants in MHz :   620.826880   273.188659   205.344126

                             ****ORCA TERMINATED NORMALLY****
TOTAL RUN TIME: 0 days 0 hours 0 minutes 32 seconds 75 msec
