                         Program Version 4.2.1 -  RELEASE  -
|  1> ! wB97X-D3 SP def2-SVP
|  2> %pal
|  3> nprocs 16
|  4> end
|  5>
|  6> * xyz 0 1
|  7> S 	 -30.4896 	 58.8869 	 106.102
|  8> C 	 -30.4457 	 58.0119 	 107.636
|  9> C 	 -30.817 	 58.8695 	 108.635
| 10> C 	 -31.2355 	 60.1496 	 108.197
| 11> C 	 -30.8799 	 60.356 	 106.876
| 12> H 	 -31.6282 	 60.9526 	 108.829
| 13> C 	 -30.9838 	 58.382 	 110.033
| 14> H 	 -30.9833 	 57.2342 	 110.021
| 15> H 	 -31.9738 	 58.7341 	 110.426
| 16> C 	 -29.9473 	 58.8259 	 111.139
| 17> H 	 -30.1731 	 59.8243 	 111.435
| 18> H 	 -30.1558 	 58.3361 	 112.038
| 19> C 	 -28.4559 	 58.6742 	 110.728
| 20> H 	 -28.3851 	 58.8774 	 109.682
| 21> H 	 -27.7971 	 59.328 	 111.337
| 22> H 	 -28.2383 	 57.6518 	 110.981
| 23> S 	 -32.3863 	 61.5522 	 104.861
| 24> C 	 -32.2409 	 63.2795 	 104.528
| 25> C 	 -31.1754 	 63.7245 	 105.185
| 26> C 	 -30.5789 	 62.8675 	 106.107
| 27> C 	 -31.1343 	 61.5904 	 106.071
| 28> H 	 -31.0279 	 64.7818 	 105.097
| 29> C 	 -29.4614 	 63.4193 	 107.065
| 30> H 	 -28.9569 	 64.1354 	 106.441
| 31> H 	 -28.6708 	 62.6791 	 107.238
| 32> C 	 -29.9277 	 63.9858 	 108.41
| 33> H 	 -30.5704 	 63.2164 	 108.993
| 34> H 	 -30.724 	 64.7001 	 108.037
| 35> C 	 -28.8383 	 64.6169 	 109.313
| 36> H 	 -28.0673 	 63.8471 	 109.552
| 37> H 	 -29.2891 	 65.1013 	 110.185
| 38> H 	 -28.2472 	 65.4789 	 108.896
| 39> H 	 -30.3002 	 56.9208 	 107.798
| 40> H 	 -32.8279 	 63.9926 	 103.962
| 41> *
| 42>
| 43>                          ****END OF INPUT****

CARTESIAN COORDINATES (ANGSTROEM)
---------------------------------
  S    -30.489600   58.886900  106.102000
  C    -30.445700   58.011900  107.636000
  C    -30.817000   58.869500  108.635000
  C    -31.235500   60.149600  108.197000
  C    -30.879900   60.356000  106.876000
  H    -31.628200   60.952600  108.829000
  C    -30.983800   58.382000  110.033000
  H    -30.983300   57.234200  110.021000
  H    -31.973800   58.734100  110.426000
  C    -29.947300   58.825900  111.139000
  H    -30.173100   59.824300  111.435000
  H    -30.155800   58.336100  112.038000
  C    -28.455900   58.674200  110.728000
  H    -28.385100   58.877400  109.682000
  H    -27.797100   59.328000  111.337000
  H    -28.238300   57.651800  110.981000
  S    -32.386300   61.552200  104.861000
  C    -32.240900   63.279500  104.528000
  C    -31.175400   63.724500  105.185000
  C    -30.578900   62.867500  106.107000
  C    -31.134300   61.590400  106.071000
  H    -31.027900   64.781800  105.097000
  C    -29.461400   63.419300  107.065000
  H    -28.956900   64.135400  106.441000
  H    -28.670800   62.679100  107.238000
  C    -29.927700   63.985800  108.410000
  H    -30.570400   63.216400  108.993000
  H    -30.724000   64.700100  108.037000
  C    -28.838300   64.616900  109.313000
  H    -28.067300   63.847100  109.552000
  H    -29.289100   65.101300  110.185000
  H    -28.247200   65.478900  108.896000
  H    -30.300200   56.920800  107.798000
  H    -32.827900   63.992600  103.962000

 Total Charge           Charge          ....    0
 Multiplicity           Mult            ....    1
 Number of Electrons    NEL             ....  134
 Basis Dimension        Dim             ....  322

ORBITAL ENERGIES
----------------

  NO   OCC          E(Eh)            E(eV)
   0   2.0000     -88.967728     -2420.9350
   1   2.0000     -88.964916     -2420.8585
   2   2.0000     -10.332283      -281.1557
   3   2.0000     -10.331015      -281.1212
   4   2.0000     -10.316730      -280.7325
   5   2.0000     -10.313043      -280.6322
   6   2.0000     -10.304316      -280.3947
   7   2.0000     -10.300693      -280.2961
   8   2.0000     -10.299680      -280.2685
   9   2.0000     -10.297929      -280.2209
  10   2.0000     -10.296363      -280.1783
  11   2.0000     -10.292931      -280.0849
  12   2.0000     -10.290073      -280.0071
  13   2.0000     -10.282192      -279.7927
  14   2.0000     -10.278920      -279.7036
  15   2.0000     -10.272833      -279.5380
  16   2.0000      -8.082972      -219.9488
  17   2.0000      -8.079577      -219.8565
  18   2.0000      -6.041432      -164.3957
  19   2.0000      -6.038166      -164.3069
  20   2.0000      -6.037393      -164.2858
  21   2.0000      -6.033963      -164.1925
  22   2.0000      -6.033740      -164.1864
  23   2.0000      -6.030352      -164.0942
  24   2.0000      -1.013352       -27.5747
  25   2.0000      -0.993686       -27.0396
  26   2.0000      -0.908402       -24.7189
  27   2.0000      -0.900811       -24.5123
  28   2.0000      -0.870645       -23.6914
  29   2.0000      -0.848064       -23.0770
  30   2.0000      -0.844440       -22.9784
  31   2.0000      -0.821210       -22.3463
  32   2.0000      -0.780786       -21.2463
  33   2.0000      -0.773429       -21.0461
  34   2.0000      -0.712693       -19.3934
  35   2.0000      -0.698227       -18.9997
  36   2.0000      -0.690822       -18.7982
  37   2.0000      -0.656632       -17.8679
  38   2.0000      -0.637704       -17.3528
  39   2.0000      -0.620476       -16.8840
  40   2.0000      -0.593518       -16.1504
  41   2.0000      -0.569072       -15.4852
  42   2.0000      -0.552106       -15.0236
  43   2.0000      -0.549029       -14.9398
  44   2.0000      -0.544104       -14.8058
  45   2.0000      -0.523391       -14.2422
  46   2.0000      -0.518310       -14.1039
  47   2.0000      -0.511000       -13.9050
  48   2.0000      -0.505697       -13.7607
  49   2.0000      -0.502978       -13.6867
  50   2.0000      -0.491917       -13.3857
  51   2.0000      -0.476171       -12.9573
  52   2.0000      -0.473858       -12.8943
  53   2.0000      -0.465547       -12.6682
  54   2.0000      -0.461154       -12.5486
  55   2.0000      -0.450776       -12.2662
  56   2.0000      -0.443634       -12.0719
  57   2.0000      -0.434421       -11.8212
  58   2.0000      -0.431119       -11.7313
  59   2.0000      -0.422240       -11.4897
  60   2.0000      -0.416723       -11.3396
  61   2.0000      -0.411761       -11.2046
  62   2.0000      -0.405276       -11.0281
  63   2.0000      -0.345690        -9.4067
  64   2.0000      -0.331381        -9.0173
  65   2.0000      -0.329193        -8.9578
  66   2.0000      -0.305331        -8.3085
  67   0.0000       0.037166         1.0113
  68   0.0000       0.060898         1.6571
  69   0.0000       0.109204         2.9716
  70   0.0000       0.123132         3.3506
  71   0.0000       0.132345         3.6013

MULLIKEN ATOMIC CHARGES
-----------------------
   0 S :    0.115073
   1 C :   -0.135245
   2 C :   -0.075666
   3 C :    0.042306
   4 C :   -0.150807
   5 H :    0.027038
   6 C :    0.001285
   7 H :    0.029528
   8 H :    0.037107
   9 C :   -0.042421
  10 H :    0.005210
  11 H :    0.010116
  12 C :   -0.041899
  13 H :    0.047423
  14 H :    0.037510
  15 H :    0.025576
  16 S :    0.107874
  17 C :   -0.084226
  18 C :   -0.038491
  19 C :   -0.030116
  20 C :   -0.174190
  21 H :    0.010186
  22 C :    0.086950
  23 H :    0.014550
  24 H :    0.020882
  25 C :   -0.097473
  26 H :    0.039440
  27 H :    0.026575
  28 C :   -0.056250
  29 H :    0.046604
  30 H :    0.043005
  31 H :    0.034462
  32 H :    0.067055
  33 H :    0.051032
Sum of atomic charges:    0.0000000

LOEWDIN ATOMIC CHARGES
----------------------
   0 S :    0.423114
   1 C :   -0.201228
   2 C :   -0.074981
   3 C :   -0.059515
   4 C :   -0.201815
   5 H :    0.035291
   6 C :   -0.034826
   7 H :    0.032370
   8 H :    0.036748
   9 C :   -0.038144
  10 H :    0.013352
  11 H :    0.015460
  12 C :   -0.060379
  13 H :    0.023831
  14 H :    0.030055
  15 H :    0.023376
  16 S :    0.404193
  17 C :   -0.180517
  18 C :   -0.081026
  19 C :   -0.058748
  20 C :   -0.199894
  21 H :    0.029384
  22 C :   -0.030722
  23 H :    0.027052
  24 H :    0.026359
  25 C :   -0.054322
  26 H :    0.031634
  27 H :    0.027269
  28 C :   -0.076612
  29 H :    0.032499
  30 H :    0.030863
  31 H :    0.030823
  32 H :    0.040784
  33 H :    0.038273

  Mayer bond orders larger than 0.100000
B(  0-S ,  1-C ) :   1.1292 B(  0-S ,  4-C ) :   1.1830 B(  1-C ,  2-C ) :   1.5949
B(  1-C , 32-H ) :   0.9642 B(  2-C ,  3-C ) :   1.2471 B(  2-C ,  6-C ) :   1.0325
B(  3-C ,  4-C ) :   1.5640 B(  3-C ,  5-H ) :   0.9884 B(  4-C , 20-C ) :   0.9927
B(  6-C ,  7-H ) :   0.9494 B(  6-C ,  8-H ) :   0.9416 B(  6-C ,  9-C ) :   1.0627
B(  9-C , 10-H ) :   0.9568 B(  9-C , 11-H ) :   0.9576 B(  9-C , 12-C ) :   1.0631
B( 12-C , 13-H ) :   0.9784 B( 12-C , 14-H ) :   0.9763 B( 12-C , 15-H ) :   0.9804
B( 16-S , 17-C ) :   1.1378 B( 16-S , 20-C ) :   1.1577 B( 17-C , 18-C ) :   1.6465
B( 17-C , 33-H ) :   0.9627 B( 18-C , 19-C ) :   1.2547 B( 18-C , 21-H ) :   0.9814
B( 19-C , 20-C ) :   1.6074 B( 19-C , 22-C ) :   1.0261 B( 22-C , 23-H ) :   0.9371
B( 22-C , 24-H ) :   0.9334 B( 22-C , 25-C ) :   1.0567 B( 25-C , 26-H ) :   0.9509
B( 25-C , 27-H ) :   0.9538 B( 25-C , 28-C ) :   1.0697 B( 28-C , 29-H ) :   0.9734
B( 28-C , 30-H ) :   0.9737 B( 28-C , 31-H ) :   0.9746

Dispersion correction           -0.014335462
FINAL SINGLE POINT ENERGY     -1339.864907360903

DIPOLE MOMENT
-------------
                                X             Y             Z
Electronic contribution:    -12.90822      -7.57408     -26.84147
Nuclear contribution   :     12.94787       7.96849      27.42712
                        -----------------------------------------
Total Dipole Moment    :      0.03965       0.39440       0.58565
                        -----------------------------------------
Magnitude (a.u.)       :      0.70718
Magnitude (Debye)      :      1.79752

Rotational constants in cm-1:     0.017161     0.009700     0.006794
Rotational constants in MHz :   514.471758   290.803204   203.690290

                             ****ORCA TERMINATED NORMALLY****
TOTAL RUN TIME: 0 days 0 hours 0 minutes 28 seconds 11 msec
