                         Program Version 4.2.1 -  RELEASE  -
|  1> ! wB97X-D3 SP def2-SVP
|  2> %pal
|  3> nprocs 16
|  4> end
|  5>
|  6> * xyz 0 1
|  7> S 	 -93.9074 	 59.5831 	 125.763
|  8> C 	 -92.2817 	 58.8939 	 125.989
|  9> C 	 -92.051 	 58.3727 	 127.244
| 10> C 	 -93.2792 	 58.5219 	 127.992
| 11> C 	 -94.3263 	 59.1988 	 127.393
| 12> H 	 -93.3045 	 58.158 	 128.976
| 13> C 	 -90.7319 	 57.8256 	 127.825
| 14> H 	 -90.6452 	 58.0746 	 128.905
| 15> H 	 -89.9667 	 58.373 	 127.323
| 16> C 	 -90.5686 	 56.2613 	 127.639
| 17> H 	 -91.3625 	 55.8319 	 128.212
| 18> H 	 -90.5858 	 55.8801 	 126.627
| 19> C 	 -89.1559 	 55.767 	 128.131
| 20> H 	 -88.9658 	 54.6822 	 127.803
| 21> H 	 -88.3908 	 56.4434 	 127.776
| 22> H 	 -89.0509 	 55.9396 	 129.263
| 23> S 	 -97.1721 	 59.3492 	 127.258
| 24> C 	 -98.0832 	 59.9905 	 128.607
| 25> C 	 -97.2685 	 60.223 	 129.692
| 26> C 	 -95.8975 	 59.8943 	 129.4
| 27> C 	 -95.6338 	 59.4808 	 128.073
| 28> H 	 -97.7076 	 60.7089 	 130.521
| 29> C 	 -94.845 	 60.0454 	 130.463
| 30> H 	 -94.0049 	 60.4808 	 130.012
| 31> H 	 -94.486 	 59.0345 	 130.849
| 32> C 	 -95.1898 	 61.0285 	 131.532
| 33> H 	 -96.081 	 60.5378 	 132.018
| 34> H 	 -95.5441 	 61.9961 	 131.148
| 35> C 	 -93.9975 	 61.4527 	 132.38
| 36> H 	 -94.3469 	 62.3265 	 132.854
| 37> H 	 -93.1807 	 61.7381 	 131.738
| 38> H 	 -93.6684 	 60.6553 	 133.059
| 39> H 	 -91.4594 	 59.0544 	 125.276
| 40> H 	 -99.0467 	 60.4932 	 128.521
| 41> *
| 42>
| 43>                          ****END OF INPUT****

CARTESIAN COORDINATES (ANGSTROEM)
---------------------------------
  S    -93.907400   59.583100  125.763000
  C    -92.281700   58.893900  125.989000
  C    -92.051000   58.372700  127.244000
  C    -93.279200   58.521900  127.992000
  C    -94.326300   59.198800  127.393000
  H    -93.304500   58.158000  128.976000
  C    -90.731900   57.825600  127.825000
  H    -90.645200   58.074600  128.905000
  H    -89.966700   58.373000  127.323000
  C    -90.568600   56.261300  127.639000
  H    -91.362500   55.831900  128.212000
  H    -90.585800   55.880100  126.627000
  C    -89.155900   55.767000  128.131000
  H    -88.965800   54.682200  127.803000
  H    -88.390800   56.443400  127.776000
  H    -89.050900   55.939600  129.263000
  S    -97.172100   59.349200  127.258000
  C    -98.083200   59.990500  128.607000
  C    -97.268500   60.223000  129.692000
  C    -95.897500   59.894300  129.400000
  C    -95.633800   59.480800  128.073000
  H    -97.707600   60.708900  130.521000
  C    -94.845000   60.045400  130.463000
  H    -94.004900   60.480800  130.012000
  H    -94.486000   59.034500  130.849000
  C    -95.189800   61.028500  131.532000
  H    -96.081000   60.537800  132.018000
  H    -95.544100   61.996100  131.148000
  C    -93.997500   61.452700  132.380000
  H    -94.346900   62.326500  132.854000
  H    -93.180700   61.738100  131.738000
  H    -93.668400   60.655300  133.059000
  H    -91.459400   59.054400  125.276000
  H    -99.046700   60.493200  128.521000

 Total Charge           Charge          ....    0
 Multiplicity           Mult            ....    1
 Number of Electrons    NEL             ....  134
 Basis Dimension        Dim             ....  322

ORBITAL ENERGIES
----------------

  NO   OCC          E(Eh)            E(eV)
   0   2.0000     -88.971243     -2421.0306
   1   2.0000     -88.963533     -2420.8208
   2   2.0000     -10.335140      -281.2335
   3   2.0000     -10.333312      -281.1837
   4   2.0000     -10.319434      -280.8061
   5   2.0000     -10.314324      -280.6670
   6   2.0000     -10.305949      -280.4391
   7   2.0000     -10.305365      -280.4232
   8   2.0000     -10.304962      -280.4123
   9   2.0000     -10.293448      -280.0990
  10   2.0000     -10.293232      -280.0931
  11   2.0000     -10.291644      -280.0499
  12   2.0000     -10.291249      -280.0391
  13   2.0000     -10.284179      -279.8467
  14   2.0000     -10.282624      -279.8044
  15   2.0000     -10.274699      -279.5888
  16   2.0000      -8.085667      -220.0222
  17   2.0000      -8.078296      -219.8216
  18   2.0000      -6.044313      -164.4741
  19   2.0000      -6.040240      -164.3633
  20   2.0000      -6.036905      -164.2725
  21   2.0000      -6.036277      -164.2555
  22   2.0000      -6.032638      -164.1564
  23   2.0000      -6.029114      -164.0605
  24   2.0000      -1.003849       -27.3161
  25   2.0000      -0.984073       -26.7780
  26   2.0000      -0.917375       -24.9630
  27   2.0000      -0.906515       -24.6675
  28   2.0000      -0.866437       -23.5769
  29   2.0000      -0.851261       -23.1640
  30   2.0000      -0.844785       -22.9878
  31   2.0000      -0.815074       -22.1793
  32   2.0000      -0.781806       -21.2740
  33   2.0000      -0.771612       -20.9966
  34   2.0000      -0.705072       -19.1860
  35   2.0000      -0.700356       -19.0576
  36   2.0000      -0.696870       -18.9628
  37   2.0000      -0.647770       -17.6267
  38   2.0000      -0.636227       -17.3126
  39   2.0000      -0.627506       -17.0753
  40   2.0000      -0.597642       -16.2627
  41   2.0000      -0.575525       -15.6608
  42   2.0000      -0.572809       -15.5869
  43   2.0000      -0.562233       -15.2991
  44   2.0000      -0.533834       -14.5264
  45   2.0000      -0.528041       -14.3687
  46   2.0000      -0.514626       -14.0037
  47   2.0000      -0.510341       -13.8871
  48   2.0000      -0.501611       -13.6495
  49   2.0000      -0.496857       -13.5202
  50   2.0000      -0.489340       -13.3156
  51   2.0000      -0.478937       -13.0325
  52   2.0000      -0.474697       -12.9172
  53   2.0000      -0.467272       -12.7151
  54   2.0000      -0.454777       -12.3751
  55   2.0000      -0.447554       -12.1786
  56   2.0000      -0.445018       -12.1096
  57   2.0000      -0.441978       -12.0268
  58   2.0000      -0.435157       -11.8412
  59   2.0000      -0.430038       -11.7019
  60   2.0000      -0.420631       -11.4460
  61   2.0000      -0.417661       -11.3651
  62   2.0000      -0.402303       -10.9472
  63   2.0000      -0.350402        -9.5349
  64   2.0000      -0.333607        -9.0779
  65   2.0000      -0.327875        -8.9219
  66   2.0000      -0.290514        -7.9053
  67   0.0000       0.024159         0.6574
  68   0.0000       0.076171         2.0727
  69   0.0000       0.108237         2.9453
  70   0.0000       0.119917         3.2631
  71   0.0000       0.138603         3.7716

MULLIKEN ATOMIC CHARGES
-----------------------
   0 S :    0.118930
   1 C :   -0.140171
   2 C :   -0.081954
   3 C :    0.022816
   4 C :   -0.118795
   5 H :   -0.022751
   6 C :    0.064496
   7 H :    0.037330
   8 H :    0.017269
   9 C :   -0.059960
  10 H :    0.033929
  11 H :    0.038644
  12 C :   -0.091299
  13 H :    0.062918
  14 H :    0.027766
  15 H :    0.033845
  16 S :    0.094573
  17 C :   -0.096066
  18 C :   -0.038712
  19 C :   -0.066921
  20 C :   -0.123968
  21 H :    0.015044
  22 C :    0.079885
  23 H :    0.002970
  24 H :    0.052540
  25 C :   -0.156306
  26 H :    0.039029
  27 H :    0.029250
  28 C :    0.016716
  29 H :    0.024363
  30 H :    0.026135
  31 H :    0.037488
  32 H :    0.053006
  33 H :    0.067963
Sum of atomic charges:    0.0000000

LOEWDIN ATOMIC CHARGES
----------------------
   0 S :    0.407004
   1 C :   -0.188467
   2 C :   -0.060532
   3 C :   -0.055670
   4 C :   -0.201421
   5 H :    0.016908
   6 C :   -0.023973
   7 H :    0.036745
   8 H :    0.025056
   9 C :   -0.033567
  10 H :    0.021671
  11 H :    0.026258
  12 C :   -0.079979
  13 H :    0.038199
  14 H :    0.020341
  15 H :    0.029232
  16 S :    0.403678
  17 C :   -0.191955
  18 C :   -0.071149
  19 C :   -0.053550
  20 C :   -0.198893
  21 H :    0.029001
  22 C :   -0.043198
  23 H :    0.021066
  24 H :    0.037253
  25 C :   -0.049583
  26 H :    0.025530
  27 H :    0.026193
  28 C :   -0.053720
  29 H :    0.023282
  30 H :    0.025740
  31 H :    0.027057
  32 H :    0.029960
  33 H :    0.035484

  Mayer bond orders larger than 0.100000
B(  0-S ,  1-C ) :   1.1400 B(  0-S ,  4-C ) :   1.1398 B(  1-C ,  2-C ) :   1.6278
B(  1-C , 32-H ) :   0.9572 B(  2-C ,  3-C ) :   1.2502 B(  2-C ,  6-C ) :   1.0149
B(  3-C ,  4-C ) :   1.5579 B(  3-C ,  5-H ) :   0.9981 B(  4-C , 20-C ) :   1.0471
B(  6-C ,  7-H ) :   0.9468 B(  6-C ,  8-H ) :   0.9392 B(  6-C ,  9-C ) :   1.0514
B(  9-C , 10-H ) :   0.9602 B(  9-C , 11-H ) :   0.9633 B(  9-C , 12-C ) :   1.0682
B( 12-C , 13-H ) :   0.9756 B( 12-C , 14-H ) :   0.9751 B( 12-C , 15-H ) :   0.9743
B( 16-S , 17-C ) :   1.1640 B( 16-S , 20-C ) :   1.1375 B( 17-C , 18-C ) :   1.6013
B( 17-C , 33-H ) :   0.9548 B( 18-C , 19-C ) :   1.2514 B( 18-C , 21-H ) :   0.9933
B( 19-C , 20-C ) :   1.5745 B( 19-C , 22-C ) :   1.0423 B( 22-C , 23-H ) :   0.9206
B( 22-C , 24-H ) :   0.9227 B( 22-C , 25-C ) :   1.0809 B( 25-C , 26-H ) :   0.9399
B( 25-C , 27-H ) :   0.9604 B( 25-C , 28-C ) :   1.0748 B( 28-C , 29-H ) :   0.9752
B( 28-C , 30-H ) :   0.9693 B( 28-C , 31-H ) :   0.9733

Dispersion correction           -0.013274650
FINAL SINGLE POINT ENERGY     -1339.863323664205

DIPOLE MOMENT
-------------
                                X             Y             Z
Electronic contribution:    -21.55221       4.34619     -21.01450
Nuclear contribution   :     22.13735      -4.19309      21.54033
                        -----------------------------------------
Total Dipole Moment    :      0.58513       0.15310       0.52583
                        -----------------------------------------
Magnitude (a.u.)       :      0.80145
Magnitude (Debye)      :      2.03713

Rotational constants in cm-1:     0.017450     0.007866     0.006019
Rotational constants in MHz :   523.130059   235.810150   180.449418

                             ****ORCA TERMINATED NORMALLY****
TOTAL RUN TIME: 0 days 0 hours 0 minutes 33 seconds 388 msec
