                         Program Version 4.2.1 -  RELEASE  -
|  1> ! wB97X-D3 SP def2-SVP
|  2> %pal
|  3> nprocs 16
|  4> end
|  5>
|  6> * xyz 0 1
|  7> S 	 -13.8857 	 39.1671 	 55.3999
|  8> C 	 -13.1969 	 40.1382 	 54.1799
|  9> C 	 -13.7219 	 39.9576 	 52.8984
| 10> C 	 -14.5041 	 38.7409 	 52.8985
| 11> C 	 -14.8096 	 38.3155 	 54.2168
| 12> H 	 -14.9675 	 38.2863 	 52.0398
| 13> C 	 -13.2776 	 40.6871 	 51.6162
| 14> H 	 -12.7737 	 39.9573 	 50.9472
| 15> H 	 -12.5472 	 41.376 	 51.891
| 16> C 	 -14.3526 	 41.5845 	 50.9857
| 17> H 	 -14.0154 	 41.9522 	 50.0921
| 18> H 	 -15.2832 	 40.9558 	 50.7322
| 19> C 	 -14.809 	 42.7773 	 51.8835
| 20> H 	 -15.6746 	 43.3419 	 51.3472
| 21> H 	 -15.0815 	 42.4952 	 52.9509
| 22> H 	 -14.0204 	 43.5114 	 51.9674
| 23> S 	 -16.0199 	 37.1209 	 56.3406
| 24> C 	 -16.9886 	 35.7019 	 56.1865
| 25> C 	 -17.1672 	 35.384 	 54.8864
| 26> C 	 -16.4134 	 36.2571 	 53.967
| 27> C 	 -15.6894 	 37.2435 	 54.5912
| 28> H 	 -17.8477 	 34.5585 	 54.6746
| 29> C 	 -16.408 	 35.9767 	 52.4272
| 30> H 	 -16.4616 	 34.9284 	 52.1263
| 31> H 	 -15.3598 	 36.1283 	 51.9948
| 32> C 	 -17.497 	 36.8113 	 51.655
| 33> H 	 -17.3932 	 37.979 	 51.7672
| 34> H 	 -18.4208 	 36.6479 	 52.1373
| 35> C 	 -17.4454 	 36.4429 	 50.1502
| 36> H 	 -17.8482 	 35.4335 	 49.9592
| 37> H 	 -16.4071 	 36.3869 	 49.7256
| 38> H 	 -17.8511 	 37.1519 	 49.5283
| 39> H 	 -12.4324 	 40.8781 	 54.4195
| 40> H 	 -17.6799 	 35.3857 	 56.9479
| 41> *
| 42>
| 43>                          ****END OF INPUT****

CARTESIAN COORDINATES (ANGSTROEM)
---------------------------------
  S    -13.885700   39.167100   55.399900
  C    -13.196900   40.138200   54.179900
  C    -13.721900   39.957600   52.898400
  C    -14.504100   38.740900   52.898500
  C    -14.809600   38.315500   54.216800
  H    -14.967500   38.286300   52.039800
  C    -13.277600   40.687100   51.616200
  H    -12.773700   39.957300   50.947200
  H    -12.547200   41.376000   51.891000
  C    -14.352600   41.584500   50.985700
  H    -14.015400   41.952200   50.092100
  H    -15.283200   40.955800   50.732200
  C    -14.809000   42.777300   51.883500
  H    -15.674600   43.341900   51.347200
  H    -15.081500   42.495200   52.950900
  H    -14.020400   43.511400   51.967400
  S    -16.019900   37.120900   56.340600
  C    -16.988600   35.701900   56.186500
  C    -17.167200   35.384000   54.886400
  C    -16.413400   36.257100   53.967000
  C    -15.689400   37.243500   54.591200
  H    -17.847700   34.558500   54.674600
  C    -16.408000   35.976700   52.427200
  H    -16.461600   34.928400   52.126300
  H    -15.359800   36.128300   51.994800
  C    -17.497000   36.811300   51.655000
  H    -17.393200   37.979000   51.767200
  H    -18.420800   36.647900   52.137300
  C    -17.445400   36.442900   50.150200
  H    -17.848200   35.433500   49.959200
  H    -16.407100   36.386900   49.725600
  H    -17.851100   37.151900   49.528300
  H    -12.432400   40.878100   54.419500
  H    -17.679900   35.385700   56.947900

 Total Charge           Charge          ....    0
 Multiplicity           Mult            ....    1
 Number of Electrons    NEL             ....  134
 Basis Dimension        Dim             ....  322

ORBITAL ENERGIES
----------------

  NO   OCC          E(Eh)            E(eV)
   0   2.0000     -88.971314     -2421.0325
   1   2.0000     -88.956959     -2420.6419
   2   2.0000     -10.330990      -281.1205
   3   2.0000     -10.330349      -281.1031
   4   2.0000     -10.314067      -280.6600
   5   2.0000     -10.310232      -280.5557
   6   2.0000     -10.310095      -280.5519
   7   2.0000     -10.306435      -280.4523
   8   2.0000     -10.302818      -280.3539
   9   2.0000     -10.298018      -280.2233
  10   2.0000     -10.297550      -280.2106
  11   2.0000     -10.295618      -280.1580
  12   2.0000     -10.293863      -280.1103
  13   2.0000     -10.289861      -280.0013
  14   2.0000     -10.289363      -279.9878
  15   2.0000     -10.279489      -279.7191
  16   2.0000      -8.087048      -220.0598
  17   2.0000      -8.072482      -219.6634
  18   2.0000      -6.045358      -164.5025
  19   2.0000      -6.041496      -164.3975
  20   2.0000      -6.037865      -164.2987
  21   2.0000      -6.031124      -164.1152
  22   2.0000      -6.026955      -164.0018
  23   2.0000      -6.022976      -163.8935
  24   2.0000      -1.010626       -27.5005
  25   2.0000      -0.984964       -26.8022
  26   2.0000      -0.911342       -24.7989
  27   2.0000      -0.899243       -24.4697
  28   2.0000      -0.872691       -23.7471
  29   2.0000      -0.851707       -23.1761
  30   2.0000      -0.838839       -22.8260
  31   2.0000      -0.812219       -22.1016
  32   2.0000      -0.781037       -21.2531
  33   2.0000      -0.772627       -21.0243
  34   2.0000      -0.710733       -19.3400
  35   2.0000      -0.701428       -19.0868
  36   2.0000      -0.692764       -18.8511
  37   2.0000      -0.664173       -18.0731
  38   2.0000      -0.636261       -17.3135
  39   2.0000      -0.623006       -16.9529
  40   2.0000      -0.594936       -16.1890
  41   2.0000      -0.566941       -15.4273
  42   2.0000      -0.554121       -15.0784
  43   2.0000      -0.550163       -14.9707
  44   2.0000      -0.540419       -14.7056
  45   2.0000      -0.520523       -14.1641
  46   2.0000      -0.515995       -14.0409
  47   2.0000      -0.508539       -13.8380
  48   2.0000      -0.502764       -13.6809
  49   2.0000      -0.496858       -13.5202
  50   2.0000      -0.490034       -13.3345
  51   2.0000      -0.485571       -13.2131
  52   2.0000      -0.467828       -12.7303
  53   2.0000      -0.462649       -12.5893
  54   2.0000      -0.460388       -12.5278
  55   2.0000      -0.451517       -12.2864
  56   2.0000      -0.447954       -12.1895
  57   2.0000      -0.440156       -11.9772
  58   2.0000      -0.431366       -11.7381
  59   2.0000      -0.424408       -11.5487
  60   2.0000      -0.417850       -11.3703
  61   2.0000      -0.411604       -11.2003
  62   2.0000      -0.403773       -10.9872
  63   2.0000      -0.367860       -10.0100
  64   2.0000      -0.336359        -9.1528
  65   2.0000      -0.324645        -8.8340
  66   2.0000      -0.280499        -7.6328
  67   0.0000       0.019402         0.5280
  68   0.0000       0.084552         2.3008
  69   0.0000       0.101088         2.7507
  70   0.0000       0.111581         3.0363
  71   0.0000       0.128901         3.5076

MULLIKEN ATOMIC CHARGES
-----------------------
   0 S :    0.133479
   1 C :   -0.116579
   2 C :   -0.103151
   3 C :   -0.001481
   4 C :   -0.113906
   5 H :    0.006769
   6 C :    0.090130
   7 H :    0.048236
   8 H :   -0.008383
   9 C :   -0.044907
  10 H :    0.011225
  11 H :    0.035399
  12 C :   -0.108932
  13 H :    0.050825
  14 H :    0.062149
  15 H :    0.025035
  16 S :    0.050255
  17 C :   -0.066866
  18 C :   -0.040381
  19 C :   -0.057818
  20 C :   -0.078402
  21 H :    0.025861
  22 C :   -0.020816
  23 H :    0.024177
  24 H :    0.034826
  25 C :   -0.074719
  26 H :    0.045526
  27 H :    0.023520
  28 C :   -0.023949
  29 H :    0.037474
  30 H :    0.021690
  31 H :    0.018637
  32 H :    0.051992
  33 H :    0.063083
Sum of atomic charges:   -0.0000000

LOEWDIN ATOMIC CHARGES
----------------------
   0 S :    0.440447
   1 C :   -0.210654
   2 C :   -0.059347
   3 C :   -0.054225
   4 C :   -0.201205
   5 H :    0.026642
   6 C :   -0.028638
   7 H :    0.039439
   8 H :    0.019531
   9 C :   -0.036361
  10 H :    0.011272
  11 H :    0.028342
  12 C :   -0.076201
  13 H :    0.038985
  14 H :    0.035299
  15 H :    0.017271
  16 S :    0.376258
  17 C :   -0.192555
  18 C :   -0.072243
  19 C :   -0.063249
  20 C :   -0.170343
  21 H :    0.035161
  22 C :   -0.042242
  23 H :    0.029597
  24 H :    0.033412
  25 C :   -0.042063
  26 H :    0.034720
  27 H :    0.018171
  28 C :   -0.067722
  29 H :    0.028978
  30 H :    0.030345
  31 H :    0.013753
  32 H :    0.026770
  33 H :    0.032656

  Mayer bond orders larger than 0.100000
B(  0-S ,  1-C ) :   1.1617 B(  0-S ,  4-C ) :   1.1531 B(  1-C ,  2-C ) :   1.5856
B(  1-C , 32-H ) :   0.9620 B(  2-C ,  3-C ) :   1.2507 B(  2-C ,  6-C ) :   1.0285
B(  3-C ,  4-C ) :   1.5380 B(  3-C ,  5-H ) :   0.9869 B(  4-C , 20-C ) :   1.1098
B(  6-C ,  7-H ) :   0.9453 B(  6-C ,  8-H ) :   0.9336 B(  6-C ,  9-C ) :   1.0623
B(  9-C , 10-H ) :   0.9546 B(  9-C , 11-H ) :   0.9607 B(  9-C , 12-C ) :   1.0654
B( 12-C , 13-H ) :   0.9741 B( 12-C , 14-H ) :   0.9756 B( 12-C , 15-H ) :   0.9745
B( 16-S , 17-C ) :   1.1407 B( 16-S , 20-C ) :   1.1099 B( 17-C , 18-C ) :   1.6562
B( 17-C , 33-H ) :   0.9600 B( 18-C , 19-C ) :   1.2050 B( 18-C , 21-H ) :   0.9900
B( 19-C , 20-C ) :   1.6302 B( 19-C , 22-C ) :   1.0203 B( 22-C , 23-H ) :   0.9482
B( 22-C , 24-H ) :   0.9456 B( 22-C , 25-C ) :   1.0374 B( 25-C , 26-H ) :   0.9585
B( 25-C , 27-H ) :   0.9568 B( 25-C , 28-C ) :   1.0654 B( 28-C , 29-H ) :   0.9747
B( 28-C , 30-H ) :   0.9728 B( 28-C , 31-H ) :   0.9750

Dispersion correction           -0.014336114
FINAL SINGLE POINT ENERGY     -1339.861963565717

DIPOLE MOMENT
-------------
                                X             Y             Z
Electronic contribution:      5.53501      -7.68179      28.58161
Nuclear contribution   :     -5.63842       7.75146     -29.29442
                        -----------------------------------------
Total Dipole Moment    :     -0.10340       0.06967      -0.71281
                        -----------------------------------------
Magnitude (a.u.)       :      0.72363
Magnitude (Debye)      :      1.83933

Rotational constants in cm-1:     0.017277     0.009685     0.006729
Rotational constants in MHz :   517.954786   290.363424   201.741873

                             ****ORCA TERMINATED NORMALLY****
TOTAL RUN TIME: 0 days 0 hours 0 minutes 35 seconds 87 msec
