                         Program Version 4.2.1 -  RELEASE  -
|  1> ! wB97X-D3 SP def2-SVP
|  2> %pal
|  3> nprocs 16
|  4> end
|  5>
|  6> * xyz 0 1
|  7> S 	 -1.04308 	 -15.3202 	 85.062
|  8> C 	 -1.58158 	 -16.6747 	 86.0686
|  9> C 	 -2.07442 	 -16.2466 	 87.2967
| 10> C 	 -2.13969 	 -14.8191 	 87.3721
| 11> C 	 -1.7646 	 -14.1824 	 86.2628
| 12> H 	 -2.38221 	 -14.307 	 88.2417
| 13> C 	 -2.34708 	 -17.2093 	 88.4277
| 14> H 	 -1.37051 	 -17.2806 	 88.9199
| 15> H 	 -2.54775 	 -18.2268 	 88.0623
| 16> C 	 -3.25483 	 -16.7571 	 89.5597
| 17> H 	 -2.74587 	 -15.976 	 90.1042
| 18> H 	 -4.27401 	 -16.5139 	 89.3031
| 19> C 	 -3.32369 	 -17.8247 	 90.6453
| 20> H 	 -2.22534 	 -18.0934 	 91.0681
| 21> H 	 -3.92947 	 -17.5022 	 91.5228
| 22> H 	 -3.58641 	 -18.7753 	 90.2448
| 23> S 	 -0.431427 	 -11.9798 	 85.2004
| 24> C 	 -1.10535 	 -10.3351 	 85.4283
| 25> C 	 -2.25237 	 -10.3965 	 86.213
| 26> C 	 -2.70466 	 -11.7146 	 86.4599
| 27> C 	 -1.85509 	 -12.7233 	 86.0061
| 28> H 	 -2.61157 	 -9.48216 	 86.5568
| 29> C 	 -3.95936 	 -11.952 	 87.3091
| 30> H 	 -3.63599 	 -12.3759 	 88.2505
| 31> H 	 -4.6356 	 -12.7374 	 86.9091
| 32> C 	 -4.83387 	 -10.7405 	 87.6557
| 33> H 	 -4.96709 	 -10.1755 	 86.706
| 34> H 	 -4.2901 	 -10.0316 	 88.2471
| 35> C 	 -6.18961 	 -10.9854 	 88.293
| 36> H 	 -6.88115 	 -10.2215 	 88.3892
| 37> H 	 -5.85904 	 -11.3805 	 89.2807
| 38> H 	 -6.67985 	 -11.8144 	 87.7081
| 39> H 	 -1.06304 	 -17.6535 	 85.8602
| 40> H 	 -0.567999 	 -9.4236 	 85.2681
| 41> *
| 42>
| 43>                          ****END OF INPUT****

CARTESIAN COORDINATES (ANGSTROEM)
---------------------------------
  S     -1.043080  -15.320200   85.062000
  C     -1.581580  -16.674700   86.068600
  C     -2.074420  -16.246600   87.296700
  C     -2.139690  -14.819100   87.372100
  C     -1.764600  -14.182400   86.262800
  H     -2.382210  -14.307000   88.241700
  C     -2.347080  -17.209300   88.427700
  H     -1.370510  -17.280600   88.919900
  H     -2.547750  -18.226800   88.062300
  C     -3.254830  -16.757100   89.559700
  H     -2.745870  -15.976000   90.104200
  H     -4.274010  -16.513900   89.303100
  C     -3.323690  -17.824700   90.645300
  H     -2.225340  -18.093400   91.068100
  H     -3.929470  -17.502200   91.522800
  H     -3.586410  -18.775300   90.244800
  S     -0.431427  -11.979800   85.200400
  C     -1.105350  -10.335100   85.428300
  C     -2.252370  -10.396500   86.213000
  C     -2.704660  -11.714600   86.459900
  C     -1.855090  -12.723300   86.006100
  H     -2.611570   -9.482160   86.556800
  C     -3.959360  -11.952000   87.309100
  H     -3.635990  -12.375900   88.250500
  H     -4.635600  -12.737400   86.909100
  C     -4.833870  -10.740500   87.655700
  H     -4.967090  -10.175500   86.706000
  H     -4.290100  -10.031600   88.247100
  C     -6.189610  -10.985400   88.293000
  H     -6.881150  -10.221500   88.389200
  H     -5.859040  -11.380500   89.280700
  H     -6.679850  -11.814400   87.708100
  H     -1.063040  -17.653500   85.860200
  H     -0.567999   -9.423600   85.268100

 Total Charge           Charge          ....    0
 Multiplicity           Mult            ....    1
 Number of Electrons    NEL             ....  134
 Basis Dimension        Dim             ....  322

ORBITAL ENERGIES
----------------

  NO   OCC          E(Eh)            E(eV)
   0   2.0000     -88.966113     -2420.8910
   1   2.0000     -88.962624     -2420.7961
   2   2.0000     -10.334819      -281.2247
   3   2.0000     -10.333584      -281.1911
   4   2.0000     -10.320909      -280.8462
   5   2.0000     -10.316619      -280.7295
   6   2.0000     -10.311252      -280.5834
   7   2.0000     -10.305953      -280.4392
   8   2.0000     -10.296702      -280.1875
   9   2.0000     -10.296359      -280.1782
  10   2.0000     -10.293069      -280.0886
  11   2.0000     -10.290579      -280.0209
  12   2.0000     -10.288703      -279.9699
  13   2.0000     -10.288466      -279.9634
  14   2.0000     -10.285851      -279.8922
  15   2.0000     -10.281849      -279.7833
  16   2.0000      -8.079453      -219.8531
  17   2.0000      -8.076571      -219.7747
  18   2.0000      -6.038091      -164.3048
  19   2.0000      -6.035262      -164.2278
  20   2.0000      -6.034160      -164.1978
  21   2.0000      -6.031374      -164.1220
  22   2.0000      -6.030157      -164.0889
  23   2.0000      -6.027011      -164.0033
  24   2.0000      -1.001126       -27.2420
  25   2.0000      -0.979557       -26.6551
  26   2.0000      -0.918396       -24.9908
  27   2.0000      -0.909878       -24.7590
  28   2.0000      -0.870503       -23.6876
  29   2.0000      -0.853996       -23.2384
  30   2.0000      -0.845529       -23.0080
  31   2.0000      -0.821506       -22.3543
  32   2.0000      -0.781688       -21.2708
  33   2.0000      -0.768401       -20.9093
  34   2.0000      -0.710637       -19.3374
  35   2.0000      -0.702837       -19.1252
  36   2.0000      -0.688679       -18.7399
  37   2.0000      -0.654909       -17.8210
  38   2.0000      -0.643433       -17.5087
  39   2.0000      -0.630077       -17.1453
  40   2.0000      -0.600917       -16.3518
  41   2.0000      -0.580672       -15.8009
  42   2.0000      -0.570174       -15.5152
  43   2.0000      -0.567972       -15.4553
  44   2.0000      -0.535405       -14.5691
  45   2.0000      -0.531808       -14.4712
  46   2.0000      -0.517281       -14.0759
  47   2.0000      -0.512485       -13.9454
  48   2.0000      -0.501496       -13.6464
  49   2.0000      -0.496264       -13.5040
  50   2.0000      -0.486595       -13.2409
  51   2.0000      -0.475186       -12.9305
  52   2.0000      -0.472352       -12.8534
  53   2.0000      -0.469279       -12.7697
  54   2.0000      -0.460031       -12.5181
  55   2.0000      -0.452079       -12.3017
  56   2.0000      -0.444451       -12.0941
  57   2.0000      -0.437764       -11.9122
  58   2.0000      -0.427852       -11.6425
  59   2.0000      -0.425897       -11.5893
  60   2.0000      -0.422514       -11.4972
  61   2.0000      -0.418863       -11.3978
  62   2.0000      -0.408571       -11.1178
  63   2.0000      -0.352767        -9.5993
  64   2.0000      -0.333761        -9.0821
  65   2.0000      -0.327281        -8.9058
  66   2.0000      -0.288148        -7.8409
  67   0.0000       0.018391         0.5005
  68   0.0000       0.069085         1.8799
  69   0.0000       0.093434         2.5425
  70   0.0000       0.123592         3.3631
  71   0.0000       0.129393         3.5210

MULLIKEN ATOMIC CHARGES
-----------------------
   0 S :    0.083895
   1 C :   -0.149806
   2 C :   -0.061284
   3 C :    0.011300
   4 C :   -0.094137
   5 H :   -0.015999
   6 C :    0.038958
   7 H :    0.036599
   8 H :    0.030348
   9 C :   -0.055480
  10 H :    0.032632
  11 H :    0.041466
  12 C :   -0.086129
  13 H :    0.026059
  14 H :    0.051696
  15 H :    0.021735
  16 S :    0.077770
  17 C :   -0.072290
  18 C :   -0.040814
  19 C :   -0.022032
  20 C :   -0.120465
  21 H :    0.002022
  22 C :    0.045673
  23 H :    0.025977
  24 H :    0.039908
  25 C :   -0.115599
  26 H :    0.026807
  27 H :    0.021215
  28 C :   -0.006092
  29 H :    0.031429
  30 H :    0.028398
  31 H :    0.033805
  32 H :    0.077419
  33 H :    0.055017
Sum of atomic charges:   -0.0000000

LOEWDIN ATOMIC CHARGES
----------------------
   0 S :    0.362010
   1 C :   -0.203452
   2 C :   -0.054401
   3 C :   -0.059836
   4 C :   -0.163581
   5 H :    0.021637
   6 C :   -0.035301
   7 H :    0.041865
   8 H :    0.032584
   9 C :   -0.044190
  10 H :    0.027819
  11 H :    0.024340
  12 C :   -0.068666
  13 H :    0.031647
  14 H :    0.031074
  15 H :    0.013746
  16 S :    0.371169
  17 C :   -0.165427
  18 C :   -0.063866
  19 C :   -0.052279
  20 C :   -0.176003
  21 H :    0.023630
  22 C :   -0.032861
  23 H :    0.026268
  24 H :    0.037681
  25 C :   -0.051329
  26 H :    0.021873
  27 H :    0.015771
  28 C :   -0.056945
  29 H :    0.017758
  30 H :    0.030510
  31 H :    0.031629
  32 H :    0.037686
  33 H :    0.027439

  Mayer bond orders larger than 0.100000
B(  0-S ,  1-C ) :   1.1202 B(  0-S ,  4-C ) :   1.1270 B(  1-C ,  2-C ) :   1.6327
B(  1-C , 32-H ) :   0.9581 B(  2-C ,  3-C ) :   1.2227 B(  2-C ,  6-C ) :   1.0167
B(  3-C ,  4-C ) :   1.6007 B(  3-C ,  5-H ) :   1.0071 B(  4-C , 20-C ) :   1.0383
B(  6-C ,  7-H ) :   0.9273 B(  6-C ,  8-H ) :   0.9503 B(  6-C ,  9-C ) :   1.0735
B(  9-C , 10-H ) :   0.9413 B(  9-C , 11-H ) :   0.9589 B(  9-C , 12-C ) :   1.0855
B( 12-C , 13-H ) :   0.9716 B( 12-C , 14-H ) :   0.9726 B( 12-C , 15-H ) :   0.9739
B( 16-S , 17-C ) :   1.1494 B( 16-S , 20-C ) :   1.1300 B( 17-C , 18-C ) :   1.6080
B( 17-C , 20-C ) :   0.1048 B( 17-C , 33-H ) :   0.9635 B( 18-C , 19-C ) :   1.2444
B( 18-C , 21-H ) :   0.9970 B( 19-C , 20-C ) :   1.6026 B( 19-C , 22-C ) :   1.0234
B( 22-C , 23-H ) :   0.9250 B( 22-C , 24-H ) :   0.9373 B( 22-C , 25-C ) :   1.0810
B( 25-C , 26-H ) :   0.9512 B( 25-C , 27-H ) :   0.9463 B( 25-C , 28-C ) :   1.0726
B( 28-C , 29-H ) :   0.9742 B( 28-C , 30-H ) :   0.9754 B( 28-C , 31-H ) :   0.9738

Dispersion correction           -0.013195228
FINAL SINGLE POINT ENERGY     -1339.855328887948

DIPOLE MOMENT
-------------
                                X             Y             Z
Electronic contribution:     20.64268       4.36293     -24.66449
Nuclear contribution   :    -20.91597      -4.27916      25.57665
                        -----------------------------------------
Total Dipole Moment    :     -0.27329       0.08377       0.91217
                        -----------------------------------------
Magnitude (a.u.)       :      0.95591
Magnitude (Debye)      :      2.42972

Rotational constants in cm-1:     0.015353     0.009031     0.006067
Rotational constants in MHz :   460.265734   270.730766   181.876758

                             ****ORCA TERMINATED NORMALLY****
TOTAL RUN TIME: 0 days 0 hours 0 minutes 31 seconds 531 msec
