                         Program Version 4.2.1 -  RELEASE  -
|  1> ! wB97X-D3 SP def2-SVP
|  2> %pal
|  3> nprocs 16
|  4> end
|  5>
|  6> * xyz 0 1
|  7> S 	 -12.362 	 57.6847 	 54.717
|  8> C 	 -11.1629 	 56.4196 	 54.3825
|  9> C 	 -9.90421 	 56.7072 	 54.876
| 10> C 	 -9.95016 	 57.9379 	 55.6618
| 11> C 	 -11.1917 	 58.4786 	 55.8033
| 12> H 	 -9.14972 	 58.3053 	 56.2628
| 13> C 	 -8.55826 	 55.9261 	 54.6645
| 14> H 	 -7.82761 	 56.6818 	 54.6805
| 15> H 	 -8.54264 	 55.4456 	 53.632
| 16> C 	 -8.23119 	 54.8988 	 55.8538
| 17> H 	 -7.39895 	 54.1977 	 55.6233
| 18> H 	 -7.92898 	 55.4851 	 56.741
| 19> C 	 -9.47771 	 54.0384 	 56.3001
| 20> H 	 -10.2453 	 54.7105 	 56.5961
| 21> H 	 -9.88447 	 53.4532 	 55.5076
| 22> H 	 -9.10077 	 53.51 	 57.1278
| 23> S 	 -10.4809 	 59.853 	 58.0782
| 24> C 	 -11.5044 	 61.1252 	 58.5831
| 25> C 	 -12.4821 	 61.4371 	 57.6748
| 26> C 	 -12.3677 	 60.6861 	 56.486
| 27> C 	 -11.4618 	 59.6451 	 56.6059
| 28> H 	 -13.2485 	 62.1281 	 57.9447
| 29> C 	 -13.4634 	 60.7874 	 55.4168
| 30> H 	 -14.436 	 60.9797 	 55.9051
| 31> H 	 -13.6402 	 59.7811 	 55.0768
| 32> C 	 -13.355 	 61.7987 	 54.2699
| 33> H 	 -13.2257 	 62.8209 	 54.8212
| 34> H 	 -14.2395 	 61.9708 	 53.6566
| 35> C 	 -12.215 	 61.6586 	 53.2693
| 36> H 	 -12.1905 	 60.6672 	 52.8941
| 37> H 	 -11.2297 	 61.7551 	 53.7353
| 38> H 	 -12.3867 	 62.3092 	 52.3911
| 39> H 	 -11.3483 	 55.6017 	 53.5727
| 40> H 	 -11.4592 	 61.576 	 59.5091
| 41> *
| 42>
| 43>                          ****END OF INPUT****

CARTESIAN COORDINATES (ANGSTROEM)
---------------------------------
  S    -12.362000   57.684700   54.717000
  C    -11.162900   56.419600   54.382500
  C     -9.904210   56.707200   54.876000
  C     -9.950160   57.937900   55.661800
  C    -11.191700   58.478600   55.803300
  H     -9.149720   58.305300   56.262800
  C     -8.558260   55.926100   54.664500
  H     -7.827610   56.681800   54.680500
  H     -8.542640   55.445600   53.632000
  C     -8.231190   54.898800   55.853800
  H     -7.398950   54.197700   55.623300
  H     -7.928980   55.485100   56.741000
  C     -9.477710   54.038400   56.300100
  H    -10.245300   54.710500   56.596100
  H     -9.884470   53.453200   55.507600
  H     -9.100770   53.510000   57.127800
  S    -10.480900   59.853000   58.078200
  C    -11.504400   61.125200   58.583100
  C    -12.482100   61.437100   57.674800
  C    -12.367700   60.686100   56.486000
  C    -11.461800   59.645100   56.605900
  H    -13.248500   62.128100   57.944700
  C    -13.463400   60.787400   55.416800
  H    -14.436000   60.979700   55.905100
  H    -13.640200   59.781100   55.076800
  C    -13.355000   61.798700   54.269900
  H    -13.225700   62.820900   54.821200
  H    -14.239500   61.970800   53.656600
  C    -12.215000   61.658600   53.269300
  H    -12.190500   60.667200   52.894100
  H    -11.229700   61.755100   53.735300
  H    -12.386700   62.309200   52.391100
  H    -11.348300   55.601700   53.572700
  H    -11.459200   61.576000   59.509100

 Total Charge           Charge          ....    0
 Multiplicity           Mult            ....    1
 Number of Electrons    NEL             ....  134
 Basis Dimension        Dim             ....  322

ORBITAL ENERGIES
----------------

  NO   OCC          E(Eh)            E(eV)
   0   2.0000     -88.970569     -2421.0123
   1   2.0000     -88.968651     -2420.9601
   2   2.0000     -10.331680      -281.1393
   3   2.0000     -10.329767      -281.0873
   4   2.0000     -10.324257      -280.9373
   5   2.0000     -10.309836      -280.5449
   6   2.0000     -10.308925      -280.5201
   7   2.0000     -10.304549      -280.4010
   8   2.0000     -10.303633      -280.3761
   9   2.0000     -10.296479      -280.1814
  10   2.0000     -10.293079      -280.0889
  11   2.0000     -10.293067      -280.0886
  12   2.0000     -10.290877      -280.0290
  13   2.0000     -10.289571      -279.9935
  14   2.0000     -10.268086      -279.4088
  15   2.0000     -10.265684      -279.3435
  16   2.0000      -8.083717      -219.9691
  17   2.0000      -8.083701      -219.9687
  18   2.0000      -6.042489      -164.4245
  19   2.0000      -6.042173      -164.4159
  20   2.0000      -6.038629      -164.3195
  21   2.0000      -6.038264      -164.3095
  22   2.0000      -6.034402      -164.2044
  23   2.0000      -6.034108      -164.1964
  24   2.0000      -1.009880       -27.4802
  25   2.0000      -0.983148       -26.7528
  26   2.0000      -0.905964       -24.6525
  27   2.0000      -0.897803       -24.4305
  28   2.0000      -0.871198       -23.7065
  29   2.0000      -0.854333       -23.2476
  30   2.0000      -0.841884       -22.9088
  31   2.0000      -0.811262       -22.0756
  32   2.0000      -0.786315       -21.3967
  33   2.0000      -0.776953       -21.1420
  34   2.0000      -0.706688       -19.2300
  35   2.0000      -0.696709       -18.9584
  36   2.0000      -0.688372       -18.7316
  37   2.0000      -0.666512       -18.1367
  38   2.0000      -0.633274       -17.2323
  39   2.0000      -0.615234       -16.7414
  40   2.0000      -0.596646       -16.2355
  41   2.0000      -0.560551       -15.2534
  42   2.0000      -0.555869       -15.1260
  43   2.0000      -0.549312       -14.9475
  44   2.0000      -0.544181       -14.8079
  45   2.0000      -0.535698       -14.5771
  46   2.0000      -0.515277       -14.0214
  47   2.0000      -0.509055       -13.8521
  48   2.0000      -0.503098       -13.6900
  49   2.0000      -0.495665       -13.4877
  50   2.0000      -0.488001       -13.2792
  51   2.0000      -0.481142       -13.0925
  52   2.0000      -0.472525       -12.8581
  53   2.0000      -0.462507       -12.5854
  54   2.0000      -0.457479       -12.4486
  55   2.0000      -0.452063       -12.3013
  56   2.0000      -0.442533       -12.0419
  57   2.0000      -0.434571       -11.8253
  58   2.0000      -0.432267       -11.7626
  59   2.0000      -0.424998       -11.5648
  60   2.0000      -0.421458       -11.4685
  61   2.0000      -0.413845       -11.2613
  62   2.0000      -0.398800       -10.8519
  63   2.0000      -0.359619        -9.7857
  64   2.0000      -0.337774        -9.1913
  65   2.0000      -0.331160        -9.0113
  66   2.0000      -0.285077        -7.7573
  67   0.0000       0.018907         0.5145
  68   0.0000       0.076179         2.0729
  69   0.0000       0.101440         2.7603
  70   0.0000       0.107205         2.9172
  71   0.0000       0.124969         3.4006

MULLIKEN ATOMIC CHARGES
-----------------------
   0 S :    0.082527
   1 C :   -0.148505
   2 C :   -0.104115
   3 C :   -0.015896
   4 C :   -0.086021
   5 H :    0.011976
   6 C :    0.084283
   7 H :    0.018720
   8 H :    0.044721
   9 C :   -0.121570
  10 H :    0.043812
  11 H :    0.033918
  12 C :   -0.024825
  13 H :    0.042757
  14 H :    0.027598
  15 H :    0.030047
  16 S :    0.100764
  17 C :   -0.045691
  18 C :   -0.037448
  19 C :   -0.025693
  20 C :   -0.148978
  21 H :    0.015465
  22 C :    0.048617
  23 H :    0.026976
  24 H :    0.011396
  25 C :   -0.087200
  26 H :    0.027152
  27 H :    0.031385
  28 C :   -0.032909
  29 H :    0.012164
  30 H :    0.038258
  31 H :    0.038118
  32 H :    0.082311
  33 H :    0.025886
Sum of atomic charges:   -0.0000000

LOEWDIN ATOMIC CHARGES
----------------------
   0 S :    0.384959
   1 C :   -0.206616
   2 C :   -0.059225
   3 C :   -0.067832
   4 C :   -0.173486
   5 H :    0.020276
   6 C :   -0.027434
   7 H :    0.022362
   8 H :    0.037498
   9 C :   -0.038560
  10 H :    0.026328
  11 H :    0.024733
  12 C :   -0.056492
  13 H :    0.023476
  14 H :    0.019774
  15 H :    0.021760
  16 S :    0.413144
  17 C :   -0.180080
  18 C :   -0.064114
  19 C :   -0.058336
  20 C :   -0.177004
  21 H :    0.030448
  22 C :   -0.037789
  23 H :    0.038503
  24 H :    0.008753
  25 C :   -0.048165
  26 H :    0.029101
  27 H :    0.025865
  28 C :   -0.069354
  29 H :    0.017065
  30 H :    0.028061
  31 H :    0.031156
  32 H :    0.047130
  33 H :    0.014096

  Mayer bond orders larger than 0.100000
B(  0-S ,  1-C ) :   1.1136 B(  0-S ,  4-C ) :   1.1113 B(  1-C ,  2-C ) :   1.6583
B(  1-C , 32-H ) :   0.9492 B(  2-C ,  3-C ) :   1.2062 B(  2-C ,  6-C ) :   1.0106
B(  3-C ,  4-C ) :   1.6013 B(  3-C ,  5-H ) :   0.9879 B(  4-C , 20-C ) :   1.1003
B(  6-C ,  7-H ) :   0.9457 B(  6-C ,  8-H ) :   0.9495 B(  6-C ,  9-C ) :   1.0484
B(  9-C , 10-H ) :   0.9632 B(  9-C , 11-H ) :   0.9596 B(  9-C , 12-C ) :   1.0751
B( 12-C , 13-H ) :   0.9701 B( 12-C , 14-H ) :   0.9796 B( 12-C , 15-H ) :   0.9757
B( 16-S , 17-C ) :   1.1528 B( 16-S , 20-C ) :   1.1340 B( 17-C , 18-C ) :   1.6236
B( 17-C , 33-H ) :   0.9736 B( 18-C , 19-C ) :   1.2293 B( 18-C , 21-H ) :   0.9953
B( 19-C , 20-C ) :   1.5674 B( 19-C , 22-C ) :   1.0214 B( 22-C , 23-H ) :   0.9367
B( 22-C , 24-H ) :   0.9414 B( 22-C , 25-C ) :   1.0598 B( 25-C , 26-H ) :   0.9534
B( 25-C , 27-H ) :   0.9581 B( 25-C , 28-C ) :   1.0817 B( 28-C , 29-H ) :   0.9714
B( 28-C , 30-H ) :   0.9736 B( 28-C , 31-H ) :   0.9740

Dispersion correction           -0.014907852
FINAL SINGLE POINT ENERGY     -1339.865343773126

DIPOLE MOMENT
-------------
                                X             Y             Z
Electronic contribution:     -3.30689       4.62502       9.10579
Nuclear contribution   :      3.36070      -4.63921      -9.11037
                        -----------------------------------------
Total Dipole Moment    :      0.05382      -0.01420      -0.00458
                        -----------------------------------------
Magnitude (a.u.)       :      0.05585
Magnitude (Debye)      :      0.14195

Rotational constants in cm-1:     0.021556     0.008663     0.006939
Rotational constants in MHz :   646.235304   259.714510   208.040422

                             ****ORCA TERMINATED NORMALLY****
TOTAL RUN TIME: 0 days 0 hours 0 minutes 37 seconds 37 msec
