                         Program Version 4.2.1 -  RELEASE  -
|  1> ! wB97X-D3 SP def2-SVP
|  2> %pal
|  3> nprocs 16
|  4> end
|  5>
|  6> * xyz 0 1
|  7> S 	 -6.79912 	 -7.12642 	 82.7967
|  8> C 	 -7.96001 	 -8.33053 	 82.4607
|  9> C 	 -7.48108 	 -9.61297 	 82.4356
| 10> C 	 -6.10698 	 -9.6258 	 82.9687
| 11> C 	 -5.64037 	 -8.31779 	 83.1498
| 12> H 	 -5.52874 	 -10.5367 	 83.1912
| 13> C 	 -8.18898 	 -10.7245 	 81.7705
| 14> H 	 -9.25 	 -10.439 	 81.7759
| 15> H 	 -8.04874 	 -11.6086 	 82.3859
| 16> C 	 -7.91119 	 -11.0524 	 80.2402
| 17> H 	 -8.64344 	 -11.6905 	 79.7453
| 18> H 	 -7.81861 	 -10.1669 	 79.6844
| 19> C 	 -6.63979 	 -11.9797 	 80.2012
| 20> H 	 -5.75469 	 -11.4579 	 80.5755
| 21> H 	 -6.82153 	 -12.9256 	 80.6877
| 22> H 	 -6.22081 	 -12.0651 	 79.2165
| 23> S 	 -3.39026 	 -7.00819 	 82.8197
| 24> C 	 -2.02469 	 -7.35193 	 83.9349
| 25> C 	 -2.38572 	 -8.06989 	 85.0663
| 26> C 	 -3.75504 	 -8.48847 	 84.9303
| 27> C 	 -4.40694 	 -8.0271 	 83.7832
| 28> H 	 -1.62659 	 -8.15275 	 85.8689
| 29> C 	 -4.2125 	 -9.59157 	 85.8109
| 30> H 	 -3.34873 	 -10.0522 	 86.333
| 31> H 	 -4.6076 	 -10.3928 	 85.1864
| 32> C 	 -5.28417 	 -9.06487 	 86.8916
| 33> H 	 -5.8694 	 -9.82435 	 87.45
| 34> H 	 -6.04592 	 -8.39922 	 86.3933
| 35> C 	 -4.59532 	 -8.28301 	 88.0828
| 36> H 	 -4.01565 	 -7.41 	 87.7772
| 37> H 	 -3.96666 	 -9.02985 	 88.6228
| 38> H 	 -5.35079 	 -7.96608 	 88.7492
| 39> H 	 -8.87184 	 -8.21363 	 81.9907
| 40> H 	 -1.10846 	 -6.82213 	 83.9328
| 41> *
| 42>
| 43>                          ****END OF INPUT****

CARTESIAN COORDINATES (ANGSTROEM)
---------------------------------
  S     -6.799120   -7.126420   82.796700
  C     -7.960010   -8.330530   82.460700
  C     -7.481080   -9.612970   82.435600
  C     -6.106980   -9.625800   82.968700
  C     -5.640370   -8.317790   83.149800
  H     -5.528740  -10.536700   83.191200
  C     -8.188980  -10.724500   81.770500
  H     -9.250000  -10.439000   81.775900
  H     -8.048740  -11.608600   82.385900
  C     -7.911190  -11.052400   80.240200
  H     -8.643440  -11.690500   79.745300
  H     -7.818610  -10.166900   79.684400
  C     -6.639790  -11.979700   80.201200
  H     -5.754690  -11.457900   80.575500
  H     -6.821530  -12.925600   80.687700
  H     -6.220810  -12.065100   79.216500
  S     -3.390260   -7.008190   82.819700
  C     -2.024690   -7.351930   83.934900
  C     -2.385720   -8.069890   85.066300
  C     -3.755040   -8.488470   84.930300
  C     -4.406940   -8.027100   83.783200
  H     -1.626590   -8.152750   85.868900
  C     -4.212500   -9.591570   85.810900
  H     -3.348730  -10.052200   86.333000
  H     -4.607600  -10.392800   85.186400
  C     -5.284170   -9.064870   86.891600
  H     -5.869400   -9.824350   87.450000
  H     -6.045920   -8.399220   86.393300
  C     -4.595320   -8.283010   88.082800
  H     -4.015650   -7.410000   87.777200
  H     -3.966660   -9.029850   88.622800
  H     -5.350790   -7.966080   88.749200
  H     -8.871840   -8.213630   81.990700
  H     -1.108460   -6.822130   83.932800

 Total Charge           Charge          ....    0
 Multiplicity           Mult            ....    1
 Number of Electrons    NEL             ....  134
 Basis Dimension        Dim             ....  322

ORBITAL ENERGIES
----------------

  NO   OCC          E(Eh)            E(eV)
   0   2.0000     -88.970625     -2421.0138
   1   2.0000     -88.964383     -2420.8439
   2   2.0000     -10.324132      -280.9339
   3   2.0000     -10.322054      -280.8774
   4   2.0000     -10.314591      -280.6743
   5   2.0000     -10.303570      -280.3744
   6   2.0000     -10.301982      -280.3312
   7   2.0000     -10.300179      -280.2821
   8   2.0000     -10.299851      -280.2732
   9   2.0000     -10.299205      -280.2556
  10   2.0000     -10.294041      -280.1151
  11   2.0000     -10.293578      -280.1025
  12   2.0000     -10.292986      -280.0864
  13   2.0000     -10.291230      -280.0386
  14   2.0000     -10.274895      -279.5941
  15   2.0000     -10.274491      -279.5831
  16   2.0000      -8.086937      -220.0567
  17   2.0000      -8.079045      -219.8420
  18   2.0000      -6.045396      -164.5036
  19   2.0000      -6.041302      -164.3922
  20   2.0000      -6.037617      -164.2919
  21   2.0000      -6.037576      -164.2908
  22   2.0000      -6.033563      -164.1816
  23   2.0000      -6.029744      -164.0777
  24   2.0000      -1.015172       -27.6242
  25   2.0000      -0.984659       -26.7939
  26   2.0000      -0.912359       -24.8266
  27   2.0000      -0.896025       -24.3821
  28   2.0000      -0.874676       -23.8011
  29   2.0000      -0.849902       -23.1270
  30   2.0000      -0.842208       -22.9176
  31   2.0000      -0.815359       -22.1871
  32   2.0000      -0.781239       -21.2586
  33   2.0000      -0.765158       -20.8210
  34   2.0000      -0.712002       -19.3746
  35   2.0000      -0.708281       -19.2733
  36   2.0000      -0.686348       -18.6765
  37   2.0000      -0.665680       -18.1141
  38   2.0000      -0.639877       -17.4119
  39   2.0000      -0.613961       -16.7067
  40   2.0000      -0.587065       -15.9749
  41   2.0000      -0.578510       -15.7420
  42   2.0000      -0.553128       -15.0514
  43   2.0000      -0.545156       -14.8344
  44   2.0000      -0.539259       -14.6740
  45   2.0000      -0.534976       -14.5574
  46   2.0000      -0.517941       -14.0939
  47   2.0000      -0.515552       -14.0289
  48   2.0000      -0.503995       -13.7144
  49   2.0000      -0.500986       -13.6325
  50   2.0000      -0.486053       -13.2262
  51   2.0000      -0.474626       -12.9152
  52   2.0000      -0.464641       -12.6435
  53   2.0000      -0.462357       -12.5814
  54   2.0000      -0.458452       -12.4751
  55   2.0000      -0.453310       -12.3352
  56   2.0000      -0.442522       -12.0416
  57   2.0000      -0.439944       -11.9715
  58   2.0000      -0.425932       -11.5902
  59   2.0000      -0.423554       -11.5255
  60   2.0000      -0.420832       -11.4514
  61   2.0000      -0.414085       -11.2678
  62   2.0000      -0.409187       -11.1346
  63   2.0000      -0.347392        -9.4530
  64   2.0000      -0.329219        -8.9585
  65   2.0000      -0.325554        -8.8588
  66   2.0000      -0.292458        -7.9582
  67   0.0000       0.031406         0.8546
  68   0.0000       0.065319         1.7774
  69   0.0000       0.103259         2.8098
  70   0.0000       0.114190         3.1073
  71   0.0000       0.126656         3.4465

MULLIKEN ATOMIC CHARGES
-----------------------
   0 S :    0.141871
   1 C :   -0.059260
   2 C :   -0.119927
   3 C :    0.011327
   4 C :   -0.139296
   5 H :    0.029604
   6 C :    0.046867
   7 H :    0.021569
   8 H :    0.025175
   9 C :   -0.025809
  10 H :    0.038204
  11 H :    0.021642
  12 C :   -0.074041
  13 H :    0.025708
  14 H :    0.042267
  15 H :    0.019399
  16 S :    0.092740
  17 C :   -0.081834
  18 C :   -0.062383
  19 C :   -0.018772
  20 C :   -0.149451
  21 H :    0.044739
  22 C :    0.053855
  23 H :    0.024646
  24 H :    0.026124
  25 C :   -0.104697
  26 H :    0.032565
  27 H :    0.049091
  28 C :   -0.062689
  29 H :    0.041058
  30 H :    0.029837
  31 H :    0.028427
  32 H :    0.010113
  33 H :    0.041327
Sum of atomic charges:    0.0000000

LOEWDIN ATOMIC CHARGES
----------------------
   0 S :    0.448116
   1 C :   -0.202982
   2 C :   -0.058920
   3 C :   -0.056297
   4 C :   -0.223740
   5 H :    0.033451
   6 C :   -0.033971
   7 H :    0.032600
   8 H :    0.029554
   9 C :   -0.024013
  10 H :    0.028175
  11 H :    0.017606
  12 C :   -0.074262
  13 H :    0.026391
  14 H :    0.024167
  15 H :    0.023445
  16 S :    0.394054
  17 C :   -0.169393
  18 C :   -0.067981
  19 C :   -0.057236
  20 C :   -0.201233
  21 H :    0.044657
  22 C :   -0.032879
  23 H :    0.031227
  24 H :    0.028063
  25 C :   -0.040134
  26 H :    0.023263
  27 H :    0.028732
  28 C :   -0.067403
  29 H :    0.022817
  30 H :    0.025695
  31 H :    0.019758
  32 H :    0.011571
  33 H :    0.017101

  Mayer bond orders larger than 0.100000
B(  0-S ,  1-C ) :   1.1383 B(  0-S ,  4-C ) :   1.1610 B(  1-C ,  2-C ) :   1.6392
B(  1-C , 32-H ) :   0.9593 B(  2-C ,  3-C ) :   1.2167 B(  2-C ,  6-C ) :   1.0529
B(  3-C ,  4-C ) :   1.5609 B(  3-C ,  5-H ) :   0.9887 B(  4-C , 20-C ) :   1.0211
B(  6-C ,  7-H ) :   0.9332 B(  6-C ,  8-H ) :   0.9365 B(  6-C ,  9-C ) :   1.0492
B(  9-C , 10-H ) :   0.9616 B(  9-C , 11-H ) :   0.9572 B(  9-C , 12-C ) :   1.0755
B( 12-C , 13-H ) :   0.9720 B( 12-C , 14-H ) :   0.9788 B( 12-C , 15-H ) :   0.9690
B( 16-S , 17-C ) :   1.1438 B( 16-S , 20-C ) :   1.1347 B( 17-C , 18-C ) :   1.6510
B( 17-C , 20-C ) :   0.1047 B( 17-C , 33-H ) :   0.9639 B( 18-C , 19-C ) :   1.2096
B( 18-C , 21-H ) :   0.9835 B( 19-C , 20-C ) :   1.6115 B( 19-C , 22-C ) :   1.0396
B( 22-C , 23-H ) :   0.9465 B( 22-C , 24-H ) :   0.9436 B( 22-C , 25-C ) :   1.0364
B( 25-C , 26-H ) :   0.9628 B( 25-C , 27-H ) :   0.9650 B( 25-C , 28-C ) :   1.0656
B( 28-C , 29-H ) :   0.9783 B( 28-C , 30-H ) :   0.9775 B( 28-C , 31-H ) :   0.9764

Dispersion correction           -0.014847885
FINAL SINGLE POINT ENERGY     -1339.848578010209

DIPOLE MOMENT
-------------
                                X             Y             Z
Electronic contribution:      5.43235      19.10285      -6.47501
Nuclear contribution   :     -5.49185     -19.59560       6.53603
                        -----------------------------------------
Total Dipole Moment    :     -0.05949      -0.49275       0.06102
                        -----------------------------------------
Magnitude (a.u.)       :      0.50007
Magnitude (Debye)      :      1.27107

Rotational constants in cm-1:     0.019775     0.008360     0.007609
Rotational constants in MHz :   592.827566   250.639008   228.125798

                             ****ORCA TERMINATED NORMALLY****
TOTAL RUN TIME: 0 days 0 hours 0 minutes 35 seconds 59 msec
