                         Program Version 4.2.1 -  RELEASE  -
|  1> ! wB97X-D3 SP def2-SVP
|  2> %pal
|  3> nprocs 16
|  4> end
|  5>
|  6> * xyz 0 1
|  7> S 	 -2.76215 	 33.5252 	 51.2073
|  8> C 	 -1.25364 	 32.9758 	 51.9747
|  9> C 	 -1.18781 	 31.6337 	 51.9919
| 10> C 	 -2.46866 	 31.0551 	 51.5421
| 11> C 	 -3.40085 	 31.9215 	 51.1142
| 12> H 	 -2.68215 	 29.9346 	 51.6058
| 13> C 	 0.0539662 	 30.8333 	 52.4744
| 14> H 	 0.676681 	 31.6204 	 52.9788
| 15> H 	 0.553539 	 30.618 	 51.5241
| 16> C 	 -0.0421779 	 29.5049 	 53.2895
| 17> H 	 -0.471972 	 29.7295 	 54.2672
| 18> H 	 -0.779416 	 28.9097 	 52.6951
| 19> C 	 1.21309 	 28.7284 	 53.5634
| 20> H 	 0.833587 	 27.7357 	 53.9457
| 21> H 	 1.68661 	 28.5256 	 52.6072
| 22> H 	 1.94897 	 29.289 	 54.1553
| 23> S 	 -5.75439 	 30.5174 	 51.2502
| 24> C 	 -6.95473 	 30.5897 	 49.9957
| 25> C 	 -6.61086 	 31.5316 	 49.0374
| 26> C 	 -5.34422 	 32.0911 	 49.3022
| 27> C 	 -4.64912 	 31.6191 	 50.4479
| 28> H 	 -7.21604 	 31.8293 	 48.2056
| 29> C 	 -4.64346 	 33.0976 	 48.3004
| 30> H 	 -3.60728 	 33.0481 	 48.5255
| 31> H 	 -4.8951 	 34.1411 	 48.4711
| 32> C 	 -4.8641 	 32.748 	 46.8386
| 33> H 	 -5.84325 	 32.3017 	 46.6901
| 34> H 	 -4.16668 	 31.9915 	 46.6194
| 35> C 	 -4.59455 	 33.8676 	 45.8276
| 36> H 	 -4.38292 	 33.5614 	 44.7646
| 37> H 	 -3.64413 	 34.3356 	 46.16
| 38> H 	 -5.35485 	 34.6339 	 45.845
| 39> H 	 -0.447839 	 33.6997 	 52.2432
| 40> H 	 -7.91779 	 30.1013 	 49.9568
| 41> *
| 42>
| 43>                          ****END OF INPUT****

CARTESIAN COORDINATES (ANGSTROEM)
---------------------------------
  S     -2.762150   33.525200   51.207300
  C     -1.253640   32.975800   51.974700
  C     -1.187810   31.633700   51.991900
  C     -2.468660   31.055100   51.542100
  C     -3.400850   31.921500   51.114200
  H     -2.682150   29.934600   51.605800
  C      0.053966   30.833300   52.474400
  H      0.676681   31.620400   52.978800
  H      0.553539   30.618000   51.524100
  C     -0.042178   29.504900   53.289500
  H     -0.471972   29.729500   54.267200
  H     -0.779416   28.909700   52.695100
  C      1.213090   28.728400   53.563400
  H      0.833587   27.735700   53.945700
  H      1.686610   28.525600   52.607200
  H      1.948970   29.289000   54.155300
  S     -5.754390   30.517400   51.250200
  C     -6.954730   30.589700   49.995700
  C     -6.610860   31.531600   49.037400
  C     -5.344220   32.091100   49.302200
  C     -4.649120   31.619100   50.447900
  H     -7.216040   31.829300   48.205600
  C     -4.643460   33.097600   48.300400
  H     -3.607280   33.048100   48.525500
  H     -4.895100   34.141100   48.471100
  C     -4.864100   32.748000   46.838600
  H     -5.843250   32.301700   46.690100
  H     -4.166680   31.991500   46.619400
  C     -4.594550   33.867600   45.827600
  H     -4.382920   33.561400   44.764600
  H     -3.644130   34.335600   46.160000
  H     -5.354850   34.633900   45.845000
  H     -0.447839   33.699700   52.243200
  H     -7.917790   30.101300   49.956800

 Total Charge           Charge          ....    0
 Multiplicity           Mult            ....    1
 Number of Electrons    NEL             ....  134
 Basis Dimension        Dim             ....  322

ORBITAL ENERGIES
----------------

  NO   OCC          E(Eh)            E(eV)
   0   2.0000     -88.967368     -2420.9252
   1   2.0000     -88.962586     -2420.7950
   2   2.0000     -10.331244      -281.1275
   3   2.0000     -10.329506      -281.0801
   4   2.0000     -10.319140      -280.7981
   5   2.0000     -10.318374      -280.7772
   6   2.0000     -10.308368      -280.5050
   7   2.0000     -10.307733      -280.4877
   8   2.0000     -10.302806      -280.3536
   9   2.0000     -10.300508      -280.2911
  10   2.0000     -10.293724      -280.1065
  11   2.0000     -10.293093      -280.0893
  12   2.0000     -10.286692      -279.9151
  13   2.0000     -10.284977      -279.8684
  14   2.0000     -10.279939      -279.7314
  15   2.0000     -10.275840      -279.6198
  16   2.0000      -8.081853      -219.9184
  17   2.0000      -8.077457      -219.7988
  18   2.0000      -6.040371      -164.3669
  19   2.0000      -6.036161      -164.2523
  20   2.0000      -6.036146      -164.2519
  21   2.0000      -6.032872      -164.1628
  22   2.0000      -6.031988      -164.1387
  23   2.0000      -6.027921      -164.0281
  24   2.0000      -1.009790       -27.4778
  25   2.0000      -0.986503       -26.8441
  26   2.0000      -0.910110       -24.7654
  27   2.0000      -0.905712       -24.6457
  28   2.0000      -0.878851       -23.9147
  29   2.0000      -0.849276       -23.1100
  30   2.0000      -0.840178       -22.8624
  31   2.0000      -0.818474       -22.2718
  32   2.0000      -0.782783       -21.3006
  33   2.0000      -0.770768       -20.9737
  34   2.0000      -0.709253       -19.2998
  35   2.0000      -0.700775       -19.0690
  36   2.0000      -0.688592       -18.7375
  37   2.0000      -0.661330       -17.9957
  38   2.0000      -0.634122       -17.2554
  39   2.0000      -0.617264       -16.7966
  40   2.0000      -0.597256       -16.2522
  41   2.0000      -0.570883       -15.5345
  42   2.0000      -0.568023       -15.4567
  43   2.0000      -0.561909       -15.2903
  44   2.0000      -0.532681       -14.4950
  45   2.0000      -0.521793       -14.1987
  46   2.0000      -0.517863       -14.0918
  47   2.0000      -0.512261       -13.9393
  48   2.0000      -0.505604       -13.7582
  49   2.0000      -0.501905       -13.6575
  50   2.0000      -0.489758       -13.3270
  51   2.0000      -0.483375       -13.1533
  52   2.0000      -0.471964       -12.8428
  53   2.0000      -0.464969       -12.6524
  54   2.0000      -0.461409       -12.5556
  55   2.0000      -0.452953       -12.3255
  56   2.0000      -0.450350       -12.2546
  57   2.0000      -0.427450       -11.6315
  58   2.0000      -0.424178       -11.5425
  59   2.0000      -0.420579       -11.4445
  60   2.0000      -0.419210       -11.4073
  61   2.0000      -0.414696       -11.2845
  62   2.0000      -0.408668       -11.1204
  63   2.0000      -0.355522        -9.6742
  64   2.0000      -0.332666        -9.0523
  65   2.0000      -0.326938        -8.8964
  66   2.0000      -0.294835        -8.0229
  67   0.0000       0.029310         0.7976
  68   0.0000       0.076654         2.0859
  69   0.0000       0.114371         3.1122
  70   0.0000       0.121248         3.2993
  71   0.0000       0.133633         3.6363

MULLIKEN ATOMIC CHARGES
-----------------------
   0 S :    0.090838
   1 C :   -0.159603
   2 C :   -0.066473
   3 C :   -0.019337
   4 C :   -0.112492
   5 H :    0.040540
   6 C :    0.042743
   7 H :    0.023724
   8 H :    0.039703
   9 C :   -0.094267
  10 H :    0.036510
  11 H :    0.035517
  12 C :   -0.039506
  13 H :    0.052449
  14 H :    0.020486
  15 H :    0.045889
  16 S :    0.109910
  17 C :   -0.079943
  18 C :   -0.035797
  19 C :   -0.060802
  20 C :   -0.154001
  21 H :    0.021246
  22 C :    0.086154
  23 H :    0.015497
  24 H :    0.030723
  25 C :   -0.067985
  26 H :    0.020980
  27 H :    0.019416
  28 C :   -0.069639
  29 H :    0.043572
  30 H :    0.026354
  31 H :    0.032451
  32 H :    0.067379
  33 H :    0.057764
Sum of atomic charges:    0.0000000

LOEWDIN ATOMIC CHARGES
----------------------
   0 S :    0.398007
   1 C :   -0.189804
   2 C :   -0.063199
   3 C :   -0.073811
   4 C :   -0.203653
   5 H :    0.038881
   6 C :   -0.037848
   7 H :    0.031142
   8 H :    0.034476
   9 C :   -0.048117
  10 H :    0.025227
  11 H :    0.027397
  12 C :   -0.065152
  13 H :    0.042192
  14 H :    0.021784
  15 H :    0.029624
  16 S :    0.423367
  17 C :   -0.188696
  18 C :   -0.074108
  19 C :   -0.052569
  20 C :   -0.200123
  21 H :    0.031458
  22 C :   -0.030300
  23 H :    0.017688
  24 H :    0.026900
  25 C :   -0.042808
  26 H :    0.017242
  27 H :    0.022401
  28 C :   -0.068330
  29 H :    0.032735
  30 H :    0.027488
  31 H :    0.019521
  32 H :    0.038264
  33 H :    0.032726

  Mayer bond orders larger than 0.100000
B(  0-S ,  1-C ) :   1.1147 B(  0-S ,  4-C ) :   1.1263 B(  1-C ,  2-C ) :   1.6655
B(  1-C , 32-H ) :   0.9614 B(  2-C ,  3-C ) :   1.2020 B(  2-C ,  6-C ) :   1.0070
B(  3-C ,  4-C ) :   1.6175 B(  3-C ,  5-H ) :   0.9792 B(  4-C , 20-C ) :   1.0280
B(  6-C ,  7-H ) :   0.9448 B(  6-C ,  8-H ) :   0.9331 B(  6-C ,  9-C ) :   1.0541
B(  9-C , 10-H ) :   0.9572 B(  9-C , 11-H ) :   0.9507 B(  9-C , 12-C ) :   1.0899
B( 12-C , 13-H ) :   0.9699 B( 12-C , 14-H ) :   0.9722 B( 12-C , 15-H ) :   0.9742
B( 16-S , 17-C ) :   1.1785 B( 16-S , 20-C ) :   1.1489 B( 17-C , 18-C ) :   1.5567
B( 17-C , 20-C ) :   0.1105 B( 17-C , 33-H ) :   0.9657 B( 18-C , 19-C ) :   1.3018
B( 18-C , 21-H ) :   0.9882 B( 19-C , 20-C ) :   1.5562 B( 19-C , 22-C ) :   1.0095
B( 22-C , 23-H ) :   0.9358 B( 22-C , 24-H ) :   0.9444 B( 22-C , 25-C ) :   1.0548
B( 25-C , 26-H ) :   0.9622 B( 25-C , 27-H ) :   0.9538 B( 25-C , 28-C ) :   1.0788
B( 28-C , 29-H ) :   0.9756 B( 28-C , 30-H ) :   0.9729 B( 28-C , 31-H ) :   0.9774

Dispersion correction           -0.013166767
FINAL SINGLE POINT ENERGY     -1339.874347079736

DIPOLE MOMENT
-------------
                                X             Y             Z
Electronic contribution:    -14.55194       3.89597       8.69252
Nuclear contribution   :     14.92829      -4.10821      -8.86987
                        -----------------------------------------
Total Dipole Moment    :      0.37635      -0.21224      -0.17735
                        -----------------------------------------
Magnitude (a.u.)       :      0.46705
Magnitude (Debye)      :      1.18715

Rotational constants in cm-1:     0.020461     0.006999     0.005950
Rotational constants in MHz :   613.400336   209.815488   178.385094

                             ****ORCA TERMINATED NORMALLY****
TOTAL RUN TIME: 0 days 0 hours 0 minutes 32 seconds 849 msec
