                         Program Version 4.2.1 -  RELEASE  -
|  1> ! wB97X-D3 SP def2-SVP
|  2> %pal
|  3> nprocs 16
|  4> end
|  5>
|  6> * xyz 0 1
|  7> S 	 2.37427 	 -5.49542 	 85.8994
|  8> C 	 1.86662 	 -4.72657 	 87.3731
|  9> C 	 2.58089 	 -5.11825 	 88.4854
| 10> C 	 3.51672 	 -6.13354 	 88.0886
| 11> C 	 3.67253 	 -6.39966 	 86.7586
| 12> H 	 4.17187 	 -6.56491 	 88.8477
| 13> C 	 2.12116 	 -4.78575 	 89.879
| 14> H 	 2.0264 	 -3.67728 	 89.8144
| 15> H 	 2.90775 	 -5.02439 	 90.4662
| 16> C 	 0.782048 	 -5.52996 	 90.3551
| 17> H 	 -0.108529 	 -4.97489 	 89.9039
| 18> H 	 0.645539 	 -6.53603 	 89.9822
| 19> C 	 0.671392 	 -5.54693 	 91.8838
| 20> H 	 0.429254 	 -4.5413 	 92.3411
| 21> H 	 -0.154204 	 -6.11798 	 92.1921
| 22> H 	 1.43035 	 -6.08536 	 92.3664
| 23> S 	 4.03489 	 -8.13684 	 84.627
| 24> C 	 5.44087 	 -9.10385 	 84.5417
| 25> C 	 6.15013 	 -9.0654 	 85.7142
| 26> C 	 5.7056 	 -8.12169 	 86.6749
| 27> C 	 4.51731 	 -7.47403 	 86.2147
| 28> H 	 7.05996 	 -9.74345 	 85.7504
| 29> C 	 6.45979 	 -7.80195 	 87.9647
| 30> H 	 6.34767 	 -6.71637 	 88.198
| 31> H 	 7.53348 	 -7.91916 	 87.7755
| 32> C 	 6.06298 	 -8.62706 	 89.1038
| 33> H 	 4.99301 	 -8.47921 	 89.3072
| 34> H 	 6.62991 	 -8.1826 	 89.944
| 35> C 	 6.29986 	 -10.1041 	 88.8787
| 36> H 	 7.14008 	 -10.373 	 88.1902
| 37> H 	 5.37167 	 -10.6666 	 88.6357
| 38> H 	 6.61703 	 -10.6626 	 89.8117
| 39> H 	 0.973913 	 -4.07495 	 87.4712
| 40> H 	 5.63038 	 -9.89815 	 83.8531
| 41> *
| 42>
| 43>                          ****END OF INPUT****

CARTESIAN COORDINATES (ANGSTROEM)
---------------------------------
  S      2.374270   -5.495420   85.899400
  C      1.866620   -4.726570   87.373100
  C      2.580890   -5.118250   88.485400
  C      3.516720   -6.133540   88.088600
  C      3.672530   -6.399660   86.758600
  H      4.171870   -6.564910   88.847700
  C      2.121160   -4.785750   89.879000
  H      2.026400   -3.677280   89.814400
  H      2.907750   -5.024390   90.466200
  C      0.782048   -5.529960   90.355100
  H     -0.108529   -4.974890   89.903900
  H      0.645539   -6.536030   89.982200
  C      0.671392   -5.546930   91.883800
  H      0.429254   -4.541300   92.341100
  H     -0.154204   -6.117980   92.192100
  H      1.430350   -6.085360   92.366400
  S      4.034890   -8.136840   84.627000
  C      5.440870   -9.103850   84.541700
  C      6.150130   -9.065400   85.714200
  C      5.705600   -8.121690   86.674900
  C      4.517310   -7.474030   86.214700
  H      7.059960   -9.743450   85.750400
  C      6.459790   -7.801950   87.964700
  H      6.347670   -6.716370   88.198000
  H      7.533480   -7.919160   87.775500
  C      6.062980   -8.627060   89.103800
  H      4.993010   -8.479210   89.307200
  H      6.629910   -8.182600   89.944000
  C      6.299860  -10.104100   88.878700
  H      7.140080  -10.373000   88.190200
  H      5.371670  -10.666600   88.635700
  H      6.617030  -10.662600   89.811700
  H      0.973913   -4.074950   87.471200
  H      5.630380   -9.898150   83.853100

 Total Charge           Charge          ....    0
 Multiplicity           Mult            ....    1
 Number of Electrons    NEL             ....  134
 Basis Dimension        Dim             ....  322

ORBITAL ENERGIES
----------------

  NO   OCC          E(Eh)            E(eV)
   0   2.0000     -88.967643     -2420.9326
   1   2.0000     -88.965546     -2420.8756
   2   2.0000     -10.336945      -281.2826
   3   2.0000     -10.333800      -281.1970
   4   2.0000     -10.313830      -280.6536
   5   2.0000     -10.308983      -280.5217
   6   2.0000     -10.307948      -280.4935
   7   2.0000     -10.299818      -280.2723
   8   2.0000     -10.296157      -280.1727
   9   2.0000     -10.295001      -280.1412
  10   2.0000     -10.292697      -280.0785
  11   2.0000     -10.292490      -280.0729
  12   2.0000     -10.292329      -280.0685
  13   2.0000     -10.286302      -279.9045
  14   2.0000     -10.285086      -279.8714
  15   2.0000     -10.275922      -279.6221
  16   2.0000      -8.081515      -219.9092
  17   2.0000      -8.080409      -219.8791
  18   2.0000      -6.040259      -164.3638
  19   2.0000      -6.038857      -164.3257
  20   2.0000      -6.036163      -164.2524
  21   2.0000      -6.034862      -164.2170
  22   2.0000      -6.032059      -164.1407
  23   2.0000      -6.031272      -164.1193
  24   2.0000      -1.003292       -27.3010
  25   2.0000      -0.983925       -26.7740
  26   2.0000      -0.922671       -25.1072
  27   2.0000      -0.906981       -24.6802
  28   2.0000      -0.868412       -23.6307
  29   2.0000      -0.851637       -23.1742
  30   2.0000      -0.843654       -22.9570
  31   2.0000      -0.815040       -22.1784
  32   2.0000      -0.786650       -21.4058
  33   2.0000      -0.772408       -21.0183
  34   2.0000      -0.710200       -19.3255
  35   2.0000      -0.708003       -19.2657
  36   2.0000      -0.689251       -18.7555
  37   2.0000      -0.658231       -17.9114
  38   2.0000      -0.630454       -17.1555
  39   2.0000      -0.620374       -16.8812
  40   2.0000      -0.597722       -16.2648
  41   2.0000      -0.568106       -15.4589
  42   2.0000      -0.561038       -15.2666
  43   2.0000      -0.554770       -15.0960
  44   2.0000      -0.541339       -14.7306
  45   2.0000      -0.525788       -14.3074
  46   2.0000      -0.518937       -14.1210
  47   2.0000      -0.506816       -13.7912
  48   2.0000      -0.505079       -13.7439
  49   2.0000      -0.500914       -13.6306
  50   2.0000      -0.492583       -13.4039
  51   2.0000      -0.477280       -12.9874
  52   2.0000      -0.472078       -12.8459
  53   2.0000      -0.462498       -12.5852
  54   2.0000      -0.457421       -12.4471
  55   2.0000      -0.447874       -12.1873
  56   2.0000      -0.440090       -11.9755
  57   2.0000      -0.435233       -11.8433
  58   2.0000      -0.434825       -11.8322
  59   2.0000      -0.427821       -11.6416
  60   2.0000      -0.423009       -11.5107
  61   2.0000      -0.418352       -11.3839
  62   2.0000      -0.407235       -11.0814
  63   2.0000      -0.362022        -9.8511
  64   2.0000      -0.333854        -9.0846
  65   2.0000      -0.327653        -8.9159
  66   2.0000      -0.280098        -7.6218
  67   0.0000       0.019336         0.5262
  68   0.0000       0.084785         2.3071
  69   0.0000       0.100124         2.7245
  70   0.0000       0.122865         3.3433
  71   0.0000       0.133520         3.6333

MULLIKEN ATOMIC CHARGES
-----------------------
   0 S :    0.103440
   1 C :   -0.135369
   2 C :   -0.108360
   3 C :   -0.030832
   4 C :   -0.075417
   5 H :    0.000708
   6 C :    0.112263
   7 H :    0.045379
   8 H :   -0.009997
   9 C :   -0.077115
  10 H :    0.032679
  11 H :    0.038798
  12 C :   -0.027885
  13 H :    0.041161
  14 H :    0.009447
  15 H :    0.023468
  16 S :    0.101053
  17 C :   -0.073507
  18 C :   -0.082455
  19 C :   -0.029356
  20 C :   -0.160988
  21 H :    0.040545
  22 C :    0.018688
  23 H :    0.039258
  24 H :    0.028562
  25 C :   -0.032322
  26 H :    0.036844
  27 H :    0.034033
  28 C :   -0.086359
  29 H :    0.034713
  30 H :    0.049562
  31 H :    0.030997
  32 H :    0.058401
  33 H :    0.049961
Sum of atomic charges:    0.0000000

LOEWDIN ATOMIC CHARGES
----------------------
   0 S :    0.385497
   1 C :   -0.196906
   2 C :   -0.072920
   3 C :   -0.066550
   4 C :   -0.182757
   5 H :    0.026453
   6 C :   -0.023073
   7 H :    0.043535
   8 H :    0.010966
   9 C :   -0.033990
  10 H :    0.030820
  11 H :    0.026171
  12 C :   -0.069935
  13 H :    0.034820
  14 H :    0.021773
  15 H :    0.019373
  16 S :    0.407341
  17 C :   -0.204053
  18 C :   -0.080638
  19 C :   -0.054658
  20 C :   -0.175274
  21 H :    0.040985
  22 C :   -0.037987
  23 H :    0.034988
  24 H :    0.031525
  25 C :   -0.049041
  26 H :    0.026332
  27 H :    0.029728
  28 C :   -0.080374
  29 H :    0.026762
  30 H :    0.035471
  31 H :    0.032564
  32 H :    0.034720
  33 H :    0.028335

  Mayer bond orders larger than 0.100000
B(  0-S ,  1-C ) :   1.1476 B(  0-S ,  4-C ) :   1.1107 B(  1-C ,  2-C ) :   1.5998
B(  1-C , 32-H ) :   0.9596 B(  2-C ,  3-C ) :   1.2585 B(  2-C ,  6-C ) :   1.0298
B(  3-C ,  4-C ) :   1.5721 B(  3-C ,  5-H ) :   0.9778 B(  4-C , 20-C ) :   1.0930
B(  6-C ,  7-H ) :   0.9356 B(  6-C ,  8-H ) :   0.9391 B(  6-C ,  9-C ) :   1.0362
B(  9-C , 10-H ) :   0.9535 B(  9-C , 11-H ) :   0.9646 B(  9-C , 12-C ) :   1.0909
B( 12-C , 13-H ) :   0.9741 B( 12-C , 14-H ) :   0.9674 B( 12-C , 15-H ) :   0.9734
B( 16-S , 17-C ) :   1.1577 B( 16-S , 20-C ) :   1.1481 B( 17-C , 18-C ) :   1.6215
B( 17-C , 20-C ) :   0.1010 B( 17-C , 33-H ) :   0.9611 B( 18-C , 19-C ) :   1.2656
B( 18-C , 21-H ) :   0.9737 B( 19-C , 20-C ) :   1.5499 B( 19-C , 22-C ) :   1.0285
B( 22-C , 23-H ) :   0.9335 B( 22-C , 24-H ) :   0.9346 B( 22-C , 25-C ) :   1.0923
B( 25-C , 26-H ) :   0.9445 B( 25-C , 27-H ) :   0.9539 B( 25-C , 28-C ) :   1.0642
B( 28-C , 29-H ) :   0.9763 B( 28-C , 30-H ) :   0.9721 B( 28-C , 31-H ) :   0.9701

Dispersion correction           -0.014256878
FINAL SINGLE POINT ENERGY     -1339.862754685472

DIPOLE MOMENT
-------------
                                X             Y             Z
Electronic contribution:     -1.48424       3.79605     -29.35139
Nuclear contribution   :      1.54702      -4.05720      30.16877
                        -----------------------------------------
Total Dipole Moment    :      0.06278      -0.26116       0.81738
                        -----------------------------------------
Magnitude (a.u.)       :      0.86038
Magnitude (Debye)      :      2.18691

Rotational constants in cm-1:     0.019012     0.008636     0.006410
Rotational constants in MHz :   569.963564   258.901752   192.175956

                             ****ORCA TERMINATED NORMALLY****
TOTAL RUN TIME: 0 days 0 hours 0 minutes 36 seconds 55 msec
