                         Program Version 4.2.1 -  RELEASE  -
|  1> ! wB97X-D3 SP def2-SVP
|  2> %pal
|  3> nprocs 16
|  4> end
|  5>
|  6> * xyz 0 1
|  7> S 	 -88.5982 	 48.7586 	 127.044
|  8> C 	 -89.9217 	 49.663 	 126.343
|  9> C 	 -89.5188 	 50.1546 	 125.116
| 10> C 	 -88.1565 	 50.0525 	 124.819
| 11> C 	 -87.4722 	 49.2473 	 125.759
| 12> H 	 -87.6848 	 50.4092 	 123.923
| 13> C 	 -90.5047 	 50.9408 	 124.263
| 14> H 	 -90.3314 	 51.9551 	 124.385
| 15> H 	 -91.5288 	 50.7404 	 124.634
| 16> C 	 -90.642 	 50.5621 	 122.794
| 17> H 	 -91.4041 	 51.1549 	 122.369
| 18> H 	 -89.7738 	 50.9273 	 122.382
| 19> C 	 -90.98 	 49.0934 	 122.564
| 20> H 	 -91.1592 	 48.8263 	 121.508
| 21> H 	 -90.1426 	 48.4958 	 122.868
| 22> H 	 -91.8943 	 48.7691 	 123
| 23> S 	 -85.7821 	 47.1245 	 125.477
| 24> C 	 -84.1104 	 47.4083 	 125.17
| 25> C 	 -83.8351 	 48.765 	 125.271
| 26> C 	 -84.9357 	 49.5675 	 125.711
| 27> C 	 -86.1031 	 48.8139 	 125.683
| 28> H 	 -82.8453 	 49.0154 	 124.993
| 29> C 	 -84.8374 	 51.1452 	 125.864
| 30> H 	 -85.7754 	 51.5967 	 126.235
| 31> H 	 -84.7405 	 51.4426 	 124.847
| 32> C 	 -83.6897 	 51.6789 	 126.724
| 33> H 	 -83.789 	 52.7843 	 126.815
| 34> H 	 -82.7599 	 51.4904 	 126.207
| 35> C 	 -83.537 	 51.0688 	 128.094
| 36> H 	 -82.753 	 51.611 	 128.57
| 37> H 	 -83.3482 	 50.0315 	 128.021
| 38> H 	 -84.3726 	 51.1716 	 128.765
| 39> H 	 -90.7423 	 50.0288 	 126.828
| 40> H 	 -83.3994 	 46.6679 	 124.759
| 41> *
| 42>
| 43>                          ****END OF INPUT****

CARTESIAN COORDINATES (ANGSTROEM)
---------------------------------
  S    -88.598200   48.758600  127.044000
  C    -89.921700   49.663000  126.343000
  C    -89.518800   50.154600  125.116000
  C    -88.156500   50.052500  124.819000
  C    -87.472200   49.247300  125.759000
  H    -87.684800   50.409200  123.923000
  C    -90.504700   50.940800  124.263000
  H    -90.331400   51.955100  124.385000
  H    -91.528800   50.740400  124.634000
  C    -90.642000   50.562100  122.794000
  H    -91.404100   51.154900  122.369000
  H    -89.773800   50.927300  122.382000
  C    -90.980000   49.093400  122.564000
  H    -91.159200   48.826300  121.508000
  H    -90.142600   48.495800  122.868000
  H    -91.894300   48.769100  123.000000
  S    -85.782100   47.124500  125.477000
  C    -84.110400   47.408300  125.170000
  C    -83.835100   48.765000  125.271000
  C    -84.935700   49.567500  125.711000
  C    -86.103100   48.813900  125.683000
  H    -82.845300   49.015400  124.993000
  C    -84.837400   51.145200  125.864000
  H    -85.775400   51.596700  126.235000
  H    -84.740500   51.442600  124.847000
  C    -83.689700   51.678900  126.724000
  H    -83.789000   52.784300  126.815000
  H    -82.759900   51.490400  126.207000
  C    -83.537000   51.068800  128.094000
  H    -82.753000   51.611000  128.570000
  H    -83.348200   50.031500  128.021000
  H    -84.372600   51.171600  128.765000
  H    -90.742300   50.028800  126.828000
  H    -83.399400   46.667900  124.759000

 Total Charge           Charge          ....    0
 Multiplicity           Mult            ....    1
 Number of Electrons    NEL             ....  134
 Basis Dimension        Dim             ....  322

ORBITAL ENERGIES
----------------

  NO   OCC          E(Eh)            E(eV)
   0   2.0000     -88.966177     -2420.8927
   1   2.0000     -88.963843     -2420.8292
   2   2.0000     -10.333534      -281.1898
   3   2.0000     -10.323897      -280.9275
   4   2.0000     -10.316813      -280.7348
   5   2.0000     -10.309514      -280.5361
   6   2.0000     -10.305953      -280.4392
   7   2.0000     -10.296329      -280.1774
   8   2.0000     -10.295476      -280.1541
   9   2.0000     -10.293828      -280.1093
  10   2.0000     -10.292434      -280.0714
  11   2.0000     -10.284610      -279.8585
  12   2.0000     -10.281482      -279.7734
  13   2.0000     -10.273710      -279.5619
  14   2.0000     -10.270370      -279.4710
  15   2.0000     -10.263140      -279.2742
  16   2.0000      -8.080324      -219.8768
  17   2.0000      -8.079588      -219.8568
  18   2.0000      -6.038773      -164.3234
  19   2.0000      -6.037995      -164.3022
  20   2.0000      -6.034785      -164.2149
  21   2.0000      -6.033910      -164.1910
  22   2.0000      -6.031305      -164.1202
  23   2.0000      -6.030421      -164.0961
  24   2.0000      -1.007959       -27.4279
  25   2.0000      -0.985320       -26.8119
  26   2.0000      -0.914132       -24.8748
  27   2.0000      -0.906757       -24.6741
  28   2.0000      -0.871999       -23.7283
  29   2.0000      -0.849899       -23.1269
  30   2.0000      -0.844300       -22.9746
  31   2.0000      -0.815650       -22.1950
  32   2.0000      -0.788046       -21.4438
  33   2.0000      -0.777163       -21.1477
  34   2.0000      -0.715016       -19.4566
  35   2.0000      -0.698308       -19.0019
  36   2.0000      -0.692140       -18.8341
  37   2.0000      -0.654593       -17.8124
  38   2.0000      -0.641187       -17.4476
  39   2.0000      -0.623445       -16.9648
  40   2.0000      -0.594562       -16.1789
  41   2.0000      -0.567772       -15.4499
  42   2.0000      -0.562400       -15.3037
  43   2.0000      -0.554344       -15.0845
  44   2.0000      -0.548032       -14.9127
  45   2.0000      -0.545900       -14.8547
  46   2.0000      -0.520111       -14.1529
  47   2.0000      -0.517235       -14.0747
  48   2.0000      -0.502686       -13.6788
  49   2.0000      -0.494168       -13.4470
  50   2.0000      -0.488803       -13.3010
  51   2.0000      -0.479945       -13.0600
  52   2.0000      -0.468271       -12.7423
  53   2.0000      -0.467497       -12.7212
  54   2.0000      -0.463036       -12.5998
  55   2.0000      -0.445257       -12.1161
  56   2.0000      -0.442135       -12.0311
  57   2.0000      -0.441552       -12.0152
  58   2.0000      -0.436012       -11.8645
  59   2.0000      -0.418551       -11.3894
  60   2.0000      -0.415756       -11.3133
  61   2.0000      -0.413695       -11.2572
  62   2.0000      -0.408339       -11.1115
  63   2.0000      -0.341333        -9.2881
  64   2.0000      -0.332212        -9.0400
  65   2.0000      -0.329708        -8.9718
  66   2.0000      -0.292389        -7.9563
  67   0.0000       0.033806         0.9199
  68   0.0000       0.055833         1.5193
  69   0.0000       0.121761         3.3133
  70   0.0000       0.126150         3.4327
  71   0.0000       0.133924         3.6442

MULLIKEN ATOMIC CHARGES
-----------------------
   0 S :    0.112957
   1 C :   -0.085090
   2 C :   -0.103162
   3 C :    0.052003
   4 C :   -0.170288
   5 H :    0.012448
   6 C :    0.058823
   7 H :    0.024116
   8 H :    0.007573
   9 C :   -0.020310
  10 H :    0.013546
  11 H :    0.000465
  12 C :   -0.036432
  13 H :    0.025825
  14 H :    0.040675
  15 H :    0.021506
  16 S :    0.123191
  17 C :   -0.116487
  18 C :   -0.043826
  19 C :   -0.022981
  20 C :   -0.181498
  21 H :    0.006452
  22 C :    0.090874
  23 H :    0.034683
  24 H :    0.031226
  25 C :   -0.096005
  26 H :    0.035166
  27 H :    0.021401
  28 C :   -0.012392
  29 H :    0.022341
  30 H :    0.033475
  31 H :    0.021777
  32 H :    0.025759
  33 H :    0.072188
Sum of atomic charges:   -0.0000000

LOEWDIN ATOMIC CHARGES
----------------------
   0 S :    0.402215
   1 C :   -0.188445
   2 C :   -0.062195
   3 C :   -0.057820
   4 C :   -0.183118
   5 H :    0.031270
   6 C :   -0.025253
   7 H :    0.020867
   8 H :    0.027325
   9 C :   -0.032231
  10 H :    0.021596
  11 H :    0.009403
  12 C :   -0.059921
  13 H :    0.029273
  14 H :    0.026814
  15 H :    0.022344
  16 S :    0.424798
  17 C :   -0.202578
  18 C :   -0.072989
  19 C :   -0.051252
  20 C :   -0.213055
  21 H :    0.024175
  22 C :   -0.025237
  23 H :    0.032697
  24 H :    0.029015
  25 C :   -0.043816
  26 H :    0.030192
  27 H :    0.020205
  28 C :   -0.057868
  29 H :    0.025171
  30 H :    0.022539
  31 H :    0.023132
  32 H :    0.014054
  33 H :    0.038694

  Mayer bond orders larger than 0.100000
B(  0-S ,  1-C ) :   1.1412 B(  0-S ,  4-C ) :   1.1679 B(  1-C ,  2-C ) :   1.5849
B(  1-C ,  4-C ) :   0.1133 B(  1-C , 32-H ) :   0.9787 B(  2-C ,  3-C ) :   1.2705
B(  2-C ,  6-C ) :   1.0157 B(  3-C ,  4-C ) :   1.5278 B(  3-C ,  5-H ) :   0.9981
B(  4-C , 20-C ) :   1.0470 B(  6-C ,  7-H ) :   0.9422 B(  6-C ,  8-H ) :   0.9450
B(  6-C ,  9-C ) :   1.0789 B(  9-C , 10-H ) :   0.9515 B(  9-C , 11-H ) :   0.9539
B(  9-C , 12-C ) :   1.0773 B( 12-C , 13-H ) :   0.9731 B( 12-C , 14-H ) :   0.9742
B( 12-C , 15-H ) :   0.9740 B( 16-S , 17-C ) :   1.1567 B( 16-S , 20-C ) :   1.1601
B( 17-C , 18-C ) :   1.6211 B( 17-C , 20-C ) :   0.1000 B( 17-C , 33-H ) :   0.9631
B( 18-C , 19-C ) :   1.2105 B( 18-C , 21-H ) :   0.9955 B( 19-C , 20-C ) :   1.5865
B( 19-C , 22-C ) :   1.0174 B( 22-C , 23-H ) :   0.9388 B( 22-C , 24-H ) :   0.9418
B( 22-C , 25-C ) :   1.0766 B( 25-C , 26-H ) :   0.9561 B( 25-C , 27-H ) :   0.9514
B( 25-C , 28-C ) :   1.0903 B( 28-C , 29-H ) :   0.9707 B( 28-C , 30-H ) :   0.9688
B( 28-C , 31-H ) :   0.9747

Dispersion correction           -0.014546711
FINAL SINGLE POINT ENERGY     -1339.864040569429

DIPOLE MOMENT
-------------
                                X             Y             Z
Electronic contribution:      1.22548     -16.07147       7.47881
Nuclear contribution   :     -1.10027      16.66959      -7.90942
                        -----------------------------------------
Total Dipole Moment    :      0.12522       0.59812      -0.43061
                        -----------------------------------------
Magnitude (a.u.)       :      0.74756
Magnitude (Debye)      :      1.90016

Rotational constants in cm-1:     0.020839     0.007861     0.007226
Rotational constants in MHz :   624.748345   235.676980   216.627155

                             ****ORCA TERMINATED NORMALLY****
TOTAL RUN TIME: 0 days 0 hours 0 minutes 34 seconds 982 msec
