                         Program Version 4.2.1 -  RELEASE  -
|  1> ! wB97X-D3 SP def2-SVP
|  2> %pal
|  3> nprocs 16
|  4> end
|  5>
|  6> * xyz 0 1
|  7> S 	 62.1469 	 24.5285 	 76.6147
|  8> C 	 62.6039 	 25.2122 	 75.0987
|  9> C 	 63.4474 	 24.3825 	 74.3894
| 10> C 	 63.7264 	 23.1651 	 75.0698
| 11> C 	 63.0774 	 23.0919 	 76.302
| 12> H 	 64.4749 	 22.4249 	 74.8315
| 13> C 	 64.0796 	 24.7551 	 73.0856
| 14> H 	 63.9257 	 25.8232 	 72.8578
| 15> H 	 63.4894 	 24.2774 	 72.2836
| 16> C 	 65.5485 	 24.4306 	 72.9802
| 17> H 	 66.1394 	 25.115 	 73.4494
| 18> H 	 65.8508 	 23.5506 	 73.4872
| 19> C 	 66.0574 	 24.3113 	 71.4696
| 20> H 	 67.1233 	 23.8954 	 71.3701
| 21> H 	 65.4136 	 23.5614 	 70.8965
| 22> H 	 65.9849 	 25.2798 	 71.0139
| 23> S 	 64.0784 	 22.9914 	 78.7984
| 24> C 	 64.4241 	 21.4106 	 79.5181
| 25> C 	 64.2525 	 20.4006 	 78.5867
| 26> C 	 63.8164 	 20.8562 	 77.3316
| 27> C 	 63.5423 	 22.2264 	 77.3409
| 28> H 	 64.5906 	 19.3666 	 78.8352
| 29> C 	 63.5768 	 19.8907 	 76.1692
| 30> H 	 64.4496 	 19.3213 	 76.0504
| 31> H 	 63.6213 	 20.4513 	 75.2204
| 32> C 	 62.3428 	 19.0893 	 76.0959
| 33> H 	 62.1487 	 18.5876 	 77.0329
| 34> H 	 62.4222 	 18.3756 	 75.3057
| 35> C 	 61.1335 	 19.8762 	 75.6952
| 36> H 	 61.0496 	 20.7969 	 76.3119
| 37> H 	 60.2326 	 19.2649 	 75.6482
| 38> H 	 61.2307 	 20.2567 	 74.6249
| 39> H 	 62.4773 	 26.1647 	 74.7243
| 40> H 	 64.8655 	 21.2436 	 80.4541
| 41> *
| 42>
| 43>                          ****END OF INPUT****

CARTESIAN COORDINATES (ANGSTROEM)
---------------------------------
  S     62.146900   24.528500   76.614700
  C     62.603900   25.212200   75.098700
  C     63.447400   24.382500   74.389400
  C     63.726400   23.165100   75.069800
  C     63.077400   23.091900   76.302000
  H     64.474900   22.424900   74.831500
  C     64.079600   24.755100   73.085600
  H     63.925700   25.823200   72.857800
  H     63.489400   24.277400   72.283600
  C     65.548500   24.430600   72.980200
  H     66.139400   25.115000   73.449400
  H     65.850800   23.550600   73.487200
  C     66.057400   24.311300   71.469600
  H     67.123300   23.895400   71.370100
  H     65.413600   23.561400   70.896500
  H     65.984900   25.279800   71.013900
  S     64.078400   22.991400   78.798400
  C     64.424100   21.410600   79.518100
  C     64.252500   20.400600   78.586700
  C     63.816400   20.856200   77.331600
  C     63.542300   22.226400   77.340900
  H     64.590600   19.366600   78.835200
  C     63.576800   19.890700   76.169200
  H     64.449600   19.321300   76.050400
  H     63.621300   20.451300   75.220400
  C     62.342800   19.089300   76.095900
  H     62.148700   18.587600   77.032900
  H     62.422200   18.375600   75.305700
  C     61.133500   19.876200   75.695200
  H     61.049600   20.796900   76.311900
  H     60.232600   19.264900   75.648200
  H     61.230700   20.256700   74.624900
  H     62.477300   26.164700   74.724300
  H     64.865500   21.243600   80.454100

 Total Charge           Charge          ....    0
 Multiplicity           Mult            ....    1
 Number of Electrons    NEL             ....  134
 Basis Dimension        Dim             ....  322

ORBITAL ENERGIES
----------------

  NO   OCC          E(Eh)            E(eV)
   0   2.0000     -88.971864     -2421.0475
   1   2.0000     -88.967375     -2420.9254
   2   2.0000     -10.326142      -280.9886
   3   2.0000     -10.324939      -280.9559
   4   2.0000     -10.312050      -280.6052
   5   2.0000     -10.306124      -280.4439
   6   2.0000     -10.300004      -280.2774
   7   2.0000     -10.299008      -280.2503
   8   2.0000     -10.294583      -280.1298
   9   2.0000     -10.293837      -280.1096
  10   2.0000     -10.293532      -280.1012
  11   2.0000     -10.291696      -280.0513
  12   2.0000     -10.282474      -279.8003
  13   2.0000     -10.279827      -279.7283
  14   2.0000     -10.273327      -279.5514
  15   2.0000     -10.272421      -279.5268
  16   2.0000      -8.086682      -220.0498
  17   2.0000      -8.081921      -219.9203
  18   2.0000      -6.045186      -164.4979
  19   2.0000      -6.041078      -164.3861
  20   2.0000      -6.040358      -164.3665
  21   2.0000      -6.037541      -164.2899
  22   2.0000      -6.036491      -164.2613
  23   2.0000      -6.032726      -164.1588
  24   2.0000      -1.013470       -27.5779
  25   2.0000      -0.986721       -26.8500
  26   2.0000      -0.918099       -24.9827
  27   2.0000      -0.914849       -24.8943
  28   2.0000      -0.874406       -23.7938
  29   2.0000      -0.853254       -23.2182
  30   2.0000      -0.845452       -23.0059
  31   2.0000      -0.813960       -22.1490
  32   2.0000      -0.781886       -21.2762
  33   2.0000      -0.771723       -20.9996
  34   2.0000      -0.717569       -19.5261
  35   2.0000      -0.703197       -19.1350
  36   2.0000      -0.692340       -18.8395
  37   2.0000      -0.660267       -17.9668
  38   2.0000      -0.642872       -17.4934
  39   2.0000      -0.624121       -16.9832
  40   2.0000      -0.601960       -16.3802
  41   2.0000      -0.569614       -15.5000
  42   2.0000      -0.562867       -15.3164
  43   2.0000      -0.559418       -15.2226
  44   2.0000      -0.542110       -14.7516
  45   2.0000      -0.525746       -14.3063
  46   2.0000      -0.514675       -14.0050
  47   2.0000      -0.510005       -13.8780
  48   2.0000      -0.503818       -13.7096
  49   2.0000      -0.500389       -13.6163
  50   2.0000      -0.491755       -13.3813
  51   2.0000      -0.484191       -13.1755
  52   2.0000      -0.467226       -12.7139
  53   2.0000      -0.465429       -12.6650
  54   2.0000      -0.456615       -12.4251
  55   2.0000      -0.450690       -12.2639
  56   2.0000      -0.444177       -12.0867
  57   2.0000      -0.441936       -12.0257
  58   2.0000      -0.437156       -11.8956
  59   2.0000      -0.425606       -11.5813
  60   2.0000      -0.418626       -11.3914
  61   2.0000      -0.413566       -11.2537
  62   2.0000      -0.408238       -11.1087
  63   2.0000      -0.353170        -9.6103
  64   2.0000      -0.334891        -9.1129
  65   2.0000      -0.330125        -8.9832
  66   2.0000      -0.285413        -7.7665
  67   0.0000       0.024113         0.6562
  68   0.0000       0.073082         1.9887
  69   0.0000       0.108751         2.9593
  70   0.0000       0.124778         3.3954
  71   0.0000       0.132358         3.6017

MULLIKEN ATOMIC CHARGES
-----------------------
   0 S :    0.123358
   1 C :   -0.071024
   2 C :   -0.103452
   3 C :    0.017335
   4 C :   -0.151957
   5 H :    0.031717
   6 C :    0.087563
   7 H :    0.014678
   8 H :    0.039666
   9 C :   -0.034121
  10 H :    0.009603
  11 H :    0.014303
  12 C :   -0.112412
  13 H :    0.049388
  14 H :    0.041118
  15 H :    0.038759
  16 S :    0.113365
  17 C :   -0.084627
  18 C :   -0.040310
  19 C :   -0.060667
  20 C :   -0.147898
  21 H :    0.032374
  22 C :    0.097099
  23 H :    0.006672
  24 H :   -0.011018
  25 C :   -0.001375
  26 H :    0.021549
  27 H :    0.016089
  28 C :   -0.083709
  29 H :    0.044501
  30 H :    0.034684
  31 H :    0.023751
  32 H :    0.008277
  33 H :    0.036724
Sum of atomic charges:   -0.0000000

LOEWDIN ATOMIC CHARGES
----------------------
   0 S :    0.427523
   1 C :   -0.199321
   2 C :   -0.059378
   3 C :   -0.054041
   4 C :   -0.203088
   5 H :    0.029608
   6 C :   -0.032662
   7 H :    0.031243
   8 H :    0.037012
   9 C :   -0.033221
  10 H :    0.015273
  11 H :    0.018715
  12 C :   -0.071034
  13 H :    0.034500
  14 H :    0.028827
  15 H :    0.019250
  16 S :    0.410893
  17 C :   -0.181045
  18 C :   -0.068410
  19 C :   -0.065189
  20 C :   -0.197631
  21 H :    0.039471
  22 C :   -0.033202
  23 H :    0.025383
  24 H :    0.029688
  25 C :   -0.040417
  26 H :    0.021745
  27 H :    0.024927
  28 C :   -0.068295
  29 H :    0.027800
  30 H :    0.024374
  31 H :    0.027476
  32 H :    0.014999
  33 H :    0.018226

  Mayer bond orders larger than 0.100000
B(  0-S ,  1-C ) :   1.1319 B(  0-S ,  4-C ) :   1.1576 B(  1-C ,  2-C ) :   1.6117
B(  1-C , 32-H ) :   0.9708 B(  2-C ,  3-C ) :   1.2608 B(  2-C ,  6-C ) :   1.0276
B(  3-C ,  4-C ) :   1.5416 B(  3-C ,  5-H ) :   0.9796 B(  4-C , 20-C ) :   1.0606
B(  6-C ,  7-H ) :   0.9377 B(  6-C ,  8-H ) :   0.9373 B(  6-C ,  9-C ) :   1.0473
B(  9-C , 10-H ) :   0.9511 B(  9-C , 11-H ) :   0.9616 B(  9-C , 12-C ) :   1.0685
B( 12-C , 13-H ) :   0.9763 B( 12-C , 14-H ) :   0.9794 B( 12-C , 15-H ) :   0.9792
B( 16-S , 17-C ) :   1.1443 B( 16-S , 20-C ) :   1.1589 B( 17-C , 18-C ) :   1.6001
B( 17-C , 20-C ) :   0.1019 B( 17-C , 33-H ) :   0.9747 B( 18-C , 19-C ) :   1.2701
B( 18-C , 21-H ) :   0.9818 B( 19-C , 20-C ) :   1.5617 B( 19-C , 22-C ) :   1.0415
B( 22-C , 23-H ) :   0.9213 B( 22-C , 24-H ) :   0.9182 B( 22-C , 25-C ) :   1.0920
B( 25-C , 26-H ) :   0.9510 B( 25-C , 27-H ) :   0.9424 B( 25-C , 28-C ) :   1.0900
B( 28-C , 29-H ) :   0.9756 B( 28-C , 30-H ) :   0.9720 B( 28-C , 31-H ) :   0.9685

Dispersion correction           -0.014607316
FINAL SINGLE POINT ENERGY     -1339.868370322180

DIPOLE MOMENT
-------------
                                X             Y             Z
Electronic contribution:     -4.73631      10.08180      23.59549
Nuclear contribution   :      5.21867     -10.27220     -24.06790
                        -----------------------------------------
Total Dipole Moment    :      0.48236      -0.19041      -0.47241
                        -----------------------------------------
Magnitude (a.u.)       :      0.70150
Magnitude (Debye)      :      1.78306

Rotational constants in cm-1:     0.017835     0.008802     0.007764
Rotational constants in MHz :   534.681494   263.888836   232.764777

                             ****ORCA TERMINATED NORMALLY****
TOTAL RUN TIME: 0 days 0 hours 0 minutes 29 seconds 940 msec
