                         Program Version 4.2.1 -  RELEASE  -
|  1> ! wB97X-D3 SP def2-SVP
|  2> %pal
|  3> nprocs 16
|  4> end
|  5>
|  6> * xyz 0 1
|  7> S 	 -111.401 	 54.0861 	 109.18
|  8> C 	 -109.775 	 53.9828 	 108.563
|  9> C 	 -108.809 	 53.8989 	 109.537
| 10> C 	 -109.414 	 53.8557 	 110.884
| 11> C 	 -110.784 	 54.0367 	 110.816
| 12> H 	 -108.933 	 53.8568 	 111.903
| 13> C 	 -107.326 	 53.7589 	 109.296
| 14> H 	 -107.322 	 53.1128 	 108.406
| 15> H 	 -106.838 	 53.2466 	 110.112
| 16> C 	 -106.472 	 55.0175 	 109.031
| 17> H 	 -105.541 	 54.6941 	 108.728
| 18> H 	 -106.696 	 55.5041 	 108.099
| 19> C 	 -106.406 	 56.1043 	 110.174
| 20> H 	 -105.993 	 55.6149 	 111.022
| 21> H 	 -105.696 	 56.8851 	 109.941
| 22> H 	 -107.409 	 56.4047 	 110.451
| 23> S 	 -112.668 	 55.6976 	 111.915
| 24> C 	 -113.257 	 55.4593 	 113.552
| 25> C 	 -112.904 	 54.2125 	 113.975
| 26> C 	 -112.078 	 53.4764 	 113.056
| 27> C 	 -111.669 	 54.2543 	 111.982
| 28> H 	 -113.146 	 53.8902 	 114.953
| 29> C 	 -111.54 	 52.0992 	 113.391
| 30> H 	 -110.941 	 52.1972 	 114.304
| 31> H 	 -110.843 	 51.7526 	 112.637
| 32> C 	 -112.533 	 51.1001 	 113.755
| 33> H 	 -112.902 	 51.4484 	 114.762
| 34> H 	 -112.032 	 50.0807 	 113.881
| 35> C 	 -113.667 	 51.0974 	 112.682
| 36> H 	 -113.281 	 50.7528 	 111.704
| 37> H 	 -114.276 	 51.9569 	 112.441
| 38> H 	 -114.516 	 50.3911 	 112.954
| 39> H 	 -109.43 	 54.2888 	 107.584
| 40> H 	 -113.858 	 56.1052 	 114.188
| 41> *
| 42>
| 43>                          ****END OF INPUT****

CARTESIAN COORDINATES (ANGSTROEM)
---------------------------------
  S    -111.401000   54.086100  109.180000
  C    -109.775000   53.982800  108.563000
  C    -108.809000   53.898900  109.537000
  C    -109.414000   53.855700  110.884000
  C    -110.784000   54.036700  110.816000
  H    -108.933000   53.856800  111.903000
  C    -107.326000   53.758900  109.296000
  H    -107.322000   53.112800  108.406000
  H    -106.838000   53.246600  110.112000
  C    -106.472000   55.017500  109.031000
  H    -105.541000   54.694100  108.728000
  H    -106.696000   55.504100  108.099000
  C    -106.406000   56.104300  110.174000
  H    -105.993000   55.614900  111.022000
  H    -105.696000   56.885100  109.941000
  H    -107.409000   56.404700  110.451000
  S    -112.668000   55.697600  111.915000
  C    -113.257000   55.459300  113.552000
  C    -112.904000   54.212500  113.975000
  C    -112.078000   53.476400  113.056000
  C    -111.669000   54.254300  111.982000
  H    -113.146000   53.890200  114.953000
  C    -111.540000   52.099200  113.391000
  H    -110.941000   52.197200  114.304000
  H    -110.843000   51.752600  112.637000
  C    -112.533000   51.100100  113.755000
  H    -112.902000   51.448400  114.762000
  H    -112.032000   50.080700  113.881000
  C    -113.667000   51.097400  112.682000
  H    -113.281000   50.752800  111.704000
  H    -114.276000   51.956900  112.441000
  H    -114.516000   50.391100  112.954000
  H    -109.430000   54.288800  107.584000
  H    -113.858000   56.105200  114.188000

 Total Charge           Charge          ....    0
 Multiplicity           Mult            ....    1
 Number of Electrons    NEL             ....  134
 Basis Dimension        Dim             ....  322

ORBITAL ENERGIES
----------------

  NO   OCC          E(Eh)            E(eV)
   0   2.0000     -88.968970     -2420.9688
   1   2.0000     -88.961322     -2420.7606
   2   2.0000     -10.331169      -281.1254
   3   2.0000     -10.327127      -281.0154
   4   2.0000     -10.317464      -280.7525
   5   2.0000     -10.309594      -280.5383
   6   2.0000     -10.304844      -280.4090
   7   2.0000     -10.304215      -280.3920
   8   2.0000     -10.301617      -280.3212
   9   2.0000     -10.294771      -280.1350
  10   2.0000     -10.293849      -280.1099
  11   2.0000     -10.289708      -279.9972
  12   2.0000     -10.282642      -279.8049
  13   2.0000     -10.280998      -279.7602
  14   2.0000     -10.277438      -279.6633
  15   2.0000     -10.275572      -279.6125
  16   2.0000      -8.083672      -219.9679
  17   2.0000      -8.076118      -219.7623
  18   2.0000      -6.042315      -164.4198
  19   2.0000      -6.038276      -164.3099
  20   2.0000      -6.034752      -164.2140
  21   2.0000      -6.034190      -164.1987
  22   2.0000      -6.030650      -164.1023
  23   2.0000      -6.026680      -163.9943
  24   2.0000      -1.005504       -27.3611
  25   2.0000      -0.983753       -26.7693
  26   2.0000      -0.918275       -24.9875
  27   2.0000      -0.908643       -24.7254
  28   2.0000      -0.868339       -23.6287
  29   2.0000      -0.845903       -23.0182
  30   2.0000      -0.836281       -22.7563
  31   2.0000      -0.816115       -22.2076
  32   2.0000      -0.783926       -21.3317
  33   2.0000      -0.776552       -21.1311
  34   2.0000      -0.713175       -19.4065
  35   2.0000      -0.703228       -19.1358
  36   2.0000      -0.690256       -18.7828
  37   2.0000      -0.656556       -17.8658
  38   2.0000      -0.636039       -17.3075
  39   2.0000      -0.608641       -16.5620
  40   2.0000      -0.594684       -16.1822
  41   2.0000      -0.573607       -15.6086
  42   2.0000      -0.558064       -15.1857
  43   2.0000      -0.553409       -15.0590
  44   2.0000      -0.545099       -14.8329
  45   2.0000      -0.530560       -14.4373
  46   2.0000      -0.513277       -13.9670
  47   2.0000      -0.506222       -13.7750
  48   2.0000      -0.502710       -13.6794
  49   2.0000      -0.495635       -13.4869
  50   2.0000      -0.488526       -13.2935
  51   2.0000      -0.473183       -12.8760
  52   2.0000      -0.471062       -12.8182
  53   2.0000      -0.466605       -12.6970
  54   2.0000      -0.463493       -12.6123
  55   2.0000      -0.449750       -12.2383
  56   2.0000      -0.441557       -12.0154
  57   2.0000      -0.438927       -11.9438
  58   2.0000      -0.425110       -11.5678
  59   2.0000      -0.422426       -11.4948
  60   2.0000      -0.417036       -11.3481
  61   2.0000      -0.414614       -11.2822
  62   2.0000      -0.409612       -11.1461
  63   2.0000      -0.343661        -9.3515
  64   2.0000      -0.328453        -8.9377
  65   2.0000      -0.325264        -8.8509
  66   2.0000      -0.299028        -8.1370
  67   0.0000       0.034748         0.9455
  68   0.0000       0.063996         1.7414
  69   0.0000       0.110070         2.9952
  70   0.0000       0.119178         3.2430
  71   0.0000       0.126352         3.4382

MULLIKEN ATOMIC CHARGES
-----------------------
   0 S :    0.124791
   1 C :   -0.098411
   2 C :   -0.115994
   3 C :    0.015373
   4 C :   -0.157525
   5 H :    0.041636
   6 C :    0.051279
   7 H :    0.035479
   8 H :    0.024223
   9 C :   -0.029982
  10 H :   -0.002943
  11 H :    0.002757
  12 C :   -0.027433
  13 H :    0.010442
  14 H :    0.038170
  15 H :    0.047620
  16 S :    0.092497
  17 C :   -0.075041
  18 C :   -0.030327
  19 C :   -0.027879
  20 C :   -0.185445
  21 H :    0.004093
  22 C :    0.092092
  23 H :    0.027216
  24 H :    0.021295
  25 C :   -0.087314
  26 H :    0.029537
  27 H :    0.051741
  28 C :   -0.081432
  29 H :    0.032844
  30 H :    0.045965
  31 H :    0.029154
  32 H :    0.046327
  33 H :    0.055194
Sum of atomic charges:   -0.0000000

LOEWDIN ATOMIC CHARGES
----------------------
   0 S :    0.407783
   1 C :   -0.209496
   2 C :   -0.057872
   3 C :   -0.070134
   4 C :   -0.194905
   5 H :    0.044272
   6 C :   -0.031882
   7 H :    0.040142
   8 H :    0.030419
   9 C :   -0.037459
  10 H :    0.013825
  11 H :    0.018131
  12 C :   -0.057059
  13 H :    0.017993
  14 H :    0.028961
  15 H :    0.028847
  16 S :    0.392241
  17 C :   -0.179230
  18 C :   -0.068574
  19 C :   -0.050225
  20 C :   -0.196014
  21 H :    0.022907
  22 C :   -0.041637
  23 H :    0.034000
  24 H :    0.026610
  25 C :   -0.045021
  26 H :    0.024687
  27 H :    0.039583
  28 C :   -0.081778
  29 H :    0.028378
  30 H :    0.028615
  31 H :    0.028804
  32 H :    0.029778
  33 H :    0.035312

  Mayer bond orders larger than 0.100000
B(  0-S ,  1-C ) :   1.1164 B(  0-S ,  4-C ) :   1.1499 B(  1-C ,  2-C ) :   1.6734
B(  1-C , 32-H ) :   0.9546 B(  2-C ,  3-C ) :   1.1906 B(  2-C ,  6-C ) :   1.0156
B(  3-C ,  4-C ) :   1.6148 B(  3-C ,  5-H ) :   0.9826 B(  4-C , 20-C ) :   1.0233
B(  6-C ,  7-H ) :   0.9388 B(  6-C ,  8-H ) :   0.9457 B(  6-C ,  9-C ) :   1.0788
B(  9-C , 10-H ) :   0.9473 B(  9-C , 11-H ) :   0.9510 B(  9-C , 12-C ) :   1.0654
B( 12-C , 13-H ) :   0.9760 B( 12-C , 14-H ) :   0.9744 B( 12-C , 15-H ) :   0.9783
B( 16-S , 17-C ) :   1.1395 B( 16-S , 20-C ) :   1.1294 B( 17-C , 18-C ) :   1.6386
B( 17-C , 33-H ) :   0.9670 B( 18-C , 19-C ) :   1.2045 B( 18-C , 21-H ) :   0.9935
B( 19-C , 20-C ) :   1.6051 B( 19-C , 22-C ) :   1.0439 B( 22-C , 23-H ) :   0.9358
B( 22-C , 24-H ) :   0.9323 B( 22-C , 25-C ) :   1.0726 B( 25-C , 26-H ) :   0.9525
B( 25-C , 27-H ) :   0.9534 B( 25-C , 28-C ) :   1.0685 B( 28-C , 29-H ) :   0.9760
B( 28-C , 30-H ) :   0.9700 B( 28-C , 31-H ) :   0.9756

Dispersion correction           -0.014698714
FINAL SINGLE POINT ENERGY     -1339.861533273042

DIPOLE MOMENT
-------------
                                X             Y             Z
Electronic contribution:    -14.05435       9.30931      -4.98821
Nuclear contribution   :     14.54178      -9.49678       5.33800
                        -----------------------------------------
Total Dipole Moment    :      0.48742      -0.18748       0.34979
                        -----------------------------------------
Magnitude (a.u.)       :      0.62855
Magnitude (Debye)      :      1.59765

Rotational constants in cm-1:     0.022142     0.007598     0.007170
Rotational constants in MHz :   663.791715   227.776074   214.951522

                             ****ORCA TERMINATED NORMALLY****
TOTAL RUN TIME: 0 days 0 hours 0 minutes 26 seconds 903 msec
