                         Program Version 4.2.1 -  RELEASE  -
|  1> ! wB97X-D3 SP def2-SVP
|  2> %pal
|  3> nprocs 16
|  4> end
|  5>
|  6> * xyz 0 1
|  7> S 	 51.7016 	 5.24961 	 83.1762
|  8> C 	 52.9017 	 4.47241 	 82.1527
|  9> C 	 52.4154 	 3.30716 	 81.4843
| 10> C 	 51.0411 	 3.12132 	 81.7363
| 11> C 	 50.5773 	 3.97606 	 82.7052
| 12> H 	 50.5015 	 2.21364 	 81.4187
| 13> C 	 53.1745 	 2.46767 	 80.5917
| 14> H 	 54.0346 	 3.09052 	 80.2139
| 15> H 	 52.6048 	 2.2135 	 79.7415
| 16> C 	 53.7888 	 1.17283 	 81.2081
| 17> H 	 54.4911 	 1.36447 	 81.9868
| 18> H 	 53.0681 	 0.531666 	 81.7339
| 19> C 	 54.4888 	 0.31003 	 80.2256
| 20> H 	 55.2111 	 -0.252323 	 80.6337
| 21> H 	 53.8231 	 -0.331627 	 79.7182
| 22> H 	 54.9469 	 0.846861 	 79.4286
| 23> S 	 49.4284 	 3.42755 	 85.078
| 24> C 	 47.6322 	 3.38109 	 85.2023
| 25> C 	 47.0363 	 3.62491 	 83.9902
| 26> C 	 47.9931 	 3.70732 	 82.9597
| 27> C 	 49.3201 	 3.79544 	 83.3598
| 28> H 	 45.9562 	 3.4957 	 83.9239
| 29> C 	 47.5818 	 3.99366 	 81.4881
| 30> H 	 48.1427 	 4.87612 	 81.1071
| 31> H 	 46.5132 	 4.27041 	 81.4341
| 32> C 	 47.7259 	 2.78625 	 80.5307
| 33> H 	 46.9209 	 2.05327 	 80.9039
| 34> H 	 48.6454 	 2.30078 	 80.6899
| 35> C 	 47.5896 	 3.03483 	 79.0271
| 36> H 	 48.1851 	 3.92273 	 78.8479
| 37> H 	 46.5468 	 3.36299 	 78.6681
| 38> H 	 48.065 	 2.31561 	 78.3129
| 39> H 	 53.7936 	 4.94838 	 81.8418
| 40> H 	 47.0481 	 2.8761 	 86.0393
| 41> *
| 42>
| 43>                          ****END OF INPUT****

CARTESIAN COORDINATES (ANGSTROEM)
---------------------------------
  S     51.701600    5.249610   83.176200
  C     52.901700    4.472410   82.152700
  C     52.415400    3.307160   81.484300
  C     51.041100    3.121320   81.736300
  C     50.577300    3.976060   82.705200
  H     50.501500    2.213640   81.418700
  C     53.174500    2.467670   80.591700
  H     54.034600    3.090520   80.213900
  H     52.604800    2.213500   79.741500
  C     53.788800    1.172830   81.208100
  H     54.491100    1.364470   81.986800
  H     53.068100    0.531666   81.733900
  C     54.488800    0.310030   80.225600
  H     55.211100   -0.252323   80.633700
  H     53.823100   -0.331627   79.718200
  H     54.946900    0.846861   79.428600
  S     49.428400    3.427550   85.078000
  C     47.632200    3.381090   85.202300
  C     47.036300    3.624910   83.990200
  C     47.993100    3.707320   82.959700
  C     49.320100    3.795440   83.359800
  H     45.956200    3.495700   83.923900
  C     47.581800    3.993660   81.488100
  H     48.142700    4.876120   81.107100
  H     46.513200    4.270410   81.434100
  C     47.725900    2.786250   80.530700
  H     46.920900    2.053270   80.903900
  H     48.645400    2.300780   80.689900
  C     47.589600    3.034830   79.027100
  H     48.185100    3.922730   78.847900
  H     46.546800    3.362990   78.668100
  H     48.065000    2.315610   78.312900
  H     53.793600    4.948380   81.841800
  H     47.048100    2.876100   86.039300

 Total Charge           Charge          ....    0
 Multiplicity           Mult            ....    1
 Number of Electrons    NEL             ....  134
 Basis Dimension        Dim             ....  322

ORBITAL ENERGIES
----------------

  NO   OCC          E(Eh)            E(eV)
   0   2.0000     -88.975241     -2421.1394
   1   2.0000     -88.963582     -2420.8221
   2   2.0000     -10.330202      -281.0991
   3   2.0000     -10.325238      -280.9640
   4   2.0000     -10.322020      -280.8764
   5   2.0000     -10.315234      -280.6918
   6   2.0000     -10.304385      -280.3966
   7   2.0000     -10.300698      -280.2962
   8   2.0000     -10.294693      -280.1328
   9   2.0000     -10.294538      -280.1286
  10   2.0000     -10.294064      -280.1157
  11   2.0000     -10.291257      -280.0393
  12   2.0000     -10.287026      -279.9242
  13   2.0000     -10.285238      -279.8755
  14   2.0000     -10.282295      -279.7955
  15   2.0000     -10.258562      -279.1497
  16   2.0000      -8.089231      -220.1192
  17   2.0000      -8.077575      -219.8020
  18   2.0000      -6.047650      -164.5649
  19   2.0000      -6.043955      -164.4644
  20   2.0000      -6.040021      -164.3573
  21   2.0000      -6.036156      -164.2522
  22   2.0000      -6.032194      -164.1443
  23   2.0000      -6.028277      -164.0377
  24   2.0000      -1.008215       -27.4349
  25   2.0000      -0.981867       -26.7179
  26   2.0000      -0.920406       -25.0455
  27   2.0000      -0.899691       -24.4818
  28   2.0000      -0.876174       -23.8419
  29   2.0000      -0.862574       -23.4718
  30   2.0000      -0.843942       -22.9648
  31   2.0000      -0.818756       -22.2795
  32   2.0000      -0.782711       -21.2986
  33   2.0000      -0.765458       -20.8292
  34   2.0000      -0.711724       -19.3670
  35   2.0000      -0.705799       -19.2058
  36   2.0000      -0.689065       -18.7504
  37   2.0000      -0.660902       -17.9841
  38   2.0000      -0.643109       -17.4999
  39   2.0000      -0.624022       -16.9805
  40   2.0000      -0.588794       -16.0219
  41   2.0000      -0.575106       -15.6494
  42   2.0000      -0.563351       -15.3296
  43   2.0000      -0.555590       -15.1184
  44   2.0000      -0.535895       -14.5824
  45   2.0000      -0.528592       -14.3837
  46   2.0000      -0.516192       -14.0463
  47   2.0000      -0.507445       -13.8083
  48   2.0000      -0.505632       -13.7589
  49   2.0000      -0.499644       -13.5960
  50   2.0000      -0.492923       -13.4131
  51   2.0000      -0.481127       -13.0921
  52   2.0000      -0.470050       -12.7907
  53   2.0000      -0.463188       -12.6040
  54   2.0000      -0.458882       -12.4868
  55   2.0000      -0.447501       -12.1771
  56   2.0000      -0.443448       -12.0668
  57   2.0000      -0.441305       -12.0085
  58   2.0000      -0.438598       -11.9349
  59   2.0000      -0.425101       -11.5676
  60   2.0000      -0.418437       -11.3863
  61   2.0000      -0.413344       -11.2477
  62   2.0000      -0.407626       -11.0921
  63   2.0000      -0.351939        -9.5768
  64   2.0000      -0.332406        -9.0452
  65   2.0000      -0.329197        -8.9579
  66   2.0000      -0.287809        -7.8317
  67   0.0000       0.028552         0.7769
  68   0.0000       0.054320         1.4781
  69   0.0000       0.107845         2.9346
  70   0.0000       0.111844         3.0434
  71   0.0000       0.127955         3.4818

MULLIKEN ATOMIC CHARGES
-----------------------
   0 S :    0.137230
   1 C :   -0.099002
   2 C :   -0.096798
   3 C :    0.024726
   4 C :   -0.155101
   5 H :    0.044624
   6 C :    0.067081
   7 H :    0.022796
   8 H :    0.015881
   9 C :   -0.068954
  10 H :    0.016491
  11 H :    0.023003
  12 C :    0.038080
  13 H :    0.003087
  14 H :    0.011341
  15 H :    0.004852
  16 S :    0.093731
  17 C :   -0.126247
  18 C :   -0.026875
  19 C :   -0.023274
  20 C :   -0.159083
  21 H :    0.030224
  22 C :    0.033207
  23 H :    0.039891
  24 H :    0.019865
  25 C :   -0.062041
  26 H :    0.030899
  27 H :   -0.001725
  28 C :   -0.062587
  29 H :    0.015759
  30 H :    0.041624
  31 H :    0.046757
  32 H :    0.036539
  33 H :    0.083996
Sum of atomic charges:    0.0000000

LOEWDIN ATOMIC CHARGES
----------------------
   0 S :    0.412307
   1 C :   -0.195801
   2 C :   -0.056853
   3 C :   -0.056579
   4 C :   -0.192509
   5 H :    0.038890
   6 C :   -0.033475
   7 H :    0.039075
   8 H :    0.026219
   9 C :   -0.034754
  10 H :    0.021849
  11 H :    0.025651
  12 C :   -0.052151
  13 H :    0.013125
  14 H :    0.021014
  15 H :    0.022082
  16 S :    0.382384
  17 C :   -0.185321
  18 C :   -0.073912
  19 C :   -0.061454
  20 C :   -0.189615
  21 H :    0.038263
  22 C :   -0.031228
  23 H :    0.031075
  24 H :    0.028654
  25 C :   -0.047148
  26 H :    0.029198
  27 H :    0.009695
  28 C :   -0.081244
  29 H :    0.023282
  30 H :    0.032377
  31 H :    0.034238
  32 H :    0.016697
  33 H :    0.045968

  Mayer bond orders larger than 0.100000
B(  0-S ,  1-C ) :   1.1332 B(  0-S ,  4-C ) :   1.1572 B(  1-C ,  2-C ) :   1.5840
B(  1-C ,  4-C ) :   0.1043 B(  1-C , 32-H ) :   0.9667 B(  2-C ,  3-C ) :   1.2699
B(  2-C ,  6-C ) :   1.0583 B(  3-C ,  4-C ) :   1.5633 B(  3-C ,  5-H ) :   0.9709
B(  4-C , 20-C ) :   1.0412 B(  6-C ,  7-H ) :   0.9257 B(  6-C ,  8-H ) :   0.9373
B(  6-C ,  9-C ) :   1.0558 B(  9-C , 10-H ) :   0.9559 B(  9-C , 11-H ) :   0.9562
B(  9-C , 12-C ) :   1.0914 B( 12-C , 13-H ) :   0.9691 B( 12-C , 14-H ) :   0.9698
B( 12-C , 15-H ) :   0.9661 B( 16-S , 17-C ) :   1.1423 B( 16-S , 20-C ) :   1.1383
B( 17-C , 18-C ) :   1.6233 B( 17-C , 20-C ) :   0.1062 B( 17-C , 33-H ) :   0.9530
B( 18-C , 19-C ) :   1.2559 B( 18-C , 21-H ) :   0.9818 B( 19-C , 20-C ) :   1.5941
B( 19-C , 22-C ) :   1.0356 B( 22-C , 23-H ) :   0.9420 B( 22-C , 24-H ) :   0.9454
B( 22-C , 25-C ) :   1.0512 B( 25-C , 26-H ) :   0.9514 B( 25-C , 27-H ) :   0.9575
B( 25-C , 28-C ) :   1.0734 B( 28-C , 29-H ) :   0.9688 B( 28-C , 30-H ) :   0.9743
B( 28-C , 31-H ) :   0.9746

Dispersion correction           -0.014236476
FINAL SINGLE POINT ENERGY     -1339.850849340077

DIPOLE MOMENT
-------------
                                X             Y             Z
Electronic contribution:     -2.25556      14.97371      24.52764
Nuclear contribution   :      2.29294     -15.39308     -25.05694
                        -----------------------------------------
Total Dipole Moment    :      0.03739      -0.41937      -0.52931
                        -----------------------------------------
Magnitude (a.u.)       :      0.67634
Magnitude (Debye)      :      1.71913

Rotational constants in cm-1:     0.016991     0.008874     0.007129
Rotational constants in MHz :   509.384034   266.037312   213.727857

                             ****ORCA TERMINATED NORMALLY****
TOTAL RUN TIME: 0 days 0 hours 0 minutes 28 seconds 243 msec
