                         Program Version 4.2.1 -  RELEASE  -
|  1> ! wB97X-D3 SP def2-SVP
|  2> %pal
|  3> nprocs 16
|  4> end
|  5>
|  6> * xyz 0 1
|  7> S 	 9.43146 	 -19.1751 	 83.685
|  8> C 	 8.92766 	 -20.465 	 84.7837
|  9> C 	 8.14517 	 -19.952 	 85.796
| 10> C 	 7.82372 	 -18.546 	 85.6509
| 11> C 	 8.56149 	 -17.9712 	 84.5947
| 12> H 	 7.12378 	 -17.9992 	 86.2757
| 13> C 	 7.46502 	 -20.8719 	 86.7247
| 14> H 	 7.46449 	 -20.3355 	 87.6914
| 15> H 	 8.14346 	 -21.7972 	 86.893
| 16> C 	 6.065 	 -21.2831 	 86.2912
| 17> H 	 5.4361 	 -20.4303 	 85.951
| 18> H 	 6.19362 	 -21.8814 	 85.3245
| 19> C 	 5.39098 	 -21.9844 	 87.5071
| 20> H 	 5.96222 	 -22.8893 	 87.679
| 21> H 	 5.36527 	 -21.3636 	 88.3771
| 22> H 	 4.36126 	 -22.1906 	 87.4062
| 23> S 	 7.25727 	 -15.646 	 84.8907
| 24> C 	 8.01896 	 -14.1928 	 84.2853
| 25> C 	 9.34176 	 -14.395 	 83.8704
| 26> C 	 9.72417 	 -15.7591 	 83.8239
| 27> C 	 8.71305 	 -16.5854 	 84.3735
| 28> H 	 9.93207 	 -13.5828 	 83.4368
| 29> C 	 11.0787 	 -16.1423 	 83.3918
| 30> H 	 11.4516 	 -15.5613 	 82.6168
| 31> H 	 11.0723 	 -17.1068 	 82.9933
| 32> C 	 12.1161 	 -16.0751 	 84.4704
| 33> H 	 11.9327 	 -16.8181 	 85.2534
| 34> H 	 12.0525 	 -15.1223 	 84.969
| 35> C 	 13.5115 	 -16.1874 	 83.9335
| 36> H 	 13.5312 	 -16.829 	 83.0927
| 37> H 	 14.2144 	 -16.7066 	 84.6636
| 38> H 	 14.0067 	 -15.2626 	 83.7191
| 39> H 	 9.14091 	 -21.4726 	 84.6324
| 40> H 	 7.47466 	 -13.3117 	 84.085
| 41> *
| 42>
| 43>                          ****END OF INPUT****

CARTESIAN COORDINATES (ANGSTROEM)
---------------------------------
  S      9.431460  -19.175100   83.685000
  C      8.927660  -20.465000   84.783700
  C      8.145170  -19.952000   85.796000
  C      7.823720  -18.546000   85.650900
  C      8.561490  -17.971200   84.594700
  H      7.123780  -17.999200   86.275700
  C      7.465020  -20.871900   86.724700
  H      7.464490  -20.335500   87.691400
  H      8.143460  -21.797200   86.893000
  C      6.065000  -21.283100   86.291200
  H      5.436100  -20.430300   85.951000
  H      6.193620  -21.881400   85.324500
  C      5.390980  -21.984400   87.507100
  H      5.962220  -22.889300   87.679000
  H      5.365270  -21.363600   88.377100
  H      4.361260  -22.190600   87.406200
  S      7.257270  -15.646000   84.890700
  C      8.018960  -14.192800   84.285300
  C      9.341760  -14.395000   83.870400
  C      9.724170  -15.759100   83.823900
  C      8.713050  -16.585400   84.373500
  H      9.932070  -13.582800   83.436800
  C     11.078700  -16.142300   83.391800
  H     11.451600  -15.561300   82.616800
  H     11.072300  -17.106800   82.993300
  C     12.116100  -16.075100   84.470400
  H     11.932700  -16.818100   85.253400
  H     12.052500  -15.122300   84.969000
  C     13.511500  -16.187400   83.933500
  H     13.531200  -16.829000   83.092700
  H     14.214400  -16.706600   84.663600
  H     14.006700  -15.262600   83.719100
  H      9.140910  -21.472600   84.632400
  H      7.474660  -13.311700   84.085000

 Total Charge           Charge          ....    0
 Multiplicity           Mult            ....    1
 Number of Electrons    NEL             ....  134
 Basis Dimension        Dim             ....  322

ORBITAL ENERGIES
----------------

  NO   OCC          E(Eh)            E(eV)
   0   2.0000     -88.967818     -2420.9374
   1   2.0000     -88.966247     -2420.8946
   2   2.0000     -10.331540      -281.1355
   3   2.0000     -10.331220      -281.1268
   4   2.0000     -10.317254      -280.7468
   5   2.0000     -10.306955      -280.4665
   6   2.0000     -10.306047      -280.4418
   7   2.0000     -10.297980      -280.2223
   8   2.0000     -10.296921      -280.1935
   9   2.0000     -10.296401      -280.1793
  10   2.0000     -10.294993      -280.1410
  11   2.0000     -10.293400      -280.0977
  12   2.0000     -10.275767      -279.6178
  13   2.0000     -10.275655      -279.6148
  14   2.0000     -10.273676      -279.5609
  15   2.0000     -10.271808      -279.5101
  16   2.0000      -8.081722      -219.9148
  17   2.0000      -8.080485      -219.8812
  18   2.0000      -6.040259      -164.3638
  19   2.0000      -6.039155      -164.3338
  20   2.0000      -6.036503      -164.2616
  21   2.0000      -6.034987      -164.2203
  22   2.0000      -6.032375      -164.1493
  23   2.0000      -6.031218      -164.1178
  24   2.0000      -1.004836       -27.3430
  25   2.0000      -0.979127       -26.6434
  26   2.0000      -0.922655       -25.1067
  27   2.0000      -0.914293       -24.8792
  28   2.0000      -0.871245       -23.7078
  29   2.0000      -0.857684       -23.3388
  30   2.0000      -0.844626       -22.9834
  31   2.0000      -0.808106       -21.9897
  32   2.0000      -0.787144       -21.4193
  33   2.0000      -0.768232       -20.9046
  34   2.0000      -0.710657       -19.3380
  35   2.0000      -0.702962       -19.1286
  36   2.0000      -0.696676       -18.9575
  37   2.0000      -0.671960       -18.2850
  38   2.0000      -0.637628       -17.3507
  39   2.0000      -0.616543       -16.7770
  40   2.0000      -0.604328       -16.4446
  41   2.0000      -0.571816       -15.5599
  42   2.0000      -0.564908       -15.3719
  43   2.0000      -0.557104       -15.1596
  44   2.0000      -0.527981       -14.3671
  45   2.0000      -0.526981       -14.3399
  46   2.0000      -0.522832       -14.2270
  47   2.0000      -0.514065       -13.9884
  48   2.0000      -0.510941       -13.9034
  49   2.0000      -0.506697       -13.7879
  50   2.0000      -0.488164       -13.2836
  51   2.0000      -0.474858       -12.9216
  52   2.0000      -0.469812       -12.7842
  53   2.0000      -0.465260       -12.6604
  54   2.0000      -0.455356       -12.3909
  55   2.0000      -0.452600       -12.3159
  56   2.0000      -0.450076       -12.2472
  57   2.0000      -0.441642       -12.0177
  58   2.0000      -0.432014       -11.7557
  59   2.0000      -0.425034       -11.5658
  60   2.0000      -0.417291       -11.3551
  61   2.0000      -0.414373       -11.2757
  62   2.0000      -0.408125       -11.1056
  63   2.0000      -0.358772        -9.7627
  64   2.0000      -0.335523        -9.1300
  65   2.0000      -0.327386        -8.9086
  66   2.0000      -0.272849        -7.4246
  67   0.0000       0.014616         0.3977
  68   0.0000       0.078054         2.1240
  69   0.0000       0.099914         2.7188
  70   0.0000       0.118549         3.2259
  71   0.0000       0.129508         3.5241

MULLIKEN ATOMIC CHARGES
-----------------------
   0 S :    0.094681
   1 C :   -0.101185
   2 C :   -0.058128
   3 C :   -0.011543
   4 C :   -0.107293
   5 H :    0.025992
   6 C :   -0.003054
   7 H :    0.026814
   8 H :    0.038188
   9 C :   -0.089139
  10 H :    0.035542
  11 H :    0.037740
  12 C :    0.000919
  13 H :    0.030778
  14 H :    0.021938
  15 H :    0.020838
  16 S :    0.081672
  17 C :   -0.068992
  18 C :   -0.041052
  19 C :   -0.064362
  20 C :   -0.130671
  21 H :    0.025083
  22 C :    0.132079
  23 H :   -0.005364
  24 H :   -0.001989
  25 C :   -0.052944
  26 H :    0.031674
  27 H :    0.015063
  28 C :   -0.040770
  29 H :    0.017835
  30 H :    0.032918
  31 H :    0.032978
  32 H :    0.024977
  33 H :    0.048779
Sum of atomic charges:   -0.0000000

LOEWDIN ATOMIC CHARGES
----------------------
   0 S :    0.405864
   1 C :   -0.189090
   2 C :   -0.059762
   3 C :   -0.076316
   4 C :   -0.190545
   5 H :    0.025916
   6 C :   -0.044944
   7 H :    0.029869
   8 H :    0.038716
   9 C :   -0.043814
  10 H :    0.026422
  11 H :    0.032469
  12 C :   -0.059550
  13 H :    0.026989
  14 H :    0.024345
  15 H :    0.019611
  16 S :    0.391552
  17 C :   -0.175324
  18 C :   -0.066510
  19 C :   -0.048211
  20 C :   -0.170009
  21 H :    0.034370
  22 C :   -0.030969
  23 H :    0.024494
  24 H :    0.013451
  25 C :   -0.035434
  26 H :    0.027600
  27 H :    0.022160
  28 C :   -0.065903
  29 H :    0.017773
  30 H :    0.036442
  31 H :    0.022745
  32 H :    0.015017
  33 H :    0.020573

  Mayer bond orders larger than 0.100000
B(  0-S ,  1-C ) :   1.1091 B(  0-S ,  4-C ) :   1.1531 B(  1-C ,  2-C ) :   1.6018
B(  1-C , 32-H ) :   0.9795 B(  2-C ,  3-C ) :   1.2518 B(  2-C ,  6-C ) :   1.0450
B(  3-C ,  4-C ) :   1.5048 B(  3-C ,  5-H ) :   0.9838 B(  4-C , 20-C ) :   1.1237
B(  6-C ,  7-H ) :   0.9354 B(  6-C ,  8-H ) :   0.9407 B(  6-C ,  9-C ) :   1.0502
B(  9-C , 10-H ) :   0.9584 B(  9-C , 11-H ) :   0.9538 B(  9-C , 12-C ) :   1.0643
B( 12-C , 13-H ) :   0.9753 B( 12-C , 14-H ) :   0.9745 B( 12-C , 15-H ) :   0.9739
B( 16-S , 17-C ) :   1.1540 B( 16-S , 20-C ) :   1.1252 B( 17-C , 18-C ) :   1.5981
B( 17-C , 20-C ) :   0.1028 B( 17-C , 33-H ) :   0.9720 B( 18-C , 19-C ) :   1.2484
B( 18-C , 21-H ) :   0.9829 B( 19-C , 20-C ) :   1.5459 B( 19-C , 22-C ) :   1.0709
B( 22-C , 23-H ) :   0.9152 B( 22-C , 24-H ) :   0.9072 B( 22-C , 25-C ) :   1.0739
B( 25-C , 26-H ) :   0.9533 B( 25-C , 27-H ) :   0.9544 B( 25-C , 28-C ) :   1.0807
B( 28-C , 29-H ) :   0.9724 B( 28-C , 30-H ) :   0.9717 B( 28-C , 31-H ) :   0.9753

Dispersion correction           -0.013810980
FINAL SINGLE POINT ENERGY     -1339.868225079156

DIPOLE MOMENT
-------------
                                X             Y             Z
Electronic contribution:     -6.17595       9.65211      -7.83903
Nuclear contribution   :      6.25339      -9.65492       7.92034
                        -----------------------------------------
Total Dipole Moment    :      0.07745      -0.00281       0.08131
                        -----------------------------------------
Magnitude (a.u.)       :      0.11233
Magnitude (Debye)      :      0.28552

Rotational constants in cm-1:     0.022017     0.007771     0.006193
Rotational constants in MHz :   660.043574   232.962500   185.655008

                             ****ORCA TERMINATED NORMALLY****
TOTAL RUN TIME: 0 days 0 hours 0 minutes 32 seconds 136 msec
