                         Program Version 4.2.1 -  RELEASE  -
|  1> ! wB97X-D3 SP def2-SVP
|  2> %pal
|  3> nprocs 16
|  4> end
|  5>
|  6> * xyz 0 1
|  7> S 	 -14.787 	 50.5025 	 31.8157
|  8> C 	 -13.7402 	 50.684 	 30.4495
|  9> C 	 -12.8346 	 49.6719 	 30.2986
| 10> C 	 -13.1295 	 48.5654 	 31.153
| 11> C 	 -14.1913 	 48.8179 	 32.0306
| 12> H 	 -12.586 	 47.6219 	 31.1668
| 13> C 	 -11.8515 	 49.6378 	 29.195
| 14> H 	 -11.01 	 49.0251 	 29.61
| 15> H 	 -11.4671 	 50.6802 	 29.0216
| 16> C 	 -12.2371 	 49.0045 	 27.8614
| 17> H 	 -12.5366 	 47.9611 	 28.035
| 18> H 	 -13.0829 	 49.5213 	 27.5084
| 19> C 	 -11.1509 	 48.9524 	 26.7833
| 20> H 	 -10.5143 	 49.8703 	 26.7664
| 21> H 	 -10.4217 	 48.2408 	 27.1069
| 22> H 	 -11.4778 	 48.7142 	 25.7644
| 23> S 	 -14.5648 	 48.2204 	 34.7226
| 24> C 	 -15.314 	 46.7476 	 35.1923
| 25> C 	 -15.5829 	 45.9737 	 34.094
| 26> C 	 -15.247 	 46.6052 	 32.8121
| 27> C 	 -14.8214 	 47.9228 	 33.0097
| 28> H 	 -15.8986 	 44.9364 	 34.2384
| 29> C 	 -15.4092 	 45.9621 	 31.4685
| 30> H 	 -14.6242 	 46.405 	 30.8515
| 31> H 	 -16.3893 	 46.3712 	 31.1895
| 32> C 	 -15.2956 	 44.4492 	 31.3125
| 33> H 	 -16.0792 	 44.0175 	 31.9091
| 34> H 	 -14.3808 	 44.1418 	 31.7927
| 35> C 	 -15.5092 	 43.9523 	 29.8784
| 36> H 	 -15.1822 	 42.9647 	 29.7942
| 37> H 	 -14.9338 	 44.5442 	 29.1405
| 38> H 	 -16.6286 	 44.0527 	 29.715
| 39> H 	 -13.7909 	 51.6046 	 29.8183
| 40> H 	 -15.3724 	 46.5116 	 36.2555
| 41> *
| 42>
| 43>                          ****END OF INPUT****

CARTESIAN COORDINATES (ANGSTROEM)
---------------------------------
  S    -14.787000   50.502500   31.815700
  C    -13.740200   50.684000   30.449500
  C    -12.834600   49.671900   30.298600
  C    -13.129500   48.565400   31.153000
  C    -14.191300   48.817900   32.030600
  H    -12.586000   47.621900   31.166800
  C    -11.851500   49.637800   29.195000
  H    -11.010000   49.025100   29.610000
  H    -11.467100   50.680200   29.021600
  C    -12.237100   49.004500   27.861400
  H    -12.536600   47.961100   28.035000
  H    -13.082900   49.521300   27.508400
  C    -11.150900   48.952400   26.783300
  H    -10.514300   49.870300   26.766400
  H    -10.421700   48.240800   27.106900
  H    -11.477800   48.714200   25.764400
  S    -14.564800   48.220400   34.722600
  C    -15.314000   46.747600   35.192300
  C    -15.582900   45.973700   34.094000
  C    -15.247000   46.605200   32.812100
  C    -14.821400   47.922800   33.009700
  H    -15.898600   44.936400   34.238400
  C    -15.409200   45.962100   31.468500
  H    -14.624200   46.405000   30.851500
  H    -16.389300   46.371200   31.189500
  C    -15.295600   44.449200   31.312500
  H    -16.079200   44.017500   31.909100
  H    -14.380800   44.141800   31.792700
  C    -15.509200   43.952300   29.878400
  H    -15.182200   42.964700   29.794200
  H    -14.933800   44.544200   29.140500
  H    -16.628600   44.052700   29.715000
  H    -13.790900   51.604600   29.818300
  H    -15.372400   46.511600   36.255500

 Total Charge           Charge          ....    0
 Multiplicity           Mult            ....    1
 Number of Electrons    NEL             ....  134
 Basis Dimension        Dim             ....  322

ORBITAL ENERGIES
----------------

  NO   OCC          E(Eh)            E(eV)
   0   2.0000     -88.964799     -2420.8552
   1   2.0000     -88.959562     -2420.7128
   2   2.0000     -10.333775      -281.1963
   3   2.0000     -10.323115      -280.9062
   4   2.0000     -10.316339      -280.7218
   5   2.0000     -10.314033      -280.6591
   6   2.0000     -10.307734      -280.4877
   7   2.0000     -10.300223      -280.2833
   8   2.0000     -10.297368      -280.2056
   9   2.0000     -10.296150      -280.1725
  10   2.0000     -10.295646      -280.1588
  11   2.0000     -10.288259      -279.9578
  12   2.0000     -10.284629      -279.8590
  13   2.0000     -10.284306      -279.8502
  14   2.0000     -10.283278      -279.8222
  15   2.0000     -10.280750      -279.7534
  16   2.0000      -8.079377      -219.8510
  17   2.0000      -8.075153      -219.7361
  18   2.0000      -6.037758      -164.2957
  19   2.0000      -6.033980      -164.1929
  20   2.0000      -6.033631      -164.1834
  21   2.0000      -6.030216      -164.0905
  22   2.0000      -6.029543      -164.0722
  23   2.0000      -6.025896      -163.9730
  24   2.0000      -1.003040       -27.2941
  25   2.0000      -0.983963       -26.7750
  26   2.0000      -0.913498       -24.8576
  27   2.0000      -0.912980       -24.8435
  28   2.0000      -0.869593       -23.6628
  29   2.0000      -0.853949       -23.2371
  30   2.0000      -0.846696       -23.0398
  31   2.0000      -0.814062       -22.1518
  32   2.0000      -0.782670       -21.2975
  33   2.0000      -0.768955       -20.9243
  34   2.0000      -0.708799       -19.2874
  35   2.0000      -0.702449       -19.1146
  36   2.0000      -0.695194       -18.9172
  37   2.0000      -0.649993       -17.6872
  38   2.0000      -0.638499       -17.3744
  39   2.0000      -0.619021       -16.8444
  40   2.0000      -0.596956       -16.2440
  41   2.0000      -0.576535       -15.6883
  42   2.0000      -0.571876       -15.5615
  43   2.0000      -0.557032       -15.1576
  44   2.0000      -0.531952       -14.4751
  45   2.0000      -0.524191       -14.2640
  46   2.0000      -0.519522       -14.1369
  47   2.0000      -0.512569       -13.9477
  48   2.0000      -0.503819       -13.7096
  49   2.0000      -0.497290       -13.5320
  50   2.0000      -0.488015       -13.2796
  51   2.0000      -0.477493       -12.9932
  52   2.0000      -0.474823       -12.9206
  53   2.0000      -0.463128       -12.6024
  54   2.0000      -0.457826       -12.4581
  55   2.0000      -0.453919       -12.3518
  56   2.0000      -0.447010       -12.1638
  57   2.0000      -0.439735       -11.9658
  58   2.0000      -0.432129       -11.7588
  59   2.0000      -0.424088       -11.5400
  60   2.0000      -0.420604       -11.4452
  61   2.0000      -0.418404       -11.3853
  62   2.0000      -0.415156       -11.2970
  63   2.0000      -0.342324        -9.3151
  64   2.0000      -0.330460        -8.9923
  65   2.0000      -0.323036        -8.7903
  66   2.0000      -0.294644        -8.0177
  67   0.0000       0.034510         0.9391
  68   0.0000       0.062296         1.6952
  69   0.0000       0.112111         3.0507
  70   0.0000       0.119209         3.2438
  71   0.0000       0.125451         3.4137

MULLIKEN ATOMIC CHARGES
-----------------------
   0 S :    0.111318
   1 C :   -0.143849
   2 C :   -0.062813
   3 C :    0.038904
   4 C :   -0.194143
   5 H :    0.023640
   6 C :    0.016402
   7 H :    0.023102
   8 H :    0.031479
   9 C :   -0.026526
  10 H :    0.021502
  11 H :    0.012644
  12 C :   -0.042276
  13 H :    0.023948
  14 H :    0.017293
  15 H :    0.047275
  16 S :    0.097613
  17 C :   -0.094097
  18 C :   -0.040724
  19 C :   -0.069168
  20 C :   -0.125047
  21 H :    0.024855
  22 C :    0.068192
  23 H :    0.015263
  24 H :    0.047031
  25 C :   -0.083663
  26 H :    0.023160
  27 H :    0.023611
  28 C :   -0.021638
  29 H :    0.027631
  30 H :    0.032774
  31 H :    0.044684
  32 H :    0.063898
  33 H :    0.067723
Sum of atomic charges:    0.0000000

LOEWDIN ATOMIC CHARGES
----------------------
   0 S :    0.394067
   1 C :   -0.198067
   2 C :   -0.076512
   3 C :   -0.054035
   4 C :   -0.179280
   5 H :    0.034326
   6 C :   -0.038475
   7 H :    0.032971
   8 H :    0.034576
   9 C :   -0.037539
  10 H :    0.025505
  11 H :    0.015060
  12 C :   -0.068146
  13 H :    0.027234
  14 H :    0.021499
  15 H :    0.030815
  16 S :    0.411596
  17 C :   -0.190100
  18 C :   -0.083522
  19 C :   -0.045029
  20 C :   -0.216655
  21 H :    0.031935
  22 C :   -0.037318
  23 H :    0.029723
  24 H :    0.042174
  25 C :   -0.042230
  26 H :    0.019899
  27 H :    0.020507
  28 C :   -0.056216
  29 H :    0.019016
  30 H :    0.026484
  31 H :    0.037840
  32 H :    0.035206
  33 H :    0.032693

  Mayer bond orders larger than 0.100000
B(  0-S ,  1-C ) :   1.1515 B(  0-S ,  4-C ) :   1.1428 B(  1-C ,  2-C ) :   1.6092
B(  1-C , 32-H ) :   0.9621 B(  2-C ,  3-C ) :   1.2313 B(  2-C ,  6-C ) :   1.0450
B(  3-C ,  4-C ) :   1.5880 B(  3-C ,  5-H ) :   0.9859 B(  4-C , 20-C ) :   1.0168
B(  6-C ,  7-H ) :   0.9327 B(  6-C ,  8-H ) :   0.9341 B(  6-C ,  9-C ) :   1.0695
B(  9-C , 10-H ) :   0.9521 B(  9-C , 11-H ) :   0.9546 B(  9-C , 12-C ) :   1.0754
B( 12-C , 13-H ) :   0.9740 B( 12-C , 14-H ) :   0.9730 B( 12-C , 15-H ) :   0.9752
B( 16-S , 17-C ) :   1.1731 B( 16-S , 20-C ) :   1.1463 B( 17-C , 18-C ) :   1.5896
B( 17-C , 33-H ) :   0.9680 B( 18-C , 19-C ) :   1.2307 B( 18-C , 21-H ) :   0.9910
B( 19-C , 20-C ) :   1.5878 B( 19-C , 22-C ) :   1.0345 B( 22-C , 23-H ) :   0.9254
B( 22-C , 24-H ) :   0.9304 B( 22-C , 25-C ) :   1.0723 B( 25-C , 26-H ) :   0.9479
B( 25-C , 27-H ) :   0.9586 B( 25-C , 28-C ) :   1.0827 B( 28-C , 29-H ) :   0.9732
B( 28-C , 30-H ) :   0.9765 B( 28-C , 31-H ) :   0.9755

Dispersion correction           -0.013725005
FINAL SINGLE POINT ENERGY     -1339.884875650178

DIPOLE MOMENT
-------------
                                X             Y             Z
Electronic contribution:     -7.86526      15.91726      26.61645
Nuclear contribution   :      8.10046     -16.50332     -27.09442
                        -----------------------------------------
Total Dipole Moment    :      0.23519      -0.58606      -0.47797
                        -----------------------------------------
Magnitude (a.u.)       :      0.79198
Magnitude (Debye)      :      2.01306

Rotational constants in cm-1:     0.016622     0.008756     0.006250
Rotational constants in MHz :   498.323473   262.496818   187.366358

                             ****ORCA TERMINATED NORMALLY****
TOTAL RUN TIME: 0 days 0 hours 0 minutes 33 seconds 502 msec
