                         Program Version 4.2.1 -  RELEASE  -
|  1> ! wB97X-D3 SP def2-SVP
|  2> %pal
|  3> nprocs 16
|  4> end
|  5>
|  6> * xyz 0 1
|  7> S 	 -34.5011 	 60.6198 	 113.502
|  8> C 	 -36.0933 	 61.1952 	 113.978
|  9> C 	 -36.6138 	 60.322 	 114.946
| 10> C 	 -35.7488 	 59.2042 	 115.238
| 11> C 	 -34.5289 	 59.3148 	 114.604
| 12> H 	 -36.055 	 58.3367 	 115.736
| 13> C 	 -37.9869 	 60.5196 	 115.495
| 14> H 	 -38.6764 	 60.7492 	 114.673
| 15> H 	 -38.0166 	 61.4043 	 116.111
| 16> C 	 -38.5654 	 59.3582 	 116.317
| 17> H 	 -38.5571 	 58.3595 	 115.844
| 18> H 	 -37.9455 	 59.062 	 117.141
| 19> C 	 -40.0079 	 59.5959 	 116.73
| 20> H 	 -40.6205 	 59.7426 	 115.902
| 21> H 	 -40.3467 	 58.6554 	 117.201
| 22> H 	 -40.0887 	 60.3737 	 117.467
| 23> S 	 -32.672 	 57.5004 	 113.609
| 24> C 	 -31.6627 	 56.4996 	 114.673
| 25> C 	 -32.0495 	 56.7759 	 115.981
| 26> C 	 -32.956 	 57.8894 	 116.109
| 27> C 	 -33.3894 	 58.4423 	 114.897
| 28> H 	 -31.5708 	 56.2436 	 116.808
| 29> C 	 -33.413 	 58.357 	 117.483
| 30> H 	 -32.9792 	 57.7044 	 118.245
| 31> H 	 -34.5135 	 58.1938 	 117.632
| 32> C 	 -32.9134 	 59.7344 	 117.875
| 33> H 	 -33.5563 	 60.4718 	 117.402
| 34> H 	 -31.8766 	 59.8514 	 117.591
| 35> C 	 -32.9832 	 60.0142 	 119.359
| 36> H 	 -32.2315 	 59.2987 	 119.812
| 37> H 	 -34.0111 	 59.9357 	 119.789
| 38> H 	 -32.7179 	 61.0795 	 119.461
| 39> H 	 -36.5791 	 62.1599 	 113.71
| 40> H 	 -30.8913 	 55.701 	 114.395
| 41> *
| 42>
| 43>                          ****END OF INPUT****

CARTESIAN COORDINATES (ANGSTROEM)
---------------------------------
  S    -34.501100   60.619800  113.502000
  C    -36.093300   61.195200  113.978000
  C    -36.613800   60.322000  114.946000
  C    -35.748800   59.204200  115.238000
  C    -34.528900   59.314800  114.604000
  H    -36.055000   58.336700  115.736000
  C    -37.986900   60.519600  115.495000
  H    -38.676400   60.749200  114.673000
  H    -38.016600   61.404300  116.111000
  C    -38.565400   59.358200  116.317000
  H    -38.557100   58.359500  115.844000
  H    -37.945500   59.062000  117.141000
  C    -40.007900   59.595900  116.730000
  H    -40.620500   59.742600  115.902000
  H    -40.346700   58.655400  117.201000
  H    -40.088700   60.373700  117.467000
  S    -32.672000   57.500400  113.609000
  C    -31.662700   56.499600  114.673000
  C    -32.049500   56.775900  115.981000
  C    -32.956000   57.889400  116.109000
  C    -33.389400   58.442300  114.897000
  H    -31.570800   56.243600  116.808000
  C    -33.413000   58.357000  117.483000
  H    -32.979200   57.704400  118.245000
  H    -34.513500   58.193800  117.632000
  C    -32.913400   59.734400  117.875000
  H    -33.556300   60.471800  117.402000
  H    -31.876600   59.851400  117.591000
  C    -32.983200   60.014200  119.359000
  H    -32.231500   59.298700  119.812000
  H    -34.011100   59.935700  119.789000
  H    -32.717900   61.079500  119.461000
  H    -36.579100   62.159900  113.710000
  H    -30.891300   55.701000  114.395000

 Total Charge           Charge          ....    0
 Multiplicity           Mult            ....    1
 Number of Electrons    NEL             ....  134
 Basis Dimension        Dim             ....  322

ORBITAL ENERGIES
----------------

  NO   OCC          E(Eh)            E(eV)
   0   2.0000     -88.969074     -2420.9716
   1   2.0000     -88.963357     -2420.8160
   2   2.0000     -10.329797      -281.0881
   3   2.0000     -10.329060      -281.0680
   4   2.0000     -10.327936      -281.0374
   5   2.0000     -10.317852      -280.7630
   6   2.0000     -10.305782      -280.4346
   7   2.0000     -10.303154      -280.3631
   8   2.0000     -10.297684      -280.2142
   9   2.0000     -10.291715      -280.0518
  10   2.0000     -10.291433      -280.0441
  11   2.0000     -10.288899      -279.9752
  12   2.0000     -10.285502      -279.8827
  13   2.0000     -10.281245      -279.7669
  14   2.0000     -10.275565      -279.6123
  15   2.0000     -10.274151      -279.5739
  16   2.0000      -8.084017      -219.9773
  17   2.0000      -8.077679      -219.8048
  18   2.0000      -6.042477      -164.4242
  19   2.0000      -6.038272      -164.3097
  20   2.0000      -6.036271      -164.2553
  21   2.0000      -6.035042      -164.2218
  22   2.0000      -6.032055      -164.1405
  23   2.0000      -6.028532      -164.0447
  24   2.0000      -1.007318       -27.4105
  25   2.0000      -0.982402       -26.7325
  26   2.0000      -0.916196       -24.9309
  27   2.0000      -0.909483       -24.7483
  28   2.0000      -0.871144       -23.7050
  29   2.0000      -0.852329       -23.1931
  30   2.0000      -0.844679       -22.9849
  31   2.0000      -0.817101       -22.2344
  32   2.0000      -0.780152       -21.2290
  33   2.0000      -0.766502       -20.8576
  34   2.0000      -0.715694       -19.4750
  35   2.0000      -0.693803       -18.8793
  36   2.0000      -0.680865       -18.5273
  37   2.0000      -0.658013       -17.9055
  38   2.0000      -0.640580       -17.4311
  39   2.0000      -0.623774       -16.9738
  40   2.0000      -0.590632       -16.0719
  41   2.0000      -0.572456       -15.5773
  42   2.0000      -0.570134       -15.5141
  43   2.0000      -0.568896       -15.4804
  44   2.0000      -0.529182       -14.3998
  45   2.0000      -0.522117       -14.2075
  46   2.0000      -0.516767       -14.0619
  47   2.0000      -0.509251       -13.8574
  48   2.0000      -0.506869       -13.7926
  49   2.0000      -0.502989       -13.6870
  50   2.0000      -0.495640       -13.4871
  51   2.0000      -0.486604       -13.2412
  52   2.0000      -0.475680       -12.9439
  53   2.0000      -0.465137       -12.6570
  54   2.0000      -0.456165       -12.4129
  55   2.0000      -0.453578       -12.3425
  56   2.0000      -0.440563       -11.9883
  57   2.0000      -0.434279       -11.8173
  58   2.0000      -0.428892       -11.6707
  59   2.0000      -0.421370       -11.4661
  60   2.0000      -0.415072       -11.2947
  61   2.0000      -0.414073       -11.2675
  62   2.0000      -0.406438       -11.0597
  63   2.0000      -0.345399        -9.3988
  64   2.0000      -0.330056        -8.9813
  65   2.0000      -0.325384        -8.8542
  66   2.0000      -0.293972        -7.9994
  67   0.0000       0.024569         0.6686
  68   0.0000       0.068281         1.8580
  69   0.0000       0.111727         3.0402
  70   0.0000       0.124508         3.3880
  71   0.0000       0.135675         3.6919

MULLIKEN ATOMIC CHARGES
-----------------------
   0 S :    0.126334
   1 C :   -0.139155
   2 C :   -0.098465
   3 C :    0.028200
   4 C :   -0.132868
   5 H :    0.007236
   6 C :    0.077178
   7 H :    0.032193
   8 H :    0.031585
   9 C :   -0.122858
  10 H :    0.023934
  11 H :    0.016416
  12 C :    0.001504
  13 H :    0.022027
  14 H :    0.026474
  15 H :    0.029402
  16 S :    0.089913
  17 C :   -0.122905
  18 C :   -0.033268
  19 C :   -0.077968
  20 C :   -0.105302
  21 H :    0.027633
  22 C :    0.066375
  23 H :   -0.007096
  24 H :    0.032390
  25 C :   -0.061408
  26 H :    0.032895
  27 H :    0.031027
  28 C :   -0.075837
  29 H :    0.042160
  30 H :    0.036475
  31 H :    0.039307
  32 H :    0.065468
  33 H :    0.091003
Sum of atomic charges:    0.0000000

LOEWDIN ATOMIC CHARGES
----------------------
   0 S :    0.431168
   1 C :   -0.211460
   2 C :   -0.057809
   3 C :   -0.057989
   4 C :   -0.207234
   5 H :    0.024026
   6 C :   -0.035960
   7 H :    0.035531
   8 H :    0.033771
   9 C :   -0.050442
  10 H :    0.025791
  11 H :    0.018530
  12 C :   -0.052341
  13 H :    0.016826
  14 H :    0.032100
  15 H :    0.021502
  16 S :    0.398445
  17 C :   -0.194264
  18 C :   -0.078123
  19 C :   -0.057891
  20 C :   -0.201404
  21 H :    0.033497
  22 C :   -0.039224
  23 H :    0.023377
  24 H :    0.032296
  25 C :   -0.042010
  26 H :    0.023842
  27 H :    0.026707
  28 C :   -0.070687
  29 H :    0.029355
  30 H :    0.026248
  31 H :    0.030158
  32 H :    0.040521
  33 H :    0.053145

  Mayer bond orders larger than 0.100000
B(  0-S ,  1-C ) :   1.1387 B(  0-S ,  4-C ) :   1.1796 B(  1-C ,  2-C ) :   1.5910
B(  1-C , 32-H ) :   0.9697 B(  2-C ,  3-C ) :   1.2694 B(  2-C ,  6-C ) :   1.0161
B(  3-C ,  4-C ) :   1.5280 B(  3-C ,  5-H ) :   0.9991 B(  4-C , 20-C ) :   1.0171
B(  6-C ,  7-H ) :   0.9434 B(  6-C ,  8-H ) :   0.9286 B(  6-C ,  9-C ) :   1.0782
B(  9-C , 10-H ) :   0.9527 B(  9-C , 11-H ) :   0.9447 B(  9-C , 12-C ) :   1.0908
B( 12-C , 13-H ) :   0.9744 B( 12-C , 14-H ) :   0.9704 B( 12-C , 15-H ) :   0.9758
B( 16-S , 17-C ) :   1.1614 B( 16-S , 20-C ) :   1.1407 B( 17-C , 18-C ) :   1.5829
B( 17-C , 20-C ) :   0.1027 B( 17-C , 33-H ) :   0.9580 B( 18-C , 19-C ) :   1.2788
B( 18-C , 21-H ) :   0.9841 B( 19-C , 20-C ) :   1.5663 B( 19-C , 22-C ) :   1.0479
B( 22-C , 23-H ) :   0.9316 B( 22-C , 24-H ) :   0.9273 B( 22-C , 25-C ) :   1.0690
B( 25-C , 26-H ) :   0.9486 B( 25-C , 27-H ) :   0.9547 B( 25-C , 28-C ) :   1.0958
B( 28-C , 29-H ) :   0.9734 B( 28-C , 30-H ) :   0.9726 B( 28-C , 31-H ) :   0.9734

Dispersion correction           -0.014154276
FINAL SINGLE POINT ENERGY     -1339.874646749323

DIPOLE MOMENT
-------------
                                X             Y             Z
Electronic contribution:     16.41970      -3.45257     -25.04147
Nuclear contribution   :    -16.82898       3.38408      25.65730
                        -----------------------------------------
Total Dipole Moment    :     -0.40928      -0.06850       0.61584
                        -----------------------------------------
Magnitude (a.u.)       :      0.74260
Magnitude (Debye)      :      1.88754

Rotational constants in cm-1:     0.016865     0.008833     0.007237
Rotational constants in MHz :   505.611934   264.813248   216.945619

                             ****ORCA TERMINATED NORMALLY****
TOTAL RUN TIME: 0 days 0 hours 0 minutes 28 seconds 529 msec
