                         Program Version 4.2.1 -  RELEASE  -
|  1> ! wB97X-D3 SP def2-SVP
|  2> %pal
|  3> nprocs 16
|  4> end
|  5>
|  6> * xyz 0 1
|  7> S 	 58.1745 	 16.9403 	 55.9731
|  8> C 	 57.0197 	 18.135 	 56.3643
|  9> C 	 55.9948 	 18.1419 	 55.4003
| 10> C 	 55.9889 	 16.9647 	 54.6093
| 11> C 	 57.0857 	 16.1351 	 54.8738
| 12> H 	 55.2461 	 16.7195 	 53.9007
| 13> C 	 54.8898 	 19.1009 	 55.3921
| 14> H 	 54.401 	 19.0696 	 54.4373
| 15> H 	 55.1938 	 20.1334 	 55.5435
| 16> C 	 53.7382 	 18.8096 	 56.3528
| 17> H 	 53.2746 	 17.8232 	 56.2501
| 18> H 	 54.1985 	 18.7267 	 57.3915
| 19> C 	 52.5923 	 19.8412 	 56.4832
| 20> H 	 51.9654 	 19.6675 	 57.3919
| 21> H 	 52.9601 	 20.8337 	 56.5333
| 22> H 	 52.1385 	 19.7228 	 55.4686
| 23> S 	 57.4615 	 13.4437 	 55.4314
| 24> C 	 57.3906 	 12.306 	 54.1586
| 25> C 	 57.0849 	 12.9015 	 52.9149
| 26> C 	 57.0669 	 14.3067 	 53.0432
| 27> C 	 57.2262 	 14.7607 	 54.3243
| 28> H 	 57.008 	 12.3839 	 51.9336
| 29> C 	 56.8805 	 15.1232 	 51.7485
| 30> H 	 57.6793 	 14.9155 	 51.0137
| 31> H 	 57.0488 	 16.1666 	 51.9104
| 32> C 	 55.4714 	 15.0271 	 51.238
| 33> H 	 54.7806 	 15.4383 	 51.9735
| 34> H 	 55.2835 	 13.9564 	 50.9695
| 35> C 	 55.3155 	 15.8359 	 49.9311
| 36> H 	 55.9135 	 15.5169 	 49.05
| 37> H 	 55.4058 	 16.9164 	 49.9416
| 38> H 	 54.2516 	 15.7224 	 49.6769
| 39> H 	 57.0962 	 18.8776 	 57.1866
| 40> H 	 57.4828 	 11.2522 	 54.2786
| 41> *
| 42>
| 43>                          ****END OF INPUT****

CARTESIAN COORDINATES (ANGSTROEM)
---------------------------------
  S     58.174500   16.940300   55.973100
  C     57.019700   18.135000   56.364300
  C     55.994800   18.141900   55.400300
  C     55.988900   16.964700   54.609300
  C     57.085700   16.135100   54.873800
  H     55.246100   16.719500   53.900700
  C     54.889800   19.100900   55.392100
  H     54.401000   19.069600   54.437300
  H     55.193800   20.133400   55.543500
  C     53.738200   18.809600   56.352800
  H     53.274600   17.823200   56.250100
  H     54.198500   18.726700   57.391500
  C     52.592300   19.841200   56.483200
  H     51.965400   19.667500   57.391900
  H     52.960100   20.833700   56.533300
  H     52.138500   19.722800   55.468600
  S     57.461500   13.443700   55.431400
  C     57.390600   12.306000   54.158600
  C     57.084900   12.901500   52.914900
  C     57.066900   14.306700   53.043200
  C     57.226200   14.760700   54.324300
  H     57.008000   12.383900   51.933600
  C     56.880500   15.123200   51.748500
  H     57.679300   14.915500   51.013700
  H     57.048800   16.166600   51.910400
  C     55.471400   15.027100   51.238000
  H     54.780600   15.438300   51.973500
  H     55.283500   13.956400   50.969500
  C     55.315500   15.835900   49.931100
  H     55.913500   15.516900   49.050000
  H     55.405800   16.916400   49.941600
  H     54.251600   15.722400   49.676900
  H     57.096200   18.877600   57.186600
  H     57.482800   11.252200   54.278600

 Total Charge           Charge          ....    0
 Multiplicity           Mult            ....    1
 Number of Electrons    NEL             ....  134
 Basis Dimension        Dim             ....  322

ORBITAL ENERGIES
----------------

  NO   OCC          E(Eh)            E(eV)
   0   2.0000     -88.968347     -2420.9518
   1   2.0000     -88.967520     -2420.9293
   2   2.0000     -10.330167      -281.0981
   3   2.0000     -10.323897      -280.9275
   4   2.0000     -10.316599      -280.7289
   5   2.0000     -10.315122      -280.6887
   6   2.0000     -10.298342      -280.2321
   7   2.0000     -10.297556      -280.2107
   8   2.0000     -10.295932      -280.1666
   9   2.0000     -10.292555      -280.0747
  10   2.0000     -10.291871      -280.0561
  11   2.0000     -10.287339      -279.9327
  12   2.0000     -10.286733      -279.9162
  13   2.0000     -10.285976      -279.8956
  14   2.0000     -10.282374      -279.7976
  15   2.0000     -10.280082      -279.7353
  16   2.0000      -8.083588      -219.9656
  17   2.0000      -8.083104      -219.9524
  18   2.0000      -6.041962      -164.4101
  19   2.0000      -6.041462      -164.3965
  20   2.0000      -6.037994      -164.3022
  21   2.0000      -6.037385      -164.2856
  22   2.0000      -6.034500      -164.2071
  23   2.0000      -6.034090      -164.1959
  24   2.0000      -1.010084       -27.4858
  25   2.0000      -0.990939       -26.9648
  26   2.0000      -0.914947       -24.8970
  27   2.0000      -0.913580       -24.8598
  28   2.0000      -0.864354       -23.5203
  29   2.0000      -0.854482       -23.2516
  30   2.0000      -0.850161       -23.1341
  31   2.0000      -0.811208       -22.0741
  32   2.0000      -0.782724       -21.2990
  33   2.0000      -0.770999       -20.9799
  34   2.0000      -0.699424       -19.0323
  35   2.0000      -0.695135       -18.9156
  36   2.0000      -0.693633       -18.8747
  37   2.0000      -0.665797       -18.1173
  38   2.0000      -0.642611       -17.4863
  39   2.0000      -0.622421       -16.9369
  40   2.0000      -0.601748       -16.3744
  41   2.0000      -0.575083       -15.6488
  42   2.0000      -0.568224       -15.4622
  43   2.0000      -0.555826       -15.1248
  44   2.0000      -0.527559       -14.3556
  45   2.0000      -0.526678       -14.3316
  46   2.0000      -0.517501       -14.0819
  47   2.0000      -0.509943       -13.8763
  48   2.0000      -0.506926       -13.7942
  49   2.0000      -0.498003       -13.5513
  50   2.0000      -0.491918       -13.3858
  51   2.0000      -0.480302       -13.0697
  52   2.0000      -0.473575       -12.8866
  53   2.0000      -0.467489       -12.7210
  54   2.0000      -0.464121       -12.6294
  55   2.0000      -0.448276       -12.1982
  56   2.0000      -0.443218       -12.0606
  57   2.0000      -0.441671       -12.0185
  58   2.0000      -0.434340       -11.8190
  59   2.0000      -0.430635       -11.7182
  60   2.0000      -0.421121       -11.4593
  61   2.0000      -0.411653       -11.2017
  62   2.0000      -0.399317       -10.8660
  63   2.0000      -0.342830        -9.3289
  64   2.0000      -0.334090        -9.0911
  65   2.0000      -0.327070        -8.9000
  66   2.0000      -0.291288        -7.9264
  67   0.0000       0.028883         0.7859
  68   0.0000       0.071737         1.9521
  69   0.0000       0.109266         2.9733
  70   0.0000       0.125453         3.4138
  71   0.0000       0.131679         3.5832

MULLIKEN ATOMIC CHARGES
-----------------------
   0 S :    0.135159
   1 C :   -0.144129
   2 C :   -0.066891
   3 C :    0.048519
   4 C :   -0.151069
   5 H :   -0.019563
   6 C :    0.095061
   7 H :    0.004449
   8 H :    0.021387
   9 C :   -0.127513
  10 H :    0.029027
  11 H :    0.014440
  12 C :   -0.033847
  13 H :    0.056770
  14 H :    0.018277
  15 H :    0.033307
  16 S :    0.130414
  17 C :   -0.084039
  18 C :   -0.050783
  19 C :   -0.030966
  20 C :   -0.161986
  21 H :    0.037135
  22 C :    0.066012
  23 H :    0.034531
  24 H :    0.003131
  25 C :   -0.080180
  26 H :    0.040756
  27 H :    0.037911
  28 C :   -0.062772
  29 H :    0.037498
  30 H :    0.027800
  31 H :    0.027050
  32 H :    0.065901
  33 H :    0.049206
Sum of atomic charges:    0.0000000

LOEWDIN ATOMIC CHARGES
----------------------
   0 S :    0.431067
   1 C :   -0.215035
   2 C :   -0.064308
   3 C :   -0.052001
   4 C :   -0.197767
   5 H :    0.022324
   6 C :   -0.037239
   7 H :    0.026629
   8 H :    0.030989
   9 C :   -0.047954
  10 H :    0.022564
  11 H :    0.018884
  12 C :   -0.067723
  13 H :    0.037941
  14 H :    0.015156
  15 H :    0.030425
  16 S :    0.438642
  17 C :   -0.191522
  18 C :   -0.074808
  19 C :   -0.057318
  20 C :   -0.211532
  21 H :    0.038562
  22 C :   -0.036584
  23 H :    0.034420
  24 H :    0.022394
  25 C :   -0.034644
  26 H :    0.026787
  27 H :    0.029051
  28 C :   -0.075738
  29 H :    0.028369
  30 H :    0.021823
  31 H :    0.028072
  32 H :    0.037337
  33 H :    0.022738

  Mayer bond orders larger than 0.100000
B(  0-S ,  1-C ) :   1.1625 B(  0-S ,  4-C ) :   1.1730 B(  1-C ,  2-C ) :   1.5442
B(  1-C , 32-H ) :   0.9678 B(  2-C ,  3-C ) :   1.2746 B(  2-C ,  6-C ) :   1.0653
B(  3-C ,  4-C ) :   1.5234 B(  3-C ,  5-H ) :   1.0030 B(  4-C , 20-C ) :   1.0242
B(  6-C ,  7-H ) :   0.9285 B(  6-C ,  8-H ) :   0.9317 B(  6-C ,  9-C ) :   1.0571
B(  9-C , 10-H ) :   0.9581 B(  9-C , 11-H ) :   0.9548 B(  9-C , 12-C ) :   1.0705
B( 12-C , 13-H ) :   0.9730 B( 12-C , 14-H ) :   0.9750 B( 12-C , 15-H ) :   0.9767
B( 16-S , 17-C ) :   1.1894 B( 16-S , 20-C ) :   1.1455 B( 17-C , 18-C ) :   1.5608
B( 17-C , 33-H ) :   0.9720 B( 18-C , 19-C ) :   1.2748 B( 18-C , 21-H ) :   0.9818
B( 19-C , 20-C ) :   1.6010 B( 19-C , 22-C ) :   1.0337 B( 22-C , 23-H ) :   0.9411
B( 22-C , 24-H ) :   0.9290 B( 22-C , 25-C ) :   1.0681 B( 25-C , 26-H ) :   0.9492
B( 25-C , 27-H ) :   0.9540 B( 25-C , 28-C ) :   1.0822 B( 28-C , 29-H ) :   0.9746
B( 28-C , 30-H ) :   0.9745 B( 28-C , 31-H ) :   0.9735

Dispersion correction           -0.014017483
FINAL SINGLE POINT ENERGY     -1339.873793422644

DIPOLE MOMENT
-------------
                                X             Y             Z
Electronic contribution:     21.82201     -14.40545      13.95518
Nuclear contribution   :    -22.24560      14.58254     -14.32984
                        -----------------------------------------
Total Dipole Moment    :     -0.42360       0.17708      -0.37466
                        -----------------------------------------
Magnitude (a.u.)       :      0.59259
Magnitude (Debye)      :      1.50625

Rotational constants in cm-1:     0.016896     0.008594     0.006639
Rotational constants in MHz :   506.519747   257.640098   199.025898

                             ****ORCA TERMINATED NORMALLY****
TOTAL RUN TIME: 0 days 0 hours 0 minutes 30 seconds 11 msec
