                         Program Version 4.2.1 -  RELEASE  -
|  1> ! wB97X-D3 SP def2-SVP
|  2> %pal
|  3> nprocs 16
|  4> end
|  5>
|  6> * xyz 0 1
|  7> S 	 -25.7246 	 -3.89357 	 98.1052
|  8> C 	 -25.0983 	 -5.01383 	 99.2614
|  9> C 	 -25.7016 	 -4.95769 	 100.511
| 10> C 	 -26.662 	 -3.86871 	 100.54
| 11> C 	 -26.8002 	 -3.21818 	 99.2921
| 12> H 	 -27.1625 	 -3.43836 	 101.443
| 13> C 	 -25.3568 	 -5.89787 	 101.642
| 14> H 	 -25.9614 	 -5.60638 	 102.514
| 15> H 	 -24.308 	 -5.74822 	 101.78
| 16> C 	 -25.6369 	 -7.42745 	 101.454
| 17> H 	 -25.1287 	 -7.74259 	 100.55
| 18> H 	 -25.218 	 -7.97456 	 102.276
| 19> C 	 -27.1454 	 -7.69664 	 101.322
| 20> H 	 -27.7335 	 -7.18034 	 102.129
| 21> H 	 -27.3714 	 -7.37028 	 100.321
| 22> H 	 -27.4981 	 -8.6569 	 101.43
| 23> S 	 -26.4393 	 -0.622604 	 98.7696
| 24> C 	 -27.7567 	 0.521465 	 98.8057
| 25> C 	 -28.9603 	 -0.160531 	 98.8085
| 26> C 	 -28.7754 	 -1.59825 	 98.9037
| 27> C 	 -27.4601 	 -1.93421 	 98.9893
| 28> H 	 -29.8571 	 0.40119 	 98.7004
| 29> C 	 -29.8995 	 -2.58753 	 98.8158
| 30> H 	 -29.5259 	 -3.45119 	 98.2757
| 31> H 	 -30.7316 	 -2.09055 	 98.2853
| 32> C 	 -30.4457 	 -2.79476 	 100.226
| 33> H 	 -30.8165 	 -1.86509 	 100.656
| 34> H 	 -29.7054 	 -2.98192 	 100.968
| 35> C 	 -31.5856 	 -3.82353 	 100.427
| 36> H 	 -31.4738 	 -4.75207 	 99.9506
| 37> H 	 -32.5126 	 -3.40642 	 99.9263
| 38> H 	 -31.9192 	 -4.05568 	 101.463
| 39> H 	 -24.3406 	 -5.777 	 99.1736
| 40> H 	 -27.7253 	 1.5908 	 98.6816
| 41> *
| 42>
| 43>                          ****END OF INPUT****

CARTESIAN COORDINATES (ANGSTROEM)
---------------------------------
  S    -25.724600   -3.893570   98.105200
  C    -25.098300   -5.013830   99.261400
  C    -25.701600   -4.957690  100.511000
  C    -26.662000   -3.868710  100.540000
  C    -26.800200   -3.218180   99.292100
  H    -27.162500   -3.438360  101.443000
  C    -25.356800   -5.897870  101.642000
  H    -25.961400   -5.606380  102.514000
  H    -24.308000   -5.748220  101.780000
  C    -25.636900   -7.427450  101.454000
  H    -25.128700   -7.742590  100.550000
  H    -25.218000   -7.974560  102.276000
  C    -27.145400   -7.696640  101.322000
  H    -27.733500   -7.180340  102.129000
  H    -27.371400   -7.370280  100.321000
  H    -27.498100   -8.656900  101.430000
  S    -26.439300   -0.622604   98.769600
  C    -27.756700    0.521465   98.805700
  C    -28.960300   -0.160531   98.808500
  C    -28.775400   -1.598250   98.903700
  C    -27.460100   -1.934210   98.989300
  H    -29.857100    0.401190   98.700400
  C    -29.899500   -2.587530   98.815800
  H    -29.525900   -3.451190   98.275700
  H    -30.731600   -2.090550   98.285300
  C    -30.445700   -2.794760  100.226000
  H    -30.816500   -1.865090  100.656000
  H    -29.705400   -2.981920  100.968000
  C    -31.585600   -3.823530  100.427000
  H    -31.473800   -4.752070   99.950600
  H    -32.512600   -3.406420   99.926300
  H    -31.919200   -4.055680  101.463000
  H    -24.340600   -5.777000   99.173600
  H    -27.725300    1.590800   98.681600

 Total Charge           Charge          ....    0
 Multiplicity           Mult            ....    1
 Number of Electrons    NEL             ....  134
 Basis Dimension        Dim             ....  322

ORBITAL ENERGIES
----------------

  NO   OCC          E(Eh)            E(eV)
   0   2.0000     -88.971532     -2421.0385
   1   2.0000     -88.961625     -2420.7689
   2   2.0000     -10.330946      -281.1193
   3   2.0000     -10.316254      -280.7195
   4   2.0000     -10.314009      -280.6585
   5   2.0000     -10.310703      -280.5685
   6   2.0000     -10.304052      -280.3875
   7   2.0000     -10.302904      -280.3563
   8   2.0000     -10.298137      -280.2265
   9   2.0000     -10.293746      -280.1071
  10   2.0000     -10.292360      -280.0694
  11   2.0000     -10.291206      -280.0380
  12   2.0000     -10.288524      -279.9650
  13   2.0000     -10.281304      -279.7685
  14   2.0000     -10.275815      -279.6191
  15   2.0000     -10.271411      -279.4993
  16   2.0000      -8.086285      -220.0390
  17   2.0000      -8.077934      -219.8118
  18   2.0000      -6.044687      -164.4843
  19   2.0000      -6.040712      -164.3761
  20   2.0000      -6.037243      -164.2817
  21   2.0000      -6.036460      -164.2604
  22   2.0000      -6.032101      -164.1418
  23   2.0000      -6.028680      -164.0487
  24   2.0000      -1.013426       -27.5767
  25   2.0000      -0.986682       -26.8490
  26   2.0000      -0.912353       -24.8264
  27   2.0000      -0.909625       -24.7522
  28   2.0000      -0.868627       -23.6365
  29   2.0000      -0.847491       -23.0614
  30   2.0000      -0.845405       -23.0046
  31   2.0000      -0.815594       -22.1934
  32   2.0000      -0.783066       -21.3083
  33   2.0000      -0.771403       -20.9909
  34   2.0000      -0.707274       -19.2459
  35   2.0000      -0.705079       -19.1862
  36   2.0000      -0.696247       -18.9458
  37   2.0000      -0.666426       -18.1344
  38   2.0000      -0.634160       -17.2564
  39   2.0000      -0.610000       -16.5989
  40   2.0000      -0.590450       -16.0670
  41   2.0000      -0.578999       -15.7554
  42   2.0000      -0.560120       -15.2416
  43   2.0000      -0.559528       -15.2255
  44   2.0000      -0.545886       -14.8543
  45   2.0000      -0.527013       -14.3407
  46   2.0000      -0.516327       -14.0500
  47   2.0000      -0.508537       -13.8380
  48   2.0000      -0.499701       -13.5975
  49   2.0000      -0.490371       -13.3437
  50   2.0000      -0.485511       -13.2114
  51   2.0000      -0.482728       -13.1357
  52   2.0000      -0.467967       -12.7340
  53   2.0000      -0.465892       -12.6776
  54   2.0000      -0.462719       -12.5912
  55   2.0000      -0.450515       -12.2591
  56   2.0000      -0.442189       -12.0326
  57   2.0000      -0.441833       -12.0229
  58   2.0000      -0.434707       -11.8290
  59   2.0000      -0.425081       -11.5670
  60   2.0000      -0.424098       -11.5403
  61   2.0000      -0.419853       -11.4248
  62   2.0000      -0.405673       -11.0389
  63   2.0000      -0.342378        -9.3166
  64   2.0000      -0.327620        -8.9150
  65   2.0000      -0.321922        -8.7599
  66   2.0000      -0.302432        -8.2296
  67   0.0000       0.041147         1.1197
  68   0.0000       0.062997         1.7142
  69   0.0000       0.115316         3.1379
  70   0.0000       0.122559         3.3350
  71   0.0000       0.126005         3.4288

MULLIKEN ATOMIC CHARGES
-----------------------
   0 S :    0.133276
   1 C :   -0.099943
   2 C :   -0.132295
   3 C :    0.048146
   4 C :   -0.193054
   5 H :    0.039365
   6 C :    0.064678
   7 H :    0.022419
   8 H :    0.038205
   9 C :   -0.056919
  10 H :    0.021431
  11 H :    0.028623
  12 C :   -0.034224
  13 H :    0.026369
  14 H :    0.040896
  15 H :    0.014000
  16 S :    0.125519
  17 C :   -0.093349
  18 C :   -0.030465
  19 C :   -0.064962
  20 C :   -0.172305
  21 H :    0.008366
  22 C :    0.137436
  23 H :    0.040701
  24 H :    0.021492
  25 C :   -0.075584
  26 H :    0.013825
  27 H :    0.005752
  28 C :   -0.035374
  29 H :    0.019057
  30 H :    0.018279
  31 H :    0.035570
  32 H :    0.033914
  33 H :    0.051156
Sum of atomic charges:   -0.0000000

LOEWDIN ATOMIC CHARGES
----------------------
   0 S :    0.428626
   1 C :   -0.209683
   2 C :   -0.065648
   3 C :   -0.059910
   4 C :   -0.206725
   5 H :    0.039227
   6 C :   -0.028520
   7 H :    0.031178
   8 H :    0.032673
   9 C :   -0.031230
  10 H :    0.019059
  11 H :    0.020405
  12 C :   -0.061961
  13 H :    0.029956
  14 H :    0.029549
  15 H :    0.012856
  16 S :    0.440070
  17 C :   -0.189550
  18 C :   -0.066995
  19 C :   -0.055957
  20 C :   -0.234382
  21 H :    0.026255
  22 C :   -0.021976
  23 H :    0.033962
  24 H :    0.036326
  25 C :   -0.043566
  26 H :    0.026529
  27 H :    0.015528
  28 C :   -0.072312
  29 H :    0.014513
  30 H :    0.026432
  31 H :    0.030209
  32 H :    0.025615
  33 H :    0.029446

  Mayer bond orders larger than 0.100000
B(  0-S ,  1-C ) :   1.1453 B(  0-S ,  4-C ) :   1.1642 B(  1-C ,  2-C ) :   1.6105
B(  1-C , 32-H ) :   0.9634 B(  2-C ,  3-C ) :   1.2487 B(  2-C ,  6-C ) :   1.0122
B(  3-C ,  4-C ) :   1.5804 B(  3-C ,  5-H ) :   0.9775 B(  4-C , 20-C ) :   0.9851
B(  6-C ,  7-H ) :   0.9447 B(  6-C ,  8-H ) :   0.9367 B(  6-C ,  9-C ) :   1.0762
B(  9-C , 10-H ) :   0.9585 B(  9-C , 11-H ) :   0.9576 B(  9-C , 12-C ) :   1.0654
B( 12-C , 13-H ) :   0.9752 B( 12-C , 14-H ) :   0.9768 B( 12-C , 15-H ) :   0.9764
B( 16-S , 17-C ) :   1.1578 B( 16-S , 20-C ) :   1.1606 B( 17-C , 18-C ) :   1.6156
B( 17-C , 33-H ) :   0.9689 B( 18-C , 19-C ) :   1.2342 B( 18-C , 21-H ) :   0.9941
B( 19-C , 20-C ) :   1.6198 B( 19-C , 22-C ) :   1.0461 B( 22-C , 23-H ) :   0.9342
B( 22-C , 24-H ) :   0.9277 B( 22-C , 25-C ) :   1.0489 B( 25-C , 26-H ) :   0.9518
B( 25-C , 27-H ) :   0.9562 B( 25-C , 28-C ) :   1.0750 B( 28-C , 29-H ) :   0.9770
B( 28-C , 30-H ) :   0.9727 B( 28-C , 31-H ) :   0.9753

Dispersion correction           -0.014508766
FINAL SINGLE POINT ENERGY     -1339.870604921235

DIPOLE MOMENT
-------------
                                X             Y             Z
Electronic contribution:     16.28463      18.90928     -14.70795
Nuclear contribution   :    -16.52570     -19.13612      15.05153
                        -----------------------------------------
Total Dipole Moment    :     -0.24107      -0.22683       0.34358
                        -----------------------------------------
Magnitude (a.u.)       :      0.47709
Magnitude (Debye)      :      1.21268

Rotational constants in cm-1:     0.018605     0.009259     0.006843
Rotational constants in MHz :   557.749601   277.590984   205.145252

                             ****ORCA TERMINATED NORMALLY****
TOTAL RUN TIME: 0 days 0 hours 0 minutes 30 seconds 323 msec
