                         Program Version 4.2.1 -  RELEASE  -
|  1> ! wB97X-D3 SP def2-SVP
|  2> %pal
|  3> nprocs 16
|  4> end
|  5>
|  6> * xyz 0 1
|  7> S 	 -112.379 	 49.47 	 132.193
|  8> C 	 -111.867 	 51.1808 	 132.416
|  9> C 	 -112.882 	 51.9607 	 132.9
| 10> C 	 -114.082 	 51.2407 	 133.07
| 11> C 	 -113.973 	 49.873 	 132.832
| 12> H 	 -115.067 	 51.6273 	 133.407
| 13> C 	 -112.791 	 53.5026 	 133.027
| 14> H 	 -113.574 	 53.8677 	 133.691
| 15> H 	 -112.901 	 53.909 	 132.044
| 16> C 	 -111.47 	 53.9958 	 133.708
| 17> H 	 -111.456 	 53.5611 	 134.706
| 18> H 	 -110.676 	 53.6799 	 133.044
| 19> C 	 -111.358 	 55.5156 	 133.794
| 20> H 	 -111.357 	 55.82 	 134.838
| 21> H 	 -110.505 	 55.8906 	 133.277
| 22> H 	 -112.227 	 55.9013 	 133.316
| 23> S 	 -115.943 	 48.2362 	 131.666
| 24> C 	 -116.991 	 47.1935 	 132.584
| 25> C 	 -116.548 	 47.2863 	 133.9
| 26> C 	 -115.482 	 48.1387 	 134.124
| 27> C 	 -114.99 	 48.8166 	 133.033
| 28> H 	 -117.064 	 46.625 	 134.611
| 29> C 	 -114.796 	 48.1611 	 135.454
| 30> H 	 -113.714 	 48.5429 	 135.305
| 31> H 	 -114.733 	 47.0841 	 135.773
| 32> C 	 -115.553 	 48.9194 	 136.581
| 33> H 	 -116.616 	 48.626 	 136.711
| 34> H 	 -115.604 	 50.014 	 136.294
| 35> C 	 -114.927 	 48.7653 	 137.988
| 36> H 	 -113.874 	 49.1223 	 137.973
| 37> H 	 -114.877 	 47.7154 	 138.288
| 38> H 	 -115.413 	 49.2996 	 138.751
| 39> H 	 -110.875 	 51.5604 	 132.199
| 40> H 	 -117.509 	 46.367 	 132.079
| 41> *
| 42>
| 43>                          ****END OF INPUT****

CARTESIAN COORDINATES (ANGSTROEM)
---------------------------------
  S    -112.379000   49.470000  132.193000
  C    -111.867000   51.180800  132.416000
  C    -112.882000   51.960700  132.900000
  C    -114.082000   51.240700  133.070000
  C    -113.973000   49.873000  132.832000
  H    -115.067000   51.627300  133.407000
  C    -112.791000   53.502600  133.027000
  H    -113.574000   53.867700  133.691000
  H    -112.901000   53.909000  132.044000
  C    -111.470000   53.995800  133.708000
  H    -111.456000   53.561100  134.706000
  H    -110.676000   53.679900  133.044000
  C    -111.358000   55.515600  133.794000
  H    -111.357000   55.820000  134.838000
  H    -110.505000   55.890600  133.277000
  H    -112.227000   55.901300  133.316000
  S    -115.943000   48.236200  131.666000
  C    -116.991000   47.193500  132.584000
  C    -116.548000   47.286300  133.900000
  C    -115.482000   48.138700  134.124000
  C    -114.990000   48.816600  133.033000
  H    -117.064000   46.625000  134.611000
  C    -114.796000   48.161100  135.454000
  H    -113.714000   48.542900  135.305000
  H    -114.733000   47.084100  135.773000
  C    -115.553000   48.919400  136.581000
  H    -116.616000   48.626000  136.711000
  H    -115.604000   50.014000  136.294000
  C    -114.927000   48.765300  137.988000
  H    -113.874000   49.122300  137.973000
  H    -114.877000   47.715400  138.288000
  H    -115.413000   49.299600  138.751000
  H    -110.875000   51.560400  132.199000
  H    -117.509000   46.367000  132.079000

 Total Charge           Charge          ....    0
 Multiplicity           Mult            ....    1
 Number of Electrons    NEL             ....  134
 Basis Dimension        Dim             ....  322

ORBITAL ENERGIES
----------------

  NO   OCC          E(Eh)            E(eV)
   0   2.0000     -88.969694     -2420.9885
   1   2.0000     -88.957124     -2420.6464
   2   2.0000     -10.335768      -281.2505
   3   2.0000     -10.327781      -281.0332
   4   2.0000     -10.319943      -280.8199
   5   2.0000     -10.318615      -280.7838
   6   2.0000     -10.302706      -280.3509
   7   2.0000     -10.300584      -280.2931
   8   2.0000     -10.297829      -280.2182
   9   2.0000     -10.297134      -280.1993
  10   2.0000     -10.295545      -280.1560
  11   2.0000     -10.293209      -280.0925
  12   2.0000     -10.292118      -280.0628
  13   2.0000     -10.286382      -279.9067
  14   2.0000     -10.274480      -279.5828
  15   2.0000     -10.272367      -279.5253
  16   2.0000      -8.083273      -219.9571
  17   2.0000      -8.072294      -219.6583
  18   2.0000      -6.041836      -164.4067
  19   2.0000      -6.037935      -164.3006
  20   2.0000      -6.034049      -164.1948
  21   2.0000      -6.030687      -164.1033
  22   2.0000      -6.026394      -163.9865
  23   2.0000      -6.023463      -163.9067
  24   2.0000      -1.006389       -27.3852
  25   2.0000      -0.985847       -26.8263
  26   2.0000      -0.911541       -24.8043
  27   2.0000      -0.900956       -24.5162
  28   2.0000      -0.869412       -23.6579
  29   2.0000      -0.849033       -23.1034
  30   2.0000      -0.846258       -23.0279
  31   2.0000      -0.814395       -22.1608
  32   2.0000      -0.781167       -21.2566
  33   2.0000      -0.769231       -20.9318
  34   2.0000      -0.707668       -19.2566
  35   2.0000      -0.696681       -18.9577
  36   2.0000      -0.691397       -18.8139
  37   2.0000      -0.659162       -17.9367
  38   2.0000      -0.640888       -17.4394
  39   2.0000      -0.613640       -16.6980
  40   2.0000      -0.593030       -16.1372
  41   2.0000      -0.582226       -15.8432
  42   2.0000      -0.568011       -15.4564
  43   2.0000      -0.552953       -15.0466
  44   2.0000      -0.526383       -14.3236
  45   2.0000      -0.522931       -14.2297
  46   2.0000      -0.519000       -14.1227
  47   2.0000      -0.515984       -14.0406
  48   2.0000      -0.510798       -13.8995
  49   2.0000      -0.503040       -13.6884
  50   2.0000      -0.494190       -13.4476
  51   2.0000      -0.476642       -12.9701
  52   2.0000      -0.467558       -12.7229
  53   2.0000      -0.463588       -12.6149
  54   2.0000      -0.459533       -12.5045
  55   2.0000      -0.444732       -12.1018
  56   2.0000      -0.441875       -12.0240
  57   2.0000      -0.436086       -11.8665
  58   2.0000      -0.430628       -11.7180
  59   2.0000      -0.426594       -11.6082
  60   2.0000      -0.415022       -11.2933
  61   2.0000      -0.413050       -11.2397
  62   2.0000      -0.405772       -11.0416
  63   2.0000      -0.337870        -9.1939
  64   2.0000      -0.328928        -8.9506
  65   2.0000      -0.322294        -8.7701
  66   2.0000      -0.313800        -8.5389
  67   0.0000       0.035741         0.9726
  68   0.0000       0.050907         1.3853
  69   0.0000       0.111222         3.0265
  70   0.0000       0.121515         3.3066
  71   0.0000       0.131918         3.5897

MULLIKEN ATOMIC CHARGES
-----------------------
   0 S :    0.113801
   1 C :   -0.132738
   2 C :   -0.065962
   3 C :    0.047680
   4 C :   -0.188334
   5 H :    0.027468
   6 C :    0.056886
   7 H :    0.024456
   8 H :    0.045849
   9 C :   -0.128643
  10 H :    0.042936
  11 H :    0.028446
  12 C :    0.002072
  13 H :    0.035452
  14 H :    0.030079
  15 H :    0.014804
  16 S :    0.080588
  17 C :   -0.110633
  18 C :   -0.058583
  19 C :    0.023366
  20 C :   -0.166408
  21 H :    0.028922
  22 C :    0.014222
  23 H :    0.051301
  24 H :    0.032545
  25 C :   -0.104404
  26 H :    0.033592
  27 H :    0.034076
  28 C :   -0.030260
  29 H :    0.028186
  30 H :    0.026487
  31 H :    0.026927
  32 H :    0.050252
  33 H :    0.085572
Sum of atomic charges:    0.0000000

LOEWDIN ATOMIC CHARGES
----------------------
   0 S :    0.388234
   1 C :   -0.176532
   2 C :   -0.068009
   3 C :   -0.056409
   4 C :   -0.193145
   5 H :    0.040328
   6 C :   -0.024427
   7 H :    0.026992
   8 H :    0.029798
   9 C :   -0.039430
  10 H :    0.027813
  11 H :    0.019223
  12 C :   -0.059841
  13 H :    0.029617
  14 H :    0.024540
  15 H :    0.021509
  16 S :    0.403863
  17 C :   -0.193586
  18 C :   -0.078073
  19 C :   -0.068856
  20 C :   -0.203007
  21 H :    0.035387
  22 C :   -0.037086
  23 H :    0.041806
  24 H :    0.034613
  25 C :   -0.048177
  26 H :    0.025054
  27 H :    0.027397
  28 C :   -0.066612
  29 H :    0.027630
  30 H :    0.024005
  31 H :    0.018610
  32 H :    0.026589
  33 H :    0.040181

  Mayer bond orders larger than 0.100000
B(  0-S ,  1-C ) :   1.1305 B(  0-S ,  4-C ) :   1.1507 B(  1-C ,  2-C ) :   1.6217
B(  1-C ,  4-C ) :   0.1042 B(  1-C , 32-H ) :   0.9688 B(  2-C ,  3-C ) :   1.2410
B(  2-C ,  6-C ) :   1.0050 B(  3-C ,  4-C ) :   1.5963 B(  3-C ,  5-H ) :   0.9894
B(  4-C , 20-C ) :   0.9969 B(  6-C ,  7-H ) :   0.9455 B(  6-C ,  8-H ) :   0.9397
B(  6-C ,  9-C ) :   1.0774 B(  9-C , 10-H ) :   0.9679 B(  9-C , 11-H ) :   0.9585
B(  9-C , 12-C ) :   1.0734 B( 12-C , 13-H ) :   0.9765 B( 12-C , 14-H ) :   0.9766
B( 12-C , 15-H ) :   0.9748 B( 16-S , 17-C ) :   1.1882 B( 16-S , 20-C ) :   1.1534
B( 17-C , 18-C ) :   1.5493 B( 17-C , 20-C ) :   0.1139 B( 17-C , 33-H ) :   0.9625
B( 18-C , 19-C ) :   1.2872 B( 18-C , 21-H ) :   0.9892 B( 19-C , 20-C ) :   1.5649
B( 19-C , 22-C ) :   1.0385 B( 22-C , 23-H ) :   0.9358 B( 22-C , 24-H ) :   0.9418
B( 22-C , 25-C ) :   1.0520 B( 25-C , 26-H ) :   0.9594 B( 25-C , 27-H ) :   0.9527
B( 25-C , 28-C ) :   1.0827 B( 28-C , 29-H ) :   0.9735 B( 28-C , 30-H ) :   0.9743
B( 28-C , 31-H ) :   0.9752

Dispersion correction           -0.013519788
FINAL SINGLE POINT ENERGY     -1339.876301848526

DIPOLE MOMENT
-------------
                                X             Y             Z
Electronic contribution:     -5.46362     -17.73406     -21.53539
Nuclear contribution   :      5.52858      18.05994      21.97075
                        -----------------------------------------
Total Dipole Moment    :      0.06496       0.32588       0.43536
                        -----------------------------------------
Magnitude (a.u.)       :      0.54768
Magnitude (Debye)      :      1.39209

Rotational constants in cm-1:     0.018801     0.007548     0.006085
Rotational constants in MHz :   563.633412   226.269340   182.420709

                             ****ORCA TERMINATED NORMALLY****
TOTAL RUN TIME: 0 days 0 hours 0 minutes 32 seconds 58 msec
