                         Program Version 4.2.1 -  RELEASE  -
|  1> ! wB97X-D3 SP def2-SVP
|  2> %pal
|  3> nprocs 16
|  4> end
|  5>
|  6> * xyz 0 1
|  7> S 	 -56.8388 	 52.0314 	 138.326
|  8> C 	 -56.6747 	 53.5757 	 137.65
|  9> C 	 -57.5553 	 54.4876 	 138.3
| 10> C 	 -58.347 	 53.877 	 139.295
| 11> C 	 -58.2637 	 52.5077 	 139.31
| 12> H 	 -59.0714 	 54.2615 	 139.943
| 13> C 	 -57.4579 	 56.0608 	 138.295
| 14> H 	 -56.5136 	 56.3439 	 137.704
| 15> H 	 -57.264 	 56.4674 	 139.326
| 16> C 	 -58.68 	 56.7569 	 137.756
| 17> H 	 -59.5635 	 56.1437 	 138.062
| 18> H 	 -58.7906 	 57.6834 	 138.342
| 19> C 	 -58.6654 	 56.9817 	 136.262
| 20> H 	 -58.609 	 56.0868 	 135.626
| 21> H 	 -59.5811 	 57.5607 	 135.988
| 22> H 	 -57.8232 	 57.579 	 136.051
| 23> S 	 -58.2131 	 50.4046 	 141.06
| 24> C 	 -59.7945 	 49.8776 	 141.756
| 25> C 	 -60.8428 	 50.6089 	 141.242
| 26> C 	 -60.4219 	 51.6046 	 140.278
| 27> C 	 -59.0738 	 51.5195 	 140.024
| 28> H 	 -61.8047 	 50.4794 	 141.583
| 29> C 	 -61.3992 	 52.5429 	 139.557
| 30> H 	 -60.778 	 53.0004 	 138.791
| 31> H 	 -61.749 	 53.2903 	 140.301
| 32> C 	 -62.6706 	 51.9069 	 138.952
| 33> H 	 -63.0972 	 51.2357 	 139.608
| 34> H 	 -62.2777 	 51.3129 	 138.151
| 35> C 	 -63.6375 	 52.9476 	 138.352
| 36> H 	 -63.1087 	 53.79 	 137.909
| 37> H 	 -64.2361 	 53.3685 	 139.11
| 38> H 	 -64.2961 	 52.6488 	 137.581
| 39> H 	 -55.9053 	 53.8591 	 136.85
| 40> H 	 -59.9278 	 49.1624 	 142.494
| 41> *
| 42>
| 43>                          ****END OF INPUT****

CARTESIAN COORDINATES (ANGSTROEM)
---------------------------------
  S    -56.838800   52.031400  138.326000
  C    -56.674700   53.575700  137.650000
  C    -57.555300   54.487600  138.300000
  C    -58.347000   53.877000  139.295000
  C    -58.263700   52.507700  139.310000
  H    -59.071400   54.261500  139.943000
  C    -57.457900   56.060800  138.295000
  H    -56.513600   56.343900  137.704000
  H    -57.264000   56.467400  139.326000
  C    -58.680000   56.756900  137.756000
  H    -59.563500   56.143700  138.062000
  H    -58.790600   57.683400  138.342000
  C    -58.665400   56.981700  136.262000
  H    -58.609000   56.086800  135.626000
  H    -59.581100   57.560700  135.988000
  H    -57.823200   57.579000  136.051000
  S    -58.213100   50.404600  141.060000
  C    -59.794500   49.877600  141.756000
  C    -60.842800   50.608900  141.242000
  C    -60.421900   51.604600  140.278000
  C    -59.073800   51.519500  140.024000
  H    -61.804700   50.479400  141.583000
  C    -61.399200   52.542900  139.557000
  H    -60.778000   53.000400  138.791000
  H    -61.749000   53.290300  140.301000
  C    -62.670600   51.906900  138.952000
  H    -63.097200   51.235700  139.608000
  H    -62.277700   51.312900  138.151000
  C    -63.637500   52.947600  138.352000
  H    -63.108700   53.790000  137.909000
  H    -64.236100   53.368500  139.110000
  H    -64.296100   52.648800  137.581000
  H    -55.905300   53.859100  136.850000
  H    -59.927800   49.162400  142.494000

 Total Charge           Charge          ....    0
 Multiplicity           Mult            ....    1
 Number of Electrons    NEL             ....  134
 Basis Dimension        Dim             ....  322

ORBITAL ENERGIES
----------------

  NO   OCC          E(Eh)            E(eV)
   0   2.0000     -88.967285     -2420.9229
   1   2.0000     -88.964673     -2420.8518
   2   2.0000     -10.328594      -281.0553
   3   2.0000     -10.326750      -281.0051
   4   2.0000     -10.323658      -280.9210
   5   2.0000     -10.319495      -280.8077
   6   2.0000     -10.305614      -280.4300
   7   2.0000     -10.305419      -280.4247
   8   2.0000     -10.299795      -280.2717
   9   2.0000     -10.295114      -280.1443
  10   2.0000     -10.293239      -280.0933
  11   2.0000     -10.288992      -279.9777
  12   2.0000     -10.284312      -279.8504
  13   2.0000     -10.280934      -279.7584
  14   2.0000     -10.275157      -279.6012
  15   2.0000     -10.272579      -279.5311
  16   2.0000      -8.081365      -219.9051
  17   2.0000      -8.079841      -219.8636
  18   2.0000      -6.040054      -164.3582
  19   2.0000      -6.038173      -164.3071
  20   2.0000      -6.036101      -164.2507
  21   2.0000      -6.034269      -164.2008
  22   2.0000      -6.031837      -164.1346
  23   2.0000      -6.030777      -164.1058
  24   2.0000      -1.006025       -27.3753
  25   2.0000      -0.982150       -26.7257
  26   2.0000      -0.908870       -24.7316
  27   2.0000      -0.907525       -24.6950
  28   2.0000      -0.872695       -23.7472
  29   2.0000      -0.854103       -23.2413
  30   2.0000      -0.845576       -23.0093
  31   2.0000      -0.814767       -22.1709
  32   2.0000      -0.782012       -21.2796
  33   2.0000      -0.770633       -20.9700
  34   2.0000      -0.712951       -19.4004
  35   2.0000      -0.701038       -19.0762
  36   2.0000      -0.687157       -18.6985
  37   2.0000      -0.664492       -18.0818
  38   2.0000      -0.646398       -17.5894
  39   2.0000      -0.619813       -16.8660
  40   2.0000      -0.596124       -16.2214
  41   2.0000      -0.572885       -15.5890
  42   2.0000      -0.567064       -15.4306
  43   2.0000      -0.545775       -14.8513
  44   2.0000      -0.532867       -14.5000
  45   2.0000      -0.524806       -14.2807
  46   2.0000      -0.519391       -14.1334
  47   2.0000      -0.516571       -14.0566
  48   2.0000      -0.503933       -13.7127
  49   2.0000      -0.498169       -13.5559
  50   2.0000      -0.488861       -13.3026
  51   2.0000      -0.485019       -13.1980
  52   2.0000      -0.472695       -12.8627
  53   2.0000      -0.464526       -12.6404
  54   2.0000      -0.460207       -12.5229
  55   2.0000      -0.453805       -12.3487
  56   2.0000      -0.441987       -12.0271
  57   2.0000      -0.433328       -11.7915
  58   2.0000      -0.430804       -11.7228
  59   2.0000      -0.429036       -11.6747
  60   2.0000      -0.421306       -11.4643
  61   2.0000      -0.419075       -11.4036
  62   2.0000      -0.407043       -11.0762
  63   2.0000      -0.354071        -9.6348
  64   2.0000      -0.333458        -9.0739
  65   2.0000      -0.327579        -8.9139
  66   2.0000      -0.287995        -7.8367
  67   0.0000       0.026712         0.7269
  68   0.0000       0.066945         1.8217
  69   0.0000       0.099898         2.7184
  70   0.0000       0.120560         3.2806
  71   0.0000       0.126100         3.4314

MULLIKEN ATOMIC CHARGES
-----------------------
   0 S :    0.106412
   1 C :   -0.130013
   2 C :   -0.087348
   3 C :    0.056212
   4 C :   -0.190686
   5 H :   -0.001080
   6 C :   -0.002488
   7 H :    0.024429
   8 H :    0.045892
   9 C :   -0.070320
  10 H :    0.026643
  11 H :    0.024683
  12 C :   -0.029929
  13 H :    0.039954
  14 H :    0.037871
  15 H :    0.016483
  16 S :    0.092882
  17 C :   -0.054170
  18 C :   -0.000269
  19 C :   -0.066195
  20 C :   -0.107275
  21 H :   -0.010607
  22 C :    0.033374
  23 H :    0.042978
  24 H :    0.036500
  25 C :   -0.032601
  26 H :    0.012394
  27 H :    0.024906
  28 C :   -0.019236
  29 H :    0.021187
  30 H :    0.018409
  31 H :    0.027590
  32 H :    0.083973
  33 H :    0.029446
Sum of atomic charges:    0.0000000

LOEWDIN ATOMIC CHARGES
----------------------
   0 S :    0.408480
   1 C :   -0.223866
   2 C :   -0.074194
   3 C :   -0.056366
   4 C :   -0.180645
   5 H :    0.025762
   6 C :   -0.037379
   7 H :    0.029777
   8 H :    0.037444
   9 C :   -0.053755
  10 H :    0.025309
  11 H :    0.025596
  12 C :   -0.063446
  13 H :    0.029203
  14 H :    0.032102
  15 H :    0.016895
  16 S :    0.380423
  17 C :   -0.147981
  18 C :   -0.053890
  19 C :   -0.052733
  20 C :   -0.200289
  21 H :    0.017820
  22 C :   -0.030622
  23 H :    0.031699
  24 H :    0.031650
  25 C :   -0.030560
  26 H :    0.010607
  27 H :    0.026618
  28 C :   -0.059111
  29 H :    0.028503
  30 H :    0.019619
  31 H :    0.023754
  32 H :    0.048525
  33 H :    0.015050

  Mayer bond orders larger than 0.100000
B(  0-S ,  1-C ) :   1.1736 B(  0-S ,  4-C ) :   1.1438 B(  1-C ,  2-C ) :   1.5715
B(  1-C ,  4-C ) :   0.1051 B(  1-C , 32-H ) :   0.9588 B(  2-C ,  3-C ) :   1.2469
B(  2-C ,  6-C ) :   1.0162 B(  3-C ,  4-C ) :   1.5689 B(  3-C ,  5-H ) :   1.0019
B(  4-C , 20-C ) :   1.0171 B(  6-C ,  7-H ) :   0.9513 B(  6-C ,  8-H ) :   0.9543
B(  6-C ,  9-C ) :   1.0540 B(  9-C , 10-H ) :   0.9555 B(  9-C , 11-H ) :   0.9539
B(  9-C , 12-C ) :   1.0826 B( 12-C , 13-H ) :   0.9751 B( 12-C , 14-H ) :   0.9726
B( 12-C , 15-H ) :   0.9736 B( 16-S , 17-C ) :   1.1263 B( 16-S , 20-C ) :   1.1265
B( 17-C , 18-C ) :   1.6440 B( 17-C , 33-H ) :   0.9757 B( 18-C , 19-C ) :   1.2010
B( 18-C , 21-H ) :   1.0009 B( 19-C , 20-C ) :   1.6413 B( 19-C , 22-C ) :   1.0302
B( 22-C , 23-H ) :   0.9352 B( 22-C , 24-H ) :   0.9316 B( 22-C , 25-C ) :   1.0632
B( 25-C , 26-H ) :   0.9603 B( 25-C , 27-H ) :   0.9539 B( 25-C , 28-C ) :   1.0763
B( 28-C , 29-H ) :   0.9732 B( 28-C , 30-H ) :   0.9748 B( 28-C , 31-H ) :   0.9760

Dispersion correction           -0.013898403
FINAL SINGLE POINT ENERGY     -1339.863311877277

DIPOLE MOMENT
-------------
                                X             Y             Z
Electronic contribution:     19.35569     -22.31781      11.40954
Nuclear contribution   :    -19.89109      22.80146     -11.32531
                        -----------------------------------------
Total Dipole Moment    :     -0.53539       0.48365       0.08423
                        -----------------------------------------
Magnitude (a.u.)       :      0.72640
Magnitude (Debye)      :      1.84637

Rotational constants in cm-1:     0.016409     0.009457     0.006581
Rotational constants in MHz :   491.925937   283.510846   197.304569

                             ****ORCA TERMINATED NORMALLY****
TOTAL RUN TIME: 0 days 0 hours 0 minutes 34 seconds 101 msec
