                         Program Version 4.2.1 -  RELEASE  -
|  1> ! wB97X-D3 SP def2-SVP
|  2> %pal
|  3> nprocs 16
|  4> end
|  5>
|  6> * xyz 0 1
|  7> S 	 -27.52 	 63.9524 	 105.444
|  8> C 	 -29.1452 	 64.4977 	 104.957
|  9> C 	 -29.7832 	 63.4691 	 104.15
| 10> C 	 -28.8715 	 62.3266 	 103.913
| 11> C 	 -27.6534 	 62.3789 	 104.568
| 12> H 	 -29.1514 	 61.3817 	 103.509
| 13> C 	 -31.1978 	 63.5276 	 103.707
| 14> H 	 -31.439 	 62.7772 	 103.006
| 15> H 	 -31.2866 	 64.4821 	 103.198
| 16> C 	 -32.2039 	 63.3348 	 104.851
| 17> H 	 -32.002 	 62.3385 	 105.348
| 18> H 	 -31.9235 	 64.0806 	 105.59
| 19> C 	 -33.6533 	 63.39 	 104.393
| 20> H 	 -34.3424 	 63.1325 	 105.177
| 21> H 	 -33.8997 	 64.444 	 104.055
| 22> H 	 -33.974 	 62.7352 	 103.644
| 23> S 	 -26.1143 	 60.9165 	 106.261
| 24> C 	 -24.9256 	 59.9284 	 105.614
| 25> C 	 -24.9849 	 59.8084 	 104.26
| 26> C 	 -26.0681 	 60.5701 	 103.672
| 27> C 	 -26.5867 	 61.3785 	 104.641
| 28> H 	 -24.2201 	 59.269 	 103.665
| 29> C 	 -26.4546 	 60.6204 	 102.216
| 30> H 	 -25.6433 	 60.9913 	 101.616
| 31> H 	 -27.115 	 61.426 	 102.023
| 32> C 	 -27.2515 	 59.4467 	 101.642
| 33> H 	 -26.5598 	 58.6481 	 101.723
| 34> H 	 -27.3744 	 59.5815 	 100.548
| 35> C 	 -28.6719 	 59.0238 	 102.139
| 36> H 	 -28.8268 	 58.792 	 103.213
| 37> H 	 -28.7653 	 58.1471 	 101.514
| 38> H 	 -29.3614 	 59.7885 	 101.912
| 39> H 	 -29.5867 	 65.379 	 105.322
| 40> H 	 -24.3594 	 59.3626 	 106.221
| 41> *
| 42>
| 43>                          ****END OF INPUT****

CARTESIAN COORDINATES (ANGSTROEM)
---------------------------------
  S    -27.520000   63.952400  105.444000
  C    -29.145200   64.497700  104.957000
  C    -29.783200   63.469100  104.150000
  C    -28.871500   62.326600  103.913000
  C    -27.653400   62.378900  104.568000
  H    -29.151400   61.381700  103.509000
  C    -31.197800   63.527600  103.707000
  H    -31.439000   62.777200  103.006000
  H    -31.286600   64.482100  103.198000
  C    -32.203900   63.334800  104.851000
  H    -32.002000   62.338500  105.348000
  H    -31.923500   64.080600  105.590000
  C    -33.653300   63.390000  104.393000
  H    -34.342400   63.132500  105.177000
  H    -33.899700   64.444000  104.055000
  H    -33.974000   62.735200  103.644000
  S    -26.114300   60.916500  106.261000
  C    -24.925600   59.928400  105.614000
  C    -24.984900   59.808400  104.260000
  C    -26.068100   60.570100  103.672000
  C    -26.586700   61.378500  104.641000
  H    -24.220100   59.269000  103.665000
  C    -26.454600   60.620400  102.216000
  H    -25.643300   60.991300  101.616000
  H    -27.115000   61.426000  102.023000
  C    -27.251500   59.446700  101.642000
  H    -26.559800   58.648100  101.723000
  H    -27.374400   59.581500  100.548000
  C    -28.671900   59.023800  102.139000
  H    -28.826800   58.792000  103.213000
  H    -28.765300   58.147100  101.514000
  H    -29.361400   59.788500  101.912000
  H    -29.586700   65.379000  105.322000
  H    -24.359400   59.362600  106.221000

 Total Charge           Charge          ....    0
 Multiplicity           Mult            ....    1
 Number of Electrons    NEL             ....  134
 Basis Dimension        Dim             ....  322

ORBITAL ENERGIES
----------------

  NO   OCC          E(Eh)            E(eV)
   0   2.0000     -88.963987     -2420.8332
   1   2.0000     -88.963487     -2420.8195
   2   2.0000     -10.332328      -281.1569
   3   2.0000     -10.323427      -280.9147
   4   2.0000     -10.319713      -280.8137
   5   2.0000     -10.312377      -280.6140
   6   2.0000     -10.304089      -280.3885
   7   2.0000     -10.302059      -280.3333
   8   2.0000     -10.295716      -280.1607
   9   2.0000     -10.294985      -280.1408
  10   2.0000     -10.290065      -280.0069
  11   2.0000     -10.288600      -279.9670
  12   2.0000     -10.284560      -279.8571
  13   2.0000     -10.283906      -279.8393
  14   2.0000     -10.282521      -279.8016
  15   2.0000     -10.277277      -279.6589
  16   2.0000      -8.080168      -219.8726
  17   2.0000      -8.077072      -219.7883
  18   2.0000      -6.038429      -164.3140
  19   2.0000      -6.035743      -164.2409
  20   2.0000      -6.034563      -164.2088
  21   2.0000      -6.031669      -164.1301
  22   2.0000      -6.030902      -164.1092
  23   2.0000      -6.027905      -164.0276
  24   2.0000      -1.011529       -27.5251
  25   2.0000      -0.971892       -26.4465
  26   2.0000      -0.913845       -24.8670
  27   2.0000      -0.911648       -24.8072
  28   2.0000      -0.867042       -23.5934
  29   2.0000      -0.854982       -23.2652
  30   2.0000      -0.841959       -22.9109
  31   2.0000      -0.815930       -22.2026
  32   2.0000      -0.794426       -21.6174
  33   2.0000      -0.770389       -20.9633
  34   2.0000      -0.706928       -19.2365
  35   2.0000      -0.704388       -19.1674
  36   2.0000      -0.697548       -18.9812
  37   2.0000      -0.659398       -17.9431
  38   2.0000      -0.644593       -17.5403
  39   2.0000      -0.618444       -16.8287
  40   2.0000      -0.603670       -16.4267
  41   2.0000      -0.573195       -15.5974
  42   2.0000      -0.557815       -15.1789
  43   2.0000      -0.555799       -15.1241
  44   2.0000      -0.545959       -14.8563
  45   2.0000      -0.525315       -14.2945
  46   2.0000      -0.518575       -14.1111
  47   2.0000      -0.515280       -14.0215
  48   2.0000      -0.507150       -13.8002
  49   2.0000      -0.502050       -13.6615
  50   2.0000      -0.493550       -13.4302
  51   2.0000      -0.481672       -13.1070
  52   2.0000      -0.474014       -12.8986
  53   2.0000      -0.466799       -12.7022
  54   2.0000      -0.453089       -12.3292
  55   2.0000      -0.450063       -12.2468
  56   2.0000      -0.448038       -12.1917
  57   2.0000      -0.440086       -11.9753
  58   2.0000      -0.431836       -11.7509
  59   2.0000      -0.424826       -11.5601
  60   2.0000      -0.419005       -11.4017
  61   2.0000      -0.412777       -11.2322
  62   2.0000      -0.404234       -10.9998
  63   2.0000      -0.347769        -9.4633
  64   2.0000      -0.333188        -9.0665
  65   2.0000      -0.322137        -8.7658
  66   2.0000      -0.289512        -7.8780
  67   0.0000       0.029119         0.7924
  68   0.0000       0.069617         1.8944
  69   0.0000       0.111948         3.0462
  70   0.0000       0.117105         3.1866
  71   0.0000       0.126867         3.4522

MULLIKEN ATOMIC CHARGES
-----------------------
   0 S :    0.090161
   1 C :   -0.110637
   2 C :   -0.112147
   3 C :    0.066767
   4 C :   -0.151928
   5 H :   -0.024517
   6 C :    0.084672
   7 H :    0.001977
   8 H :    0.034139
   9 C :   -0.088747
  10 H :    0.036829
  11 H :    0.024803
  12 C :   -0.021253
  13 H :    0.028074
  14 H :    0.032733
  15 H :    0.018604
  16 S :    0.117814
  17 C :   -0.027139
  18 C :   -0.044764
  19 C :   -0.032825
  20 C :   -0.159157
  21 H :    0.029896
  22 C :    0.092763
  23 H :    0.026924
  24 H :   -0.003829
  25 C :   -0.097966
  26 H :    0.015082
  27 H :    0.032077
  28 C :   -0.041763
  29 H :    0.053570
  30 H :    0.041651
  31 H :    0.037661
  32 H :    0.041753
  33 H :    0.008722
Sum of atomic charges:    0.0000000

LOEWDIN ATOMIC CHARGES
----------------------
   0 S :    0.370327
   1 C :   -0.190103
   2 C :   -0.046431
   3 C :   -0.067820
   4 C :   -0.174318
   5 H :    0.024003
   6 C :   -0.037893
   7 H :    0.022184
   8 H :    0.034612
   9 C :   -0.038193
  10 H :    0.031639
  11 H :    0.021598
  12 C :   -0.068054
  13 H :    0.027256
  14 H :    0.032476
  15 H :    0.017920
  16 S :    0.435341
  17 C :   -0.186250
  18 C :   -0.071069
  19 C :   -0.048053
  20 C :   -0.196234
  21 H :    0.036367
  22 C :   -0.041612
  23 H :    0.036283
  24 H :    0.026397
  25 C :   -0.036756
  26 H :    0.013195
  27 H :    0.031909
  28 C :   -0.062318
  29 H :    0.030937
  30 H :    0.035855
  31 H :    0.015986
  32 H :    0.017063
  33 H :    0.003759

  Mayer bond orders larger than 0.100000
B(  0-S ,  1-C ) :   1.1365 B(  0-S ,  4-C ) :   1.1364 B(  1-C ,  2-C ) :   1.5755
B(  1-C ,  4-C ) :   0.1023 B(  1-C , 32-H ) :   0.9783 B(  2-C ,  3-C ) :   1.2356
B(  2-C ,  6-C ) :   1.0417 B(  3-C ,  4-C ) :   1.5927 B(  3-C ,  5-H ) :   0.9822
B(  4-C , 20-C ) :   1.0204 B(  6-C ,  7-H ) :   0.9387 B(  6-C ,  8-H ) :   0.9346
B(  6-C ,  9-C ) :   1.0562 B(  9-C , 10-H ) :   0.9543 B(  9-C , 11-H ) :   0.9586
B(  9-C , 12-C ) :   1.0815 B( 12-C , 13-H ) :   0.9715 B( 12-C , 14-H ) :   0.9726
B( 12-C , 15-H ) :   0.9728 B( 16-S , 17-C ) :   1.1631 B( 16-S , 20-C ) :   1.1516
B( 17-C , 18-C ) :   1.6097 B( 17-C , 33-H ) :   0.9816 B( 18-C , 19-C ) :   1.2109
B( 18-C , 21-H ) :   0.9881 B( 19-C , 20-C ) :   1.6188 B( 19-C , 22-C ) :   1.0507
B( 22-C , 23-H ) :   0.9288 B( 22-C , 24-H ) :   0.9208 B( 22-C , 25-C ) :   1.0598
B( 25-C , 26-H ) :   0.9641 B( 25-C , 27-H ) :   0.9535 B( 25-C , 28-C ) :   1.0669
B( 28-C , 29-H ) :   0.9735 B( 28-C , 30-H ) :   0.9694 B( 28-C , 31-H ) :   0.9665

Dispersion correction           -0.014569110
FINAL SINGLE POINT ENERGY     -1339.853751599844

DIPOLE MOMENT
-------------
                                X             Y             Z
Electronic contribution:     22.83874       6.08164      15.94266
Nuclear contribution   :    -23.24908      -6.47264     -16.38677
                        -----------------------------------------
Total Dipole Moment    :     -0.41035      -0.39100      -0.44411
                        -----------------------------------------
Magnitude (a.u.)       :      0.72007
Magnitude (Debye)      :      1.83027

Rotational constants in cm-1:     0.019543     0.008478     0.006722
Rotational constants in MHz :   585.890473   254.175721   201.515993

                             ****ORCA TERMINATED NORMALLY****
TOTAL RUN TIME: 0 days 0 hours 0 minutes 28 seconds 695 msec
