                         Program Version 4.2.1 -  RELEASE  -
|  1> ! wB97X-D3 SP def2-SVP
|  2> %pal
|  3> nprocs 16
|  4> end
|  5>
|  6> * xyz 0 1
|  7> S 	 -12.5126 	 60.2899 	 58.7868
|  8> C 	 -11.0492 	 59.4223 	 58.9306
|  9> C 	 -9.98324 	 60.2745 	 59.0984
| 10> C 	 -10.3896 	 61.6243 	 59.1619
| 11> C 	 -11.7163 	 61.8181 	 58.9227
| 12> H 	 -9.75753 	 62.417 	 59.4857
| 13> C 	 -8.61007 	 59.6998 	 59.2864
| 14> H 	 -7.85926 	 60.2261 	 58.6525
| 15> H 	 -8.58841 	 58.6911 	 58.862
| 16> C 	 -8.02564 	 59.7755 	 60.7001
| 17> H 	 -6.88105 	 59.7376 	 60.6458
| 18> H 	 -8.14766 	 60.6796 	 61.2636
| 19> C 	 -8.40456 	 58.4987 	 61.4561
| 20> H 	 -8.00167 	 57.6165 	 60.8883
| 21> H 	 -7.85176 	 58.6215 	 62.4267
| 22> H 	 -9.44864 	 58.4349 	 61.5503
| 23> S 	 -13.9129 	 63.2523 	 59.9866
| 24> C 	 -14.3814 	 64.815 	 59.3685
| 25> C 	 -13.4467 	 65.2248 	 58.4407
| 26> C 	 -12.3912 	 64.3016 	 58.1883
| 27> C 	 -12.5199 	 63.0707 	 58.878
| 28> H 	 -13.4624 	 66.1029 	 57.8289
| 29> C 	 -11.2585 	 64.6273 	 57.1351
| 30> H 	 -11.8041 	 64.8373 	 56.2334
| 31> H 	 -10.6984 	 63.6803 	 56.8024
| 32> C 	 -10.3043 	 65.7095 	 57.5965
| 33> H 	 -10.742 	 66.6467 	 57.492
| 34> H 	 -9.56779 	 65.6966 	 56.8755
| 35> C 	 -9.61056 	 65.6625 	 58.9514
| 36> H 	 -8.72358 	 66.379 	 59.1294
| 37> H 	 -9.07956 	 64.8003 	 59.0065
| 38> H 	 -10.3379 	 65.6173 	 59.8177
| 39> H 	 -10.9494 	 58.3527 	 58.8897
| 40> H 	 -15.3411 	 65.2944 	 59.5671
| 41> *
| 42>
| 43>                          ****END OF INPUT****

CARTESIAN COORDINATES (ANGSTROEM)
---------------------------------
  S    -12.512600   60.289900   58.786800
  C    -11.049200   59.422300   58.930600
  C     -9.983240   60.274500   59.098400
  C    -10.389600   61.624300   59.161900
  C    -11.716300   61.818100   58.922700
  H     -9.757530   62.417000   59.485700
  C     -8.610070   59.699800   59.286400
  H     -7.859260   60.226100   58.652500
  H     -8.588410   58.691100   58.862000
  C     -8.025640   59.775500   60.700100
  H     -6.881050   59.737600   60.645800
  H     -8.147660   60.679600   61.263600
  C     -8.404560   58.498700   61.456100
  H     -8.001670   57.616500   60.888300
  H     -7.851760   58.621500   62.426700
  H     -9.448640   58.434900   61.550300
  S    -13.912900   63.252300   59.986600
  C    -14.381400   64.815000   59.368500
  C    -13.446700   65.224800   58.440700
  C    -12.391200   64.301600   58.188300
  C    -12.519900   63.070700   58.878000
  H    -13.462400   66.102900   57.828900
  C    -11.258500   64.627300   57.135100
  H    -11.804100   64.837300   56.233400
  H    -10.698400   63.680300   56.802400
  C    -10.304300   65.709500   57.596500
  H    -10.742000   66.646700   57.492000
  H     -9.567790   65.696600   56.875500
  C     -9.610560   65.662500   58.951400
  H     -8.723580   66.379000   59.129400
  H     -9.079560   64.800300   59.006500
  H    -10.337900   65.617300   59.817700
  H    -10.949400   58.352700   58.889700
  H    -15.341100   65.294400   59.567100

 Total Charge           Charge          ....    0
 Multiplicity           Mult            ....    1
 Number of Electrons    NEL             ....  134
 Basis Dimension        Dim             ....  322

ORBITAL ENERGIES
----------------

  NO   OCC          E(Eh)            E(eV)
   0   2.0000     -88.964508     -2420.8473
   1   2.0000     -88.963480     -2420.8194
   2   2.0000     -10.334564      -281.2178
   3   2.0000     -10.330108      -281.0965
   4   2.0000     -10.321764      -280.8695
   5   2.0000     -10.309317      -280.5308
   6   2.0000     -10.307548      -280.4827
   7   2.0000     -10.299333      -280.2591
   8   2.0000     -10.296585      -280.1843
   9   2.0000     -10.293360      -280.0966
  10   2.0000     -10.292867      -280.0831
  11   2.0000     -10.290765      -280.0260
  12   2.0000     -10.288730      -279.9706
  13   2.0000     -10.278721      -279.6982
  14   2.0000     -10.278031      -279.6794
  15   2.0000     -10.274777      -279.5909
  16   2.0000      -8.080579      -219.8837
  17   2.0000      -8.077671      -219.8046
  18   2.0000      -6.038939      -164.3279
  19   2.0000      -6.036219      -164.2539
  20   2.0000      -6.034826      -164.2160
  21   2.0000      -6.032080      -164.1412
  22   2.0000      -6.031468      -164.1246
  23   2.0000      -6.028584      -164.0461
  24   2.0000      -1.011299       -27.5189
  25   2.0000      -0.984727       -26.7958
  26   2.0000      -0.914277       -24.8787
  27   2.0000      -0.908789       -24.7294
  28   2.0000      -0.867955       -23.6182
  29   2.0000      -0.851642       -23.1744
  30   2.0000      -0.844210       -22.9721
  31   2.0000      -0.817138       -22.2355
  32   2.0000      -0.785132       -21.3645
  33   2.0000      -0.772610       -21.0238
  34   2.0000      -0.711181       -19.3522
  35   2.0000      -0.699249       -19.0275
  36   2.0000      -0.689020       -18.7492
  37   2.0000      -0.657532       -17.8923
  38   2.0000      -0.647649       -17.6234
  39   2.0000      -0.625015       -17.0075
  40   2.0000      -0.597722       -16.2648
  41   2.0000      -0.571752       -15.5582
  42   2.0000      -0.552742       -15.0409
  43   2.0000      -0.550496       -14.9798
  44   2.0000      -0.549157       -14.9433
  45   2.0000      -0.535746       -14.5784
  46   2.0000      -0.517916       -14.0932
  47   2.0000      -0.512796       -13.9539
  48   2.0000      -0.505752       -13.7622
  49   2.0000      -0.494082       -13.4447
  50   2.0000      -0.489034       -13.3073
  51   2.0000      -0.477495       -12.9933
  52   2.0000      -0.473751       -12.8914
  53   2.0000      -0.466281       -12.6881
  54   2.0000      -0.464969       -12.6525
  55   2.0000      -0.450826       -12.2676
  56   2.0000      -0.448183       -12.1957
  57   2.0000      -0.440654       -11.9908
  58   2.0000      -0.436202       -11.8696
  59   2.0000      -0.419633       -11.4188
  60   2.0000      -0.415214       -11.2985
  61   2.0000      -0.403743       -10.9864
  62   2.0000      -0.402658       -10.9569
  63   2.0000      -0.346640        -9.4325
  64   2.0000      -0.330426        -8.9913
  65   2.0000      -0.329001        -8.9526
  66   2.0000      -0.297588        -8.0978
  67   0.0000       0.030052         0.8177
  68   0.0000       0.071919         1.9570
  69   0.0000       0.122349         3.3293
  70   0.0000       0.123282         3.3547
  71   0.0000       0.128695         3.5020

MULLIKEN ATOMIC CHARGES
-----------------------
   0 S :    0.120938
   1 C :   -0.113631
   2 C :   -0.087449
   3 C :    0.054936
   4 C :   -0.148554
   5 H :   -0.005416
   6 C :    0.059318
   7 H :    0.026448
   8 H :    0.016672
   9 C :   -0.095982
  10 H :    0.025704
  11 H :    0.032029
  12 C :   -0.045684
  13 H :    0.033956
  14 H :    0.041255
  15 H :    0.031944
  16 S :    0.090456
  17 C :   -0.090630
  18 C :   -0.008100
  19 C :   -0.060265
  20 C :   -0.160436
  21 H :    0.009077
  22 C :    0.034833
  23 H :    0.029660
  24 H :    0.038665
  25 C :    0.001629
  26 H :    0.010353
  27 H :    0.003512
  28 C :   -0.051760
  29 H :    0.042399
  30 H :   -0.005524
  31 H :    0.054309
  32 H :    0.042415
  33 H :    0.072922
Sum of atomic charges:    0.0000000

LOEWDIN ATOMIC CHARGES
----------------------
   0 S :    0.435719
   1 C :   -0.205651
   2 C :   -0.068529
   3 C :   -0.057440
   4 C :   -0.199438
   5 H :    0.027689
   6 C :   -0.036037
   7 H :    0.033617
   8 H :    0.031029
   9 C :   -0.046500
  10 H :    0.028217
  11 H :    0.020994
  12 C :   -0.061985
  13 H :    0.028366
  14 H :    0.032168
  15 H :    0.014662
  16 S :    0.391600
  17 C :   -0.186095
  18 C :   -0.075194
  19 C :   -0.055970
  20 C :   -0.195027
  21 H :    0.027733
  22 C :   -0.028655
  23 H :    0.031493
  24 H :    0.038541
  25 C :   -0.038114
  26 H :    0.015319
  27 H :    0.019674
  28 C :   -0.069181
  29 H :    0.042676
  30 H :    0.005162
  31 H :    0.035734
  32 H :    0.026381
  33 H :    0.037040

  Mayer bond orders larger than 0.100000
B(  0-S ,  1-C ) :   1.1554 B(  0-S ,  4-C ) :   1.1734 B(  1-C ,  2-C ) :   1.5864
B(  1-C , 32-H ) :   0.9694 B(  2-C ,  3-C ) :   1.2588 B(  2-C ,  6-C ) :   1.0388
B(  3-C ,  4-C ) :   1.5594 B(  3-C ,  5-H ) :   1.0066 B(  4-C , 20-C ) :   1.0076
B(  6-C ,  7-H ) :   0.9338 B(  6-C ,  8-H ) :   0.9431 B(  6-C ,  9-C ) :   1.0562
B(  9-C , 10-H ) :   0.9565 B(  9-C , 11-H ) :   0.9606 B(  9-C , 12-C ) :   1.0719
B( 12-C , 13-H ) :   0.9763 B( 12-C , 14-H ) :   0.9738 B( 12-C , 15-H ) :   0.9798
B( 16-S , 17-C ) :   1.1628 B( 16-S , 20-C ) :   1.1460 B( 17-C , 18-C ) :   1.5604
B( 17-C , 20-C ) :   0.1075 B( 17-C , 33-H ) :   0.9688 B( 18-C , 19-C ) :   1.2817
B( 18-C , 21-H ) :   0.9882 B( 19-C , 20-C ) :   1.5782 B( 19-C , 22-C ) :   1.0218
B( 22-C , 23-H ) :   0.9393 B( 22-C , 24-H ) :   0.9445 B( 22-C , 25-C ) :   1.0696
B( 25-C , 26-H ) :   0.9532 B( 25-C , 27-H ) :   0.9457 B( 25-C , 28-C ) :   1.0793
B( 28-C , 29-H ) :   0.9675 B( 28-C , 30-H ) :   0.9672 B( 28-C , 31-H ) :   0.9717

Dispersion correction           -0.014740108
FINAL SINGLE POINT ENERGY     -1339.862843974621

DIPOLE MOMENT
-------------
                                X             Y             Z
Electronic contribution:    -25.60199      -2.35635      -1.43441
Nuclear contribution   :     26.19071       2.55005       1.19338
                        -----------------------------------------
Total Dipole Moment    :      0.58872       0.19371      -0.24103
                        -----------------------------------------
Magnitude (a.u.)       :      0.66499
Magnitude (Debye)      :      1.69028

Rotational constants in cm-1:     0.020503     0.008367     0.006801
Rotational constants in MHz :   614.661062   250.830341   203.901781

                             ****ORCA TERMINATED NORMALLY****
TOTAL RUN TIME: 0 days 0 hours 0 minutes 33 seconds 795 msec
