                         Program Version 4.2.1 -  RELEASE  -
|  1> ! wB97X-D3 SP def2-SVP
|  2> %pal
|  3> nprocs 16
|  4> end
|  5>
|  6> * xyz 0 1
|  7> S 	 1.54317 	 77.0754 	 44.9496
|  8> C 	 1.61806 	 78.3702 	 46.0705
|  9> C 	 1.84407 	 78.017 	 47.372
| 10> C 	 1.79987 	 76.5752 	 47.4952
| 11> C 	 1.5141 	 75.8896 	 46.3317
| 12> H 	 1.95011 	 75.9925 	 48.3938
| 13> C 	 2.07856 	 79.0212 	 48.5091
| 14> H 	 1.31269 	 79.8296 	 48.3443
| 15> H 	 3.04686 	 79.5529 	 48.2576
| 16> C 	 2.05613 	 78.4156 	 49.9094
| 17> H 	 2.01181 	 79.3345 	 50.4976
| 18> H 	 1.17193 	 77.8746 	 50.284
| 19> C 	 3.33185 	 77.6768 	 50.3384
| 20> H 	 3.46829 	 76.7579 	 49.6832
| 21> H 	 4.21427 	 78.3062 	 50.1972
| 22> H 	 3.29545 	 77.4278 	 51.3768
| 23> S 	 1.86724 	 73.595 	 44.7677
| 24> C 	 1.16586 	 72.079 	 45.2994
| 25> C 	 0.497946 	 72.2184 	 46.4982
| 26> C 	 0.475031 	 73.6259 	 46.9709
| 27> C 	 1.21519 	 74.4506 	 46.1623
| 28> H 	 -0.121761 	 71.4628 	 46.9713
| 29> C 	 -0.350711 	 74.02 	 48.182
| 30> H 	 -1.27115 	 74.402 	 47.8641
| 31> H 	 0.185332 	 74.8803 	 48.6957
| 32> C 	 -0.642785 	 73.0043 	 49.349
| 33> H 	 -1.31761 	 72.2303 	 48.961
| 34> H 	 -1.1435 	 73.4207 	 50.213
| 35> C 	 0.675841 	 72.486 	 49.9386
| 36> H 	 0.664159 	 71.9065 	 50.8574
| 37> H 	 1.39945 	 73.3424 	 50.0679
| 38> H 	 1.17521 	 71.7516 	 49.303
| 39> H 	 1.4647 	 79.4449 	 45.786
| 40> H 	 1.28577 	 71.089 	 44.9163
| 41> *
| 42>
| 43>                          ****END OF INPUT****

CARTESIAN COORDINATES (ANGSTROEM)
---------------------------------
  S      1.543170   77.075400   44.949600
  C      1.618060   78.370200   46.070500
  C      1.844070   78.017000   47.372000
  C      1.799870   76.575200   47.495200
  C      1.514100   75.889600   46.331700
  H      1.950110   75.992500   48.393800
  C      2.078560   79.021200   48.509100
  H      1.312690   79.829600   48.344300
  H      3.046860   79.552900   48.257600
  C      2.056130   78.415600   49.909400
  H      2.011810   79.334500   50.497600
  H      1.171930   77.874600   50.284000
  C      3.331850   77.676800   50.338400
  H      3.468290   76.757900   49.683200
  H      4.214270   78.306200   50.197200
  H      3.295450   77.427800   51.376800
  S      1.867240   73.595000   44.767700
  C      1.165860   72.079000   45.299400
  C      0.497946   72.218400   46.498200
  C      0.475031   73.625900   46.970900
  C      1.215190   74.450600   46.162300
  H     -0.121761   71.462800   46.971300
  C     -0.350711   74.020000   48.182000
  H     -1.271150   74.402000   47.864100
  H      0.185332   74.880300   48.695700
  C     -0.642785   73.004300   49.349000
  H     -1.317610   72.230300   48.961000
  H     -1.143500   73.420700   50.213000
  C      0.675841   72.486000   49.938600
  H      0.664159   71.906500   50.857400
  H      1.399450   73.342400   50.067900
  H      1.175210   71.751600   49.303000
  H      1.464700   79.444900   45.786000
  H      1.285770   71.089000   44.916300

 Total Charge           Charge          ....    0
 Multiplicity           Mult            ....    1
 Number of Electrons    NEL             ....  134
 Basis Dimension        Dim             ....  322

ORBITAL ENERGIES
----------------

  NO   OCC          E(Eh)            E(eV)
   0   2.0000     -88.966888     -2420.9121
   1   2.0000     -88.963939     -2420.8318
   2   2.0000     -10.333976      -281.2018
   3   2.0000     -10.329697      -281.0854
   4   2.0000     -10.318114      -280.7702
   5   2.0000     -10.311050      -280.5779
   6   2.0000     -10.306820      -280.4628
   7   2.0000     -10.306776      -280.4616
   8   2.0000     -10.299705      -280.2692
   9   2.0000     -10.297187      -280.2007
  10   2.0000     -10.296465      -280.1811
  11   2.0000     -10.293951      -280.1126
  12   2.0000     -10.293726      -280.1065
  13   2.0000     -10.291918      -280.0573
  14   2.0000     -10.283345      -279.8241
  15   2.0000     -10.279340      -279.7151
  16   2.0000      -8.081353      -219.9048
  17   2.0000      -8.078386      -219.8241
  18   2.0000      -6.040182      -164.3617
  19   2.0000      -6.037006      -164.2753
  20   2.0000      -6.035879      -164.2446
  21   2.0000      -6.033063      -164.1680
  22   2.0000      -6.031811      -164.1339
  23   2.0000      -6.028942      -164.0559
  24   2.0000      -1.000653       -27.2291
  25   2.0000      -0.980495       -26.6806
  26   2.0000      -0.910242       -24.7689
  27   2.0000      -0.905202       -24.6318
  28   2.0000      -0.869859       -23.6701
  29   2.0000      -0.847366       -23.0580
  30   2.0000      -0.839799       -22.8521
  31   2.0000      -0.818421       -22.2704
  32   2.0000      -0.782792       -21.3009
  33   2.0000      -0.771705       -20.9992
  34   2.0000      -0.710449       -19.3323
  35   2.0000      -0.699033       -19.0217
  36   2.0000      -0.689377       -18.7589
  37   2.0000      -0.658513       -17.9190
  38   2.0000      -0.637781       -17.3549
  39   2.0000      -0.621566       -16.9137
  40   2.0000      -0.591807       -16.1039
  41   2.0000      -0.568220       -15.4621
  42   2.0000      -0.561680       -15.2841
  43   2.0000      -0.548799       -14.9336
  44   2.0000      -0.538117       -14.6429
  45   2.0000      -0.525221       -14.2920
  46   2.0000      -0.520192       -14.1552
  47   2.0000      -0.507124       -13.7995
  48   2.0000      -0.499015       -13.5789
  49   2.0000      -0.494190       -13.4476
  50   2.0000      -0.492270       -13.3954
  51   2.0000      -0.487570       -13.2675
  52   2.0000      -0.468885       -12.7590
  53   2.0000      -0.462297       -12.5797
  54   2.0000      -0.456461       -12.4209
  55   2.0000      -0.447592       -12.1796
  56   2.0000      -0.445557       -12.1242
  57   2.0000      -0.439137       -11.9495
  58   2.0000      -0.436918       -11.8891
  59   2.0000      -0.430966       -11.7272
  60   2.0000      -0.420617       -11.4456
  61   2.0000      -0.408248       -11.1090
  62   2.0000      -0.407551       -11.0900
  63   2.0000      -0.355707        -9.6793
  64   2.0000      -0.330470        -8.9926
  65   2.0000      -0.325066        -8.8455
  66   2.0000      -0.285741        -7.7754
  67   0.0000       0.028051         0.7633
  68   0.0000       0.070293         1.9128
  69   0.0000       0.103777         2.8239
  70   0.0000       0.120017         3.2658
  71   0.0000       0.125155         3.4056

MULLIKEN ATOMIC CHARGES
-----------------------
   0 S :    0.106155
   1 C :   -0.143448
   2 C :   -0.080978
   3 C :    0.004106
   4 C :   -0.140344
   5 H :    0.019751
   6 C :    0.035598
   7 H :    0.042461
   8 H :    0.052821
   9 C :   -0.081388
  10 H :    0.024082
  11 H :    0.040680
  12 C :   -0.052090
  13 H :    0.042546
  14 H :    0.028960
  15 H :    0.036511
  16 S :    0.105267
  17 C :   -0.062487
  18 C :   -0.037978
  19 C :   -0.065447
  20 C :   -0.140450
  21 H :    0.024551
  22 C :    0.059825
  23 H :    0.032818
  24 H :    0.022198
  25 C :   -0.067683
  26 H :    0.032799
  27 H :    0.035542
  28 C :   -0.074506
  29 H :    0.030937
  30 H :    0.034104
  31 H :    0.025402
  32 H :    0.059037
  33 H :    0.050647
Sum of atomic charges:   -0.0000000

LOEWDIN ATOMIC CHARGES
----------------------
   0 S :    0.381591
   1 C :   -0.211300
   2 C :   -0.072266
   3 C :   -0.062153
   4 C :   -0.168718
   5 H :    0.027301
   6 C :   -0.035767
   7 H :    0.039468
   8 H :    0.044453
   9 C :   -0.055906
  10 H :    0.030127
  11 H :    0.029985
  12 C :   -0.064441
  13 H :    0.030019
  14 H :    0.025655
  15 H :    0.024129
  16 S :    0.395454
  17 C :   -0.181910
  18 C :   -0.068042
  19 C :   -0.054416
  20 C :   -0.193939
  21 H :    0.030654
  22 C :   -0.030043
  23 H :    0.027671
  24 H :    0.035040
  25 C :   -0.041292
  26 H :    0.021139
  27 H :    0.029418
  28 C :   -0.077179
  29 H :    0.023921
  30 H :    0.030501
  31 H :    0.023430
  32 H :    0.036839
  33 H :    0.030579

  Mayer bond orders larger than 0.100000
B(  0-S ,  1-C ) :   1.1434 B(  0-S ,  4-C ) :   1.1191 B(  1-C ,  2-C ) :   1.6455
B(  1-C , 32-H ) :   0.9590 B(  2-C ,  3-C ) :   1.2257 B(  2-C ,  6-C ) :   0.9992
B(  3-C ,  4-C ) :   1.6120 B(  3-C ,  5-H ) :   0.9744 B(  4-C , 20-C ) :   1.0437
B(  6-C ,  7-H ) :   0.9442 B(  6-C ,  8-H ) :   0.9372 B(  6-C ,  9-C ) :   1.0706
B(  9-C , 10-H ) :   0.9467 B(  9-C , 11-H ) :   0.9569 B(  9-C , 12-C ) :   1.0753
B( 12-C , 13-H ) :   0.9769 B( 12-C , 14-H ) :   0.9712 B( 12-C , 15-H ) :   0.9724
B( 16-S , 17-C ) :   1.1351 B( 16-S , 20-C ) :   1.1170 B( 17-C , 18-C ) :   1.6464
B( 17-C , 33-H ) :   0.9648 B( 18-C , 19-C ) :   1.2170 B( 18-C , 21-H ) :   0.9782
B( 19-C , 20-C ) :   1.6468 B( 19-C , 22-C ) :   1.0226 B( 22-C , 23-H ) :   0.9295
B( 22-C , 24-H ) :   0.9368 B( 22-C , 25-C ) :   1.0783 B( 25-C , 26-H ) :   0.9510
B( 25-C , 27-H ) :   0.9575 B( 25-C , 28-C ) :   1.0651 B( 28-C , 29-H ) :   0.9763
B( 28-C , 30-H ) :   0.9742 B( 28-C , 31-H ) :   0.9722

Dispersion correction           -0.014704387
FINAL SINGLE POINT ENERGY     -1339.873046151768

DIPOLE MOMENT
-------------
                                X             Y             Z
Electronic contribution:      1.33388      -1.53230     -30.28489
Nuclear contribution   :     -1.55535       1.65379      31.11315
                        -----------------------------------------
Total Dipole Moment    :     -0.22148       0.12149       0.82825
                        -----------------------------------------
Magnitude (a.u.)       :      0.86592
Magnitude (Debye)      :      2.20099

Rotational constants in cm-1:     0.016689     0.010096     0.006952
Rotational constants in MHz :   500.321451   302.657737   208.410533

                             ****ORCA TERMINATED NORMALLY****
TOTAL RUN TIME: 0 days 0 hours 0 minutes 35 seconds 278 msec
