                         Program Version 4.2.1 -  RELEASE  -
|  1> ! wB97X-D3 SP def2-SVP
|  2> %pal
|  3> nprocs 16
|  4> end
|  5>
|  6> * xyz 0 1
|  7> S 	 4.52695 	 -12.4875 	 58.1482
|  8> C 	 4.90554 	 -11.7007 	 59.6894
|  9> C 	 4.50468 	 -12.4326 	 60.7657
| 10> C 	 3.88228 	 -13.6327 	 60.3395
| 11> C 	 3.7907 	 -13.8371 	 59.0449
| 12> H 	 3.39491 	 -14.261 	 61.0234
| 13> C 	 4.56405 	 -11.9471 	 62.2053
| 14> H 	 3.53967 	 -11.9506 	 62.5422
| 15> H 	 4.74843 	 -10.8637 	 62.3319
| 16> C 	 5.41004 	 -12.741 	 63.1794
| 17> H 	 5.17279 	 -13.7551 	 62.9646
| 18> H 	 6.46289 	 -12.6497 	 62.8763
| 19> C 	 5.27364 	 -12.3574 	 64.6664
| 20> H 	 5.71225 	 -13.105 	 65.2927
| 21> H 	 5.71383 	 -11.3986 	 64.9449
| 22> H 	 4.30128 	 -12.4287 	 65.1175
| 23> S 	 3.74078 	 -15.4572 	 56.8079
| 24> C 	 2.56138 	 -16.6449 	 56.6647
| 25> C 	 1.77254 	 -16.724 	 57.7789
| 26> C 	 2.165 	 -15.7947 	 58.7401
| 27> C 	 3.32582 	 -15.0772 	 58.4116
| 28> H 	 0.802705 	 -17.2329 	 57.7233
| 29> C 	 1.39981 	 -15.7484 	 59.9945
| 30> H 	 0.357586 	 -15.6404 	 59.6712
| 31> H 	 1.43138 	 -14.8022 	 60.5059
| 32> C 	 1.72239 	 -16.8451 	 60.951
| 33> H 	 2.8044 	 -16.8552 	 61.1112
| 34> H 	 1.36125 	 -17.8431 	 60.5652
| 35> C 	 1.079 	 -16.6197 	 62.3515
| 36> H 	 0.0444399 	 -16.6315 	 62.2619
| 37> H 	 1.25146 	 -15.5588 	 62.7176
| 38> H 	 1.4176 	 -17.3285 	 63.0998
| 39> H 	 5.34558 	 -10.6879 	 59.8046
| 40> H 	 2.49033 	 -17.2182 	 55.7531
| 41> *
| 42>
| 43>                          ****END OF INPUT****

CARTESIAN COORDINATES (ANGSTROEM)
---------------------------------
  S      4.526950  -12.487500   58.148200
  C      4.905540  -11.700700   59.689400
  C      4.504680  -12.432600   60.765700
  C      3.882280  -13.632700   60.339500
  C      3.790700  -13.837100   59.044900
  H      3.394910  -14.261000   61.023400
  C      4.564050  -11.947100   62.205300
  H      3.539670  -11.950600   62.542200
  H      4.748430  -10.863700   62.331900
  C      5.410040  -12.741000   63.179400
  H      5.172790  -13.755100   62.964600
  H      6.462890  -12.649700   62.876300
  C      5.273640  -12.357400   64.666400
  H      5.712250  -13.105000   65.292700
  H      5.713830  -11.398600   64.944900
  H      4.301280  -12.428700   65.117500
  S      3.740780  -15.457200   56.807900
  C      2.561380  -16.644900   56.664700
  C      1.772540  -16.724000   57.778900
  C      2.165000  -15.794700   58.740100
  C      3.325820  -15.077200   58.411600
  H      0.802705  -17.232900   57.723300
  C      1.399810  -15.748400   59.994500
  H      0.357586  -15.640400   59.671200
  H      1.431380  -14.802200   60.505900
  C      1.722390  -16.845100   60.951000
  H      2.804400  -16.855200   61.111200
  H      1.361250  -17.843100   60.565200
  C      1.079000  -16.619700   62.351500
  H      0.044440  -16.631500   62.261900
  H      1.251460  -15.558800   62.717600
  H      1.417600  -17.328500   63.099800
  H      5.345580  -10.687900   59.804600
  H      2.490330  -17.218200   55.753100

 Total Charge           Charge          ....    0
 Multiplicity           Mult            ....    1
 Number of Electrons    NEL             ....  134
 Basis Dimension        Dim             ....  322

ORBITAL ENERGIES
----------------

  NO   OCC          E(Eh)            E(eV)
   0   2.0000     -88.965274     -2420.8682
   1   2.0000     -88.964040     -2420.8346
   2   2.0000     -10.325559      -280.9727
   3   2.0000     -10.322400      -280.8868
   4   2.0000     -10.313093      -280.6335
   5   2.0000     -10.311563      -280.5919
   6   2.0000     -10.296764      -280.1892
   7   2.0000     -10.296605      -280.1849
   8   2.0000     -10.291674      -280.0507
   9   2.0000     -10.290148      -280.0092
  10   2.0000     -10.288945      -279.9764
  11   2.0000     -10.285857      -279.8924
  12   2.0000     -10.282825      -279.8099
  13   2.0000     -10.279148      -279.7098
  14   2.0000     -10.279035      -279.7068
  15   2.0000     -10.277590      -279.6674
  16   2.0000      -8.082351      -219.9319
  17   2.0000      -8.078189      -219.8187
  18   2.0000      -6.040499      -164.3703
  19   2.0000      -6.036899      -164.2724
  20   2.0000      -6.036370      -164.2580
  21   2.0000      -6.033541      -164.1810
  22   2.0000      -6.032987      -164.1659
  23   2.0000      -6.028578      -164.0459
  24   2.0000      -1.020350       -27.7651
  25   2.0000      -0.993377       -27.0312
  26   2.0000      -0.921680       -25.0802
  27   2.0000      -0.912123       -24.8201
  28   2.0000      -0.873384       -23.7660
  29   2.0000      -0.857922       -23.3453
  30   2.0000      -0.846778       -23.0420
  31   2.0000      -0.820699       -22.3323
  32   2.0000      -0.787433       -21.4271
  33   2.0000      -0.776300       -21.1242
  34   2.0000      -0.710138       -19.3238
  35   2.0000      -0.704144       -19.1607
  36   2.0000      -0.696907       -18.9638
  37   2.0000      -0.666161       -18.1272
  38   2.0000      -0.639454       -17.4004
  39   2.0000      -0.631611       -17.1870
  40   2.0000      -0.609244       -16.5784
  41   2.0000      -0.568615       -15.4728
  42   2.0000      -0.563996       -15.3471
  43   2.0000      -0.558477       -15.1969
  44   2.0000      -0.538451       -14.6520
  45   2.0000      -0.523699       -14.2506
  46   2.0000      -0.520284       -14.1577
  47   2.0000      -0.513749       -13.9798
  48   2.0000      -0.505132       -13.7453
  49   2.0000      -0.499221       -13.5845
  50   2.0000      -0.494550       -13.4574
  51   2.0000      -0.481608       -13.1052
  52   2.0000      -0.473725       -12.8907
  53   2.0000      -0.464981       -12.6528
  54   2.0000      -0.460810       -12.5393
  55   2.0000      -0.454303       -12.3622
  56   2.0000      -0.449684       -12.2365
  57   2.0000      -0.441776       -12.0213
  58   2.0000      -0.433999       -11.8097
  59   2.0000      -0.426527       -11.6064
  60   2.0000      -0.424237       -11.5441
  61   2.0000      -0.412437       -11.2230
  62   2.0000      -0.408252       -11.1091
  63   2.0000      -0.362083        -9.8528
  64   2.0000      -0.336164        -9.1475
  65   2.0000      -0.330218        -8.9857
  66   2.0000      -0.286725        -7.8022
  67   0.0000       0.031072         0.8455
  68   0.0000       0.082408         2.2424
  69   0.0000       0.107076         2.9137
  70   0.0000       0.122750         3.3402
  71   0.0000       0.130281         3.5451

MULLIKEN ATOMIC CHARGES
-----------------------
   0 S :    0.089080
   1 C :   -0.148855
   2 C :   -0.042416
   3 C :    0.000114
   4 C :   -0.080467
   5 H :   -0.022945
   6 C :    0.058525
   7 H :    0.016492
   8 H :    0.012574
   9 C :   -0.050989
  10 H :    0.013877
  11 H :    0.031015
  12 C :   -0.030386
  13 H :    0.019936
  14 H :    0.039287
  15 H :    0.017324
  16 S :    0.105318
  17 C :   -0.096200
  18 C :   -0.021075
  19 C :   -0.091987
  20 C :   -0.097496
  21 H :    0.033735
  22 C :    0.052751
  23 H :    0.017265
  24 H :   -0.000766
  25 C :   -0.059477
  26 H :    0.037951
  27 H :    0.039485
  28 C :   -0.036851
  29 H :    0.013561
  30 H :    0.022974
  31 H :    0.044870
  32 H :    0.055815
  33 H :    0.057961
Sum of atomic charges:   -0.0000000

LOEWDIN ATOMIC CHARGES
----------------------
   0 S :    0.366759
   1 C :   -0.188203
   2 C :   -0.062346
   3 C :   -0.067876
   4 C :   -0.166683
   5 H :    0.020710
   6 C :   -0.036120
   7 H :    0.028975
   8 H :    0.029385
   9 C :   -0.038324
  10 H :    0.019290
  11 H :    0.029488
  12 C :   -0.069597
  13 H :    0.028508
  14 H :    0.028368
  15 H :    0.024149
  16 S :    0.460168
  17 C :   -0.199254
  18 C :   -0.079000
  19 C :   -0.052374
  20 C :   -0.218829
  21 H :    0.040050
  22 C :   -0.047087
  23 H :    0.035154
  24 H :    0.023588
  25 C :   -0.035293
  26 H :    0.027124
  27 H :    0.030858
  28 C :   -0.064175
  29 H :    0.014020
  30 H :    0.027368
  31 H :    0.027367
  32 H :    0.036078
  33 H :    0.027754

  Mayer bond orders larger than 0.100000
B(  0-S ,  1-C ) :   1.1167 B(  0-S ,  4-C ) :   1.1043 B(  1-C ,  2-C ) :   1.6545
B(  1-C , 32-H ) :   0.9586 B(  2-C ,  3-C ) :   1.2107 B(  2-C ,  6-C ) :   1.0190
B(  3-C ,  4-C ) :   1.6285 B(  3-C ,  5-H ) :   1.0010 B(  4-C , 20-C ) :   1.0505
B(  6-C ,  7-H ) :   0.9368 B(  6-C ,  8-H ) :   0.9420 B(  6-C ,  9-C ) :   1.0573
B(  9-C , 10-H ) :   0.9573 B(  9-C , 11-H ) :   0.9524 B(  9-C , 12-C ) :   1.0833
B( 12-C , 13-H ) :   0.9690 B( 12-C , 14-H ) :   0.9759 B( 12-C , 15-H ) :   0.9713
B( 16-S , 17-C ) :   1.2145 B( 16-S , 20-C ) :   1.1503 B( 17-C , 18-C ) :   1.5316
B( 17-C , 33-H ) :   0.9693 B( 18-C , 19-C ) :   1.3167 B( 18-C , 21-H ) :   0.9910
B( 19-C , 20-C ) :   1.5168 B( 19-C , 22-C ) :   1.0614 B( 22-C , 23-H ) :   0.9157
B( 22-C , 24-H ) :   0.9241 B( 22-C , 25-C ) :   1.0622 B( 25-C , 26-H ) :   0.9538
B( 25-C , 27-H ) :   0.9508 B( 25-C , 28-C ) :   1.0816 B( 28-C , 29-H ) :   0.9732
B( 28-C , 30-H ) :   0.9726 B( 28-C , 31-H ) :   0.9752

Dispersion correction           -0.014042777
FINAL SINGLE POINT ENERGY     -1339.872799913043

DIPOLE MOMENT
-------------
                                X             Y             Z
Electronic contribution:      5.94118       2.22160     -32.95509
Nuclear contribution   :     -6.42057      -2.34198      33.53329
                        -----------------------------------------
Total Dipole Moment    :     -0.47939      -0.12038       0.57820
                        -----------------------------------------
Magnitude (a.u.)       :      0.76067
Magnitude (Debye)      :      1.93347

Rotational constants in cm-1:     0.017568     0.009377     0.006431
Rotational constants in MHz :   526.667497   281.102276   192.784494

                             ****ORCA TERMINATED NORMALLY****
TOTAL RUN TIME: 0 days 0 hours 0 minutes 29 seconds 736 msec
