                         Program Version 4.2.1 -  RELEASE  -
|  1> ! wB97X-D3 SP def2-SVP
|  2> %pal
|  3> nprocs 16
|  4> end
|  5>
|  6> * xyz 0 1
|  7> S 	 -0.152532 	 -13.3686 	 70.5447
|  8> C 	 0.688615 	 -14.2362 	 69.2698
|  9> C 	 1.52006 	 -15.2003 	 69.7776
| 10> C 	 1.67222 	 -15.0255 	 71.1818
| 11> C 	 0.930969 	 -14.0248 	 71.7774
| 12> H 	 2.19557 	 -15.6517 	 71.8911
| 13> C 	 2.22955 	 -16.1929 	 68.9092
| 14> H 	 3.27483 	 -15.7491 	 68.8735
| 15> H 	 1.81095 	 -16.2456 	 67.9193
| 16> C 	 2.40022 	 -17.6713 	 69.4793
| 17> H 	 3.09841 	 -17.5898 	 70.3641
| 18> H 	 1.49541 	 -18.0806 	 69.9376
| 19> C 	 2.99189 	 -18.7009 	 68.517
| 20> H 	 2.52017 	 -18.5738 	 67.5542
| 21> H 	 4.05819 	 -18.643 	 68.3346
| 22> H 	 2.85284 	 -19.7323 	 68.9091
| 23> S 	 -0.748934 	 -13.0267 	 73.6516
| 24> C 	 -0.26758 	 -12.8085 	 75.2976
| 25> C 	 1.05456 	 -13.1562 	 75.454
| 26> C 	 1.6741 	 -13.7534 	 74.303
| 27> C 	 0.789391 	 -13.7807 	 73.2203
| 28> H 	 1.60828 	 -13.0682 	 76.4498
| 29> C 	 3.03445 	 -14.2478 	 74.4614
| 30> H 	 3.76307 	 -13.643 	 73.953
| 31> H 	 3.22578 	 -15.1859 	 73.9929
| 32> C 	 3.64611 	 -14.4241 	 75.8709
| 33> H 	 2.93597 	 -15.1153 	 76.4043
| 34> H 	 3.67555 	 -13.5664 	 76.4962
| 35> C 	 5.11149 	 -14.9857 	 76.072
| 36> H 	 5.86691 	 -14.2347 	 75.8931
| 37> H 	 5.25729 	 -15.8265 	 75.3726
| 38> H 	 5.18909 	 -15.246 	 77.1115
| 39> H 	 0.294065 	 -14.23 	 68.2388
| 40> H 	 -0.911781 	 -12.2831 	 75.9874
| 41> *
| 42>
| 43>                          ****END OF INPUT****

CARTESIAN COORDINATES (ANGSTROEM)
---------------------------------
  S     -0.152532  -13.368600   70.544700
  C      0.688615  -14.236200   69.269800
  C      1.520060  -15.200300   69.777600
  C      1.672220  -15.025500   71.181800
  C      0.930969  -14.024800   71.777400
  H      2.195570  -15.651700   71.891100
  C      2.229550  -16.192900   68.909200
  H      3.274830  -15.749100   68.873500
  H      1.810950  -16.245600   67.919300
  C      2.400220  -17.671300   69.479300
  H      3.098410  -17.589800   70.364100
  H      1.495410  -18.080600   69.937600
  C      2.991890  -18.700900   68.517000
  H      2.520170  -18.573800   67.554200
  H      4.058190  -18.643000   68.334600
  H      2.852840  -19.732300   68.909100
  S     -0.748934  -13.026700   73.651600
  C     -0.267580  -12.808500   75.297600
  C      1.054560  -13.156200   75.454000
  C      1.674100  -13.753400   74.303000
  C      0.789391  -13.780700   73.220300
  H      1.608280  -13.068200   76.449800
  C      3.034450  -14.247800   74.461400
  H      3.763070  -13.643000   73.953000
  H      3.225780  -15.185900   73.992900
  C      3.646110  -14.424100   75.870900
  H      2.935970  -15.115300   76.404300
  H      3.675550  -13.566400   76.496200
  C      5.111490  -14.985700   76.072000
  H      5.866910  -14.234700   75.893100
  H      5.257290  -15.826500   75.372600
  H      5.189090  -15.246000   77.111500
  H      0.294065  -14.230000   68.238800
  H     -0.911781  -12.283100   75.987400

 Total Charge           Charge          ....    0
 Multiplicity           Mult            ....    1
 Number of Electrons    NEL             ....  134
 Basis Dimension        Dim             ....  322

ORBITAL ENERGIES
----------------

  NO   OCC          E(Eh)            E(eV)
   0   2.0000     -88.963803     -2420.8281
   1   2.0000     -88.962856     -2420.8024
   2   2.0000     -10.333414      -281.1865
   3   2.0000     -10.331171      -281.1254
   4   2.0000     -10.316816      -280.7348
   5   2.0000     -10.312464      -280.6164
   6   2.0000     -10.307458      -280.4802
   7   2.0000     -10.302407      -280.3428
   8   2.0000     -10.301285      -280.3122
   9   2.0000     -10.298199      -280.2282
  10   2.0000     -10.296191      -280.1736
  11   2.0000     -10.292471      -280.0724
  12   2.0000     -10.291100      -280.0351
  13   2.0000     -10.289979      -280.0046
  14   2.0000     -10.285924      -279.8942
  15   2.0000     -10.281389      -279.7708
  16   2.0000      -8.079059      -219.8424
  17   2.0000      -8.077310      -219.7948
  18   2.0000      -6.037526      -164.2894
  19   2.0000      -6.036011      -164.2482
  20   2.0000      -6.033509      -164.1801
  21   2.0000      -6.031994      -164.1389
  22   2.0000      -6.029826      -164.0799
  23   2.0000      -6.027755      -164.0235
  24   2.0000      -1.007421       -27.4133
  25   2.0000      -0.985747       -26.8236
  26   2.0000      -0.914801       -24.8930
  27   2.0000      -0.905790       -24.6478
  28   2.0000      -0.870190       -23.6791
  29   2.0000      -0.855255       -23.2727
  30   2.0000      -0.843970       -22.9656
  31   2.0000      -0.816167       -22.2090
  32   2.0000      -0.787435       -21.4272
  33   2.0000      -0.772786       -21.0286
  34   2.0000      -0.712139       -19.3783
  35   2.0000      -0.703974       -19.1561
  36   2.0000      -0.691178       -18.8079
  37   2.0000      -0.653469       -17.7818
  38   2.0000      -0.640039       -17.4163
  39   2.0000      -0.622561       -16.9407
  40   2.0000      -0.609195       -16.5770
  41   2.0000      -0.569036       -15.4843
  42   2.0000      -0.561769       -15.2865
  43   2.0000      -0.559604       -15.2276
  44   2.0000      -0.533163       -14.5081
  45   2.0000      -0.523423       -14.2431
  46   2.0000      -0.514925       -14.0118
  47   2.0000      -0.506402       -13.7799
  48   2.0000      -0.502946       -13.6858
  49   2.0000      -0.500403       -13.6166
  50   2.0000      -0.497178       -13.5289
  51   2.0000      -0.482644       -13.1334
  52   2.0000      -0.479617       -13.0511
  53   2.0000      -0.468380       -12.7453
  54   2.0000      -0.461906       -12.5691
  55   2.0000      -0.457695       -12.4545
  56   2.0000      -0.448777       -12.2118
  57   2.0000      -0.436210       -11.8699
  58   2.0000      -0.430452       -11.7132
  59   2.0000      -0.419906       -11.4262
  60   2.0000      -0.417271       -11.3545
  61   2.0000      -0.415689       -11.3115
  62   2.0000      -0.411100       -11.1866
  63   2.0000      -0.359481        -9.7820
  64   2.0000      -0.332678        -9.0526
  65   2.0000      -0.323803        -8.8111
  66   2.0000      -0.282907        -7.6983
  67   0.0000       0.019605         0.5335
  68   0.0000       0.076189         2.0732
  69   0.0000       0.103245         2.8094
  70   0.0000       0.123459         3.3595
  71   0.0000       0.136865         3.7243

MULLIKEN ATOMIC CHARGES
-----------------------
   0 S :    0.083594
   1 C :   -0.134716
   2 C :   -0.051147
   3 C :   -0.017669
   4 C :   -0.093840
   5 H :    0.001905
   6 C :    0.055884
   7 H :    0.058493
   8 H :    0.019137
   9 C :   -0.114954
  10 H :    0.032619
  11 H :    0.039606
  12 C :   -0.041688
  13 H :    0.027263
  14 H :    0.029907
  15 H :    0.041432
  16 S :    0.081478
  17 C :   -0.079057
  18 C :   -0.062047
  19 C :   -0.028317
  20 C :   -0.145689
  21 H :    0.047979
  22 C :    0.108272
  23 H :    0.024965
  24 H :    0.015990
  25 C :   -0.169849
  26 H :    0.035129
  27 H :    0.030190
  28 C :   -0.023879
  29 H :    0.035203
  30 H :    0.034452
  31 H :    0.037289
  32 H :    0.061536
  33 H :    0.060531
Sum of atomic charges:   -0.0000000

LOEWDIN ATOMIC CHARGES
----------------------
   0 S :    0.383648
   1 C :   -0.198745
   2 C :   -0.064472
   3 C :   -0.072085
   4 C :   -0.183256
   5 H :    0.026280
   6 C :   -0.030606
   7 H :    0.048244
   8 H :    0.024387
   9 C :   -0.047458
  10 H :    0.026299
  11 H :    0.025112
  12 C :   -0.068658
  13 H :    0.022564
  14 H :    0.023767
  15 H :    0.034447
  16 S :    0.406673
  17 C :   -0.189944
  18 C :   -0.077494
  19 C :   -0.057019
  20 C :   -0.182623
  21 H :    0.045017
  22 C :   -0.039252
  23 H :    0.036000
  24 H :    0.029148
  25 C :   -0.045242
  26 H :    0.025788
  27 H :    0.014182
  28 C :   -0.055539
  29 H :    0.023128
  30 H :    0.025230
  31 H :    0.029840
  32 H :    0.033270
  33 H :    0.029370

  Mayer bond orders larger than 0.100000
B(  0-S ,  1-C ) :   1.1294 B(  0-S ,  4-C ) :   1.1383 B(  1-C ,  2-C ) :   1.6089
B(  1-C , 32-H ) :   0.9623 B(  2-C ,  3-C ) :   1.2294 B(  2-C ,  6-C ) :   1.0340
B(  3-C ,  4-C ) :   1.5792 B(  3-C ,  5-H ) :   0.9971 B(  4-C , 20-C ) :   1.0793
B(  6-C ,  7-H ) :   0.9376 B(  6-C ,  8-H ) :   0.9444 B(  6-C ,  9-C ) :   1.0463
B(  9-C , 10-H ) :   0.9503 B(  9-C , 11-H ) :   0.9657 B(  9-C , 12-C ) :   1.0855
B( 12-C , 13-H ) :   0.9751 B( 12-C , 14-H ) :   0.9752 B( 12-C , 15-H ) :   0.9739
B( 16-S , 17-C ) :   1.1627 B( 16-S , 20-C ) :   1.1368 B( 17-C , 18-C ) :   1.5813
B( 17-C , 33-H ) :   0.9689 B( 18-C , 19-C ) :   1.2824 B( 18-C , 21-H ) :   0.9661
B( 19-C , 20-C ) :   1.5642 B( 19-C , 22-C ) :   1.0548 B( 22-C , 23-H ) :   0.9036
B( 22-C , 24-H ) :   0.9241 B( 22-C , 25-C ) :   1.0707 B( 25-C , 26-H ) :   0.9583
B( 25-C , 27-H ) :   0.9464 B( 25-C , 28-C ) :   1.0766 B( 28-C , 29-H ) :   0.9771
B( 28-C , 30-H ) :   0.9769 B( 28-C , 31-H ) :   0.9721

Dispersion correction           -0.012858363
FINAL SINGLE POINT ENERGY     -1339.867746955189

DIPOLE MOMENT
-------------
                                X             Y             Z
Electronic contribution:    -24.62546      19.89097      -1.55482
Nuclear contribution   :     25.23570     -20.34128       1.74573
                        -----------------------------------------
Total Dipole Moment    :      0.61024      -0.45031       0.19091
                        -----------------------------------------
Magnitude (a.u.)       :      0.78206
Magnitude (Debye)      :      1.98784

Rotational constants in cm-1:     0.015931     0.008335     0.005780
Rotational constants in MHz :   477.610042   249.878419   173.281243

                             ****ORCA TERMINATED NORMALLY****
TOTAL RUN TIME: 0 days 0 hours 0 minutes 33 seconds 112 msec
