                         Program Version 4.2.1 -  RELEASE  -
|  1> ! wB97X-D3 SP def2-SVP
|  2> %pal
|  3> nprocs 16
|  4> end
|  5>
|  6> * xyz 0 1
|  7> S 	 65.4514 	 27.5015 	 70.363
|  8> C 	 65.5391 	 26.2137 	 69.2114
|  9> C 	 66.6316 	 25.4722 	 69.4447
| 10> C 	 67.4945 	 26.1096 	 70.4665
| 11> C 	 66.9088 	 27.0727 	 71.1741
| 12> H 	 68.5063 	 25.7916 	 70.6481
| 13> C 	 67.2576 	 24.4202 	 68.5447
| 14> H 	 67.4652 	 23.5284 	 69.1478
| 15> H 	 68.219 	 24.8242 	 68.1363
| 16> C 	 66.3739 	 23.98 	 67.3983
| 17> H 	 65.555 	 23.429 	 67.9018
| 18> H 	 65.9899 	 24.9484 	 66.8818
| 19> C 	 67.1044 	 23.0832 	 66.3928
| 20> H 	 67.6496 	 23.6711 	 65.6846
| 21> H 	 67.7507 	 22.2764 	 66.8607
| 22> H 	 66.3626 	 22.4824 	 65.7807
| 23> S 	 67.5783 	 29.5547 	 72.2006
| 24> C 	 68.1325 	 29.6297 	 73.8273
| 25> C 	 68.3174 	 28.375 	 74.401
| 26> C 	 67.8577 	 27.3366 	 73.5213
| 27> C 	 67.3995 	 27.7973 	 72.3111
| 28> H 	 68.6163 	 28.4389 	 75.3959
| 29> C 	 67.9778 	 25.8927 	 74.0027
| 30> H 	 67.6672 	 25.2955 	 73.1506
| 31> H 	 67.2187 	 25.6694 	 74.7448
| 32> C 	 69.4169 	 25.4183 	 74.2999
| 33> H 	 69.5302 	 24.4371 	 74.6469
| 34> H 	 69.8731 	 26.0475 	 75.0848
| 35> C 	 70.5219 	 25.7313 	 73.1544
| 36> H 	 71.3115 	 25.0145 	 73.2604
| 37> H 	 70.8791 	 26.7747 	 73.1985
| 38> H 	 70.2017 	 25.5071 	 72.1285
| 39> H 	 64.8807 	 25.9179 	 68.3839
| 40> H 	 68.1264 	 30.5629 	 74.3628
| 41> *
| 42>
| 43>                          ****END OF INPUT****

CARTESIAN COORDINATES (ANGSTROEM)
---------------------------------
  S     65.451400   27.501500   70.363000
  C     65.539100   26.213700   69.211400
  C     66.631600   25.472200   69.444700
  C     67.494500   26.109600   70.466500
  C     66.908800   27.072700   71.174100
  H     68.506300   25.791600   70.648100
  C     67.257600   24.420200   68.544700
  H     67.465200   23.528400   69.147800
  H     68.219000   24.824200   68.136300
  C     66.373900   23.980000   67.398300
  H     65.555000   23.429000   67.901800
  H     65.989900   24.948400   66.881800
  C     67.104400   23.083200   66.392800
  H     67.649600   23.671100   65.684600
  H     67.750700   22.276400   66.860700
  H     66.362600   22.482400   65.780700
  S     67.578300   29.554700   72.200600
  C     68.132500   29.629700   73.827300
  C     68.317400   28.375000   74.401000
  C     67.857700   27.336600   73.521300
  C     67.399500   27.797300   72.311100
  H     68.616300   28.438900   75.395900
  C     67.977800   25.892700   74.002700
  H     67.667200   25.295500   73.150600
  H     67.218700   25.669400   74.744800
  C     69.416900   25.418300   74.299900
  H     69.530200   24.437100   74.646900
  H     69.873100   26.047500   75.084800
  C     70.521900   25.731300   73.154400
  H     71.311500   25.014500   73.260400
  H     70.879100   26.774700   73.198500
  H     70.201700   25.507100   72.128500
  H     64.880700   25.917900   68.383900
  H     68.126400   30.562900   74.362800

 Total Charge           Charge          ....    0
 Multiplicity           Mult            ....    1
 Number of Electrons    NEL             ....  134
 Basis Dimension        Dim             ....  322

ORBITAL ENERGIES
----------------

  NO   OCC          E(Eh)            E(eV)
   0   2.0000     -88.964129     -2420.8370
   1   2.0000     -88.958223     -2420.6763
   2   2.0000     -10.325708      -280.9768
   3   2.0000     -10.319988      -280.8212
   4   2.0000     -10.315346      -280.6948
   5   2.0000     -10.310387      -280.5599
   6   2.0000     -10.307380      -280.4781
   7   2.0000     -10.296479      -280.1814
   8   2.0000     -10.295762      -280.1619
   9   2.0000     -10.293992      -280.1138
  10   2.0000     -10.290748      -280.0255
  11   2.0000     -10.290655      -280.0230
  12   2.0000     -10.290605      -280.0216
  13   2.0000     -10.288349      -279.9602
  14   2.0000     -10.287856      -279.9468
  15   2.0000     -10.281340      -279.7695
  16   2.0000      -8.079405      -219.8518
  17   2.0000      -8.074230      -219.7110
  18   2.0000      -6.037814      -164.2973
  19   2.0000      -6.033861      -164.1897
  20   2.0000      -6.032965      -164.1653
  21   2.0000      -6.030216      -164.0905
  22   2.0000      -6.028529      -164.0446
  23   2.0000      -6.024669      -163.9396
  24   2.0000      -1.014101       -27.5951
  25   2.0000      -0.989348       -26.9215
  26   2.0000      -0.916564       -24.9410
  27   2.0000      -0.902211       -24.5504
  28   2.0000      -0.874959       -23.8088
  29   2.0000      -0.845399       -23.0045
  30   2.0000      -0.840799       -22.8793
  31   2.0000      -0.818351       -22.2685
  32   2.0000      -0.783750       -21.3269
  33   2.0000      -0.774746       -21.0819
  34   2.0000      -0.713180       -19.4066
  35   2.0000      -0.703746       -19.1499
  36   2.0000      -0.689985       -18.7755
  37   2.0000      -0.661649       -18.0044
  38   2.0000      -0.636570       -17.3220
  39   2.0000      -0.612738       -16.6734
  40   2.0000      -0.594969       -16.1899
  41   2.0000      -0.580825       -15.8051
  42   2.0000      -0.573804       -15.6140
  43   2.0000      -0.551577       -15.0092
  44   2.0000      -0.541066       -14.7232
  45   2.0000      -0.525780       -14.3072
  46   2.0000      -0.514579       -14.0024
  47   2.0000      -0.508905       -13.8480
  48   2.0000      -0.507387       -13.8067
  49   2.0000      -0.504562       -13.7298
  50   2.0000      -0.488049       -13.2805
  51   2.0000      -0.474080       -12.9004
  52   2.0000      -0.472715       -12.8632
  53   2.0000      -0.464088       -12.6285
  54   2.0000      -0.460109       -12.5202
  55   2.0000      -0.449329       -12.2269
  56   2.0000      -0.448173       -12.1954
  57   2.0000      -0.435188       -11.8421
  58   2.0000      -0.428798       -11.6682
  59   2.0000      -0.425248       -11.5716
  60   2.0000      -0.416582       -11.3358
  61   2.0000      -0.412877       -11.2350
  62   2.0000      -0.404372       -11.0035
  63   2.0000      -0.347123        -9.4457
  64   2.0000      -0.333212        -9.0672
  65   2.0000      -0.321110        -8.7378
  66   2.0000      -0.303567        -8.2605
  67   0.0000       0.034639         0.9426
  68   0.0000       0.079920         2.1747
  69   0.0000       0.113366         3.0849
  70   0.0000       0.123098         3.3497
  71   0.0000       0.129623         3.5272

MULLIKEN ATOMIC CHARGES
-----------------------
   0 S :    0.100704
   1 C :   -0.113335
   2 C :   -0.107964
   3 C :    0.023797
   4 C :   -0.128241
   5 H :   -0.003864
   6 C :    0.042791
   7 H :    0.032428
   8 H :    0.044467
   9 C :   -0.143919
  10 H :    0.041791
  11 H :    0.048074
  12 C :   -0.043779
  13 H :    0.035443
  14 H :    0.040258
  15 H :    0.036582
  16 S :    0.111102
  17 C :   -0.106156
  18 C :   -0.023848
  19 C :   -0.034416
  20 C :   -0.150374
  21 H :    0.003491
  22 C :    0.113783
  23 H :    0.012812
  24 H :    0.041358
  25 C :   -0.074289
  26 H :    0.025720
  27 H :    0.028277
  28 C :   -0.071241
  29 H :    0.025174
  30 H :    0.057223
  31 H :    0.017343
  32 H :    0.058175
  33 H :    0.060632
Sum of atomic charges:   -0.0000000

LOEWDIN ATOMIC CHARGES
----------------------
   0 S :    0.409770
   1 C :   -0.204430
   2 C :   -0.072724
   3 C :   -0.055482
   4 C :   -0.203270
   5 H :    0.023449
   6 C :   -0.038467
   7 H :    0.031631
   8 H :    0.036622
   9 C :   -0.056063
  10 H :    0.027839
  11 H :    0.032676
  12 C :   -0.071331
  13 H :    0.022254
  14 H :    0.032210
  15 H :    0.033019
  16 S :    0.406869
  17 C :   -0.182491
  18 C :   -0.068244
  19 C :   -0.044058
  20 C :   -0.196144
  21 H :    0.025057
  22 C :   -0.032529
  23 H :    0.028407
  24 H :    0.034844
  25 C :   -0.033387
  26 H :    0.017029
  27 H :    0.024809
  28 C :   -0.066731
  29 H :    0.023921
  30 H :    0.032151
  31 H :    0.017719
  32 H :    0.038672
  33 H :    0.026403

  Mayer bond orders larger than 0.100000
B(  0-S ,  1-C ) :   1.1158 B(  0-S ,  4-C ) :   1.1219 B(  1-C ,  2-C ) :   1.6752
B(  1-C , 32-H ) :   0.9524 B(  2-C ,  3-C ) :   1.1954 B(  2-C ,  6-C ) :   1.0182
B(  3-C ,  4-C ) :   1.6280 B(  3-C ,  5-H ) :   1.0003 B(  4-C , 20-C ) :   1.0271
B(  6-C ,  7-H ) :   0.9261 B(  6-C ,  8-H ) :   0.9469 B(  6-C ,  9-C ) :   1.0823
B(  9-C , 10-H ) :   0.9549 B(  9-C , 11-H ) :   0.9454 B(  9-C , 12-C ) :   1.0809
B( 12-C , 13-H ) :   0.9749 B( 12-C , 14-H ) :   0.9730 B( 12-C , 15-H ) :   0.9730
B( 16-S , 17-C ) :   1.1698 B( 16-S , 20-C ) :   1.1339 B( 17-C , 18-C ) :   1.6143
B( 17-C , 33-H ) :   0.9655 B( 18-C , 19-C ) :   1.1983 B( 18-C , 21-H ) :   1.0061
B( 19-C , 20-C ) :   1.6221 B( 19-C , 22-C ) :   1.0410 B( 22-C , 23-H ) :   0.9279
B( 22-C , 24-H ) :   0.9379 B( 22-C , 25-C ) :   1.0564 B( 25-C , 26-H ) :   0.9666
B( 25-C , 27-H ) :   0.9591 B( 25-C , 28-C ) :   1.0547 B( 28-C , 29-H ) :   0.9717
B( 28-C , 30-H ) :   0.9777 B( 28-C , 31-H ) :   0.9789

Dispersion correction           -0.014520607
FINAL SINGLE POINT ENERGY     -1339.864730501029

DIPOLE MOMENT
-------------
                                X             Y             Z
Electronic contribution:    -11.76270      24.18751       6.90105
Nuclear contribution   :     12.14489     -24.73362      -6.84475
                        -----------------------------------------
Total Dipole Moment    :      0.38219      -0.54612       0.05630
                        -----------------------------------------
Magnitude (a.u.)       :      0.66894
Magnitude (Debye)      :      1.70031

Rotational constants in cm-1:     0.022057     0.007861     0.006297
Rotational constants in MHz :   661.261088   235.658840   188.772167

                             ****ORCA TERMINATED NORMALLY****
TOTAL RUN TIME: 0 days 0 hours 0 minutes 30 seconds 570 msec
