                         Program Version 4.2.1 -  RELEASE  -
|  1> ! wB97X-D3 SP def2-SVP
|  2> %pal
|  3> nprocs 16
|  4> end
|  5>
|  6> * xyz 0 1
|  7> S 	 40.8729 	 14.0212 	 72.2476
|  8> C 	 39.223 	 13.9771 	 72.8562
|  9> C 	 38.5208 	 15.058 	 72.3704
| 10> C 	 39.3478 	 16.0107 	 71.7405
| 11> C 	 40.6821 	 15.6303 	 71.6239
| 12> H 	 39.0467 	 17.0281 	 71.4758
| 13> C 	 37.0516 	 15.2504 	 72.5502
| 14> H 	 36.6935 	 16.0851 	 72.0043
| 15> H 	 36.8924 	 15.4688 	 73.6487
| 16> C 	 36.2526 	 13.9434 	 72.0634
| 17> H 	 36.2563 	 13.0401 	 72.6846
| 18> H 	 35.1958 	 14.1583 	 72.0511
| 19> C 	 36.4819 	 13.7261 	 70.5949
| 20> H 	 35.9422 	 12.813 	 70.2757
| 21> H 	 36.1209 	 14.5622 	 69.9695
| 22> H 	 37.5819 	 13.6644 	 70.3842
| 23> S 	 41.6574 	 16.9771 	 69.4183
| 24> C 	 43.2407 	 17.7167 	 69.5005
| 25> C 	 43.8461 	 17.5233 	 70.7302
| 26> C 	 42.9723 	 16.9152 	 71.6688
| 27> C 	 41.7406 	 16.5484 	 71.1271
| 28> H 	 44.9391 	 17.593 	 70.8875
| 29> C 	 43.5534 	 16.3636 	 72.9764
| 30> H 	 44.6544 	 16.7215 	 73.0814
| 31> H 	 43.4809 	 15.2673 	 72.8617
| 32> C 	 42.8508 	 16.895 	 74.2741
| 33> H 	 41.78 	 16.5762 	 74.2127
| 34> H 	 42.8894 	 17.9821 	 74.2385
| 35> C 	 43.2031 	 16.3035 	 75.5536
| 36> H 	 44.3307 	 16.369 	 75.7404
| 37> H 	 42.8664 	 15.3192 	 75.5894
| 38> H 	 42.5741 	 16.8477 	 76.3342
| 39> H 	 38.8732 	 13.0956 	 73.3613
| 40> H 	 43.8185 	 18.1969 	 68.6433
| 41> *
| 42>
| 43>                          ****END OF INPUT****

CARTESIAN COORDINATES (ANGSTROEM)
---------------------------------
  S     40.872900   14.021200   72.247600
  C     39.223000   13.977100   72.856200
  C     38.520800   15.058000   72.370400
  C     39.347800   16.010700   71.740500
  C     40.682100   15.630300   71.623900
  H     39.046700   17.028100   71.475800
  C     37.051600   15.250400   72.550200
  H     36.693500   16.085100   72.004300
  H     36.892400   15.468800   73.648700
  C     36.252600   13.943400   72.063400
  H     36.256300   13.040100   72.684600
  H     35.195800   14.158300   72.051100
  C     36.481900   13.726100   70.594900
  H     35.942200   12.813000   70.275700
  H     36.120900   14.562200   69.969500
  H     37.581900   13.664400   70.384200
  S     41.657400   16.977100   69.418300
  C     43.240700   17.716700   69.500500
  C     43.846100   17.523300   70.730200
  C     42.972300   16.915200   71.668800
  C     41.740600   16.548400   71.127100
  H     44.939100   17.593000   70.887500
  C     43.553400   16.363600   72.976400
  H     44.654400   16.721500   73.081400
  H     43.480900   15.267300   72.861700
  C     42.850800   16.895000   74.274100
  H     41.780000   16.576200   74.212700
  H     42.889400   17.982100   74.238500
  C     43.203100   16.303500   75.553600
  H     44.330700   16.369000   75.740400
  H     42.866400   15.319200   75.589400
  H     42.574100   16.847700   76.334200
  H     38.873200   13.095600   73.361300
  H     43.818500   18.196900   68.643300

 Total Charge           Charge          ....    0
 Multiplicity           Mult            ....    1
 Number of Electrons    NEL             ....  134
 Basis Dimension        Dim             ....  322

ORBITAL ENERGIES
----------------

  NO   OCC          E(Eh)            E(eV)
   0   2.0000     -88.969404     -2420.9806
   1   2.0000     -88.969326     -2420.9785
   2   2.0000     -10.331250      -281.1276
   3   2.0000     -10.328497      -281.0527
   4   2.0000     -10.323189      -280.9083
   5   2.0000     -10.314663      -280.6762
   6   2.0000     -10.302616      -280.3484
   7   2.0000     -10.299895      -280.2744
   8   2.0000     -10.298766      -280.2437
   9   2.0000     -10.297714      -280.2150
  10   2.0000     -10.294488      -280.1273
  11   2.0000     -10.292960      -280.0857
  12   2.0000     -10.288350      -279.9602
  13   2.0000     -10.277635      -279.6687
  14   2.0000     -10.277547      -279.6663
  15   2.0000     -10.274145      -279.5737
  16   2.0000      -8.083618      -219.9664
  17   2.0000      -8.083617      -219.9664
  18   2.0000      -6.042124      -164.4146
  19   2.0000      -6.042072      -164.4131
  20   2.0000      -6.038207      -164.3080
  21   2.0000      -6.038096      -164.3050
  22   2.0000      -6.034574      -164.2091
  23   2.0000      -6.034394      -164.2042
  24   2.0000      -1.006372       -27.3848
  25   2.0000      -0.986009       -26.8307
  26   2.0000      -0.911275       -24.7971
  27   2.0000      -0.905763       -24.6471
  28   2.0000      -0.865168       -23.5424
  29   2.0000      -0.856583       -23.3088
  30   2.0000      -0.849752       -23.1229
  31   2.0000      -0.811349       -22.0779
  32   2.0000      -0.777882       -21.1672
  33   2.0000      -0.766133       -20.8475
  34   2.0000      -0.704056       -19.1583
  35   2.0000      -0.695655       -18.9297
  36   2.0000      -0.676545       -18.4097
  37   2.0000      -0.660712       -17.9789
  38   2.0000      -0.643034       -17.4978
  39   2.0000      -0.606991       -16.5171
  40   2.0000      -0.586445       -15.9580
  41   2.0000      -0.573238       -15.5986
  42   2.0000      -0.567627       -15.4459
  43   2.0000      -0.555818       -15.1246
  44   2.0000      -0.537483       -14.6256
  45   2.0000      -0.519654       -14.1405
  46   2.0000      -0.517361       -14.0781
  47   2.0000      -0.512022       -13.9328
  48   2.0000      -0.501418       -13.6443
  49   2.0000      -0.494932       -13.4678
  50   2.0000      -0.485009       -13.1978
  51   2.0000      -0.484060       -13.1719
  52   2.0000      -0.473988       -12.8979
  53   2.0000      -0.468176       -12.7397
  54   2.0000      -0.464235       -12.6325
  55   2.0000      -0.443909       -12.0794
  56   2.0000      -0.442460       -12.0399
  57   2.0000      -0.430127       -11.7044
  58   2.0000      -0.428549       -11.6614
  59   2.0000      -0.424835       -11.5603
  60   2.0000      -0.417201       -11.3526
  61   2.0000      -0.408320       -11.1109
  62   2.0000      -0.398918       -10.8551
  63   2.0000      -0.338215        -9.2033
  64   2.0000      -0.333607        -9.0779
  65   2.0000      -0.327227        -8.9043
  66   2.0000      -0.298102        -8.1118
  67   0.0000       0.027985         0.7615
  68   0.0000       0.061639         1.6773
  69   0.0000       0.105061         2.8589
  70   0.0000       0.116874         3.1803
  71   0.0000       0.126219         3.4346

MULLIKEN ATOMIC CHARGES
-----------------------
   0 S :    0.107806
   1 C :   -0.138345
   2 C :   -0.082296
   3 C :    0.014519
   4 C :   -0.142378
   5 H :    0.019057
   6 C :    0.087960
   7 H :    0.010159
   8 H :    0.055364
   9 C :   -0.083089
  10 H :    0.036698
  11 H :    0.018834
  12 C :   -0.079850
  13 H :    0.039458
  14 H :    0.032538
  15 H :    0.050810
  16 S :    0.120637
  17 C :   -0.120965
  18 C :   -0.054740
  19 C :   -0.024887
  20 C :   -0.165378
  21 H :    0.040878
  22 C :    0.013746
  23 H :    0.032843
  24 H :    0.042042
  25 C :   -0.107195
  26 H :    0.034222
  27 H :    0.030953
  28 C :   -0.013718
  29 H :    0.032377
  30 H :    0.018297
  31 H :    0.040138
  32 H :    0.051219
  33 H :    0.082288
Sum of atomic charges:    0.0000000

LOEWDIN ATOMIC CHARGES
----------------------
   0 S :    0.412868
   1 C :   -0.189407
   2 C :   -0.069625
   3 C :   -0.066246
   4 C :   -0.204414
   5 H :    0.033703
   6 C :   -0.024610
   7 H :    0.023937
   8 H :    0.043542
   9 C :   -0.048513
  10 H :    0.024651
  11 H :    0.023776
  12 C :   -0.071383
  13 H :    0.029263
  14 H :    0.026113
  15 H :    0.028154
  16 S :    0.414125
  17 C :   -0.199442
  18 C :   -0.080529
  19 C :   -0.057664
  20 C :   -0.198889
  21 H :    0.039657
  22 C :   -0.036354
  23 H :    0.034693
  24 H :    0.027240
  25 C :   -0.054536
  26 H :    0.030973
  27 H :    0.022285
  28 C :   -0.065414
  29 H :    0.025917
  30 H :    0.016167
  31 H :    0.039245
  32 H :    0.024909
  33 H :    0.045805

  Mayer bond orders larger than 0.100000
B(  0-S ,  1-C ) :   1.1437 B(  0-S ,  4-C ) :   1.1594 B(  1-C ,  2-C ) :   1.5635
B(  1-C , 32-H ) :   0.9784 B(  2-C ,  3-C ) :   1.2639 B(  2-C ,  6-C ) :   1.0237
B(  3-C ,  4-C ) :   1.5491 B(  3-C ,  5-H ) :   0.9937 B(  4-C , 20-C ) :   1.0201
B(  6-C ,  7-H ) :   0.9433 B(  6-C ,  8-H ) :   0.9384 B(  6-C ,  9-C ) :   1.0633
B(  9-C , 10-H ) :   0.9604 B(  9-C , 11-H ) :   0.9558 B(  9-C , 12-C ) :   1.0660
B( 12-C , 13-H ) :   0.9722 B( 12-C , 14-H ) :   0.9752 B( 12-C , 15-H ) :   0.9744
B( 16-S , 17-C ) :   1.1655 B( 16-S , 20-C ) :   1.1483 B( 17-C , 18-C ) :   1.5991
B( 17-C , 20-C ) :   0.1015 B( 17-C , 33-H ) :   0.9546 B( 18-C , 19-C ) :   1.2756
B( 18-C , 21-H ) :   0.9786 B( 19-C , 20-C ) :   1.5760 B( 19-C , 22-C ) :   1.0342
B( 22-C , 23-H ) :   0.9393 B( 22-C , 24-H ) :   0.9367 B( 22-C , 25-C ) :   1.0560
B( 25-C , 26-H ) :   0.9535 B( 25-C , 27-H ) :   0.9577 B( 25-C , 28-C ) :   1.0950
B( 28-C , 29-H ) :   0.9679 B( 28-C , 30-H ) :   0.9712 B( 28-C , 31-H ) :   0.9672

Dispersion correction           -0.015078503
FINAL SINGLE POINT ENERGY     -1339.866205574683

DIPOLE MOMENT
-------------
                                X             Y             Z
Electronic contribution:      9.11309       2.30964     -13.54650
Nuclear contribution   :     -9.33658      -2.36386      13.74220
                        -----------------------------------------
Total Dipole Moment    :     -0.22350      -0.05422       0.19570
                        -----------------------------------------
Magnitude (a.u.)       :      0.30198
Magnitude (Debye)      :      0.76757

Rotational constants in cm-1:     0.020044     0.008916     0.006866
Rotational constants in MHz :   600.900218   267.288955   205.839222

                             ****ORCA TERMINATED NORMALLY****
TOTAL RUN TIME: 0 days 0 hours 0 minutes 30 seconds 849 msec
