                         Program Version 4.2.1 -  RELEASE  -
|  1> ! wB97X-D3 SP def2-SVP
|  2> %pal
|  3> nprocs 16
|  4> end
|  5>
|  6> * xyz 0 1
|  7> S 	 7.51865 	 -7.10625 	 96.2035
|  8> C 	 8.17715 	 -8.26998 	 97.3375
|  9> C 	 9.58864 	 -8.1518 	 97.3504
| 10> C 	 10.0674 	 -6.9954 	 96.5719
| 11> C 	 9.06125 	 -6.36737 	 95.9257
| 12> H 	 11.0593 	 -6.59107 	 96.4601
| 13> C 	 10.4513 	 -9.02803 	 98.2847
| 14> H 	 10.5948 	 -9.76455 	 97.5437
| 15> H 	 9.79109 	 -9.52768 	 98.9965
| 16> C 	 11.7488 	 -8.51169 	 98.8907
| 17> H 	 12.4658 	 -9.37772 	 99.1247
| 18> H 	 12.2944 	 -7.94744 	 98.1153
| 19> C 	 11.4838 	 -7.67227 	 100.165
| 20> H 	 11.0398 	 -8.24687 	 100.968
| 21> H 	 12.3961 	 -7.19189 	 100.552
| 22> H 	 10.8107 	 -6.86785 	 99.9278
| 23> S 	 8.99751 	 -6.01812 	 93.3385
| 24> C 	 9.78957 	 -4.67878 	 92.5945
| 25> C 	 10.1713 	 -3.70784 	 93.5469
| 26> C 	 9.92294 	 -4.10906 	 94.9131
| 27> C 	 9.2283 	 -5.31369 	 94.9377
| 28> H 	 10.6308 	 -2.83357 	 93.3008
| 29> C 	 10.4481 	 -3.37132 	 96.1043
| 30> H 	 11.5505 	 -3.39999 	 96.2184
| 31> H 	 10.1039 	 -3.93601 	 96.9985
| 32> C 	 10.1581 	 -1.84901 	 96.2809
| 33> H 	 10.4206 	 -1.26046 	 95.3608
| 34> H 	 10.7739 	 -1.44732 	 97.0579
| 35> C 	 8.72391 	 -1.5636 	 96.7236
| 36> H 	 8.50847 	 -0.486306 	 96.6638
| 37> H 	 8.62774 	 -1.85538 	 97.7921
| 38> H 	 7.99981 	 -2.18892 	 96.2225
| 39> H 	 7.6843 	 -9.08421 	 97.85
| 40> H 	 9.84946 	 -4.53298 	 91.5011
| 41> *
| 42>
| 43>                          ****END OF INPUT****

CARTESIAN COORDINATES (ANGSTROEM)
---------------------------------
  S      7.518650   -7.106250   96.203500
  C      8.177150   -8.269980   97.337500
  C      9.588640   -8.151800   97.350400
  C     10.067400   -6.995400   96.571900
  C      9.061250   -6.367370   95.925700
  H     11.059300   -6.591070   96.460100
  C     10.451300   -9.028030   98.284700
  H     10.594800   -9.764550   97.543700
  H      9.791090   -9.527680   98.996500
  C     11.748800   -8.511690   98.890700
  H     12.465800   -9.377720   99.124700
  H     12.294400   -7.947440   98.115300
  C     11.483800   -7.672270  100.165000
  H     11.039800   -8.246870  100.968000
  H     12.396100   -7.191890  100.552000
  H     10.810700   -6.867850   99.927800
  S      8.997510   -6.018120   93.338500
  C      9.789570   -4.678780   92.594500
  C     10.171300   -3.707840   93.546900
  C      9.922940   -4.109060   94.913100
  C      9.228300   -5.313690   94.937700
  H     10.630800   -2.833570   93.300800
  C     10.448100   -3.371320   96.104300
  H     11.550500   -3.399990   96.218400
  H     10.103900   -3.936010   96.998500
  C     10.158100   -1.849010   96.280900
  H     10.420600   -1.260460   95.360800
  H     10.773900   -1.447320   97.057900
  C      8.723910   -1.563600   96.723600
  H      8.508470   -0.486306   96.663800
  H      8.627740   -1.855380   97.792100
  H      7.999810   -2.188920   96.222500
  H      7.684300   -9.084210   97.850000
  H      9.849460   -4.532980   91.501100

 Total Charge           Charge          ....    0
 Multiplicity           Mult            ....    1
 Number of Electrons    NEL             ....  134
 Basis Dimension        Dim             ....  322

ORBITAL ENERGIES
----------------

  NO   OCC          E(Eh)            E(eV)
   0   2.0000     -88.965563     -2420.8760
   1   2.0000     -88.964140     -2420.8373
   2   2.0000     -10.325673      -280.9758
   3   2.0000     -10.323790      -280.9246
   4   2.0000     -10.322249      -280.8827
   5   2.0000     -10.313481      -280.6441
   6   2.0000     -10.310998      -280.5765
   7   2.0000     -10.309574      -280.5378
   8   2.0000     -10.298252      -280.2297
   9   2.0000     -10.297749      -280.2160
  10   2.0000     -10.293338      -280.0960
  11   2.0000     -10.292276      -280.0671
  12   2.0000     -10.289798      -279.9996
  13   2.0000     -10.289184      -279.9829
  14   2.0000     -10.277252      -279.6582
  15   2.0000     -10.273981      -279.5692
  16   2.0000      -8.080730      -219.8878
  17   2.0000      -8.078934      -219.8390
  18   2.0000      -6.039235      -164.3359
  19   2.0000      -6.037509      -164.2890
  20   2.0000      -6.035047      -164.2220
  21   2.0000      -6.033364      -164.1762
  22   2.0000      -6.031562      -164.1272
  23   2.0000      -6.029696      -164.0764
  24   2.0000      -1.008480       -27.4421
  25   2.0000      -0.979936       -26.6654
  26   2.0000      -0.909999       -24.7623
  27   2.0000      -0.907443       -24.6928
  28   2.0000      -0.868923       -23.6446
  29   2.0000      -0.852905       -23.2087
  30   2.0000      -0.841668       -22.9029
  31   2.0000      -0.815077       -22.1794
  32   2.0000      -0.783272       -21.3139
  33   2.0000      -0.771242       -20.9866
  34   2.0000      -0.710911       -19.3449
  35   2.0000      -0.697806       -18.9883
  36   2.0000      -0.688131       -18.7250
  37   2.0000      -0.663470       -18.0539
  38   2.0000      -0.641501       -17.4561
  39   2.0000      -0.616229       -16.7685
  40   2.0000      -0.598337       -16.2816
  41   2.0000      -0.562591       -15.3089
  42   2.0000      -0.554679       -15.0936
  43   2.0000      -0.549365       -14.9490
  44   2.0000      -0.541315       -14.7299
  45   2.0000      -0.534160       -14.5352
  46   2.0000      -0.520353       -14.1595
  47   2.0000      -0.512479       -13.9453
  48   2.0000      -0.505251       -13.7486
  49   2.0000      -0.500718       -13.6252
  50   2.0000      -0.485692       -13.2163
  51   2.0000      -0.477728       -12.9996
  52   2.0000      -0.465325       -12.6621
  53   2.0000      -0.463658       -12.6168
  54   2.0000      -0.460055       -12.5187
  55   2.0000      -0.446580       -12.1521
  56   2.0000      -0.443890       -12.0789
  57   2.0000      -0.438759       -11.9392
  58   2.0000      -0.432633       -11.7725
  59   2.0000      -0.429291       -11.6816
  60   2.0000      -0.425853       -11.5881
  61   2.0000      -0.417075       -11.3492
  62   2.0000      -0.406048       -11.0491
  63   2.0000      -0.343273        -9.3409
  64   2.0000      -0.328640        -8.9427
  65   2.0000      -0.320199        -8.7131
  66   2.0000      -0.297685        -8.1004
  67   0.0000       0.039364         1.0712
  68   0.0000       0.061350         1.6694
  69   0.0000       0.113739         3.0950
  70   0.0000       0.120974         3.2919
  71   0.0000       0.130134         3.5411

MULLIKEN ATOMIC CHARGES
-----------------------
   0 S :    0.111996
   1 C :   -0.115283
   2 C :   -0.131227
   3 C :    0.046447
   4 C :   -0.170358
   5 H :    0.010343
   6 C :    0.075423
   7 H :    0.030121
   8 H :    0.015488
   9 C :   -0.077487
  10 H :    0.041395
  11 H :    0.032197
  12 C :   -0.040434
  13 H :    0.031977
  14 H :    0.034504
  15 H :    0.032749
  16 S :    0.115570
  17 C :   -0.097867
  18 C :   -0.001114
  19 C :   -0.009309
  20 C :   -0.154960
  21 H :   -0.021580
  22 C :    0.018508
  23 H :    0.041757
  24 H :    0.028594
  25 C :   -0.078335
  26 H :    0.036028
  27 H :    0.023519
  28 C :   -0.052670
  29 H :    0.039569
  30 H :    0.025343
  31 H :    0.038088
  32 H :    0.049170
  33 H :    0.071836
Sum of atomic charges:    0.0000000

LOEWDIN ATOMIC CHARGES
----------------------
   0 S :    0.406819
   1 C :   -0.214482
   2 C :   -0.046630
   3 C :   -0.070888
   4 C :   -0.208571
   5 H :    0.031647
   6 C :   -0.039881
   7 H :    0.034888
   8 H :    0.029359
   9 C :   -0.045765
  10 H :    0.034713
  11 H :    0.025484
  12 C :   -0.064340
  13 H :    0.024749
  14 H :    0.027436
  15 H :    0.025134
  16 S :    0.424032
  17 C :   -0.192951
  18 C :   -0.057495
  19 C :   -0.051809
  20 C :   -0.195996
  21 H :    0.011028
  22 C :   -0.040554
  23 H :    0.038064
  24 H :    0.035138
  25 C :   -0.042172
  26 H :    0.025261
  27 H :    0.022723
  28 C :   -0.068438
  29 H :    0.027641
  30 H :    0.027487
  31 H :    0.023838
  32 H :    0.029779
  33 H :    0.034751

  Mayer bond orders larger than 0.100000
B(  0-S ,  1-C ) :   1.1184 B(  0-S ,  4-C ) :   1.1535 B(  1-C ,  2-C ) :   1.6297
B(  1-C , 32-H ) :   0.9692 B(  2-C ,  3-C ) :   1.1978 B(  2-C ,  6-C ) :   0.9899
B(  3-C ,  4-C ) :   1.6074 B(  3-C ,  5-H ) :   0.9947 B(  4-C , 20-C ) :   0.9836
B(  6-C ,  7-H ) :   0.9232 B(  6-C ,  8-H ) :   0.9481 B(  6-C ,  9-C ) :   1.0741
B(  9-C , 10-H ) :   0.9532 B(  9-C , 11-H ) :   0.9513 B(  9-C , 12-C ) :   1.0701
B( 12-C , 13-H ) :   0.9760 B( 12-C , 14-H ) :   0.9753 B( 12-C , 15-H ) :   0.9774
B( 16-S , 17-C ) :   1.1713 B( 16-S , 20-C ) :   1.1556 B( 17-C , 18-C ) :   1.5873
B( 17-C , 33-H ) :   0.9645 B( 18-C , 19-C ) :   1.2295 B( 18-C , 21-H ) :   1.0065
B( 19-C , 20-C ) :   1.5995 B( 19-C , 22-C ) :   1.0524 B( 22-C , 23-H ) :   0.9335
B( 22-C , 24-H ) :   0.9356 B( 22-C , 25-C ) :   1.0705 B( 25-C , 26-H ) :   0.9576
B( 25-C , 27-H ) :   0.9539 B( 25-C , 28-C ) :   1.0740 B( 28-C , 29-H ) :   0.9746
B( 28-C , 30-H ) :   0.9728 B( 28-C , 31-H ) :   0.9802

Dispersion correction           -0.014149810
FINAL SINGLE POINT ENERGY     -1339.871712006073

DIPOLE MOMENT
-------------
                                X             Y             Z
Electronic contribution:    -13.49535      -8.77057     -20.27667
Nuclear contribution   :     14.14382       8.87022      20.54393
                        -----------------------------------------
Total Dipole Moment    :      0.64848       0.09966       0.26725
                        -----------------------------------------
Magnitude (a.u.)       :      0.70843
Magnitude (Debye)      :      1.80069

Rotational constants in cm-1:     0.017460     0.008782     0.007194
Rotational constants in MHz :   523.432785   263.283529   215.678453

                             ****ORCA TERMINATED NORMALLY****
TOTAL RUN TIME: 0 days 0 hours 0 minutes 31 seconds 401 msec
