                         Program Version 4.2.1 -  RELEASE  -
|  1> ! wB97X-D3 SP def2-SVP
|  2> %pal
|  3> nprocs 16
|  4> end
|  5>
|  6> * xyz 0 1
|  7> S 	 4.86227 	 20.2472 	 39.9725
|  8> C 	 5.32187 	 18.6759 	 39.3032
|  9> C 	 6.57546 	 18.3495 	 39.7466
| 10> C 	 7.27017 	 19.4696 	 40.3214
| 11> C 	 6.48459 	 20.5694 	 40.5075
| 12> H 	 8.3565 	 19.4363 	 40.7061
| 13> C 	 7.23091 	 17.0131 	 39.508
| 14> H 	 7.27732 	 16.4898 	 40.4446
| 15> H 	 8.26428 	 17.2184 	 39.2058
| 16> C 	 6.58817 	 16.0603 	 38.3797
| 17> H 	 5.68262 	 15.6718 	 38.8362
| 18> H 	 6.39388 	 16.6882 	 37.5233
| 19> C 	 7.47992 	 14.8362 	 38.063
| 20> H 	 6.99805 	 14.0815 	 37.4258
| 21> H 	 8.48296 	 15.0343 	 37.563
| 22> H 	 7.65828 	 14.3541 	 39.0259
| 23> S 	 5.67267 	 22.0624 	 42.65
| 24> C 	 6.74753 	 23.3219 	 43.3255
| 25> C 	 7.95692 	 23.2842 	 42.6855
| 26> C 	 8.01802 	 22.2693 	 41.6747
| 27> C 	 6.81345 	 21.639 	 41.4249
| 28> H 	 8.6504 	 24.0382 	 42.9726
| 29> C 	 9.30371 	 21.9342 	 40.9137
| 30> H 	 9.16731 	 21.5349 	 39.9173
| 31> H 	 9.85212 	 21.1862 	 41.5272
| 32> C 	 10.1026 	 23.2496 	 40.6449
| 33> H 	 10.3068 	 23.7774 	 41.5957
| 34> H 	 9.63223 	 23.9321 	 40.0238
| 35> C 	 11.5578 	 23.0024 	 40.0319
| 36> H 	 12.3625 	 22.7129 	 40.7483
| 37> H 	 11.8239 	 23.8953 	 39.4843
| 38> H 	 11.493 	 22.2226 	 39.266
| 39> H 	 4.6795 	 17.898 	 39.0714
| 40> H 	 6.41097 	 24.0028 	 44.1009
| 41> *
| 42>
| 43>                          ****END OF INPUT****

CARTESIAN COORDINATES (ANGSTROEM)
---------------------------------
  S      4.862270   20.247200   39.972500
  C      5.321870   18.675900   39.303200
  C      6.575460   18.349500   39.746600
  C      7.270170   19.469600   40.321400
  C      6.484590   20.569400   40.507500
  H      8.356500   19.436300   40.706100
  C      7.230910   17.013100   39.508000
  H      7.277320   16.489800   40.444600
  H      8.264280   17.218400   39.205800
  C      6.588170   16.060300   38.379700
  H      5.682620   15.671800   38.836200
  H      6.393880   16.688200   37.523300
  C      7.479920   14.836200   38.063000
  H      6.998050   14.081500   37.425800
  H      8.482960   15.034300   37.563000
  H      7.658280   14.354100   39.025900
  S      5.672670   22.062400   42.650000
  C      6.747530   23.321900   43.325500
  C      7.956920   23.284200   42.685500
  C      8.018020   22.269300   41.674700
  C      6.813450   21.639000   41.424900
  H      8.650400   24.038200   42.972600
  C      9.303710   21.934200   40.913700
  H      9.167310   21.534900   39.917300
  H      9.852120   21.186200   41.527200
  C     10.102600   23.249600   40.644900
  H     10.306800   23.777400   41.595700
  H      9.632230   23.932100   40.023800
  C     11.557800   23.002400   40.031900
  H     12.362500   22.712900   40.748300
  H     11.823900   23.895300   39.484300
  H     11.493000   22.222600   39.266000
  H      4.679500   17.898000   39.071400
  H      6.410970   24.002800   44.100900

 Total Charge           Charge          ....    0
 Multiplicity           Mult            ....    1
 Number of Electrons    NEL             ....  134
 Basis Dimension        Dim             ....  322

ORBITAL ENERGIES
----------------

  NO   OCC          E(Eh)            E(eV)
   0   2.0000     -88.966193     -2420.8932
   1   2.0000     -88.960739     -2420.7448
   2   2.0000     -10.328972      -281.0656
   3   2.0000     -10.324459      -280.9428
   4   2.0000     -10.317788      -280.7613
   5   2.0000     -10.306892      -280.4648
   6   2.0000     -10.302894      -280.3560
   7   2.0000     -10.302191      -280.3369
   8   2.0000     -10.299104      -280.2529
   9   2.0000     -10.296687      -280.1871
  10   2.0000     -10.295926      -280.1664
  11   2.0000     -10.295266      -280.1484
  12   2.0000     -10.293987      -280.1136
  13   2.0000     -10.288763      -279.9715
  14   2.0000     -10.286480      -279.9094
  15   2.0000     -10.281138      -279.7640
  16   2.0000      -8.080756      -219.8886
  17   2.0000      -8.075669      -219.7501
  18   2.0000      -6.039383      -164.3400
  19   2.0000      -6.035361      -164.2305
  20   2.0000      -6.034258      -164.2005
  21   2.0000      -6.031308      -164.1202
  22   2.0000      -6.030135      -164.0883
  23   2.0000      -6.026334      -163.9849
  24   2.0000      -1.011400       -27.5216
  25   2.0000      -0.985475       -26.8161
  26   2.0000      -0.908636       -24.7253
  27   2.0000      -0.900884       -24.5143
  28   2.0000      -0.873040       -23.7566
  29   2.0000      -0.849702       -23.1216
  30   2.0000      -0.839949       -22.8562
  31   2.0000      -0.818026       -22.2596
  32   2.0000      -0.778922       -21.1956
  33   2.0000      -0.769699       -20.9446
  34   2.0000      -0.715606       -19.4726
  35   2.0000      -0.705652       -19.2018
  36   2.0000      -0.696854       -18.9624
  37   2.0000      -0.657478       -17.8909
  38   2.0000      -0.634625       -17.2690
  39   2.0000      -0.613167       -16.6851
  40   2.0000      -0.596442       -16.2300
  41   2.0000      -0.574765       -15.6402
  42   2.0000      -0.570122       -15.5138
  43   2.0000      -0.562590       -15.3089
  44   2.0000      -0.528078       -14.3697
  45   2.0000      -0.522459       -14.2168
  46   2.0000      -0.520856       -14.1732
  47   2.0000      -0.506931       -13.7943
  48   2.0000      -0.505522       -13.7560
  49   2.0000      -0.499152       -13.5826
  50   2.0000      -0.486553       -13.2398
  51   2.0000      -0.482120       -13.1192
  52   2.0000      -0.473175       -12.8757
  53   2.0000      -0.465667       -12.6714
  54   2.0000      -0.458877       -12.4867
  55   2.0000      -0.449743       -12.2381
  56   2.0000      -0.445131       -12.1126
  57   2.0000      -0.442086       -12.0298
  58   2.0000      -0.439905       -11.9704
  59   2.0000      -0.424732       -11.5576
  60   2.0000      -0.417245       -11.3538
  61   2.0000      -0.414493       -11.2789
  62   2.0000      -0.406321       -11.0566
  63   2.0000      -0.358318        -9.7503
  64   2.0000      -0.329144        -8.9565
  65   2.0000      -0.327073        -8.9001
  66   2.0000      -0.290831        -7.9139
  67   0.0000       0.024447         0.6652
  68   0.0000       0.076579         2.0838
  69   0.0000       0.111265         3.0277
  70   0.0000       0.127505         3.4696
  71   0.0000       0.131161         3.5691

MULLIKEN ATOMIC CHARGES
-----------------------
   0 S :    0.095341
   1 C :   -0.066348
   2 C :   -0.118411
   3 C :   -0.024594
   4 C :   -0.115302
   5 H :    0.045928
   6 C :    0.029562
   7 H :    0.038340
   8 H :    0.031763
   9 C :   -0.087040
  10 H :    0.037627
  11 H :    0.044276
  12 C :   -0.068533
  13 H :    0.040050
  14 H :    0.046677
  15 H :    0.028810
  16 S :    0.082718
  17 C :   -0.107781
  18 C :   -0.019172
  19 C :   -0.055327
  20 C :   -0.112532
  21 H :    0.017037
  22 C :    0.046993
  23 H :    0.039149
  24 H :    0.052927
  25 C :   -0.097432
  26 H :    0.034637
  27 H :    0.027799
  28 C :   -0.058921
  29 H :    0.046772
  30 H :    0.029892
  31 H :    0.019839
  32 H :    0.032975
  33 H :    0.062278
Sum of atomic charges:    0.0000000

LOEWDIN ATOMIC CHARGES
----------------------
   0 S :    0.401352
   1 C :   -0.193485
   2 C :   -0.057188
   3 C :   -0.070847
   4 C :   -0.193803
   5 H :    0.046418
   6 C :   -0.032445
   7 H :    0.030958
   8 H :    0.031261
   9 C :   -0.035569
  10 H :    0.024364
  11 H :    0.023393
  12 C :   -0.073073
  13 H :    0.028276
  14 H :    0.031974
  15 H :    0.025695
  16 S :    0.389989
  17 C :   -0.170295
  18 C :   -0.068822
  19 C :   -0.063703
  20 C :   -0.197417
  21 H :    0.031084
  22 C :   -0.032885
  23 H :    0.029817
  24 H :    0.036025
  25 C :   -0.031497
  26 H :    0.022879
  27 H :    0.016856
  28 C :   -0.070472
  29 H :    0.028898
  30 H :    0.024562
  31 H :    0.019855
  32 H :    0.017225
  33 H :    0.030621

  Mayer bond orders larger than 0.100000
B(  0-S ,  1-C ) :   1.1094 B(  0-S ,  4-C ) :   1.1466 B(  1-C ,  2-C ) :   1.6536
B(  1-C , 32-H ) :   0.9577 B(  2-C ,  3-C ) :   1.2420 B(  2-C ,  6-C ) :   1.0166
B(  3-C ,  4-C ) :   1.5640 B(  3-C ,  5-H ) :   0.9734 B(  4-C , 20-C ) :   1.0598
B(  6-C ,  7-H ) :   0.9282 B(  6-C ,  8-H ) :   0.9518 B(  6-C ,  9-C ) :   1.0699
B(  9-C , 10-H ) :   0.9501 B(  9-C , 11-H ) :   0.9603 B(  9-C , 12-C ) :   1.0801
B( 12-C , 13-H ) :   0.9746 B( 12-C , 14-H ) :   0.9762 B( 12-C , 15-H ) :   0.9736
B( 16-S , 17-C ) :   1.1411 B( 16-S , 20-C ) :   1.1376 B( 17-C , 18-C ) :   1.6186
B( 17-C , 33-H ) :   0.9684 B( 18-C , 19-C ) :   1.2154 B( 18-C , 21-H ) :   0.9996
B( 19-C , 20-C ) :   1.6099 B( 19-C , 22-C ) :   1.0379 B( 22-C , 23-H ) :   0.9377
B( 22-C , 24-H ) :   0.9336 B( 22-C , 25-C ) :   1.0566 B( 25-C , 26-H ) :   0.9523
B( 25-C , 27-H ) :   0.9668 B( 25-C , 28-C ) :   1.0740 B( 28-C , 29-H ) :   0.9792
B( 28-C , 30-H ) :   0.9768 B( 28-C , 31-H ) :   0.9760

Dispersion correction           -0.013196248
FINAL SINGLE POINT ENERGY     -1339.868494460909

DIPOLE MOMENT
-------------
                                X             Y             Z
Electronic contribution:    -23.24549      12.71971      11.54700
Nuclear contribution   :     23.86768     -13.07966     -11.48672
                        -----------------------------------------
Total Dipole Moment    :      0.62219      -0.35995       0.06028
                        -----------------------------------------
Magnitude (a.u.)       :      0.72133
Magnitude (Debye)      :      1.83347

Rotational constants in cm-1:     0.018776     0.007587     0.005780
Rotational constants in MHz :   562.895755   227.445709   173.265438

                             ****ORCA TERMINATED NORMALLY****
TOTAL RUN TIME: 0 days 0 hours 0 minutes 32 seconds 413 msec
