                         Program Version 4.2.1 -  RELEASE  -
|  1> ! wB97X-D3 SP def2-SVP
|  2> %pal
|  3> nprocs 16
|  4> end
|  5>
|  6> * xyz 0 1
|  7> S 	 -0.633615 	 8.22926 	 80.5804
|  8> C 	 0.505926 	 8.31451 	 79.2569
|  9> C 	 -0.116447 	 8.30899 	 78.0336
| 10> C 	 -1.55071 	 8.31447 	 78.159
| 11> C 	 -1.98013 	 8.35379 	 79.4825
| 12> H 	 -2.2171 	 8.46026 	 77.307
| 13> C 	 0.563982 	 8.28882 	 76.7037
| 14> H 	 1.60367 	 8.34302 	 76.89
| 15> H 	 0.260955 	 9.18136 	 76.1093
| 16> C 	 0.273497 	 7.06395 	 75.8595
| 17> H 	 0.300505 	 6.14598 	 76.4669
| 18> H 	 -0.679548 	 7.16672 	 75.4185
| 19> C 	 1.21699 	 6.86392 	 74.6869
| 20> H 	 1.19298 	 7.79492 	 74.0969
| 21> H 	 2.32781 	 6.74909 	 74.9795
| 22> H 	 0.776744 	 6.11272 	 74.0284
| 23> S 	 -3.76575 	 9.35857 	 81.3829
| 24> C 	 -5.42613 	 9.01592 	 81.1043
| 25> C 	 -5.58519 	 7.98946 	 80.2261
| 26> C 	 -4.45479 	 7.71116 	 79.46
| 27> C 	 -3.35299 	 8.39513 	 79.9065
| 28> H 	 -6.50131 	 7.46473 	 79.9232
| 29> C 	 -4.46607 	 6.76709 	 78.2841
| 30> H 	 -5.10033 	 5.89204 	 78.5076
| 31> H 	 -3.53525 	 6.31729 	 78.0702
| 32> C 	 -5.02604 	 7.46638 	 76.9932
| 33> H 	 -4.36881 	 8.38533 	 76.893
| 34> H 	 -6.06854 	 7.74527 	 77.2186
| 35> C 	 -5.04793 	 6.55615 	 75.7167
| 36> H 	 -4.02975 	 6.32662 	 75.3845
| 37> H 	 -5.47937 	 7.04355 	 74.7937
| 38> H 	 -5.61031 	 5.62569 	 75.7851
| 39> H 	 1.62912 	 8.47418 	 79.3959
| 40> H 	 -6.24924 	 9.24193 	 81.7978
| 41> *
| 42>
| 43>                          ****END OF INPUT****

CARTESIAN COORDINATES (ANGSTROEM)
---------------------------------
  S     -0.633615    8.229260   80.580400
  C      0.505926    8.314510   79.256900
  C     -0.116447    8.308990   78.033600
  C     -1.550710    8.314470   78.159000
  C     -1.980130    8.353790   79.482500
  H     -2.217100    8.460260   77.307000
  C      0.563982    8.288820   76.703700
  H      1.603670    8.343020   76.890000
  H      0.260955    9.181360   76.109300
  C      0.273497    7.063950   75.859500
  H      0.300505    6.145980   76.466900
  H     -0.679548    7.166720   75.418500
  C      1.216990    6.863920   74.686900
  H      1.192980    7.794920   74.096900
  H      2.327810    6.749090   74.979500
  H      0.776744    6.112720   74.028400
  S     -3.765750    9.358570   81.382900
  C     -5.426130    9.015920   81.104300
  C     -5.585190    7.989460   80.226100
  C     -4.454790    7.711160   79.460000
  C     -3.352990    8.395130   79.906500
  H     -6.501310    7.464730   79.923200
  C     -4.466070    6.767090   78.284100
  H     -5.100330    5.892040   78.507600
  H     -3.535250    6.317290   78.070200
  C     -5.026040    7.466380   76.993200
  H     -4.368810    8.385330   76.893000
  H     -6.068540    7.745270   77.218600
  C     -5.047930    6.556150   75.716700
  H     -4.029750    6.326620   75.384500
  H     -5.479370    7.043550   74.793700
  H     -5.610310    5.625690   75.785100
  H      1.629120    8.474180   79.395900
  H     -6.249240    9.241930   81.797800

 Total Charge           Charge          ....    0
 Multiplicity           Mult            ....    1
 Number of Electrons    NEL             ....  134
 Basis Dimension        Dim             ....  322

ORBITAL ENERGIES
----------------

  NO   OCC          E(Eh)            E(eV)
   0   2.0000     -88.966762     -2420.9087
   1   2.0000     -88.966347     -2420.8974
   2   2.0000     -10.328724      -281.0589
   3   2.0000     -10.326656      -281.0026
   4   2.0000     -10.316507      -280.7264
   5   2.0000     -10.316306      -280.7210
   6   2.0000     -10.301217      -280.3104
   7   2.0000     -10.298605      -280.2393
   8   2.0000     -10.298374      -280.2330
   9   2.0000     -10.293748      -280.1071
  10   2.0000     -10.291352      -280.0419
  11   2.0000     -10.290037      -280.0061
  12   2.0000     -10.288339      -279.9599
  13   2.0000     -10.288333      -279.9598
  14   2.0000     -10.285189      -279.8742
  15   2.0000     -10.281659      -279.7782
  16   2.0000      -8.081621      -219.9121
  17   2.0000      -8.080997      -219.8951
  18   2.0000      -6.040245      -164.3634
  19   2.0000      -6.039515      -164.3436
  20   2.0000      -6.036139      -164.2517
  21   2.0000      -6.035736      -164.2407
  22   2.0000      -6.032246      -164.1458
  23   2.0000      -6.031538      -164.1265
  24   2.0000      -1.010371       -27.4936
  25   2.0000      -0.987994       -26.8847
  26   2.0000      -0.918855       -25.0033
  27   2.0000      -0.907035       -24.6817
  28   2.0000      -0.872285       -23.7361
  29   2.0000      -0.852827       -23.2066
  30   2.0000      -0.846831       -23.0434
  31   2.0000      -0.811444       -22.0805
  32   2.0000      -0.785335       -21.3700
  33   2.0000      -0.771655       -20.9978
  34   2.0000      -0.708229       -19.2719
  35   2.0000      -0.698329       -19.0025
  36   2.0000      -0.691652       -18.8208
  37   2.0000      -0.664977       -18.0950
  38   2.0000      -0.636883       -17.3305
  39   2.0000      -0.621199       -16.9037
  40   2.0000      -0.601447       -16.3662
  41   2.0000      -0.576995       -15.7008
  42   2.0000      -0.562256       -15.2998
  43   2.0000      -0.558282       -15.1916
  44   2.0000      -0.524653       -14.2765
  45   2.0000      -0.524048       -14.2601
  46   2.0000      -0.513101       -13.9622
  47   2.0000      -0.509826       -13.8731
  48   2.0000      -0.505669       -13.7600
  49   2.0000      -0.497342       -13.5334
  50   2.0000      -0.489505       -13.3201
  51   2.0000      -0.482892       -13.1401
  52   2.0000      -0.468766       -12.7558
  53   2.0000      -0.465775       -12.6744
  54   2.0000      -0.462038       -12.5727
  55   2.0000      -0.455096       -12.3838
  56   2.0000      -0.448294       -12.1987
  57   2.0000      -0.433755       -11.8031
  58   2.0000      -0.428396       -11.6573
  59   2.0000      -0.426454       -11.6044
  60   2.0000      -0.425435       -11.5767
  61   2.0000      -0.421970       -11.4824
  62   2.0000      -0.419543       -11.4163
  63   2.0000      -0.352653        -9.5962
  64   2.0000      -0.334636        -9.1059
  65   2.0000      -0.330228        -8.9860
  66   2.0000      -0.287377        -7.8199
  67   0.0000       0.023993         0.6529
  68   0.0000       0.071691         1.9508
  69   0.0000       0.109722         2.9857
  70   0.0000       0.118970         3.2373
  71   0.0000       0.124259         3.3812

MULLIKEN ATOMIC CHARGES
-----------------------
   0 S :    0.109832
   1 C :   -0.160117
   2 C :   -0.079628
   3 C :   -0.006908
   4 C :   -0.116334
   5 H :    0.007766
   6 C :    0.099301
   7 H :   -0.004671
   8 H :    0.036096
   9 C :   -0.077518
  10 H :    0.037903
  11 H :    0.016884
  12 C :   -0.065133
  13 H :    0.017769
  14 H :    0.049353
  15 H :    0.040793
  16 S :    0.103527
  17 C :   -0.068348
  18 C :   -0.035167
  19 C :   -0.039620
  20 C :   -0.165581
  21 H :    0.018107
  22 C :    0.072276
  23 H :    0.020351
  24 H :    0.015833
  25 C :   -0.098011
  26 H :    0.046731
  27 H :    0.033500
  28 C :   -0.055185
  29 H :    0.027486
  30 H :    0.039991
  31 H :    0.036945
  32 H :    0.074089
  33 H :    0.067687
Sum of atomic charges:   -0.0000000

LOEWDIN ATOMIC CHARGES
----------------------
   0 S :    0.404151
   1 C :   -0.214455
   2 C :   -0.062381
   3 C :   -0.067941
   4 C :   -0.189318
   5 H :    0.029381
   6 C :   -0.030356
   7 H :    0.021354
   8 H :    0.037130
   9 C :   -0.041469
  10 H :    0.027232
  11 H :    0.017622
  12 C :   -0.071403
  13 H :    0.022534
  14 H :    0.033625
  15 H :    0.029445
  16 S :    0.391112
  17 C :   -0.193392
  18 C :   -0.072410
  19 C :   -0.053314
  20 C :   -0.176492
  21 H :    0.033802
  22 C :   -0.029269
  23 H :    0.031130
  24 H :    0.021448
  25 C :   -0.037714
  26 H :    0.028550
  27 H :    0.024436
  28 C :   -0.077477
  29 H :    0.023085
  30 H :    0.033856
  31 H :    0.026211
  32 H :    0.044393
  33 H :    0.036894

  Mayer bond orders larger than 0.100000
B(  0-S ,  1-C ) :   1.1204 B(  0-S ,  4-C ) :   1.1509 B(  1-C ,  2-C ) :   1.6322
B(  1-C , 32-H ) :   0.9520 B(  2-C ,  3-C ) :   1.2286 B(  2-C ,  6-C ) :   1.0457
B(  3-C ,  4-C ) :   1.5576 B(  3-C ,  5-H ) :   0.9933 B(  4-C , 20-C ) :   1.0818
B(  6-C ,  7-H ) :   0.9354 B(  6-C ,  8-H ) :   0.9261 B(  6-C ,  9-C ) :   1.0678
B(  9-C , 10-H ) :   0.9579 B(  9-C , 11-H ) :   0.9462 B(  9-C , 12-C ) :   1.0969
B( 12-C , 13-H ) :   0.9692 B( 12-C , 14-H ) :   0.9734 B( 12-C , 15-H ) :   0.9728
B( 16-S , 17-C ) :   1.1554 B( 16-S , 20-C ) :   1.1189 B( 17-C , 18-C ) :   1.5976
B( 17-C , 20-C ) :   0.1004 B( 17-C , 33-H ) :   0.9585 B( 18-C , 19-C ) :   1.2737
B( 18-C , 21-H ) :   0.9770 B( 19-C , 20-C ) :   1.5877 B( 19-C , 22-C ) :   1.0565
B( 22-C , 23-H ) :   0.9310 B( 22-C , 24-H ) :   0.9295 B( 22-C , 25-C ) :   1.0449
B( 25-C , 26-H ) :   0.9548 B( 25-C , 27-H ) :   0.9569 B( 25-C , 28-C ) :   1.0718
B( 28-C , 29-H ) :   0.9751 B( 28-C , 30-H ) :   0.9748 B( 28-C , 31-H ) :   0.9745

Dispersion correction           -0.014393820
FINAL SINGLE POINT ENERGY     -1339.885566766833

DIPOLE MOMENT
-------------
                                X             Y             Z
Electronic contribution:     -1.26093      11.11658      32.08946
Nuclear contribution   :      1.07218     -11.41173     -32.75452
                        -----------------------------------------
Total Dipole Moment    :     -0.18875      -0.29514      -0.66506
                        -----------------------------------------
Magnitude (a.u.)       :      0.75169
Magnitude (Debye)      :      1.91066

Rotational constants in cm-1:     0.017815     0.009519     0.006473
Rotational constants in MHz :   534.070733   285.360269   194.057885

                             ****ORCA TERMINATED NORMALLY****
TOTAL RUN TIME: 0 days 0 hours 0 minutes 34 seconds 865 msec
