                         Program Version 4.2.1 -  RELEASE  -
|  1> ! wB97X-D3 SP def2-SVP
|  2> %pal
|  3> nprocs 16
|  4> end
|  5>
|  6> * xyz 0 1
|  7> S 	 -58.4748 	 47.0339 	 135.218
|  8> C 	 -57.5549 	 48.4332 	 135.927
|  9> C 	 -58.1341 	 49.623 	 135.4
| 10> C 	 -59.2878 	 49.3609 	 134.631
| 11> C 	 -59.685 	 48.0557 	 134.546
| 12> H 	 -59.861 	 50.0991 	 134.07
| 13> C 	 -57.5239 	 51.0082 	 135.606
| 14> H 	 -57.7486 	 51.546 	 134.681
| 15> H 	 -56.3988 	 50.8353 	 135.726
| 16> C 	 -58.0671 	 51.7914 	 136.772
| 17> H 	 -57.7917 	 51.3575 	 137.708
| 18> H 	 -57.6294 	 52.7805 	 136.741
| 19> C 	 -59.5681 	 51.9097 	 136.745
| 20> H 	 -59.9452 	 52.6773 	 137.501
| 21> H 	 -60.004 	 52.284 	 135.799
| 22> H 	 -60.1558 	 50.9891 	 136.864
| 23> S 	 -60.7385 	 46.335 	 132.596
| 24> C 	 -62.4734 	 46.3684 	 132.324
| 25> C 	 -63.0656 	 47.1393 	 133.232
| 26> C 	 -62.2331 	 47.7772 	 134.221
| 27> C 	 -60.8824 	 47.5199 	 133.92
| 28> H 	 -64.101 	 47.236 	 133.172
| 29> C 	 -62.7712 	 48.4968 	 135.409
| 30> H 	 -63.8075 	 48.7372 	 135.287
| 31> H 	 -62.3955 	 49.4841 	 135.411
| 32> C 	 -62.2978 	 47.9556 	 136.72
| 33> H 	 -61.1164 	 47.9947 	 136.741
| 34> H 	 -62.8355 	 46.9733 	 136.774
| 35> C 	 -62.7117 	 48.8512 	 137.865
| 36> H 	 -62.1281 	 49.7894 	 137.858
| 37> H 	 -62.6398 	 48.3195 	 138.826
| 38> H 	 -63.7692 	 49.1291 	 137.791
| 39> H 	 -56.6868 	 48.3494 	 136.56
| 40> H 	 -62.9873 	 45.7158 	 131.584
| 41> *
| 42>
| 43>                          ****END OF INPUT****

CARTESIAN COORDINATES (ANGSTROEM)
---------------------------------
  S    -58.474800   47.033900  135.218000
  C    -57.554900   48.433200  135.927000
  C    -58.134100   49.623000  135.400000
  C    -59.287800   49.360900  134.631000
  C    -59.685000   48.055700  134.546000
  H    -59.861000   50.099100  134.070000
  C    -57.523900   51.008200  135.606000
  H    -57.748600   51.546000  134.681000
  H    -56.398800   50.835300  135.726000
  C    -58.067100   51.791400  136.772000
  H    -57.791700   51.357500  137.708000
  H    -57.629400   52.780500  136.741000
  C    -59.568100   51.909700  136.745000
  H    -59.945200   52.677300  137.501000
  H    -60.004000   52.284000  135.799000
  H    -60.155800   50.989100  136.864000
  S    -60.738500   46.335000  132.596000
  C    -62.473400   46.368400  132.324000
  C    -63.065600   47.139300  133.232000
  C    -62.233100   47.777200  134.221000
  C    -60.882400   47.519900  133.920000
  H    -64.101000   47.236000  133.172000
  C    -62.771200   48.496800  135.409000
  H    -63.807500   48.737200  135.287000
  H    -62.395500   49.484100  135.411000
  C    -62.297800   47.955600  136.720000
  H    -61.116400   47.994700  136.741000
  H    -62.835500   46.973300  136.774000
  C    -62.711700   48.851200  137.865000
  H    -62.128100   49.789400  137.858000
  H    -62.639800   48.319500  138.826000
  H    -63.769200   49.129100  137.791000
  H    -56.686800   48.349400  136.560000
  H    -62.987300   45.715800  131.584000

 Total Charge           Charge          ....    0
 Multiplicity           Mult            ....    1
 Number of Electrons    NEL             ....  134
 Basis Dimension        Dim             ....  322

ORBITAL ENERGIES
----------------

  NO   OCC          E(Eh)            E(eV)
   0   2.0000     -88.965626     -2420.8778
   1   2.0000     -88.962190     -2420.7842
   2   2.0000     -10.329485      -281.0796
   3   2.0000     -10.326940      -281.0103
   4   2.0000     -10.323815      -280.9253
   5   2.0000     -10.315857      -280.7087
   6   2.0000     -10.306946      -280.4663
   7   2.0000     -10.305663      -280.4313
   8   2.0000     -10.298842      -280.2457
   9   2.0000     -10.292036      -280.0605
  10   2.0000     -10.290408      -280.0162
  11   2.0000     -10.284872      -279.8656
  12   2.0000     -10.284561      -279.8571
  13   2.0000     -10.283276      -279.8222
  14   2.0000     -10.280648      -279.7506
  15   2.0000     -10.276762      -279.6449
  16   2.0000      -8.079704      -219.8599
  17   2.0000      -8.076651      -219.7769
  18   2.0000      -6.038220      -164.3083
  19   2.0000      -6.035248      -164.2275
  20   2.0000      -6.034220      -164.1995
  21   2.0000      -6.031226      -164.1180
  22   2.0000      -6.030549      -164.0996
  23   2.0000      -6.027306      -164.0113
  24   2.0000      -1.005279       -27.3550
  25   2.0000      -0.982266       -26.7288
  26   2.0000      -0.919013       -25.0076
  27   2.0000      -0.918572       -24.9956
  28   2.0000      -0.869328       -23.6556
  29   2.0000      -0.849601       -23.1188
  30   2.0000      -0.841617       -22.9016
  31   2.0000      -0.817212       -22.2375
  32   2.0000      -0.784560       -21.3490
  33   2.0000      -0.771875       -21.0038
  34   2.0000      -0.706233       -19.2176
  35   2.0000      -0.706124       -19.2146
  36   2.0000      -0.685835       -18.6625
  37   2.0000      -0.657430       -17.8896
  38   2.0000      -0.641248       -17.4492
  39   2.0000      -0.615834       -16.7577
  40   2.0000      -0.600412       -16.3380
  41   2.0000      -0.576334       -15.6828
  42   2.0000      -0.575572       -15.6621
  43   2.0000      -0.549228       -14.9452
  44   2.0000      -0.544419       -14.8144
  45   2.0000      -0.525276       -14.2935
  46   2.0000      -0.519300       -14.1309
  47   2.0000      -0.511561       -13.9203
  48   2.0000      -0.509705       -13.8698
  49   2.0000      -0.500469       -13.6185
  50   2.0000      -0.496238       -13.5033
  51   2.0000      -0.480602       -13.0778
  52   2.0000      -0.469423       -12.7736
  53   2.0000      -0.457572       -12.4512
  54   2.0000      -0.455989       -12.4081
  55   2.0000      -0.443693       -12.0735
  56   2.0000      -0.438925       -11.9438
  57   2.0000      -0.435246       -11.8436
  58   2.0000      -0.433463       -11.7951
  59   2.0000      -0.423847       -11.5335
  60   2.0000      -0.419488       -11.4148
  61   2.0000      -0.415014       -11.2931
  62   2.0000      -0.410670       -11.1749
  63   2.0000      -0.341190        -9.2842
  64   2.0000      -0.331792        -9.0285
  65   2.0000      -0.326492        -8.8843
  66   2.0000      -0.294790        -8.0216
  67   0.0000       0.027966         0.7610
  68   0.0000       0.062764         1.7079
  69   0.0000       0.103303         2.8110
  70   0.0000       0.121213         3.2984
  71   0.0000       0.124150         3.3783

MULLIKEN ATOMIC CHARGES
-----------------------
   0 S :    0.106628
   1 C :   -0.133233
   2 C :   -0.096300
   3 C :    0.038451
   4 C :   -0.191041
   5 H :    0.013809
   6 C :    0.037927
   7 H :    0.031201
   8 H :    0.043174
   9 C :    0.009326
  10 H :    0.020431
  11 H :    0.030749
  12 C :   -0.110579
  13 H :    0.041305
  14 H :    0.017399
  15 H :    0.047815
  16 S :    0.094742
  17 C :   -0.095847
  18 C :   -0.016338
  19 C :   -0.017301
  20 C :   -0.162773
  21 H :   -0.010095
  22 C :    0.139552
  23 H :    0.003783
  24 H :   -0.014170
  25 C :   -0.121789
  26 H :    0.077120
  27 H :    0.041152
  28 C :   -0.042155
  29 H :    0.034650
  30 H :    0.041010
  31 H :    0.017877
  32 H :    0.051840
  33 H :    0.071679
Sum of atomic charges:   -0.0000000

LOEWDIN ATOMIC CHARGES
----------------------
   0 S :    0.397518
   1 C :   -0.181939
   2 C :   -0.059837
   3 C :   -0.071979
   4 C :   -0.205976
   5 H :    0.033130
   6 C :   -0.032725
   7 H :    0.032579
   8 H :    0.040354
   9 C :   -0.038806
  10 H :    0.022709
  11 H :    0.028094
  12 C :   -0.078122
  13 H :    0.034294
  14 H :    0.021652
  15 H :    0.024073
  16 S :    0.381059
  17 C :   -0.182159
  18 C :   -0.071943
  19 C :   -0.042379
  20 C :   -0.189219
  21 H :    0.021130
  22 C :   -0.043343
  23 H :    0.027888
  24 H :    0.026092
  25 C :   -0.045963
  26 H :    0.047907
  27 H :    0.030873
  28 C :   -0.070752
  29 H :    0.025822
  30 H :    0.030256
  31 H :    0.021100
  32 H :    0.026986
  33 H :    0.041625

  Mayer bond orders larger than 0.100000
B(  0-S ,  1-C ) :   1.1354 B(  0-S ,  4-C ) :   1.1586 B(  1-C ,  2-C ) :   1.5727
B(  1-C ,  4-C ) :   0.1131 B(  1-C , 32-H ) :   0.9770 B(  2-C ,  3-C ) :   1.2478
B(  2-C ,  6-C ) :   1.0122 B(  3-C ,  4-C ) :   1.5751 B(  3-C ,  5-H ) :   0.9940
B(  4-C , 20-C ) :   1.0310 B(  6-C ,  7-H ) :   0.9404 B(  6-C ,  8-H ) :   0.9430
B(  6-C ,  9-C ) :   1.0839 B(  9-C , 10-H ) :   0.9487 B(  9-C , 11-H ) :   0.9510
B(  9-C , 12-C ) :   1.0816 B( 12-C , 13-H ) :   0.9711 B( 12-C , 14-H ) :   0.9702
B( 12-C , 15-H ) :   0.9647 B( 16-S , 17-C ) :   1.1317 B( 16-S , 20-C ) :   1.1359
B( 17-C , 18-C ) :   1.6409 B( 17-C , 33-H ) :   0.9610 B( 18-C , 19-C ) :   1.2230
B( 18-C , 21-H ) :   0.9981 B( 19-C , 20-C ) :   1.5811 B( 19-C , 22-C ) :   1.0568
B( 22-C , 23-H ) :   0.9214 B( 22-C , 24-H ) :   0.9000 B( 22-C , 25-C ) :   1.0554
B( 25-C , 26-H ) :   0.9445 B( 25-C , 27-H ) :   0.9550 B( 25-C , 28-C ) :   1.0905
B( 28-C , 29-H ) :   0.9701 B( 28-C , 30-H ) :   0.9719 B( 28-C , 31-H ) :   0.9671

Dispersion correction           -0.016052081
FINAL SINGLE POINT ENERGY     -1339.872929343751

DIPOLE MOMENT
-------------
                                X             Y             Z
Electronic contribution:      6.82081     -21.59584     -18.45433
Nuclear contribution   :     -7.11449      22.19605      18.71499
                        -----------------------------------------
Total Dipole Moment    :     -0.29367       0.60021       0.26066
                        -----------------------------------------
Magnitude (a.u.)       :      0.71724
Magnitude (Debye)      :      1.82309

Rotational constants in cm-1:     0.019203     0.009946     0.007826
Rotational constants in MHz :   575.702291   298.167080   234.621693

                             ****ORCA TERMINATED NORMALLY****
TOTAL RUN TIME: 0 days 0 hours 0 minutes 38 seconds 388 msec
