                         Program Version 4.2.1 -  RELEASE  -
|  1> ! wB97X-D3 SP def2-SVP
|  2> %pal
|  3> nprocs 16
|  4> end
|  5>
|  6> * xyz 0 1
|  7> S 	 39.8163 	 10.1661 	 77.5831
|  8> C 	 40.7174 	 8.77073 	 76.9719
|  9> C 	 42.0453 	 8.96822 	 77.3187
| 10> C 	 42.2236 	 9.96206 	 78.3052
| 11> C 	 41.1714 	 10.8116 	 78.4853
| 12> H 	 43.1204 	 10.1927 	 78.7741
| 13> C 	 43.1767 	 8.1513 	 76.8538
| 14> H 	 42.8211 	 7.42863 	 76.1134
| 15> H 	 43.3858 	 7.45598 	 77.6824
| 16> C 	 44.5137 	 8.86423 	 76.4432
| 17> H 	 44.9738 	 9.40689 	 77.3231
| 18> H 	 45.3086 	 8.24774 	 76.1587
| 19> C 	 44.3664 	 9.88946 	 75.3198
| 20> H 	 43.5373 	 10.6427 	 75.4937
| 21> H 	 45.2968 	 10.2968 	 74.9817
| 22> H 	 43.9701 	 9.25981 	 74.4878
| 23> S 	 42.0254 	 13.4122 	 78.645
| 24> C 	 41.5268 	 14.4124 	 79.9902
| 25> C 	 40.8001 	 13.6946 	 80.8738
| 26> C 	 40.4877 	 12.3831 	 80.3911
| 27> C 	 41.1481 	 12.0177 	 79.2337
| 28> H 	 40.4085 	 14.1507 	 81.7887
| 29> C 	 39.5831 	 11.3788 	 81.0955
| 30> H 	 38.8358 	 11.0424 	 80.3907
| 31> H 	 39.031 	 11.923 	 81.9525
| 32> C 	 40.2534 	 10.051 	 81.679
| 33> H 	 40.7966 	 9.54501 	 80.9604
| 34> H 	 39.434 	 9.3882 	 82.0735
| 35> C 	 41.1844 	 10.354 	 82.8666
| 36> H 	 42.1283 	 10.8766 	 82.6004
| 37> H 	 41.4498 	 9.33775 	 83.2268
| 38> H 	 40.7498 	 10.9771 	 83.604
| 39> H 	 40.4216 	 7.96778 	 76.2968
| 40> H 	 41.8748 	 15.3514 	 80.1655
| 41> *
| 42>
| 43>                          ****END OF INPUT****

CARTESIAN COORDINATES (ANGSTROEM)
---------------------------------
  S     39.816300   10.166100   77.583100
  C     40.717400    8.770730   76.971900
  C     42.045300    8.968220   77.318700
  C     42.223600    9.962060   78.305200
  C     41.171400   10.811600   78.485300
  H     43.120400   10.192700   78.774100
  C     43.176700    8.151300   76.853800
  H     42.821100    7.428630   76.113400
  H     43.385800    7.455980   77.682400
  C     44.513700    8.864230   76.443200
  H     44.973800    9.406890   77.323100
  H     45.308600    8.247740   76.158700
  C     44.366400    9.889460   75.319800
  H     43.537300   10.642700   75.493700
  H     45.296800   10.296800   74.981700
  H     43.970100    9.259810   74.487800
  S     42.025400   13.412200   78.645000
  C     41.526800   14.412400   79.990200
  C     40.800100   13.694600   80.873800
  C     40.487700   12.383100   80.391100
  C     41.148100   12.017700   79.233700
  H     40.408500   14.150700   81.788700
  C     39.583100   11.378800   81.095500
  H     38.835800   11.042400   80.390700
  H     39.031000   11.923000   81.952500
  C     40.253400   10.051000   81.679000
  H     40.796600    9.545010   80.960400
  H     39.434000    9.388200   82.073500
  C     41.184400   10.354000   82.866600
  H     42.128300   10.876600   82.600400
  H     41.449800    9.337750   83.226800
  H     40.749800   10.977100   83.604000
  H     40.421600    7.967780   76.296800
  H     41.874800   15.351400   80.165500

 Total Charge           Charge          ....    0
 Multiplicity           Mult            ....    1
 Number of Electrons    NEL             ....  134
 Basis Dimension        Dim             ....  322

ORBITAL ENERGIES
----------------

  NO   OCC          E(Eh)            E(eV)
   0   2.0000     -88.965672     -2420.8790
   1   2.0000     -88.963973     -2420.8328
   2   2.0000     -10.327175      -281.0167
   3   2.0000     -10.322321      -280.8846
   4   2.0000     -10.317626      -280.7569
   5   2.0000     -10.311339      -280.5858
   6   2.0000     -10.303944      -280.3846
   7   2.0000     -10.298970      -280.2492
   8   2.0000     -10.294868      -280.1376
   9   2.0000     -10.294764      -280.1348
  10   2.0000     -10.294509      -280.1278
  11   2.0000     -10.290498      -280.0187
  12   2.0000     -10.285335      -279.8782
  13   2.0000     -10.283099      -279.8174
  14   2.0000     -10.277934      -279.6768
  15   2.0000     -10.271928      -279.5134
  16   2.0000      -8.079697      -219.8597
  17   2.0000      -8.078921      -219.8386
  18   2.0000      -6.038329      -164.3113
  19   2.0000      -6.037439      -164.2871
  20   2.0000      -6.034207      -164.1991
  21   2.0000      -6.033301      -164.1745
  22   2.0000      -6.030427      -164.0963
  23   2.0000      -6.029742      -164.0776
  24   2.0000      -1.012323       -27.5467
  25   2.0000      -0.989367       -26.9221
  26   2.0000      -0.913088       -24.8464
  27   2.0000      -0.897042       -24.4098
  28   2.0000      -0.877179       -23.8692
  29   2.0000      -0.848689       -23.0940
  30   2.0000      -0.843959       -22.9653
  31   2.0000      -0.823488       -22.4082
  32   2.0000      -0.780095       -21.2275
  33   2.0000      -0.768408       -20.9095
  34   2.0000      -0.717970       -19.5370
  35   2.0000      -0.697924       -18.9915
  36   2.0000      -0.689978       -18.7753
  37   2.0000      -0.668049       -18.1785
  38   2.0000      -0.640950       -17.4411
  39   2.0000      -0.624511       -16.9938
  40   2.0000      -0.591902       -16.1065
  41   2.0000      -0.570934       -15.5359
  42   2.0000      -0.559699       -15.2302
  43   2.0000      -0.549429       -14.9507
  44   2.0000      -0.539381       -14.6773
  45   2.0000      -0.536167       -14.5898
  46   2.0000      -0.520792       -14.1715
  47   2.0000      -0.515773       -14.0349
  48   2.0000      -0.511831       -13.9276
  49   2.0000      -0.493011       -13.4155
  50   2.0000      -0.486998       -13.2519
  51   2.0000      -0.484131       -13.1739
  52   2.0000      -0.470898       -12.8138
  53   2.0000      -0.466647       -12.6981
  54   2.0000      -0.458655       -12.4806
  55   2.0000      -0.449702       -12.2370
  56   2.0000      -0.439376       -11.9560
  57   2.0000      -0.435152       -11.8411
  58   2.0000      -0.429132       -11.6773
  59   2.0000      -0.420032       -11.4297
  60   2.0000      -0.417950       -11.3730
  61   2.0000      -0.411506       -11.1976
  62   2.0000      -0.407520       -11.0892
  63   2.0000      -0.338470        -9.2102
  64   2.0000      -0.332150        -9.0383
  65   2.0000      -0.322320        -8.7708
  66   2.0000      -0.305298        -8.3076
  67   0.0000       0.033785         0.9193
  68   0.0000       0.059984         1.6322
  69   0.0000       0.111317         3.0291
  70   0.0000       0.123443         3.3591
  71   0.0000       0.128834         3.5058

MULLIKEN ATOMIC CHARGES
-----------------------
   0 S :    0.112823
   1 C :   -0.115620
   2 C :   -0.103227
   3 C :    0.063977
   4 C :   -0.163977
   5 H :   -0.016775
   6 C :    0.066585
   7 H :    0.009052
   8 H :    0.040955
   9 C :   -0.063924
  10 H :    0.029322
  11 H :    0.018036
  12 C :   -0.066672
  13 H :    0.056392
  14 H :    0.036583
  15 H :    0.020315
  16 S :    0.110504
  17 C :   -0.043885
  18 C :   -0.035479
  19 C :   -0.023317
  20 C :   -0.169730
  21 H :    0.025286
  22 C :    0.033816
  23 H :    0.031093
  24 H :    0.027887
  25 C :   -0.052750
  26 H :    0.028748
  27 H :    0.038134
  28 C :   -0.058529
  29 H :    0.035920
  30 H :    0.034689
  31 H :    0.019584
  32 H :    0.053206
  33 H :    0.020975
Sum of atomic charges:   -0.0000000

LOEWDIN ATOMIC CHARGES
----------------------
   0 S :    0.401537
   1 C :   -0.196689
   2 C :   -0.066496
   3 C :   -0.053144
   4 C :   -0.192429
   5 H :    0.019681
   6 C :   -0.038344
   7 H :    0.028387
   8 H :    0.041997
   9 C :   -0.041597
  10 H :    0.025549
  11 H :    0.019387
  12 C :   -0.071003
  13 H :    0.034407
  14 H :    0.022387
  15 H :    0.026479
  16 S :    0.410518
  17 C :   -0.162350
  18 C :   -0.072243
  19 C :   -0.052348
  20 C :   -0.207687
  21 H :    0.036470
  22 C :   -0.038944
  23 H :    0.025675
  24 H :    0.033738
  25 C :   -0.028505
  26 H :    0.013446
  27 H :    0.031651
  28 C :   -0.067499
  29 H :    0.026818
  30 H :    0.029867
  31 H :    0.014523
  32 H :    0.035516
  33 H :    0.011244

  Mayer bond orders larger than 0.100000
B(  0-S ,  1-C ) :   1.1305 B(  0-S ,  4-C ) :   1.1362 B(  1-C ,  2-C ) :   1.5967
B(  1-C ,  4-C ) :   0.1026 B(  1-C , 32-H ) :   0.9666 B(  2-C ,  3-C ) :   1.2245
B(  2-C ,  6-C ) :   1.0423 B(  3-C ,  4-C ) :   1.5859 B(  3-C ,  5-H ) :   1.0048
B(  4-C , 20-C ) :   1.0576 B(  6-C ,  7-H ) :   0.9374 B(  6-C ,  8-H ) :   0.9305
B(  6-C ,  9-C ) :   1.0633 B(  9-C , 10-H ) :   0.9521 B(  9-C , 11-H ) :   0.9553
B(  9-C , 12-C ) :   1.0745 B( 12-C , 13-H ) :   0.9738 B( 12-C , 14-H ) :   0.9742
B( 12-C , 15-H ) :   0.9739 B( 16-S , 17-C ) :   1.1611 B( 16-S , 20-C ) :   1.1366
B( 17-C , 18-C ) :   1.6088 B( 17-C , 33-H ) :   0.9758 B( 18-C , 19-C ) :   1.2461
B( 18-C , 21-H ) :   0.9877 B( 19-C , 20-C ) :   1.5808 B( 19-C , 22-C ) :   1.0439
B( 22-C , 23-H ) :   0.9292 B( 22-C , 24-H ) :   0.9416 B( 22-C , 25-C ) :   1.0681
B( 25-C , 26-H ) :   0.9581 B( 25-C , 27-H ) :   0.9571 B( 25-C , 28-C ) :   1.0707
B( 28-C , 29-H ) :   0.9757 B( 28-C , 30-H ) :   0.9753 B( 28-C , 31-H ) :   0.9781

Dispersion correction           -0.015681469
FINAL SINGLE POINT ENERGY     -1339.869403306137

DIPOLE MOMENT
-------------
                                X             Y             Z
Electronic contribution:     -9.60220      12.33948      -5.60908
Nuclear contribution   :      9.93283     -12.61172       5.81346
                        -----------------------------------------
Total Dipole Moment    :      0.33064      -0.27223       0.20438
                        -----------------------------------------
Magnitude (a.u.)       :      0.47455
Magnitude (Debye)      :      1.20622

Rotational constants in cm-1:     0.019562     0.009294     0.007985
Rotational constants in MHz :   586.446600   278.619522   239.382522

                             ****ORCA TERMINATED NORMALLY****
TOTAL RUN TIME: 0 days 0 hours 0 minutes 30 seconds 387 msec
