                         Program Version 4.2.1 -  RELEASE  -
|  1> ! wB97X-D3 SP def2-SVP
|  2> %pal
|  3> nprocs 16
|  4> end
|  5>
|  6> * xyz 0 1
|  7> S 	 -116.631 	 48.7024 	 134.257
|  8> C 	 -115.579 	 49.0256 	 132.923
|  9> C 	 -116.148 	 49.7337 	 131.9
| 10> C 	 -117.539 	 50.101 	 132.264
| 11> C 	 -117.939 	 49.5577 	 133.471
| 12> H 	 -118.256 	 50.4875 	 131.603
| 13> C 	 -115.578 	 50.1391 	 130.525
| 14> H 	 -116.237 	 50.7939 	 129.923
| 15> H 	 -115.531 	 49.1259 	 129.973
| 16> C 	 -114.172 	 50.7515 	 130.517
| 17> H 	 -114.353 	 51.6935 	 130.996
| 18> H 	 -113.436 	 50.1175 	 131.09
| 19> C 	 -113.649 	 51.1085 	 129.092
| 20> H 	 -114.165 	 51.7775 	 128.496
| 21> H 	 -112.563 	 51.3452 	 129.162
| 22> H 	 -113.659 	 50.1102 	 128.57
| 23> S 	 -120.695 	 49.4368 	 133.443
| 24> C 	 -121.593 	 50.0249 	 134.865
| 25> C 	 -120.725 	 50.5808 	 135.743
| 26> C 	 -119.372 	 50.4045 	 135.45
| 27> C 	 -119.191 	 49.9101 	 134.155
| 28> H 	 -121.118 	 50.9942 	 136.588
| 29> C 	 -118.274 	 50.9904 	 136.339
| 30> H 	 -117.488 	 50.2536 	 136.447
| 31> H 	 -118.601 	 51.0859 	 137.42
| 32> C 	 -117.638 	 52.2647 	 135.897
| 33> H 	 -118.398 	 53.0379 	 135.855
| 34> H 	 -117.243 	 52.1649 	 134.909
| 35> C 	 -116.504 	 52.6311 	 136.896
| 36> H 	 -115.749 	 51.8189 	 136.923
| 37> H 	 -116.846 	 52.9507 	 137.846
| 38> H 	 -115.933 	 53.4623 	 136.539
| 39> H 	 -114.517 	 48.8332 	 132.849
| 40> H 	 -122.683 	 50.0258 	 134.93
| 41> *
| 42>
| 43>                          ****END OF INPUT****

CARTESIAN COORDINATES (ANGSTROEM)
---------------------------------
  S    -116.631000   48.702400  134.257000
  C    -115.579000   49.025600  132.923000
  C    -116.148000   49.733700  131.900000
  C    -117.539000   50.101000  132.264000
  C    -117.939000   49.557700  133.471000
  H    -118.256000   50.487500  131.603000
  C    -115.578000   50.139100  130.525000
  H    -116.237000   50.793900  129.923000
  H    -115.531000   49.125900  129.973000
  C    -114.172000   50.751500  130.517000
  H    -114.353000   51.693500  130.996000
  H    -113.436000   50.117500  131.090000
  C    -113.649000   51.108500  129.092000
  H    -114.165000   51.777500  128.496000
  H    -112.563000   51.345200  129.162000
  H    -113.659000   50.110200  128.570000
  S    -120.695000   49.436800  133.443000
  C    -121.593000   50.024900  134.865000
  C    -120.725000   50.580800  135.743000
  C    -119.372000   50.404500  135.450000
  C    -119.191000   49.910100  134.155000
  H    -121.118000   50.994200  136.588000
  C    -118.274000   50.990400  136.339000
  H    -117.488000   50.253600  136.447000
  H    -118.601000   51.085900  137.420000
  C    -117.638000   52.264700  135.897000
  H    -118.398000   53.037900  135.855000
  H    -117.243000   52.164900  134.909000
  C    -116.504000   52.631100  136.896000
  H    -115.749000   51.818900  136.923000
  H    -116.846000   52.950700  137.846000
  H    -115.933000   53.462300  136.539000
  H    -114.517000   48.833200  132.849000
  H    -122.683000   50.025800  134.930000

 Total Charge           Charge          ....    0
 Multiplicity           Mult            ....    1
 Number of Electrons    NEL             ....  134
 Basis Dimension        Dim             ....  322

ORBITAL ENERGIES
----------------

  NO   OCC          E(Eh)            E(eV)
   0   2.0000     -88.970704     -2421.0159
   1   2.0000     -88.964545     -2420.8483
   2   2.0000     -10.329405      -281.0774
   3   2.0000     -10.325737      -280.9776
   4   2.0000     -10.315699      -280.7044
   5   2.0000     -10.311876      -280.6004
   6   2.0000     -10.306502      -280.4542
   7   2.0000     -10.304929      -280.4114
   8   2.0000     -10.298449      -280.2350
   9   2.0000     -10.293998      -280.1139
  10   2.0000     -10.293314      -280.0953
  11   2.0000     -10.286401      -279.9072
  12   2.0000     -10.283252      -279.8215
  13   2.0000     -10.281435      -279.7721
  14   2.0000     -10.276727      -279.6440
  15   2.0000     -10.271651      -279.5058
  16   2.0000      -8.085175      -220.0088
  17   2.0000      -8.079203      -219.8463
  18   2.0000      -6.043805      -164.4603
  19   2.0000      -6.039740      -164.3497
  20   2.0000      -6.037692      -164.2940
  21   2.0000      -6.035798      -164.2424
  22   2.0000      -6.033656      -164.1841
  23   2.0000      -6.030068      -164.0865
  24   2.0000      -1.007411       -27.4130
  25   2.0000      -0.985221       -26.8092
  26   2.0000      -0.909880       -24.7591
  27   2.0000      -0.908152       -24.7121
  28   2.0000      -0.872269       -23.7356
  29   2.0000      -0.850945       -23.1554
  30   2.0000      -0.844053       -22.9678
  31   2.0000      -0.815525       -22.1916
  32   2.0000      -0.781187       -21.2572
  33   2.0000      -0.770451       -20.9650
  34   2.0000      -0.707785       -19.2598
  35   2.0000      -0.700317       -19.0566
  36   2.0000      -0.691012       -18.8034
  37   2.0000      -0.664799       -18.0901
  38   2.0000      -0.640887       -17.4394
  39   2.0000      -0.611834       -16.6489
  40   2.0000      -0.598245       -16.2791
  41   2.0000      -0.580333       -15.7917
  42   2.0000      -0.566768       -15.4225
  43   2.0000      -0.563850       -15.3432
  44   2.0000      -0.519526       -14.1370
  45   2.0000      -0.518313       -14.1040
  46   2.0000      -0.517990       -14.0952
  47   2.0000      -0.513788       -13.9809
  48   2.0000      -0.502382       -13.6705
  49   2.0000      -0.500113       -13.6088
  50   2.0000      -0.486300       -13.2329
  51   2.0000      -0.478979       -13.0337
  52   2.0000      -0.474808       -12.9202
  53   2.0000      -0.467866       -12.7313
  54   2.0000      -0.458015       -12.4632
  55   2.0000      -0.454195       -12.3593
  56   2.0000      -0.443062       -12.0563
  57   2.0000      -0.436250       -11.8710
  58   2.0000      -0.432867       -11.7789
  59   2.0000      -0.425103       -11.5677
  60   2.0000      -0.418888       -11.3985
  61   2.0000      -0.414439       -11.2775
  62   2.0000      -0.410594       -11.1728
  63   2.0000      -0.348486        -9.4828
  64   2.0000      -0.332299        -9.0423
  65   2.0000      -0.326084        -8.8732
  66   2.0000      -0.295542        -8.0421
  67   0.0000       0.031578         0.8593
  68   0.0000       0.072834         1.9819
  69   0.0000       0.112367         3.0577
  70   0.0000       0.115796         3.1510
  71   0.0000       0.131373         3.5748

MULLIKEN ATOMIC CHARGES
-----------------------
   0 S :    0.128436
   1 C :   -0.124487
   2 C :   -0.073075
   3 C :    0.028649
   4 C :   -0.138523
   5 H :    0.003742
   6 C :    0.026018
   7 H :    0.032398
   8 H :    0.050199
   9 C :   -0.100503
  10 H :    0.033372
  11 H :    0.044495
  12 C :   -0.043355
  13 H :    0.030954
  14 H :    0.043205
  15 H :    0.023561
  16 S :    0.099546
  17 C :   -0.100639
  18 C :    0.010620
  19 C :   -0.014501
  20 C :   -0.158633
  21 H :   -0.021955
  22 C :    0.029947
  23 H :    0.008173
  24 H :    0.019469
  25 C :   -0.026300
  26 H :    0.018397
  27 H :    0.028038
  28 C :   -0.032000
  29 H :    0.033186
  30 H :    0.024867
  31 H :    0.017359
  32 H :    0.038304
  33 H :    0.061036
Sum of atomic charges:    0.0000000

LOEWDIN ATOMIC CHARGES
----------------------
   0 S :    0.425116
   1 C :   -0.210611
   2 C :   -0.059287
   3 C :   -0.054996
   4 C :   -0.193976
   5 H :    0.021424
   6 C :   -0.039972
   7 H :    0.032178
   8 H :    0.041089
   9 C :   -0.044718
  10 H :    0.022456
  11 H :    0.029251
  12 C :   -0.064726
  13 H :    0.014037
  14 H :    0.034383
  15 H :    0.029447
  16 S :    0.403547
  17 C :   -0.174701
  18 C :   -0.059566
  19 C :   -0.060407
  20 C :   -0.200775
  21 H :    0.017722
  22 C :   -0.041548
  23 H :    0.016057
  24 H :    0.033479
  25 C :   -0.031907
  26 H :    0.021095
  27 H :    0.023873
  28 C :   -0.059341
  29 H :    0.030066
  30 H :    0.018633
  31 H :    0.022619
  32 H :    0.027834
  33 H :    0.032223

  Mayer bond orders larger than 0.100000
B(  0-S ,  1-C ) :   1.1294 B(  0-S ,  4-C ) :   1.1425 B(  1-C ,  2-C ) :   1.6560
B(  1-C , 32-H ) :   0.9603 B(  2-C ,  3-C ) :   1.2203 B(  2-C ,  6-C ) :   1.0066
B(  3-C ,  4-C ) :   1.5995 B(  3-C ,  5-H ) :   0.9926 B(  4-C , 20-C ) :   1.0153
B(  6-C ,  7-H ) :   0.9520 B(  6-C ,  8-H ) :   0.9337 B(  6-C ,  9-C ) :   1.0583
B(  9-C , 10-H ) :   0.9588 B(  9-C , 11-H ) :   0.9545 B(  9-C , 12-C ) :   1.0782
B( 12-C , 13-H ) :   0.9785 B( 12-C , 14-H ) :   0.9740 B( 12-C , 15-H ) :   0.9743
B( 16-S , 17-C ) :   1.1436 B( 16-S , 20-C ) :   1.1641 B( 17-C , 18-C ) :   1.6018
B( 17-C , 20-C ) :   0.1025 B( 17-C , 33-H ) :   0.9673 B( 18-C , 19-C ) :   1.2566
B( 18-C , 21-H ) :   1.0055 B( 19-C , 20-C ) :   1.5565 B( 19-C , 22-C ) :   1.0438
B( 22-C , 23-H ) :   0.9239 B( 22-C , 24-H ) :   0.9355 B( 22-C , 25-C ) :   1.0734
B( 25-C , 26-H ) :   0.9525 B( 25-C , 27-H ) :   0.9501 B( 25-C , 28-C ) :   1.0827
B( 28-C , 29-H ) :   0.9738 B( 28-C , 30-H ) :   0.9760 B( 28-C , 31-H ) :   0.9718

Dispersion correction           -0.014317707
FINAL SINGLE POINT ENERGY     -1339.872791726387

DIPOLE MOMENT
-------------
                                X             Y             Z
Electronic contribution:    -19.79406     -15.27803       4.74454
Nuclear contribution   :     20.05458      15.70935      -4.87326
                        -----------------------------------------
Total Dipole Moment    :      0.26052       0.43133      -0.12871
                        -----------------------------------------
Magnitude (a.u.)       :      0.52008
Magnitude (Debye)      :      1.32194

Rotational constants in cm-1:     0.020056     0.007815     0.006565
Rotational constants in MHz :   601.276305   234.272968   196.824579

                             ****ORCA TERMINATED NORMALLY****
TOTAL RUN TIME: 0 days 0 hours 0 minutes 33 seconds 915 msec
