                         Program Version 4.2.1 -  RELEASE  -
|  1> ! wB97X-D3 SP def2-SVP
|  2> %pal
|  3> nprocs 16
|  4> end
|  5>
|  6> * xyz 0 1
|  7> S 	 -1.54077 	 -19.3276 	 86.0118
|  8> C 	 -3.15003 	 -19.8068 	 86.6812
|  9> C 	 -3.03382 	 -19.6887 	 88.0424
| 10> C 	 -1.83071 	 -19.0223 	 88.4851
| 11> C 	 -1.00524 	 -18.562 	 87.4666
| 12> H 	 -1.59633 	 -18.7206 	 89.4869
| 13> C 	 -4.06095 	 -20.2458 	 88.9333
| 14> H 	 -3.73546 	 -21.2893 	 88.999
| 15> H 	 -5.02518 	 -20.2405 	 88.4058
| 16> C 	 -4.31341 	 -19.6005 	 90.2888
| 17> H 	 -5.07735 	 -20.2391 	 90.8189
| 18> H 	 -3.45426 	 -19.5816 	 90.9105
| 19> C 	 -4.91986 	 -18.2031 	 90.0984
| 20> H 	 -4.26836 	 -17.4814 	 89.6861
| 21> H 	 -5.79797 	 -18.2942 	 89.4863
| 22> H 	 -5.40168 	 -17.7973 	 91.0251
| 23> S 	 1.667 	 -18.5218 	 86.8738
| 24> C 	 2.66725 	 -17.152 	 87.1568
| 25> C 	 1.95834 	 -16.1834 	 87.9021
| 26> C 	 0.591092 	 -16.594 	 88.1391
| 27> C 	 0.234023 	 -17.834 	 87.5761
| 28> H 	 2.43884 	 -15.2545 	 88.0469
| 29> C 	 -0.439243 	 -15.6278 	 88.8205
| 30> H 	 0.203764 	 -14.9304 	 89.3597
| 31> H 	 -1.02735 	 -16.1504 	 89.5883
| 32> C 	 -1.46069 	 -14.9263 	 87.8586
| 33> H 	 -2.27766 	 -15.6293 	 87.5824
| 34> H 	 -0.937898 	 -14.844 	 86.8886
| 35> C 	 -2.19229 	 -13.7279 	 88.3216
| 36> H 	 -2.81234 	 -14.0644 	 89.1708
| 37> H 	 -2.89276 	 -13.4598 	 87.493
| 38> H 	 -1.51469 	 -12.9321 	 88.5017
| 39> H 	 -3.94648 	 -20.3839 	 86.1783
| 40> H 	 3.67883 	 -16.9426 	 86.855
| 41> *
| 42>
| 43>                          ****END OF INPUT****

CARTESIAN COORDINATES (ANGSTROEM)
---------------------------------
  S     -1.540770  -19.327600   86.011800
  C     -3.150030  -19.806800   86.681200
  C     -3.033820  -19.688700   88.042400
  C     -1.830710  -19.022300   88.485100
  C     -1.005240  -18.562000   87.466600
  H     -1.596330  -18.720600   89.486900
  C     -4.060950  -20.245800   88.933300
  H     -3.735460  -21.289300   88.999000
  H     -5.025180  -20.240500   88.405800
  C     -4.313410  -19.600500   90.288800
  H     -5.077350  -20.239100   90.818900
  H     -3.454260  -19.581600   90.910500
  C     -4.919860  -18.203100   90.098400
  H     -4.268360  -17.481400   89.686100
  H     -5.797970  -18.294200   89.486300
  H     -5.401680  -17.797300   91.025100
  S      1.667000  -18.521800   86.873800
  C      2.667250  -17.152000   87.156800
  C      1.958340  -16.183400   87.902100
  C      0.591092  -16.594000   88.139100
  C      0.234023  -17.834000   87.576100
  H      2.438840  -15.254500   88.046900
  C     -0.439243  -15.627800   88.820500
  H      0.203764  -14.930400   89.359700
  H     -1.027350  -16.150400   89.588300
  C     -1.460690  -14.926300   87.858600
  H     -2.277660  -15.629300   87.582400
  H     -0.937898  -14.844000   86.888600
  C     -2.192290  -13.727900   88.321600
  H     -2.812340  -14.064400   89.170800
  H     -2.892760  -13.459800   87.493000
  H     -1.514690  -12.932100   88.501700
  H     -3.946480  -20.383900   86.178300
  H      3.678830  -16.942600   86.855000

 Total Charge           Charge          ....    0
 Multiplicity           Mult            ....    1
 Number of Electrons    NEL             ....  134
 Basis Dimension        Dim             ....  322

ORBITAL ENERGIES
----------------

  NO   OCC          E(Eh)            E(eV)
   0   2.0000     -88.968110     -2420.9454
   1   2.0000     -88.961704     -2420.7710
   2   2.0000     -10.333105      -281.1781
   3   2.0000     -10.329873      -281.0901
   4   2.0000     -10.319616      -280.8110
   5   2.0000     -10.317635      -280.7571
   6   2.0000     -10.312961      -280.6299
   7   2.0000     -10.301674      -280.3228
   8   2.0000     -10.297489      -280.2089
   9   2.0000     -10.295051      -280.1426
  10   2.0000     -10.294712      -280.1334
  11   2.0000     -10.290442      -280.0172
  12   2.0000     -10.290181      -280.0101
  13   2.0000     -10.280991      -279.7600
  14   2.0000     -10.276260      -279.6313
  15   2.0000     -10.275981      -279.6237
  16   2.0000      -8.083225      -219.9557
  17   2.0000      -8.076078      -219.7613
  18   2.0000      -6.041671      -164.4022
  19   2.0000      -6.037425      -164.2867
  20   2.0000      -6.034726      -164.2133
  21   2.0000      -6.034250      -164.2003
  22   2.0000      -6.030707      -164.1039
  23   2.0000      -6.026586      -163.9917
  24   2.0000      -1.008525       -27.4434
  25   2.0000      -0.985113       -26.8063
  26   2.0000      -0.920261       -25.0416
  27   2.0000      -0.902895       -24.5690
  28   2.0000      -0.874316       -23.7913
  29   2.0000      -0.852384       -23.1946
  30   2.0000      -0.839999       -22.8575
  31   2.0000      -0.818967       -22.2852
  32   2.0000      -0.783117       -21.3097
  33   2.0000      -0.771996       -21.0071
  34   2.0000      -0.717037       -19.5116
  35   2.0000      -0.697479       -18.9794
  36   2.0000      -0.684510       -18.6265
  37   2.0000      -0.661790       -18.0082
  38   2.0000      -0.639208       -17.3937
  39   2.0000      -0.622395       -16.9362
  40   2.0000      -0.589640       -16.0449
  41   2.0000      -0.574861       -15.6428
  42   2.0000      -0.562595       -15.3090
  43   2.0000      -0.561426       -15.2772
  44   2.0000      -0.541939       -14.7469
  45   2.0000      -0.525492       -14.2994
  46   2.0000      -0.520166       -14.1544
  47   2.0000      -0.518250       -14.1023
  48   2.0000      -0.513697       -13.9784
  49   2.0000      -0.501115       -13.6360
  50   2.0000      -0.490639       -13.3510
  51   2.0000      -0.482078       -13.1180
  52   2.0000      -0.471407       -12.8276
  53   2.0000      -0.465519       -12.6674
  54   2.0000      -0.463644       -12.6164
  55   2.0000      -0.444353       -12.0914
  56   2.0000      -0.442041       -12.0285
  57   2.0000      -0.440447       -11.9852
  58   2.0000      -0.428789       -11.6679
  59   2.0000      -0.424370       -11.5477
  60   2.0000      -0.416473       -11.3328
  61   2.0000      -0.406850       -11.0710
  62   2.0000      -0.403561       -10.9815
  63   2.0000      -0.346275        -9.4226
  64   2.0000      -0.331154        -9.0111
  65   2.0000      -0.322750        -8.7825
  66   2.0000      -0.294904        -8.0248
  67   0.0000       0.022582         0.6145
  68   0.0000       0.066129         1.7995
  69   0.0000       0.111005         3.0206
  70   0.0000       0.116358         3.1663
  71   0.0000       0.127773         3.4769

MULLIKEN ATOMIC CHARGES
-----------------------
   0 S :    0.088010
   1 C :   -0.128953
   2 C :   -0.098290
   3 C :    0.046282
   4 C :   -0.139676
   5 H :    0.005079
   6 C :    0.041176
   7 H :    0.050158
   8 H :    0.022790
   9 C :   -0.057519
  10 H :    0.035392
  11 H :    0.028262
  12 C :   -0.046030
  13 H :    0.036922
  14 H :    0.014294
  15 H :    0.032605
  16 S :    0.121465
  17 C :   -0.092490
  18 C :   -0.042269
  19 C :   -0.054308
  20 C :   -0.152483
  21 H :    0.013236
  22 C :    0.083385
  23 H :    0.013634
  24 H :    0.021460
  25 C :   -0.115691
  26 H :    0.034300
  27 H :    0.029833
  28 C :   -0.019361
  29 H :    0.036150
  30 H :    0.041546
  31 H :    0.031030
  32 H :    0.063337
  33 H :    0.056722
Sum of atomic charges:    0.0000000

LOEWDIN ATOMIC CHARGES
----------------------
   0 S :    0.387512
   1 C :   -0.190333
   2 C :   -0.063651
   3 C :   -0.066302
   4 C :   -0.193388
   5 H :    0.025123
   6 C :   -0.039699
   7 H :    0.041421
   8 H :    0.033177
   9 C :   -0.039746
  10 H :    0.034735
  11 H :    0.016078
  12 C :   -0.064037
  13 H :    0.018692
  14 H :    0.022773
  15 H :    0.031754
  16 S :    0.434997
  17 C :   -0.196110
  18 C :   -0.072423
  19 C :   -0.051212
  20 C :   -0.209541
  21 H :    0.026760
  22 C :   -0.032058
  23 H :    0.025489
  24 H :    0.026147
  25 C :   -0.054841
  26 H :    0.029664
  27 H :    0.023242
  28 C :   -0.061952
  29 H :    0.030770
  30 H :    0.037472
  31 H :    0.017741
  32 H :    0.039174
  33 H :    0.032573

  Mayer bond orders larger than 0.100000
B(  0-S ,  1-C ) :   1.1077 B(  0-S ,  4-C ) :   1.1542 B(  1-C ,  2-C ) :   1.6145
B(  1-C ,  4-C ) :   0.1014 B(  1-C , 32-H ) :   0.9695 B(  2-C ,  3-C ) :   1.2232
B(  2-C ,  6-C ) :   1.0214 B(  3-C ,  4-C ) :   1.5538 B(  3-C ,  5-H ) :   0.9954
B(  4-C , 20-C ) :   1.0650 B(  6-C ,  7-H ) :   0.9240 B(  6-C ,  8-H ) :   0.9437
B(  6-C ,  9-C ) :   1.0864 B(  9-C , 10-H ) :   0.9511 B(  9-C , 11-H ) :   0.9515
B(  9-C , 12-C ) :   1.0752 B( 12-C , 13-H ) :   0.9779 B( 12-C , 14-H ) :   0.9712
B( 12-C , 15-H ) :   0.9732 B( 16-S , 17-C ) :   1.1812 B( 16-S , 20-C ) :   1.1512
B( 17-C , 18-C ) :   1.5816 B( 17-C , 20-C ) :   0.1043 B( 17-C , 33-H ) :   0.9674
B( 18-C , 19-C ) :   1.2661 B( 18-C , 21-H ) :   0.9960 B( 19-C , 20-C ) :   1.5585
B( 19-C , 22-C ) :   1.0428 B( 22-C , 23-H ) :   0.9395 B( 22-C , 24-H ) :   0.9352
B( 22-C , 25-C ) :   1.0470 B( 25-C , 26-H ) :   0.9504 B( 25-C , 27-H ) :   0.9585
B( 25-C , 28-C ) :   1.0918 B( 28-C , 29-H ) :   0.9709 B( 28-C , 30-H ) :   0.9696
B( 28-C , 31-H ) :   0.9761

Dispersion correction           -0.014744163
FINAL SINGLE POINT ENERGY     -1339.865738184950

DIPOLE MOMENT
-------------
                                X             Y             Z
Electronic contribution:     20.82110     -13.66965     -15.91888
Nuclear contribution   :    -21.17582      13.86523      16.36354
                        -----------------------------------------
Total Dipole Moment    :     -0.35472       0.19557       0.44466
                        -----------------------------------------
Magnitude (a.u.)       :      0.60150
Magnitude (Debye)      :      1.52888

Rotational constants in cm-1:     0.017344     0.009800     0.007331
Rotational constants in MHz :   519.961159   293.811282   219.787500

                             ****ORCA TERMINATED NORMALLY****
TOTAL RUN TIME: 0 days 0 hours 0 minutes 35 seconds 321 msec
