                         Program Version 4.2.1 -  RELEASE  -
|  1> ! wB97X-D3 SP def2-SVP
|  2> %pal
|  3> nprocs 16
|  4> end
|  5>
|  6> * xyz 0 1
|  7> S 	 -33.7734 	 28.2441 	 43.0368
|  8> C 	 -35.3117 	 27.9944 	 43.8706
|  9> C 	 -35.4505 	 28.8606 	 44.9343
| 10> C 	 -34.2861 	 29.7115 	 45.1812
| 11> C 	 -33.2995 	 29.5165 	 44.2511
| 12> H 	 -34.28 	 30.5116 	 45.8556
| 13> C 	 -36.7645 	 28.9265 	 45.7934
| 14> H 	 -36.9721 	 28.008 	 46.3024
| 15> H 	 -37.4971 	 29.0554 	 45.0152
| 16> C 	 -36.9515 	 30.0987 	 46.8524
| 17> H 	 -36.3843 	 29.744 	 47.6984
| 18> H 	 -36.5924 	 30.9983 	 46.3717
| 19> C 	 -38.3138 	 30.3914 	 47.3961
| 20> H 	 -39.035 	 30.4156 	 46.5428
| 21> H 	 -38.5306 	 29.7001 	 48.1184
| 22> H 	 -38.3689 	 31.3214 	 47.9691
| 23> S 	 -30.5455 	 29.5027 	 44.5798
| 24> C 	 -29.6743 	 30.9488 	 44.1224
| 25> C 	 -30.4714 	 31.9497 	 43.6028
| 26> C 	 -31.8768 	 31.6003 	 43.7021
| 27> C 	 -32.0739 	 30.2922 	 44.1204
| 28> H 	 -30.0888 	 32.8815 	 43.1507
| 29> C 	 -32.8778 	 32.6143 	 43.2214
| 30> H 	 -33.629 	 31.9401 	 42.687
| 31> H 	 -32.4299 	 33.2572 	 42.4577
| 32> C 	 -33.4907 	 33.3752 	 44.3741
| 33> H 	 -33.8488 	 32.6316 	 45.1102
| 34> H 	 -34.3792 	 33.9071 	 44.0299
| 35> C 	 -32.6175 	 34.4511 	 45.059
| 36> H 	 -31.6952 	 34.0405 	 45.3864
| 37> H 	 -33.1058 	 34.9429 	 45.9079
| 38> H 	 -32.3462 	 35.1428 	 44.3086
| 39> H 	 -36.0048 	 27.2977 	 43.5193
| 40> H 	 -28.574 	 30.9536 	 44.1205
| 41> *
| 42>
| 43>                          ****END OF INPUT****

CARTESIAN COORDINATES (ANGSTROEM)
---------------------------------
  S    -33.773400   28.244100   43.036800
  C    -35.311700   27.994400   43.870600
  C    -35.450500   28.860600   44.934300
  C    -34.286100   29.711500   45.181200
  C    -33.299500   29.516500   44.251100
  H    -34.280000   30.511600   45.855600
  C    -36.764500   28.926500   45.793400
  H    -36.972100   28.008000   46.302400
  H    -37.497100   29.055400   45.015200
  C    -36.951500   30.098700   46.852400
  H    -36.384300   29.744000   47.698400
  H    -36.592400   30.998300   46.371700
  C    -38.313800   30.391400   47.396100
  H    -39.035000   30.415600   46.542800
  H    -38.530600   29.700100   48.118400
  H    -38.368900   31.321400   47.969100
  S    -30.545500   29.502700   44.579800
  C    -29.674300   30.948800   44.122400
  C    -30.471400   31.949700   43.602800
  C    -31.876800   31.600300   43.702100
  C    -32.073900   30.292200   44.120400
  H    -30.088800   32.881500   43.150700
  C    -32.877800   32.614300   43.221400
  H    -33.629000   31.940100   42.687000
  H    -32.429900   33.257200   42.457700
  C    -33.490700   33.375200   44.374100
  H    -33.848800   32.631600   45.110200
  H    -34.379200   33.907100   44.029900
  C    -32.617500   34.451100   45.059000
  H    -31.695200   34.040500   45.386400
  H    -33.105800   34.942900   45.907900
  H    -32.346200   35.142800   44.308600
  H    -36.004800   27.297700   43.519300
  H    -28.574000   30.953600   44.120500

 Total Charge           Charge          ....    0
 Multiplicity           Mult            ....    1
 Number of Electrons    NEL             ....  134
 Basis Dimension        Dim             ....  322

ORBITAL ENERGIES
----------------

  NO   OCC          E(Eh)            E(eV)
   0   2.0000     -88.964598     -2420.8498
   1   2.0000     -88.964248     -2420.8403
   2   2.0000     -10.332293      -281.1560
   3   2.0000     -10.325282      -280.9652
   4   2.0000     -10.319641      -280.8117
   5   2.0000     -10.313050      -280.6324
   6   2.0000     -10.308580      -280.5107
   7   2.0000     -10.303905      -280.3835
   8   2.0000     -10.296711      -280.1877
   9   2.0000     -10.295331      -280.1502
  10   2.0000     -10.294577      -280.1297
  11   2.0000     -10.293880      -280.1107
  12   2.0000     -10.286601      -279.9126
  13   2.0000     -10.286144      -279.9002
  14   2.0000     -10.275057      -279.5985
  15   2.0000     -10.271453      -279.5005
  16   2.0000      -8.079096      -219.8434
  17   2.0000      -8.077795      -219.8080
  18   2.0000      -6.037630      -164.2923
  19   2.0000      -6.036473      -164.2608
  20   2.0000      -6.033715      -164.1857
  21   2.0000      -6.032524      -164.1533
  22   2.0000      -6.029777      -164.0786
  23   2.0000      -6.028391      -164.0409
  24   2.0000      -0.998034       -27.1579
  25   2.0000      -0.975267       -26.5384
  26   2.0000      -0.911203       -24.7951
  27   2.0000      -0.905599       -24.6426
  28   2.0000      -0.870390       -23.6845
  29   2.0000      -0.847726       -23.0678
  30   2.0000      -0.845817       -23.0159
  31   2.0000      -0.815976       -22.2038
  32   2.0000      -0.784805       -21.3556
  33   2.0000      -0.770419       -20.9642
  34   2.0000      -0.710311       -19.3285
  35   2.0000      -0.696682       -18.9577
  36   2.0000      -0.683677       -18.6038
  37   2.0000      -0.660604       -17.9759
  38   2.0000      -0.646822       -17.6009
  39   2.0000      -0.616724       -16.7819
  40   2.0000      -0.591395       -16.0927
  41   2.0000      -0.584187       -15.8965
  42   2.0000      -0.557020       -15.1573
  43   2.0000      -0.551114       -14.9966
  44   2.0000      -0.548365       -14.9218
  45   2.0000      -0.522385       -14.2148
  46   2.0000      -0.516151       -14.0452
  47   2.0000      -0.514940       -14.0122
  48   2.0000      -0.507121       -13.7995
  49   2.0000      -0.494560       -13.4576
  50   2.0000      -0.488959       -13.3053
  51   2.0000      -0.480711       -13.0808
  52   2.0000      -0.473241       -12.8776
  53   2.0000      -0.466153       -12.6847
  54   2.0000      -0.460119       -12.5205
  55   2.0000      -0.452207       -12.3052
  56   2.0000      -0.447122       -12.1668
  57   2.0000      -0.440835       -11.9957
  58   2.0000      -0.433453       -11.7949
  59   2.0000      -0.423137       -11.5141
  60   2.0000      -0.420306       -11.4371
  61   2.0000      -0.406905       -11.0725
  62   2.0000      -0.402233       -10.9453
  63   2.0000      -0.338601        -9.2138
  64   2.0000      -0.328752        -8.9458
  65   2.0000      -0.323947        -8.8150
  66   2.0000      -0.304477        -8.2852
  67   0.0000       0.038264         1.0412
  68   0.0000       0.056005         1.5240
  69   0.0000       0.110530         3.0077
  70   0.0000       0.115063         3.1310
  71   0.0000       0.128857         3.5064

MULLIKEN ATOMIC CHARGES
-----------------------
   0 S :    0.096358
   1 C :   -0.109667
   2 C :   -0.090195
   3 C :    0.074473
   4 C :   -0.158114
   5 H :    0.004902
   6 C :    0.054373
   7 H :    0.035628
   8 H :    0.023508
   9 C :   -0.110553
  10 H :    0.034262
  11 H :    0.033685
  12 C :   -0.003094
  13 H :    0.035768
  14 H :    0.008829
  15 H :    0.032968
  16 S :    0.110724
  17 C :   -0.097841
  18 C :   -0.038213
  19 C :   -0.036798
  20 C :   -0.195812
  21 H :    0.032098
  22 C :    0.053241
  23 H :    0.047638
  24 H :    0.025057
  25 C :   -0.064815
  26 H :    0.018743
  27 H :    0.027735
  28 C :   -0.018107
  29 H :    0.022429
  30 H :    0.042565
  31 H :    0.013505
  32 H :    0.030132
  33 H :    0.064586
Sum of atomic charges:    0.0000000

LOEWDIN ATOMIC CHARGES
----------------------
   0 S :    0.365349
   1 C :   -0.178810
   2 C :   -0.055435
   3 C :   -0.048577
   4 C :   -0.173513
   5 H :    0.021791
   6 C :   -0.029616
   7 H :    0.026311
   8 H :    0.026699
   9 C :   -0.043589
  10 H :    0.025248
  11 H :    0.020993
  12 C :   -0.058188
  13 H :    0.029819
  14 H :    0.012802
  15 H :    0.032982
  16 S :    0.395478
  17 C :   -0.181958
  18 C :   -0.078295
  19 C :   -0.046268
  20 C :   -0.203745
  21 H :    0.036735
  22 C :   -0.035034
  23 H :    0.045544
  24 H :    0.028611
  25 C :   -0.039742
  26 H :    0.023233
  27 H :    0.023442
  28 C :   -0.058952
  29 H :    0.019189
  30 H :    0.031428
  31 H :    0.018597
  32 H :    0.017160
  33 H :    0.030310

  Mayer bond orders larger than 0.100000
B(  0-S ,  1-C ) :   1.1225 B(  0-S ,  4-C ) :   1.1264 B(  1-C ,  2-C ) :   1.6490
B(  1-C , 32-H ) :   0.9824 B(  2-C ,  3-C ) :   1.2122 B(  2-C ,  6-C ) :   0.9861
B(  3-C ,  4-C ) :   1.6103 B(  3-C ,  5-H ) :   0.9940 B(  4-C , 20-C ) :   1.0260
B(  6-C ,  7-H ) :   0.9497 B(  6-C ,  8-H ) :   0.9438 B(  6-C ,  9-C ) :   1.0739
B(  9-C , 10-H ) :   0.9553 B(  9-C , 11-H ) :   0.9559 B(  9-C , 12-C ) :   1.0958
B( 12-C , 13-H ) :   0.9731 B( 12-C , 14-H ) :   0.9734 B( 12-C , 15-H ) :   0.9687
B( 16-S , 17-C ) :   1.1594 B( 16-S , 20-C ) :   1.1303 B( 17-C , 18-C ) :   1.6183
B( 17-C , 33-H ) :   0.9621 B( 18-C , 19-C ) :   1.2200 B( 18-C , 21-H ) :   0.9838
B( 19-C , 20-C ) :   1.6301 B( 19-C , 22-C ) :   1.0305 B( 22-C , 23-H ) :   0.9267
B( 22-C , 24-H ) :   0.9446 B( 22-C , 25-C ) :   1.0731 B( 25-C , 26-H ) :   0.9522
B( 25-C , 27-H ) :   0.9534 B( 25-C , 28-C ) :   1.0741 B( 28-C , 29-H ) :   0.9741
B( 28-C , 30-H ) :   0.9735 B( 28-C , 31-H ) :   0.9724

Dispersion correction           -0.014677048
FINAL SINGLE POINT ENERGY     -1339.871814114110

DIPOLE MOMENT
-------------
                                X             Y             Z
Electronic contribution:     19.89631     -19.02220     -11.84797
Nuclear contribution   :    -20.32621      19.54134      12.00656
                        -----------------------------------------
Total Dipole Moment    :     -0.42991       0.51914       0.15859
                        -----------------------------------------
Magnitude (a.u.)       :      0.69244
Magnitude (Debye)      :      1.76005

Rotational constants in cm-1:     0.017557     0.008899     0.006784
Rotational constants in MHz :   526.357503   266.784125   203.369092

                             ****ORCA TERMINATED NORMALLY****
TOTAL RUN TIME: 0 days 0 hours 0 minutes 34 seconds 64 msec
