                         Program Version 4.2.1 -  RELEASE  -
|  1> ! wB97X-D3 SP def2-SVP
|  2> %pal
|  3> nprocs 16
|  4> end
|  5>
|  6> * xyz 0 1
|  7> S 	 15.737 	 -13.5269 	 76.7288
|  8> C 	 14.9888 	 -11.951 	 76.754
|  9> C 	 14.0649 	 -11.8052 	 77.7846
| 10> C 	 13.7525 	 -12.9912 	 78.4226
| 11> C 	 14.6151 	 -14.0367 	 78.0779
| 12> H 	 12.933 	 -13.2426 	 79.0882
| 13> C 	 13.4638 	 -10.4634 	 78.2159
| 14> H 	 14.0983 	 -9.59044 	 77.8943
| 15> H 	 13.2965 	 -10.4941 	 79.2729
| 16> C 	 12.1919 	 -10.0193 	 77.521
| 17> H 	 11.8614 	 -9.05872 	 77.8545
| 18> H 	 12.3544 	 -10.052 	 76.4295
| 19> C 	 11.0967 	 -11.0376 	 77.7373
| 20> H 	 10.898 	 -11.2438 	 78.8303
| 21> H 	 10.1705 	 -10.683 	 77.2174
| 22> H 	 11.4482 	 -11.9193 	 77.196
| 23> S 	 12.8203 	 -15.9698 	 78.5492
| 24> C 	 13.3527 	 -17.4773 	 79.3436
| 25> C 	 14.7341 	 -17.5501 	 79.3598
| 26> C 	 15.3185 	 -16.3645 	 78.8353
| 27> C 	 14.4472 	 -15.3719 	 78.5119
| 28> H 	 15.2116 	 -18.5098 	 79.7284
| 29> C 	 16.7842 	 -16.283 	 78.596
| 30> H 	 17.1718 	 -15.8246 	 77.685
| 31> H 	 17.1881 	 -17.3118 	 78.6382
| 32> C 	 17.4828 	 -15.3643 	 79.6467
| 33> H 	 17.6299 	 -15.9394 	 80.5341
| 34> H 	 16.7986 	 -14.5485 	 79.9361
| 35> C 	 18.8187 	 -14.7635 	 79.2287
| 36> H 	 19.4582 	 -14.2863 	 80.0253
| 37> H 	 18.5485 	 -14.0758 	 78.3869
| 38> H 	 19.4745 	 -15.4884 	 78.7941
| 39> H 	 15.2514 	 -11.1555 	 76.1277
| 40> H 	 12.7534 	 -18.2946 	 79.7027
| 41> *
| 42>
| 43>                          ****END OF INPUT****

CARTESIAN COORDINATES (ANGSTROEM)
---------------------------------
  S     15.737000  -13.526900   76.728800
  C     14.988800  -11.951000   76.754000
  C     14.064900  -11.805200   77.784600
  C     13.752500  -12.991200   78.422600
  C     14.615100  -14.036700   78.077900
  H     12.933000  -13.242600   79.088200
  C     13.463800  -10.463400   78.215900
  H     14.098300   -9.590440   77.894300
  H     13.296500  -10.494100   79.272900
  C     12.191900  -10.019300   77.521000
  H     11.861400   -9.058720   77.854500
  H     12.354400  -10.052000   76.429500
  C     11.096700  -11.037600   77.737300
  H     10.898000  -11.243800   78.830300
  H     10.170500  -10.683000   77.217400
  H     11.448200  -11.919300   77.196000
  S     12.820300  -15.969800   78.549200
  C     13.352700  -17.477300   79.343600
  C     14.734100  -17.550100   79.359800
  C     15.318500  -16.364500   78.835300
  C     14.447200  -15.371900   78.511900
  H     15.211600  -18.509800   79.728400
  C     16.784200  -16.283000   78.596000
  H     17.171800  -15.824600   77.685000
  H     17.188100  -17.311800   78.638200
  C     17.482800  -15.364300   79.646700
  H     17.629900  -15.939400   80.534100
  H     16.798600  -14.548500   79.936100
  C     18.818700  -14.763500   79.228700
  H     19.458200  -14.286300   80.025300
  H     18.548500  -14.075800   78.386900
  H     19.474500  -15.488400   78.794100
  H     15.251400  -11.155500   76.127700
  H     12.753400  -18.294600   79.702700

 Total Charge           Charge          ....    0
 Multiplicity           Mult            ....    1
 Number of Electrons    NEL             ....  134
 Basis Dimension        Dim             ....  322

ORBITAL ENERGIES
----------------

  NO   OCC          E(Eh)            E(eV)
   0   2.0000     -88.974707     -2421.1249
   1   2.0000     -88.966582     -2420.9038
   2   2.0000     -10.333973      -281.2017
   3   2.0000     -10.319216      -280.8001
   4   2.0000     -10.318497      -280.7806
   5   2.0000     -10.316169      -280.7172
   6   2.0000     -10.302764      -280.3525
   7   2.0000     -10.300052      -280.2787
   8   2.0000     -10.297434      -280.2074
   9   2.0000     -10.297029      -280.1964
  10   2.0000     -10.292652      -280.0773
  11   2.0000     -10.288897      -279.9751
  12   2.0000     -10.280978      -279.7596
  13   2.0000     -10.277012      -279.6517
  14   2.0000     -10.276741      -279.6443
  15   2.0000     -10.275601      -279.6133
  16   2.0000      -8.087629      -220.0756
  17   2.0000      -8.080912      -219.8928
  18   2.0000      -6.046188      -164.5251
  19   2.0000      -6.042442      -164.4232
  20   2.0000      -6.039553      -164.3446
  21   2.0000      -6.038397      -164.3131
  22   2.0000      -6.035558      -164.2359
  23   2.0000      -6.031453      -164.1242
  24   2.0000      -1.011330       -27.5197
  25   2.0000      -0.985492       -26.8166
  26   2.0000      -0.917359       -24.9626
  27   2.0000      -0.906537       -24.6681
  28   2.0000      -0.878175       -23.8963
  29   2.0000      -0.853718       -23.2309
  30   2.0000      -0.845503       -23.0073
  31   2.0000      -0.814397       -22.1609
  32   2.0000      -0.780441       -21.2369
  33   2.0000      -0.766878       -20.8678
  34   2.0000      -0.712698       -19.3935
  35   2.0000      -0.695300       -18.9201
  36   2.0000      -0.688368       -18.7314
  37   2.0000      -0.669714       -18.2239
  38   2.0000      -0.641170       -17.4471
  39   2.0000      -0.613045       -16.6818
  40   2.0000      -0.597753       -16.2657
  41   2.0000      -0.580980       -15.8093
  42   2.0000      -0.562512       -15.3067
  43   2.0000      -0.550896       -14.9906
  44   2.0000      -0.542914       -14.7734
  45   2.0000      -0.523615       -14.2483
  46   2.0000      -0.518954       -14.1214
  47   2.0000      -0.513924       -13.9846
  48   2.0000      -0.507083       -13.7984
  49   2.0000      -0.495416       -13.4809
  50   2.0000      -0.490348       -13.3431
  51   2.0000      -0.488240       -13.2857
  52   2.0000      -0.470066       -12.7912
  53   2.0000      -0.466252       -12.6874
  54   2.0000      -0.459491       -12.5034
  55   2.0000      -0.445481       -12.1222
  56   2.0000      -0.441703       -12.0193
  57   2.0000      -0.430700       -11.7199
  58   2.0000      -0.425698       -11.5838
  59   2.0000      -0.423826       -11.5329
  60   2.0000      -0.420506       -11.4425
  61   2.0000      -0.412942       -11.2367
  62   2.0000      -0.408629       -11.1193
  63   2.0000      -0.351465        -9.5639
  64   2.0000      -0.338637        -9.2148
  65   2.0000      -0.328413        -8.9366
  66   2.0000      -0.283628        -7.7179
  67   0.0000       0.017412         0.4738
  68   0.0000       0.067465         1.8358
  69   0.0000       0.096034         2.6132
  70   0.0000       0.107211         2.9174
  71   0.0000       0.125690         3.4202

MULLIKEN ATOMIC CHARGES
-----------------------
   0 S :    0.108038
   1 C :   -0.089046
   2 C :   -0.073021
   3 C :   -0.013766
   4 C :   -0.133744
   5 H :    0.027792
   6 C :    0.063251
   7 H :    0.034140
   8 H :    0.028698
   9 C :   -0.054895
  10 H :    0.027254
  11 H :    0.024976
  12 C :   -0.096624
  13 H :    0.038549
  14 H :    0.038361
  15 H :    0.044734
  16 S :    0.103584
  17 C :   -0.096277
  18 C :   -0.057986
  19 C :   -0.022894
  20 C :   -0.133925
  21 H :    0.046973
  22 C :    0.048537
  23 H :    0.020005
  24 H :    0.025640
  25 C :   -0.083122
  26 H :    0.012484
  27 H :    0.046884
  28 C :   -0.062173
  29 H :    0.048263
  30 H :    0.033334
  31 H :    0.017924
  32 H :    0.028079
  33 H :    0.049973
Sum of atomic charges:    0.0000000

LOEWDIN ATOMIC CHARGES
----------------------
   0 S :    0.390168
   1 C :   -0.180295
   2 C :   -0.065328
   3 C :   -0.058075
   4 C :   -0.169895
   5 H :    0.032594
   6 C :   -0.029893
   7 H :    0.039738
   8 H :    0.027147
   9 C :   -0.041920
  10 H :    0.017710
  11 H :    0.026890
  12 C :   -0.074661
  13 H :    0.025060
  14 H :    0.027927
  15 H :    0.026486
  16 S :    0.407125
  17 C :   -0.177902
  18 C :   -0.073162
  19 C :   -0.064925
  20 C :   -0.199310
  21 H :    0.047024
  22 C :   -0.034590
  23 H :    0.021153
  24 H :    0.033390
  25 C :   -0.042238
  26 H :    0.014794
  27 H :    0.027767
  28 C :   -0.076316
  29 H :    0.035033
  30 H :    0.026133
  31 H :    0.016910
  32 H :    0.017095
  33 H :    0.028366

  Mayer bond orders larger than 0.100000
B(  0-S ,  1-C ) :   1.1460 B(  0-S ,  4-C ) :   1.1168 B(  1-C ,  2-C ) :   1.6028
B(  1-C ,  4-C ) :   0.1061 B(  1-C , 32-H ) :   0.9690 B(  2-C ,  3-C ) :   1.2333
B(  2-C ,  6-C ) :   1.0183 B(  3-C ,  4-C ) :   1.5466 B(  3-C ,  5-H ) :   0.9921
B(  4-C , 20-C ) :   1.1035 B(  6-C ,  7-H ) :   0.9418 B(  6-C ,  8-H ) :   0.9444
B(  6-C ,  9-C ) :   1.0747 B(  9-C , 10-H ) :   0.9569 B(  9-C , 11-H ) :   0.9527
B(  9-C , 12-C ) :   1.0824 B( 12-C , 13-H ) :   0.9737 B( 12-C , 14-H ) :   0.9728
B( 12-C , 15-H ) :   0.9717 B( 16-S , 17-C ) :   1.1400 B( 16-S , 20-C ) :   1.1230
B( 17-C , 18-C ) :   1.6261 B( 17-C , 33-H ) :   0.9675 B( 18-C , 19-C ) :   1.2365
B( 18-C , 21-H ) :   0.9788 B( 19-C , 20-C ) :   1.5771 B( 19-C , 22-C ) :   1.0546
B( 22-C , 23-H ) :   0.9505 B( 22-C , 24-H ) :   0.9278 B( 22-C , 25-C ) :   1.0313
B( 25-C , 26-H ) :   0.9500 B( 25-C , 27-H ) :   0.9667 B( 25-C , 28-C ) :   1.0792
B( 28-C , 29-H ) :   0.9728 B( 28-C , 30-H ) :   0.9702 B( 28-C , 31-H ) :   0.9719

Dispersion correction           -0.015070153
FINAL SINGLE POINT ENERGY     -1339.864751499685

DIPOLE MOMENT
-------------
                                X             Y             Z
Electronic contribution:     -4.08353     -11.66567      -4.71932
Nuclear contribution   :      4.08962      11.79677       4.83609
                        -----------------------------------------
Total Dipole Moment    :      0.00609       0.13110       0.11677
                        -----------------------------------------
Magnitude (a.u.)       :      0.17567
Magnitude (Debye)      :      0.44652

Rotational constants in cm-1:     0.019795     0.009548     0.007108
Rotational constants in MHz :   593.430796   286.245201   213.104718

                             ****ORCA TERMINATED NORMALLY****
TOTAL RUN TIME: 0 days 0 hours 0 minutes 30 seconds 883 msec
