                         Program Version 4.2.1 -  RELEASE  -
|  1> ! wB97X-D3 SP def2-SVP
|  2> %pal
|  3> nprocs 16
|  4> end
|  5>
|  6> * xyz 0 1
|  7> S 	 -9.05086 	 -5.52631 	 85.0808
|  8> C 	 -8.8491 	 -4.61049 	 86.5508
|  9> C 	 -9.03203 	 -5.41625 	 87.655
| 10> C 	 -9.18808 	 -6.83557 	 87.2775
| 11> C 	 -9.02638 	 -7.06993 	 85.9385
| 12> H 	 -9.56104 	 -7.64183 	 87.8974
| 13> C 	 -9.43994 	 -4.96593 	 88.9957
| 14> H 	 -10.2691 	 -5.62207 	 89.3682
| 15> H 	 -9.89372 	 -4.00316 	 89.0336
| 16> C 	 -8.29728 	 -4.9851 	 90.0508
| 17> H 	 -7.99766 	 -6.03034 	 90.2374
| 18> H 	 -7.50701 	 -4.32626 	 89.6865
| 19> C 	 -8.76383 	 -4.56 	 91.4656
| 20> H 	 -7.86908 	 -4.55545 	 92.1082
| 21> H 	 -9.11902 	 -3.54461 	 91.5115
| 22> H 	 -9.45251 	 -5.25842 	 91.8934
| 23> S 	 -9.81036 	 -8.45178 	 83.6833
| 24> C 	 -9.35689 	 -10.0895 	 83.3538
| 25> C 	 -8.75367 	 -10.5711 	 84.469
| 26> C 	 -8.60489 	 -9.63303 	 85.5582
| 27> C 	 -9.02511 	 -8.32667 	 85.2356
| 28> H 	 -8.52988 	 -11.5896 	 84.4609
| 29> C 	 -7.91108 	 -9.96161 	 86.8489
| 30> H 	 -7.54088 	 -8.94723 	 87.2013
| 31> H 	 -7.10699 	 -10.6762 	 86.68
| 32> C 	 -8.77437 	 -10.6824 	 87.8801
| 33> H 	 -9.12715 	 -11.6104 	 87.305
| 34> H 	 -9.59345 	 -9.98193 	 88.2176
| 35> C 	 -8.02291 	 -11.0936 	 89.1078
| 36> H 	 -7.7275 	 -10.235 	 89.7395
| 37> H 	 -7.05189 	 -11.5512 	 88.8369
| 38> H 	 -8.55923 	 -11.8769 	 89.6785
| 39> H 	 -8.98045 	 -3.53583 	 86.651
| 40> H 	 -9.41394 	 -10.7173 	 82.4136
| 41> *
| 42>
| 43>                          ****END OF INPUT****

CARTESIAN COORDINATES (ANGSTROEM)
---------------------------------
  S     -9.050860   -5.526310   85.080800
  C     -8.849100   -4.610490   86.550800
  C     -9.032030   -5.416250   87.655000
  C     -9.188080   -6.835570   87.277500
  C     -9.026380   -7.069930   85.938500
  H     -9.561040   -7.641830   87.897400
  C     -9.439940   -4.965930   88.995700
  H    -10.269100   -5.622070   89.368200
  H     -9.893720   -4.003160   89.033600
  C     -8.297280   -4.985100   90.050800
  H     -7.997660   -6.030340   90.237400
  H     -7.507010   -4.326260   89.686500
  C     -8.763830   -4.560000   91.465600
  H     -7.869080   -4.555450   92.108200
  H     -9.119020   -3.544610   91.511500
  H     -9.452510   -5.258420   91.893400
  S     -9.810360   -8.451780   83.683300
  C     -9.356890  -10.089500   83.353800
  C     -8.753670  -10.571100   84.469000
  C     -8.604890   -9.633030   85.558200
  C     -9.025110   -8.326670   85.235600
  H     -8.529880  -11.589600   84.460900
  C     -7.911080   -9.961610   86.848900
  H     -7.540880   -8.947230   87.201300
  H     -7.106990  -10.676200   86.680000
  C     -8.774370  -10.682400   87.880100
  H     -9.127150  -11.610400   87.305000
  H     -9.593450   -9.981930   88.217600
  C     -8.022910  -11.093600   89.107800
  H     -7.727500  -10.235000   89.739500
  H     -7.051890  -11.551200   88.836900
  H     -8.559230  -11.876900   89.678500
  H     -8.980450   -3.535830   86.651000
  H     -9.413940  -10.717300   82.413600

 Total Charge           Charge          ....    0
 Multiplicity           Mult            ....    1
 Number of Electrons    NEL             ....  134
 Basis Dimension        Dim             ....  322

ORBITAL ENERGIES
----------------

  NO   OCC          E(Eh)            E(eV)
   0   2.0000     -88.966103     -2420.8907
   1   2.0000     -88.961923     -2420.7770
   2   2.0000     -10.334634      -281.2197
   3   2.0000     -10.330706      -281.1128
   4   2.0000     -10.320662      -280.8395
   5   2.0000     -10.317233      -280.7462
   6   2.0000     -10.306765      -280.4613
   7   2.0000     -10.305092      -280.4158
   8   2.0000     -10.300179      -280.2821
   9   2.0000     -10.294577      -280.1297
  10   2.0000     -10.291093      -280.0349
  11   2.0000     -10.290712      -280.0245
  12   2.0000     -10.290144      -280.0091
  13   2.0000     -10.288727      -279.9705
  14   2.0000     -10.281930      -279.7855
  15   2.0000     -10.277157      -279.6557
  16   2.0000      -8.080846      -219.8910
  17   2.0000      -8.077264      -219.7935
  18   2.0000      -6.039627      -164.3466
  19   2.0000      -6.035896      -164.2451
  20   2.0000      -6.035533      -164.2352
  21   2.0000      -6.031544      -164.1267
  22   2.0000      -6.031099      -164.1145
  23   2.0000      -6.027965      -164.0293
  24   2.0000      -1.010943       -27.5092
  25   2.0000      -0.987949       -26.8835
  26   2.0000      -0.914376       -24.8814
  27   2.0000      -0.913860       -24.8674
  28   2.0000      -0.877742       -23.8846
  29   2.0000      -0.852603       -23.2005
  30   2.0000      -0.844829       -22.9890
  31   2.0000      -0.824183       -22.4272
  32   2.0000      -0.780580       -21.2407
  33   2.0000      -0.769854       -20.9488
  34   2.0000      -0.709728       -19.3127
  35   2.0000      -0.697722       -18.9860
  36   2.0000      -0.686456       -18.6794
  37   2.0000      -0.663043       -18.0423
  38   2.0000      -0.641919       -17.4675
  39   2.0000      -0.623831       -16.9753
  40   2.0000      -0.590219       -16.0607
  41   2.0000      -0.577120       -15.7042
  42   2.0000      -0.575523       -15.6608
  43   2.0000      -0.566629       -15.4187
  44   2.0000      -0.527500       -14.3540
  45   2.0000      -0.521787       -14.1985
  46   2.0000      -0.520362       -14.1598
  47   2.0000      -0.517582       -14.0841
  48   2.0000      -0.512376       -13.9425
  49   2.0000      -0.508500       -13.8370
  50   2.0000      -0.492648       -13.4056
  51   2.0000      -0.484537       -13.1849
  52   2.0000      -0.468469       -12.7477
  53   2.0000      -0.464369       -12.6361
  54   2.0000      -0.461667       -12.5626
  55   2.0000      -0.449692       -12.2367
  56   2.0000      -0.446183       -12.1413
  57   2.0000      -0.429278       -11.6812
  58   2.0000      -0.425206       -11.5704
  59   2.0000      -0.425107       -11.5678
  60   2.0000      -0.421887       -11.4801
  61   2.0000      -0.420181       -11.4337
  62   2.0000      -0.408351       -11.1118
  63   2.0000      -0.361126        -9.8267
  64   2.0000      -0.327346        -8.9075
  65   2.0000      -0.322645        -8.7796
  66   2.0000      -0.291658        -7.9364
  67   0.0000       0.016946         0.4611
  68   0.0000       0.075221         2.0469
  69   0.0000       0.104213         2.8358
  70   0.0000       0.125111         3.4044
  71   0.0000       0.126972         3.4551

MULLIKEN ATOMIC CHARGES
-----------------------
   0 S :    0.102412
   1 C :   -0.091647
   2 C :   -0.065521
   3 C :   -0.001289
   4 C :   -0.127350
   5 H :    0.017939
   6 C :    0.030392
   7 H :    0.029460
   8 H :    0.010458
   9 C :   -0.093405
  10 H :    0.032334
  11 H :    0.038303
  12 C :   -0.038208
  13 H :    0.032375
  14 H :    0.025918
  15 H :    0.030572
  16 S :    0.085026
  17 C :   -0.097470
  18 C :   -0.022127
  19 C :   -0.029564
  20 C :   -0.118085
  21 H :   -0.004949
  22 C :    0.020124
  23 H :    0.043507
  24 H :    0.016254
  25 C :   -0.104385
  26 H :    0.039004
  27 H :    0.038587
  28 C :   -0.035798
  29 H :    0.034699
  30 H :    0.017770
  31 H :    0.045444
  32 H :    0.055779
  33 H :    0.083441
Sum of atomic charges:    0.0000000

LOEWDIN ATOMIC CHARGES
----------------------
   0 S :    0.398554
   1 C :   -0.194930
   2 C :   -0.061738
   3 C :   -0.059095
   4 C :   -0.184623
   5 H :    0.031441
   6 C :   -0.039847
   7 H :    0.037225
   8 H :    0.022523
   9 C :   -0.035343
  10 H :    0.026650
  11 H :    0.025070
  12 C :   -0.065862
  13 H :    0.030356
  14 H :    0.019336
  15 H :    0.021288
  16 S :    0.407617
  17 C :   -0.198180
  18 C :   -0.075376
  19 C :   -0.054857
  20 C :   -0.198616
  21 H :    0.020933
  22 C :   -0.042134
  23 H :    0.036500
  24 H :    0.027311
  25 C :   -0.049392
  26 H :    0.033483
  27 H :    0.025192
  28 C :   -0.073758
  29 H :    0.028502
  30 H :    0.023319
  31 H :    0.031282
  32 H :    0.033099
  33 H :    0.054069

  Mayer bond orders larger than 0.100000
B(  0-S ,  1-C ) :   1.1273 B(  0-S ,  4-C ) :   1.1308 B(  1-C ,  2-C ) :   1.6339
B(  1-C , 32-H ) :   0.9633 B(  2-C ,  3-C ) :   1.2074 B(  2-C ,  6-C ) :   1.0338
B(  3-C ,  4-C ) :   1.5780 B(  3-C ,  5-H ) :   0.9919 B(  4-C , 20-C ) :   1.0849
B(  6-C ,  7-H ) :   0.9444 B(  6-C ,  8-H ) :   0.9452 B(  6-C ,  9-C ) :   1.0546
B(  9-C , 10-H ) :   0.9589 B(  9-C , 11-H ) :   0.9590 B(  9-C , 12-C ) :   1.0855
B( 12-C , 13-H ) :   0.9738 B( 12-C , 14-H ) :   0.9738 B( 12-C , 15-H ) :   0.9757
B( 16-S , 17-C ) :   1.1524 B( 16-S , 20-C ) :   1.1335 B( 17-C , 18-C ) :   1.6140
B( 17-C , 33-H ) :   0.9577 B( 18-C , 19-C ) :   1.2421 B( 18-C , 21-H ) :   0.9987
B( 19-C , 20-C ) :   1.5532 B( 19-C , 22-C ) :   1.0573 B( 22-C , 23-H ) :   0.9310
B( 22-C , 24-H ) :   0.9320 B( 22-C , 25-C ) :   1.0667 B( 25-C , 26-H ) :   0.9516
B( 25-C , 27-H ) :   0.9463 B( 25-C , 28-C ) :   1.0923 B( 28-C , 29-H ) :   0.9699
B( 28-C , 30-H ) :   0.9674 B( 28-C , 31-H ) :   0.9729

Dispersion correction           -0.013641978
FINAL SINGLE POINT ENERGY     -1339.869666182456

DIPOLE MOMENT
-------------
                                X             Y             Z
Electronic contribution:     -5.37464       4.71396     -32.29893
Nuclear contribution   :      5.32716      -4.99823      32.93826
                        -----------------------------------------
Total Dipole Moment    :     -0.04748      -0.28427       0.63933
                        -----------------------------------------
Magnitude (a.u.)       :      0.70129
Magnitude (Debye)      :      1.78254

Rotational constants in cm-1:     0.017786     0.008947     0.006151
Rotational constants in MHz :   533.209438   268.214421   184.404149

                             ****ORCA TERMINATED NORMALLY****
TOTAL RUN TIME: 0 days 0 hours 0 minutes 33 seconds 431 msec
