                         Program Version 4.2.1 -  RELEASE  -
|  1> ! wB97X-D3 SP def2-SVP
|  2> %pal
|  3> nprocs 16
|  4> end
|  5>
|  6> * xyz 0 1
|  7> S 	 52.2412 	 20.8383 	 89.689
|  8> C 	 50.6152 	 20.3814 	 89.5193
|  9> C 	 49.8041 	 20.8674 	 90.5862
| 10> C 	 50.5983 	 21.5538 	 91.4974
| 11> C 	 51.8985 	 21.6565 	 91.0939
| 12> H 	 50.169 	 22.1277 	 92.3383
| 13> C 	 48.3052 	 20.6313 	 90.6918
| 14> H 	 48.2743 	 19.7347 	 91.3296
| 15> H 	 48.0324 	 20.4908 	 89.6354
| 16> C 	 47.4457 	 21.7184 	 91.2262
| 17> H 	 47.5806 	 21.6971 	 92.2321
| 18> H 	 47.8358 	 22.7773 	 91.0217
| 19> C 	 45.9927 	 21.7581 	 90.9519
| 20> H 	 45.758 	 21.5543 	 89.9337
| 21> H 	 45.5191 	 21.0958 	 91.6396
| 22> H 	 45.533 	 22.6219 	 91.2291
| 23> S 	 53.2644 	 24.0587 	 90.9979
| 24> C 	 54.3523 	 24.4418 	 92.3189
| 25> C 	 54.3799 	 23.4821 	 93.2838
| 26> C 	 53.3884 	 22.4748 	 93.0016
| 27> C 	 52.827 	 22.5354 	 91.7356
| 28> H 	 55.0219 	 23.7432 	 94.0933
| 29> C 	 53.1289 	 21.402 	 94.011
| 30> H 	 52.1222 	 21.0565 	 93.8185
| 31> H 	 53.2247 	 21.6987 	 95.0305
| 32> C 	 53.989 	 20.192 	 93.8411
| 33> H 	 55.0681 	 20.4579 	 93.7627
| 34> H 	 53.7921 	 19.6887 	 92.895
| 35> C 	 53.7232 	 19.055 	 94.8188
| 36> H 	 53.9346 	 19.3989 	 95.8729
| 37> H 	 54.2514 	 18.1519 	 94.6239
| 38> H 	 52.6652 	 18.7364 	 94.769
| 39> H 	 50.287 	 19.9705 	 88.6033
| 40> H 	 54.8931 	 25.4044 	 92.3978
| 41> *
| 42>
| 43>                          ****END OF INPUT****

CARTESIAN COORDINATES (ANGSTROEM)
---------------------------------
  S     52.241200   20.838300   89.689000
  C     50.615200   20.381400   89.519300
  C     49.804100   20.867400   90.586200
  C     50.598300   21.553800   91.497400
  C     51.898500   21.656500   91.093900
  H     50.169000   22.127700   92.338300
  C     48.305200   20.631300   90.691800
  H     48.274300   19.734700   91.329600
  H     48.032400   20.490800   89.635400
  C     47.445700   21.718400   91.226200
  H     47.580600   21.697100   92.232100
  H     47.835800   22.777300   91.021700
  C     45.992700   21.758100   90.951900
  H     45.758000   21.554300   89.933700
  H     45.519100   21.095800   91.639600
  H     45.533000   22.621900   91.229100
  S     53.264400   24.058700   90.997900
  C     54.352300   24.441800   92.318900
  C     54.379900   23.482100   93.283800
  C     53.388400   22.474800   93.001600
  C     52.827000   22.535400   91.735600
  H     55.021900   23.743200   94.093300
  C     53.128900   21.402000   94.011000
  H     52.122200   21.056500   93.818500
  H     53.224700   21.698700   95.030500
  C     53.989000   20.192000   93.841100
  H     55.068100   20.457900   93.762700
  H     53.792100   19.688700   92.895000
  C     53.723200   19.055000   94.818800
  H     53.934600   19.398900   95.872900
  H     54.251400   18.151900   94.623900
  H     52.665200   18.736400   94.769000
  H     50.287000   19.970500   88.603300
  H     54.893100   25.404400   92.397800

 Total Charge           Charge          ....    0
 Multiplicity           Mult            ....    1
 Number of Electrons    NEL             ....  134
 Basis Dimension        Dim             ....  322

ORBITAL ENERGIES
----------------

  NO   OCC          E(Eh)            E(eV)
   0   2.0000     -88.970034     -2420.9977
   1   2.0000     -88.960290     -2420.7326
   2   2.0000     -10.319225      -280.8004
   3   2.0000     -10.315467      -280.6981
   4   2.0000     -10.314231      -280.6645
   5   2.0000     -10.306836      -280.4633
   6   2.0000     -10.301120      -280.3077
   7   2.0000     -10.300917      -280.3022
   8   2.0000     -10.293338      -280.0960
   9   2.0000     -10.288878      -279.9746
  10   2.0000     -10.287606      -279.9400
  11   2.0000     -10.278098      -279.6813
  12   2.0000     -10.276545      -279.6390
  13   2.0000     -10.276378      -279.6345
  14   2.0000     -10.275212      -279.6027
  15   2.0000     -10.263974      -279.2969
  16   2.0000      -8.087097      -220.0611
  17   2.0000      -8.075266      -219.7392
  18   2.0000      -6.045054      -164.4943
  19   2.0000      -6.041206      -164.3896
  20   2.0000      -6.038379      -164.3127
  21   2.0000      -6.033731      -164.1862
  22   2.0000      -6.029781      -164.0787
  23   2.0000      -6.026027      -163.9765
  24   2.0000      -1.020855       -27.7789
  25   2.0000      -0.989132       -26.9156
  26   2.0000      -0.924629       -25.1604
  27   2.0000      -0.911989       -24.8165
  28   2.0000      -0.876495       -23.8506
  29   2.0000      -0.863802       -23.5053
  30   2.0000      -0.845551       -23.0086
  31   2.0000      -0.819835       -22.3088
  32   2.0000      -0.791586       -21.5402
  33   2.0000      -0.769537       -20.9402
  34   2.0000      -0.713948       -19.4275
  35   2.0000      -0.695054       -18.9134
  36   2.0000      -0.687101       -18.6970
  37   2.0000      -0.657035       -17.8788
  38   2.0000      -0.643126       -17.5003
  39   2.0000      -0.627116       -17.0647
  40   2.0000      -0.596059       -16.2196
  41   2.0000      -0.582369       -15.8471
  42   2.0000      -0.576350       -15.6833
  43   2.0000      -0.562851       -15.3160
  44   2.0000      -0.535881       -14.5821
  45   2.0000      -0.522705       -14.2235
  46   2.0000      -0.516294       -14.0491
  47   2.0000      -0.513158       -13.9637
  48   2.0000      -0.506668       -13.7872
  49   2.0000      -0.500637       -13.6230
  50   2.0000      -0.496909       -13.5216
  51   2.0000      -0.484676       -13.1887
  52   2.0000      -0.476538       -12.9673
  53   2.0000      -0.470068       -12.7912
  54   2.0000      -0.462746       -12.5920
  55   2.0000      -0.455083       -12.3834
  56   2.0000      -0.442325       -12.0363
  57   2.0000      -0.439352       -11.9554
  58   2.0000      -0.430559       -11.7161
  59   2.0000      -0.422562       -11.4985
  60   2.0000      -0.417122       -11.3505
  61   2.0000      -0.405721       -11.0402
  62   2.0000      -0.404192       -10.9986
  63   2.0000      -0.344501        -9.3744
  64   2.0000      -0.330390        -8.9904
  65   2.0000      -0.323217        -8.7952
  66   2.0000      -0.296608        -8.0711
  67   0.0000       0.041633         1.1329
  68   0.0000       0.066331         1.8050
  69   0.0000       0.121730         3.3124
  70   0.0000       0.127061         3.4575
  71   0.0000       0.134439         3.6583

MULLIKEN ATOMIC CHARGES
-----------------------
   0 S :    0.156434
   1 C :   -0.133187
   2 C :   -0.120040
   3 C :    0.027178
   4 C :   -0.191473
   5 H :    0.029357
   6 C :    0.121111
   7 H :    0.053811
   8 H :    0.018380
   9 C :   -0.111070
  10 H :   -0.002056
  11 H :    0.029271
  12 C :    0.052573
  13 H :    0.024582
  14 H :    0.007906
  15 H :    0.000169
  16 S :    0.104481
  17 C :   -0.119712
  18 C :   -0.014276
  19 C :   -0.035967
  20 C :   -0.147773
  21 H :    0.013285
  22 C :    0.136826
  23 H :   -0.000446
  24 H :    0.010220
  25 C :   -0.097270
  26 H :    0.026870
  27 H :    0.018138
  28 C :   -0.040413
  29 H :    0.027138
  30 H :    0.030122
  31 H :    0.026315
  32 H :    0.033623
  33 H :    0.065895
Sum of atomic charges:   -0.0000000

LOEWDIN ATOMIC CHARGES
----------------------
   0 S :    0.485558
   1 C :   -0.221500
   2 C :   -0.053769
   3 C :   -0.068507
   4 C :   -0.235342
   5 H :    0.038798
   6 C :   -0.028229
   7 H :    0.043122
   8 H :    0.032922
   9 C :   -0.052932
  10 H :    0.010151
  11 H :    0.032085
  12 C :   -0.047999
  13 H :    0.022877
  14 H :    0.025240
  15 H :    0.018556
  16 S :    0.396450
  17 C :   -0.182652
  18 C :   -0.074390
  19 C :   -0.045158
  20 C :   -0.205916
  21 H :    0.033836
  22 C :   -0.031410
  23 H :    0.028490
  24 H :    0.025325
  25 C :   -0.046945
  26 H :    0.023422
  27 H :    0.023182
  28 C :   -0.066700
  29 H :    0.023520
  30 H :    0.022277
  31 H :    0.026837
  32 H :    0.014302
  33 H :    0.034498

  Mayer bond orders larger than 0.100000
B(  0-S ,  1-C ) :   1.1800 B(  0-S ,  4-C ) :   1.2077 B(  1-C ,  2-C ) :   1.5384
B(  1-C ,  4-C ) :   0.1032 B(  1-C , 32-H ) :   0.9761 B(  2-C ,  3-C ) :   1.3195
B(  2-C ,  6-C ) :   1.0059 B(  3-C ,  4-C ) :   1.5177 B(  3-C ,  5-H ) :   0.9860
B(  4-C , 20-C ) :   1.0204 B(  6-C ,  7-H ) :   0.9295 B(  6-C ,  8-H ) :   0.9391
B(  6-C ,  9-C ) :   1.0654 B(  9-C , 10-H ) :   0.9377 B(  9-C , 11-H ) :   0.9590
B(  9-C , 12-C ) :   1.1112 B( 12-C , 13-H ) :   0.9735 B( 12-C , 14-H ) :   0.9652
B( 12-C , 15-H ) :   0.9609 B( 16-S , 17-C ) :   1.1560 B( 16-S , 20-C ) :   1.1312
B( 17-C , 18-C ) :   1.6404 B( 17-C , 33-H ) :   0.9597 B( 18-C , 19-C ) :   1.1955
B( 18-C , 21-H ) :   0.9995 B( 19-C , 20-C ) :   1.6136 B( 19-C , 22-C ) :   1.0655
B( 22-C , 23-H ) :   0.9102 B( 22-C , 24-H ) :   0.9335 B( 22-C , 25-C ) :   1.0762
B( 25-C , 26-H ) :   0.9537 B( 25-C , 27-H ) :   0.9503 B( 25-C , 28-C ) :   1.0850
B( 28-C , 29-H ) :   0.9735 B( 28-C , 30-H ) :   0.9737 B( 28-C , 31-H ) :   0.9716

Dispersion correction           -0.014048703
FINAL SINGLE POINT ENERGY     -1339.854429726945

DIPOLE MOMENT
-------------
                                X             Y             Z
Electronic contribution:     15.96245      10.79621     -14.44261
Nuclear contribution   :    -16.37410     -10.80947      14.79908
                        -----------------------------------------
Total Dipole Moment    :     -0.41164      -0.01326       0.35647
                        -----------------------------------------
Magnitude (a.u.)       :      0.54470
Magnitude (Debye)      :      1.38451

Rotational constants in cm-1:     0.017682     0.008192     0.007244
Rotational constants in MHz :   530.085800   245.596214   217.168772

                             ****ORCA TERMINATED NORMALLY****
TOTAL RUN TIME: 0 days 0 hours 0 minutes 28 seconds 488 msec
