                         Program Version 4.2.1 -  RELEASE  -
|  1> ! wB97X-D3 SP def2-SVP
|  2> %pal
|  3> nprocs 16
|  4> end
|  5>
|  6> * xyz 0 1
|  7> S 	 -79.5884 	 44.2519 	 139.034
|  8> C 	 -78.8914 	 43.0323 	 140.099
|  9> C 	 -78.0487 	 42.109 	 139.336
| 10> C 	 -77.9015 	 42.5865 	 137.968
| 11> C 	 -78.5661 	 43.8155 	 137.724
| 12> H 	 -77.0775 	 42.2348 	 137.294
| 13> C 	 -77.4233 	 40.8592 	 139.826
| 14> H 	 -77.7934 	 40.7702 	 140.843
| 15> H 	 -76.3547 	 41.0861 	 139.984
| 16> C 	 -77.7402 	 39.5436 	 139.109
| 17> H 	 -77.438 	 39.724 	 138.068
| 18> H 	 -77.1313 	 38.6723 	 139.349
| 19> C 	 -79.2908 	 39.1067 	 139.266
| 20> H 	 -80.0487 	 39.7643 	 138.876
| 21> H 	 -79.4056 	 38.1323 	 138.824
| 22> H 	 -79.4782 	 38.8351 	 140.279
| 23> S 	 -78.3143 	 46.4371 	 136.94
| 24> C 	 -78.2699 	 46.7204 	 135.233
| 25> C 	 -77.934 	 45.6148 	 134.509
| 26> C 	 -78.0646 	 44.4014 	 135.284
| 27> C 	 -78.3894 	 44.6651 	 136.6
| 28> H 	 -77.7694 	 45.5976 	 133.488
| 29> C 	 -77.8073 	 43.0525 	 134.574
| 30> H 	 -76.8377 	 42.7101 	 134.968
| 31> H 	 -77.6481 	 43.2998 	 133.488
| 32> C 	 -78.8198 	 41.962 	 134.648
| 33> H 	 -78.9908 	 41.79 	 135.697
| 34> H 	 -78.3468 	 41.0389 	 134.201
| 35> C 	 -80.1404 	 42.2259 	 133.95
| 36> H 	 -80.9772 	 41.525 	 134.321
| 37> H 	 -80.0626 	 42.1177 	 132.893
| 38> H 	 -80.5607 	 43.2537 	 134.063
| 39> H 	 -79.1484 	 42.8384 	 141.117
| 40> H 	 -78.3125 	 47.7278 	 134.714
| 41> *
| 42>
| 43>                          ****END OF INPUT****

CARTESIAN COORDINATES (ANGSTROEM)
---------------------------------
  S    -79.588400   44.251900  139.034000
  C    -78.891400   43.032300  140.099000
  C    -78.048700   42.109000  139.336000
  C    -77.901500   42.586500  137.968000
  C    -78.566100   43.815500  137.724000
  H    -77.077500   42.234800  137.294000
  C    -77.423300   40.859200  139.826000
  H    -77.793400   40.770200  140.843000
  H    -76.354700   41.086100  139.984000
  C    -77.740200   39.543600  139.109000
  H    -77.438000   39.724000  138.068000
  H    -77.131300   38.672300  139.349000
  C    -79.290800   39.106700  139.266000
  H    -80.048700   39.764300  138.876000
  H    -79.405600   38.132300  138.824000
  H    -79.478200   38.835100  140.279000
  S    -78.314300   46.437100  136.940000
  C    -78.269900   46.720400  135.233000
  C    -77.934000   45.614800  134.509000
  C    -78.064600   44.401400  135.284000
  C    -78.389400   44.665100  136.600000
  H    -77.769400   45.597600  133.488000
  C    -77.807300   43.052500  134.574000
  H    -76.837700   42.710100  134.968000
  H    -77.648100   43.299800  133.488000
  C    -78.819800   41.962000  134.648000
  H    -78.990800   41.790000  135.697000
  H    -78.346800   41.038900  134.201000
  C    -80.140400   42.225900  133.950000
  H    -80.977200   41.525000  134.321000
  H    -80.062600   42.117700  132.893000
  H    -80.560700   43.253700  134.063000
  H    -79.148400   42.838400  141.117000
  H    -78.312500   47.727800  134.714000

 Total Charge           Charge          ....    0
 Multiplicity           Mult            ....    1
 Number of Electrons    NEL             ....  134
 Basis Dimension        Dim             ....  322

ORBITAL ENERGIES
----------------

  NO   OCC          E(Eh)            E(eV)
   0   2.0000     -88.971771     -2421.0450
   1   2.0000     -88.965616     -2420.8775
   2   2.0000     -10.328998      -281.0663
   3   2.0000     -10.325689      -280.9763
   4   2.0000     -10.320367      -280.8315
   5   2.0000     -10.318425      -280.7786
   6   2.0000     -10.312234      -280.6102
   7   2.0000     -10.304462      -280.3987
   8   2.0000     -10.300665      -280.2954
   9   2.0000     -10.297561      -280.2109
  10   2.0000     -10.297473      -280.2085
  11   2.0000     -10.292013      -280.0599
  12   2.0000     -10.287100      -279.9262
  13   2.0000     -10.282665      -279.8055
  14   2.0000     -10.277870      -279.6751
  15   2.0000     -10.277605      -279.6678
  16   2.0000      -8.086215      -220.0371
  17   2.0000      -8.079995      -219.8678
  18   2.0000      -6.044689      -164.4843
  19   2.0000      -6.040634      -164.3740
  20   2.0000      -6.038601      -164.3187
  21   2.0000      -6.037146      -164.2791
  22   2.0000      -6.034848      -164.2166
  23   2.0000      -6.030352      -164.0942
  24   2.0000      -1.005058       -27.3490
  25   2.0000      -0.978073       -26.6147
  26   2.0000      -0.912001       -24.8168
  27   2.0000      -0.910582       -24.7782
  28   2.0000      -0.865560       -23.5531
  29   2.0000      -0.849223       -23.1085
  30   2.0000      -0.840677       -22.8760
  31   2.0000      -0.807783       -21.9809
  32   2.0000      -0.785451       -21.3732
  33   2.0000      -0.773672       -21.0527
  34   2.0000      -0.716570       -19.4989
  35   2.0000      -0.704672       -19.1751
  36   2.0000      -0.683171       -18.5900
  37   2.0000      -0.662302       -18.0222
  38   2.0000      -0.632883       -17.2216
  39   2.0000      -0.615673       -16.7533
  40   2.0000      -0.590816       -16.0769
  41   2.0000      -0.562271       -15.3002
  42   2.0000      -0.554239       -15.0816
  43   2.0000      -0.552105       -15.0235
  44   2.0000      -0.544156       -14.8072
  45   2.0000      -0.537767       -14.6334
  46   2.0000      -0.515701       -14.0329
  47   2.0000      -0.506767       -13.7898
  48   2.0000      -0.498824       -13.5737
  49   2.0000      -0.491822       -13.3832
  50   2.0000      -0.489001       -13.3064
  51   2.0000      -0.476095       -12.9552
  52   2.0000      -0.468802       -12.7567
  53   2.0000      -0.461913       -12.5693
  54   2.0000      -0.459752       -12.5105
  55   2.0000      -0.455132       -12.3848
  56   2.0000      -0.443373       -12.0648
  57   2.0000      -0.436255       -11.8711
  58   2.0000      -0.433595       -11.7987
  59   2.0000      -0.426063       -11.5938
  60   2.0000      -0.417446       -11.3593
  61   2.0000      -0.414357       -11.2752
  62   2.0000      -0.409717       -11.1490
  63   2.0000      -0.350513        -9.5379
  64   2.0000      -0.332388        -9.0447
  65   2.0000      -0.325415        -8.8550
  66   2.0000      -0.280513        -7.6332
  67   0.0000       0.015299         0.4163
  68   0.0000       0.076686         2.0867
  69   0.0000       0.097984         2.6663
  70   0.0000       0.104428         2.8416
  71   0.0000       0.126417         3.4400

MULLIKEN ATOMIC CHARGES
-----------------------
   0 S :    0.130989
   1 C :   -0.104921
   2 C :   -0.144841
   3 C :    0.011400
   4 C :   -0.175107
   5 H :    0.039536
   6 C :    0.077784
   7 H :    0.001664
   8 H :    0.047915
   9 C :   -0.069278
  10 H :    0.024486
  11 H :    0.032688
  12 C :   -0.041612
  13 H :    0.055310
  14 H :    0.019912
  15 H :    0.018713
  16 S :    0.105172
  17 C :   -0.093517
  18 C :   -0.007764
  19 C :   -0.061312
  20 C :   -0.130387
  21 H :   -0.009149
  22 C :    0.044221
  23 H :    0.041801
  24 H :    0.016517
  25 C :   -0.038397
  26 H :    0.031155
  27 H :    0.033978
  28 C :   -0.080175
  29 H :    0.045935
  30 H :    0.020025
  31 H :    0.041533
  32 H :    0.041536
  33 H :    0.074188
Sum of atomic charges:   -0.0000000

LOEWDIN ATOMIC CHARGES
----------------------
   0 S :    0.428607
   1 C :   -0.207145
   2 C :   -0.049506
   3 C :   -0.076721
   4 C :   -0.207443
   5 H :    0.037886
   6 C :   -0.046722
   7 H :    0.027265
   8 H :    0.040175
   9 C :   -0.035621
  10 H :    0.021359
  11 H :    0.028444
  12 C :   -0.060598
  13 H :    0.028002
  14 H :    0.025677
  15 H :    0.021770
  16 S :    0.385212
  17 C :   -0.191910
  18 C :   -0.066019
  19 C :   -0.048841
  20 C :   -0.185894
  21 H :    0.017985
  22 C :   -0.032092
  23 H :    0.033539
  24 H :    0.031055
  25 C :   -0.049869
  26 H :    0.022405
  27 H :    0.033834
  28 C :   -0.074484
  29 H :    0.037654
  30 H :    0.016816
  31 H :    0.030534
  32 H :    0.021467
  33 H :    0.043177

  Mayer bond orders larger than 0.100000
B(  0-S ,  1-C ) :   1.1380 B(  0-S ,  4-C ) :   1.1721 B(  1-C ,  2-C ) :   1.5627
B(  1-C ,  4-C ) :   0.1035 B(  1-C , 32-H ) :   0.9684 B(  2-C ,  3-C ) :   1.2759
B(  2-C ,  6-C ) :   1.0375 B(  3-C ,  4-C ) :   1.5148 B(  3-C ,  5-H ) :   0.9683
B(  4-C , 20-C ) :   1.1079 B(  6-C ,  7-H ) :   0.9332 B(  6-C ,  8-H ) :   0.9311
B(  6-C ,  9-C ) :   1.0606 B(  9-C , 10-H ) :   0.9583 B(  9-C , 11-H ) :   0.9570
B(  9-C , 12-C ) :   1.0635 B( 12-C , 13-H ) :   0.9810 B( 12-C , 14-H ) :   0.9741
B( 12-C , 15-H ) :   0.9740 B( 16-S , 17-C ) :   1.1411 B( 16-S , 20-C ) :   1.1102
B( 17-C , 18-C ) :   1.6297 B( 17-C , 33-H ) :   0.9558 B( 18-C , 19-C ) :   1.2299
B( 18-C , 21-H ) :   0.9945 B( 19-C , 20-C ) :   1.6114 B( 19-C , 22-C ) :   1.0231
B( 22-C , 23-H ) :   0.9271 B( 22-C , 24-H ) :   0.9356 B( 22-C , 25-C ) :   1.0853
B( 25-C , 26-H ) :   0.9477 B( 25-C , 27-H ) :   0.9476 B( 25-C , 28-C ) :   1.0742
B( 28-C , 29-H ) :   0.9743 B( 28-C , 30-H ) :   0.9741 B( 28-C , 31-H ) :   0.9764

Dispersion correction           -0.015085783
FINAL SINGLE POINT ENERGY     -1339.860827719094

DIPOLE MOMENT
-------------
                                X             Y             Z
Electronic contribution:      0.03478      27.71682       7.25508
Nuclear contribution   :      0.25651     -28.29510      -7.48724
                        -----------------------------------------
Total Dipole Moment    :      0.29129      -0.57828      -0.23216
                        -----------------------------------------
Magnitude (a.u.)       :      0.68787
Magnitude (Debye)      :      1.74842

Rotational constants in cm-1:     0.019562     0.009589     0.007292
Rotational constants in MHz :   586.455843   287.480439   218.611657

                             ****ORCA TERMINATED NORMALLY****
TOTAL RUN TIME: 0 days 0 hours 0 minutes 36 seconds 934 msec
