                         Program Version 4.2.1 -  RELEASE  -
|  1> ! wB97X-D3 SP def2-SVP
|  2> %pal
|  3> nprocs 16
|  4> end
|  5>
|  6> * xyz 0 1
|  7> S 	 2.00118 	 35.3522 	 36.8987
|  8> C 	 2.74328 	 33.7383 	 37.1418
|  9> C 	 1.77722 	 32.7512 	 37.0707
| 10> C 	 0.480963 	 33.2515 	 36.8024
| 11> C 	 0.335482 	 34.6193 	 36.9271
| 12> H 	 -0.434523 	 32.7101 	 36.8511
| 13> C 	 2.03427 	 31.24 	 37.2106
| 14> H 	 1.17317 	 30.8364 	 37.7011
| 15> H 	 2.96367 	 31.1545 	 37.8223
| 16> C 	 2.36197 	 30.4317 	 35.9439
| 17> H 	 1.53245 	 30.3439 	 35.2668
| 18> H 	 3.16655 	 30.9256 	 35.3985
| 19> C 	 2.79706 	 28.9966 	 36.254
| 20> H 	 3.10669 	 28.5698 	 35.3001
| 21> H 	 3.66091 	 29.0411 	 36.9056
| 22> H 	 2.00447 	 28.424 	 36.7394
| 23> S 	 -0.987389 	 36.425 	 35.3028
| 24> C 	 -2.67931 	 36.7907 	 35.5722
| 25> C 	 -3.14837 	 36.0528 	 36.7033
| 26> C 	 -2.11063 	 35.2421 	 37.3303
| 27> C 	 -0.913947 	 35.2796 	 36.6422
| 28> H 	 -4.21595 	 36.1195 	 36.8274
| 29> C 	 -2.61273 	 34.2839 	 38.4203
| 30> H 	 -2.90924 	 34.8185 	 39.3071
| 31> H 	 -1.77347 	 33.6224 	 38.635
| 32> C 	 -3.8693 	 33.4856 	 38.01
| 33> H 	 -3.53508 	 32.871 	 37.1102
| 34> H 	 -4.72545 	 34.0904 	 37.6959
| 35> C 	 -4.31266 	 32.3999 	 39.0363
| 36> H 	 -3.45802 	 31.8592 	 39.4614
| 37> H 	 -4.92553 	 31.6221 	 38.5727
| 38> H 	 -4.95464 	 32.6963 	 39.8455
| 39> H 	 3.79345 	 33.5874 	 36.9588
| 40> H 	 -3.26376 	 37.3216 	 34.8318
| 41> *
| 42>
| 43>                          ****END OF INPUT****

CARTESIAN COORDINATES (ANGSTROEM)
---------------------------------
  S      2.001180   35.352200   36.898700
  C      2.743280   33.738300   37.141800
  C      1.777220   32.751200   37.070700
  C      0.480963   33.251500   36.802400
  C      0.335482   34.619300   36.927100
  H     -0.434523   32.710100   36.851100
  C      2.034270   31.240000   37.210600
  H      1.173170   30.836400   37.701100
  H      2.963670   31.154500   37.822300
  C      2.361970   30.431700   35.943900
  H      1.532450   30.343900   35.266800
  H      3.166550   30.925600   35.398500
  C      2.797060   28.996600   36.254000
  H      3.106690   28.569800   35.300100
  H      3.660910   29.041100   36.905600
  H      2.004470   28.424000   36.739400
  S     -0.987389   36.425000   35.302800
  C     -2.679310   36.790700   35.572200
  C     -3.148370   36.052800   36.703300
  C     -2.110630   35.242100   37.330300
  C     -0.913947   35.279600   36.642200
  H     -4.215950   36.119500   36.827400
  C     -2.612730   34.283900   38.420300
  H     -2.909240   34.818500   39.307100
  H     -1.773470   33.622400   38.635000
  C     -3.869300   33.485600   38.010000
  H     -3.535080   32.871000   37.110200
  H     -4.725450   34.090400   37.695900
  C     -4.312660   32.399900   39.036300
  H     -3.458020   31.859200   39.461400
  H     -4.925530   31.622100   38.572700
  H     -4.954640   32.696300   39.845500
  H      3.793450   33.587400   36.958800
  H     -3.263760   37.321600   34.831800

 Total Charge           Charge          ....    0
 Multiplicity           Mult            ....    1
 Number of Electrons    NEL             ....  134
 Basis Dimension        Dim             ....  322

ORBITAL ENERGIES
----------------

  NO   OCC          E(Eh)            E(eV)
   0   2.0000     -88.966582     -2420.9038
   1   2.0000     -88.964925     -2420.8587
   2   2.0000     -10.334364      -281.2123
   3   2.0000     -10.330781      -281.1148
   4   2.0000     -10.323688      -280.9218
   5   2.0000     -10.318128      -280.7705
   6   2.0000     -10.310872      -280.5731
   7   2.0000     -10.303917      -280.3838
   8   2.0000     -10.301005      -280.3046
   9   2.0000     -10.297440      -280.2076
  10   2.0000     -10.295072      -280.1431
  11   2.0000     -10.294885      -280.1381
  12   2.0000     -10.291810      -280.0544
  13   2.0000     -10.284463      -279.8545
  14   2.0000     -10.280491      -279.7464
  15   2.0000     -10.278620      -279.6955
  16   2.0000      -8.079607      -219.8573
  17   2.0000      -8.079542      -219.8555
  18   2.0000      -6.038340      -164.3116
  19   2.0000      -6.038093      -164.3049
  20   2.0000      -6.034421      -164.2049
  21   2.0000      -6.033914      -164.1911
  22   2.0000      -6.030419      -164.0960
  23   2.0000      -6.030136      -164.0883
  24   2.0000      -1.001524       -27.2528
  25   2.0000      -0.977232       -26.5918
  26   2.0000      -0.910124       -24.7657
  27   2.0000      -0.906347       -24.6630
  28   2.0000      -0.872248       -23.7351
  29   2.0000      -0.849816       -23.1247
  30   2.0000      -0.843626       -22.9562
  31   2.0000      -0.812726       -22.1154
  32   2.0000      -0.782583       -21.2952
  33   2.0000      -0.771869       -21.0036
  34   2.0000      -0.707248       -19.2452
  35   2.0000      -0.699917       -19.0457
  36   2.0000      -0.697319       -18.9750
  37   2.0000      -0.660855       -17.9828
  38   2.0000      -0.643396       -17.5077
  39   2.0000      -0.618247       -16.8233
  40   2.0000      -0.593830       -16.1589
  41   2.0000      -0.574987       -15.6462
  42   2.0000      -0.568130       -15.4596
  43   2.0000      -0.559974       -15.2377
  44   2.0000      -0.531668       -14.4674
  45   2.0000      -0.522863       -14.2278
  46   2.0000      -0.517314       -14.0768
  47   2.0000      -0.510768       -13.8987
  48   2.0000      -0.507639       -13.8135
  49   2.0000      -0.502159       -13.6644
  50   2.0000      -0.492295       -13.3960
  51   2.0000      -0.474685       -12.9168
  52   2.0000      -0.469729       -12.7820
  53   2.0000      -0.464860       -12.6495
  54   2.0000      -0.462742       -12.5919
  55   2.0000      -0.447533       -12.1780
  56   2.0000      -0.443625       -12.0717
  57   2.0000      -0.435823       -11.8594
  58   2.0000      -0.433080       -11.7847
  59   2.0000      -0.426177       -11.5969
  60   2.0000      -0.419518       -11.4157
  61   2.0000      -0.414758       -11.2861
  62   2.0000      -0.414530       -11.2799
  63   2.0000      -0.346105        -9.4180
  64   2.0000      -0.330024        -8.9804
  65   2.0000      -0.327232        -8.9044
  66   2.0000      -0.296463        -8.0672
  67   0.0000       0.023516         0.6399
  68   0.0000       0.058153         1.5824
  69   0.0000       0.106698         2.9034
  70   0.0000       0.118002         3.2110
  71   0.0000       0.123603         3.3634

MULLIKEN ATOMIC CHARGES
-----------------------
   0 S :    0.084953
   1 C :   -0.113542
   2 C :   -0.079806
   3 C :    0.037082
   4 C :   -0.144726
   5 H :    0.009858
   6 C :    0.063336
   7 H :    0.021818
   8 H :    0.025723
   9 C :   -0.069775
  10 H :    0.022718
  11 H :    0.022833
  12 C :   -0.039664
  13 H :    0.037555
  14 H :    0.022633
  15 H :    0.036883
  16 S :    0.104404
  17 C :   -0.115820
  18 C :   -0.048437
  19 C :   -0.018388
  20 C :   -0.166074
  21 H :    0.027262
  22 C :    0.102698
  23 H :    0.032467
  24 H :    0.020638
  25 C :   -0.127873
  26 H :    0.038734
  27 H :    0.042838
  28 C :   -0.044840
  29 H :    0.028214
  30 H :    0.028224
  31 H :    0.029974
  32 H :    0.058750
  33 H :    0.069351
Sum of atomic charges:    0.0000000

LOEWDIN ATOMIC CHARGES
----------------------
   0 S :    0.358852
   1 C :   -0.182564
   2 C :   -0.062242
   3 C :   -0.056656
   4 C :   -0.169452
   5 H :    0.026208
   6 C :   -0.028436
   7 H :    0.026025
   8 H :    0.035460
   9 C :   -0.039430
  10 H :    0.018818
  11 H :    0.023190
  12 C :   -0.059979
  13 H :    0.029372
  14 H :    0.020261
  15 H :    0.025254
  16 S :    0.400947
  17 C :   -0.184293
  18 C :   -0.068600
  19 C :   -0.051287
  20 C :   -0.196751
  21 H :    0.029752
  22 C :   -0.027818
  23 H :    0.031291
  24 H :    0.026845
  25 C :   -0.043314
  26 H :    0.031604
  27 H :    0.024069
  28 C :   -0.072120
  29 H :    0.026814
  30 H :    0.028780
  31 H :    0.020898
  32 H :    0.028784
  33 H :    0.029718

  Mayer bond orders larger than 0.100000
B(  0-S ,  1-C ) :   1.1254 B(  0-S ,  4-C ) :   1.1250 B(  1-C ,  2-C ) :   1.6192
B(  1-C , 32-H ) :   0.9639 B(  2-C ,  3-C ) :   1.2478 B(  2-C ,  6-C ) :   1.0210
B(  3-C ,  4-C ) :   1.5819 B(  3-C ,  5-H ) :   0.9847 B(  4-C , 20-C ) :   1.0609
B(  6-C ,  7-H ) :   0.9401 B(  6-C ,  8-H ) :   0.9427 B(  6-C ,  9-C ) :   1.0693
B(  9-C , 10-H ) :   0.9538 B(  9-C , 11-H ) :   0.9551 B(  9-C , 12-C ) :   1.0865
B( 12-C , 13-H ) :   0.9736 B( 12-C , 14-H ) :   0.9751 B( 12-C , 15-H ) :   0.9756
B( 16-S , 17-C ) :   1.1636 B( 16-S , 20-C ) :   1.1324 B( 17-C , 18-C ) :   1.6063
B( 17-C , 33-H ) :   0.9680 B( 18-C , 19-C ) :   1.2069 B( 18-C , 21-H ) :   0.9905
B( 19-C , 20-C ) :   1.6133 B( 19-C , 22-C ) :   1.0489 B( 22-C , 23-H ) :   0.9279
B( 22-C , 24-H ) :   0.9357 B( 22-C , 25-C ) :   1.0628 B( 25-C , 26-H ) :   0.9584
B( 25-C , 27-H ) :   0.9520 B( 25-C , 28-C ) :   1.0782 B( 28-C , 29-H ) :   0.9739
B( 28-C , 30-H ) :   0.9752 B( 28-C , 31-H ) :   0.9763

Dispersion correction           -0.013415063
FINAL SINGLE POINT ENERGY     -1339.867254365328

DIPOLE MOMENT
-------------
                                X             Y             Z
Electronic contribution:      7.17872      28.84440      -7.65568
Nuclear contribution   :     -7.60567     -29.56430       7.62032
                        -----------------------------------------
Total Dipole Moment    :     -0.42694      -0.71990      -0.03536
                        -----------------------------------------
Magnitude (a.u.)       :      0.83773
Magnitude (Debye)      :      2.12933

Rotational constants in cm-1:     0.016521     0.008247     0.006151
Rotational constants in MHz :   495.294825   247.236658   184.411711

                             ****ORCA TERMINATED NORMALLY****
TOTAL RUN TIME: 0 days 0 hours 0 minutes 31 seconds 987 msec
