                         Program Version 4.2.1 -  RELEASE  -
|  1> ! wB97X-D3 SP def2-SVP
|  2> %pal
|  3> nprocs 16
|  4> end
|  5>
|  6> * xyz 0 1
|  7> S 	 -10.9732 	 76.9902 	 48.8837
|  8> C 	 -12.5413 	 77.2773 	 49.663
|  9> C 	 -13.2729 	 76.0792 	 49.5815
| 10> C 	 -12.6861 	 75.0409 	 48.821
| 11> C 	 -11.4394 	 75.4043 	 48.281
| 12> H 	 -13.0847 	 74.0393 	 48.5247
| 13> C 	 -14.7144 	 75.9447 	 50.0954
| 14> H 	 -14.7437 	 76.4447 	 51.0491
| 15> H 	 -14.9491 	 74.8956 	 50.3262
| 16> C 	 -15.7499 	 76.6161 	 49.1462
| 17> H 	 -15.5478 	 77.6445 	 48.6909
| 18> H 	 -15.6054 	 75.9001 	 48.2935
| 19> C 	 -17.2233 	 76.5377 	 49.5576
| 20> H 	 -17.5648 	 75.5259 	 49.6236
| 21> H 	 -17.4168 	 77.0903 	 50.4897
| 22> H 	 -17.9054 	 76.93 	 48.7488
| 23> S 	 -9.23563 	 73.7468 	 48.6948
| 24> C 	 -8.43419 	 73.1563 	 47.2457
| 25> C 	 -9.16734 	 73.2839 	 46.1432
| 26> C 	 -10.3307 	 74.1253 	 46.3291
| 27> C 	 -10.496 	 74.4707 	 47.6732
| 28> H 	 -8.97813 	 72.7134 	 45.2206
| 29> C 	 -11.2714 	 74.614 	 45.239
| 30> H 	 -11.7723 	 75.5098 	 45.5836
| 31> H 	 -12.0832 	 73.9089 	 45.071
| 32> C 	 -10.5857 	 75.1816 	 43.994
| 33> H 	 -9.82817 	 74.4611 	 43.7393
| 34> H 	 -10.056 	 76.0564 	 44.2721
| 35> C 	 -11.5361 	 75.5528 	 42.7898
| 36> H 	 -12.0045 	 74.6835 	 42.3773
| 37> H 	 -10.8845 	 76.0885 	 42.1112
| 38> H 	 -12.1793 	 76.3404 	 43.0434
| 39> H 	 -12.8644 	 78.1408 	 50.1178
| 40> H 	 -7.41711 	 72.7326 	 47.1567
| 41> *
| 42>
| 43>                          ****END OF INPUT****

CARTESIAN COORDINATES (ANGSTROEM)
---------------------------------
  S    -10.973200   76.990200   48.883700
  C    -12.541300   77.277300   49.663000
  C    -13.272900   76.079200   49.581500
  C    -12.686100   75.040900   48.821000
  C    -11.439400   75.404300   48.281000
  H    -13.084700   74.039300   48.524700
  C    -14.714400   75.944700   50.095400
  H    -14.743700   76.444700   51.049100
  H    -14.949100   74.895600   50.326200
  C    -15.749900   76.616100   49.146200
  H    -15.547800   77.644500   48.690900
  H    -15.605400   75.900100   48.293500
  C    -17.223300   76.537700   49.557600
  H    -17.564800   75.525900   49.623600
  H    -17.416800   77.090300   50.489700
  H    -17.905400   76.930000   48.748800
  S     -9.235630   73.746800   48.694800
  C     -8.434190   73.156300   47.245700
  C     -9.167340   73.283900   46.143200
  C    -10.330700   74.125300   46.329100
  C    -10.496000   74.470700   47.673200
  H     -8.978130   72.713400   45.220600
  C    -11.271400   74.614000   45.239000
  H    -11.772300   75.509800   45.583600
  H    -12.083200   73.908900   45.071000
  C    -10.585700   75.181600   43.994000
  H     -9.828170   74.461100   43.739300
  H    -10.056000   76.056400   44.272100
  C    -11.536100   75.552800   42.789800
  H    -12.004500   74.683500   42.377300
  H    -10.884500   76.088500   42.111200
  H    -12.179300   76.340400   43.043400
  H    -12.864400   78.140800   50.117800
  H     -7.417110   72.732600   47.156700

 Total Charge           Charge          ....    0
 Multiplicity           Mult            ....    1
 Number of Electrons    NEL             ....  134
 Basis Dimension        Dim             ....  322

ORBITAL ENERGIES
----------------

  NO   OCC          E(Eh)            E(eV)
   0   2.0000     -88.967861     -2420.9386
   1   2.0000     -88.964255     -2420.8405
   2   2.0000     -10.329497      -281.0799
   3   2.0000     -10.325068      -280.9594
   4   2.0000     -10.316088      -280.7150
   5   2.0000     -10.315426      -280.6970
   6   2.0000     -10.304755      -280.4066
   7   2.0000     -10.304409      -280.3972
   8   2.0000     -10.299012      -280.2504
   9   2.0000     -10.294806      -280.1359
  10   2.0000     -10.293792      -280.1083
  11   2.0000     -10.291498      -280.0459
  12   2.0000     -10.284918      -279.8669
  13   2.0000     -10.281244      -279.7669
  14   2.0000     -10.280552      -279.7480
  15   2.0000     -10.274597      -279.5860
  16   2.0000      -8.081636      -219.9125
  17   2.0000      -8.078674      -219.8319
  18   2.0000      -6.040122      -164.3601
  19   2.0000      -6.037304      -164.2834
  20   2.0000      -6.036066      -164.2497
  21   2.0000      -6.033401      -164.1772
  22   2.0000      -6.032667      -164.1572
  23   2.0000      -6.029137      -164.0612
  24   2.0000      -1.001659       -27.2565
  25   2.0000      -0.980397       -26.6780
  26   2.0000      -0.905578       -24.6420
  27   2.0000      -0.904788       -24.6205
  28   2.0000      -0.868210       -23.6252
  29   2.0000      -0.845862       -23.0171
  30   2.0000      -0.844155       -22.9706
  31   2.0000      -0.816226       -22.2107
  32   2.0000      -0.782783       -21.3006
  33   2.0000      -0.770287       -20.9606
  34   2.0000      -0.706090       -19.2137
  35   2.0000      -0.699388       -19.0313
  36   2.0000      -0.693435       -18.8693
  37   2.0000      -0.650734       -17.7074
  38   2.0000      -0.643290       -17.5048
  39   2.0000      -0.611001       -16.6262
  40   2.0000      -0.595804       -16.2127
  41   2.0000      -0.567547       -15.4437
  42   2.0000      -0.567236       -15.4353
  43   2.0000      -0.558125       -15.1873
  44   2.0000      -0.526860       -14.3366
  45   2.0000      -0.519839       -14.1456
  46   2.0000      -0.517003       -14.0684
  47   2.0000      -0.513962       -13.9856
  48   2.0000      -0.504906       -13.7392
  49   2.0000      -0.497510       -13.5379
  50   2.0000      -0.494616       -13.4592
  51   2.0000      -0.476986       -12.9794
  52   2.0000      -0.474286       -12.9060
  53   2.0000      -0.467689       -12.7265
  54   2.0000      -0.453825       -12.3492
  55   2.0000      -0.450878       -12.2690
  56   2.0000      -0.443723       -12.0743
  57   2.0000      -0.438793       -11.9402
  58   2.0000      -0.432813       -11.7774
  59   2.0000      -0.422054       -11.4847
  60   2.0000      -0.417641       -11.3646
  61   2.0000      -0.405079       -11.0228
  62   2.0000      -0.402325       -10.9478
  63   2.0000      -0.337792        -9.1918
  64   2.0000      -0.327817        -8.9204
  65   2.0000      -0.318748        -8.6736
  66   2.0000      -0.308000        -8.3811
  67   0.0000       0.034694         0.9441
  68   0.0000       0.052941         1.4406
  69   0.0000       0.111742         3.0407
  70   0.0000       0.122321         3.3285
  71   0.0000       0.133418         3.6305

MULLIKEN ATOMIC CHARGES
-----------------------
   0 S :    0.117622
   1 C :   -0.084464
   2 C :   -0.084478
   3 C :    0.025637
   4 C :   -0.182418
   5 H :    0.035552
   6 C :    0.075418
   7 H :    0.013805
   8 H :    0.029398
   9 C :   -0.115821
  10 H :    0.050542
  11 H :    0.024534
  12 C :   -0.044547
  13 H :    0.022758
  14 H :    0.040025
  15 H :    0.039017
  16 S :    0.116197
  17 C :   -0.095729
  18 C :   -0.039833
  19 C :   -0.041324
  20 C :   -0.183547
  21 H :    0.037478
  22 C :    0.088546
  23 H :    0.021433
  24 H :    0.034712
  25 C :   -0.110711
  26 H :    0.016391
  27 H :    0.022999
  28 C :    0.000359
  29 H :    0.042081
  30 H :    0.024241
  31 H :    0.018064
  32 H :    0.019566
  33 H :    0.066497
Sum of atomic charges:    0.0000000

LOEWDIN ATOMIC CHARGES
----------------------
   0 S :    0.406379
   1 C :   -0.175680
   2 C :   -0.060349
   3 C :   -0.064560
   4 C :   -0.201595
   5 H :    0.042714
   6 C :   -0.031386
   7 H :    0.020707
   8 H :    0.032447
   9 C :   -0.055694
  10 H :    0.034210
  11 H :    0.028065
  12 C :   -0.073480
  13 H :    0.020356
  14 H :    0.025240
  15 H :    0.035067
  16 S :    0.386888
  17 C :   -0.180957
  18 C :   -0.081501
  19 C :   -0.046003
  20 C :   -0.200047
  21 H :    0.038289
  22 C :   -0.037968
  23 H :    0.032239
  24 H :    0.030707
  25 C :   -0.034101
  26 H :    0.013639
  27 H :    0.021658
  28 C :   -0.054079
  29 H :    0.024232
  30 H :    0.030537
  31 H :    0.019956
  32 H :    0.014127
  33 H :    0.039942

  Mayer bond orders larger than 0.100000
B(  0-S ,  1-C ) :   1.1470 B(  0-S ,  4-C ) :   1.1657 B(  1-C ,  2-C ) :   1.5648
B(  1-C ,  4-C ) :   0.1141 B(  1-C , 32-H ) :   0.9867 B(  2-C ,  3-C ) :   1.2659
B(  2-C ,  6-C ) :   1.0299 B(  3-C ,  4-C ) :   1.5441 B(  3-C ,  5-H ) :   0.9870
B(  4-C , 20-C ) :   1.0346 B(  6-C ,  7-H ) :   0.9371 B(  6-C ,  8-H ) :   0.9476
B(  6-C ,  9-C ) :   1.0380 B(  9-C , 10-H ) :   0.9614 B(  9-C , 11-H ) :   0.9559
B(  9-C , 12-C ) :   1.0839 B( 12-C , 13-H ) :   0.9734 B( 12-C , 14-H ) :   0.9755
B( 12-C , 15-H ) :   0.9721 B( 16-S , 17-C ) :   1.1365 B( 16-S , 20-C ) :   1.1209
B( 17-C , 18-C ) :   1.6667 B( 17-C , 33-H ) :   0.9552 B( 18-C , 19-C ) :   1.2109
B( 18-C , 21-H ) :   0.9786 B( 19-C , 20-C ) :   1.6361 B( 19-C , 22-C ) :   1.0467
B( 22-C , 23-H ) :   0.9289 B( 22-C , 24-H ) :   0.9366 B( 22-C , 25-C ) :   1.0454
B( 25-C , 26-H ) :   0.9630 B( 25-C , 27-H ) :   0.9584 B( 25-C , 28-C ) :   1.0841
B( 28-C , 29-H ) :   0.9781 B( 28-C , 30-H ) :   0.9715 B( 28-C , 31-H ) :   0.9722

Dispersion correction           -0.013653027
FINAL SINGLE POINT ENERGY     -1339.858726986170

DIPOLE MOMENT
-------------
                                X             Y             Z
Electronic contribution:     23.11630      -3.73681      14.10207
Nuclear contribution   :    -23.54715       3.66526     -14.46705
                        -----------------------------------------
Total Dipole Moment    :     -0.43085      -0.07155      -0.36498
                        -----------------------------------------
Magnitude (a.u.)       :      0.56918
Magnitude (Debye)      :      1.44673

Rotational constants in cm-1:     0.017803     0.007769     0.006269
Rotational constants in MHz :   533.719684   232.913709   187.948410

                             ****ORCA TERMINATED NORMALLY****
TOTAL RUN TIME: 0 days 0 hours 0 minutes 32 seconds 0 msec
