                         Program Version 4.2.1 -  RELEASE  -
|  1> ! wB97X-D3 SP def2-SVP
|  2> %pal
|  3> nprocs 16
|  4> end
|  5>
|  6> * xyz 0 1
|  7> S 	 -17.3615 	 33.9957 	 36.7783
|  8> C 	 -18.2034 	 34.4876 	 35.3268
|  9> C 	 -18.8792 	 33.4362 	 34.7547
| 10> C 	 -18.6767 	 32.2104 	 35.5075
| 11> C 	 -17.8926 	 32.2988 	 36.628
| 12> H 	 -19.1903 	 31.2562 	 35.2187
| 13> C 	 -19.6756 	 33.5584 	 33.5377
| 14> H 	 -20.2274 	 34.517 	 33.7214
| 15> H 	 -20.5037 	 32.836 	 33.3189
| 16> C 	 -18.6714 	 33.6772 	 32.2877
| 17> H 	 -17.7488 	 34.1291 	 32.6798
| 18> H 	 -18.4823 	 32.6595 	 31.8932
| 19> C 	 -19.1865 	 34.4627 	 31.0584
| 20> H 	 -18.3988 	 34.5766 	 30.3123
| 21> H 	 -20.0959 	 34.1098 	 30.7321
| 22> H 	 -19.4186 	 35.5259 	 31.2848
| 23> S 	 -17.6744 	 32.0098 	 39.2549
| 24> C 	 -17.5193 	 30.4893 	 40.1145
| 25> C 	 -17.3489 	 29.5033 	 39.1343
| 26> C 	 -17.3965 	 29.9334 	 37.7631
| 27> C 	 -17.5623 	 31.3221 	 37.627
| 28> H 	 -17.3073 	 28.5097 	 39.4416
| 29> C 	 -17.312 	 29.0513 	 36.589
| 30> H 	 -16.4286 	 28.386 	 36.6667
| 31> H 	 -17.0165 	 29.5949 	 35.774
| 32> C 	 -18.5397 	 28.2351 	 36.1428
| 33> H 	 -18.1853 	 27.6803 	 35.3095
| 34> H 	 -19.3138 	 28.8606 	 35.7727
| 35> C 	 -19.2881 	 27.3265 	 37.0759
| 36> H 	 -18.7426 	 26.3651 	 37.1926
| 37> H 	 -20.308 	 27.1749 	 36.694
| 38> H 	 -19.467 	 27.8649 	 38.0494
| 39> H 	 -18.36 	 35.5459 	 35.0145
| 40> H 	 -17.4412 	 30.3127 	 41.1604
| 41> *
| 42>
| 43>                          ****END OF INPUT****

CARTESIAN COORDINATES (ANGSTROEM)
---------------------------------
  S    -17.361500   33.995700   36.778300
  C    -18.203400   34.487600   35.326800
  C    -18.879200   33.436200   34.754700
  C    -18.676700   32.210400   35.507500
  C    -17.892600   32.298800   36.628000
  H    -19.190300   31.256200   35.218700
  C    -19.675600   33.558400   33.537700
  H    -20.227400   34.517000   33.721400
  H    -20.503700   32.836000   33.318900
  C    -18.671400   33.677200   32.287700
  H    -17.748800   34.129100   32.679800
  H    -18.482300   32.659500   31.893200
  C    -19.186500   34.462700   31.058400
  H    -18.398800   34.576600   30.312300
  H    -20.095900   34.109800   30.732100
  H    -19.418600   35.525900   31.284800
  S    -17.674400   32.009800   39.254900
  C    -17.519300   30.489300   40.114500
  C    -17.348900   29.503300   39.134300
  C    -17.396500   29.933400   37.763100
  C    -17.562300   31.322100   37.627000
  H    -17.307300   28.509700   39.441600
  C    -17.312000   29.051300   36.589000
  H    -16.428600   28.386000   36.666700
  H    -17.016500   29.594900   35.774000
  C    -18.539700   28.235100   36.142800
  H    -18.185300   27.680300   35.309500
  H    -19.313800   28.860600   35.772700
  C    -19.288100   27.326500   37.075900
  H    -18.742600   26.365100   37.192600
  H    -20.308000   27.174900   36.694000
  H    -19.467000   27.864900   38.049400
  H    -18.360000   35.545900   35.014500
  H    -17.441200   30.312700   41.160400

 Total Charge           Charge          ....    0
 Multiplicity           Mult            ....    1
 Number of Electrons    NEL             ....  134
 Basis Dimension        Dim             ....  322

ORBITAL ENERGIES
----------------

  NO   OCC          E(Eh)            E(eV)
   0   2.0000     -88.965241     -2420.8673
   1   2.0000     -88.961565     -2420.7673
   2   2.0000     -10.334393      -281.2131
   3   2.0000     -10.331820      -281.1431
   4   2.0000     -10.320794      -280.8431
   5   2.0000     -10.316479      -280.7257
   6   2.0000     -10.307150      -280.4718
   7   2.0000     -10.301566      -280.3199
   8   2.0000     -10.299955      -280.2760
   9   2.0000     -10.299397      -280.2608
  10   2.0000     -10.294766      -280.1348
  11   2.0000     -10.293342      -280.0961
  12   2.0000     -10.283206      -279.8203
  13   2.0000     -10.280848      -279.7561
  14   2.0000     -10.278508      -279.6924
  15   2.0000     -10.275623      -279.6139
  16   2.0000      -8.079474      -219.8537
  17   2.0000      -8.076108      -219.7621
  18   2.0000      -6.038213      -164.3081
  19   2.0000      -6.034758      -164.2141
  20   2.0000      -6.034028      -164.1943
  21   2.0000      -6.030359      -164.0944
  22   2.0000      -6.030021      -164.0852
  23   2.0000      -6.026951      -164.0017
  24   2.0000      -1.006456       -27.3871
  25   2.0000      -0.982255       -26.7285
  26   2.0000      -0.914736       -24.8912
  27   2.0000      -0.909873       -24.7589
  28   2.0000      -0.871225       -23.7072
  29   2.0000      -0.854053       -23.2400
  30   2.0000      -0.844260       -22.9735
  31   2.0000      -0.820056       -22.3148
  32   2.0000      -0.786028       -21.3889
  33   2.0000      -0.771155       -20.9842
  34   2.0000      -0.710754       -19.3406
  35   2.0000      -0.702118       -19.1056
  36   2.0000      -0.692829       -18.8528
  37   2.0000      -0.667732       -18.1699
  38   2.0000      -0.638334       -17.3700
  39   2.0000      -0.617596       -16.8056
  40   2.0000      -0.598746       -16.2927
  41   2.0000      -0.577410       -15.7121
  42   2.0000      -0.563764       -15.3408
  43   2.0000      -0.548979       -14.9385
  44   2.0000      -0.541779       -14.7426
  45   2.0000      -0.530888       -14.4462
  46   2.0000      -0.523636       -14.2489
  47   2.0000      -0.515617       -14.0307
  48   2.0000      -0.509920       -13.8756
  49   2.0000      -0.499034       -13.5794
  50   2.0000      -0.493943       -13.4409
  51   2.0000      -0.490079       -13.3357
  52   2.0000      -0.476849       -12.9757
  53   2.0000      -0.458106       -12.4657
  54   2.0000      -0.457116       -12.4387
  55   2.0000      -0.444530       -12.0963
  56   2.0000      -0.442464       -12.0400
  57   2.0000      -0.432980       -11.7820
  58   2.0000      -0.428697       -11.6654
  59   2.0000      -0.421760       -11.4767
  60   2.0000      -0.420355       -11.4385
  61   2.0000      -0.416902       -11.3445
  62   2.0000      -0.404779       -11.0146
  63   2.0000      -0.356124        -9.6906
  64   2.0000      -0.328513        -8.9393
  65   2.0000      -0.325019        -8.8442
  66   2.0000      -0.288466        -7.8495
  67   0.0000       0.019888         0.5412
  68   0.0000       0.072196         1.9646
  69   0.0000       0.109571         2.9816
  70   0.0000       0.118574         3.2265
  71   0.0000       0.127514         3.4698

MULLIKEN ATOMIC CHARGES
-----------------------
   0 S :    0.103352
   1 C :   -0.130464
   2 C :   -0.098036
   3 C :    0.009495
   4 C :   -0.115015
   5 H :    0.020484
   6 C :    0.021182
   7 H :    0.033919
   8 H :    0.039855
   9 C :   -0.088292
  10 H :    0.042613
  11 H :    0.039171
  12 C :   -0.023988
  13 H :    0.039689
  14 H :    0.016292
  15 H :    0.016195
  16 S :    0.075953
  17 C :   -0.071042
  18 C :   -0.024034
  19 C :   -0.048276
  20 C :   -0.122727
  21 H :   -0.002506
  22 C :    0.103601
  23 H :    0.022126
  24 H :   -0.005684
  25 C :   -0.051580
  26 H :    0.018690
  27 H :    0.010530
  28 C :   -0.070074
  29 H :    0.040258
  30 H :    0.033545
  31 H :    0.041541
  32 H :    0.067649
  33 H :    0.055577
Sum of atomic charges:    0.0000000

LOEWDIN ATOMIC CHARGES
----------------------
   0 S :    0.390298
   1 C :   -0.203200
   2 C :   -0.068805
   3 C :   -0.067909
   4 C :   -0.188458
   5 H :    0.036244
   6 C :   -0.044448
   7 H :    0.037470
   8 H :    0.034894
   9 C :   -0.032210
  10 H :    0.025995
  11 H :    0.028315
  12 C :   -0.065283
  13 H :    0.030329
  14 H :    0.012329
  15 H :    0.024617
  16 S :    0.400448
  17 C :   -0.179167
  18 C :   -0.064805
  19 C :   -0.057162
  20 C :   -0.181918
  21 H :    0.018619
  22 C :   -0.034046
  23 H :    0.037038
  24 H :    0.023469
  25 C :   -0.039060
  26 H :    0.022578
  27 H :    0.017230
  28 C :   -0.071113
  29 H :    0.026392
  30 H :    0.029756
  31 H :    0.031966
  32 H :    0.039553
  33 H :    0.030045

  Mayer bond orders larger than 0.100000
B(  0-S ,  1-C ) :   1.1306 B(  0-S ,  4-C ) :   1.1303 B(  1-C ,  2-C ) :   1.6157
B(  1-C , 32-H ) :   0.9578 B(  2-C ,  3-C ) :   1.2416 B(  2-C ,  6-C ) :   1.0340
B(  3-C ,  4-C ) :   1.5758 B(  3-C ,  5-H ) :   0.9876 B(  4-C , 20-C ) :   1.0566
B(  6-C ,  7-H ) :   0.9446 B(  6-C ,  8-H ) :   0.9463 B(  6-C ,  9-C ) :   1.0304
B(  9-C , 10-H ) :   0.9658 B(  9-C , 11-H ) :   0.9564 B(  9-C , 12-C ) :   1.0790
B( 12-C , 13-H ) :   0.9737 B( 12-C , 14-H ) :   0.9743 B( 12-C , 15-H ) :   0.9742
B( 16-S , 17-C ) :   1.1588 B( 16-S , 20-C ) :   1.1386 B( 17-C , 18-C ) :   1.5745
B( 17-C , 20-C ) :   0.1076 B( 17-C , 33-H ) :   0.9747 B( 18-C , 19-C ) :   1.2479
B( 18-C , 21-H ) :   1.0005 B( 19-C , 20-C ) :   1.5571 B( 19-C , 22-C ) :   1.0619
B( 22-C , 23-H ) :   0.9269 B( 22-C , 24-H ) :   0.9175 B( 22-C , 25-C ) :   1.0709
B( 25-C , 26-H ) :   0.9495 B( 25-C , 27-H ) :   0.9524 B( 25-C , 28-C ) :   1.0947
B( 28-C , 29-H ) :   0.9756 B( 28-C , 30-H ) :   0.9731 B( 28-C , 31-H ) :   0.9663

Dispersion correction           -0.014052940
FINAL SINGLE POINT ENERGY     -1339.862777128677

DIPOLE MOMENT
-------------
                                X             Y             Z
Electronic contribution:      9.40610      11.51760      23.39454
Nuclear contribution   :     -9.75240     -11.92484     -23.90316
                        -----------------------------------------
Total Dipole Moment    :     -0.34629      -0.40724      -0.50862
                        -----------------------------------------
Magnitude (a.u.)       :      0.73787
Magnitude (Debye)      :      1.87553

Rotational constants in cm-1:     0.020910     0.007951     0.006057
Rotational constants in MHz :   626.874608   238.351550   181.595220

                             ****ORCA TERMINATED NORMALLY****
TOTAL RUN TIME: 0 days 0 hours 0 minutes 33 seconds 409 msec
