                         Program Version 4.2.1 -  RELEASE  -
|  1> ! wB97X-D3 SP def2-SVP
|  2> %pal
|  3> nprocs 16
|  4> end
|  5>
|  6> * xyz 0 1
|  7> S 	 53.4694 	 18.075 	 49.2496
|  8> C 	 51.8386 	 18.3919 	 48.5632
|  9> C 	 51.4578 	 17.4593 	 47.6716
| 10> C 	 52.5587 	 16.4987 	 47.4361
| 11> C 	 53.6585 	 16.6176 	 48.2394
| 12> H 	 52.6096 	 15.6285 	 46.7636
| 13> C 	 50.1552 	 17.4869 	 46.8605
| 14> H 	 49.3687 	 17.9711 	 47.4289
| 15> H 	 49.817 	 16.4691 	 46.8072
| 16> C 	 50.1724 	 18.0489 	 45.3807
| 17> H 	 50.586 	 17.3086 	 44.6336
| 18> H 	 49.0675 	 18.1789 	 45.0857
| 19> C 	 50.805 	 19.4957 	 45.331
| 20> H 	 51.0912 	 19.838 	 44.3219
| 21> H 	 50.0661 	 20.2356 	 45.7117
| 22> H 	 51.7276 	 19.5395 	 45.8116
| 23> S 	 56.3717 	 16.5777 	 48.3018
| 24> C 	 57.2161 	 15.0885 	 48.4747
| 25> C 	 56.3317 	 14.0512 	 48.4443
| 26> C 	 54.9856 	 14.3996 	 48.3591
| 27> C 	 54.803 	 15.7232 	 48.3156
| 28> H 	 56.7564 	 13.0177 	 48.5484
| 29> C 	 53.8533 	 13.4445 	 48.2603
| 30> H 	 52.9271 	 13.9491 	 48.5498
| 31> H 	 53.9384 	 12.7044 	 48.9659
| 32> C 	 53.6688 	 12.7002 	 46.9301
| 33> H 	 54.5838 	 12.5413 	 46.4091
| 34> H 	 53.1623 	 13.3941 	 46.3579
| 35> C 	 53.1275 	 11.2238 	 47.1221
| 36> H 	 53.7735 	 10.6307 	 47.7408
| 37> H 	 53.1751 	 10.804 	 46.0755
| 38> H 	 52.0812 	 11.2462 	 47.5313
| 39> H 	 51.0745 	 19.1296 	 48.798
| 40> H 	 58.3233 	 15.0169 	 48.445
| 41> *
| 42>
| 43>                          ****END OF INPUT****

CARTESIAN COORDINATES (ANGSTROEM)
---------------------------------
  S     53.469400   18.075000   49.249600
  C     51.838600   18.391900   48.563200
  C     51.457800   17.459300   47.671600
  C     52.558700   16.498700   47.436100
  C     53.658500   16.617600   48.239400
  H     52.609600   15.628500   46.763600
  C     50.155200   17.486900   46.860500
  H     49.368700   17.971100   47.428900
  H     49.817000   16.469100   46.807200
  C     50.172400   18.048900   45.380700
  H     50.586000   17.308600   44.633600
  H     49.067500   18.178900   45.085700
  C     50.805000   19.495700   45.331000
  H     51.091200   19.838000   44.321900
  H     50.066100   20.235600   45.711700
  H     51.727600   19.539500   45.811600
  S     56.371700   16.577700   48.301800
  C     57.216100   15.088500   48.474700
  C     56.331700   14.051200   48.444300
  C     54.985600   14.399600   48.359100
  C     54.803000   15.723200   48.315600
  H     56.756400   13.017700   48.548400
  C     53.853300   13.444500   48.260300
  H     52.927100   13.949100   48.549800
  H     53.938400   12.704400   48.965900
  C     53.668800   12.700200   46.930100
  H     54.583800   12.541300   46.409100
  H     53.162300   13.394100   46.357900
  C     53.127500   11.223800   47.122100
  H     53.773500   10.630700   47.740800
  H     53.175100   10.804000   46.075500
  H     52.081200   11.246200   47.531300
  H     51.074500   19.129600   48.798000
  H     58.323300   15.016900   48.445000

 Total Charge           Charge          ....    0
 Multiplicity           Mult            ....    1
 Number of Electrons    NEL             ....  134
 Basis Dimension        Dim             ....  322

ORBITAL ENERGIES
----------------

  NO   OCC          E(Eh)            E(eV)
   0   2.0000     -88.965672     -2420.8790
   1   2.0000     -88.960378     -2420.7350
   2   2.0000     -10.331303      -281.1290
   3   2.0000     -10.324429      -280.9420
   4   2.0000     -10.318136      -280.7708
   5   2.0000     -10.315061      -280.6871
   6   2.0000     -10.305657      -280.4312
   7   2.0000     -10.304492      -280.3995
   8   2.0000     -10.297924      -280.2208
   9   2.0000     -10.297288      -280.2035
  10   2.0000     -10.297273      -280.2030
  11   2.0000     -10.292994      -280.0866
  12   2.0000     -10.291767      -280.0532
  13   2.0000     -10.281773      -279.7813
  14   2.0000     -10.279401      -279.7167
  15   2.0000     -10.276791      -279.6457
  16   2.0000      -8.079069      -219.8426
  17   2.0000      -8.075810      -219.7540
  18   2.0000      -6.037970      -164.3015
  19   2.0000      -6.034266      -164.2007
  20   2.0000      -6.033863      -164.1898
  21   2.0000      -6.030267      -164.0919
  22   2.0000      -6.029356      -164.0671
  23   2.0000      -6.026514      -163.9898
  24   2.0000      -1.012210       -27.5436
  25   2.0000      -0.982839       -26.7444
  26   2.0000      -0.914626       -24.8882
  27   2.0000      -0.902906       -24.5693
  28   2.0000      -0.869268       -23.6540
  29   2.0000      -0.853689       -23.2301
  30   2.0000      -0.834773       -22.7153
  31   2.0000      -0.815279       -22.1849
  32   2.0000      -0.785161       -21.3653
  33   2.0000      -0.779393       -21.2084
  34   2.0000      -0.712970       -19.4009
  35   2.0000      -0.703942       -19.1552
  36   2.0000      -0.695425       -18.9235
  37   2.0000      -0.665492       -18.1089
  38   2.0000      -0.637560       -17.3489
  39   2.0000      -0.613697       -16.6995
  40   2.0000      -0.600880       -16.3508
  41   2.0000      -0.565171       -15.3791
  42   2.0000      -0.560199       -15.2438
  43   2.0000      -0.547566       -14.9000
  44   2.0000      -0.537853       -14.6357
  45   2.0000      -0.530820       -14.4443
  46   2.0000      -0.521250       -14.1839
  47   2.0000      -0.509326       -13.8595
  48   2.0000      -0.500932       -13.6311
  49   2.0000      -0.500535       -13.6203
  50   2.0000      -0.492299       -13.3961
  51   2.0000      -0.478041       -13.0082
  52   2.0000      -0.472024       -12.8444
  53   2.0000      -0.468675       -12.7533
  54   2.0000      -0.456036       -12.4094
  55   2.0000      -0.442382       -12.0378
  56   2.0000      -0.440379       -11.9833
  57   2.0000      -0.437332       -11.9004
  58   2.0000      -0.431470       -11.7409
  59   2.0000      -0.427669       -11.6375
  60   2.0000      -0.424436       -11.5495
  61   2.0000      -0.415926       -11.3179
  62   2.0000      -0.411835       -11.2066
  63   2.0000      -0.353378        -9.6159
  64   2.0000      -0.333658        -9.0793
  65   2.0000      -0.328018        -8.9258
  66   2.0000      -0.298214        -8.1148
  67   0.0000       0.032344         0.8801
  68   0.0000       0.073446         1.9986
  69   0.0000       0.108607         2.9553
  70   0.0000       0.120880         3.2893
  71   0.0000       0.132593         3.6081

MULLIKEN ATOMIC CHARGES
-----------------------
   0 S :    0.101047
   1 C :   -0.095548
   2 C :   -0.102368
   3 C :    0.016463
   4 C :   -0.129167
   5 H :    0.005889
   6 C :    0.083528
   7 H :    0.019399
   8 H :    0.021781
   9 C :   -0.112217
  10 H :    0.049421
  11 H :    0.044229
  12 C :   -0.053995
  13 H :    0.028715
  14 H :    0.038086
  15 H :    0.038492
  16 S :    0.087344
  17 C :   -0.095629
  18 C :   -0.065726
  19 C :   -0.005648
  20 C :   -0.175566
  21 H :    0.029908
  22 C :    0.105369
  23 H :    0.028378
  24 H :   -0.018829
  25 C :   -0.038035
  26 H :    0.019500
  27 H :    0.002646
  28 C :   -0.079794
  29 H :    0.040197
  30 H :    0.046958
  31 H :    0.051060
  32 H :    0.041723
  33 H :    0.072391
Sum of atomic charges:   -0.0000000

LOEWDIN ATOMIC CHARGES
----------------------
   0 S :    0.363870
   1 C :   -0.179828
   2 C :   -0.065329
   3 C :   -0.066911
   4 C :   -0.183232
   5 H :    0.030007
   6 C :   -0.033435
   7 H :    0.029078
   8 H :    0.029952
   9 C :   -0.043927
  10 H :    0.028603
  11 H :    0.033816
  12 C :   -0.070318
  13 H :    0.028491
  14 H :    0.030412
  15 H :    0.017440
  16 S :    0.394217
  17 C :   -0.189288
  18 C :   -0.080957
  19 C :   -0.059091
  20 C :   -0.177657
  21 H :    0.039316
  22 C :   -0.026067
  23 H :    0.034166
  24 H :    0.016010
  25 C :   -0.030148
  26 H :    0.021537
  27 H :    0.009841
  28 C :   -0.062972
  29 H :    0.022149
  30 H :    0.035347
  31 H :    0.030400
  32 H :    0.035409
  33 H :    0.039097

  Mayer bond orders larger than 0.100000
B(  0-S ,  1-C ) :   1.0985 B(  0-S ,  4-C ) :   1.1065 B(  1-C ,  2-C ) :   1.6939
B(  1-C , 32-H ) :   0.9569 B(  2-C ,  3-C ) :   1.1556 B(  2-C ,  6-C ) :   1.0335
B(  3-C ,  4-C ) :   1.6446 B(  3-C ,  5-H ) :   0.9911 B(  4-C , 20-C ) :   1.0342
B(  6-C ,  7-H ) :   0.9417 B(  6-C ,  8-H ) :   0.9346 B(  6-C ,  9-C ) :   1.0573
B(  9-C , 10-H ) :   0.9610 B(  9-C , 11-H ) :   0.9593 B(  9-C , 12-C ) :   1.0589
B( 12-C , 13-H ) :   0.9752 B( 12-C , 14-H ) :   0.9779 B( 12-C , 15-H ) :   0.9782
B( 16-S , 17-C ) :   1.1571 B( 16-S , 20-C ) :   1.1274 B( 17-C , 18-C ) :   1.6146
B( 17-C , 33-H ) :   0.9639 B( 18-C , 19-C ) :   1.2197 B( 18-C , 21-H ) :   0.9862
B( 19-C , 20-C ) :   1.6320 B( 19-C , 22-C ) :   1.0601 B( 22-C , 23-H ) :   0.9253
B( 22-C , 24-H ) :   0.9181 B( 22-C , 25-C ) :   1.0433 B( 25-C , 26-H ) :   0.9591
B( 25-C , 27-H ) :   0.9546 B( 25-C , 28-C ) :   1.0698 B( 28-C , 29-H ) :   0.9748
B( 28-C , 30-H ) :   0.9767 B( 28-C , 31-H ) :   0.9781

Dispersion correction           -0.014288689
FINAL SINGLE POINT ENERGY     -1339.862203071852

DIPOLE MOMENT
-------------
                                X             Y             Z
Electronic contribution:     18.76265      11.56790      15.09001
Nuclear contribution   :    -19.10366     -12.12165     -15.47187
                        -----------------------------------------
Total Dipole Moment    :     -0.34102      -0.55375      -0.38186
                        -----------------------------------------
Magnitude (a.u.)       :      0.75415
Magnitude (Debye)      :      1.91691

Rotational constants in cm-1:     0.017766     0.008789     0.006627
Rotational constants in MHz :   532.602427   263.483718   198.665113

                             ****ORCA TERMINATED NORMALLY****
TOTAL RUN TIME: 0 days 0 hours 0 minutes 29 seconds 629 msec
