                         Program Version 4.2.1 -  RELEASE  -
|  1> ! wB97X-D3 SP def2-SVP
|  2> %pal
|  3> nprocs 16
|  4> end
|  5>
|  6> * xyz 0 1
|  7> S 	 7.95581 	 -21.0029 	 87.0347
|  8> C 	 7.70593 	 -21.6574 	 88.6356
|  9> C 	 7.01046 	 -20.7954 	 89.4047
| 10> C 	 6.86288 	 -19.533 	 88.799
| 11> C 	 7.28824 	 -19.5075 	 87.4855
| 12> H 	 6.47448 	 -18.634 	 89.2385
| 13> C 	 6.48574 	 -21.0032 	 90.8295
| 14> H 	 7.14348 	 -20.3836 	 91.3945
| 15> H 	 6.68118 	 -22.0091 	 91.1966
| 16> C 	 4.92067 	 -20.7568 	 90.9759
| 17> H 	 4.70732 	 -20.6344 	 92.057
| 18> H 	 4.59884 	 -19.8192 	 90.5445
| 19> C 	 4.00467 	 -21.8504 	 90.3542
| 20> H 	 4.2812 	 -22.0868 	 89.3557
| 21> H 	 4.08345 	 -22.8401 	 90.9288
| 22> H 	 2.94239 	 -21.4908 	 90.3385
| 23> S 	 8.86064 	 -17.4551 	 86.5616
| 24> C 	 8.06191 	 -16.0884 	 85.7706
| 25> C 	 6.71445 	 -16.292 	 85.657
| 26> C 	 6.28604 	 -17.5951 	 86.02
| 27> C 	 7.31084 	 -18.3009 	 86.6861
| 28> H 	 6.12321 	 -15.6194 	 85.0994
| 29> C 	 4.77045 	 -17.941 	 85.962
| 30> H 	 4.77359 	 -18.9294 	 86.4598
| 31> H 	 4.35592 	 -18.2689 	 84.9478
| 32> C 	 3.73352 	 -17.1091 	 86.7246
| 33> H 	 3.84183 	 -16.0304 	 86.525
| 34> H 	 3.95894 	 -17.2617 	 87.8057
| 35> C 	 2.3123 	 -17.4182 	 86.3432
| 36> H 	 2.07801 	 -17.0695 	 85.3389
| 37> H 	 1.68703 	 -16.8602 	 87.0264
| 38> H 	 2.05001 	 -18.4692 	 86.466
| 39> H 	 8.18928 	 -22.5323 	 88.9637
| 40> H 	 8.55238 	 -15.2215 	 85.3478
| 41> *
| 42>
| 43>                          ****END OF INPUT****

CARTESIAN COORDINATES (ANGSTROEM)
---------------------------------
  S      7.955810  -21.002900   87.034700
  C      7.705930  -21.657400   88.635600
  C      7.010460  -20.795400   89.404700
  C      6.862880  -19.533000   88.799000
  C      7.288240  -19.507500   87.485500
  H      6.474480  -18.634000   89.238500
  C      6.485740  -21.003200   90.829500
  H      7.143480  -20.383600   91.394500
  H      6.681180  -22.009100   91.196600
  C      4.920670  -20.756800   90.975900
  H      4.707320  -20.634400   92.057000
  H      4.598840  -19.819200   90.544500
  C      4.004670  -21.850400   90.354200
  H      4.281200  -22.086800   89.355700
  H      4.083450  -22.840100   90.928800
  H      2.942390  -21.490800   90.338500
  S      8.860640  -17.455100   86.561600
  C      8.061910  -16.088400   85.770600
  C      6.714450  -16.292000   85.657000
  C      6.286040  -17.595100   86.020000
  C      7.310840  -18.300900   86.686100
  H      6.123210  -15.619400   85.099400
  C      4.770450  -17.941000   85.962000
  H      4.773590  -18.929400   86.459800
  H      4.355920  -18.268900   84.947800
  C      3.733520  -17.109100   86.724600
  H      3.841830  -16.030400   86.525000
  H      3.958940  -17.261700   87.805700
  C      2.312300  -17.418200   86.343200
  H      2.078010  -17.069500   85.338900
  H      1.687030  -16.860200   87.026400
  H      2.050010  -18.469200   86.466000
  H      8.189280  -22.532300   88.963700
  H      8.552380  -15.221500   85.347800

 Total Charge           Charge          ....    0
 Multiplicity           Mult            ....    1
 Number of Electrons    NEL             ....  134
 Basis Dimension        Dim             ....  322

ORBITAL ENERGIES
----------------

  NO   OCC          E(Eh)            E(eV)
   0   2.0000     -88.966068     -2420.8898
   1   2.0000     -88.963377     -2420.8166
   2   2.0000     -10.329198      -281.0718
   3   2.0000     -10.321523      -280.8629
   4   2.0000     -10.316368      -280.7226
   5   2.0000     -10.307516      -280.4818
   6   2.0000     -10.306687      -280.4592
   7   2.0000     -10.296313      -280.1769
   8   2.0000     -10.295742      -280.1614
   9   2.0000     -10.295442      -280.1532
  10   2.0000     -10.295344      -280.1505
  11   2.0000     -10.289124      -279.9813
  12   2.0000     -10.287659      -279.9414
  13   2.0000     -10.285608      -279.8856
  14   2.0000     -10.285269      -279.8764
  15   2.0000     -10.277066      -279.6532
  16   2.0000      -8.080222      -219.8740
  17   2.0000      -8.079351      -219.8503
  18   2.0000      -6.038734      -164.3223
  19   2.0000      -6.037740      -164.2953
  20   2.0000      -6.034834      -164.2162
  21   2.0000      -6.033630      -164.1834
  22   2.0000      -6.030978      -164.1112
  23   2.0000      -6.030225      -164.0908
  24   2.0000      -1.011979       -27.5374
  25   2.0000      -0.984393       -26.7867
  26   2.0000      -0.906748       -24.6739
  27   2.0000      -0.904969       -24.6255
  28   2.0000      -0.869998       -23.6739
  29   2.0000      -0.850569       -23.1452
  30   2.0000      -0.846846       -23.0439
  31   2.0000      -0.813635       -22.1401
  32   2.0000      -0.783559       -21.3217
  33   2.0000      -0.771824       -21.0024
  34   2.0000      -0.708144       -19.2696
  35   2.0000      -0.697910       -18.9911
  36   2.0000      -0.691500       -18.8167
  37   2.0000      -0.656695       -17.8696
  38   2.0000      -0.647417       -17.6171
  39   2.0000      -0.620926       -16.8962
  40   2.0000      -0.596421       -16.2294
  41   2.0000      -0.565537       -15.3890
  42   2.0000      -0.562199       -15.2982
  43   2.0000      -0.552263       -15.0278
  44   2.0000      -0.532656       -14.4943
  45   2.0000      -0.524582       -14.2746
  46   2.0000      -0.519280       -14.1303
  47   2.0000      -0.513991       -13.9864
  48   2.0000      -0.507282       -13.8039
  49   2.0000      -0.497656       -13.5419
  50   2.0000      -0.486899       -13.2492
  51   2.0000      -0.476255       -12.9596
  52   2.0000      -0.469654       -12.7799
  53   2.0000      -0.458556       -12.4780
  54   2.0000      -0.457890       -12.4598
  55   2.0000      -0.451687       -12.2910
  56   2.0000      -0.444662       -12.0999
  57   2.0000      -0.443021       -12.0552
  58   2.0000      -0.431194       -11.7334
  59   2.0000      -0.426693       -11.6109
  60   2.0000      -0.424506       -11.5514
  61   2.0000      -0.414250       -11.2723
  62   2.0000      -0.406039       -11.0489
  63   2.0000      -0.338358        -9.2072
  64   2.0000      -0.329208        -8.9582
  65   2.0000      -0.320476        -8.7206
  66   2.0000      -0.309757        -8.4289
  67   0.0000       0.039432         1.0730
  68   0.0000       0.061029         1.6607
  69   0.0000       0.118654         3.2287
  70   0.0000       0.122679         3.3383
  71   0.0000       0.129197         3.5156

MULLIKEN ATOMIC CHARGES
-----------------------
   0 S :    0.118606
   1 C :   -0.126842
   2 C :   -0.068589
   3 C :    0.030147
   4 C :   -0.175485
   5 H :    0.010173
   6 C :    0.100837
   7 H :    0.033276
   8 H :    0.010307
   9 C :   -0.082193
  10 H :    0.035249
  11 H :    0.025260
  12 C :   -0.074364
  13 H :    0.036301
  14 H :    0.039611
  15 H :    0.046878
  16 S :    0.114852
  17 C :   -0.090121
  18 C :   -0.013881
  19 C :    0.003635
  20 C :   -0.185751
  21 H :    0.006810
  22 C :    0.014298
  23 H :    0.021555
  24 H :    0.040398
  25 C :   -0.083338
  26 H :    0.029021
  27 H :    0.035332
  28 C :   -0.034544
  29 H :    0.034936
  30 H :    0.027757
  31 H :    0.031837
  32 H :    0.032025
  33 H :    0.056008
Sum of atomic charges:    0.0000000

LOEWDIN ATOMIC CHARGES
----------------------
   0 S :    0.426307
   1 C :   -0.191285
   2 C :   -0.066292
   3 C :   -0.055357
   4 C :   -0.222080
   5 H :    0.029641
   6 C :   -0.024461
   7 H :    0.031074
   8 H :    0.026227
   9 C :   -0.039125
  10 H :    0.027703
  11 H :    0.018877
  12 C :   -0.069367
  13 H :    0.020215
  14 H :    0.031261
  15 H :    0.033749
  16 S :    0.395944
  17 C :   -0.176036
  18 C :   -0.069577
  19 C :   -0.051458
  20 C :   -0.193546
  21 H :    0.024508
  22 C :   -0.049012
  23 H :    0.032600
  24 H :    0.036889
  25 C :   -0.045886
  26 H :    0.022803
  27 H :    0.027807
  28 C :   -0.061094
  29 H :    0.026787
  30 H :    0.027909
  31 H :    0.024006
  32 H :    0.020049
  33 H :    0.030220

  Mayer bond orders larger than 0.100000
B(  0-S ,  1-C ) :   1.1400 B(  0-S ,  4-C ) :   1.1696 B(  1-C ,  2-C ) :   1.6083
B(  1-C , 32-H ) :   0.9770 B(  2-C ,  3-C ) :   1.2376 B(  2-C ,  6-C ) :   1.0078
B(  3-C ,  4-C ) :   1.5686 B(  3-C ,  5-H ) :   0.9989 B(  4-C , 20-C ) :   1.0196
B(  6-C ,  7-H ) :   0.9409 B(  6-C ,  8-H ) :   0.9459 B(  6-C ,  9-C ) :   1.0530
B(  9-C , 10-H ) :   0.9586 B(  9-C , 11-H ) :   0.9626 B(  9-C , 12-C ) :   1.0662
B( 12-C , 13-H ) :   0.9784 B( 12-C , 14-H ) :   0.9751 B( 12-C , 15-H ) :   0.9751
B( 16-S , 17-C ) :   1.1420 B( 16-S , 20-C ) :   1.1518 B( 17-C , 18-C ) :   1.6295
B( 17-C , 20-C ) :   0.1028 B( 17-C , 33-H ) :   0.9662 B( 18-C , 19-C ) :   1.2432
B( 18-C , 21-H ) :   0.9857 B( 19-C , 20-C ) :   1.5890 B( 19-C , 22-C ) :   1.0395
B( 22-C , 23-H ) :   0.9296 B( 22-C , 24-H ) :   0.9414 B( 22-C , 25-C ) :   1.0532
B( 25-C , 26-H ) :   0.9554 B( 25-C , 27-H ) :   0.9539 B( 25-C , 28-C ) :   1.0886
B( 28-C , 29-H ) :   0.9726 B( 28-C , 30-H ) :   0.9700 B( 28-C , 31-H ) :   0.9752

Dispersion correction           -0.014382066
FINAL SINGLE POINT ENERGY     -1339.876302136737

DIPOLE MOMENT
-------------
                                X             Y             Z
Electronic contribution:     28.29812       1.16548     -11.19164
Nuclear contribution   :    -28.78224      -1.00289      11.52945
                        -----------------------------------------
Total Dipole Moment    :     -0.48413       0.16259       0.33781
                        -----------------------------------------
Magnitude (a.u.)       :      0.61231
Magnitude (Debye)      :      1.55638

Rotational constants in cm-1:     0.015853     0.010027     0.007024
Rotational constants in MHz :   475.268853   300.603587   210.579279

                             ****ORCA TERMINATED NORMALLY****
TOTAL RUN TIME: 0 days 0 hours 0 minutes 34 seconds 64 msec
