                         Program Version 4.2.1 -  RELEASE  -
|  1> ! wB97X-D3 SP def2-SVP
|  2> %pal
|  3> nprocs 16
|  4> end
|  5>
|  6> * xyz 0 1
|  7> S 	 2.4689 	 -13.8379 	 64.8701
|  8> C 	 3.71731 	 -13.1038 	 65.9325
|  9> C 	 4.77364 	 -12.5575 	 65.1557
| 10> C 	 4.55918 	 -12.7484 	 63.7637
| 11> C 	 3.39325 	 -13.3818 	 63.3772
| 12> H 	 5.16683 	 -12.4179 	 62.9176
| 13> C 	 5.83146 	 -11.6544 	 65.6279
| 14> H 	 6.47363 	 -11.3432 	 64.7255
| 15> H 	 6.26835 	 -12.2353 	 66.3949
| 16> C 	 5.30564 	 -10.3677 	 66.2856
| 17> H 	 4.67791 	 -10.6923 	 67.1692
| 18> H 	 6.19075 	 -9.8154 	 66.6897
| 19> C 	 4.56274 	 -9.36635 	 65.3565
| 20> H 	 4.76566 	 -8.33689 	 65.6518
| 21> H 	 4.97492 	 -9.40726 	 64.3943
| 22> H 	 3.50296 	 -9.63801 	 65.3519
| 23> S 	 4.24788 	 -14.0387 	 60.7788
| 24> C 	 2.95228 	 -14.1219 	 59.4833
| 25> C 	 1.73249 	 -13.7416 	 59.9398
| 26> C 	 1.77568 	 -13.3611 	 61.3397
| 27> C 	 3.02622 	 -13.5434 	 61.9416
| 28> H 	 0.827338 	 -13.8944 	 59.3065
| 29> C 	 0.432774 	 -13.1792 	 62.1093
| 30> H 	 -0.433598 	 -12.5977 	 61.634
| 31> H 	 0.641932 	 -12.4782 	 62.9098
| 32> C 	 -0.107933 	 -14.4691 	 62.6889
| 33> H 	 0.625966 	 -15.1048 	 63.2277
| 34> H 	 -0.476812 	 -15.0763 	 61.8219
| 35> C 	 -1.21858 	 -13.9959 	 63.7133
| 36> H 	 -1.56885 	 -14.8319 	 64.33
| 37> H 	 -1.96659 	 -13.495 	 63.2001
| 38> H 	 -0.722155 	 -13.2927 	 64.4049
| 39> H 	 3.70861 	 -13.1644 	 67.0134
| 40> H 	 3.03282 	 -14.7181 	 58.6521
| 41> *
| 42>
| 43>                          ****END OF INPUT****

CARTESIAN COORDINATES (ANGSTROEM)
---------------------------------
  S      2.468900  -13.837900   64.870100
  C      3.717310  -13.103800   65.932500
  C      4.773640  -12.557500   65.155700
  C      4.559180  -12.748400   63.763700
  C      3.393250  -13.381800   63.377200
  H      5.166830  -12.417900   62.917600
  C      5.831460  -11.654400   65.627900
  H      6.473630  -11.343200   64.725500
  H      6.268350  -12.235300   66.394900
  C      5.305640  -10.367700   66.285600
  H      4.677910  -10.692300   67.169200
  H      6.190750   -9.815400   66.689700
  C      4.562740   -9.366350   65.356500
  H      4.765660   -8.336890   65.651800
  H      4.974920   -9.407260   64.394300
  H      3.502960   -9.638010   65.351900
  S      4.247880  -14.038700   60.778800
  C      2.952280  -14.121900   59.483300
  C      1.732490  -13.741600   59.939800
  C      1.775680  -13.361100   61.339700
  C      3.026220  -13.543400   61.941600
  H      0.827338  -13.894400   59.306500
  C      0.432774  -13.179200   62.109300
  H     -0.433598  -12.597700   61.634000
  H      0.641932  -12.478200   62.909800
  C     -0.107933  -14.469100   62.688900
  H      0.625966  -15.104800   63.227700
  H     -0.476812  -15.076300   61.821900
  C     -1.218580  -13.995900   63.713300
  H     -1.568850  -14.831900   64.330000
  H     -1.966590  -13.495000   63.200100
  H     -0.722155  -13.292700   64.404900
  H      3.708610  -13.164400   67.013400
  H      3.032820  -14.718100   58.652100

 Total Charge           Charge          ....    0
 Multiplicity           Mult            ....    1
 Number of Electrons    NEL             ....  134
 Basis Dimension        Dim             ....  322

ORBITAL ENERGIES
----------------

  NO   OCC          E(Eh)            E(eV)
   0   2.0000     -88.974431     -2421.1174
   1   2.0000     -88.969760     -2420.9902
   2   2.0000     -10.338017      -281.3118
   3   2.0000     -10.336583      -281.2727
   4   2.0000     -10.323931      -280.9284
   5   2.0000     -10.315936      -280.7109
   6   2.0000     -10.309002      -280.5222
   7   2.0000     -10.304616      -280.4029
   8   2.0000     -10.301108      -280.3074
   9   2.0000     -10.294382      -280.1244
  10   2.0000     -10.293623      -280.1037
  11   2.0000     -10.293337      -280.0959
  12   2.0000     -10.292717      -280.0791
  13   2.0000     -10.290248      -280.0119
  14   2.0000     -10.274533      -279.5843
  15   2.0000     -10.273134      -279.5462
  16   2.0000      -8.086089      -220.0337
  17   2.0000      -8.083062      -219.9513
  18   2.0000      -6.044939      -164.4912
  19   2.0000      -6.041850      -164.4071
  20   2.0000      -6.040918      -164.3817
  21   2.0000      -6.037945      -164.3008
  22   2.0000      -6.036783      -164.2692
  23   2.0000      -6.033427      -164.1779
  24   2.0000      -0.996855       -27.1258
  25   2.0000      -0.975825       -26.5536
  26   2.0000      -0.912853       -24.8400
  27   2.0000      -0.905031       -24.6272
  28   2.0000      -0.868698       -23.6385
  29   2.0000      -0.846353       -23.0304
  30   2.0000      -0.838639       -22.8205
  31   2.0000      -0.817157       -22.2360
  32   2.0000      -0.779918       -21.2226
  33   2.0000      -0.764639       -20.8069
  34   2.0000      -0.706970       -19.2376
  35   2.0000      -0.699338       -19.0300
  36   2.0000      -0.693442       -18.8695
  37   2.0000      -0.663329       -18.0501
  38   2.0000      -0.634174       -17.2568
  39   2.0000      -0.608435       -16.5564
  40   2.0000      -0.595473       -16.2037
  41   2.0000      -0.575404       -15.6575
  42   2.0000      -0.562745       -15.3131
  43   2.0000      -0.555389       -15.1129
  44   2.0000      -0.542095       -14.7511
  45   2.0000      -0.519313       -14.1312
  46   2.0000      -0.513072       -13.9614
  47   2.0000      -0.512032       -13.9331
  48   2.0000      -0.500885       -13.6298
  49   2.0000      -0.496588       -13.5128
  50   2.0000      -0.482845       -13.1389
  51   2.0000      -0.477415       -12.9911
  52   2.0000      -0.469948       -12.7879
  53   2.0000      -0.462073       -12.5736
  54   2.0000      -0.459993       -12.5170
  55   2.0000      -0.449943       -12.2436
  56   2.0000      -0.442474       -12.0403
  57   2.0000      -0.438820       -11.9409
  58   2.0000      -0.430476       -11.7138
  59   2.0000      -0.420368       -11.4388
  60   2.0000      -0.417248       -11.3539
  61   2.0000      -0.411305       -11.1922
  62   2.0000      -0.406953       -11.0738
  63   2.0000      -0.355975        -9.6866
  64   2.0000      -0.335488        -9.1291
  65   2.0000      -0.326381        -8.8813
  66   2.0000      -0.286974        -7.8090
  67   0.0000       0.019638         0.5344
  68   0.0000       0.061699         1.6789
  69   0.0000       0.097154         2.6437
  70   0.0000       0.104127         2.8335
  71   0.0000       0.123637         3.3643

MULLIKEN ATOMIC CHARGES
-----------------------
   0 S :    0.091774
   1 C :   -0.138294
   2 C :   -0.056207
   3 C :   -0.022580
   4 C :   -0.106502
   5 H :    0.019909
   6 C :    0.068592
   7 H :    0.045388
   8 H :    0.025934
   9 C :   -0.121696
  10 H :    0.031621
  11 H :    0.034640
  12 C :   -0.018453
  13 H :    0.032721
  14 H :    0.011066
  15 H :    0.054071
  16 S :    0.086199
  17 C :   -0.061902
  18 C :   -0.034585
  19 C :   -0.020922
  20 C :   -0.151985
  21 H :    0.047333
  22 C :   -0.021993
  23 H :    0.037206
  24 H :    0.020834
  25 C :   -0.087089
  26 H :    0.042302
  27 H :    0.034252
  28 C :   -0.020000
  29 H :    0.038207
  30 H :    0.019420
  31 H :    0.027402
  32 H :    0.057254
  33 H :    0.036080
Sum of atomic charges:    0.0000000

LOEWDIN ATOMIC CHARGES
----------------------
   0 S :    0.382959
   1 C :   -0.192297
   2 C :   -0.059662
   3 C :   -0.072017
   4 C :   -0.169302
   5 H :    0.029154
   6 C :   -0.037823
   7 H :    0.041443
   8 H :    0.032707
   9 C :   -0.042023
  10 H :    0.024676
  11 H :    0.025610
  12 C :   -0.063010
  13 H :    0.029316
  14 H :    0.016989
  15 H :    0.033561
  16 S :    0.368411
  17 C :   -0.150997
  18 C :   -0.060989
  19 C :   -0.056581
  20 C :   -0.185120
  21 H :    0.044898
  22 C :   -0.050149
  23 H :    0.039482
  24 H :    0.020251
  25 C :   -0.044832
  26 H :    0.017425
  27 H :    0.026057
  28 C :   -0.055047
  29 H :    0.026906
  30 H :    0.012650
  31 H :    0.025466
  32 H :    0.028170
  33 H :    0.013718

  Mayer bond orders larger than 0.100000
B(  0-S ,  1-C ) :   1.1285 B(  0-S ,  4-C ) :   1.1217 B(  1-C ,  2-C ) :   1.5754
B(  1-C ,  4-C ) :   0.1006 B(  1-C , 32-H ) :   0.9687 B(  2-C ,  3-C ) :   1.2480
B(  2-C ,  6-C ) :   1.0234 B(  3-C ,  4-C ) :   1.5849 B(  3-C ,  5-H ) :   0.9851
B(  4-C , 20-C ) :   1.0506 B(  6-C ,  7-H ) :   0.9461 B(  6-C ,  8-H ) :   0.9187
B(  6-C ,  9-C ) :   1.0919 B(  9-C , 10-H ) :   0.9545 B(  9-C , 11-H ) :   0.9594
B(  9-C , 12-C ) :   1.0609 B( 12-C , 13-H ) :   0.9768 B( 12-C , 14-H ) :   0.9747
B( 12-C , 15-H ) :   0.9761 B( 16-S , 17-C ) :   1.1105 B( 16-S , 20-C ) :   1.1255
B( 17-C , 18-C ) :   1.6747 B( 17-C , 33-H ) :   0.9680 B( 18-C , 19-C ) :   1.2024
B( 18-C , 21-H ) :   0.9777 B( 19-C , 20-C ) :   1.6101 B( 19-C , 22-C ) :   1.0350
B( 22-C , 23-H ) :   0.9463 B( 22-C , 24-H ) :   0.9366 B( 22-C , 25-C ) :   1.0489
B( 25-C , 26-H ) :   0.9549 B( 25-C , 27-H ) :   0.9548 B( 25-C , 28-C ) :   1.0602
B( 28-C , 29-H ) :   0.9744 B( 28-C , 30-H ) :   0.9766 B( 28-C , 31-H ) :   0.9749

Dispersion correction           -0.015047771
FINAL SINGLE POINT ENERGY     -1339.851027022859

DIPOLE MOMENT
-------------
                                X             Y             Z
Electronic contribution:      7.64696     -11.94749     -10.60380
Nuclear contribution   :     -7.77853      12.12939      10.70948
                        -----------------------------------------
Total Dipole Moment    :     -0.13157       0.18190       0.10568
                        -----------------------------------------
Magnitude (a.u.)       :      0.24812
Magnitude (Debye)      :      0.63068

Rotational constants in cm-1:     0.018908     0.009175     0.007211
Rotational constants in MHz :   566.850489   275.064738   216.173614

                             ****ORCA TERMINATED NORMALLY****
TOTAL RUN TIME: 0 days 0 hours 0 minutes 32 seconds 142 msec
