                         Program Version 4.2.1 -  RELEASE  -
|  1> ! wB97X-D3 SP def2-SVP
|  2> %pal
|  3> nprocs 16
|  4> end
|  5>
|  6> * xyz 0 1
|  7> S 	 -3.05825 	 -16.7079 	 81.602
|  8> C 	 -4.25999 	 -17.9408 	 81.0439
|  9> C 	 -3.75673 	 -19.2473 	 81.1956
| 10> C 	 -2.40338 	 -19.1996 	 81.6024
| 11> C 	 -1.8694 	 -17.9237 	 81.7468
| 12> H 	 -1.87296 	 -20.0347 	 81.9208
| 13> C 	 -4.52729 	 -20.5266 	 80.7699
| 14> H 	 -5.48709 	 -20.1366 	 80.4917
| 15> H 	 -4.68167 	 -21.0114 	 81.6886
| 16> C 	 -3.73733 	 -21.2621 	 79.6324
| 17> H 	 -4.47404 	 -21.7176 	 78.8667
| 18> H 	 -3.22608 	 -20.5931 	 78.9082
| 19> C 	 -2.77917 	 -22.3727 	 80.0513
| 20> H 	 -3.20781 	 -23.1557 	 80.7668
| 21> H 	 -2.24683 	 -22.8048 	 79.183
| 22> H 	 -1.99699 	 -21.9364 	 80.6543
| 23> S 	 -0.508051 	 -17.4298 	 84.1727
| 24> C 	 1.24538 	 -17.1788 	 84.0517
| 25> C 	 1.63552 	 -17.1529 	 82.7439
| 26> C 	 0.616742 	 -17.3047 	 81.7914
| 27> C 	 -0.610372 	 -17.5797 	 82.4095
| 28> H 	 2.63725 	 -16.8134 	 82.6084
| 29> C 	 0.927345 	 -17.3526 	 80.3082
| 30> H 	 1.39558 	 -16.4541 	 79.9769
| 31> H 	 -0.0310705 	 -17.2623 	 79.8264
| 32> C 	 1.77107 	 -18.6037 	 79.8076
| 33> H 	 2.75102 	 -18.3969 	 80.1459
| 34> H 	 1.93371 	 -18.6394 	 78.7488
| 35> C 	 1.19469 	 -19.9184 	 80.3531
| 36> H 	 1.16763 	 -19.9429 	 81.4116
| 37> H 	 1.88867 	 -20.7551 	 80.0398
| 38> H 	 0.164725 	 -20.1088 	 80.0019
| 39> H 	 -5.27359 	 -17.845 	 80.8282
| 40> H 	 1.85035 	 -17.01 	 84.9273
| 41> *
| 42>
| 43>                          ****END OF INPUT****

CARTESIAN COORDINATES (ANGSTROEM)
---------------------------------
  S     -3.058250  -16.707900   81.602000
  C     -4.259990  -17.940800   81.043900
  C     -3.756730  -19.247300   81.195600
  C     -2.403380  -19.199600   81.602400
  C     -1.869400  -17.923700   81.746800
  H     -1.872960  -20.034700   81.920800
  C     -4.527290  -20.526600   80.769900
  H     -5.487090  -20.136600   80.491700
  H     -4.681670  -21.011400   81.688600
  C     -3.737330  -21.262100   79.632400
  H     -4.474040  -21.717600   78.866700
  H     -3.226080  -20.593100   78.908200
  C     -2.779170  -22.372700   80.051300
  H     -3.207810  -23.155700   80.766800
  H     -2.246830  -22.804800   79.183000
  H     -1.996990  -21.936400   80.654300
  S     -0.508051  -17.429800   84.172700
  C      1.245380  -17.178800   84.051700
  C      1.635520  -17.152900   82.743900
  C      0.616742  -17.304700   81.791400
  C     -0.610372  -17.579700   82.409500
  H      2.637250  -16.813400   82.608400
  C      0.927345  -17.352600   80.308200
  H      1.395580  -16.454100   79.976900
  H     -0.031070  -17.262300   79.826400
  C      1.771070  -18.603700   79.807600
  H      2.751020  -18.396900   80.145900
  H      1.933710  -18.639400   78.748800
  C      1.194690  -19.918400   80.353100
  H      1.167630  -19.942900   81.411600
  H      1.888670  -20.755100   80.039800
  H      0.164725  -20.108800   80.001900
  H     -5.273590  -17.845000   80.828200
  H      1.850350  -17.010000   84.927300

 Total Charge           Charge          ....    0
 Multiplicity           Mult            ....    1
 Number of Electrons    NEL             ....  134
 Basis Dimension        Dim             ....  322

ORBITAL ENERGIES
----------------

  NO   OCC          E(Eh)            E(eV)
   0   2.0000     -88.968479     -2420.9554
   1   2.0000     -88.965208     -2420.8664
   2   2.0000     -10.326884      -281.0088
   3   2.0000     -10.324272      -280.9377
   4   2.0000     -10.316706      -280.7318
   5   2.0000     -10.312088      -280.6062
   6   2.0000     -10.301612      -280.3211
   7   2.0000     -10.301532      -280.3189
   8   2.0000     -10.301227      -280.3106
   9   2.0000     -10.298157      -280.2271
  10   2.0000     -10.287344      -279.9329
  11   2.0000     -10.286459      -279.9088
  12   2.0000     -10.286021      -279.8969
  13   2.0000     -10.285852      -279.8923
  14   2.0000     -10.283701      -279.8337
  15   2.0000     -10.274951      -279.5956
  16   2.0000      -8.082632      -219.9396
  17   2.0000      -8.079281      -219.8484
  18   2.0000      -6.041132      -164.3876
  19   2.0000      -6.037762      -164.2959
  20   2.0000      -6.037203      -164.2806
  21   2.0000      -6.033938      -164.1918
  22   2.0000      -6.033448      -164.1785
  23   2.0000      -6.030062      -164.0863
  24   2.0000      -1.003678       -27.3115
  25   2.0000      -0.980081       -26.6694
  26   2.0000      -0.909061       -24.7368
  27   2.0000      -0.901080       -24.5196
  28   2.0000      -0.865486       -23.5511
  29   2.0000      -0.844725       -22.9861
  30   2.0000      -0.842794       -22.9336
  31   2.0000      -0.815996       -22.2044
  32   2.0000      -0.786536       -21.4027
  33   2.0000      -0.772224       -21.0133
  34   2.0000      -0.709169       -19.2975
  35   2.0000      -0.702537       -19.1170
  36   2.0000      -0.698087       -18.9959
  37   2.0000      -0.655851       -17.8466
  38   2.0000      -0.640029       -17.4161
  39   2.0000      -0.619877       -16.8677
  40   2.0000      -0.593787       -16.1578
  41   2.0000      -0.566151       -15.4058
  42   2.0000      -0.547604       -14.9011
  43   2.0000      -0.545598       -14.8465
  44   2.0000      -0.544147       -14.8070
  45   2.0000      -0.532064       -14.4782
  46   2.0000      -0.520736       -14.1699
  47   2.0000      -0.516936       -14.0665
  48   2.0000      -0.497578       -13.5398
  49   2.0000      -0.492869       -13.4116
  50   2.0000      -0.486481       -13.2378
  51   2.0000      -0.477516       -12.9939
  52   2.0000      -0.464966       -12.6524
  53   2.0000      -0.459367       -12.5000
  54   2.0000      -0.458012       -12.4631
  55   2.0000      -0.450352       -12.2547
  56   2.0000      -0.447007       -12.1637
  57   2.0000      -0.442316       -12.0360
  58   2.0000      -0.429317       -11.6823
  59   2.0000      -0.427250       -11.6261
  60   2.0000      -0.424988       -11.5645
  61   2.0000      -0.415015       -11.2931
  62   2.0000      -0.401701       -10.9308
  63   2.0000      -0.338753        -9.2179
  64   2.0000      -0.328779        -8.9465
  65   2.0000      -0.315315        -8.5802
  66   2.0000      -0.310840        -8.4584
  67   0.0000       0.041967         1.1420
  68   0.0000       0.048704         1.3253
  69   0.0000       0.113572         3.0904
  70   0.0000       0.119840         3.2610
  71   0.0000       0.127782         3.4771

MULLIKEN ATOMIC CHARGES
-----------------------
   0 S :    0.120115
   1 C :   -0.090912
   2 C :   -0.153549
   3 C :    0.058977
   4 C :   -0.172235
   5 H :   -0.010430
   6 C :    0.149325
   7 H :    0.006773
   8 H :    0.031784
   9 C :   -0.106017
  10 H :    0.035178
  11 H :    0.044522
  12 C :   -0.057602
  13 H :    0.045327
  14 H :    0.045079
  15 H :    0.016745
  16 S :    0.111286
  17 C :   -0.109958
  18 C :   -0.012399
  19 C :   -0.039210
  20 C :   -0.183429
  21 H :    0.011917
  22 C :    0.099455
  23 H :    0.017005
  24 H :    0.016209
  25 C :   -0.039613
  26 H :    0.011472
  27 H :    0.025400
  28 C :   -0.059291
  29 H :    0.037378
  30 H :    0.035724
  31 H :    0.039435
  32 H :    0.017603
  33 H :    0.057937
Sum of atomic charges:    0.0000000

LOEWDIN ATOMIC CHARGES
----------------------
   0 S :    0.414294
   1 C :   -0.185517
   2 C :   -0.051836
   3 C :   -0.056654
   4 C :   -0.210111
   5 H :    0.017657
   6 C :   -0.016633
   7 H :    0.029056
   8 H :    0.029716
   9 C :   -0.050842
  10 H :    0.031246
  11 H :    0.033403
  12 C :   -0.075099
  13 H :    0.033950
  14 H :    0.033890
  15 H :    0.017274
  16 S :    0.385509
  17 C :   -0.169461
  18 C :   -0.073890
  19 C :   -0.052538
  20 C :   -0.200973
  21 H :    0.029743
  22 C :   -0.027894
  23 H :    0.027400
  24 H :    0.026400
  25 C :   -0.031280
  26 H :    0.016394
  27 H :    0.023487
  28 C :   -0.065538
  29 H :    0.019746
  30 H :    0.031922
  31 H :    0.026874
  32 H :    0.012540
  33 H :    0.027767

  Mayer bond orders larger than 0.100000
B(  0-S ,  1-C ) :   1.1366 B(  0-S ,  4-C ) :   1.1686 B(  1-C ,  2-C ) :   1.6128
B(  1-C ,  4-C ) :   0.1021 B(  1-C , 32-H ) :   0.9660 B(  2-C ,  3-C ) :   1.2551
B(  2-C ,  6-C ) :   1.0084 B(  3-C ,  4-C ) :   1.5694 B(  3-C ,  5-H ) :   0.9995
B(  4-C , 20-C ) :   1.0122 B(  6-C ,  7-H ) :   0.9370 B(  6-C ,  8-H ) :   0.9428
B(  6-C ,  9-C ) :   1.0336 B(  9-C , 10-H ) :   0.9579 B(  9-C , 11-H ) :   0.9600
B(  9-C , 12-C ) :   1.0750 B( 12-C , 13-H ) :   0.9734 B( 12-C , 14-H ) :   0.9685
B( 12-C , 15-H ) :   0.9728 B( 16-S , 17-C ) :   1.1448 B( 16-S , 20-C ) :   1.1494
B( 17-C , 18-C ) :   1.6214 B( 17-C , 20-C ) :   0.1004 B( 17-C , 33-H ) :   0.9690
B( 18-C , 19-C ) :   1.2314 B( 18-C , 21-H ) :   0.9922 B( 19-C , 20-C ) :   1.5835
B( 19-C , 22-C ) :   1.0551 B( 22-C , 23-H ) :   0.9347 B( 22-C , 24-H ) :   0.9236
B( 22-C , 25-C ) :   1.0546 B( 25-C , 26-H ) :   0.9533 B( 25-C , 27-H ) :   0.9579
B( 25-C , 28-C ) :   1.0780 B( 28-C , 29-H ) :   0.9716 B( 28-C , 30-H ) :   0.9718
B( 28-C , 31-H ) :   0.9747

Dispersion correction           -0.016128578
FINAL SINGLE POINT ENERGY     -1339.862464668876

DIPOLE MOMENT
-------------
                                X             Y             Z
Electronic contribution:     -4.69054      21.01151      16.94498
Nuclear contribution   :      4.86347     -21.38342     -17.17071
                        -----------------------------------------
Total Dipole Moment    :      0.17293      -0.37192      -0.22574
                        -----------------------------------------
Magnitude (a.u.)       :      0.46817
Magnitude (Debye)      :      1.18999

Rotational constants in cm-1:     0.018312     0.009896     0.007859
Rotational constants in MHz :   548.993302   296.671239   235.616645

                             ****ORCA TERMINATED NORMALLY****
TOTAL RUN TIME: 0 days 0 hours 0 minutes 34 seconds 156 msec
