                         Program Version 4.2.1 -  RELEASE  -
|  1> ! wB97X-D3 SP def2-SVP
|  2> %pal
|  3> nprocs 16
|  4> end
|  5>
|  6> * xyz 0 1
|  7> S 	 -15.5337 	 -7.00396 	 87.1858
|  8> C 	 -15.0445 	 -5.72771 	 86.1173
|  9> C 	 -14.4074 	 -4.7274 	 86.7786
| 10> C 	 -14.3818 	 -4.96695 	 88.2382
| 11> C 	 -15.1081 	 -6.06365 	 88.604
| 12> H 	 -13.7924 	 -4.40599 	 88.9487
| 13> C 	 -13.9709 	 -3.44735 	 86.2161
| 14> H 	 -13.3373 	 -3.03771 	 87.0098
| 15> H 	 -14.8455 	 -2.82653 	 86.1828
| 16> C 	 -13.2296 	 -3.50934 	 84.8351
| 17> H 	 -12.2485 	 -3.92448 	 84.9505
| 18> H 	 -13.7465 	 -4.28141 	 84.1748
| 19> C 	 -13.0301 	 -2.12423 	 84.2042
| 20> H 	 -13.9442 	 -1.84868 	 83.6596
| 21> H 	 -12.7717 	 -1.38239 	 84.975
| 22> H 	 -12.2766 	 -2.20831 	 83.4346
| 23> S 	 -14.4149 	 -8.07928 	 90.5002
| 24> C 	 -15.3986 	 -8.29836 	 91.8978
| 25> C 	 -16.2888 	 -7.2644 	 92.0464
| 26> C 	 -16.2506 	 -6.37362 	 90.9254
| 27> C 	 -15.3201 	 -6.66302 	 89.9464
| 28> H 	 -16.9743 	 -7.30084 	 92.849
| 29> C 	 -17.2234 	 -5.22827 	 90.7335
| 30> H 	 -18.1988 	 -5.58514 	 91.23
| 31> H 	 -17.4781 	 -4.92435 	 89.7266
| 32> C 	 -16.6976 	 -3.95317 	 91.4222
| 33> H 	 -15.8384 	 -3.54573 	 90.9219
| 34> H 	 -16.42 	 -4.23876 	 92.4382
| 35> C 	 -17.7455 	 -2.89145 	 91.4011
| 36> H 	 -17.4621 	 -2.0298 	 92.0601
| 37> H 	 -18.6857 	 -3.29359 	 91.7235
| 38> H 	 -18.0607 	 -2.36814 	 90.4642
| 39> H 	 -15.4596 	 -5.68644 	 85.1286
| 40> H 	 -15.2459 	 -8.95787 	 92.7554
| 41> *
| 42>
| 43>                          ****END OF INPUT****

CARTESIAN COORDINATES (ANGSTROEM)
---------------------------------
  S    -15.533700   -7.003960   87.185800
  C    -15.044500   -5.727710   86.117300
  C    -14.407400   -4.727400   86.778600
  C    -14.381800   -4.966950   88.238200
  C    -15.108100   -6.063650   88.604000
  H    -13.792400   -4.405990   88.948700
  C    -13.970900   -3.447350   86.216100
  H    -13.337300   -3.037710   87.009800
  H    -14.845500   -2.826530   86.182800
  C    -13.229600   -3.509340   84.835100
  H    -12.248500   -3.924480   84.950500
  H    -13.746500   -4.281410   84.174800
  C    -13.030100   -2.124230   84.204200
  H    -13.944200   -1.848680   83.659600
  H    -12.771700   -1.382390   84.975000
  H    -12.276600   -2.208310   83.434600
  S    -14.414900   -8.079280   90.500200
  C    -15.398600   -8.298360   91.897800
  C    -16.288800   -7.264400   92.046400
  C    -16.250600   -6.373620   90.925400
  C    -15.320100   -6.663020   89.946400
  H    -16.974300   -7.300840   92.849000
  C    -17.223400   -5.228270   90.733500
  H    -18.198800   -5.585140   91.230000
  H    -17.478100   -4.924350   89.726600
  C    -16.697600   -3.953170   91.422200
  H    -15.838400   -3.545730   90.921900
  H    -16.420000   -4.238760   92.438200
  C    -17.745500   -2.891450   91.401100
  H    -17.462100   -2.029800   92.060100
  H    -18.685700   -3.293590   91.723500
  H    -18.060700   -2.368140   90.464200
  H    -15.459600   -5.686440   85.128600
  H    -15.245900   -8.957870   92.755400

 Total Charge           Charge          ....    0
 Multiplicity           Mult            ....    1
 Number of Electrons    NEL             ....  134
 Basis Dimension        Dim             ....  322

ORBITAL ENERGIES
----------------

  NO   OCC          E(Eh)            E(eV)
   0   2.0000     -88.963189     -2420.8115
   1   2.0000     -88.959800     -2420.7192
   2   2.0000     -10.332363      -281.1579
   3   2.0000     -10.325821      -280.9799
   4   2.0000     -10.316008      -280.7129
   5   2.0000     -10.308366      -280.5049
   6   2.0000     -10.301857      -280.3278
   7   2.0000     -10.299766      -280.2709
   8   2.0000     -10.299119      -280.2533
   9   2.0000     -10.292581      -280.0754
  10   2.0000     -10.290626      -280.0222
  11   2.0000     -10.290394      -280.0159
  12   2.0000     -10.290046      -280.0064
  13   2.0000     -10.281660      -279.7782
  14   2.0000     -10.280245      -279.7397
  15   2.0000     -10.274903      -279.5943
  16   2.0000      -8.078019      -219.8141
  17   2.0000      -8.075290      -219.7398
  18   2.0000      -6.036544      -164.2627
  19   2.0000      -6.033911      -164.1911
  20   2.0000      -6.032375      -164.1493
  21   2.0000      -6.029741      -164.0776
  22   2.0000      -6.028875      -164.0540
  23   2.0000      -6.025818      -163.9709
  24   2.0000      -1.006539       -27.3893
  25   2.0000      -0.987619       -26.8745
  26   2.0000      -0.912901       -24.8413
  27   2.0000      -0.910605       -24.7788
  28   2.0000      -0.869324       -23.6555
  29   2.0000      -0.850940       -23.1553
  30   2.0000      -0.847650       -23.0657
  31   2.0000      -0.820986       -22.3402
  32   2.0000      -0.778985       -21.1973
  33   2.0000      -0.765605       -20.8332
  34   2.0000      -0.709088       -19.2953
  35   2.0000      -0.699542       -19.0355
  36   2.0000      -0.692207       -18.8359
  37   2.0000      -0.658654       -17.9229
  38   2.0000      -0.646707       -17.5978
  39   2.0000      -0.617354       -16.7991
  40   2.0000      -0.595927       -16.2160
  41   2.0000      -0.575365       -15.6565
  42   2.0000      -0.564202       -15.3527
  43   2.0000      -0.557528       -15.1711
  44   2.0000      -0.534828       -14.5534
  45   2.0000      -0.523945       -14.2573
  46   2.0000      -0.514041       -13.9878
  47   2.0000      -0.510780       -13.8990
  48   2.0000      -0.506687       -13.7876
  49   2.0000      -0.504764       -13.7353
  50   2.0000      -0.501360       -13.6427
  51   2.0000      -0.480990       -13.0884
  52   2.0000      -0.470382       -12.7997
  53   2.0000      -0.459024       -12.4907
  54   2.0000      -0.453865       -12.3503
  55   2.0000      -0.451062       -12.2740
  56   2.0000      -0.446445       -12.1484
  57   2.0000      -0.434814       -11.8319
  58   2.0000      -0.433017       -11.7830
  59   2.0000      -0.423728       -11.5302
  60   2.0000      -0.421480       -11.4690
  61   2.0000      -0.416911       -11.3447
  62   2.0000      -0.399979       -10.8840
  63   2.0000      -0.338972        -9.2239
  64   2.0000      -0.328925        -8.9505
  65   2.0000      -0.322487        -8.7753
  66   2.0000      -0.307525        -8.3682
  67   0.0000       0.043116         1.1732
  68   0.0000       0.055059         1.4982
  69   0.0000       0.115821         3.1516
  70   0.0000       0.126583         3.4445
  71   0.0000       0.130262         3.5446

MULLIKEN ATOMIC CHARGES
-----------------------
   0 S :    0.105002
   1 C :   -0.132537
   2 C :   -0.096788
   3 C :    0.041324
   4 C :   -0.159005
   5 H :    0.020876
   6 C :    0.076636
   7 H :    0.019071
   8 H :    0.039709
   9 C :   -0.108850
  10 H :    0.027503
  11 H :    0.036336
  12 C :   -0.034582
  13 H :    0.034418
  14 H :    0.043297
  15 H :    0.030858
  16 S :    0.108868
  17 C :   -0.087828
  18 C :   -0.029419
  19 C :   -0.018503
  20 C :   -0.164888
  21 H :    0.006358
  22 C :    0.023634
  23 H :    0.030751
  24 H :    0.031721
  25 C :   -0.035597
  26 H :    0.022406
  27 H :    0.024710
  28 C :   -0.051601
  29 H :    0.034209
  30 H :    0.009973
  31 H :    0.031363
  32 H :    0.056925
  33 H :    0.063651
Sum of atomic charges:    0.0000000

LOEWDIN ATOMIC CHARGES
----------------------
   0 S :    0.403262
   1 C :   -0.198843
   2 C :   -0.063716
   3 C :   -0.055943
   4 C :   -0.186061
   5 H :    0.031564
   6 C :   -0.036400
   7 H :    0.031869
   8 H :    0.034334
   9 C :   -0.041942
  10 H :    0.022080
  11 H :    0.028550
  12 C :   -0.064767
  13 H :    0.027015
  14 H :    0.030227
  15 H :    0.025400
  16 S :    0.406854
  17 C :   -0.191490
  18 C :   -0.074879
  19 C :   -0.052932
  20 C :   -0.205898
  21 H :    0.026193
  22 C :   -0.031108
  23 H :    0.034436
  24 H :    0.027927
  25 C :   -0.036840
  26 H :    0.022080
  27 H :    0.024927
  28 C :   -0.076071
  29 H :    0.030063
  30 H :    0.017068
  31 H :    0.029096
  32 H :    0.025971
  33 H :    0.037976

  Mayer bond orders larger than 0.100000
B(  0-S ,  1-C ) :   1.1270 B(  0-S ,  4-C ) :   1.1503 B(  1-C ,  2-C ) :   1.6395
B(  1-C , 32-H ) :   0.9667 B(  2-C ,  3-C ) :   1.2021 B(  2-C ,  6-C ) :   1.0272
B(  3-C ,  4-C ) :   1.6259 B(  3-C ,  5-H ) :   0.9886 B(  4-C , 20-C ) :   0.9997
B(  6-C ,  7-H ) :   0.9328 B(  6-C ,  8-H ) :   0.9364 B(  6-C ,  9-C ) :   1.0521
B(  9-C , 10-H ) :   0.9592 B(  9-C , 11-H ) :   0.9599 B(  9-C , 12-C ) :   1.0761
B( 12-C , 13-H ) :   0.9765 B( 12-C , 14-H ) :   0.9729 B( 12-C , 15-H ) :   0.9757
B( 16-S , 17-C ) :   1.1725 B( 16-S , 20-C ) :   1.1284 B( 17-C , 18-C ) :   1.6110
B( 17-C , 33-H ) :   0.9581 B( 18-C , 19-C ) :   1.2458 B( 18-C , 21-H ) :   0.9974
B( 19-C , 20-C ) :   1.6133 B( 19-C , 22-C ) :   1.0434 B( 22-C , 23-H ) :   0.9396
B( 22-C , 24-H ) :   0.9371 B( 22-C , 25-C ) :   1.0676 B( 25-C , 26-H ) :   0.9490
B( 25-C , 27-H ) :   0.9534 B( 25-C , 28-C ) :   1.0886 B( 28-C , 29-H ) :   0.9714
B( 28-C , 30-H ) :   0.9706 B( 28-C , 31-H ) :   0.9717

Dispersion correction           -0.013786584
FINAL SINGLE POINT ENERGY     -1339.876946465540

DIPOLE MOMENT
-------------
                                X             Y             Z
Electronic contribution:      2.61860     -27.26787       5.36783
Nuclear contribution   :     -2.71218      27.90120      -5.34155
                        -----------------------------------------
Total Dipole Moment    :     -0.09358       0.63333       0.02628
                        -----------------------------------------
Magnitude (a.u.)       :      0.64074
Magnitude (Debye)      :      1.62864

Rotational constants in cm-1:     0.020232     0.007630     0.006127
Rotational constants in MHz :   606.552289   228.755242   183.674545

                             ****ORCA TERMINATED NORMALLY****
TOTAL RUN TIME: 0 days 0 hours 0 minutes 33 seconds 287 msec
