                         Program Version 4.2.1 -  RELEASE  -
|  1> ! wB97X-D3 SP def2-SVP
|  2> %pal
|  3> nprocs 16
|  4> end
|  5>
|  6> * xyz 0 1
|  7> S 	 -10.3495 	 31.5352 	 34.1548
|  8> C 	 -9.61664 	 31.8614 	 32.6352
|  9> C 	 -10.2037 	 32.8774 	 31.9046
| 10> C 	 -11.3549 	 33.3856 	 32.6157
| 11> C 	 -11.4976 	 32.8041 	 33.7992
| 12> H 	 -12.1138 	 34.0706 	 32.3457
| 13> C 	 -9.79533 	 33.3745 	 30.4915
| 14> H 	 -10.4307 	 32.7515 	 29.8425
| 15> H 	 -8.729 	 33.0689 	 30.387
| 16> C 	 -9.87502 	 34.8311 	 30.2865
| 17> H 	 -10.9167 	 35.2676 	 30.1842
| 18> H 	 -9.35227 	 35.1971 	 31.2013
| 19> C 	 -9.02548 	 35.2582 	 29.1038
| 20> H 	 -8.92274 	 36.3047 	 29.0048
| 21> H 	 -8.05901 	 34.8457 	 29.2949
| 22> H 	 -9.50001 	 34.853 	 28.1725
| 23> S 	 -12.6443 	 34.5571 	 35.6799
| 24> C 	 -14.035 	 33.8645 	 36.5621
| 25> C 	 -14.4738 	 32.6761 	 36.0911
| 26> C 	 -13.5674 	 32.1452 	 35.1401
| 27> C 	 -12.6035 	 33.0295 	 34.7497
| 28> H 	 -15.3034 	 32.2373 	 36.5377
| 29> C 	 -13.7626 	 30.7634 	 34.5902
| 30> H 	 -14.0931 	 30.1463 	 35.4421
| 31> H 	 -12.8535 	 30.2734 	 34.2406
| 32> C 	 -14.8202 	 30.8012 	 33.4403
| 33> H 	 -14.756 	 29.8292 	 32.9425
| 34> H 	 -14.4777 	 31.4437 	 32.6153
| 35> C 	 -16.2724 	 31.0767 	 33.9548
| 36> H 	 -16.6423 	 30.3199 	 34.6155
| 37> H 	 -16.9545 	 31.0338 	 33.1008
| 38> H 	 -16.4145 	 31.9337 	 34.514
| 39> H 	 -8.77258 	 31.2934 	 32.3002
| 40> H 	 -14.5698 	 34.3905 	 37.3118
| 41> *
| 42>
| 43>                          ****END OF INPUT****

CARTESIAN COORDINATES (ANGSTROEM)
---------------------------------
  S    -10.349500   31.535200   34.154800
  C     -9.616640   31.861400   32.635200
  C    -10.203700   32.877400   31.904600
  C    -11.354900   33.385600   32.615700
  C    -11.497600   32.804100   33.799200
  H    -12.113800   34.070600   32.345700
  C     -9.795330   33.374500   30.491500
  H    -10.430700   32.751500   29.842500
  H     -8.729000   33.068900   30.387000
  C     -9.875020   34.831100   30.286500
  H    -10.916700   35.267600   30.184200
  H     -9.352270   35.197100   31.201300
  C     -9.025480   35.258200   29.103800
  H     -8.922740   36.304700   29.004800
  H     -8.059010   34.845700   29.294900
  H     -9.500010   34.853000   28.172500
  S    -12.644300   34.557100   35.679900
  C    -14.035000   33.864500   36.562100
  C    -14.473800   32.676100   36.091100
  C    -13.567400   32.145200   35.140100
  C    -12.603500   33.029500   34.749700
  H    -15.303400   32.237300   36.537700
  C    -13.762600   30.763400   34.590200
  H    -14.093100   30.146300   35.442100
  H    -12.853500   30.273400   34.240600
  C    -14.820200   30.801200   33.440300
  H    -14.756000   29.829200   32.942500
  H    -14.477700   31.443700   32.615300
  C    -16.272400   31.076700   33.954800
  H    -16.642300   30.319900   34.615500
  H    -16.954500   31.033800   33.100800
  H    -16.414500   31.933700   34.514000
  H     -8.772580   31.293400   32.300200
  H    -14.569800   34.390500   37.311800

 Total Charge           Charge          ....    0
 Multiplicity           Mult            ....    1
 Number of Electrons    NEL             ....  134
 Basis Dimension        Dim             ....  322

ORBITAL ENERGIES
----------------

  NO   OCC          E(Eh)            E(eV)
   0   2.0000     -88.963478     -2420.8193
   1   2.0000     -88.963140     -2420.8101
   2   2.0000     -10.319137      -280.7980
   3   2.0000     -10.317588      -280.7558
   4   2.0000     -10.312033      -280.6047
   5   2.0000     -10.307040      -280.4688
   6   2.0000     -10.301639      -280.3218
   7   2.0000     -10.295261      -280.1483
   8   2.0000     -10.294690      -280.1328
   9   2.0000     -10.289332      -279.9869
  10   2.0000     -10.288021      -279.9513
  11   2.0000     -10.287553      -279.9385
  12   2.0000     -10.284614      -279.8586
  13   2.0000     -10.284578      -279.8576
  14   2.0000     -10.274841      -279.5926
  15   2.0000     -10.271143      -279.4920
  16   2.0000      -8.078834      -219.8362
  17   2.0000      -8.076903      -219.7837
  18   2.0000      -6.037166      -164.2796
  19   2.0000      -6.035452      -164.2330
  20   2.0000      -6.033474      -164.1792
  21   2.0000      -6.031791      -164.1334
  22   2.0000      -6.029531      -164.0719
  23   2.0000      -6.027443      -164.0151
  24   2.0000      -1.007645       -27.4194
  25   2.0000      -0.983975       -26.7753
  26   2.0000      -0.920195       -25.0398
  27   2.0000      -0.901927       -24.5427
  28   2.0000      -0.870235       -23.6803
  29   2.0000      -0.852736       -23.2041
  30   2.0000      -0.841551       -22.8998
  31   2.0000      -0.819609       -22.3027
  32   2.0000      -0.784394       -21.3444
  33   2.0000      -0.770772       -20.9738
  34   2.0000      -0.710127       -19.3235
  35   2.0000      -0.696168       -18.9437
  36   2.0000      -0.681165       -18.5354
  37   2.0000      -0.666292       -18.1307
  38   2.0000      -0.646470       -17.5913
  39   2.0000      -0.617382       -16.7998
  40   2.0000      -0.594226       -16.1697
  41   2.0000      -0.582795       -15.8587
  42   2.0000      -0.565247       -15.3811
  43   2.0000      -0.542919       -14.7736
  44   2.0000      -0.539426       -14.6785
  45   2.0000      -0.523818       -14.2538
  46   2.0000      -0.515246       -14.0206
  47   2.0000      -0.511715       -13.9245
  48   2.0000      -0.503054       -13.6888
  49   2.0000      -0.491250       -13.3676
  50   2.0000      -0.485734       -13.2175
  51   2.0000      -0.479948       -13.0600
  52   2.0000      -0.473826       -12.8935
  53   2.0000      -0.465005       -12.6534
  54   2.0000      -0.457373       -12.4458
  55   2.0000      -0.453155       -12.3310
  56   2.0000      -0.442043       -12.0286
  57   2.0000      -0.437908       -11.9161
  58   2.0000      -0.436602       -11.8806
  59   2.0000      -0.427903       -11.6438
  60   2.0000      -0.422206       -11.4888
  61   2.0000      -0.413860       -11.2617
  62   2.0000      -0.409639       -11.1468
  63   2.0000      -0.341297        -9.2872
  64   2.0000      -0.334556        -9.1037
  65   2.0000      -0.322188        -8.7672
  66   2.0000      -0.298990        -8.1359
  67   0.0000       0.046718         1.2713
  68   0.0000       0.068687         1.8691
  69   0.0000       0.109996         2.9931
  70   0.0000       0.115899         3.1538
  71   0.0000       0.134574         3.6619

MULLIKEN ATOMIC CHARGES
-----------------------
   0 S :    0.120609
   1 C :   -0.125887
   2 C :   -0.096870
   3 C :    0.038675
   4 C :   -0.157345
   5 H :   -0.001233
   6 C :    0.086140
   7 H :    0.044000
   8 H :    0.018723
   9 C :   -0.120014
  10 H :    0.048906
  11 H :    0.037913
  12 C :   -0.012021
  13 H :    0.028267
  14 H :    0.019611
  15 H :    0.034283
  16 S :    0.097740
  17 C :   -0.071687
  18 C :   -0.013430
  19 C :   -0.022146
  20 C :   -0.180020
  21 H :   -0.001253
  22 C :    0.064773
  23 H :    0.026083
  24 H :    0.020621
  25 C :   -0.059164
  26 H :    0.023177
  27 H :    0.032317
  28 C :   -0.020595
  29 H :    0.013563
  30 H :    0.032865
  31 H :    0.023379
  32 H :    0.033789
  33 H :    0.036231
Sum of atomic charges:    0.0000000

LOEWDIN ATOMIC CHARGES
----------------------
   0 S :    0.418696
   1 C :   -0.205906
   2 C :   -0.059981
   3 C :   -0.060507
   4 C :   -0.185592
   5 H :    0.030446
   6 C :   -0.032915
   7 H :    0.033660
   8 H :    0.033601
   9 C :   -0.054268
  10 H :    0.030496
  11 H :    0.033413
  12 C :   -0.056251
  13 H :    0.019734
  14 H :    0.020697
  15 H :    0.030190
  16 S :    0.365293
  17 C :   -0.155239
  18 C :   -0.064045
  19 C :   -0.053934
  20 C :   -0.191845
  21 H :    0.024034
  22 C :   -0.034848
  23 H :    0.031298
  24 H :    0.020170
  25 C :   -0.032037
  26 H :    0.023895
  27 H :    0.027697
  28 C :   -0.061637
  29 H :    0.023195
  30 H :    0.030286
  31 H :    0.013588
  32 H :    0.019540
  33 H :    0.019074

  Mayer bond orders larger than 0.100000
B(  0-S ,  1-C ) :   1.1361 B(  0-S ,  4-C ) :   1.1358 B(  1-C ,  2-C ) :   1.6574
B(  1-C , 32-H ) :   0.9683 B(  2-C ,  3-C ) :   1.1740 B(  2-C ,  6-C ) :   1.0080
B(  3-C ,  4-C ) :   1.6569 B(  3-C ,  5-H ) :   0.9970 B(  4-C , 20-C ) :   1.0007
B(  6-C ,  7-H ) :   0.9273 B(  6-C ,  8-H ) :   0.9416 B(  6-C ,  9-C ) :   1.0694
B(  9-C , 10-H ) :   0.9438 B(  9-C , 11-H ) :   0.9569 B(  9-C , 12-C ) :   1.0953
B( 12-C , 13-H ) :   0.9740 B( 12-C , 14-H ) :   0.9731 B( 12-C , 15-H ) :   0.9720
B( 16-S , 17-C ) :   1.1354 B( 16-S , 20-C ) :   1.1136 B( 17-C , 18-C ) :   1.6667
B( 17-C , 33-H ) :   0.9639 B( 18-C , 19-C ) :   1.1927 B( 18-C , 21-H ) :   0.9924
B( 19-C , 20-C ) :   1.6505 B( 19-C , 22-C ) :   1.0492 B( 22-C , 23-H ) :   0.9355
B( 22-C , 24-H ) :   0.9258 B( 22-C , 25-C ) :   1.0727 B( 25-C , 26-H ) :   0.9561
B( 25-C , 27-H ) :   0.9569 B( 25-C , 28-C ) :   1.0692 B( 28-C , 29-H ) :   0.9728
B( 28-C , 30-H ) :   0.9721 B( 28-C , 31-H ) :   0.9727

Dispersion correction           -0.014643692
FINAL SINGLE POINT ENERGY     -1339.874979146680

DIPOLE MOMENT
-------------
                                X             Y             Z
Electronic contribution:      5.57608       1.52921      19.35847
Nuclear contribution   :     -5.82590      -1.70286     -19.74711
                        -----------------------------------------
Total Dipole Moment    :     -0.24982      -0.17365      -0.38864
                        -----------------------------------------
Magnitude (a.u.)       :      0.49357
Magnitude (Debye)      :      1.25455

Rotational constants in cm-1:     0.021132     0.007537     0.007081
Rotational constants in MHz :   633.524333   225.941759   212.275104

                             ****ORCA TERMINATED NORMALLY****
TOTAL RUN TIME: 0 days 0 hours 0 minutes 32 seconds 78 msec
