                         Program Version 4.2.1 -  RELEASE  -
|  1> ! wB97X-D3 SP def2-SVP
|  2> %pal
|  3> nprocs 16
|  4> end
|  5>
|  6> * xyz 0 1
|  7> S 	 -48.407 	 29.6234 	 88.8913
|  8> C 	 -49.9891 	 29.1913 	 89.5082
|  9> C 	 -50.8345 	 30.2343 	 89.5953
| 10> C 	 -50.2467 	 31.3867 	 89.0244
| 11> C 	 -48.9832 	 31.2298 	 88.5011
| 12> H 	 -50.7408 	 32.3604 	 88.9527
| 13> C 	 -52.2694 	 30.1327 	 90.0807
| 14> H 	 -52.7051 	 31.105 	 90.2454
| 15> H 	 -52.2794 	 29.6285 	 91.0623
| 16> C 	 -53.2453 	 29.4719 	 89.0779
| 17> H 	 -53.3977 	 29.9965 	 88.1668
| 18> H 	 -52.8749 	 28.4926 	 88.9266
| 19> C 	 -54.5907 	 29.274 	 89.7806
| 20> H 	 -55.3874 	 28.9284 	 89.1294
| 21> H 	 -54.4455 	 28.5497 	 90.5176
| 22> H 	 -55.1052 	 30.1604 	 90.3571
| 23> S 	 -46.6018 	 31.4703 	 87.2967
| 24> C 	 -45.8917 	 33.0614 	 86.8908
| 25> C 	 -46.7552 	 34.0563 	 87.3663
| 26> C 	 -47.9273 	 33.6104 	 87.989
| 27> C 	 -48.0148 	 32.2343 	 87.9441
| 28> H 	 -46.4745 	 35.0748 	 87.221
| 29> C 	 -48.8535 	 34.5671 	 88.7317
| 30> H 	 -48.2765 	 35.3265 	 89.2549
| 31> H 	 -49.2403 	 33.9583 	 89.5231
| 32> C 	 -50.0371 	 35.2246 	 87.9709
| 33> H 	 -50.6779 	 34.4886 	 87.4729
| 34> H 	 -49.6747 	 35.6578 	 87.1074
| 35> C 	 -50.8463 	 36.2833 	 88.6752
| 36> H 	 -51.9054 	 35.9271 	 88.8257
| 37> H 	 -50.8831 	 37.1282 	 87.9413
| 38> H 	 -50.3969 	 36.6084 	 89.5604
| 39> H 	 -50.2218 	 28.2412 	 89.9726
| 40> H 	 -44.9115 	 33.2332 	 86.5525
| 41> *
| 42>
| 43>                          ****END OF INPUT****

CARTESIAN COORDINATES (ANGSTROEM)
---------------------------------
  S    -48.407000   29.623400   88.891300
  C    -49.989100   29.191300   89.508200
  C    -50.834500   30.234300   89.595300
  C    -50.246700   31.386700   89.024400
  C    -48.983200   31.229800   88.501100
  H    -50.740800   32.360400   88.952700
  C    -52.269400   30.132700   90.080700
  H    -52.705100   31.105000   90.245400
  H    -52.279400   29.628500   91.062300
  C    -53.245300   29.471900   89.077900
  H    -53.397700   29.996500   88.166800
  H    -52.874900   28.492600   88.926600
  C    -54.590700   29.274000   89.780600
  H    -55.387400   28.928400   89.129400
  H    -54.445500   28.549700   90.517600
  H    -55.105200   30.160400   90.357100
  S    -46.601800   31.470300   87.296700
  C    -45.891700   33.061400   86.890800
  C    -46.755200   34.056300   87.366300
  C    -47.927300   33.610400   87.989000
  C    -48.014800   32.234300   87.944100
  H    -46.474500   35.074800   87.221000
  C    -48.853500   34.567100   88.731700
  H    -48.276500   35.326500   89.254900
  H    -49.240300   33.958300   89.523100
  C    -50.037100   35.224600   87.970900
  H    -50.677900   34.488600   87.472900
  H    -49.674700   35.657800   87.107400
  C    -50.846300   36.283300   88.675200
  H    -51.905400   35.927100   88.825700
  H    -50.883100   37.128200   87.941300
  H    -50.396900   36.608400   89.560400
  H    -50.221800   28.241200   89.972600
  H    -44.911500   33.233200   86.552500

 Total Charge           Charge          ....    0
 Multiplicity           Mult            ....    1
 Number of Electrons    NEL             ....  134
 Basis Dimension        Dim             ....  322

ORBITAL ENERGIES
----------------

  NO   OCC          E(Eh)            E(eV)
   0   2.0000     -88.966684     -2420.9065
   1   2.0000     -88.965517     -2420.8748
   2   2.0000     -10.331845      -281.1438
   3   2.0000     -10.331718      -281.1403
   4   2.0000     -10.317409      -280.7510
   5   2.0000     -10.308455      -280.5073
   6   2.0000     -10.302214      -280.3375
   7   2.0000     -10.295231      -280.1475
   8   2.0000     -10.294366      -280.1239
   9   2.0000     -10.292979      -280.0862
  10   2.0000     -10.292572      -280.0751
  11   2.0000     -10.292030      -280.0604
  12   2.0000     -10.283968      -279.8410
  13   2.0000     -10.280446      -279.7452
  14   2.0000     -10.279627      -279.7229
  15   2.0000     -10.278510      -279.6925
  16   2.0000      -8.081187      -219.9003
  17   2.0000      -8.080268      -219.8753
  18   2.0000      -6.039690      -164.3483
  19   2.0000      -6.038834      -164.3250
  20   2.0000      -6.035772      -164.2417
  21   2.0000      -6.034903      -164.2181
  22   2.0000      -6.031931      -164.1372
  23   2.0000      -6.030843      -164.1076
  24   2.0000      -1.010409       -27.4946
  25   2.0000      -0.987225       -26.8638
  26   2.0000      -0.915490       -24.9117
  27   2.0000      -0.909456       -24.7475
  28   2.0000      -0.871185       -23.7062
  29   2.0000      -0.857761       -23.3409
  30   2.0000      -0.844981       -22.9931
  31   2.0000      -0.816702       -22.2236
  32   2.0000      -0.782319       -21.2880
  33   2.0000      -0.774263       -21.0688
  34   2.0000      -0.707438       -19.2504
  35   2.0000      -0.705386       -19.1945
  36   2.0000      -0.698362       -19.0034
  37   2.0000      -0.671115       -18.2620
  38   2.0000      -0.639069       -17.3899
  39   2.0000      -0.621053       -16.8997
  40   2.0000      -0.598008       -16.2726
  41   2.0000      -0.577936       -15.7264
  42   2.0000      -0.565322       -15.3832
  43   2.0000      -0.559615       -15.2279
  44   2.0000      -0.534408       -14.5420
  45   2.0000      -0.524015       -14.2592
  46   2.0000      -0.519796       -14.1444
  47   2.0000      -0.509971       -13.8770
  48   2.0000      -0.505960       -13.7679
  49   2.0000      -0.497796       -13.5457
  50   2.0000      -0.493148       -13.4192
  51   2.0000      -0.479980       -13.0609
  52   2.0000      -0.473756       -12.8916
  53   2.0000      -0.463316       -12.6075
  54   2.0000      -0.459029       -12.4908
  55   2.0000      -0.449154       -12.2221
  56   2.0000      -0.448642       -12.2082
  57   2.0000      -0.443385       -12.0651
  58   2.0000      -0.441052       -12.0016
  59   2.0000      -0.432525       -11.7696
  60   2.0000      -0.417823       -11.3696
  61   2.0000      -0.415938       -11.3183
  62   2.0000      -0.404910       -11.0182
  63   2.0000      -0.357867        -9.7381
  64   2.0000      -0.338200        -9.2029
  65   2.0000      -0.329207        -8.9582
  66   2.0000      -0.285711        -7.7746
  67   0.0000       0.020703         0.5633
  68   0.0000       0.079747         2.1700
  69   0.0000       0.093692         2.5495
  70   0.0000       0.128598         3.4993
  71   0.0000       0.130618         3.5543

MULLIKEN ATOMIC CHARGES
-----------------------
   0 S :    0.091123
   1 C :   -0.117765
   2 C :   -0.051215
   3 C :   -0.026458
   4 C :   -0.084680
   5 H :    0.007098
   6 C :    0.038465
   7 H :    0.012151
   8 H :    0.033462
   9 C :   -0.010483
  10 H :    0.034595
  11 H :    0.018140
  12 C :   -0.074391
  13 H :    0.033924
  14 H :    0.013282
  15 H :    0.035277
  16 S :    0.079925
  17 C :   -0.074127
  18 C :   -0.031566
  19 C :   -0.053830
  20 C :   -0.116714
  21 H :    0.007802
  22 C :    0.076475
  23 H :    0.019416
  24 H :    0.014928
  25 C :   -0.045060
  26 H :    0.016361
  27 H :   -0.004993
  28 C :   -0.028901
  29 H :    0.045120
  30 H :    0.035214
  31 H :    0.022245
  32 H :    0.041304
  33 H :    0.043877
Sum of atomic charges:    0.0000000

LOEWDIN ATOMIC CHARGES
----------------------
   0 S :    0.394213
   1 C :   -0.189226
   2 C :   -0.068940
   3 C :   -0.071705
   4 C :   -0.185956
   5 H :    0.030799
   6 C :   -0.026646
   7 H :    0.026241
   8 H :    0.034567
   9 C :   -0.024043
  10 H :    0.023195
  11 H :    0.020984
  12 C :   -0.071886
  13 H :    0.024302
  14 H :    0.014026
  15 H :    0.032636
  16 S :    0.397637
  17 C :   -0.172831
  18 C :   -0.058531
  19 C :   -0.065864
  20 C :   -0.184412
  21 H :    0.027058
  22 C :   -0.025724
  23 H :    0.030881
  24 H :    0.025855
  25 C :   -0.048694
  26 H :    0.025891
  27 H :    0.013340
  28 C :   -0.061392
  29 H :    0.034810
  30 H :    0.035684
  31 H :    0.016088
  32 H :    0.026792
  33 H :    0.020852

  Mayer bond orders larger than 0.100000
B(  0-S ,  1-C ) :   1.1298 B(  0-S ,  4-C ) :   1.1445 B(  1-C ,  2-C ) :   1.6315
B(  1-C , 32-H ) :   0.9646 B(  2-C ,  3-C ) :   1.2507 B(  2-C ,  6-C ) :   1.0186
B(  3-C ,  4-C ) :   1.5899 B(  3-C ,  5-H ) :   0.9925 B(  4-C , 20-C ) :   1.0309
B(  6-C ,  7-H ) :   0.9412 B(  6-C ,  8-H ) :   0.9424 B(  6-C ,  9-C ) :   1.0676
B(  9-C , 10-H ) :   0.9600 B(  9-C , 11-H ) :   0.9536 B(  9-C , 12-C ) :   1.0728
B( 12-C , 13-H ) :   0.9739 B( 12-C , 14-H ) :   0.9769 B( 12-C , 15-H ) :   0.9742
B( 16-S , 17-C ) :   1.1395 B( 16-S , 20-C ) :   1.1550 B( 17-C , 18-C ) :   1.5959
B( 17-C , 20-C ) :   0.1044 B( 17-C , 33-H ) :   0.9772 B( 18-C , 19-C ) :   1.2615
B( 18-C , 21-H ) :   0.9925 B( 19-C , 20-C ) :   1.5823 B( 19-C , 22-C ) :   1.0282
B( 22-C , 23-H ) :   0.9331 B( 22-C , 24-H ) :   0.9305 B( 22-C , 25-C ) :   1.0634
B( 25-C , 26-H ) :   0.9470 B( 25-C , 27-H ) :   0.9569 B( 25-C , 28-C ) :   1.0676
B( 28-C , 29-H ) :   0.9778 B( 28-C , 30-H ) :   0.9811 B( 28-C , 31-H ) :   0.9770

Dispersion correction           -0.013430744
FINAL SINGLE POINT ENERGY     -1339.865190081812

DIPOLE MOMENT
-------------
                                X             Y             Z
Electronic contribution:     28.72029     -12.04460      -6.58001
Nuclear contribution   :    -29.18080      12.48235       6.82912
                        -----------------------------------------
Total Dipole Moment    :     -0.46051       0.43775       0.24910
                        -----------------------------------------
Magnitude (a.u.)       :      0.68246
Magnitude (Debye)      :      1.73468

Rotational constants in cm-1:     0.017622     0.008573     0.005999
Rotational constants in MHz :   528.292150   257.016816   179.847262

                             ****ORCA TERMINATED NORMALLY****
TOTAL RUN TIME: 0 days 0 hours 0 minutes 28 seconds 474 msec
