                         Program Version 4.2.1 -  RELEASE  -
|  1> ! wB97X-D3 SP def2-SVP
|  2> %pal
|  3> nprocs 16
|  4> end
|  5>
|  6> * xyz 0 1
|  7> S 	 44.3704 	 15.6219 	 51.7403
|  8> C 	 45.2012 	 15.3772 	 53.2367
|  9> C 	 44.4729 	 14.5707 	 54.0766
| 10> C 	 43.3952 	 13.9622 	 53.4355
| 11> C 	 43.2604 	 14.3025 	 52.1056
| 12> H 	 42.6645 	 13.2114 	 53.7872
| 13> C 	 44.8576 	 14.1877 	 55.4378
| 14> H 	 43.9037 	 14.2923 	 55.9777
| 15> H 	 45.5313 	 15.0028 	 55.7828
| 16> C 	 45.3518 	 12.7011 	 55.5695
| 17> H 	 44.5879 	 12.0917 	 55.1839
| 18> H 	 46.0143 	 12.5278 	 54.7638
| 19> C 	 45.8601 	 12.3111 	 56.9532
| 20> H 	 46.6587 	 13.078 	 57.2324
| 21> H 	 45.1346 	 12.2781 	 57.7401
| 22> H 	 46.3445 	 11.3716 	 56.9955
| 23> S 	 40.6489 	 14.5006 	 51.0183
| 24> C 	 40.1589 	 13.2977 	 49.8599
| 25> C 	 41.1088 	 12.3418 	 49.7267
| 26> C 	 42.326 	 12.666 	 50.4261
| 27> C 	 42.26 	 13.7768 	 51.1151
| 28> H 	 40.8831 	 11.532 	 49.0886
| 29> C 	 43.528 	 11.7237 	 50.2319
| 30> H 	 44.3946 	 12.2358 	 50.3934
| 31> H 	 43.4379 	 11.3952 	 49.2042
| 32> C 	 43.5781 	 10.6088 	 51.3153
| 33> H 	 43.4238 	 11.0491 	 52.2837
| 34> H 	 44.5344 	 10.1041 	 51.2425
| 35> C 	 42.5591 	 9.44052 	 51.0382
| 36> H 	 42.8173 	 8.56003 	 51.6036
| 37> H 	 42.56 	 9.14909 	 50.0126
| 38> H 	 41.5648 	 9.76466 	 51.3074
| 39> H 	 46.0496 	 16.0169 	 53.6153
| 40> H 	 39.1943 	 13.3193 	 49.3055
| 41> *
| 42>
| 43>                          ****END OF INPUT****

CARTESIAN COORDINATES (ANGSTROEM)
---------------------------------
  S     44.370400   15.621900   51.740300
  C     45.201200   15.377200   53.236700
  C     44.472900   14.570700   54.076600
  C     43.395200   13.962200   53.435500
  C     43.260400   14.302500   52.105600
  H     42.664500   13.211400   53.787200
  C     44.857600   14.187700   55.437800
  H     43.903700   14.292300   55.977700
  H     45.531300   15.002800   55.782800
  C     45.351800   12.701100   55.569500
  H     44.587900   12.091700   55.183900
  H     46.014300   12.527800   54.763800
  C     45.860100   12.311100   56.953200
  H     46.658700   13.078000   57.232400
  H     45.134600   12.278100   57.740100
  H     46.344500   11.371600   56.995500
  S     40.648900   14.500600   51.018300
  C     40.158900   13.297700   49.859900
  C     41.108800   12.341800   49.726700
  C     42.326000   12.666000   50.426100
  C     42.260000   13.776800   51.115100
  H     40.883100   11.532000   49.088600
  C     43.528000   11.723700   50.231900
  H     44.394600   12.235800   50.393400
  H     43.437900   11.395200   49.204200
  C     43.578100   10.608800   51.315300
  H     43.423800   11.049100   52.283700
  H     44.534400   10.104100   51.242500
  C     42.559100    9.440520   51.038200
  H     42.817300    8.560030   51.603600
  H     42.560000    9.149090   50.012600
  H     41.564800    9.764660   51.307400
  H     46.049600   16.016900   53.615300
  H     39.194300   13.319300   49.305500

 Total Charge           Charge          ....    0
 Multiplicity           Mult            ....    1
 Number of Electrons    NEL             ....  134
 Basis Dimension        Dim             ....  322

ORBITAL ENERGIES
----------------

  NO   OCC          E(Eh)            E(eV)
   0   2.0000     -88.964741     -2420.8537
   1   2.0000     -88.959253     -2420.7043
   2   2.0000     -10.329823      -281.0888
   3   2.0000     -10.320317      -280.8301
   4   2.0000     -10.317372      -280.7500
   5   2.0000     -10.314224      -280.6643
   6   2.0000     -10.295797      -280.1629
   7   2.0000     -10.292972      -280.0860
   8   2.0000     -10.292547      -280.0744
   9   2.0000     -10.291412      -280.0436
  10   2.0000     -10.286872      -279.9200
  11   2.0000     -10.286316      -279.9049
  12   2.0000     -10.283531      -279.8291
  13   2.0000     -10.283361      -279.8245
  14   2.0000     -10.280858      -279.7564
  15   2.0000     -10.271555      -279.5032
  16   2.0000      -8.079583      -219.8566
  17   2.0000      -8.074523      -219.7190
  18   2.0000      -6.037915      -164.3000
  19   2.0000      -6.034153      -164.1976
  20   2.0000      -6.033189      -164.1714
  21   2.0000      -6.030445      -164.0968
  22   2.0000      -6.029052      -164.0589
  23   2.0000      -6.024980      -163.9480
  24   2.0000      -1.010560       -27.4987
  25   2.0000      -0.992800       -27.0155
  26   2.0000      -0.912904       -24.8414
  27   2.0000      -0.905189       -24.6314
  28   2.0000      -0.868562       -23.6348
  29   2.0000      -0.852372       -23.1942
  30   2.0000      -0.843804       -22.9611
  31   2.0000      -0.819153       -22.2903
  32   2.0000      -0.785432       -21.3727
  33   2.0000      -0.773478       -21.0474
  34   2.0000      -0.717276       -19.5181
  35   2.0000      -0.704530       -19.1712
  36   2.0000      -0.689720       -18.7682
  37   2.0000      -0.662601       -18.0303
  38   2.0000      -0.641514       -17.4565
  39   2.0000      -0.617722       -16.8091
  40   2.0000      -0.594826       -16.1860
  41   2.0000      -0.570779       -15.5317
  42   2.0000      -0.556669       -15.1477
  43   2.0000      -0.552096       -15.0233
  44   2.0000      -0.541230       -14.7276
  45   2.0000      -0.526368       -14.3232
  46   2.0000      -0.521533       -14.1916
  47   2.0000      -0.508788       -13.8448
  48   2.0000      -0.506659       -13.7869
  49   2.0000      -0.500507       -13.6195
  50   2.0000      -0.491516       -13.3748
  51   2.0000      -0.477976       -13.0064
  52   2.0000      -0.473501       -12.8846
  53   2.0000      -0.466115       -12.6836
  54   2.0000      -0.460331       -12.5262
  55   2.0000      -0.450359       -12.2549
  56   2.0000      -0.447097       -12.1661
  57   2.0000      -0.438922       -11.9437
  58   2.0000      -0.436939       -11.8897
  59   2.0000      -0.426951       -11.6179
  60   2.0000      -0.420338       -11.4380
  61   2.0000      -0.415021       -11.2933
  62   2.0000      -0.409957       -11.1555
  63   2.0000      -0.335977        -9.1424
  64   2.0000      -0.327522        -8.9123
  65   2.0000      -0.327016        -8.8986
  66   2.0000      -0.314467        -8.5571
  67   0.0000       0.046593         1.2678
  68   0.0000       0.059030         1.6063
  69   0.0000       0.115557         3.1445
  70   0.0000       0.126592         3.4448
  71   0.0000       0.129732         3.5302

MULLIKEN ATOMIC CHARGES
-----------------------
   0 S :    0.114114
   1 C :   -0.132646
   2 C :   -0.108546
   3 C :    0.031759
   4 C :   -0.205154
   5 H :    0.029197
   6 C :    0.069188
   7 H :    0.029801
   8 H :    0.019443
   9 C :   -0.027946
  10 H :    0.001703
  11 H :    0.011958
  12 C :   -0.016282
  13 H :    0.034659
  14 H :    0.029239
  15 H :    0.026520
  16 S :    0.095490
  17 C :   -0.104637
  18 C :   -0.025260
  19 C :   -0.033116
  20 C :   -0.176864
  21 H :    0.003422
  22 C :    0.151036
  23 H :   -0.000589
  24 H :    0.025142
  25 C :   -0.073186
  26 H :    0.028014
  27 H :    0.030748
  28 C :   -0.044715
  29 H :    0.029942
  30 H :    0.017729
  31 H :    0.032337
  32 H :    0.066493
  33 H :    0.071006
Sum of atomic charges:   -0.0000000

LOEWDIN ATOMIC CHARGES
----------------------
   0 S :    0.409320
   1 C :   -0.211913
   2 C :   -0.078744
   3 C :   -0.065277
   4 C :   -0.186999
   5 H :    0.038772
   6 C :   -0.031657
   7 H :    0.035339
   8 H :    0.030076
   9 C :   -0.037222
  10 H :    0.017905
  11 H :    0.022876
  12 C :   -0.061800
  13 H :    0.035536
  14 H :    0.022925
  15 H :    0.022816
  16 S :    0.384213
  17 C :   -0.179468
  18 C :   -0.075288
  19 C :   -0.051987
  20 C :   -0.200836
  21 H :    0.025456
  22 C :   -0.011040
  23 H :    0.017776
  24 H :    0.030365
  25 C :   -0.025492
  26 H :    0.021021
  27 H :    0.023086
  28 C :   -0.063074
  29 H :    0.023396
  30 H :    0.018047
  31 H :    0.021333
  32 H :    0.040801
  33 H :    0.039739

  Mayer bond orders larger than 0.100000
B(  0-S ,  1-C ) :   1.1492 B(  0-S ,  4-C ) :   1.1613 B(  1-C ,  2-C ) :   1.5987
B(  1-C ,  4-C ) :   0.1015 B(  1-C , 32-H ) :   0.9575 B(  2-C ,  3-C ) :   1.2311
B(  2-C ,  6-C ) :   1.0390 B(  3-C ,  4-C ) :   1.5950 B(  3-C ,  5-H ) :   0.9892
B(  4-C , 20-C ) :   0.9806 B(  6-C ,  7-H ) :   0.9292 B(  6-C ,  8-H ) :   0.9383
B(  6-C ,  9-C ) :   1.0502 B(  9-C , 10-H ) :   0.9454 B(  9-C , 11-H ) :   0.9518
B(  9-C , 12-C ) :   1.0785 B( 12-C , 13-H ) :   0.9752 B( 12-C , 14-H ) :   0.9759
B( 12-C , 15-H ) :   0.9732 B( 16-S , 17-C ) :   1.1457 B( 16-S , 20-C ) :   1.1138
B( 17-C , 18-C ) :   1.6542 B( 17-C , 33-H ) :   0.9599 B( 18-C , 19-C ) :   1.1867
B( 18-C , 21-H ) :   0.9990 B( 19-C , 20-C ) :   1.7092 B( 19-C , 22-C ) :   1.0260
B( 22-C , 23-H ) :   0.9194 B( 22-C , 24-H ) :   0.9430 B( 22-C , 25-C ) :   1.0736
B( 25-C , 26-H ) :   0.9545 B( 25-C , 27-H ) :   0.9610 B( 25-C , 28-C ) :   1.0748
B( 28-C , 29-H ) :   0.9768 B( 28-C , 30-H ) :   0.9766 B( 28-C , 31-H ) :   0.9762

Dispersion correction           -0.015144909
FINAL SINGLE POINT ENERGY     -1339.868012732738

DIPOLE MOMENT
-------------
                                X             Y             Z
Electronic contribution:    -10.88729      22.61290     -14.22255
Nuclear contribution   :     11.02953     -23.22549      14.43223
                        -----------------------------------------
Total Dipole Moment    :      0.14224      -0.61259       0.20968
                        -----------------------------------------
Magnitude (a.u.)       :      0.66292
Magnitude (Debye)      :      1.68501

Rotational constants in cm-1:     0.018271     0.009014     0.007072
Rotational constants in MHz :   547.737365   270.246843   212.027702

                             ****ORCA TERMINATED NORMALLY****
TOTAL RUN TIME: 0 days 0 hours 0 minutes 36 seconds 234 msec
