                         Program Version 4.2.1 -  RELEASE  -
|  1> ! wB97X-D3 SP def2-SVP
|  2> %pal
|  3> nprocs 16
|  4> end
|  5>
|  6> * xyz 0 1
|  7> S 	 -76.2608 	 52.3923 	 139.129
|  8> C 	 -74.5119 	 52.797 	 139.04
|  9> C 	 -74.258 	 53.567 	 137.94
| 10> C 	 -75.3843 	 53.5102 	 137.046
| 11> C 	 -76.536 	 52.98 	 137.538
| 12> H 	 -75.3791 	 53.8944 	 136.062
| 13> C 	 -72.8347 	 54.1185 	 137.579
| 14> H 	 -72.7652 	 53.6287 	 136.613
| 15> H 	 -72.1782 	 53.5611 	 138.154
| 16> C 	 -72.7229 	 55.5953 	 137.565
| 17> H 	 -73.3918 	 55.9352 	 136.743
| 18> H 	 -73.2066 	 55.9842 	 138.504
| 19> C 	 -71.2932 	 56.1685 	 137.433
| 20> H 	 -70.8883 	 55.8478 	 136.437
| 21> H 	 -71.09 	 57.2036 	 137.682
| 22> H 	 -70.6344 	 55.7212 	 138.145
| 23> S 	 -78.6085 	 54.2513 	 136.385
| 24> C 	 -79.967 	 53.3777 	 135.671
| 25> C 	 -79.867 	 52.0274 	 136.069
| 26> C 	 -78.6133 	 51.7033 	 136.771
| 27> C 	 -77.7759 	 52.793 	 136.903
| 28> H 	 -80.6737 	 51.4016 	 135.77
| 29> C 	 -78.2369 	 50.2276 	 137.002
| 30> H 	 -79.185 	 49.69 	 136.898
| 31> H 	 -77.9256 	 50.1767 	 138.031
| 32> C 	 -77.2162 	 49.7034 	 136.007
| 33> H 	 -76.2504 	 50.2153 	 135.963
| 34> H 	 -77.6658 	 49.8245 	 135.048
| 35> C 	 -76.955 	 48.2219 	 136.343
| 36> H 	 -76.7031 	 48.0834 	 137.417
| 37> H 	 -76.0846 	 47.7816 	 135.833
| 38> H 	 -77.8523 	 47.6784 	 136.149
| 39> H 	 -73.7708 	 52.6813 	 139.834
| 40> H 	 -80.9008 	 53.9554 	 135.415
| 41> *
| 42>
| 43>                          ****END OF INPUT****

CARTESIAN COORDINATES (ANGSTROEM)
---------------------------------
  S    -76.260800   52.392300  139.129000
  C    -74.511900   52.797000  139.040000
  C    -74.258000   53.567000  137.940000
  C    -75.384300   53.510200  137.046000
  C    -76.536000   52.980000  137.538000
  H    -75.379100   53.894400  136.062000
  C    -72.834700   54.118500  137.579000
  H    -72.765200   53.628700  136.613000
  H    -72.178200   53.561100  138.154000
  C    -72.722900   55.595300  137.565000
  H    -73.391800   55.935200  136.743000
  H    -73.206600   55.984200  138.504000
  C    -71.293200   56.168500  137.433000
  H    -70.888300   55.847800  136.437000
  H    -71.090000   57.203600  137.682000
  H    -70.634400   55.721200  138.145000
  S    -78.608500   54.251300  136.385000
  C    -79.967000   53.377700  135.671000
  C    -79.867000   52.027400  136.069000
  C    -78.613300   51.703300  136.771000
  C    -77.775900   52.793000  136.903000
  H    -80.673700   51.401600  135.770000
  C    -78.236900   50.227600  137.002000
  H    -79.185000   49.690000  136.898000
  H    -77.925600   50.176700  138.031000
  C    -77.216200   49.703400  136.007000
  H    -76.250400   50.215300  135.963000
  H    -77.665800   49.824500  135.048000
  C    -76.955000   48.221900  136.343000
  H    -76.703100   48.083400  137.417000
  H    -76.084600   47.781600  135.833000
  H    -77.852300   47.678400  136.149000
  H    -73.770800   52.681300  139.834000
  H    -80.900800   53.955400  135.415000

 Total Charge           Charge          ....    0
 Multiplicity           Mult            ....    1
 Number of Electrons    NEL             ....  134
 Basis Dimension        Dim             ....  322

ORBITAL ENERGIES
----------------

  NO   OCC          E(Eh)            E(eV)
   0   2.0000     -88.964138     -2420.8373
   1   2.0000     -88.960913     -2420.7495
   2   2.0000     -10.324968      -280.9567
   3   2.0000     -10.324380      -280.9407
   4   2.0000     -10.322891      -280.9002
   5   2.0000     -10.316281      -280.7203
   6   2.0000     -10.307909      -280.4925
   7   2.0000     -10.303642      -280.3763
   8   2.0000     -10.301388      -280.3150
   9   2.0000     -10.294371      -280.1241
  10   2.0000     -10.290483      -280.0183
  11   2.0000     -10.289302      -279.9861
  12   2.0000     -10.288591      -279.9668
  13   2.0000     -10.282527      -279.8018
  14   2.0000     -10.280364      -279.7429
  15   2.0000     -10.274124      -279.5731
  16   2.0000      -8.078717      -219.8331
  17   2.0000      -8.075603      -219.7483
  18   2.0000      -6.037326      -164.2840
  19   2.0000      -6.034103      -164.1963
  20   2.0000      -6.033321      -164.1750
  21   2.0000      -6.029983      -164.0842
  22   2.0000      -6.029282      -164.0651
  23   2.0000      -6.026486      -163.9890
  24   2.0000      -1.010257       -27.4905
  25   2.0000      -0.980081       -26.6694
  26   2.0000      -0.917277       -24.9604
  27   2.0000      -0.908290       -24.7158
  28   2.0000      -0.874730       -23.8026
  29   2.0000      -0.846767       -23.0417
  30   2.0000      -0.840889       -22.8818
  31   2.0000      -0.814463       -22.1627
  32   2.0000      -0.787480       -21.4284
  33   2.0000      -0.769688       -20.9443
  34   2.0000      -0.712895       -19.3989
  35   2.0000      -0.703093       -19.1321
  36   2.0000      -0.693213       -18.8633
  37   2.0000      -0.666397       -18.1336
  38   2.0000      -0.639553       -17.4031
  39   2.0000      -0.620356       -16.8807
  40   2.0000      -0.587035       -15.9740
  41   2.0000      -0.570485       -15.5237
  42   2.0000      -0.568810       -15.4781
  43   2.0000      -0.557279       -15.1643
  44   2.0000      -0.529081       -14.3970
  45   2.0000      -0.524272       -14.2662
  46   2.0000      -0.519791       -14.1442
  47   2.0000      -0.517273       -14.0757
  48   2.0000      -0.508091       -13.8259
  49   2.0000      -0.501851       -13.6561
  50   2.0000      -0.491493       -13.3742
  51   2.0000      -0.481405       -13.0997
  52   2.0000      -0.468209       -12.7406
  53   2.0000      -0.464673       -12.6444
  54   2.0000      -0.457841       -12.4585
  55   2.0000      -0.445442       -12.1211
  56   2.0000      -0.440763       -11.9938
  57   2.0000      -0.436888       -11.8883
  58   2.0000      -0.430380       -11.7112
  59   2.0000      -0.427668       -11.6374
  60   2.0000      -0.423298       -11.5185
  61   2.0000      -0.409627       -11.1465
  62   2.0000      -0.405496       -11.0341
  63   2.0000      -0.345689        -9.4067
  64   2.0000      -0.331278        -9.0145
  65   2.0000      -0.325863        -8.8672
  66   2.0000      -0.298726        -8.1287
  67   0.0000       0.026497         0.7210
  68   0.0000       0.069032         1.8785
  69   0.0000       0.111586         3.0364
  70   0.0000       0.119290         3.2460
  71   0.0000       0.120643         3.2829

MULLIKEN ATOMIC CHARGES
-----------------------
   0 S :    0.106586
   1 C :   -0.136166
   2 C :   -0.112532
   3 C :    0.033630
   4 C :   -0.134697
   5 H :   -0.009350
   6 C :    0.110111
   7 H :    0.026571
   8 H :   -0.009914
   9 C :   -0.075180
  10 H :    0.038316
  11 H :    0.038771
  12 C :   -0.027526
  13 H :    0.035194
  14 H :    0.039962
  15 H :    0.012584
  16 S :    0.094442
  17 C :   -0.122569
  18 C :   -0.049732
  19 C :   -0.040763
  20 C :   -0.158134
  21 H :    0.019592
  22 C :    0.076251
  23 H :    0.018105
  24 H :    0.020837
  25 C :   -0.042742
  26 H :    0.039935
  27 H :    0.020721
  28 C :   -0.043319
  29 H :    0.029209
  30 H :    0.034545
  31 H :    0.022914
  32 H :    0.052622
  33 H :    0.091725
Sum of atomic charges:    0.0000000

LOEWDIN ATOMIC CHARGES
----------------------
   0 S :    0.400728
   1 C :   -0.186006
   2 C :   -0.054993
   3 C :   -0.062438
   4 C :   -0.205903
   5 H :    0.021848
   6 C :   -0.022388
   7 H :    0.035145
   8 H :    0.016858
   9 C :   -0.047602
  10 H :    0.031361
  11 H :    0.031458
  12 C :   -0.070839
  13 H :    0.031747
  14 H :    0.029963
  15 H :    0.021231
  16 S :    0.399934
  17 C :   -0.197540
  18 C :   -0.068847
  19 C :   -0.053724
  20 C :   -0.198751
  21 H :    0.026457
  22 C :   -0.027418
  23 H :    0.031138
  24 H :    0.020459
  25 C :   -0.034551
  26 H :    0.028460
  27 H :    0.021863
  28 C :   -0.065333
  29 H :    0.028402
  30 H :    0.026129
  31 H :    0.019072
  32 H :    0.030137
  33 H :    0.043944

  Mayer bond orders larger than 0.100000
B(  0-S ,  1-C ) :   1.1226 B(  0-S ,  4-C ) :   1.1298 B(  1-C ,  2-C ) :   1.6443
B(  1-C , 32-H ) :   0.9625 B(  2-C ,  3-C ) :   1.2096 B(  2-C ,  6-C ) :   1.0013
B(  3-C ,  4-C ) :   1.5983 B(  3-C ,  5-H ) :   0.9976 B(  4-C , 20-C ) :   1.0731
B(  6-C ,  7-H ) :   0.9374 B(  6-C ,  8-H ) :   0.9421 B(  6-C ,  9-C ) :   1.0485
B(  9-C , 10-H ) :   0.9546 B(  9-C , 11-H ) :   0.9581 B(  9-C , 12-C ) :   1.0753
B( 12-C , 13-H ) :   0.9737 B( 12-C , 14-H ) :   0.9759 B( 12-C , 15-H ) :   0.9721
B( 16-S , 17-C ) :   1.1545 B( 16-S , 20-C ) :   1.1484 B( 17-C , 18-C ) :   1.6024
B( 17-C , 20-C ) :   0.1028 B( 17-C , 33-H ) :   0.9566 B( 18-C , 19-C ) :   1.2294
B( 18-C , 21-H ) :   0.9922 B( 19-C , 20-C ) :   1.5691 B( 19-C , 22-C ) :   1.0445
B( 22-C , 23-H ) :   0.9359 B( 22-C , 24-H ) :   0.9226 B( 22-C , 25-C ) :   1.0666
B( 25-C , 26-H ) :   0.9574 B( 25-C , 27-H ) :   0.9528 B( 25-C , 28-C ) :   1.0805
B( 28-C , 29-H ) :   0.9750 B( 28-C , 30-H ) :   0.9749 B( 28-C , 31-H ) :   0.9756

Dispersion correction           -0.014102884
FINAL SINGLE POINT ENERGY     -1339.865033888455

DIPOLE MOMENT
-------------
                                X             Y             Z
Electronic contribution:    -17.67471       6.39380       5.04291
Nuclear contribution   :     17.98890      -6.54511      -5.17130
                        -----------------------------------------
Total Dipole Moment    :      0.31419      -0.15130      -0.12839
                        -----------------------------------------
Magnitude (a.u.)       :      0.37161
Magnitude (Debye)      :      0.94455

Rotational constants in cm-1:     0.020073     0.007801     0.006460
Rotational constants in MHz :   601.767826   233.877759   193.660639

                             ****ORCA TERMINATED NORMALLY****
TOTAL RUN TIME: 0 days 0 hours 0 minutes 33 seconds 880 msec
