                         Program Version 4.2.1 -  RELEASE  -
|  1> ! wB97X-D3 SP def2-SVP
|  2> %pal
|  3> nprocs 16
|  4> end
|  5>
|  6> * xyz 0 1
|  7> S 	 59.7919 	 13.9921 	 81.601
|  8> C 	 61.5063 	 14.1285 	 81.0808
|  9> C 	 61.7945 	 13.281 	 80.0041
| 10> C 	 60.5864 	 12.603 	 79.5695
| 11> C 	 59.4624 	 12.7349 	 80.3739
| 12> H 	 60.4624 	 11.8928 	 78.6812
| 13> C 	 63.1292 	 13.152 	 79.3876
| 14> H 	 62.9034 	 12.9364 	 78.3838
| 15> H 	 63.7908 	 12.4209 	 79.7737
| 16> C 	 63.9211 	 14.5264 	 79.2456
| 17> H 	 64.0578 	 15.0612 	 80.1429
| 18> H 	 64.9428 	 14.3055 	 78.8859
| 19> C 	 63.3314 	 15.4113 	 78.2262
| 20> H 	 62.2518 	 15.6168 	 78.538
| 21> H 	 63.7901 	 16.4708 	 78.2202
| 22> H 	 63.2708 	 15.0672 	 77.2134
| 23> S 	 57.247 	 11.5427 	 81.4354
| 24> C 	 55.9508 	 10.884 	 80.422
| 25> C 	 56.0832 	 11.3871 	 79.1246
| 26> C 	 57.3369 	 12.0921 	 78.973
| 27> C 	 58.0921 	 12.2675 	 80.1312
| 28> H 	 55.3494 	 11.0126 	 78.4058
| 29> C 	 57.617 	 12.7151 	 77.5826
| 30> H 	 56.846 	 12.3679 	 76.9052
| 31> H 	 58.514 	 12.2173 	 77.0781
| 32> C 	 57.7675 	 14.2639 	 77.4372
| 33> H 	 56.7665 	 14.6961 	 77.2914
| 34> H 	 58.2287 	 14.6422 	 76.4944
| 35> C 	 58.3101 	 15.114 	 78.5616
| 36> H 	 59.3844 	 14.9373 	 78.6788
| 37> H 	 57.7992 	 14.9144 	 79.4572
| 38> H 	 58.3455 	 16.19 	 78.4931
| 39> H 	 62.2877 	 14.4761 	 81.6963
| 40> H 	 55.3164 	 10.0571 	 80.7979
| 41> *
| 42>
| 43>                          ****END OF INPUT****

CARTESIAN COORDINATES (ANGSTROEM)
---------------------------------
  S     59.791900   13.992100   81.601000
  C     61.506300   14.128500   81.080800
  C     61.794500   13.281000   80.004100
  C     60.586400   12.603000   79.569500
  C     59.462400   12.734900   80.373900
  H     60.462400   11.892800   78.681200
  C     63.129200   13.152000   79.387600
  H     62.903400   12.936400   78.383800
  H     63.790800   12.420900   79.773700
  C     63.921100   14.526400   79.245600
  H     64.057800   15.061200   80.142900
  H     64.942800   14.305500   78.885900
  C     63.331400   15.411300   78.226200
  H     62.251800   15.616800   78.538000
  H     63.790100   16.470800   78.220200
  H     63.270800   15.067200   77.213400
  S     57.247000   11.542700   81.435400
  C     55.950800   10.884000   80.422000
  C     56.083200   11.387100   79.124600
  C     57.336900   12.092100   78.973000
  C     58.092100   12.267500   80.131200
  H     55.349400   11.012600   78.405800
  C     57.617000   12.715100   77.582600
  H     56.846000   12.367900   76.905200
  H     58.514000   12.217300   77.078100
  C     57.767500   14.263900   77.437200
  H     56.766500   14.696100   77.291400
  H     58.228700   14.642200   76.494400
  C     58.310100   15.114000   78.561600
  H     59.384400   14.937300   78.678800
  H     57.799200   14.914400   79.457200
  H     58.345500   16.190000   78.493100
  H     62.287700   14.476100   81.696300
  H     55.316400   10.057100   80.797900

 Total Charge           Charge          ....    0
 Multiplicity           Mult            ....    1
 Number of Electrons    NEL             ....  134
 Basis Dimension        Dim             ....  322

ORBITAL ENERGIES
----------------

  NO   OCC          E(Eh)            E(eV)
   0   2.0000     -88.966183     -2420.8929
   1   2.0000     -88.965501     -2420.8744
   2   2.0000     -10.337423      -281.2956
   3   2.0000     -10.331871      -281.1445
   4   2.0000     -10.327524      -281.0262
   5   2.0000     -10.316298      -280.7207
   6   2.0000     -10.314838      -280.6810
   7   2.0000     -10.309043      -280.5233
   8   2.0000     -10.305172      -280.4180
   9   2.0000     -10.305003      -280.4134
  10   2.0000     -10.301369      -280.3145
  11   2.0000     -10.289947      -280.0037
  12   2.0000     -10.286124      -279.8997
  13   2.0000     -10.284750      -279.8623
  14   2.0000     -10.279707      -279.7251
  15   2.0000     -10.257429      -279.1188
  16   2.0000      -8.080864      -219.8915
  17   2.0000      -8.079276      -219.8483
  18   2.0000      -6.039293      -164.3375
  19   2.0000      -6.038029      -164.3031
  20   2.0000      -6.035059      -164.2223
  21   2.0000      -6.034000      -164.1935
  22   2.0000      -6.031857      -164.1352
  23   2.0000      -6.029873      -164.0812
  24   2.0000      -1.005385       -27.3579
  25   2.0000      -0.979291       -26.6479
  26   2.0000      -0.917660       -24.9708
  27   2.0000      -0.897402       -24.4196
  28   2.0000      -0.870827       -23.6964
  29   2.0000      -0.845842       -23.0165
  30   2.0000      -0.844581       -22.9822
  31   2.0000      -0.815766       -22.1981
  32   2.0000      -0.783136       -21.3102
  33   2.0000      -0.773608       -21.0509
  34   2.0000      -0.709609       -19.3094
  35   2.0000      -0.701578       -19.0909
  36   2.0000      -0.686692       -18.6858
  37   2.0000      -0.666134       -18.1264
  38   2.0000      -0.637826       -17.3561
  39   2.0000      -0.609024       -16.5724
  40   2.0000      -0.586554       -15.9609
  41   2.0000      -0.578167       -15.7327
  42   2.0000      -0.561973       -15.2921
  43   2.0000      -0.549730       -14.9589
  44   2.0000      -0.548019       -14.9123
  45   2.0000      -0.534546       -14.5457
  46   2.0000      -0.514685       -14.0053
  47   2.0000      -0.507087       -13.7986
  48   2.0000      -0.503340       -13.6966
  49   2.0000      -0.503223       -13.6934
  50   2.0000      -0.486663       -13.2428
  51   2.0000      -0.475451       -12.9377
  52   2.0000      -0.472231       -12.8501
  53   2.0000      -0.466462       -12.6931
  54   2.0000      -0.454845       -12.3770
  55   2.0000      -0.450860       -12.2685
  56   2.0000      -0.444132       -12.0854
  57   2.0000      -0.431273       -11.7355
  58   2.0000      -0.425726       -11.5846
  59   2.0000      -0.416755       -11.3405
  60   2.0000      -0.412175       -11.2159
  61   2.0000      -0.410298       -11.1648
  62   2.0000      -0.389931       -10.6106
  63   2.0000      -0.350104        -9.5268
  64   2.0000      -0.330959        -9.0059
  65   2.0000      -0.328627        -8.9424
  66   2.0000      -0.294931        -8.0255
  67   0.0000       0.020841         0.5671
  68   0.0000       0.059117         1.6087
  69   0.0000       0.106941         2.9100
  70   0.0000       0.112939         3.0732
  71   0.0000       0.125576         3.4171

MULLIKEN ATOMIC CHARGES
-----------------------
   0 S :    0.088726
   1 C :   -0.094637
   2 C :   -0.120555
   3 C :   -0.013053
   4 C :   -0.121179
   5 H :    0.040089
   6 C :    0.117778
   7 H :    0.005720
   8 H :    0.044611
   9 C :   -0.058908
  10 H :    0.020471
  11 H :    0.024955
  12 C :   -0.108497
  13 H :    0.043022
  14 H :    0.043509
  15 H :    0.032633
  16 S :    0.097807
  17 C :   -0.129956
  18 C :   -0.027511
  19 C :   -0.072242
  20 C :   -0.125765
  21 H :    0.040201
  22 C :    0.077718
  23 H :    0.013098
  24 H :    0.036137
  25 C :   -0.074205
  26 H :    0.017137
  27 H :    0.022945
  28 C :   -0.022583
  29 H :    0.027779
  30 H :    0.023517
  31 H :    0.019509
  32 H :    0.046286
  33 H :    0.085444
Sum of atomic charges:   -0.0000000

LOEWDIN ATOMIC CHARGES
----------------------
   0 S :    0.375739
   1 C :   -0.179529
   2 C :   -0.056969
   3 C :   -0.070961
   4 C :   -0.176501
   5 H :    0.042539
   6 C :   -0.021992
   7 H :    0.028753
   8 H :    0.032294
   9 C :   -0.037597
  10 H :    0.016159
  11 H :    0.026447
  12 C :   -0.079470
  13 H :    0.030419
  14 H :    0.036117
  15 H :    0.018452
  16 S :    0.418686
  17 C :   -0.180630
  18 C :   -0.073897
  19 C :   -0.056695
  20 C :   -0.216534
  21 H :    0.040133
  22 C :   -0.036878
  23 H :    0.030107
  24 H :    0.035246
  25 C :   -0.049390
  26 H :    0.023956
  27 H :    0.028904
  28 C :   -0.071739
  29 H :    0.023622
  30 H :    0.013772
  31 H :    0.027215
  32 H :    0.020706
  33 H :    0.039517

  Mayer bond orders larger than 0.100000
B(  0-S ,  1-C ) :   1.1285 B(  0-S ,  4-C ) :   1.1329 B(  1-C ,  2-C ) :   1.6147
B(  1-C ,  4-C ) :   0.1017 B(  1-C , 32-H ) :   0.9644 B(  2-C ,  3-C ) :   1.2239
B(  2-C ,  6-C ) :   1.0176 B(  3-C ,  4-C ) :   1.6243 B(  3-C ,  5-H ) :   0.9769
B(  4-C , 20-C ) :   1.0174 B(  6-C ,  7-H ) :   0.9375 B(  6-C ,  8-H ) :   0.9342
B(  6-C ,  9-C ) :   1.0725 B(  9-C , 10-H ) :   0.9541 B(  9-C , 11-H ) :   0.9522
B(  9-C , 12-C ) :   1.0889 B( 12-C , 13-H ) :   0.9695 B( 12-C , 14-H ) :   0.9686
B( 12-C , 15-H ) :   0.9735 B( 16-S , 17-C ) :   1.1776 B( 16-S , 20-C ) :   1.1455
B( 17-C , 18-C ) :   1.5788 B( 17-C , 33-H ) :   0.9636 B( 18-C , 19-C ) :   1.2562
B( 18-C , 21-H ) :   0.9885 B( 19-C , 20-C ) :   1.5741 B( 19-C , 22-C ) :   1.0317
B( 22-C , 23-H ) :   0.9367 B( 22-C , 24-H ) :   0.9375 B( 22-C , 25-C ) :   1.0441
B( 25-C , 26-H ) :   0.9561 B( 25-C , 27-H ) :   0.9549 B( 25-C , 28-C ) :   1.1033
B( 28-C , 29-H ) :   0.9662 B( 28-C , 30-H ) :   0.9613 B( 28-C , 31-H ) :   0.9676

Dispersion correction           -0.016304993
FINAL SINGLE POINT ENERGY     -1339.847043300204

DIPOLE MOMENT
-------------
                                X             Y             Z
Electronic contribution:    -14.10214     -12.49068      19.71101
Nuclear contribution   :     14.34089      12.25121     -20.29624
                        -----------------------------------------
Total Dipole Moment    :      0.23875      -0.23947      -0.58523
                        -----------------------------------------
Magnitude (a.u.)       :      0.67590
Magnitude (Debye)      :      1.71800

Rotational constants in cm-1:     0.024395     0.008703     0.007472
Rotational constants in MHz :   731.347070   260.904710   223.989998

                             ****ORCA TERMINATED NORMALLY****
TOTAL RUN TIME: 0 days 0 hours 0 minutes 33 seconds 23 msec
