                         Program Version 4.2.1 -  RELEASE  -
|  1> ! wB97X-D3 SP def2-SVP
|  2> %pal
|  3> nprocs 16
|  4> end
|  5>
|  6> * xyz 0 1
|  7> S 	 16.2948 	 1.52901 	 65.9288
|  8> C 	 15.1704 	 1.29952 	 64.6033
|  9> C 	 15.6123 	 1.9287 	 63.4553
| 10> C 	 16.8873 	 2.4974 	 63.5975
| 11> C 	 17.4799 	 2.18025 	 64.8076
| 12> H 	 17.3481 	 3.21047 	 62.9298
| 13> C 	 14.7266 	 2.2137 	 62.2655
| 14> H 	 13.9639 	 1.3834 	 62.2505
| 15> H 	 15.418 	 2.07726 	 61.4614
| 16> C 	 13.9441 	 3.6027 	 62.2103
| 17> H 	 13.1966 	 3.64498 	 61.437
| 18> H 	 13.3563 	 3.65853 	 63.1252
| 19> C 	 14.9339 	 4.75657 	 62.1529
| 20> H 	 15.6717 	 4.5509 	 61.3468
| 21> H 	 14.494 	 5.72308 	 62.1097
| 22> H 	 15.4567 	 4.86348 	 63.111
| 23> S 	 19.7703 	 1.34083 	 66.1303
| 24> C 	 21.1489 	 2.35384 	 65.9956
| 25> C 	 20.9756 	 3.53831 	 65.4019
| 26> C 	 19.6464 	 3.59979 	 64.8959
| 27> C 	 18.8499 	 2.52004 	 65.2198
| 28> H 	 21.8107 	 4.27323 	 65.401
| 29> C 	 19.1934 	 4.93372 	 64.2818
| 30> H 	 18.7542 	 4.71569 	 63.2964
| 31> H 	 20.0554 	 5.59369 	 64.1379
| 32> C 	 18.2068 	 5.61901 	 65.2237
| 33> H 	 17.306 	 5.03571 	 65.3352
| 34> H 	 17.7639 	 6.55701 	 64.7197
| 35> C 	 18.7276 	 5.96537 	 66.6902
| 36> H 	 17.9573 	 6.29338 	 67.3787
| 37> H 	 19.5565 	 6.69564 	 66.7271
| 38> H 	 19.0422 	 5.05054 	 67.2164
| 39> H 	 14.1233 	 0.969873 	 64.6671
| 40> H 	 22.0455 	 2.04874 	 66.5732
| 41> *
| 42>
| 43>                          ****END OF INPUT****

CARTESIAN COORDINATES (ANGSTROEM)
---------------------------------
  S     16.294800    1.529010   65.928800
  C     15.170400    1.299520   64.603300
  C     15.612300    1.928700   63.455300
  C     16.887300    2.497400   63.597500
  C     17.479900    2.180250   64.807600
  H     17.348100    3.210470   62.929800
  C     14.726600    2.213700   62.265500
  H     13.963900    1.383400   62.250500
  H     15.418000    2.077260   61.461400
  C     13.944100    3.602700   62.210300
  H     13.196600    3.644980   61.437000
  H     13.356300    3.658530   63.125200
  C     14.933900    4.756570   62.152900
  H     15.671700    4.550900   61.346800
  H     14.494000    5.723080   62.109700
  H     15.456700    4.863480   63.111000
  S     19.770300    1.340830   66.130300
  C     21.148900    2.353840   65.995600
  C     20.975600    3.538310   65.401900
  C     19.646400    3.599790   64.895900
  C     18.849900    2.520040   65.219800
  H     21.810700    4.273230   65.401000
  C     19.193400    4.933720   64.281800
  H     18.754200    4.715690   63.296400
  H     20.055400    5.593690   64.137900
  C     18.206800    5.619010   65.223700
  H     17.306000    5.035710   65.335200
  H     17.763900    6.557010   64.719700
  C     18.727600    5.965370   66.690200
  H     17.957300    6.293380   67.378700
  H     19.556500    6.695640   66.727100
  H     19.042200    5.050540   67.216400
  H     14.123300    0.969873   64.667100
  H     22.045500    2.048740   66.573200

 Total Charge           Charge          ....    0
 Multiplicity           Mult            ....    1
 Number of Electrons    NEL             ....  134
 Basis Dimension        Dim             ....  322

ORBITAL ENERGIES
----------------

  NO   OCC          E(Eh)            E(eV)
   0   2.0000     -88.969915     -2420.9945
   1   2.0000     -88.964265     -2420.8407
   2   2.0000     -10.330911      -281.1184
   3   2.0000     -10.324766      -280.9512
   4   2.0000     -10.312931      -280.6291
   5   2.0000     -10.311674      -280.5949
   6   2.0000     -10.302098      -280.3343
   7   2.0000     -10.296211      -280.1742
   8   2.0000     -10.296027      -280.1691
   9   2.0000     -10.295580      -280.1570
  10   2.0000     -10.292950      -280.0854
  11   2.0000     -10.292586      -280.0755
  12   2.0000     -10.291725      -280.0521
  13   2.0000     -10.290226      -280.0113
  14   2.0000     -10.279928      -279.7311
  15   2.0000     -10.278629      -279.6957
  16   2.0000      -8.084183      -219.9818
  17   2.0000      -8.080061      -219.8696
  18   2.0000      -6.042686      -164.4298
  19   2.0000      -6.038969      -164.3287
  20   2.0000      -6.038404      -164.3133
  21   2.0000      -6.034776      -164.2146
  22   2.0000      -6.034534      -164.2080
  23   2.0000      -6.030823      -164.1070
  24   2.0000      -1.011643       -27.5282
  25   2.0000      -0.990443       -26.9513
  26   2.0000      -0.908720       -24.7275
  27   2.0000      -0.904698       -24.6181
  28   2.0000      -0.869823       -23.6691
  29   2.0000      -0.849803       -23.1243
  30   2.0000      -0.841891       -22.9090
  31   2.0000      -0.814890       -22.1743
  32   2.0000      -0.785019       -21.3614
  33   2.0000      -0.770658       -20.9707
  34   2.0000      -0.709328       -19.3018
  35   2.0000      -0.707922       -19.2635
  36   2.0000      -0.686909       -18.6918
  37   2.0000      -0.662427       -18.0256
  38   2.0000      -0.633583       -17.2407
  39   2.0000      -0.616182       -16.7672
  40   2.0000      -0.592074       -16.1111
  41   2.0000      -0.572025       -15.5656
  42   2.0000      -0.555394       -15.1130
  43   2.0000      -0.547296       -14.8927
  44   2.0000      -0.542443       -14.7606
  45   2.0000      -0.536793       -14.6069
  46   2.0000      -0.519084       -14.1250
  47   2.0000      -0.505270       -13.7491
  48   2.0000      -0.499586       -13.5944
  49   2.0000      -0.488846       -13.3022
  50   2.0000      -0.486098       -13.2274
  51   2.0000      -0.478884       -13.0311
  52   2.0000      -0.468292       -12.7429
  53   2.0000      -0.465680       -12.6718
  54   2.0000      -0.460700       -12.5363
  55   2.0000      -0.448050       -12.1921
  56   2.0000      -0.444038       -12.0829
  57   2.0000      -0.441246       -12.0069
  58   2.0000      -0.437934       -11.9168
  59   2.0000      -0.429131       -11.6772
  60   2.0000      -0.419950       -11.4274
  61   2.0000      -0.418856       -11.3977
  62   2.0000      -0.406476       -11.0608
  63   2.0000      -0.352336        -9.5876
  64   2.0000      -0.334079        -9.0907
  65   2.0000      -0.330948        -9.0056
  66   2.0000      -0.287204        -7.8152
  67   0.0000       0.025244         0.6869
  68   0.0000       0.075313         2.0494
  69   0.0000       0.102247         2.7823
  70   0.0000       0.120981         3.2921
  71   0.0000       0.131730         3.5845

MULLIKEN ATOMIC CHARGES
-----------------------
   0 S :    0.113385
   1 C :   -0.113360
   2 C :   -0.106041
   3 C :    0.018476
   4 C :   -0.135375
   5 H :   -0.004498
   6 C :    0.035534
   7 H :    0.028606
   8 H :    0.026108
   9 C :   -0.024459
  10 H :    0.031844
  11 H :    0.019258
  12 C :   -0.059544
  13 H :    0.039270
  14 H :    0.025207
  15 H :    0.035039
  16 S :    0.112068
  17 C :   -0.102023
  18 C :   -0.035717
  19 C :   -0.069003
  20 C :   -0.146852
  21 H :    0.037111
  22 C :    0.087283
  23 H :    0.033609
  24 H :    0.022896
  25 C :   -0.094222
  26 H :    0.037924
  27 H :    0.032571
  28 C :   -0.065381
  29 H :    0.031471
  30 H :    0.034513
  31 H :    0.041394
  32 H :    0.051155
  33 H :    0.061754
Sum of atomic charges:   -0.0000000

LOEWDIN ATOMIC CHARGES
----------------------
   0 S :    0.402503
   1 C :   -0.203894
   2 C :   -0.068116
   3 C :   -0.064875
   4 C :   -0.184674
   5 H :    0.027826
   6 C :   -0.029653
   7 H :    0.034493
   8 H :    0.024209
   9 C :   -0.031578
  10 H :    0.021824
  11 H :    0.024322
  12 C :   -0.070294
  13 H :    0.027551
  14 H :    0.022436
  15 H :    0.029722
  16 S :    0.415653
  17 C :   -0.188336
  18 C :   -0.080642
  19 C :   -0.053505
  20 C :   -0.206507
  21 H :    0.045130
  22 C :   -0.028575
  23 H :    0.029837
  24 H :    0.029845
  25 C :   -0.044044
  26 H :    0.020890
  27 H :    0.027749
  28 C :   -0.073257
  29 H :    0.027597
  30 H :    0.023495
  31 H :    0.029961
  32 H :    0.032999
  33 H :    0.029909

  Mayer bond orders larger than 0.100000
B(  0-S ,  1-C ) :   1.1267 B(  0-S ,  4-C ) :   1.1626 B(  1-C ,  2-C ) :   1.6089
B(  1-C ,  4-C ) :   0.1016 B(  1-C , 32-H ) :   0.9606 B(  2-C ,  3-C ) :   1.2648
B(  2-C ,  6-C ) :   1.0196 B(  3-C ,  4-C ) :   1.5543 B(  3-C ,  5-H ) :   0.9938
B(  4-C , 20-C ) :   1.0410 B(  6-C ,  7-H ) :   0.9405 B(  6-C ,  8-H ) :   0.9446
B(  6-C ,  9-C ) :   1.0517 B(  9-C , 10-H ) :   0.9605 B(  9-C , 11-H ) :   0.9525
B(  9-C , 12-C ) :   1.0830 B( 12-C , 13-H ) :   0.9749 B( 12-C , 14-H ) :   0.9676
B( 12-C , 15-H ) :   0.9681 B( 16-S , 17-C ) :   1.1699 B( 16-S , 20-C ) :   1.1336
B( 17-C , 18-C ) :   1.6287 B( 17-C , 33-H ) :   0.9555 B( 18-C , 19-C ) :   1.2244
B( 18-C , 21-H ) :   0.9903 B( 19-C , 20-C ) :   1.6082 B( 19-C , 22-C ) :   1.0321
B( 22-C , 23-H ) :   0.9296 B( 22-C , 24-H ) :   0.9397 B( 22-C , 25-C ) :   1.0731
B( 25-C , 26-H ) :   0.9528 B( 25-C , 27-H ) :   0.9570 B( 25-C , 28-C ) :   1.0628
B( 28-C , 29-H ) :   0.9750 B( 28-C , 30-H ) :   0.9787 B( 28-C , 31-H ) :   0.9722

Dispersion correction           -0.016590550
FINAL SINGLE POINT ENERGY     -1339.878191810077

DIPOLE MOMENT
-------------
                                X             Y             Z
Electronic contribution:      9.29368     -21.62638      11.46284
Nuclear contribution   :     -9.41645      22.24200     -11.67327
                        -----------------------------------------
Total Dipole Moment    :     -0.12277       0.61562      -0.21043
                        -----------------------------------------
Magnitude (a.u.)       :      0.66207
Magnitude (Debye)      :      1.68286

Rotational constants in cm-1:     0.020720     0.009794     0.007824
Rotational constants in MHz :   621.180457   293.608574   234.558497

                             ****ORCA TERMINATED NORMALLY****
TOTAL RUN TIME: 0 days 0 hours 0 minutes 38 seconds 305 msec
