                         Program Version 4.2.1 -  RELEASE  -
|  1> ! wB97X-D3 SP def2-SVP
|  2> %pal
|  3> nprocs 16
|  4> end
|  5>
|  6> * xyz 0 1
|  7> S 	 11.2929 	 13.4873 	 81.7294
|  8> C 	 12.3724 	 13.3191 	 80.4017
|  9> C 	 12.4019 	 12.0377 	 79.9431
| 10> C 	 11.5294 	 11.1255 	 80.6851
| 11> C 	 10.9 	 11.8065 	 81.7764
| 12> H 	 11.4318 	 10.0689 	 80.387
| 13> C 	 13.2819 	 11.6828 	 78.7171
| 14> H 	 13.4752 	 10.6092 	 78.6572
| 15> H 	 14.2234 	 12.1233 	 78.8601
| 16> C 	 12.7979 	 12.1352 	 77.3536
| 17> H 	 12.8173 	 13.2293 	 77.3177
| 18> H 	 13.5233 	 11.7198 	 76.6676
| 19> C 	 11.4114 	 11.6781 	 77.0307
| 20> H 	 11.3145 	 10.5608 	 77.1064
| 21> H 	 10.6481 	 12.0582 	 77.7235
| 22> H 	 11.2721 	 11.9192 	 76.0025
| 23> S 	 8.21055 	 11.2656 	 81.8706
| 24> C 	 7.55732 	 10.3121 	 83.2271
| 25> C 	 8.56162 	 9.83185 	 83.9905
| 26> C 	 9.85614 	 10.1869 	 83.515
| 27> C 	 9.82352 	 11.2112 	 82.5895
| 28> H 	 8.35618 	 9.178 	 84.8074
| 29> C 	 11.1544 	 9.72948 	 84.1494
| 30> H 	 11.6667 	 10.5427 	 84.5212
| 31> H 	 11.812 	 9.29374 	 83.453
| 32> C 	 11.2011 	 8.7369 	 85.2904
| 33> H 	 10.7213 	 9.05914 	 86.1866
| 34> H 	 12.2119 	 8.57168 	 85.7111
| 35> C 	 10.7336 	 7.31692 	 84.9354
| 36> H 	 11.1789 	 6.96514 	 84.01
| 37> H 	 9.67367 	 7.25609 	 84.7338
| 38> H 	 10.9592 	 6.65757 	 85.802
| 39> H 	 12.8735 	 14.088 	 79.7425
| 40> H 	 6.56211 	 10.0832 	 83.5129
| 41> *
| 42>
| 43>                          ****END OF INPUT****

CARTESIAN COORDINATES (ANGSTROEM)
---------------------------------
  S     11.292900   13.487300   81.729400
  C     12.372400   13.319100   80.401700
  C     12.401900   12.037700   79.943100
  C     11.529400   11.125500   80.685100
  C     10.900000   11.806500   81.776400
  H     11.431800   10.068900   80.387000
  C     13.281900   11.682800   78.717100
  H     13.475200   10.609200   78.657200
  H     14.223400   12.123300   78.860100
  C     12.797900   12.135200   77.353600
  H     12.817300   13.229300   77.317700
  H     13.523300   11.719800   76.667600
  C     11.411400   11.678100   77.030700
  H     11.314500   10.560800   77.106400
  H     10.648100   12.058200   77.723500
  H     11.272100   11.919200   76.002500
  S      8.210550   11.265600   81.870600
  C      7.557320   10.312100   83.227100
  C      8.561620    9.831850   83.990500
  C      9.856140   10.186900   83.515000
  C      9.823520   11.211200   82.589500
  H      8.356180    9.178000   84.807400
  C     11.154400    9.729480   84.149400
  H     11.666700   10.542700   84.521200
  H     11.812000    9.293740   83.453000
  C     11.201100    8.736900   85.290400
  H     10.721300    9.059140   86.186600
  H     12.211900    8.571680   85.711100
  C     10.733600    7.316920   84.935400
  H     11.178900    6.965140   84.010000
  H      9.673670    7.256090   84.733800
  H     10.959200    6.657570   85.802000
  H     12.873500   14.088000   79.742500
  H      6.562110   10.083200   83.512900

 Total Charge           Charge          ....    0
 Multiplicity           Mult            ....    1
 Number of Electrons    NEL             ....  134
 Basis Dimension        Dim             ....  322

ORBITAL ENERGIES
----------------

  NO   OCC          E(Eh)            E(eV)
   0   2.0000     -88.971178     -2421.0288
   1   2.0000     -88.962343     -2420.7884
   2   2.0000     -10.334431      -281.2142
   3   2.0000     -10.325270      -280.9649
   4   2.0000     -10.313463      -280.6436
   5   2.0000     -10.313036      -280.6320
   6   2.0000     -10.305670      -280.4315
   7   2.0000     -10.304572      -280.4017
   8   2.0000     -10.300174      -280.2820
   9   2.0000     -10.287912      -279.9483
  10   2.0000     -10.285648      -279.8867
  11   2.0000     -10.282826      -279.8099
  12   2.0000     -10.282370      -279.7975
  13   2.0000     -10.277985      -279.6782
  14   2.0000     -10.275567      -279.6124
  15   2.0000     -10.273032      -279.5434
  16   2.0000      -8.086183      -220.0362
  17   2.0000      -8.076439      -219.7711
  18   2.0000      -6.044628      -164.4827
  19   2.0000      -6.040474      -164.3697
  20   2.0000      -6.037154      -164.2793
  21   2.0000      -6.035191      -164.2259
  22   2.0000      -6.031180      -164.1168
  23   2.0000      -6.026807      -163.9977
  24   2.0000      -1.006399       -27.3855
  25   2.0000      -0.986050       -26.8318
  26   2.0000      -0.916987       -24.9525
  27   2.0000      -0.911533       -24.8041
  28   2.0000      -0.872245       -23.7350
  29   2.0000      -0.846216       -23.0267
  30   2.0000      -0.843791       -22.9607
  31   2.0000      -0.815561       -22.1925
  32   2.0000      -0.787450       -21.4276
  33   2.0000      -0.777584       -21.1591
  34   2.0000      -0.706486       -19.2245
  35   2.0000      -0.698071       -18.9955
  36   2.0000      -0.693264       -18.8647
  37   2.0000      -0.657577       -17.8936
  38   2.0000      -0.632579       -17.2134
  39   2.0000      -0.609916       -16.5967
  40   2.0000      -0.600294       -16.3348
  41   2.0000      -0.582800       -15.8588
  42   2.0000      -0.558374       -15.1941
  43   2.0000      -0.553661       -15.0659
  44   2.0000      -0.550261       -14.9734
  45   2.0000      -0.535953       -14.5840
  46   2.0000      -0.516141       -14.0449
  47   2.0000      -0.507609       -13.8128
  48   2.0000      -0.505163       -13.7462
  49   2.0000      -0.498642       -13.5687
  50   2.0000      -0.490775       -13.3547
  51   2.0000      -0.476568       -12.9681
  52   2.0000      -0.472449       -12.8560
  53   2.0000      -0.467670       -12.7259
  54   2.0000      -0.465410       -12.6645
  55   2.0000      -0.443725       -12.0744
  56   2.0000      -0.440419       -11.9844
  57   2.0000      -0.434074       -11.8117
  58   2.0000      -0.430708       -11.7202
  59   2.0000      -0.426227       -11.5982
  60   2.0000      -0.421925       -11.4812
  61   2.0000      -0.415206       -11.2983
  62   2.0000      -0.409360       -11.1393
  63   2.0000      -0.338121        -9.2007
  64   2.0000      -0.327002        -8.8982
  65   2.0000      -0.318760        -8.6739
  66   2.0000      -0.311904        -8.4873
  67   0.0000       0.035544         0.9672
  68   0.0000       0.054398         1.4803
  69   0.0000       0.112220         3.0537
  70   0.0000       0.123432         3.3587
  71   0.0000       0.130883         3.5615

MULLIKEN ATOMIC CHARGES
-----------------------
   0 S :    0.138052
   1 C :   -0.125700
   2 C :   -0.135643
   3 C :    0.042463
   4 C :   -0.181183
   5 H :    0.028584
   6 C :    0.073084
   7 H :    0.015770
   8 H :    0.015791
   9 C :   -0.068174
  10 H :    0.021692
  11 H :    0.029487
  12 C :   -0.046831
  13 H :    0.020377
  14 H :    0.052773
  15 H :    0.030213
  16 S :    0.100183
  17 C :   -0.048480
  18 C :   -0.034613
  19 C :   -0.030476
  20 C :   -0.151513
  21 H :    0.014233
  22 C :    0.134799
  23 H :    0.020873
  24 H :    0.011837
  25 C :   -0.090362
  26 H :    0.011944
  27 H :    0.024470
  28 C :   -0.060722
  29 H :    0.024848
  30 H :    0.019924
  31 H :    0.040709
  32 H :    0.068146
  33 H :    0.033448
Sum of atomic charges:   -0.0000000

LOEWDIN ATOMIC CHARGES
----------------------
   0 S :    0.442813
   1 C :   -0.224391
   2 C :   -0.069723
   3 C :   -0.056693
   4 C :   -0.218964
   5 H :    0.036418
   6 C :   -0.031332
   7 H :    0.027290
   8 H :    0.024231
   9 C :   -0.040055
  10 H :    0.020316
  11 H :    0.026223
  12 C :   -0.066404
  13 H :    0.025828
  14 H :    0.031480
  15 H :    0.023445
  16 S :    0.385589
  17 C :   -0.165116
  18 C :   -0.070865
  19 C :   -0.042753
  20 C :   -0.197641
  21 H :    0.028761
  22 C :   -0.027925
  23 H :    0.030842
  24 H :    0.029723
  25 C :   -0.045303
  26 H :    0.015631
  27 H :    0.032518
  28 C :   -0.067839
  29 H :    0.022559
  30 H :    0.016623
  31 H :    0.031119
  32 H :    0.047152
  33 H :    0.026443

  Mayer bond orders larger than 0.100000
B(  0-S ,  1-C ) :   1.1472 B(  0-S ,  4-C ) :   1.1764 B(  1-C ,  2-C ) :   1.6139
B(  1-C , 32-H ) :   0.9557 B(  2-C ,  3-C ) :   1.2672 B(  2-C ,  6-C ) :   1.0124
B(  3-C ,  4-C ) :   1.5245 B(  3-C ,  5-H ) :   0.9917 B(  4-C , 20-C ) :   1.0145
B(  6-C ,  7-H ) :   0.9417 B(  6-C ,  8-H ) :   0.9401 B(  6-C ,  9-C ) :   1.0875
B(  9-C , 10-H ) :   0.9509 B(  9-C , 11-H ) :   0.9511 B(  9-C , 12-C ) :   1.0870
B( 12-C , 13-H ) :   0.9735 B( 12-C , 14-H ) :   0.9695 B( 12-C , 15-H ) :   0.9720
B( 16-S , 17-C ) :   1.1376 B( 16-S , 20-C ) :   1.1300 B( 17-C , 18-C ) :   1.6466
B( 17-C , 33-H ) :   0.9638 B( 18-C , 19-C ) :   1.2271 B( 18-C , 21-H ) :   0.9860
B( 19-C , 20-C ) :   1.6218 B( 19-C , 22-C ) :   1.0256 B( 22-C , 23-H ) :   0.9280
B( 22-C , 24-H ) :   0.9210 B( 22-C , 25-C ) :   1.0936 B( 25-C , 26-H ) :   0.9458
B( 25-C , 27-H ) :   0.9507 B( 25-C , 28-C ) :   1.0763 B( 28-C , 29-H ) :   0.9735
B( 28-C , 30-H ) :   0.9763 B( 28-C , 31-H ) :   0.9750

Dispersion correction           -0.014501773
FINAL SINGLE POINT ENERGY     -1339.860626031441

DIPOLE MOMENT
-------------
                                X             Y             Z
Electronic contribution:    -11.27592      15.43368       4.85092
Nuclear contribution   :     11.63855     -15.87849      -4.97747
                        -----------------------------------------
Total Dipole Moment    :      0.36263      -0.44482      -0.12655
                        -----------------------------------------
Magnitude (a.u.)       :      0.58769
Magnitude (Debye)      :      1.49378

Rotational constants in cm-1:     0.021499     0.007454     0.006886
Rotational constants in MHz :   644.516005   223.471650   206.448048

                             ****ORCA TERMINATED NORMALLY****
TOTAL RUN TIME: 0 days 0 hours 0 minutes 33 seconds 847 msec
