                         Program Version 4.2.1 -  RELEASE  -
|  1> ! wB97X-D3 SP def2-SVP
|  2> %pal
|  3> nprocs 16
|  4> end
|  5>
|  6> * xyz 0 1
|  7> S 	 36.6287 	 22.6612 	 48.2646
|  8> C 	 36.6308 	 23.3217 	 49.8926
|  9> C 	 35.6393 	 22.6791 	 50.6643
| 10> C 	 34.9561 	 21.6575 	 49.9092
| 11> C 	 35.3429 	 21.5391 	 48.5805
| 12> H 	 34.1326 	 20.984 	 50.2542
| 13> C 	 35.3438 	 23.0007 	 52.109
| 14> H 	 34.2889 	 22.8627 	 52.3702
| 15> H 	 35.5529 	 24.0209 	 52.0585
| 16> C 	 36.1889 	 22.2772 	 53.1163
| 17> H 	 36.0573 	 21.2707 	 52.9734
| 18> H 	 37.2931 	 22.388 	 52.9476
| 19> C 	 35.8448 	 22.6189 	 54.5947
| 20> H 	 36.3041 	 23.5722 	 55.0119
| 21> H 	 34.7499 	 22.7416 	 54.6224
| 22> H 	 36.0174 	 21.7052 	 55.1531
| 23> S 	 33.4877 	 20.8146 	 46.5943
| 24> C 	 33.747 	 19.2517 	 45.8202
| 25> C 	 34.7447 	 18.5353 	 46.3941
| 26> C 	 35.3509 	 19.159 	 47.5182
| 27> C 	 34.8626 	 20.4571 	 47.6705
| 28> H 	 35.0049 	 17.4968 	 45.9644
| 29> C 	 36.4681 	 18.5142 	 48.2553
| 30> H 	 36.4434 	 17.4235 	 48.1988
| 31> H 	 36.3546 	 18.7833 	 49.28
| 32> C 	 37.8431 	 18.7449 	 47.6616
| 33> H 	 37.9338 	 19.8146 	 47.8398
| 34> H 	 37.8475 	 18.7236 	 46.5579
| 35> C 	 39.0077 	 17.9579 	 48.2472
| 36> H 	 39.942 	 18.3042 	 47.8257
| 37> H 	 38.9796 	 16.9532 	 47.9606
| 38> H 	 39.0536 	 18.1132 	 49.2805
| 39> H 	 37.3189 	 24.0522 	 50.1763
| 40> H 	 33.2981 	 19.0025 	 44.859
| 41> *
| 42>
| 43>                          ****END OF INPUT****

CARTESIAN COORDINATES (ANGSTROEM)
---------------------------------
  S     36.628700   22.661200   48.264600
  C     36.630800   23.321700   49.892600
  C     35.639300   22.679100   50.664300
  C     34.956100   21.657500   49.909200
  C     35.342900   21.539100   48.580500
  H     34.132600   20.984000   50.254200
  C     35.343800   23.000700   52.109000
  H     34.288900   22.862700   52.370200
  H     35.552900   24.020900   52.058500
  C     36.188900   22.277200   53.116300
  H     36.057300   21.270700   52.973400
  H     37.293100   22.388000   52.947600
  C     35.844800   22.618900   54.594700
  H     36.304100   23.572200   55.011900
  H     34.749900   22.741600   54.622400
  H     36.017400   21.705200   55.153100
  S     33.487700   20.814600   46.594300
  C     33.747000   19.251700   45.820200
  C     34.744700   18.535300   46.394100
  C     35.350900   19.159000   47.518200
  C     34.862600   20.457100   47.670500
  H     35.004900   17.496800   45.964400
  C     36.468100   18.514200   48.255300
  H     36.443400   17.423500   48.198800
  H     36.354600   18.783300   49.280000
  C     37.843100   18.744900   47.661600
  H     37.933800   19.814600   47.839800
  H     37.847500   18.723600   46.557900
  C     39.007700   17.957900   48.247200
  H     39.942000   18.304200   47.825700
  H     38.979600   16.953200   47.960600
  H     39.053600   18.113200   49.280500
  H     37.318900   24.052200   50.176300
  H     33.298100   19.002500   44.859000

 Total Charge           Charge          ....    0
 Multiplicity           Mult            ....    1
 Number of Electrons    NEL             ....  134
 Basis Dimension        Dim             ....  322

ORBITAL ENERGIES
----------------

  NO   OCC          E(Eh)            E(eV)
   0   2.0000     -88.967899     -2420.9396
   1   2.0000     -88.965386     -2420.8712
   2   2.0000     -10.330926      -281.1188
   3   2.0000     -10.328742      -281.0593
   4   2.0000     -10.317091      -280.7423
   5   2.0000     -10.315022      -280.6860
   6   2.0000     -10.306854      -280.4638
   7   2.0000     -10.303949      -280.3847
   8   2.0000     -10.297208      -280.2013
   9   2.0000     -10.296319      -280.1771
  10   2.0000     -10.285172      -279.8737
  11   2.0000     -10.285041      -279.8702
  12   2.0000     -10.283508      -279.8285
  13   2.0000     -10.281504      -279.7740
  14   2.0000     -10.278774      -279.6997
  15   2.0000     -10.267541      -279.3940
  16   2.0000      -8.082123      -219.9258
  17   2.0000      -8.079583      -219.8566
  18   2.0000      -6.040540      -164.3715
  19   2.0000      -6.038032      -164.3032
  20   2.0000      -6.036504      -164.2616
  21   2.0000      -6.034338      -164.2027
  22   2.0000      -6.033182      -164.1712
  23   2.0000      -6.030280      -164.0923
  24   2.0000      -1.002016       -27.2663
  25   2.0000      -0.982793       -26.7432
  26   2.0000      -0.916592       -24.9417
  27   2.0000      -0.913394       -24.8547
  28   2.0000      -0.865082       -23.5401
  29   2.0000      -0.852317       -23.1927
  30   2.0000      -0.845780       -23.0148
  31   2.0000      -0.814073       -22.1521
  32   2.0000      -0.785959       -21.3870
  33   2.0000      -0.772256       -21.0141
  34   2.0000      -0.706611       -19.2279
  35   2.0000      -0.702679       -19.1209
  36   2.0000      -0.691995       -18.8301
  37   2.0000      -0.656165       -17.8551
  38   2.0000      -0.645687       -17.5700
  39   2.0000      -0.614100       -16.7105
  40   2.0000      -0.597675       -16.2636
  41   2.0000      -0.574390       -15.6299
  42   2.0000      -0.567102       -15.4316
  43   2.0000      -0.558002       -15.1840
  44   2.0000      -0.533006       -14.5038
  45   2.0000      -0.528972       -14.3941
  46   2.0000      -0.515591       -14.0299
  47   2.0000      -0.508710       -13.8427
  48   2.0000      -0.507060       -13.7978
  49   2.0000      -0.496244       -13.5035
  50   2.0000      -0.491263       -13.3680
  51   2.0000      -0.478683       -13.0256
  52   2.0000      -0.471549       -12.8315
  53   2.0000      -0.464379       -12.6364
  54   2.0000      -0.458904       -12.4874
  55   2.0000      -0.453847       -12.3498
  56   2.0000      -0.442391       -12.0381
  57   2.0000      -0.439333       -11.9549
  58   2.0000      -0.436544       -11.8790
  59   2.0000      -0.427573       -11.6348
  60   2.0000      -0.420117       -11.4320
  61   2.0000      -0.418048       -11.3757
  62   2.0000      -0.397578       -10.8186
  63   2.0000      -0.335547        -9.1307
  64   2.0000      -0.330132        -8.9834
  65   2.0000      -0.316774        -8.6199
  66   2.0000      -0.313461        -8.5297
  67   0.0000       0.044945         1.2230
  68   0.0000       0.049043         1.3345
  69   0.0000       0.109781         2.9873
  70   0.0000       0.123342         3.3563
  71   0.0000       0.127925         3.4810

MULLIKEN ATOMIC CHARGES
-----------------------
   0 S :    0.117773
   1 C :   -0.117229
   2 C :   -0.102786
   3 C :    0.028519
   4 C :   -0.165200
   5 H :    0.031352
   6 C :    0.104143
   7 H :    0.024563
   8 H :    0.010027
   9 C :   -0.055101
  10 H :    0.000320
  11 H :    0.028168
  12 C :   -0.050824
  13 H :    0.056793
  14 H :    0.018650
  15 H :    0.036487
  16 S :    0.105893
  17 C :   -0.092710
  18 C :   -0.061960
  19 C :   -0.010726
  20 C :   -0.212905
  21 H :    0.048111
  22 C :    0.114083
  23 H :    0.004637
  24 H :    0.020585
  25 C :   -0.104566
  26 H :    0.006598
  27 H :    0.025562
  28 C :    0.031827
  29 H :    0.022840
  30 H :    0.018868
  31 H :    0.022887
  32 H :    0.034763
  33 H :    0.060557
Sum of atomic charges:   -0.0000000

LOEWDIN ATOMIC CHARGES
----------------------
   0 S :    0.420960
   1 C :   -0.187885
   2 C :   -0.056418
   3 C :   -0.069110
   4 C :   -0.213891
   5 H :    0.039850
   6 C :   -0.031467
   7 H :    0.032493
   8 H :    0.025028
   9 C :   -0.039663
  10 H :    0.012155
  11 H :    0.028937
  12 C :   -0.069637
  13 H :    0.035074
  14 H :    0.023611
  15 H :    0.028704
  16 S :    0.385077
  17 C :   -0.181876
  18 C :   -0.078604
  19 C :   -0.047708
  20 C :   -0.191264
  21 H :    0.047282
  22 C :   -0.032425
  23 H :    0.028274
  24 H :    0.028748
  25 C :   -0.044299
  26 H :    0.015976
  27 H :    0.025809
  28 C :   -0.051744
  29 H :    0.031217
  30 H :    0.017932
  31 H :    0.021092
  32 H :    0.016879
  33 H :    0.030892

  Mayer bond orders larger than 0.100000
B(  0-S ,  1-C ) :   1.1589 B(  0-S ,  4-C ) :   1.1624 B(  1-C ,  2-C ) :   1.5673
B(  1-C ,  4-C ) :   0.1003 B(  1-C , 32-H ) :   0.9830 B(  2-C ,  3-C ) :   1.2538
B(  2-C ,  6-C ) :   1.0146 B(  3-C ,  4-C ) :   1.5775 B(  3-C ,  5-H ) :   0.9854
B(  4-C , 20-C ) :   1.0024 B(  6-C ,  7-H ) :   0.9371 B(  6-C ,  8-H ) :   0.9332
B(  6-C ,  9-C ) :   1.0761 B(  9-C , 10-H ) :   0.9524 B(  9-C , 11-H ) :   0.9514
B(  9-C , 12-C ) :   1.0767 B( 12-C , 13-H ) :   0.9765 B( 12-C , 14-H ) :   0.9725
B( 12-C , 15-H ) :   0.9753 B( 16-S , 17-C ) :   1.1375 B( 16-S , 20-C ) :   1.1435
B( 17-C , 18-C ) :   1.6554 B( 17-C , 33-H ) :   0.9610 B( 18-C , 19-C ) :   1.2213
B( 18-C , 21-H ) :   0.9710 B( 19-C , 20-C ) :   1.6079 B( 19-C , 22-C ) :   1.0649
B( 22-C , 23-H ) :   0.9280 B( 22-C , 24-H ) :   0.9181 B( 22-C , 25-C ) :   1.0544
B( 25-C , 26-H ) :   0.9467 B( 25-C , 27-H ) :   0.9558 B( 25-C , 28-C ) :   1.0884
B( 28-C , 29-H ) :   0.9674 B( 28-C , 30-H ) :   0.9720 B( 28-C , 31-H ) :   0.9723

Dispersion correction           -0.014262536
FINAL SINGLE POINT ENERGY     -1339.867830458818

DIPOLE MOMENT
-------------
                                X             Y             Z
Electronic contribution:    -12.95031       7.97222     -21.47318
Nuclear contribution   :     13.21283      -8.28252      21.84993
                        -----------------------------------------
Total Dipole Moment    :      0.26252      -0.31029       0.37675
                        -----------------------------------------
Magnitude (a.u.)       :      0.55420
Magnitude (Debye)      :      1.40868

Rotational constants in cm-1:     0.018327     0.007928     0.006732
Rotational constants in MHz :   549.438485   237.677363   201.822914

                             ****ORCA TERMINATED NORMALLY****
TOTAL RUN TIME: 0 days 0 hours 0 minutes 33 seconds 761 msec
