                         Program Version 4.2.1 -  RELEASE  -
|  1> ! wB97X-D3 SP def2-SVP
|  2> %pal
|  3> nprocs 16
|  4> end
|  5>
|  6> * xyz 0 1
|  7> S 	 -34.9126 	 58.0794 	 107.474
|  8> C 	 -33.2837 	 57.4693 	 106.977
|  9> C 	 -32.4676 	 57.4294 	 108.081
| 10> C 	 -33.0573 	 57.9592 	 109.263
| 11> C 	 -34.3479 	 58.4063 	 109.098
| 12> H 	 -32.6299 	 58.1648 	 110.276
| 13> C 	 -31.0738 	 56.9274 	 108.063
| 14> H 	 -30.3337 	 57.7265 	 107.93
| 15> H 	 -31.074 	 56.3338 	 107.109
| 16> C 	 -30.7204 	 55.8816 	 109.228
| 17> H 	 -30.708 	 56.313 	 110.194
| 18> H 	 -31.6753 	 55.2708 	 109.271
| 19> C 	 -29.3934 	 55.2335 	 108.993
| 20> H 	 -28.6473 	 55.8977 	 109.32
| 21> H 	 -29.4572 	 54.3001 	 109.516
| 22> H 	 -29.2438 	 55.1164 	 107.937
| 23> S 	 -35.8196 	 60.663 	 109.625
| 24> C 	 -36.3777 	 60.9065 	 111.21
| 25> C 	 -36.2777 	 59.7841 	 112.004
| 26> C 	 -35.4812 	 58.8216 	 111.393
| 27> C 	 -35.1366 	 59.0827 	 110.064
| 28> H 	 -36.7383 	 59.7306 	 113.026
| 29> C 	 -34.9745 	 57.6043 	 112.093
| 30> H 	 -33.8639 	 57.6907 	 112.156
| 31> H 	 -35.2871 	 56.7233 	 111.477
| 32> C 	 -35.6085 	 57.3418 	 113.539
| 33> H 	 -36.7022 	 57.4197 	 113.554
| 34> H 	 -35.2569 	 58.1562 	 114.15
| 35> C 	 -35.1129 	 56.1052 	 114.272
| 36> H 	 -35.2684 	 55.2171 	 113.746
| 37> H 	 -35.6836 	 55.994 	 115.215
| 38> H 	 -34.0581 	 56.2234 	 114.4
| 39> H 	 -33.0425 	 57.1317 	 105.982
| 40> H 	 -36.7662 	 61.8241 	 111.557
| 41> *
| 42>
| 43>                          ****END OF INPUT****

CARTESIAN COORDINATES (ANGSTROEM)
---------------------------------
  S    -34.912600   58.079400  107.474000
  C    -33.283700   57.469300  106.977000
  C    -32.467600   57.429400  108.081000
  C    -33.057300   57.959200  109.263000
  C    -34.347900   58.406300  109.098000
  H    -32.629900   58.164800  110.276000
  C    -31.073800   56.927400  108.063000
  H    -30.333700   57.726500  107.930000
  H    -31.074000   56.333800  107.109000
  C    -30.720400   55.881600  109.228000
  H    -30.708000   56.313000  110.194000
  H    -31.675300   55.270800  109.271000
  C    -29.393400   55.233500  108.993000
  H    -28.647300   55.897700  109.320000
  H    -29.457200   54.300100  109.516000
  H    -29.243800   55.116400  107.937000
  S    -35.819600   60.663000  109.625000
  C    -36.377700   60.906500  111.210000
  C    -36.277700   59.784100  112.004000
  C    -35.481200   58.821600  111.393000
  C    -35.136600   59.082700  110.064000
  H    -36.738300   59.730600  113.026000
  C    -34.974500   57.604300  112.093000
  H    -33.863900   57.690700  112.156000
  H    -35.287100   56.723300  111.477000
  C    -35.608500   57.341800  113.539000
  H    -36.702200   57.419700  113.554000
  H    -35.256900   58.156200  114.150000
  C    -35.112900   56.105200  114.272000
  H    -35.268400   55.217100  113.746000
  H    -35.683600   55.994000  115.215000
  H    -34.058100   56.223400  114.400000
  H    -33.042500   57.131700  105.982000
  H    -36.766200   61.824100  111.557000

 Total Charge           Charge          ....    0
 Multiplicity           Mult            ....    1
 Number of Electrons    NEL             ....  134
 Basis Dimension        Dim             ....  322

ORBITAL ENERGIES
----------------

  NO   OCC          E(Eh)            E(eV)
   0   2.0000     -88.964753     -2420.8540
   1   2.0000     -88.962261     -2420.7862
   2   2.0000     -10.325143      -280.9614
   3   2.0000     -10.320593      -280.8376
   4   2.0000     -10.315394      -280.6961
   5   2.0000     -10.311944      -280.6023
   6   2.0000     -10.300946      -280.3030
   7   2.0000     -10.298597      -280.2391
   8   2.0000     -10.298355      -280.2325
   9   2.0000     -10.293629      -280.1039
  10   2.0000     -10.293035      -280.0877
  11   2.0000     -10.291614      -280.0491
  12   2.0000     -10.288542      -279.9655
  13   2.0000     -10.287651      -279.9412
  14   2.0000     -10.273742      -279.5627
  15   2.0000     -10.270520      -279.4751
  16   2.0000      -8.080144      -219.8719
  17   2.0000      -8.076288      -219.7670
  18   2.0000      -6.038395      -164.3131
  19   2.0000      -6.034871      -164.2172
  20   2.0000      -6.034495      -164.2070
  21   2.0000      -6.031191      -164.1171
  22   2.0000      -6.030970      -164.1110
  23   2.0000      -6.026930      -164.0011
  24   2.0000      -1.009933       -27.4817
  25   2.0000      -0.984500       -26.7896
  26   2.0000      -0.911612       -24.8062
  27   2.0000      -0.907019       -24.6813
  28   2.0000      -0.876374       -23.8474
  29   2.0000      -0.858506       -23.3611
  30   2.0000      -0.845613       -23.0103
  31   2.0000      -0.815164       -22.1817
  32   2.0000      -0.781561       -21.2674
  33   2.0000      -0.767556       -20.8863
  34   2.0000      -0.712623       -19.3915
  35   2.0000      -0.705672       -19.2023
  36   2.0000      -0.694777       -18.9058
  37   2.0000      -0.649016       -17.6606
  38   2.0000      -0.642549       -17.4846
  39   2.0000      -0.612799       -16.6751
  40   2.0000      -0.597614       -16.2619
  41   2.0000      -0.572298       -15.5730
  42   2.0000      -0.570243       -15.5171
  43   2.0000      -0.562182       -15.2977
  44   2.0000      -0.535851       -14.5812
  45   2.0000      -0.528475       -14.3805
  46   2.0000      -0.524027       -14.2595
  47   2.0000      -0.515660       -14.0318
  48   2.0000      -0.505491       -13.7551
  49   2.0000      -0.499318       -13.5871
  50   2.0000      -0.489263       -13.3135
  51   2.0000      -0.477719       -12.9994
  52   2.0000      -0.474091       -12.9007
  53   2.0000      -0.470181       -12.7943
  54   2.0000      -0.457527       -12.4499
  55   2.0000      -0.457389       -12.4462
  56   2.0000      -0.444946       -12.1076
  57   2.0000      -0.435270       -11.8443
  58   2.0000      -0.430164       -11.7054
  59   2.0000      -0.424219       -11.5436
  60   2.0000      -0.417749       -11.3675
  61   2.0000      -0.410397       -11.1675
  62   2.0000      -0.409203       -11.1350
  63   2.0000      -0.345361        -9.3977
  64   2.0000      -0.332737        -9.0542
  65   2.0000      -0.328137        -8.9291
  66   2.0000      -0.286457        -7.7949
  67   0.0000       0.029583         0.8050
  68   0.0000       0.065080         1.7709
  69   0.0000       0.114051         3.1035
  70   0.0000       0.131035         3.5656
  71   0.0000       0.133479         3.6322

MULLIKEN ATOMIC CHARGES
-----------------------
   0 S :    0.094145
   1 C :   -0.131423
   2 C :   -0.062824
   3 C :    0.003381
   4 C :   -0.151754
   5 H :    0.028101
   6 C :    0.036598
   7 H :    0.047592
   8 H :    0.018042
   9 C :   -0.129980
  10 H :    0.022313
  11 H :    0.040437
  12 C :    0.030483
  13 H :    0.025361
  14 H :    0.039927
  15 H :    0.018003
  16 S :    0.123451
  17 C :   -0.065523
  18 C :   -0.066576
  19 C :   -0.030560
  20 C :   -0.166196
  21 H :    0.040264
  22 C :    0.037090
  23 H :    0.045067
  24 H :    0.051163
  25 C :   -0.132953
  26 H :    0.038010
  27 H :    0.025053
  28 C :    0.011803
  29 H :    0.014738
  30 H :    0.037892
  31 H :    0.024555
  32 H :    0.045706
  33 H :    0.038614
Sum of atomic charges:    0.0000000

LOEWDIN ATOMIC CHARGES
----------------------
   0 S :    0.374407
   1 C :   -0.180847
   2 C :   -0.067622
   3 C :   -0.072945
   4 C :   -0.190089
   5 H :    0.038884
   6 C :   -0.036822
   7 H :    0.030696
   8 H :    0.032881
   9 C :   -0.041146
  10 H :    0.014077
  11 H :    0.030876
  12 C :   -0.053273
  13 H :    0.024139
  14 H :    0.031687
  15 H :    0.022488
  16 S :    0.427113
  17 C :   -0.185207
  18 C :   -0.084590
  19 C :   -0.055618
  20 C :   -0.205409
  21 H :    0.044188
  22 C :   -0.034600
  23 H :    0.035345
  24 H :    0.040962
  25 C :   -0.045672
  26 H :    0.022383
  27 H :    0.019879
  28 C :   -0.056149
  29 H :    0.014297
  30 H :    0.034522
  31 H :    0.023648
  32 H :    0.027422
  33 H :    0.020096

  Mayer bond orders larger than 0.100000
B(  0-S ,  1-C ) :   1.1073 B(  0-S ,  4-C ) :   1.1420 B(  1-C ,  2-C ) :   1.6254
B(  1-C , 32-H ) :   0.9719 B(  2-C ,  3-C ) :   1.2056 B(  2-C ,  6-C ) :   1.0308
B(  3-C ,  4-C ) :   1.5917 B(  3-C ,  5-H ) :   0.9853 B(  4-C , 20-C ) :   1.0745
B(  6-C ,  7-H ) :   0.9363 B(  6-C ,  8-H ) :   0.9412 B(  6-C ,  9-C ) :   1.0487
B(  9-C , 10-H ) :   0.9535 B(  9-C , 11-H ) :   0.9617 B(  9-C , 12-C ) :   1.0738
B( 12-C , 13-H ) :   0.9712 B( 12-C , 14-H ) :   0.9708 B( 12-C , 15-H ) :   0.9762
B( 16-S , 17-C ) :   1.2024 B( 16-S , 20-C ) :   1.1330 B( 17-C , 18-C ) :   1.5438
B( 17-C , 20-C ) :   0.1116 B( 17-C , 33-H ) :   0.9667 B( 18-C , 19-C ) :   1.2928
B( 18-C , 21-H ) :   0.9812 B( 19-C , 20-C ) :   1.5595 B( 19-C , 22-C ) :   1.0328
B( 22-C , 23-H ) :   0.9323 B( 22-C , 24-H ) :   0.9283 B( 22-C , 25-C ) :   1.0815
B( 25-C , 26-H ) :   0.9554 B( 25-C , 27-H ) :   0.9493 B( 25-C , 28-C ) :   1.0863
B( 28-C , 29-H ) :   0.9748 B( 28-C , 30-H ) :   0.9698 B( 28-C , 31-H ) :   0.9732

Dispersion correction           -0.013554423
FINAL SINGLE POINT ENERGY     -1339.867195624717

DIPOLE MOMENT
-------------
                                X             Y             Z
Electronic contribution:    -16.95216      19.62113     -16.92588
Nuclear contribution   :     17.34416     -19.86317      17.51846
                        -----------------------------------------
Total Dipole Moment    :      0.39201      -0.24203       0.59258
                        -----------------------------------------
Magnitude (a.u.)       :      0.75060
Magnitude (Debye)      :      1.90787

Rotational constants in cm-1:     0.016093     0.008923     0.006279
Rotational constants in MHz :   482.462083   267.499679   188.235292

                             ****ORCA TERMINATED NORMALLY****
TOTAL RUN TIME: 0 days 0 hours 0 minutes 30 seconds 197 msec
