                         Program Version 4.2.1 -  RELEASE  -
|  1> ! wB97X-D3 SP def2-SVP
|  2> %pal
|  3> nprocs 16
|  4> end
|  5>
|  6> * xyz 0 1
|  7> S 	 47.0112 	 11.5208 	 81.5245
|  8> C 	 45.5842 	 11.8117 	 82.4863
|  9> C 	 44.4201 	 11.8597 	 81.6371
| 10> C 	 44.8027 	 11.8858 	 80.2827
| 11> C 	 46.195 	 11.866 	 80.0403
| 12> H 	 44.1211 	 12.1148 	 79.4572
| 13> C 	 42.9606 	 11.9439 	 82.1586
| 14> H 	 42.5727 	 12.9754 	 82.0995
| 15> H 	 43.0883 	 11.7121 	 83.268
| 16> C 	 42.004 	 10.9044 	 81.5343
| 17> H 	 42.1565 	 10.8417 	 80.3892
| 18> H 	 42.3154 	 9.95097 	 81.8783
| 19> C 	 40.4783 	 11.0858 	 81.7297
| 20> H 	 40.0954 	 10.8533 	 82.7278
| 21> H 	 40.2863 	 12.08 	 81.4355
| 22> H 	 39.9035 	 10.4739 	 81.0387
| 23> S 	 48.361 	 11.4826 	 78.2462
| 24> C 	 48.3479 	 12.4445 	 76.796
| 25> C 	 47.4261 	 13.469 	 76.888
| 26> C 	 46.6457 	 13.4823 	 78.097
| 27> C 	 46.8495 	 12.2639 	 78.8108
| 28> H 	 47.2914 	 14.2477 	 76.128
| 29> C 	 45.7534 	 14.5992 	 78.3796
| 30> H 	 45.7014 	 14.6865 	 79.4789
| 31> H 	 44.7784 	 14.4686 	 77.9563
| 32> C 	 46.1554 	 15.9468 	 77.8144
| 33> H 	 46.1048 	 15.7247 	 76.7136
| 34> H 	 47.1535 	 16.1114 	 78.2409
| 35> C 	 45.0977 	 17.1617 	 78.0596
| 36> H 	 44.0856 	 16.9733 	 77.6995
| 37> H 	 45.5636 	 18.0583 	 77.6941
| 38> H 	 45.1398 	 17.1437 	 79.1466
| 39> H 	 45.625 	 11.7607 	 83.5851
| 40> H 	 49.0026 	 12.3814 	 75.9611
| 41> *
| 42>
| 43>                          ****END OF INPUT****

CARTESIAN COORDINATES (ANGSTROEM)
---------------------------------
  S     47.011200   11.520800   81.524500
  C     45.584200   11.811700   82.486300
  C     44.420100   11.859700   81.637100
  C     44.802700   11.885800   80.282700
  C     46.195000   11.866000   80.040300
  H     44.121100   12.114800   79.457200
  C     42.960600   11.943900   82.158600
  H     42.572700   12.975400   82.099500
  H     43.088300   11.712100   83.268000
  C     42.004000   10.904400   81.534300
  H     42.156500   10.841700   80.389200
  H     42.315400    9.950970   81.878300
  C     40.478300   11.085800   81.729700
  H     40.095400   10.853300   82.727800
  H     40.286300   12.080000   81.435500
  H     39.903500   10.473900   81.038700
  S     48.361000   11.482600   78.246200
  C     48.347900   12.444500   76.796000
  C     47.426100   13.469000   76.888000
  C     46.645700   13.482300   78.097000
  C     46.849500   12.263900   78.810800
  H     47.291400   14.247700   76.128000
  C     45.753400   14.599200   78.379600
  H     45.701400   14.686500   79.478900
  H     44.778400   14.468600   77.956300
  C     46.155400   15.946800   77.814400
  H     46.104800   15.724700   76.713600
  H     47.153500   16.111400   78.240900
  C     45.097700   17.161700   78.059600
  H     44.085600   16.973300   77.699500
  H     45.563600   18.058300   77.694100
  H     45.139800   17.143700   79.146600
  H     45.625000   11.760700   83.585100
  H     49.002600   12.381400   75.961100

 Total Charge           Charge          ....    0
 Multiplicity           Mult            ....    1
 Number of Electrons    NEL             ....  134
 Basis Dimension        Dim             ....  322

ORBITAL ENERGIES
----------------

  NO   OCC          E(Eh)            E(eV)
   0   2.0000     -88.967629     -2420.9323
   1   2.0000     -88.966792     -2420.9095
   2   2.0000     -10.332266      -281.1553
   3   2.0000     -10.328376      -281.0494
   4   2.0000     -10.322236      -280.8823
   5   2.0000     -10.315850      -280.7085
   6   2.0000     -10.309937      -280.5476
   7   2.0000     -10.304991      -280.4131
   8   2.0000     -10.304239      -280.3926
   9   2.0000     -10.295526      -280.1555
  10   2.0000     -10.295522      -280.1554
  11   2.0000     -10.292300      -280.0677
  12   2.0000     -10.291902      -280.0569
  13   2.0000     -10.287831      -279.9461
  14   2.0000     -10.284861      -279.8653
  15   2.0000     -10.277753      -279.6719
  16   2.0000      -8.082673      -219.9407
  17   2.0000      -8.080977      -219.8946
  18   2.0000      -6.041041      -164.3851
  19   2.0000      -6.039572      -164.3451
  20   2.0000      -6.037070      -164.2770
  21   2.0000      -6.035751      -164.2411
  22   2.0000      -6.033641      -164.1837
  23   2.0000      -6.031503      -164.1256
  24   2.0000      -1.002900       -27.2903
  25   2.0000      -0.980777       -26.6883
  26   2.0000      -0.916065       -24.9274
  27   2.0000      -0.904588       -24.6151
  28   2.0000      -0.865686       -23.5565
  29   2.0000      -0.849794       -23.1241
  30   2.0000      -0.842354       -22.9216
  31   2.0000      -0.809941       -22.0396
  32   2.0000      -0.785141       -21.3648
  33   2.0000      -0.770973       -20.9792
  34   2.0000      -0.706835       -19.2340
  35   2.0000      -0.699345       -19.0302
  36   2.0000      -0.691462       -18.8156
  37   2.0000      -0.645140       -17.5551
  38   2.0000      -0.639492       -17.4015
  39   2.0000      -0.618069       -16.8185
  40   2.0000      -0.600233       -16.3332
  41   2.0000      -0.582818       -15.8593
  42   2.0000      -0.567244       -15.4355
  43   2.0000      -0.554580       -15.0909
  44   2.0000      -0.523214       -14.2374
  45   2.0000      -0.520768       -14.1708
  46   2.0000      -0.518362       -14.1054
  47   2.0000      -0.508990       -13.8503
  48   2.0000      -0.505814       -13.7639
  49   2.0000      -0.501682       -13.6515
  50   2.0000      -0.499635       -13.5958
  51   2.0000      -0.477297       -12.9879
  52   2.0000      -0.468440       -12.7469
  53   2.0000      -0.465146       -12.6573
  54   2.0000      -0.460383       -12.5277
  55   2.0000      -0.451163       -12.2768
  56   2.0000      -0.449548       -12.2328
  57   2.0000      -0.443026       -12.0553
  58   2.0000      -0.431571       -11.7436
  59   2.0000      -0.426336       -11.6012
  60   2.0000      -0.418578       -11.3901
  61   2.0000      -0.413283       -11.2460
  62   2.0000      -0.397617       -10.8197
  63   2.0000      -0.343459        -9.3460
  64   2.0000      -0.333497        -9.0749
  65   2.0000      -0.327192        -8.9033
  66   2.0000      -0.281148        -7.6504
  67   0.0000       0.019830         0.5396
  68   0.0000       0.062165         1.6916
  69   0.0000       0.101990         2.7753
  70   0.0000       0.118199         3.2164
  71   0.0000       0.134213         3.6521

MULLIKEN ATOMIC CHARGES
-----------------------
   0 S :    0.121307
   1 C :   -0.145888
   2 C :   -0.093243
   3 C :    0.014350
   4 C :   -0.160816
   5 H :    0.022286
   6 C :    0.062200
   7 H :    0.043801
   8 H :    0.031204
   9 C :   -0.116406
  10 H :    0.039612
  11 H :    0.022641
  12 C :   -0.014172
  13 H :    0.037762
  14 H :    0.016202
  15 H :    0.029440
  16 S :    0.100433
  17 C :   -0.055920
  18 C :   -0.052174
  19 C :   -0.046581
  20 C :   -0.147285
  21 H :    0.024549
  22 C :    0.082917
  23 H :    0.036603
  24 H :    0.025933
  25 C :   -0.182801
  26 H :    0.045155
  27 H :    0.047942
  28 C :   -0.015219
  29 H :    0.044480
  30 H :    0.045142
  31 H :    0.030064
  32 H :    0.062666
  33 H :    0.043815
Sum of atomic charges:   -0.0000000

LOEWDIN ATOMIC CHARGES
----------------------
   0 S :    0.423274
   1 C :   -0.207111
   2 C :   -0.063470
   3 C :   -0.066459
   4 C :   -0.207623
   5 H :    0.033047
   6 C :   -0.034936
   7 H :    0.030683
   8 H :    0.037240
   9 C :   -0.045407
  10 H :    0.032324
  11 H :    0.018540
  12 C :   -0.060795
  13 H :    0.025448
  14 H :    0.018490
  15 H :    0.028883
  16 S :    0.388771
  17 C :   -0.181915
  18 C :   -0.073762
  19 C :   -0.047671
  20 C :   -0.189441
  21 H :    0.030905
  22 C :   -0.045644
  23 H :    0.034776
  24 H :    0.029825
  25 C :   -0.039973
  26 H :    0.023327
  27 H :    0.027597
  28 C :   -0.057521
  29 H :    0.027479
  30 H :    0.027634
  31 H :    0.026877
  32 H :    0.030292
  33 H :    0.026315

  Mayer bond orders larger than 0.100000
B(  0-S ,  1-C ) :   1.1706 B(  0-S ,  4-C ) :   1.1665 B(  1-C ,  2-C ) :   1.5406
B(  1-C ,  4-C ) :   0.1114 B(  1-C , 32-H ) :   0.9678 B(  2-C ,  3-C ) :   1.2935
B(  2-C ,  6-C ) :   1.0147 B(  3-C ,  4-C ) :   1.5167 B(  3-C ,  5-H ) :   0.9909
B(  4-C , 20-C ) :   1.0884 B(  6-C ,  7-H ) :   0.9450 B(  6-C ,  8-H ) :   0.9435
B(  6-C ,  9-C ) :   1.0486 B(  9-C , 10-H ) :   0.9607 B(  9-C , 11-H ) :   0.9569
B(  9-C , 12-C ) :   1.0776 B( 12-C , 13-H ) :   0.9772 B( 12-C , 14-H ) :   0.9741
B( 12-C , 15-H ) :   0.9740 B( 16-S , 17-C ) :   1.1475 B( 16-S , 20-C ) :   1.1222
B( 17-C , 18-C ) :   1.6112 B( 17-C , 33-H ) :   0.9690 B( 18-C , 19-C ) :   1.2476
B( 18-C , 21-H ) :   0.9779 B( 19-C , 20-C ) :   1.5461 B( 19-C , 22-C ) :   1.0677
B( 22-C , 23-H ) :   0.9202 B( 22-C , 24-H ) :   0.9199 B( 22-C , 25-C ) :   1.0610
B( 25-C , 26-H ) :   0.9441 B( 25-C , 27-H ) :   0.9651 B( 25-C , 28-C ) :   1.0622
B( 28-C , 29-H ) :   0.9748 B( 28-C , 30-H ) :   0.9758 B( 28-C , 31-H ) :   0.9785

Dispersion correction           -0.013465774
FINAL SINGLE POINT ENERGY     -1339.852230564207

DIPOLE MOMENT
-------------
                                X             Y             Z
Electronic contribution:     26.41725     -14.48672      -0.39363
Nuclear contribution   :    -26.99574      15.02218       0.32651
                        -----------------------------------------
Total Dipole Moment    :     -0.57849       0.53546      -0.06712
                        -----------------------------------------
Magnitude (a.u.)       :      0.79112
Magnitude (Debye)      :      2.01087

Rotational constants in cm-1:     0.016428     0.008169     0.006360
Rotational constants in MHz :   492.497390   244.907913   190.661832

                             ****ORCA TERMINATED NORMALLY****
TOTAL RUN TIME: 0 days 0 hours 0 minutes 29 seconds 249 msec
