                         Program Version 4.2.1 -  RELEASE  -
|  1> ! wB97X-D3 SP def2-SVP
|  2> %pal
|  3> nprocs 16
|  4> end
|  5>
|  6> * xyz 0 1
|  7> S 	 -4.61279 	 9.82686 	 86.0084
|  8> C 	 -4.45004 	 8.12489 	 86.3266
|  9> C 	 -4.16966 	 7.3895 	 85.2526
| 10> C 	 -4.024 	 8.21579 	 84.1366
| 11> C 	 -4.21757 	 9.59507 	 84.3341
| 12> H 	 -3.71852 	 7.86903 	 83.2177
| 13> C 	 -4.12522 	 5.92511 	 85.1461
| 14> H 	 -4.86421 	 5.73498 	 84.3023
| 15> H 	 -4.57983 	 5.47615 	 86.0645
| 16> C 	 -2.64964 	 5.38847 	 84.7655
| 17> H 	 -2.18673 	 5.68406 	 83.7776
| 18> H 	 -1.89888 	 5.80209 	 85.4222
| 19> C 	 -2.54818 	 3.91223 	 84.7055
| 20> H 	 -3.13269 	 3.56796 	 83.7991
| 21> H 	 -1.54642 	 3.49325 	 84.5087
| 22> H 	 -3.05866 	 3.47364 	 85.6203
| 23> S 	 -5.45021 	 11.9609 	 83.5076
| 24> C 	 -4.96595 	 12.6922 	 81.9722
| 25> C 	 -4.04868 	 11.8742 	 81.3447
| 26> C 	 -3.51589 	 10.778 	 82.1114
| 27> C 	 -4.16317 	 10.7 	 83.3873
| 28> H 	 -3.69716 	 12.0304 	 80.3624
| 29> C 	 -2.43924 	 9.97318 	 81.4611
| 30> H 	 -2.6438 	 9.96412 	 80.3654
| 31> H 	 -2.64477 	 8.92563 	 81.7376
| 32> C 	 -1.00357 	 10.4304 	 81.7516
| 33> H 	 -0.899941 	 11.4434 	 81.3904
| 34> H 	 -0.278694 	 9.87458 	 81.0976
| 35> C 	 -0.486302 	 10.24 	 83.1021
| 36> H 	 0.498483 	 10.6118 	 83.4065
| 37> H 	 -0.449113 	 9.17878 	 83.5146
| 38> H 	 -1.26754 	 10.7146 	 83.7559
| 39> H 	 -4.7683 	 7.68767 	 87.2787
| 40> H 	 -5.54615 	 13.3897 	 81.3986
| 41> *
| 42>
| 43>                          ****END OF INPUT****

CARTESIAN COORDINATES (ANGSTROEM)
---------------------------------
  S     -4.612790    9.826860   86.008400
  C     -4.450040    8.124890   86.326600
  C     -4.169660    7.389500   85.252600
  C     -4.024000    8.215790   84.136600
  C     -4.217570    9.595070   84.334100
  H     -3.718520    7.869030   83.217700
  C     -4.125220    5.925110   85.146100
  H     -4.864210    5.734980   84.302300
  H     -4.579830    5.476150   86.064500
  C     -2.649640    5.388470   84.765500
  H     -2.186730    5.684060   83.777600
  H     -1.898880    5.802090   85.422200
  C     -2.548180    3.912230   84.705500
  H     -3.132690    3.567960   83.799100
  H     -1.546420    3.493250   84.508700
  H     -3.058660    3.473640   85.620300
  S     -5.450210   11.960900   83.507600
  C     -4.965950   12.692200   81.972200
  C     -4.048680   11.874200   81.344700
  C     -3.515890   10.778000   82.111400
  C     -4.163170   10.700000   83.387300
  H     -3.697160   12.030400   80.362400
  C     -2.439240    9.973180   81.461100
  H     -2.643800    9.964120   80.365400
  H     -2.644770    8.925630   81.737600
  C     -1.003570   10.430400   81.751600
  H     -0.899941   11.443400   81.390400
  H     -0.278694    9.874580   81.097600
  C     -0.486302   10.240000   83.102100
  H      0.498483   10.611800   83.406500
  H     -0.449113    9.178780   83.514600
  H     -1.267540   10.714600   83.755900
  H     -4.768300    7.687670   87.278700
  H     -5.546150   13.389700   81.398600

 Total Charge           Charge          ....    0
 Multiplicity           Mult            ....    1
 Number of Electrons    NEL             ....  134
 Basis Dimension        Dim             ....  322

ORBITAL ENERGIES
----------------

  NO   OCC          E(Eh)            E(eV)
   0   2.0000     -88.969429     -2420.9812
   1   2.0000     -88.963354     -2420.8159
   2   2.0000     -10.340382      -281.3761
   3   2.0000     -10.331523      -281.1350
   4   2.0000     -10.319850      -280.8174
   5   2.0000     -10.309360      -280.5319
   6   2.0000     -10.308401      -280.5059
   7   2.0000     -10.306514      -280.4545
   8   2.0000     -10.300195      -280.2825
   9   2.0000     -10.295398      -280.1520
  10   2.0000     -10.292441      -280.0716
  11   2.0000     -10.289798      -279.9996
  12   2.0000     -10.287969      -279.9499
  13   2.0000     -10.285811      -279.8911
  14   2.0000     -10.285082      -279.8713
  15   2.0000     -10.276278      -279.6317
  16   2.0000      -8.082884      -219.9465
  17   2.0000      -8.078783      -219.8349
  18   2.0000      -6.041583      -164.3998
  19   2.0000      -6.037541      -164.2898
  20   2.0000      -6.037282      -164.2828
  21   2.0000      -6.033530      -164.1807
  22   2.0000      -6.033201      -164.1717
  23   2.0000      -6.029515      -164.0714
  24   2.0000      -1.008980       -27.4557
  25   2.0000      -0.982955       -26.7476
  26   2.0000      -0.916595       -24.9418
  27   2.0000      -0.912723       -24.8364
  28   2.0000      -0.874698       -23.8017
  29   2.0000      -0.855214       -23.2716
  30   2.0000      -0.850586       -23.1456
  31   2.0000      -0.813770       -22.1438
  32   2.0000      -0.783604       -21.3229
  33   2.0000      -0.772327       -21.0161
  34   2.0000      -0.710738       -19.3402
  35   2.0000      -0.696879       -18.9631
  36   2.0000      -0.693555       -18.8726
  37   2.0000      -0.665099       -18.0983
  38   2.0000      -0.640706       -17.4345
  39   2.0000      -0.625816       -17.0293
  40   2.0000      -0.595130       -16.1943
  41   2.0000      -0.567762       -15.4496
  42   2.0000      -0.559897       -15.2356
  43   2.0000      -0.556759       -15.1502
  44   2.0000      -0.543444       -14.7879
  45   2.0000      -0.529017       -14.3953
  46   2.0000      -0.515518       -14.0279
  47   2.0000      -0.514513       -14.0006
  48   2.0000      -0.510051       -13.8792
  49   2.0000      -0.498272       -13.5587
  50   2.0000      -0.491457       -13.3732
  51   2.0000      -0.483989       -13.1700
  52   2.0000      -0.479294       -13.0422
  53   2.0000      -0.461265       -12.5516
  54   2.0000      -0.456850       -12.4315
  55   2.0000      -0.449055       -12.2194
  56   2.0000      -0.439680       -11.9643
  57   2.0000      -0.435708       -11.8562
  58   2.0000      -0.433804       -11.8044
  59   2.0000      -0.428557       -11.6616
  60   2.0000      -0.419515       -11.4156
  61   2.0000      -0.409854       -11.1527
  62   2.0000      -0.398479       -10.8432
  63   2.0000      -0.356777        -9.7084
  64   2.0000      -0.332307        -9.0425
  65   2.0000      -0.330201        -8.9852
  66   2.0000      -0.284610        -7.7446
  67   0.0000       0.016385         0.4459
  68   0.0000       0.077562         2.1106
  69   0.0000       0.097159         2.6438
  70   0.0000       0.121383         3.3030
  71   0.0000       0.124886         3.3983

MULLIKEN ATOMIC CHARGES
-----------------------
   0 S :    0.100158
   1 C :   -0.139573
   2 C :   -0.043634
   3 C :    0.042703
   4 C :   -0.139933
   5 H :   -0.047980
   6 C :    0.044043
   7 H :    0.051317
   8 H :    0.032900
   9 C :   -0.084269
  10 H :    0.030853
  11 H :    0.031919
  12 C :   -0.067367
  13 H :    0.029724
  14 H :    0.042903
  15 H :    0.037644
  16 S :    0.087911
  17 C :   -0.059300
  18 C :   -0.036952
  19 C :   -0.080664
  20 C :   -0.102373
  21 H :    0.003059
  22 C :    0.054916
  23 H :    0.031907
  24 H :    0.015828
  25 C :   -0.015941
  26 H :    0.022583
  27 H :    0.025421
  28 C :   -0.077888
  29 H :    0.039846
  30 H :    0.030826
  31 H :    0.035739
  32 H :    0.042711
  33 H :    0.060961
Sum of atomic charges:   -0.0000000

LOEWDIN ATOMIC CHARGES
----------------------
   0 S :    0.409670
   1 C :   -0.197821
   2 C :   -0.077839
   3 C :   -0.053429
   4 C :   -0.194698
   5 H :    0.008000
   6 C :   -0.026968
   7 H :    0.045413
   8 H :    0.036297
   9 C :   -0.049802
  10 H :    0.032171
  11 H :    0.022688
  12 C :   -0.077952
  13 H :    0.028549
  14 H :    0.029105
  15 H :    0.027649
  16 S :    0.382590
  17 C :   -0.182713
  18 C :   -0.061573
  19 C :   -0.053743
  20 C :   -0.182102
  21 H :    0.021389
  22 C :   -0.033357
  23 H :    0.040475
  24 H :    0.028983
  25 C :   -0.044429
  26 H :    0.025876
  27 H :    0.027805
  28 C :   -0.081386
  29 H :    0.028641
  30 H :    0.031127
  31 H :    0.031882
  32 H :    0.027906
  33 H :    0.031598

  Mayer bond orders larger than 0.100000
B(  0-S ,  1-C ) :   1.1364 B(  0-S ,  4-C ) :   1.1556 B(  1-C ,  2-C ) :   1.6187
B(  1-C , 32-H ) :   0.9575 B(  2-C ,  3-C ) :   1.2671 B(  2-C ,  6-C ) :   1.0217
B(  3-C ,  4-C ) :   1.5431 B(  3-C ,  5-H ) :   1.0050 B(  4-C , 20-C ) :   1.0649
B(  6-C ,  7-H ) :   0.9392 B(  6-C ,  8-H ) :   0.9438 B(  6-C ,  9-C ) :   1.0268
B(  9-C , 10-H ) :   0.9546 B(  9-C , 11-H ) :   0.9591 B(  9-C , 12-C ) :   1.0936
B( 12-C , 13-H ) :   0.9726 B( 12-C , 14-H ) :   0.9720 B( 12-C , 15-H ) :   0.9713
B( 16-S , 17-C ) :   1.1377 B( 16-S , 20-C ) :   1.1359 B( 17-C , 18-C ) :   1.6068
B( 17-C , 33-H ) :   0.9645 B( 18-C , 19-C ) :   1.2706 B( 18-C , 21-H ) :   0.9846
B( 19-C , 20-C ) :   1.5520 B( 19-C , 22-C ) :   1.0379 B( 22-C , 23-H ) :   0.9299
B( 22-C , 24-H ) :   0.9315 B( 22-C , 25-C ) :   1.0716 B( 25-C , 26-H ) :   0.9478
B( 25-C , 27-H ) :   0.9467 B( 25-C , 28-C ) :   1.0845 B( 28-C , 29-H ) :   0.9712
B( 28-C , 30-H ) :   0.9700 B( 28-C , 31-H ) :   0.9703

Dispersion correction           -0.014557586
FINAL SINGLE POINT ENERGY     -1339.860359203716

DIPOLE MOMENT
-------------
                                X             Y             Z
Electronic contribution:    -18.87699      21.96350       7.29788
Nuclear contribution   :     19.12101     -22.52187      -7.86080
                        -----------------------------------------
Total Dipole Moment    :      0.24402      -0.55837      -0.56292
                        -----------------------------------------
Magnitude (a.u.)       :      0.82958
Magnitude (Debye)      :      2.10862

Rotational constants in cm-1:     0.019233     0.008816     0.006878
Rotational constants in MHz :   576.604975   264.290444   206.205515

                             ****ORCA TERMINATED NORMALLY****
TOTAL RUN TIME: 0 days 0 hours 0 minutes 35 seconds 801 msec
