                         Program Version 4.2.1 -  RELEASE  -
|  1> ! wB97X-D3 SP def2-SVP
|  2> %pal
|  3> nprocs 16
|  4> end
|  5>
|  6> * xyz 0 1
|  7> S 	 -14.1885 	 37.6159 	 57.2761
|  8> C 	 -13.696 	 38.0728 	 55.7127
|  9> C 	 -14.8018 	 38.3136 	 54.9522
| 10> C 	 -16.0182 	 38.0907 	 55.6491
| 11> C 	 -15.8561 	 37.8721 	 56.9536
| 12> H 	 -16.9543 	 38.2531 	 55.1684
| 13> C 	 -14.764 	 38.5332 	 53.4204
| 14> H 	 -15.1753 	 37.6776 	 52.9326
| 15> H 	 -13.7806 	 38.7134 	 53.0883
| 16> C 	 -15.5817 	 39.7207 	 52.8134
| 17> H 	 -15.7042 	 39.5815 	 51.788
| 18> H 	 -16.5669 	 39.7424 	 53.1601
| 19> C 	 -14.948 	 41.0441 	 53.1089
| 20> H 	 -15.2281 	 41.4546 	 54.0812
| 21> H 	 -13.8798 	 40.9869 	 52.999
| 22> H 	 -15.1576 	 41.7272 	 52.2917
| 23> S 	 -16.612 	 38.5312 	 59.5928
| 24> C 	 -18.2708 	 38.3147 	 60.0591
| 25> C 	 -18.8973 	 37.4553 	 59.1838
| 26> C 	 -18.078 	 37.0811 	 58.0084
| 27> C 	 -16.8468 	 37.7262 	 58.0147
| 28> H 	 -19.8174 	 36.9544 	 59.5038
| 29> C 	 -18.6084 	 36.1516 	 56.9986
| 30> H 	 -18.8183 	 35.189 	 57.4588
| 31> H 	 -17.8988 	 35.9608 	 56.272
| 32> C 	 -19.9463 	 36.5453 	 56.2371
| 33> H 	 -19.6532 	 37.4675 	 55.7836
| 34> H 	 -20.7983 	 36.6752 	 56.8801
| 35> C 	 -20.4394 	 35.5669 	 55.2182
| 36> H 	 -20.8318 	 34.6125 	 55.6146
| 37> H 	 -19.5869 	 35.2717 	 54.6053
| 38> H 	 -21.2567 	 35.9423 	 54.5578
| 39> H 	 -12.7114 	 38.2406 	 55.3604
| 40> H 	 -18.7009 	 38.4962 	 60.9938
| 41> *
| 42>
| 43>                          ****END OF INPUT****

CARTESIAN COORDINATES (ANGSTROEM)
---------------------------------
  S    -14.188500   37.615900   57.276100
  C    -13.696000   38.072800   55.712700
  C    -14.801800   38.313600   54.952200
  C    -16.018200   38.090700   55.649100
  C    -15.856100   37.872100   56.953600
  H    -16.954300   38.253100   55.168400
  C    -14.764000   38.533200   53.420400
  H    -15.175300   37.677600   52.932600
  H    -13.780600   38.713400   53.088300
  C    -15.581700   39.720700   52.813400
  H    -15.704200   39.581500   51.788000
  H    -16.566900   39.742400   53.160100
  C    -14.948000   41.044100   53.108900
  H    -15.228100   41.454600   54.081200
  H    -13.879800   40.986900   52.999000
  H    -15.157600   41.727200   52.291700
  S    -16.612000   38.531200   59.592800
  C    -18.270800   38.314700   60.059100
  C    -18.897300   37.455300   59.183800
  C    -18.078000   37.081100   58.008400
  C    -16.846800   37.726200   58.014700
  H    -19.817400   36.954400   59.503800
  C    -18.608400   36.151600   56.998600
  H    -18.818300   35.189000   57.458800
  H    -17.898800   35.960800   56.272000
  C    -19.946300   36.545300   56.237100
  H    -19.653200   37.467500   55.783600
  H    -20.798300   36.675200   56.880100
  C    -20.439400   35.566900   55.218200
  H    -20.831800   34.612500   55.614600
  H    -19.586900   35.271700   54.605300
  H    -21.256700   35.942300   54.557800
  H    -12.711400   38.240600   55.360400
  H    -18.700900   38.496200   60.993800

 Total Charge           Charge          ....    0
 Multiplicity           Mult            ....    1
 Number of Electrons    NEL             ....  134
 Basis Dimension        Dim             ....  322

ORBITAL ENERGIES
----------------

  NO   OCC          E(Eh)            E(eV)
   0   2.0000     -88.964355     -2420.8432
   1   2.0000     -88.961483     -2420.7650
   2   2.0000     -10.332167      -281.1525
   3   2.0000     -10.325460      -280.9701
   4   2.0000     -10.315534      -280.6999
   5   2.0000     -10.308506      -280.5087
   6   2.0000     -10.306647      -280.4581
   7   2.0000     -10.297449      -280.2078
   8   2.0000     -10.296744      -280.1887
   9   2.0000     -10.287454      -279.9359
  10   2.0000     -10.286572      -279.9119
  11   2.0000     -10.286311      -279.9048
  12   2.0000     -10.284564      -279.8572
  13   2.0000     -10.281290      -279.7681
  14   2.0000     -10.273143      -279.5464
  15   2.0000     -10.268812      -279.4286
  16   2.0000      -8.078850      -219.8367
  17   2.0000      -8.078110      -219.8166
  18   2.0000      -6.037620      -164.2920
  19   2.0000      -6.036588      -164.2639
  20   2.0000      -6.033457      -164.1787
  21   2.0000      -6.032295      -164.1471
  22   2.0000      -6.029263      -164.0646
  23   2.0000      -6.028841      -164.0531
  24   2.0000      -1.017699       -27.6930
  25   2.0000      -0.987143       -26.8615
  26   2.0000      -0.912690       -24.8356
  27   2.0000      -0.911988       -24.8164
  28   2.0000      -0.876786       -23.8586
  29   2.0000      -0.855311       -23.2742
  30   2.0000      -0.848255       -23.0822
  31   2.0000      -0.821859       -22.3639
  32   2.0000      -0.784240       -21.3403
  33   2.0000      -0.774657       -21.0795
  34   2.0000      -0.713368       -19.4117
  35   2.0000      -0.701783       -19.0965
  36   2.0000      -0.697927       -18.9916
  37   2.0000      -0.658693       -17.9240
  38   2.0000      -0.645523       -17.5656
  39   2.0000      -0.631858       -17.1937
  40   2.0000      -0.601402       -16.3650
  41   2.0000      -0.572300       -15.5731
  42   2.0000      -0.571260       -15.5448
  43   2.0000      -0.554168       -15.0797
  44   2.0000      -0.548320       -14.9205
  45   2.0000      -0.529834       -14.4175
  46   2.0000      -0.524488       -14.2721
  47   2.0000      -0.518099       -14.0982
  48   2.0000      -0.504573       -13.7301
  49   2.0000      -0.501717       -13.6524
  50   2.0000      -0.491114       -13.3639
  51   2.0000      -0.484773       -13.1913
  52   2.0000      -0.471219       -12.8225
  53   2.0000      -0.466216       -12.6864
  54   2.0000      -0.462168       -12.5762
  55   2.0000      -0.455833       -12.4039
  56   2.0000      -0.444942       -12.1075
  57   2.0000      -0.439073       -11.9478
  58   2.0000      -0.426389       -11.6026
  59   2.0000      -0.423252       -11.5173
  60   2.0000      -0.419658       -11.4195
  61   2.0000      -0.419395       -11.4123
  62   2.0000      -0.414487       -11.2788
  63   2.0000      -0.355457        -9.6725
  64   2.0000      -0.329832        -8.9752
  65   2.0000      -0.322863        -8.7855
  66   2.0000      -0.296859        -8.0779
  67   0.0000       0.029621         0.8060
  68   0.0000       0.074211         2.0194
  69   0.0000       0.110909         3.0180
  70   0.0000       0.121590         3.3086
  71   0.0000       0.132718         3.6114

MULLIKEN ATOMIC CHARGES
-----------------------
   0 S :    0.106120
   1 C :   -0.094105
   2 C :   -0.094181
   3 C :    0.014634
   4 C :   -0.115434
   5 H :   -0.003898
   6 C :    0.079452
   7 H :    0.029827
   8 H :    0.001508
   9 C :   -0.043284
  10 H :    0.007762
  11 H :    0.006792
  12 C :   -0.037746
  13 H :    0.050737
  14 H :    0.008649
  15 H :    0.021086
  16 S :    0.100309
  17 C :   -0.055292
  18 C :   -0.048876
  19 C :   -0.031559
  20 C :   -0.135857
  21 H :    0.030301
  22 C :    0.081439
  23 H :    0.026605
  24 H :   -0.004491
  25 C :   -0.062053
  26 H :    0.024505
  27 H :    0.028044
  28 C :   -0.062079
  29 H :    0.028794
  30 H :    0.020724
  31 H :    0.046134
  32 H :    0.032673
  33 H :    0.042760
Sum of atomic charges:    0.0000000

LOEWDIN ATOMIC CHARGES
----------------------
   0 S :    0.431628
   1 C :   -0.202366
   2 C :   -0.064522
   3 C :   -0.065108
   4 C :   -0.194490
   5 H :    0.026034
   6 C :   -0.016896
   7 H :    0.029802
   8 H :    0.018786
   9 C :   -0.036430
  10 H :    0.017473
  11 H :    0.014624
  12 C :   -0.064137
  13 H :    0.030479
  14 H :    0.019429
  15 H :    0.027348
  16 S :    0.390826
  17 C :   -0.177654
  18 C :   -0.069635
  19 C :   -0.047672
  20 C :   -0.188705
  21 H :    0.033071
  22 C :   -0.028954
  23 H :    0.034855
  24 H :    0.017904
  25 C :   -0.034582
  26 H :    0.020022
  27 H :    0.021184
  28 C :   -0.071835
  29 H :    0.025428
  30 H :    0.021933
  31 H :    0.034092
  32 H :    0.025338
  33 H :    0.022730

  Mayer bond orders larger than 0.100000
B(  0-S ,  1-C ) :   1.1417 B(  0-S ,  4-C ) :   1.1607 B(  1-C ,  2-C ) :   1.6129
B(  1-C , 32-H ) :   0.9735 B(  2-C ,  3-C ) :   1.2466 B(  2-C ,  6-C ) :   1.0225
B(  3-C ,  4-C ) :   1.5789 B(  3-C ,  5-H ) :   1.0078 B(  4-C , 20-C ) :   1.0250
B(  6-C ,  7-H ) :   0.9420 B(  6-C ,  8-H ) :   0.9474 B(  6-C ,  9-C ) :   1.0791
B(  9-C , 10-H ) :   0.9531 B(  9-C , 11-H ) :   0.9520 B(  9-C , 12-C ) :   1.0815
B( 12-C , 13-H ) :   0.9778 B( 12-C , 14-H ) :   0.9732 B( 12-C , 15-H ) :   0.9714
B( 16-S , 17-C ) :   1.1430 B( 16-S , 20-C ) :   1.1142 B( 17-C , 18-C ) :   1.6429
B( 17-C , 33-H ) :   0.9693 B( 18-C , 19-C ) :   1.2011 B( 18-C , 21-H ) :   0.9814
B( 19-C , 20-C ) :   1.5996 B( 19-C , 22-C ) :   1.0887 B( 22-C , 23-H ) :   0.9219
B( 22-C , 24-H ) :   0.9238 B( 22-C , 25-C ) :   1.0519 B( 25-C , 26-H ) :   0.9562
B( 25-C , 27-H ) :   0.9541 B( 25-C , 28-C ) :   1.0930 B( 28-C , 29-H ) :   0.9721
B( 28-C , 30-H ) :   0.9715 B( 28-C , 31-H ) :   0.9723

Dispersion correction           -0.013827203
FINAL SINGLE POINT ENERGY     -1339.866820723178

DIPOLE MOMENT
-------------
                                X             Y             Z
Electronic contribution:     13.20870      -0.18660      25.42720
Nuclear contribution   :    -13.66861      -0.01761     -25.96968
                        -----------------------------------------
Total Dipole Moment    :     -0.45992      -0.20422      -0.54248
                        -----------------------------------------
Magnitude (a.u.)       :      0.73994
Magnitude (Debye)      :      1.88077

Rotational constants in cm-1:     0.016272     0.009098     0.006850
Rotational constants in MHz :   487.812313   272.737359   205.351773

                             ****ORCA TERMINATED NORMALLY****
TOTAL RUN TIME: 0 days 0 hours 0 minutes 35 seconds 239 msec
