                         Program Version 4.2.1 -  RELEASE  -
|  1> ! wB97X-D3 SP def2-SVP
|  2> %pal
|  3> nprocs 16
|  4> end
|  5>
|  6> * xyz 0 1
|  7> S 	 -38.2709 	 34.2677 	 81.34
|  8> C 	 -37.5523 	 33.3018 	 80.1005
|  9> C 	 -37.9274 	 31.9559 	 80.1769
| 10> C 	 -38.982 	 31.7737 	 81.1427
| 11> C 	 -39.1514 	 32.8855 	 81.9227
| 12> H 	 -39.4988 	 30.8784 	 81.5392
| 13> C 	 -37.4407 	 30.9331 	 79.2375
| 14> H 	 -37.3149 	 29.9851 	 79.7646
| 15> H 	 -36.4141 	 31.256 	 78.9777
| 16> C 	 -38.255 	 30.7412 	 77.9765
| 17> H 	 -39.253 	 30.365 	 78.2033
| 18> H 	 -38.3093 	 31.7612 	 77.6782
| 19> C 	 -37.5581 	 30.025 	 76.8044
| 20> H 	 -38.1924 	 30.2357 	 75.9741
| 21> H 	 -36.6335 	 30.516 	 76.4692
| 22> H 	 -37.4363 	 28.9149 	 76.9187
| 23> S 	 -41.7235 	 33.0971 	 82.7943
| 24> C 	 -41.9991 	 33.2236 	 84.5432
| 25> C 	 -40.8373 	 33.3724 	 85.2956
| 26> C 	 -39.6995 	 33.2963 	 84.3862
| 27> C 	 -40.0023 	 33.0654 	 83.0968
| 28> H 	 -40.6908 	 33.6324 	 86.3269
| 29> C 	 -38.3571 	 33.3278 	 84.9435
| 30> H 	 -37.7099 	 32.8115 	 84.1921
| 31> H 	 -38.1911 	 32.737 	 85.9146
| 32> C 	 -37.8774 	 34.7243 	 85.1953
| 33> H 	 -38.3567 	 35.0924 	 86.1355
| 34> H 	 -38.1015 	 35.3721 	 84.3532
| 35> C 	 -36.3349 	 34.73 	 85.3559
| 36> H 	 -35.9664 	 35.7599 	 85.513
| 37> H 	 -35.8012 	 34.3989 	 84.4778
| 38> H 	 -36.0064 	 34.0941 	 86.2145
| 39> H 	 -36.8394 	 33.6561 	 79.4225
| 40> H 	 -42.9147 	 33.2236 	 85.0823
| 41> *
| 42>
| 43>                          ****END OF INPUT****

CARTESIAN COORDINATES (ANGSTROEM)
---------------------------------
  S    -38.270900   34.267700   81.340000
  C    -37.552300   33.301800   80.100500
  C    -37.927400   31.955900   80.176900
  C    -38.982000   31.773700   81.142700
  C    -39.151400   32.885500   81.922700
  H    -39.498800   30.878400   81.539200
  C    -37.440700   30.933100   79.237500
  H    -37.314900   29.985100   79.764600
  H    -36.414100   31.256000   78.977700
  C    -38.255000   30.741200   77.976500
  H    -39.253000   30.365000   78.203300
  H    -38.309300   31.761200   77.678200
  C    -37.558100   30.025000   76.804400
  H    -38.192400   30.235700   75.974100
  H    -36.633500   30.516000   76.469200
  H    -37.436300   28.914900   76.918700
  S    -41.723500   33.097100   82.794300
  C    -41.999100   33.223600   84.543200
  C    -40.837300   33.372400   85.295600
  C    -39.699500   33.296300   84.386200
  C    -40.002300   33.065400   83.096800
  H    -40.690800   33.632400   86.326900
  C    -38.357100   33.327800   84.943500
  H    -37.709900   32.811500   84.192100
  H    -38.191100   32.737000   85.914600
  C    -37.877400   34.724300   85.195300
  H    -38.356700   35.092400   86.135500
  H    -38.101500   35.372100   84.353200
  C    -36.334900   34.730000   85.355900
  H    -35.966400   35.759900   85.513000
  H    -35.801200   34.398900   84.477800
  H    -36.006400   34.094100   86.214500
  H    -36.839400   33.656100   79.422500
  H    -42.914700   33.223600   85.082300

 Total Charge           Charge          ....    0
 Multiplicity           Mult            ....    1
 Number of Electrons    NEL             ....  134
 Basis Dimension        Dim             ....  322

ORBITAL ENERGIES
----------------

  NO   OCC          E(Eh)            E(eV)
   0   2.0000     -88.967398     -2420.9260
   1   2.0000     -88.966354     -2420.8976
   2   2.0000     -10.325008      -280.9578
   3   2.0000     -10.318661      -280.7850
   4   2.0000     -10.317601      -280.7562
   5   2.0000     -10.310402      -280.5603
   6   2.0000     -10.302716      -280.3512
   7   2.0000     -10.297447      -280.2078
   8   2.0000     -10.294499      -280.1276
   9   2.0000     -10.291981      -280.0590
  10   2.0000     -10.286150      -279.9004
  11   2.0000     -10.285411      -279.8803
  12   2.0000     -10.284421      -279.8533
  13   2.0000     -10.282885      -279.8115
  14   2.0000     -10.281641      -279.7777
  15   2.0000     -10.276880      -279.6481
  16   2.0000      -8.082454      -219.9348
  17   2.0000      -8.080665      -219.8861
  18   2.0000      -6.040771      -164.3777
  19   2.0000      -6.039355      -164.3392
  20   2.0000      -6.036894      -164.2722
  21   2.0000      -6.035384      -164.2311
  22   2.0000      -6.033438      -164.1782
  23   2.0000      -6.031100      -164.1146
  24   2.0000      -1.010156       -27.4877
  25   2.0000      -0.985352       -26.8128
  26   2.0000      -0.917814       -24.9750
  27   2.0000      -0.913573       -24.8596
  28   2.0000      -0.869321       -23.6554
  29   2.0000      -0.852321       -23.1928
  30   2.0000      -0.846675       -23.0392
  31   2.0000      -0.819002       -22.2862
  32   2.0000      -0.781551       -21.2671
  33   2.0000      -0.765490       -20.8300
  34   2.0000      -0.704188       -19.1619
  35   2.0000      -0.697238       -18.9728
  36   2.0000      -0.690607       -18.7924
  37   2.0000      -0.672157       -18.2903
  38   2.0000      -0.647754       -17.6263
  39   2.0000      -0.611768       -16.6470
  40   2.0000      -0.597225       -16.2513
  41   2.0000      -0.576173       -15.6785
  42   2.0000      -0.565079       -15.3766
  43   2.0000      -0.559116       -15.2143
  44   2.0000      -0.527184       -14.3454
  45   2.0000      -0.522917       -14.2293
  46   2.0000      -0.516221       -14.0471
  47   2.0000      -0.512359       -13.9420
  48   2.0000      -0.507665       -13.8143
  49   2.0000      -0.496012       -13.4972
  50   2.0000      -0.491103       -13.3636
  51   2.0000      -0.475003       -12.9255
  52   2.0000      -0.473103       -12.8738
  53   2.0000      -0.465213       -12.6591
  54   2.0000      -0.457435       -12.4474
  55   2.0000      -0.449215       -12.2238
  56   2.0000      -0.441384       -12.0107
  57   2.0000      -0.434453       -11.8221
  58   2.0000      -0.432795       -11.7769
  59   2.0000      -0.430871       -11.7246
  60   2.0000      -0.418306       -11.3827
  61   2.0000      -0.415375       -11.3029
  62   2.0000      -0.409049       -11.1308
  63   2.0000      -0.339833        -9.2473
  64   2.0000      -0.332513        -9.0481
  65   2.0000      -0.323191        -8.7945
  66   2.0000      -0.303977        -8.2716
  67   0.0000       0.040844         1.1114
  68   0.0000       0.065296         1.7768
  69   0.0000       0.106890         2.9086
  70   0.0000       0.111431         3.0322
  71   0.0000       0.128095         3.4856

MULLIKEN ATOMIC CHARGES
-----------------------
   0 S :    0.126765
   1 C :   -0.097339
   2 C :   -0.099449
   3 C :    0.040033
   4 C :   -0.198172
   5 H :    0.030277
   6 C :    0.070234
   7 H :    0.020041
   8 H :    0.012253
   9 C :   -0.051602
  10 H :    0.033774
  11 H :    0.009282
  12 C :   -0.038693
  13 H :    0.025331
  14 H :    0.026635
  15 H :    0.048164
  16 S :    0.119760
  17 C :   -0.061794
  18 C :   -0.018072
  19 C :   -0.007749
  20 C :   -0.172169
  21 H :    0.019474
  22 C :   -0.009926
  23 H :    0.032372
  24 H :    0.038150
  25 C :   -0.068505
  26 H :    0.033001
  27 H :    0.029260
  28 C :   -0.052848
  29 H :    0.031797
  30 H :    0.031203
  31 H :    0.029877
  32 H :    0.026596
  33 H :    0.042039
Sum of atomic charges:   -0.0000000

LOEWDIN ATOMIC CHARGES
----------------------
   0 S :    0.423966
   1 C :   -0.195976
   2 C :   -0.058218
   3 C :   -0.063772
   4 C :   -0.199267
   5 H :    0.042696
   6 C :   -0.040171
   7 H :    0.026873
   8 H :    0.031611
   9 C :   -0.037151
  10 H :    0.026497
  11 H :    0.022666
  12 C :   -0.067393
  13 H :    0.026093
  14 H :    0.027694
  15 H :    0.029986
  16 S :    0.397635
  17 C :   -0.168189
  18 C :   -0.060083
  19 C :   -0.058918
  20 C :   -0.210885
  21 H :    0.031446
  22 C :   -0.048182
  23 H :    0.032063
  24 H :    0.037567
  25 C :   -0.038619
  26 H :    0.026501
  27 H :    0.019969
  28 C :   -0.067739
  29 H :    0.025709
  30 H :    0.022183
  31 H :    0.025934
  32 H :    0.014663
  33 H :    0.022811

  Mayer bond orders larger than 0.100000
B(  0-S ,  1-C ) :   1.1461 B(  0-S ,  4-C ) :   1.1599 B(  1-C ,  2-C ) :   1.6021
B(  1-C , 32-H ) :   0.9731 B(  2-C ,  3-C ) :   1.2089 B(  2-C ,  6-C ) :   1.0548
B(  3-C ,  4-C ) :   1.6138 B(  3-C ,  5-H ) :   0.9822 B(  4-C , 20-C ) :   0.9961
B(  6-C ,  7-H ) :   0.9269 B(  6-C ,  8-H ) :   0.9327 B(  6-C ,  9-C ) :   1.0607
B(  9-C , 10-H ) :   0.9541 B(  9-C , 11-H ) :   0.9506 B(  9-C , 12-C ) :   1.0896
B( 12-C , 13-H ) :   0.9721 B( 12-C , 14-H ) :   0.9700 B( 12-C , 15-H ) :   0.9753
B( 16-S , 17-C ) :   1.1401 B( 16-S , 20-C ) :   1.1125 B( 17-C , 18-C ) :   1.6345
B( 17-C , 33-H ) :   0.9666 B( 18-C , 19-C ) :   1.2045 B( 18-C , 21-H ) :   0.9871
B( 19-C , 20-C ) :   1.6628 B( 19-C , 22-C ) :   1.0648 B( 22-C , 23-H ) :   0.9351
B( 22-C , 24-H ) :   0.9360 B( 22-C , 25-C ) :   1.0546 B( 25-C , 26-H ) :   0.9523
B( 25-C , 27-H ) :   0.9529 B( 25-C , 28-C ) :   1.0875 B( 28-C , 29-H ) :   0.9750
B( 28-C , 30-H ) :   0.9754 B( 28-C , 31-H ) :   0.9716

Dispersion correction           -0.014449797
FINAL SINGLE POINT ENERGY     -1339.878239919184

DIPOLE MOMENT
-------------
                                X             Y             Z
Electronic contribution:    -16.79052       7.14405       4.54694
Nuclear contribution   :     17.09500      -7.33495      -4.52538
                        -----------------------------------------
Total Dipole Moment    :      0.30448      -0.19090       0.02157
                        -----------------------------------------
Magnitude (a.u.)       :      0.36002
Magnitude (Debye)      :      0.91510

Rotational constants in cm-1:     0.021927     0.007783     0.006327
Rotational constants in MHz :   657.365238   233.329321   189.687113

                             ****ORCA TERMINATED NORMALLY****
TOTAL RUN TIME: 0 days 0 hours 0 minutes 29 seconds 918 msec
