                         Program Version 4.2.1 -  RELEASE  -
|  1> ! wB97X-D3 SP def2-SVP
|  2> %pal
|  3> nprocs 16
|  4> end
|  5>
|  6> * xyz 0 1
|  7> S 	 34.012 	 30.8238 	 55.9197
|  8> C 	 34.5684 	 32.3516 	 55.351
|  9> C 	 34.5822 	 32.2581 	 53.9609
| 10> C 	 33.861 	 31.1408 	 53.3941
| 11> C 	 33.425 	 30.2941 	 54.3809
| 12> H 	 33.7958 	 30.8787 	 52.3226
| 13> C 	 35.2587 	 33.2919 	 53.1221
| 14> H 	 36.1936 	 33.6711 	 53.4557
| 15> H 	 34.6117 	 34.2255 	 53.1342
| 16> C 	 35.587 	 32.8786 	 51.6521
| 17> H 	 34.788 	 32.4164 	 51.1263
| 18> H 	 35.7937 	 33.8302 	 51.1539
| 19> C 	 36.8281 	 31.858 	 51.5765
| 20> H 	 37.0408 	 31.7036 	 50.4808
| 21> H 	 37.7851 	 32.3083 	 51.9249
| 22> H 	 36.6997 	 30.9093 	 52.081
| 23> S 	 34.08 	 27.7231 	 53.4064
| 24> C 	 32.7689 	 26.5699 	 53.4209
| 25> C 	 31.6105 	 27.0587 	 53.9531
| 26> C 	 31.7211 	 28.3454 	 54.4186
| 27> C 	 32.9716 	 28.8996 	 54.1916
| 28> H 	 30.7222 	 26.4372 	 54.0238
| 29> C 	 30.5 	 28.9935 	 54.9305
| 30> H 	 30.8598 	 29.8333 	 55.4956
| 31> H 	 30.1082 	 28.3521 	 55.6901
| 32> C 	 29.461 	 29.6261 	 53.9441
| 33> H 	 29.1199 	 28.7686 	 53.275
| 34> H 	 29.9727 	 30.4336 	 53.4418
| 35> C 	 28.325 	 30.14 	 54.7492
| 36> H 	 28.4485 	 30.8066 	 55.5765
| 37> H 	 27.7814 	 29.251 	 55.0912
| 38> H 	 27.6506 	 30.5824 	 54.0634
| 39> H 	 35.1362 	 33.1317 	 55.7271
| 40> H 	 32.8705 	 25.4955 	 53.1601
| 41> *
| 42>
| 43>                          ****END OF INPUT****

CARTESIAN COORDINATES (ANGSTROEM)
---------------------------------
  S     34.012000   30.823800   55.919700
  C     34.568400   32.351600   55.351000
  C     34.582200   32.258100   53.960900
  C     33.861000   31.140800   53.394100
  C     33.425000   30.294100   54.380900
  H     33.795800   30.878700   52.322600
  C     35.258700   33.291900   53.122100
  H     36.193600   33.671100   53.455700
  H     34.611700   34.225500   53.134200
  C     35.587000   32.878600   51.652100
  H     34.788000   32.416400   51.126300
  H     35.793700   33.830200   51.153900
  C     36.828100   31.858000   51.576500
  H     37.040800   31.703600   50.480800
  H     37.785100   32.308300   51.924900
  H     36.699700   30.909300   52.081000
  S     34.080000   27.723100   53.406400
  C     32.768900   26.569900   53.420900
  C     31.610500   27.058700   53.953100
  C     31.721100   28.345400   54.418600
  C     32.971600   28.899600   54.191600
  H     30.722200   26.437200   54.023800
  C     30.500000   28.993500   54.930500
  H     30.859800   29.833300   55.495600
  H     30.108200   28.352100   55.690100
  C     29.461000   29.626100   53.944100
  H     29.119900   28.768600   53.275000
  H     29.972700   30.433600   53.441800
  C     28.325000   30.140000   54.749200
  H     28.448500   30.806600   55.576500
  H     27.781400   29.251000   55.091200
  H     27.650600   30.582400   54.063400
  H     35.136200   33.131700   55.727100
  H     32.870500   25.495500   53.160100

 Total Charge           Charge          ....    0
 Multiplicity           Mult            ....    1
 Number of Electrons    NEL             ....  134
 Basis Dimension        Dim             ....  322

ORBITAL ENERGIES
----------------

  NO   OCC          E(Eh)            E(eV)
   0   2.0000     -88.969301     -2420.9778
   1   2.0000     -88.964598     -2420.8498
   2   2.0000     -10.326880      -281.0087
   3   2.0000     -10.326237      -280.9912
   4   2.0000     -10.317371      -280.7499
   5   2.0000     -10.304705      -280.4053
   6   2.0000     -10.298327      -280.2317
   7   2.0000     -10.294861      -280.1374
   8   2.0000     -10.292749      -280.0799
   9   2.0000     -10.291169      -280.0370
  10   2.0000     -10.290646      -280.0227
  11   2.0000     -10.289904      -280.0025
  12   2.0000     -10.285348      -279.8785
  13   2.0000     -10.283700      -279.8337
  14   2.0000     -10.277873      -279.6751
  15   2.0000     -10.268798      -279.4282
  16   2.0000      -8.083156      -219.9539
  17   2.0000      -8.079508      -219.8546
  18   2.0000      -6.041589      -164.4000
  19   2.0000      -6.038026      -164.3030
  20   2.0000      -6.037869      -164.2988
  21   2.0000      -6.033991      -164.1932
  22   2.0000      -6.033903      -164.1909
  23   2.0000      -6.030290      -164.0925
  24   2.0000      -1.008453       -27.4414
  25   2.0000      -0.988752       -26.9053
  26   2.0000      -0.913605       -24.8605
  27   2.0000      -0.904980       -24.6258
  28   2.0000      -0.867837       -23.6150
  29   2.0000      -0.861305       -23.4373
  30   2.0000      -0.836319       -22.7574
  31   2.0000      -0.816274       -22.2120
  32   2.0000      -0.782182       -21.2843
  33   2.0000      -0.768582       -20.9142
  34   2.0000      -0.711098       -19.3500
  35   2.0000      -0.698805       -19.0154
  36   2.0000      -0.689521       -18.7628
  37   2.0000      -0.664431       -18.0801
  38   2.0000      -0.633274       -17.2323
  39   2.0000      -0.621627       -16.9153
  40   2.0000      -0.598204       -16.2780
  41   2.0000      -0.574038       -15.6204
  42   2.0000      -0.569190       -15.4885
  43   2.0000      -0.542237       -14.7550
  44   2.0000      -0.530013       -14.4224
  45   2.0000      -0.524248       -14.2655
  46   2.0000      -0.517425       -14.0799
  47   2.0000      -0.513272       -13.9668
  48   2.0000      -0.504749       -13.7349
  49   2.0000      -0.497680       -13.5426
  50   2.0000      -0.490489       -13.3469
  51   2.0000      -0.475790       -12.9469
  52   2.0000      -0.470162       -12.7938
  53   2.0000      -0.466090       -12.6830
  54   2.0000      -0.460380       -12.5276
  55   2.0000      -0.447104       -12.1663
  56   2.0000      -0.446943       -12.1619
  57   2.0000      -0.431974       -11.7546
  58   2.0000      -0.428301       -11.6547
  59   2.0000      -0.426802       -11.6139
  60   2.0000      -0.422461       -11.4957
  61   2.0000      -0.414599       -11.2818
  62   2.0000      -0.408459       -11.1147
  63   2.0000      -0.338449        -9.2097
  64   2.0000      -0.332126        -9.0376
  65   2.0000      -0.320694        -8.7265
  66   2.0000      -0.301000        -8.1906
  67   0.0000       0.038164         1.0385
  68   0.0000       0.053873         1.4660
  69   0.0000       0.103237         2.8092
  70   0.0000       0.128076         3.4851
  71   0.0000       0.135915         3.6984

MULLIKEN ATOMIC CHARGES
-----------------------
   0 S :    0.123254
   1 C :   -0.048829
   2 C :   -0.135847
   3 C :    0.010401
   4 C :   -0.141096
   5 H :    0.030718
   6 C :    0.033406
   7 H :    0.013793
   8 H :    0.047725
   9 C :   -0.072667
  10 H :    0.027781
  11 H :    0.030081
  12 C :   -0.089541
  13 H :    0.039759
  14 H :    0.031275
  15 H :    0.051513
  16 S :    0.119897
  17 C :   -0.099730
  18 C :   -0.037320
  19 C :    0.004156
  20 C :   -0.192031
  21 H :    0.014948
  22 C :    0.055959
  23 H :   -0.000943
  24 H :    0.015804
  25 C :   -0.054937
  26 H :    0.039120
  27 H :    0.036023
  28 C :   -0.008400
  29 H :    0.035308
  30 H :    0.017759
  31 H :    0.019553
  32 H :    0.018125
  33 H :    0.064982
Sum of atomic charges:    0.0000000

LOEWDIN ATOMIC CHARGES
----------------------
   0 S :    0.434827
   1 C :   -0.207957
   2 C :   -0.061621
   3 C :   -0.072468
   4 C :   -0.203325
   5 H :    0.038294
   6 C :   -0.042784
   7 H :    0.023135
   8 H :    0.040607
   9 C :   -0.034081
  10 H :    0.014158
  11 H :    0.028180
  12 C :   -0.073313
  13 H :    0.031677
  14 H :    0.025443
  15 H :    0.024885
  16 S :    0.393555
  17 C :   -0.183161
  18 C :   -0.075956
  19 C :   -0.054509
  20 C :   -0.193876
  21 H :    0.033750
  22 C :   -0.038173
  23 H :    0.024730
  24 H :    0.027397
  25 C :   -0.026971
  26 H :    0.032338
  27 H :    0.026024
  28 C :   -0.063837
  29 H :    0.024531
  30 H :    0.028549
  31 H :    0.022915
  32 H :    0.021341
  33 H :    0.035697

  Mayer bond orders larger than 0.100000
B(  0-S ,  1-C ) :   1.1354 B(  0-S ,  4-C ) :   1.1777 B(  1-C ,  2-C ) :   1.5933
B(  1-C , 32-H ) :   0.9769 B(  2-C ,  3-C ) :   1.2500 B(  2-C ,  6-C ) :   1.0256
B(  3-C ,  4-C ) :   1.5509 B(  3-C ,  5-H ) :   0.9912 B(  4-C , 20-C ) :   1.0170
B(  6-C ,  7-H ) :   0.9442 B(  6-C ,  8-H ) :   0.9372 B(  6-C ,  9-C ) :   1.0776
B(  9-C , 10-H ) :   0.9563 B(  9-C , 11-H ) :   0.9550 B(  9-C , 12-C ) :   1.0640
B( 12-C , 13-H ) :   0.9772 B( 12-C , 14-H ) :   0.9764 B( 12-C , 15-H ) :   0.9784
B( 16-S , 17-C ) :   1.1608 B( 16-S , 20-C ) :   1.1282 B( 17-C , 18-C ) :   1.6026
B( 17-C , 33-H ) :   0.9567 B( 18-C , 19-C ) :   1.2661 B( 18-C , 21-H ) :   0.9907
B( 19-C , 20-C ) :   1.5809 B( 19-C , 22-C ) :   1.0530 B( 22-C , 23-H ) :   0.9123
B( 22-C , 24-H ) :   0.9320 B( 22-C , 25-C ) :   1.0610 B( 25-C , 26-H ) :   0.9538
B( 25-C , 27-H ) :   0.9528 B( 25-C , 28-C ) :   1.0894 B( 28-C , 29-H ) :   0.9748
B( 28-C , 30-H ) :   0.9697 B( 28-C , 31-H ) :   0.9679

Dispersion correction           -0.014373017
FINAL SINGLE POINT ENERGY     -1339.856961563844

DIPOLE MOMENT
-------------
                                X             Y             Z
Electronic contribution:      7.98919     -11.39561       9.57803
Nuclear contribution   :     -8.16172      11.52738      -9.89060
                        -----------------------------------------
Total Dipole Moment    :     -0.17253       0.13176      -0.31257
                        -----------------------------------------
Magnitude (a.u.)       :      0.38056
Magnitude (Debye)      :      0.96731

Rotational constants in cm-1:     0.018455     0.008655     0.007316
Rotational constants in MHz :   553.277632   259.478684   219.332801

                             ****ORCA TERMINATED NORMALLY****
TOTAL RUN TIME: 0 days 0 hours 0 minutes 36 seconds 9 msec
