                         Program Version 4.2.1 -  RELEASE  -
|  1> ! wB97X-D3 SP def2-SVP
|  2> %pal
|  3> nprocs 16
|  4> end
|  5>
|  6> * xyz 0 1
|  7> S 	 -102.868 	 48.997 	 119.363
|  8> C 	 -104.493 	 48.3995 	 119.365
|  9> C 	 -105.307 	 48.9636 	 118.329
| 10> C 	 -104.512 	 49.9559 	 117.629
| 11> C 	 -103.126 	 49.9952 	 117.952
| 12> H 	 -104.81 	 50.498 	 116.774
| 13> C 	 -106.831 	 48.7706 	 118.102
| 14> H 	 -107.247 	 49.7306 	 117.678
| 15> H 	 -107.227 	 48.7387 	 119.161
| 16> C 	 -107.141 	 47.561 	 117.225
| 17> H 	 -106.981 	 47.7869 	 116.15
| 18> H 	 -106.653 	 46.6803 	 117.526
| 19> C 	 -108.626 	 47.215 	 117.414
| 20> H 	 -109.204 	 48.0487 	 117.066
| 21> H 	 -108.996 	 46.3809 	 116.783
| 22> H 	 -108.892 	 46.9863 	 118.469
| 23> S 	 -100.414 	 49.9591 	 117.53
| 24> C 	 -99.6516 	 51.2898 	 116.862
| 25> C 	 -100.55 	 52.2112 	 116.325
| 26> C 	 -101.916 	 51.8292 	 116.539
| 27> C 	 -101.998 	 50.7143 	 117.333
| 28> H 	 -100.231 	 53.0945 	 115.795
| 29> C 	 -103.054 	 52.6364 	 115.894
| 30> H 	 -102.565 	 53.6127 	 115.726
| 31> H 	 -103.882 	 52.7485 	 116.625
| 32> C 	 -103.525 	 52.1268 	 114.538
| 33> H 	 -104.498 	 52.5819 	 114.279
| 34> H 	 -103.963 	 51.1657 	 114.608
| 35> C 	 -102.522 	 52.17 	 113.386
| 36> H 	 -102.107 	 53.2012 	 113.264
| 37> H 	 -103.035 	 51.7759 	 112.435
| 38> H 	 -101.665 	 51.5207 	 113.609
| 39> H 	 -104.927 	 47.6636 	 120.028
| 40> H 	 -98.5795 	 51.4786 	 116.826
| 41> *
| 42>
| 43>                          ****END OF INPUT****

CARTESIAN COORDINATES (ANGSTROEM)
---------------------------------
  S    -102.868000   48.997000  119.363000
  C    -104.493000   48.399500  119.365000
  C    -105.307000   48.963600  118.329000
  C    -104.512000   49.955900  117.629000
  C    -103.126000   49.995200  117.952000
  H    -104.810000   50.498000  116.774000
  C    -106.831000   48.770600  118.102000
  H    -107.247000   49.730600  117.678000
  H    -107.227000   48.738700  119.161000
  C    -107.141000   47.561000  117.225000
  H    -106.981000   47.786900  116.150000
  H    -106.653000   46.680300  117.526000
  C    -108.626000   47.215000  117.414000
  H    -109.204000   48.048700  117.066000
  H    -108.996000   46.380900  116.783000
  H    -108.892000   46.986300  118.469000
  S    -100.414000   49.959100  117.530000
  C    -99.651600   51.289800  116.862000
  C    -100.550000   52.211200  116.325000
  C    -101.916000   51.829200  116.539000
  C    -101.998000   50.714300  117.333000
  H    -100.231000   53.094500  115.795000
  C    -103.054000   52.636400  115.894000
  H    -102.565000   53.612700  115.726000
  H    -103.882000   52.748500  116.625000
  C    -103.525000   52.126800  114.538000
  H    -104.498000   52.581900  114.279000
  H    -103.963000   51.165700  114.608000
  C    -102.522000   52.170000  113.386000
  H    -102.107000   53.201200  113.264000
  H    -103.035000   51.775900  112.435000
  H    -101.665000   51.520700  113.609000
  H    -104.927000   47.663600  120.028000
  H    -98.579500   51.478600  116.826000

 Total Charge           Charge          ....    0
 Multiplicity           Mult            ....    1
 Number of Electrons    NEL             ....  134
 Basis Dimension        Dim             ....  322

ORBITAL ENERGIES
----------------

  NO   OCC          E(Eh)            E(eV)
   0   2.0000     -88.970220     -2421.0028
   1   2.0000     -88.966827     -2420.9104
   2   2.0000     -10.333676      -281.1936
   3   2.0000     -10.328172      -281.0439
   4   2.0000     -10.316284      -280.7203
   5   2.0000     -10.313499      -280.6446
   6   2.0000     -10.309469      -280.5349
   7   2.0000     -10.306679      -280.4590
   8   2.0000     -10.302139      -280.3355
   9   2.0000     -10.299243      -280.2567
  10   2.0000     -10.294647      -280.1316
  11   2.0000     -10.292789      -280.0810
  12   2.0000     -10.288304      -279.9590
  13   2.0000     -10.288037      -279.9517
  14   2.0000     -10.285043      -279.8703
  15   2.0000     -10.278774      -279.6997
  16   2.0000      -8.084601      -219.9932
  17   2.0000      -8.082838      -219.9452
  18   2.0000      -6.043054      -164.4399
  19   2.0000      -6.041279      -164.3916
  20   2.0000      -6.039028      -164.3303
  21   2.0000      -6.037184      -164.2801
  22   2.0000      -6.035573      -164.2363
  23   2.0000      -6.033567      -164.1817
  24   2.0000      -1.009149       -27.4604
  25   2.0000      -0.981746       -26.7147
  26   2.0000      -0.912525       -24.8311
  27   2.0000      -0.911499       -24.8032
  28   2.0000      -0.865377       -23.5481
  29   2.0000      -0.853985       -23.2381
  30   2.0000      -0.843202       -22.9447
  31   2.0000      -0.807459       -21.9721
  32   2.0000      -0.783685       -21.3251
  33   2.0000      -0.769407       -20.9366
  34   2.0000      -0.709171       -19.2975
  35   2.0000      -0.701711       -19.0945
  36   2.0000      -0.689624       -18.7656
  37   2.0000      -0.667156       -18.1542
  38   2.0000      -0.636917       -17.3314
  39   2.0000      -0.613719       -16.7001
  40   2.0000      -0.589243       -16.0341
  41   2.0000      -0.576903       -15.6983
  42   2.0000      -0.559031       -15.2120
  43   2.0000      -0.553971       -15.0743
  44   2.0000      -0.543204       -14.7813
  45   2.0000      -0.524429       -14.2704
  46   2.0000      -0.515392       -14.0245
  47   2.0000      -0.507852       -13.8194
  48   2.0000      -0.502050       -13.6615
  49   2.0000      -0.496579       -13.5126
  50   2.0000      -0.490595       -13.3498
  51   2.0000      -0.481207       -13.0943
  52   2.0000      -0.471543       -12.8313
  53   2.0000      -0.461283       -12.5521
  54   2.0000      -0.459918       -12.5150
  55   2.0000      -0.448529       -12.2051
  56   2.0000      -0.444272       -12.0893
  57   2.0000      -0.440017       -11.9735
  58   2.0000      -0.437312       -11.8999
  59   2.0000      -0.431175       -11.7329
  60   2.0000      -0.422586       -11.4991
  61   2.0000      -0.418028       -11.3751
  62   2.0000      -0.403286       -10.9740
  63   2.0000      -0.355460        -9.6726
  64   2.0000      -0.332441        -9.0462
  65   2.0000      -0.329846        -8.9756
  66   2.0000      -0.279776        -7.6131
  67   0.0000       0.021968         0.5978
  68   0.0000       0.079263         2.1569
  69   0.0000       0.104325         2.8388
  70   0.0000       0.112678         3.0661
  71   0.0000       0.133489         3.6324

MULLIKEN ATOMIC CHARGES
-----------------------
   0 S :    0.120717
   1 C :   -0.109958
   2 C :   -0.096735
   3 C :    0.033874
   4 C :   -0.142791
   5 H :   -0.023509
   6 C :   -0.002516
   7 H :    0.040369
   8 H :    0.045440
   9 C :   -0.026678
  10 H :    0.043706
  11 H :    0.027468
  12 C :   -0.070708
  13 H :    0.018555
  14 H :    0.034622
  15 H :    0.036752
  16 S :    0.119890
  17 C :   -0.080432
  18 C :   -0.050727
  19 C :   -0.067939
  20 C :   -0.132756
  21 H :    0.012088
  22 C :    0.057676
  23 H :    0.019812
  24 H :    0.043268
  25 C :   -0.041152
  26 H :    0.017584
  27 H :    0.008993
  28 C :   -0.076800
  29 H :    0.035733
  30 H :    0.050606
  31 H :    0.051457
  32 H :    0.045009
  33 H :    0.059081
Sum of atomic charges:   -0.0000000

LOEWDIN ATOMIC CHARGES
----------------------
   0 S :    0.424010
   1 C :   -0.214961
   2 C :   -0.057508
   3 C :   -0.070637
   4 C :   -0.194577
   5 H :    0.015016
   6 C :   -0.035177
   7 H :    0.038046
   8 H :    0.039391
   9 C :   -0.035612
  10 H :    0.033868
  11 H :    0.019842
  12 C :   -0.069513
  13 H :    0.018100
  14 H :    0.026226
  15 H :    0.026048
  16 S :    0.431296
  17 C :   -0.211332
  18 C :   -0.075263
  19 C :   -0.058715
  20 C :   -0.192368
  21 H :    0.027870
  22 C :   -0.029767
  23 H :    0.032017
  24 H :    0.036342
  25 C :   -0.053341
  26 H :    0.028234
  27 H :    0.017686
  28 C :   -0.069864
  29 H :    0.026218
  30 H :    0.039542
  31 H :    0.028923
  32 H :    0.026606
  33 H :    0.033350

  Mayer bond orders larger than 0.100000
B(  0-S ,  1-C ) :   1.1582 B(  0-S ,  4-C ) :   1.1615 B(  1-C ,  2-C ) :   1.5746
B(  1-C ,  4-C ) :   0.1069 B(  1-C , 32-H ) :   0.9668 B(  2-C ,  3-C ) :   1.2833
B(  2-C ,  6-C ) :   1.0039 B(  3-C ,  4-C ) :   1.5372 B(  3-C ,  5-H ) :   0.9880
B(  4-C , 20-C ) :   1.0619 B(  6-C ,  7-H ) :   0.9463 B(  6-C ,  8-H ) :   0.9537
B(  6-C ,  9-C ) :   1.0541 B(  9-C , 10-H ) :   0.9525 B(  9-C , 11-H ) :   0.9624
B(  9-C , 12-C ) :   1.0793 B( 12-C , 13-H ) :   0.9726 B( 12-C , 14-H ) :   0.9748
B( 12-C , 15-H ) :   0.9777 B( 16-S , 17-C ) :   1.1717 B( 16-S , 20-C ) :   1.1436
B( 17-C , 18-C ) :   1.5866 B( 17-C , 33-H ) :   0.9651 B( 18-C , 19-C ) :   1.2532
B( 18-C , 21-H ) :   0.9905 B( 19-C , 20-C ) :   1.5979 B( 19-C , 22-C ) :   1.0317
B( 22-C , 23-H ) :   0.9345 B( 22-C , 24-H ) :   0.9321 B( 22-C , 25-C ) :   1.0765
B( 25-C , 26-H ) :   0.9484 B( 25-C , 27-H ) :   0.9432 B( 25-C , 28-C ) :   1.0740
B( 28-C , 29-H ) :   0.9757 B( 28-C , 30-H ) :   0.9700 B( 28-C , 31-H ) :   0.9734

Dispersion correction           -0.014089251
FINAL SINGLE POINT ENERGY     -1339.876800527803

DIPOLE MOMENT
-------------
                                X             Y             Z
Electronic contribution:     23.78445      -2.24838      16.49617
Nuclear contribution   :    -24.23782       2.39609     -16.91138
                        -----------------------------------------
Total Dipole Moment    :     -0.45337       0.14771      -0.41521
                        -----------------------------------------
Magnitude (a.u.)       :      0.63227
Magnitude (Debye)      :      1.60710

Rotational constants in cm-1:     0.020082     0.008067     0.006145
Rotational constants in MHz :   602.051899   241.855031   184.215012

                             ****ORCA TERMINATED NORMALLY****
TOTAL RUN TIME: 0 days 0 hours 0 minutes 32 seconds 898 msec
