                         Program Version 4.2.1 -  RELEASE  -
|  1> ! wB97X-D3 SP def2-SVP
|  2> %pal
|  3> nprocs 16
|  4> end
|  5>
|  6> * xyz 0 1
|  7> S 	 52.9278 	 2.53569 	 86.2702
|  8> C 	 54.6652 	 2.88566 	 86.451
|  9> C 	 55.3561 	 2.87712 	 85.2658
| 10> C 	 54.428 	 2.52302 	 84.1925
| 11> C 	 53.1337 	 2.24474 	 84.5498
| 12> H 	 54.6891 	 2.41816 	 83.1398
| 13> C 	 56.8334 	 3.18419 	 85.0607
| 14> H 	 57.4519 	 2.30724 	 85.0309
| 15> H 	 57.2231 	 3.66274 	 85.9529
| 16> C 	 57.2516 	 4.09112 	 83.8857
| 17> H 	 58.2497 	 4.34456 	 83.9125
| 18> H 	 57.1724 	 3.58382 	 82.8999
| 19> C 	 56.4498 	 5.43457 	 83.8463
| 20> H 	 56.371 	 5.96274 	 84.7412
| 21> H 	 56.9238 	 6.22656 	 83.2018
| 22> H 	 55.4574 	 5.28296 	 83.5274
| 23> S 	 50.8726 	 3.78316 	 83.6645
| 24> C 	 50.0143 	 3.17815 	 82.2969
| 25> C 	 50.358 	 1.86711 	 82.0244
| 26> C 	 51.464 	 1.41834 	 82.7654
| 27> C 	 51.9314 	 2.37089 	 83.6857
| 28> H 	 49.908 	 1.34692 	 81.1792
| 29> C 	 52.1372 	 0.0999225 	 82.4831
| 30> H 	 52.9848 	 -0.137186 	 83.2077
| 31> H 	 52.6398 	 0.314607 	 81.5445
| 32> C 	 51.1668 	 -1.07542 	 82.3147
| 33> H 	 50.4705 	 -0.862218 	 81.5416
| 34> H 	 50.6505 	 -1.10976 	 83.2161
| 35> C 	 51.7746 	 -2.44149 	 82.143
| 36> H 	 51.044 	 -3.24427 	 81.9184
| 37> H 	 52.3346 	 -2.6904 	 82.986
| 38> H 	 52.4477 	 -2.43061 	 81.3584
| 39> H 	 55.2524 	 2.96707 	 87.3534
| 40> H 	 49.154 	 3.66156 	 81.9146
| 41> *
| 42>
| 43>                          ****END OF INPUT****

CARTESIAN COORDINATES (ANGSTROEM)
---------------------------------
  S     52.927800    2.535690   86.270200
  C     54.665200    2.885660   86.451000
  C     55.356100    2.877120   85.265800
  C     54.428000    2.523020   84.192500
  C     53.133700    2.244740   84.549800
  H     54.689100    2.418160   83.139800
  C     56.833400    3.184190   85.060700
  H     57.451900    2.307240   85.030900
  H     57.223100    3.662740   85.952900
  C     57.251600    4.091120   83.885700
  H     58.249700    4.344560   83.912500
  H     57.172400    3.583820   82.899900
  C     56.449800    5.434570   83.846300
  H     56.371000    5.962740   84.741200
  H     56.923800    6.226560   83.201800
  H     55.457400    5.282960   83.527400
  S     50.872600    3.783160   83.664500
  C     50.014300    3.178150   82.296900
  C     50.358000    1.867110   82.024400
  C     51.464000    1.418340   82.765400
  C     51.931400    2.370890   83.685700
  H     49.908000    1.346920   81.179200
  C     52.137200    0.099922   82.483100
  H     52.984800   -0.137186   83.207700
  H     52.639800    0.314607   81.544500
  C     51.166800   -1.075420   82.314700
  H     50.470500   -0.862218   81.541600
  H     50.650500   -1.109760   83.216100
  C     51.774600   -2.441490   82.143000
  H     51.044000   -3.244270   81.918400
  H     52.334600   -2.690400   82.986000
  H     52.447700   -2.430610   81.358400
  H     55.252400    2.967070   87.353400
  H     49.154000    3.661560   81.914600

 Total Charge           Charge          ....    0
 Multiplicity           Mult            ....    1
 Number of Electrons    NEL             ....  134
 Basis Dimension        Dim             ....  322

ORBITAL ENERGIES
----------------

  NO   OCC          E(Eh)            E(eV)
   0   2.0000     -88.965918     -2420.8857
   1   2.0000     -88.965143     -2420.8646
   2   2.0000     -10.328750      -281.0596
   3   2.0000     -10.326498      -280.9983
   4   2.0000     -10.317443      -280.7519
   5   2.0000     -10.313038      -280.6320
   6   2.0000     -10.307212      -280.4735
   7   2.0000     -10.299418      -280.2614
   8   2.0000     -10.298305      -280.2311
   9   2.0000     -10.296050      -280.1698
  10   2.0000     -10.291314      -280.0409
  11   2.0000     -10.290686      -280.0238
  12   2.0000     -10.288339      -279.9599
  13   2.0000     -10.273557      -279.5577
  14   2.0000     -10.269065      -279.4355
  15   2.0000     -10.265424      -279.3364
  16   2.0000      -8.080668      -219.8862
  17   2.0000      -8.079378      -219.8511
  18   2.0000      -6.039123      -164.3329
  19   2.0000      -6.038066      -164.3041
  20   2.0000      -6.035095      -164.2233
  21   2.0000      -6.033980      -164.1929
  22   2.0000      -6.031555      -164.1270
  23   2.0000      -6.029934      -164.0828
  24   2.0000      -1.003981       -27.3197
  25   2.0000      -0.983066       -26.7506
  26   2.0000      -0.913245       -24.8507
  27   2.0000      -0.909861       -24.7586
  28   2.0000      -0.866872       -23.5888
  29   2.0000      -0.855508       -23.2796
  30   2.0000      -0.838586       -22.8191
  31   2.0000      -0.814944       -22.1757
  32   2.0000      -0.787765       -21.4362
  33   2.0000      -0.775693       -21.1077
  34   2.0000      -0.712434       -19.3863
  35   2.0000      -0.705575       -19.1997
  36   2.0000      -0.696404       -18.9501
  37   2.0000      -0.652671       -17.7601
  38   2.0000      -0.641529       -17.4569
  39   2.0000      -0.617136       -16.7931
  40   2.0000      -0.598792       -16.2940
  41   2.0000      -0.572027       -15.5656
  42   2.0000      -0.566645       -15.4192
  43   2.0000      -0.549179       -14.9439
  44   2.0000      -0.543980       -14.8024
  45   2.0000      -0.527058       -14.3420
  46   2.0000      -0.515739       -14.0340
  47   2.0000      -0.509605       -13.8671
  48   2.0000      -0.501430       -13.6446
  49   2.0000      -0.499213       -13.5843
  50   2.0000      -0.489300       -13.3145
  51   2.0000      -0.476770       -12.9736
  52   2.0000      -0.468049       -12.7363
  53   2.0000      -0.465468       -12.6660
  54   2.0000      -0.459724       -12.5097
  55   2.0000      -0.454179       -12.3588
  56   2.0000      -0.444862       -12.1053
  57   2.0000      -0.431845       -11.7511
  58   2.0000      -0.429704       -11.6928
  59   2.0000      -0.428190       -11.6516
  60   2.0000      -0.423393       -11.5211
  61   2.0000      -0.418912       -11.3992
  62   2.0000      -0.418008       -11.3746
  63   2.0000      -0.341999        -9.3063
  64   2.0000      -0.330131        -8.9833
  65   2.0000      -0.327489        -8.9114
  66   2.0000      -0.298943        -8.1347
  67   0.0000       0.037591         1.0229
  68   0.0000       0.056612         1.5405
  69   0.0000       0.116990         3.1835
  70   0.0000       0.122162         3.3242
  71   0.0000       0.132343         3.6012

MULLIKEN ATOMIC CHARGES
-----------------------
   0 S :    0.095051
   1 C :   -0.104360
   2 C :   -0.096956
   3 C :    0.033998
   4 C :   -0.164953
   5 H :    0.017214
   6 C :    0.094686
   7 H :    0.035275
   8 H :    0.009767
   9 C :   -0.058897
  10 H :    0.012520
  11 H :    0.031893
  12 C :   -0.045454
  13 H :    0.012179
  14 H :    0.030581
  15 H :    0.031203
  16 S :    0.122091
  17 C :   -0.086009
  18 C :   -0.042132
  19 C :   -0.039358
  20 C :   -0.161730
  21 H :    0.025286
  22 C :    0.048131
  23 H :    0.040348
  24 H :    0.029819
  25 C :   -0.066152
  26 H :    0.020063
  27 H :    0.018479
  28 C :    0.016543
  29 H :    0.037368
  30 H :    0.013327
  31 H :   -0.000041
  32 H :    0.040964
  33 H :    0.049257
Sum of atomic charges:    0.0000000

LOEWDIN ATOMIC CHARGES
----------------------
   0 S :    0.386696
   1 C :   -0.178738
   2 C :   -0.062602
   3 C :   -0.050415
   4 C :   -0.197195
   5 H :    0.030809
   6 C :   -0.030787
   7 H :    0.032848
   8 H :    0.030478
   9 C :   -0.033625
  10 H :    0.016258
  11 H :    0.026804
  12 C :   -0.064313
  13 H :    0.016550
  14 H :    0.032247
  15 H :    0.020465
  16 S :    0.415221
  17 C :   -0.184238
  18 C :   -0.076305
  19 C :   -0.054873
  20 C :   -0.209174
  21 H :    0.032743
  22 C :   -0.033749
  23 H :    0.036990
  24 H :    0.030755
  25 C :   -0.034858
  26 H :    0.017671
  27 H :    0.019860
  28 C :   -0.052255
  29 H :    0.033847
  30 H :    0.018923
  31 H :    0.012896
  32 H :    0.028765
  33 H :    0.022301

  Mayer bond orders larger than 0.100000
B(  0-S ,  1-C ) :   1.1340 B(  0-S ,  4-C ) :   1.1270 B(  1-C ,  2-C ) :   1.6531
B(  1-C , 32-H ) :   0.9577 B(  2-C ,  3-C ) :   1.2136 B(  2-C ,  6-C ) :   1.0176
B(  3-C ,  4-C ) :   1.6189 B(  3-C ,  5-H ) :   0.9862 B(  4-C , 20-C ) :   1.0108
B(  6-C ,  7-H ) :   0.9345 B(  6-C ,  8-H ) :   0.9372 B(  6-C ,  9-C ) :   1.0809
B(  9-C , 10-H ) :   0.9555 B(  9-C , 11-H ) :   0.9525 B(  9-C , 12-C ) :   1.0707
B( 12-C , 13-H ) :   0.9764 B( 12-C , 14-H ) :   0.9757 B( 12-C , 15-H ) :   0.9747
B( 16-S , 17-C ) :   1.1781 B( 16-S , 20-C ) :   1.1387 B( 17-C , 18-C ) :   1.5842
B( 17-C , 33-H ) :   0.9683 B( 18-C , 19-C ) :   1.2704 B( 18-C , 21-H ) :   0.9887
B( 19-C , 20-C ) :   1.5792 B( 19-C , 22-C ) :   1.0406 B( 22-C , 23-H ) :   0.9343
B( 22-C , 24-H ) :   0.9268 B( 22-C , 25-C ) :   1.0586 B( 25-C , 26-H ) :   0.9496
B( 25-C , 27-H ) :   0.9594 B( 25-C , 28-C ) :   1.0983 B( 28-C , 29-H ) :   0.9715
B( 28-C , 30-H ) :   0.9706 B( 28-C , 31-H ) :   0.9696

Dispersion correction           -0.014055101
FINAL SINGLE POINT ENERGY     -1339.868293473689

DIPOLE MOMENT
-------------
                                X             Y             Z
Electronic contribution:    -14.61063       9.24797      11.40976
Nuclear contribution   :     15.09252      -9.42036     -11.80117
                        -----------------------------------------
Total Dipole Moment    :      0.48189      -0.17239      -0.39141
                        -----------------------------------------
Magnitude (a.u.)       :      0.64431
Magnitude (Debye)      :      1.63771

Rotational constants in cm-1:     0.018246     0.008000     0.007089
Rotational constants in MHz :   547.009671   239.822038   212.516453

                             ****ORCA TERMINATED NORMALLY****
TOTAL RUN TIME: 0 days 0 hours 0 minutes 29 seconds 610 msec
