                         Program Version 4.2.1 -  RELEASE  -
|  1> ! wB97X-D3 SP def2-SVP
|  2> %pal
|  3> nprocs 16
|  4> end
|  5>
|  6> * xyz 0 1
|  7> S 	 40.3846 	 33.301 	 50.538
|  8> C 	 41.8637 	 33.3363 	 51.4107
|  9> C 	 41.8168 	 32.5521 	 52.5509
| 10> C 	 40.5388 	 31.9991 	 52.8025
| 11> C 	 39.6272 	 32.2784 	 51.785
| 12> H 	 40.2298 	 31.4928 	 53.7161
| 13> C 	 43.0495 	 32.217 	 53.4487
| 14> H 	 43.9177 	 32.2804 	 52.7544
| 15> H 	 43.093 	 31.1244 	 53.6838
| 16> C 	 43.1042 	 33.1051 	 54.6688
| 17> H 	 42.2497 	 32.7687 	 55.3263
| 18> H 	 44.0339 	 32.8162 	 55.2003
| 19> C 	 43.0215 	 34.6469 	 54.432
| 20> H 	 43.893 	 34.8339 	 53.736
| 21> H 	 42.0701 	 35.0779 	 54.0856
| 22> H 	 43.1145 	 35.0835 	 55.4282
| 23> S 	 37.8256 	 30.1556 	 52.229
| 24> C 	 36.2083 	 30.2817 	 51.6352
| 25> C 	 35.9826 	 31.4967 	 51.0221
| 26> C 	 37.1152 	 32.3491 	 51.0944
| 27> C 	 38.2495 	 31.84 	 51.737
| 28> H 	 34.9878 	 31.7726 	 50.7569
| 29> C 	 36.8908 	 33.8154 	 50.8399
| 30> H 	 36.6175 	 33.9569 	 49.7744
| 31> H 	 37.6846 	 34.5275 	 50.9866
| 32> C 	 35.7284 	 34.3731 	 51.6939
| 33> H 	 36.036 	 34.0834 	 52.7188
| 34> H 	 34.7821 	 33.9507 	 51.5144
| 35> C 	 35.6527 	 35.926 	 51.7695
| 36> H 	 34.9476 	 36.1775 	 52.4463
| 37> H 	 35.321 	 36.3256 	 50.8379
| 38> H 	 36.7309 	 36.259 	 52.1386
| 39> H 	 42.7364 	 33.8535 	 51.1585
| 40> H 	 35.4495 	 29.5791 	 51.848
| 41> *
| 42>
| 43>                          ****END OF INPUT****

CARTESIAN COORDINATES (ANGSTROEM)
---------------------------------
  S     40.384600   33.301000   50.538000
  C     41.863700   33.336300   51.410700
  C     41.816800   32.552100   52.550900
  C     40.538800   31.999100   52.802500
  C     39.627200   32.278400   51.785000
  H     40.229800   31.492800   53.716100
  C     43.049500   32.217000   53.448700
  H     43.917700   32.280400   52.754400
  H     43.093000   31.124400   53.683800
  C     43.104200   33.105100   54.668800
  H     42.249700   32.768700   55.326300
  H     44.033900   32.816200   55.200300
  C     43.021500   34.646900   54.432000
  H     43.893000   34.833900   53.736000
  H     42.070100   35.077900   54.085600
  H     43.114500   35.083500   55.428200
  S     37.825600   30.155600   52.229000
  C     36.208300   30.281700   51.635200
  C     35.982600   31.496700   51.022100
  C     37.115200   32.349100   51.094400
  C     38.249500   31.840000   51.737000
  H     34.987800   31.772600   50.756900
  C     36.890800   33.815400   50.839900
  H     36.617500   33.956900   49.774400
  H     37.684600   34.527500   50.986600
  C     35.728400   34.373100   51.693900
  H     36.036000   34.083400   52.718800
  H     34.782100   33.950700   51.514400
  C     35.652700   35.926000   51.769500
  H     34.947600   36.177500   52.446300
  H     35.321000   36.325600   50.837900
  H     36.730900   36.259000   52.138600
  H     42.736400   33.853500   51.158500
  H     35.449500   29.579100   51.848000

 Total Charge           Charge          ....    0
 Multiplicity           Mult            ....    1
 Number of Electrons    NEL             ....  134
 Basis Dimension        Dim             ....  322

ORBITAL ENERGIES
----------------

  NO   OCC          E(Eh)            E(eV)
   0   2.0000     -88.970427     -2421.0084
   1   2.0000     -88.963471     -2420.8191
   2   2.0000     -10.333051      -281.1766
   3   2.0000     -10.330334      -281.1027
   4   2.0000     -10.316577      -280.7283
   5   2.0000     -10.308696      -280.5139
   6   2.0000     -10.303433      -280.3707
   7   2.0000     -10.298836      -280.2456
   8   2.0000     -10.296795      -280.1900
   9   2.0000     -10.293780      -280.1080
  10   2.0000     -10.293724      -280.1065
  11   2.0000     -10.291860      -280.0557
  12   2.0000     -10.286486      -279.9095
  13   2.0000     -10.285916      -279.8940
  14   2.0000     -10.280652      -279.7508
  15   2.0000     -10.277277      -279.6589
  16   2.0000      -8.084599      -219.9931
  17   2.0000      -8.077883      -219.8104
  18   2.0000      -6.043125      -164.4418
  19   2.0000      -6.039167      -164.3341
  20   2.0000      -6.036436      -164.2598
  21   2.0000      -6.035388      -164.2313
  22   2.0000      -6.032338      -164.1483
  23   2.0000      -6.028708      -164.0495
  24   2.0000      -1.004189       -27.3254
  25   2.0000      -0.984610       -26.7926
  26   2.0000      -0.907620       -24.6976
  27   2.0000      -0.906618       -24.6703
  28   2.0000      -0.871119       -23.7044
  29   2.0000      -0.850357       -23.1394
  30   2.0000      -0.842882       -22.9360
  31   2.0000      -0.811791       -22.0900
  32   2.0000      -0.783416       -21.3178
  33   2.0000      -0.772320       -21.0159
  34   2.0000      -0.708778       -19.2868
  35   2.0000      -0.697345       -18.9757
  36   2.0000      -0.687738       -18.7143
  37   2.0000      -0.663373       -18.0513
  38   2.0000      -0.636632       -17.3236
  39   2.0000      -0.616611       -16.7788
  40   2.0000      -0.604204       -16.4412
  41   2.0000      -0.571875       -15.5615
  42   2.0000      -0.564677       -15.3656
  43   2.0000      -0.552231       -15.0270
  44   2.0000      -0.539406       -14.6780
  45   2.0000      -0.522506       -14.2181
  46   2.0000      -0.519537       -14.1373
  47   2.0000      -0.512433       -13.9440
  48   2.0000      -0.507428       -13.8078
  49   2.0000      -0.498604       -13.5677
  50   2.0000      -0.481939       -13.1142
  51   2.0000      -0.480973       -13.0879
  52   2.0000      -0.465848       -12.6764
  53   2.0000      -0.463802       -12.6207
  54   2.0000      -0.458568       -12.4783
  55   2.0000      -0.450785       -12.2665
  56   2.0000      -0.445594       -12.1252
  57   2.0000      -0.441718       -12.0198
  58   2.0000      -0.429385       -11.6841
  59   2.0000      -0.421121       -11.4593
  60   2.0000      -0.415110       -11.2957
  61   2.0000      -0.406298       -11.0559
  62   2.0000      -0.406149       -11.0519
  63   2.0000      -0.357492        -9.7279
  64   2.0000      -0.332196        -9.0395
  65   2.0000      -0.328734        -8.9453
  66   2.0000      -0.283148        -7.7049
  67   0.0000       0.018872         0.5135
  68   0.0000       0.080016         2.1773
  69   0.0000       0.106929         2.9097
  70   0.0000       0.114726         3.1219
  71   0.0000       0.130686         3.5562

MULLIKEN ATOMIC CHARGES
-----------------------
   0 S :    0.130405
   1 C :   -0.096743
   2 C :   -0.093506
   3 C :   -0.005779
   4 C :   -0.117853
   5 H :    0.023387
   6 C :    0.035551
   7 H :    0.020310
   8 H :    0.040293
   9 C :   -0.090141
  10 H :    0.033534
  11 H :    0.038692
  12 C :   -0.056863
  13 H :    0.041612
  14 H :    0.052112
  15 H :    0.037962
  16 S :    0.086705
  17 C :   -0.078684
  18 C :   -0.013900
  19 C :   -0.051192
  20 C :   -0.123497
  21 H :    0.014538
  22 C :    0.065002
  23 H :    0.024828
  24 H :    0.007802
  25 C :   -0.119445
  26 H :    0.030364
  27 H :    0.018006
  28 C :   -0.013582
  29 H :    0.012389
  30 H :    0.026450
  31 H :    0.048875
  32 H :    0.022227
  33 H :    0.050145
Sum of atomic charges:   -0.0000000

LOEWDIN ATOMIC CHARGES
----------------------
   0 S :    0.420499
   1 C :   -0.201024
   2 C :   -0.061285
   3 C :   -0.064987
   4 C :   -0.181980
   5 H :    0.033506
   6 C :   -0.040648
   7 H :    0.027040
   8 H :    0.037354
   9 C :   -0.049778
  10 H :    0.026952
  11 H :    0.027682
  12 C :   -0.070618
  13 H :    0.031978
  14 H :    0.030192
  15 H :    0.029451
  16 S :    0.392059
  17 C :   -0.174567
  18 C :   -0.066191
  19 C :   -0.058402
  20 C :   -0.185856
  21 H :    0.028976
  22 C :   -0.037785
  23 H :    0.030353
  24 H :    0.018869
  25 C :   -0.037179
  26 H :    0.027589
  27 H :    0.009190
  28 C :   -0.053982
  29 H :    0.010092
  30 H :    0.019009
  31 H :    0.041877
  32 H :    0.017913
  33 H :    0.023701

  Mayer bond orders larger than 0.100000
B(  0-S ,  1-C ) :   1.1469 B(  0-S ,  4-C ) :   1.1386 B(  1-C ,  2-C ) :   1.6004
B(  1-C , 32-H ) :   0.9708 B(  2-C ,  3-C ) :   1.2628 B(  2-C ,  6-C ) :   1.0030
B(  3-C ,  4-C ) :   1.5291 B(  3-C ,  5-H ) :   0.9931 B(  4-C , 20-C ) :   1.1096
B(  6-C ,  7-H ) :   0.9452 B(  6-C ,  8-H ) :   0.9489 B(  6-C ,  9-C ) :   1.0655
B(  9-C , 10-H ) :   0.9541 B(  9-C , 11-H ) :   0.9566 B(  9-C , 12-C ) :   1.0677
B( 12-C , 13-H ) :   0.9763 B( 12-C , 14-H ) :   0.9713 B( 12-C , 15-H ) :   0.9726
B( 16-S , 17-C ) :   1.1749 B( 16-S , 20-C ) :   1.1057 B( 17-C , 18-C ) :   1.5886
B( 17-C , 33-H ) :   0.9693 B( 18-C , 19-C ) :   1.2471 B( 18-C , 21-H ) :   0.9943
B( 19-C , 20-C ) :   1.5637 B( 19-C , 22-C ) :   1.0520 B( 22-C , 23-H ) :   0.9255
B( 22-C , 24-H ) :   0.9480 B( 22-C , 25-C ) :   1.0521 B( 25-C , 26-H ) :   0.9592
B( 25-C , 27-H ) :   0.9538 B( 25-C , 28-C ) :   1.0901 B( 28-C , 29-H ) :   0.9723
B( 28-C , 30-H ) :   0.9749 B( 28-C , 31-H ) :   0.9726

Dispersion correction           -0.014310464
FINAL SINGLE POINT ENERGY     -1339.866601922876

DIPOLE MOMENT
-------------
                                X             Y             Z
Electronic contribution:     -2.48419     -17.17190     -10.56138
Nuclear contribution   :      2.37245      17.40643      10.90093
                        -----------------------------------------
Total Dipole Moment    :     -0.11174       0.23453       0.33954
                        -----------------------------------------
Magnitude (a.u.)       :      0.42753
Magnitude (Debye)      :      1.08670

Rotational constants in cm-1:     0.019866     0.008005     0.006738
Rotational constants in MHz :   595.569777   239.990003   202.003526

                             ****ORCA TERMINATED NORMALLY****
TOTAL RUN TIME: 0 days 0 hours 0 minutes 33 seconds 779 msec
