                         Program Version 4.2.1 -  RELEASE  -
|  1> ! wB97X-D3 SP def2-SVP
|  2> %pal
|  3> nprocs 16
|  4> end
|  5>
|  6> * xyz 0 1
|  7> S 	 -68.5177 	 59.1676 	 127.75
|  8> C 	 -69.2707 	 60.6823 	 128.15
|  9> C 	 -70.3376 	 61.0681 	 127.345
| 10> C 	 -70.7143 	 59.997 	 126.481
| 11> C 	 -69.8838 	 58.9345 	 126.607
| 12> H 	 -71.6041 	 59.9288 	 125.785
| 13> C 	 -71.1718 	 62.311 	 127.51
| 14> H 	 -71.9709 	 62.0451 	 126.823
| 15> H 	 -70.6075 	 63.1085 	 127.093
| 16> C 	 -71.6281 	 62.6558 	 128.91
| 17> H 	 -72.3211 	 63.4689 	 128.761
| 18> H 	 -72.1759 	 61.8568 	 129.334
| 19> C 	 -70.5281 	 63.1437 	 129.82
| 20> H 	 -69.6792 	 63.6128 	 129.311
| 21> H 	 -70.8922 	 63.8359 	 130.508
| 22> H 	 -70.142 	 62.4456 	 130.508
| 23> S 	 -70.5771 	 56.3085 	 126.494
| 24> C 	 -70.4826 	 55.5018 	 125.016
| 25> C 	 -70.0321 	 56.2484 	 123.94
| 26> C 	 -69.6054 	 57.5369 	 124.397
| 27> C 	 -69.9078 	 57.7563 	 125.725
| 28> H 	 -69.9412 	 55.8454 	 122.976
| 29> C 	 -69.2274 	 58.5925 	 123.399
| 30> H 	 -68.2466 	 58.4901 	 123.048
| 31> H 	 -69.0963 	 59.5155 	 123.933
| 32> C 	 -70.1409 	 58.7791 	 122.214
| 33> H 	 -71.1094 	 59.1081 	 122.616
| 34> H 	 -70.3272 	 57.8149 	 121.729
| 35> C 	 -69.7436 	 59.9026 	 121.241
| 36> H 	 -69.5374 	 60.9034 	 121.67
| 37> H 	 -70.5487 	 60.0087 	 120.581
| 38> H 	 -68.7855 	 59.6605 	 120.722
| 39> H 	 -68.8605 	 61.3495 	 128.912
| 40> H 	 -71.0412 	 54.5836 	 124.896
| 41> *
| 42>
| 43>                          ****END OF INPUT****

CARTESIAN COORDINATES (ANGSTROEM)
---------------------------------
  S    -68.517700   59.167600  127.750000
  C    -69.270700   60.682300  128.150000
  C    -70.337600   61.068100  127.345000
  C    -70.714300   59.997000  126.481000
  C    -69.883800   58.934500  126.607000
  H    -71.604100   59.928800  125.785000
  C    -71.171800   62.311000  127.510000
  H    -71.970900   62.045100  126.823000
  H    -70.607500   63.108500  127.093000
  C    -71.628100   62.655800  128.910000
  H    -72.321100   63.468900  128.761000
  H    -72.175900   61.856800  129.334000
  C    -70.528100   63.143700  129.820000
  H    -69.679200   63.612800  129.311000
  H    -70.892200   63.835900  130.508000
  H    -70.142000   62.445600  130.508000
  S    -70.577100   56.308500  126.494000
  C    -70.482600   55.501800  125.016000
  C    -70.032100   56.248400  123.940000
  C    -69.605400   57.536900  124.397000
  C    -69.907800   57.756300  125.725000
  H    -69.941200   55.845400  122.976000
  C    -69.227400   58.592500  123.399000
  H    -68.246600   58.490100  123.048000
  H    -69.096300   59.515500  123.933000
  C    -70.140900   58.779100  122.214000
  H    -71.109400   59.108100  122.616000
  H    -70.327200   57.814900  121.729000
  C    -69.743600   59.902600  121.241000
  H    -69.537400   60.903400  121.670000
  H    -70.548700   60.008700  120.581000
  H    -68.785500   59.660500  120.722000
  H    -68.860500   61.349500  128.912000
  H    -71.041200   54.583600  124.896000

 Total Charge           Charge          ....    0
 Multiplicity           Mult            ....    1
 Number of Electrons    NEL             ....  134
 Basis Dimension        Dim             ....  322

ORBITAL ENERGIES
----------------

  NO   OCC          E(Eh)            E(eV)
   0   2.0000     -88.965323     -2420.8695
   1   2.0000     -88.959909     -2420.7222
   2   2.0000     -10.322977      -280.9025
   3   2.0000     -10.319342      -280.8036
   4   2.0000     -10.308706      -280.5142
   5   2.0000     -10.308528      -280.5093
   6   2.0000     -10.299719      -280.2696
   7   2.0000     -10.295369      -280.1512
   8   2.0000     -10.294907      -280.1387
   9   2.0000     -10.287195      -279.9288
  10   2.0000     -10.285552      -279.8841
  11   2.0000     -10.284937      -279.8674
  12   2.0000     -10.281670      -279.7785
  13   2.0000     -10.278998      -279.7057
  14   2.0000     -10.275728      -279.6168
  15   2.0000     -10.270261      -279.4680
  16   2.0000      -8.079627      -219.8578
  17   2.0000      -8.076074      -219.7612
  18   2.0000      -6.037899      -164.2996
  19   2.0000      -6.034532      -164.2080
  20   2.0000      -6.034232      -164.1998
  21   2.0000      -6.030482      -164.0977
  22   2.0000      -6.030337      -164.0938
  23   2.0000      -6.027017      -164.0035
  24   2.0000      -1.004570       -27.3357
  25   2.0000      -0.983435       -26.7606
  26   2.0000      -0.918085       -24.9824
  27   2.0000      -0.912571       -24.8323
  28   2.0000      -0.863014       -23.4838
  29   2.0000      -0.855558       -23.2809
  30   2.0000      -0.851901       -23.1814
  31   2.0000      -0.811724       -22.0881
  32   2.0000      -0.789202       -21.4753
  33   2.0000      -0.773604       -21.0508
  34   2.0000      -0.711583       -19.3631
  35   2.0000      -0.703255       -19.1365
  36   2.0000      -0.689476       -18.7616
  37   2.0000      -0.659025       -17.9330
  38   2.0000      -0.637930       -17.3590
  39   2.0000      -0.616807       -16.7842
  40   2.0000      -0.601899       -16.3785
  41   2.0000      -0.572116       -15.5681
  42   2.0000      -0.560225       -15.2445
  43   2.0000      -0.554356       -15.0848
  44   2.0000      -0.535957       -14.5841
  45   2.0000      -0.530721       -14.4416
  46   2.0000      -0.521496       -14.1906
  47   2.0000      -0.512248       -13.9390
  48   2.0000      -0.496818       -13.5191
  49   2.0000      -0.492372       -13.3981
  50   2.0000      -0.483944       -13.1688
  51   2.0000      -0.477711       -12.9992
  52   2.0000      -0.472787       -12.8652
  53   2.0000      -0.469446       -12.7743
  54   2.0000      -0.460168       -12.5218
  55   2.0000      -0.451063       -12.2740
  56   2.0000      -0.445790       -12.1306
  57   2.0000      -0.442561       -12.0427
  58   2.0000      -0.435790       -11.8585
  59   2.0000      -0.430356       -11.7106
  60   2.0000      -0.424697       -11.5566
  61   2.0000      -0.411753       -11.2044
  62   2.0000      -0.408917       -11.1272
  63   2.0000      -0.339347        -9.2341
  64   2.0000      -0.328770        -8.9463
  65   2.0000      -0.319159        -8.6848
  66   2.0000      -0.300755        -8.1840
  67   0.0000       0.047003         1.2790
  68   0.0000       0.058370         1.5883
  69   0.0000       0.108717         2.9584
  70   0.0000       0.124493         3.3876
  71   0.0000       0.131407         3.5758

MULLIKEN ATOMIC CHARGES
-----------------------
   0 S :    0.121271
   1 C :   -0.125463
   2 C :   -0.115767
   3 C :    0.011934
   4 C :   -0.153859
   5 H :    0.044894
   6 C :    0.093600
   7 H :    0.010172
   8 H :    0.027732
   9 C :   -0.017520
  10 H :    0.024907
  11 H :    0.024691
  12 C :   -0.034584
  13 H :    0.032316
  14 H :    0.010466
  15 H :    0.025538
  16 S :    0.112785
  17 C :   -0.079958
  18 C :   -0.045613
  19 C :    0.011877
  20 C :   -0.224519
  21 H :    0.007882
  22 C :    0.120368
  23 H :   -0.000431
  24 H :    0.004169
  25 C :   -0.093828
  26 H :    0.020617
  27 H :    0.030964
  28 C :   -0.037852
  29 H :    0.033127
  30 H :    0.028747
  31 H :    0.032244
  32 H :    0.042742
  33 H :    0.056348
Sum of atomic charges:    0.0000000

LOEWDIN ATOMIC CHARGES
----------------------
   0 S :    0.389687
   1 C :   -0.199404
   2 C :   -0.067229
   3 C :   -0.063734
   4 C :   -0.189709
   5 H :    0.047517
   6 C :   -0.028475
   7 H :    0.030673
   8 H :    0.028688
   9 C :   -0.029503
  10 H :    0.027218
  11 H :    0.024281
  12 C :   -0.065911
  13 H :    0.027784
  14 H :    0.023087
  15 H :    0.022584
  16 S :    0.423796
  17 C :   -0.197586
  18 C :   -0.069172
  19 C :   -0.046228
  20 C :   -0.200552
  21 H :    0.023725
  22 C :   -0.035423
  23 H :    0.022914
  24 H :    0.028685
  25 C :   -0.037739
  26 H :    0.024168
  27 H :    0.023131
  28 C :   -0.062388
  29 H :    0.029429
  30 H :    0.020559
  31 H :    0.027156
  32 H :    0.023870
  33 H :    0.024102

  Mayer bond orders larger than 0.100000
B(  0-S ,  1-C ) :   1.1361 B(  0-S ,  4-C ) :   1.1368 B(  1-C ,  2-C ) :   1.6394
B(  1-C , 32-H ) :   0.9537 B(  2-C ,  3-C ) :   1.2243 B(  2-C ,  6-C ) :   1.0063
B(  3-C ,  4-C ) :   1.6365 B(  3-C ,  5-H ) :   0.9765 B(  4-C , 20-C ) :   0.9917
B(  6-C ,  7-H ) :   0.9395 B(  6-C ,  8-H ) :   0.9227 B(  6-C ,  9-C ) :   1.0921
B(  9-C , 10-H ) :   0.9539 B(  9-C , 11-H ) :   0.9553 B(  9-C , 12-C ) :   1.0715
B( 12-C , 13-H ) :   0.9754 B( 12-C , 14-H ) :   0.9615 B( 12-C , 15-H ) :   0.9667
B( 16-S , 17-C ) :   1.1867 B( 16-S , 20-C ) :   1.1508 B( 17-C , 18-C ) :   1.6049
B( 17-C , 33-H ) :   0.9613 B( 18-C , 19-C ) :   1.2193 B( 18-C , 21-H ) :   0.9997
B( 19-C , 20-C ) :   1.6204 B( 19-C , 22-C ) :   1.0550 B( 22-C , 23-H ) :   0.9134
B( 22-C , 24-H ) :   0.9276 B( 22-C , 25-C ) :   1.0655 B( 25-C , 26-H ) :   0.9543
B( 25-C , 27-H ) :   0.9506 B( 25-C , 28-C ) :   1.0846 B( 28-C , 29-H ) :   0.9745
B( 28-C , 30-H ) :   0.9746 B( 28-C , 31-H ) :   0.9736

Dispersion correction           -0.014253451
FINAL SINGLE POINT ENERGY     -1339.867568936182

DIPOLE MOMENT
-------------
                                X             Y             Z
Electronic contribution:      5.46310     -21.48812       9.65564
Nuclear contribution   :     -5.81252      22.03939      -9.93509
                        -----------------------------------------
Total Dipole Moment    :     -0.34942       0.55126      -0.27946
                        -----------------------------------------
Magnitude (a.u.)       :      0.70999
Magnitude (Debye)      :      1.80464

Rotational constants in cm-1:     0.019842     0.007974     0.006465
Rotational constants in MHz :   594.856006   239.047610   193.813235

                             ****ORCA TERMINATED NORMALLY****
TOTAL RUN TIME: 0 days 0 hours 0 minutes 34 seconds 64 msec
