                         Program Version 4.2.1 -  RELEASE  -
|  1> ! wB97X-D3 SP def2-SVP
|  2> %pal
|  3> nprocs 16
|  4> end
|  5>
|  6> * xyz 0 1
|  7> S 	 -41.4053 	 34.9336 	 84.5899
|  8> C 	 -42.8791 	 35.2918 	 83.7417
|  9> C 	 -43.722 	 34.2291 	 83.5314
| 10> C 	 -43.1256 	 33.0239 	 84.0384
| 11> C 	 -41.994 	 33.2309 	 84.8511
| 12> H 	 -43.7369 	 32.1029 	 84.0471
| 13> C 	 -45.0617 	 34.3081 	 82.756
| 14> H 	 -44.6867 	 34.3014 	 81.7213
| 15> H 	 -45.6402 	 35.209 	 82.9722
| 16> C 	 -46.0396 	 33.1436 	 83.0254
| 17> H 	 -46.8218 	 33.2571 	 82.3051
| 18> H 	 -45.653 	 32.1781 	 82.9039
| 19> C 	 -46.5579 	 33.1263 	 84.448
| 20> H 	 -47.2059 	 32.3075 	 84.7851
| 21> H 	 -45.71 	 33.2159 	 85.1398
| 22> H 	 -47.0181 	 34.0894 	 84.7573
| 23> S 	 -39.752 	 33.1258 	 86.542
| 24> C 	 -39.3149 	 31.5137 	 87.1538
| 25> C 	 -39.9244 	 30.4713 	 86.5012
| 26> C 	 -40.9279 	 30.8989 	 85.5625
| 27> C 	 -41.063 	 32.3361 	 85.5531
| 28> H 	 -39.6218 	 29.5049 	 86.689
| 29> C 	 -41.7874 	 29.8724 	 84.787
| 30> H 	 -41.2944 	 28.8718 	 84.7735
| 31> H 	 -41.7052 	 30.0326 	 83.7486
| 32> C 	 -43.1787 	 29.5599 	 85.3822
| 33> H 	 -43.6673 	 30.511 	 85.5453
| 34> H 	 -43.2317 	 29.1344 	 86.3935
| 35> C 	 -44.0293 	 28.516 	 84.6163
| 36> H 	 -45.0974 	 28.4156 	 84.9084
| 37> H 	 -43.6206 	 27.4844 	 84.715
| 38> H 	 -43.9876 	 28.8007 	 83.5189
| 39> H 	 -43.1748 	 36.322 	 83.3176
| 40> H 	 -38.5853 	 31.3603 	 87.9863
| 41> *
| 42>
| 43>                          ****END OF INPUT****

CARTESIAN COORDINATES (ANGSTROEM)
---------------------------------
  S    -41.405300   34.933600   84.589900
  C    -42.879100   35.291800   83.741700
  C    -43.722000   34.229100   83.531400
  C    -43.125600   33.023900   84.038400
  C    -41.994000   33.230900   84.851100
  H    -43.736900   32.102900   84.047100
  C    -45.061700   34.308100   82.756000
  H    -44.686700   34.301400   81.721300
  H    -45.640200   35.209000   82.972200
  C    -46.039600   33.143600   83.025400
  H    -46.821800   33.257100   82.305100
  H    -45.653000   32.178100   82.903900
  C    -46.557900   33.126300   84.448000
  H    -47.205900   32.307500   84.785100
  H    -45.710000   33.215900   85.139800
  H    -47.018100   34.089400   84.757300
  S    -39.752000   33.125800   86.542000
  C    -39.314900   31.513700   87.153800
  C    -39.924400   30.471300   86.501200
  C    -40.927900   30.898900   85.562500
  C    -41.063000   32.336100   85.553100
  H    -39.621800   29.504900   86.689000
  C    -41.787400   29.872400   84.787000
  H    -41.294400   28.871800   84.773500
  H    -41.705200   30.032600   83.748600
  C    -43.178700   29.559900   85.382200
  H    -43.667300   30.511000   85.545300
  H    -43.231700   29.134400   86.393500
  C    -44.029300   28.516000   84.616300
  H    -45.097400   28.415600   84.908400
  H    -43.620600   27.484400   84.715000
  H    -43.987600   28.800700   83.518900
  H    -43.174800   36.322000   83.317600
  H    -38.585300   31.360300   87.986300

 Total Charge           Charge          ....    0
 Multiplicity           Mult            ....    1
 Number of Electrons    NEL             ....  134
 Basis Dimension        Dim             ....  322

ORBITAL ENERGIES
----------------

  NO   OCC          E(Eh)            E(eV)
   0   2.0000     -88.970343     -2421.0061
   1   2.0000     -88.966993     -2420.9150
   2   2.0000     -10.342288      -281.4280
   3   2.0000     -10.341432      -281.4047
   4   2.0000     -10.323361      -280.9129
   5   2.0000     -10.316977      -280.7392
   6   2.0000     -10.315740      -280.7056
   7   2.0000     -10.302170      -280.3363
   8   2.0000     -10.301871      -280.3282
   9   2.0000     -10.301758      -280.3251
  10   2.0000     -10.299406      -280.2611
  11   2.0000     -10.292381      -280.0699
  12   2.0000     -10.291539      -280.0470
  13   2.0000     -10.291378      -280.0426
  14   2.0000     -10.284087      -279.8442
  15   2.0000     -10.277901      -279.6759
  16   2.0000      -8.083452      -219.9619
  17   2.0000      -8.080897      -219.8924
  18   2.0000      -6.042104      -164.4140
  19   2.0000      -6.039538      -164.3442
  20   2.0000      -6.038451      -164.3146
  21   2.0000      -6.035755      -164.2412
  22   2.0000      -6.033911      -164.1911
  23   2.0000      -6.031353      -164.1215
  24   2.0000      -0.995489       -27.0886
  25   2.0000      -0.974002       -26.5039
  26   2.0000      -0.913771       -24.8650
  27   2.0000      -0.904376       -24.6093
  28   2.0000      -0.867096       -23.5949
  29   2.0000      -0.848659       -23.0932
  30   2.0000      -0.840676       -22.8760
  31   2.0000      -0.813414       -22.1341
  32   2.0000      -0.784926       -21.3589
  33   2.0000      -0.768452       -20.9106
  34   2.0000      -0.712585       -19.3904
  35   2.0000      -0.703209       -19.1353
  36   2.0000      -0.690032       -18.7767
  37   2.0000      -0.661438       -17.9986
  38   2.0000      -0.632122       -17.2009
  39   2.0000      -0.620859       -16.8944
  40   2.0000      -0.597082       -16.2474
  41   2.0000      -0.570109       -15.5134
  42   2.0000      -0.559348       -15.2206
  43   2.0000      -0.552686       -15.0393
  44   2.0000      -0.532548       -14.4914
  45   2.0000      -0.528575       -14.3833
  46   2.0000      -0.516407       -14.0522
  47   2.0000      -0.510741       -13.8980
  48   2.0000      -0.501091       -13.6354
  49   2.0000      -0.489736       -13.3264
  50   2.0000      -0.482683       -13.1345
  51   2.0000      -0.480821       -13.0838
  52   2.0000      -0.473940       -12.8966
  53   2.0000      -0.462086       -12.5740
  54   2.0000      -0.458673       -12.4811
  55   2.0000      -0.450998       -12.2723
  56   2.0000      -0.444888       -12.1060
  57   2.0000      -0.437339       -11.9006
  58   2.0000      -0.435297       -11.8450
  59   2.0000      -0.430105       -11.7037
  60   2.0000      -0.422667       -11.5014
  61   2.0000      -0.412912       -11.2359
  62   2.0000      -0.400771       -10.9055
  63   2.0000      -0.360037        -9.7971
  64   2.0000      -0.339183        -9.2297
  65   2.0000      -0.328275        -8.9328
  66   2.0000      -0.274874        -7.4797
  67   0.0000       0.009787         0.2663
  68   0.0000       0.066491         1.8093
  69   0.0000       0.093506         2.5444
  70   0.0000       0.121715         3.3120
  71   0.0000       0.124245         3.3809

MULLIKEN ATOMIC CHARGES
-----------------------
   0 S :    0.078318
   1 C :   -0.127528
   2 C :   -0.134922
   3 C :   -0.002704
   4 C :   -0.094948
   5 H :    0.023545
   6 C :    0.053683
   7 H :    0.056754
   8 H :    0.038909
   9 C :   -0.028901
  10 H :    0.024127
  11 H :    0.017245
  12 C :   -0.081403
  13 H :    0.049660
  14 H :    0.031285
  15 H :    0.016239
  16 S :    0.085872
  17 C :   -0.096474
  18 C :    0.014188
  19 C :   -0.053150
  20 C :   -0.130861
  21 H :   -0.011079
  22 C :    0.068119
  23 H :    0.010339
  24 H :    0.027963
  25 C :   -0.058693
  26 H :    0.023278
  27 H :    0.030593
  28 C :   -0.090890
  29 H :    0.047926
  30 H :    0.041385
  31 H :    0.034654
  32 H :    0.065349
  33 H :    0.072124
Sum of atomic charges:   -0.0000000

LOEWDIN ATOMIC CHARGES
----------------------
   0 S :    0.373915
   1 C :   -0.212073
   2 C :   -0.072808
   3 C :   -0.071233
   4 C :   -0.160700
   5 H :    0.032544
   6 C :   -0.023276
   7 H :    0.042437
   8 H :    0.034451
   9 C :   -0.039224
  10 H :    0.024463
  11 H :    0.015764
  12 C :   -0.077579
  13 H :    0.029377
  14 H :    0.029137
  15 H :    0.025663
  16 S :    0.360181
  17 C :   -0.173899
  18 C :   -0.059486
  19 C :   -0.044228
  20 C :   -0.174234
  21 H :    0.020958
  22 C :   -0.036650
  23 H :    0.036139
  24 H :    0.028645
  25 C :   -0.047440
  26 H :    0.017708
  27 H :    0.031167
  28 C :   -0.076645
  29 H :    0.032058
  30 H :    0.027891
  31 H :    0.026124
  32 H :    0.042971
  33 H :    0.037881

  Mayer bond orders larger than 0.100000
B(  0-S ,  1-C ) :   1.1362 B(  0-S ,  4-C ) :   1.1196 B(  1-C ,  2-C ) :   1.6570
B(  1-C , 32-H ) :   0.9497 B(  2-C ,  3-C ) :   1.2495 B(  2-C ,  6-C ) :   0.9898
B(  3-C ,  4-C ) :   1.5744 B(  3-C ,  5-H ) :   0.9687 B(  4-C , 20-C ) :   1.1035
B(  6-C ,  7-H ) :   0.9382 B(  6-C ,  8-H ) :   0.9505 B(  6-C ,  9-C ) :   1.0813
B(  9-C , 10-H ) :   0.9509 B(  9-C , 11-H ) :   0.9515 B(  9-C , 12-C ) :   1.0683
B( 12-C , 13-H ) :   0.9768 B( 12-C , 14-H ) :   0.9691 B( 12-C , 15-H ) :   0.9679
B( 16-S , 17-C ) :   1.1313 B( 16-S , 20-C ) :   1.1220 B( 17-C , 18-C ) :   1.6334
B( 17-C , 33-H ) :   0.9589 B( 18-C , 19-C ) :   1.2317 B( 18-C , 21-H ) :   1.0009
B( 19-C , 20-C ) :   1.5674 B( 19-C , 22-C ) :   1.0433 B( 22-C , 23-H ) :   0.9319
B( 22-C , 24-H ) :   0.9344 B( 22-C , 25-C ) :   1.0420 B( 25-C , 26-H ) :   0.9584
B( 25-C , 27-H ) :   0.9535 B( 25-C , 28-C ) :   1.0660 B( 28-C , 29-H ) :   0.9743
B( 28-C , 30-H ) :   0.9761 B( 28-C , 31-H ) :   0.9765

Dispersion correction           -0.014711543
FINAL SINGLE POINT ENERGY     -1339.852619569409

DIPOLE MOMENT
-------------
                                X             Y             Z
Electronic contribution:     26.36234      17.27541       7.50982
Nuclear contribution   :    -26.83324     -17.84012      -7.70683
                        -----------------------------------------
Total Dipole Moment    :     -0.47090      -0.56471      -0.19701
                        -----------------------------------------
Magnitude (a.u.)       :      0.76122
Magnitude (Debye)      :      1.93488

Rotational constants in cm-1:     0.016365     0.010606     0.006849
Rotational constants in MHz :   490.624544   317.956741   205.318175

                             ****ORCA TERMINATED NORMALLY****
TOTAL RUN TIME: 0 days 0 hours 0 minutes 30 seconds 992 msec
