                         Program Version 4.2.1 -  RELEASE  -
|  1> ! wB97X-D3 SP def2-SVP
|  2> %pal
|  3> nprocs 16
|  4> end
|  5>
|  6> * xyz 0 1
|  7> S 	 -55.7468 	 24.4891 	 97.7164
|  8> C 	 -54.3538 	 23.4881 	 97.8387
|  9> C 	 -53.9257 	 23.1311 	 96.6123
| 10> C 	 -54.6093 	 23.7093 	 95.5178
| 11> C 	 -55.6435 	 24.5515 	 95.9349
| 12> H 	 -54.4202 	 23.5418 	 94.4533
| 13> C 	 -52.7862 	 22.1143 	 96.2858
| 14> H 	 -51.8899 	 22.352 	 96.9069
| 15> H 	 -52.4683 	 22.3738 	 95.2174
| 16> C 	 -53.1157 	 20.575 	 96.3372
| 17> H 	 -53.2534 	 20.2019 	 97.2882
| 18> H 	 -54.0451 	 20.3773 	 95.8199
| 19> C 	 -52.0285 	 19.692 	 95.5727
| 20> H 	 -52.3675 	 18.7191 	 95.4872
| 21> H 	 -51.9308 	 20.1168 	 94.549
| 22> H 	 -50.995 	 19.8139 	 95.9609
| 23> S 	 -58.1934 	 25.5461 	 95.8899
| 24> C 	 -58.6818 	 26.6307 	 94.6217
| 25> C 	 -57.8179 	 26.6242 	 93.5919
| 26> C 	 -56.6062 	 25.9403 	 93.8809
| 27> C 	 -56.6688 	 25.3417 	 95.1697
| 28> H 	 -57.9991 	 27.0755 	 92.6763
| 29> C 	 -55.4958 	 25.8334 	 92.8828
| 30> H 	 -55.8467 	 25.0763 	 92.1022
| 31> H 	 -54.6406 	 25.4006 	 93.3759
| 32> C 	 -55.1147 	 27.1965 	 92.1859
| 33> H 	 -54.856 	 27.9407 	 92.9544
| 34> H 	 -55.9407 	 27.4711 	 91.5922
| 35> C 	 -53.8678 	 27.0745 	 91.3498
| 36> H 	 -53.7152 	 26.1018 	 90.8234
| 37> H 	 -52.9854 	 27.1002 	 91.9845
| 38> H 	 -53.9001 	 27.7941 	 90.6269
| 39> H 	 -54.0492 	 22.9706 	 98.7547
| 40> H 	 -59.6224 	 27.1079 	 94.4909
| 41> *
| 42>
| 43>                          ****END OF INPUT****

CARTESIAN COORDINATES (ANGSTROEM)
---------------------------------
  S    -55.746800   24.489100   97.716400
  C    -54.353800   23.488100   97.838700
  C    -53.925700   23.131100   96.612300
  C    -54.609300   23.709300   95.517800
  C    -55.643500   24.551500   95.934900
  H    -54.420200   23.541800   94.453300
  C    -52.786200   22.114300   96.285800
  H    -51.889900   22.352000   96.906900
  H    -52.468300   22.373800   95.217400
  C    -53.115700   20.575000   96.337200
  H    -53.253400   20.201900   97.288200
  H    -54.045100   20.377300   95.819900
  C    -52.028500   19.692000   95.572700
  H    -52.367500   18.719100   95.487200
  H    -51.930800   20.116800   94.549000
  H    -50.995000   19.813900   95.960900
  S    -58.193400   25.546100   95.889900
  C    -58.681800   26.630700   94.621700
  C    -57.817900   26.624200   93.591900
  C    -56.606200   25.940300   93.880900
  C    -56.668800   25.341700   95.169700
  H    -57.999100   27.075500   92.676300
  C    -55.495800   25.833400   92.882800
  H    -55.846700   25.076300   92.102200
  H    -54.640600   25.400600   93.375900
  C    -55.114700   27.196500   92.185900
  H    -54.856000   27.940700   92.954400
  H    -55.940700   27.471100   91.592200
  C    -53.867800   27.074500   91.349800
  H    -53.715200   26.101800   90.823400
  H    -52.985400   27.100200   91.984500
  H    -53.900100   27.794100   90.626900
  H    -54.049200   22.970600   98.754700
  H    -59.622400   27.107900   94.490900

 Total Charge           Charge          ....    0
 Multiplicity           Mult            ....    1
 Number of Electrons    NEL             ....  134
 Basis Dimension        Dim             ....  322

ORBITAL ENERGIES
----------------

  NO   OCC          E(Eh)            E(eV)
   0   2.0000     -88.967672     -2420.9334
   1   2.0000     -88.964118     -2420.8367
   2   2.0000     -10.337710      -281.3034
   3   2.0000     -10.329001      -281.0664
   4   2.0000     -10.309303      -280.5304
   5   2.0000     -10.308943      -280.5206
   6   2.0000     -10.302795      -280.3533
   7   2.0000     -10.301308      -280.3128
   8   2.0000     -10.297693      -280.2145
   9   2.0000     -10.296352      -280.1780
  10   2.0000     -10.295593      -280.1573
  11   2.0000     -10.286366      -279.9062
  12   2.0000     -10.286279      -279.9039
  13   2.0000     -10.283610      -279.8313
  14   2.0000     -10.280446      -279.7452
  15   2.0000     -10.271399      -279.4990
  16   2.0000      -8.083409      -219.9607
  17   2.0000      -8.078925      -219.8387
  18   2.0000      -6.041883      -164.4080
  19   2.0000      -6.037843      -164.2981
  20   2.0000      -6.037494      -164.2886
  21   2.0000      -6.034077      -164.1956
  22   2.0000      -6.033383      -164.1767
  23   2.0000      -6.029649      -164.0751
  24   2.0000      -1.010623       -27.5005
  25   2.0000      -0.990320       -26.9480
  26   2.0000      -0.911641       -24.8070
  27   2.0000      -0.896819       -24.4037
  28   2.0000      -0.869998       -23.6739
  29   2.0000      -0.857883       -23.3442
  30   2.0000      -0.845514       -23.0076
  31   2.0000      -0.818715       -22.2784
  32   2.0000      -0.777609       -21.1598
  33   2.0000      -0.767533       -20.8856
  34   2.0000      -0.707759       -19.2591
  35   2.0000      -0.704338       -19.1660
  36   2.0000      -0.698306       -19.0019
  37   2.0000      -0.661984       -18.0135
  38   2.0000      -0.638541       -17.3756
  39   2.0000      -0.620581       -16.8869
  40   2.0000      -0.597205       -16.2508
  41   2.0000      -0.574822       -15.6417
  42   2.0000      -0.565707       -15.3937
  43   2.0000      -0.553534       -15.0624
  44   2.0000      -0.531118       -14.4524
  45   2.0000      -0.527631       -14.3576
  46   2.0000      -0.516914       -14.0660
  47   2.0000      -0.512065       -13.9340
  48   2.0000      -0.504525       -13.7288
  49   2.0000      -0.498242       -13.5578
  50   2.0000      -0.493488       -13.4285
  51   2.0000      -0.477205       -12.9854
  52   2.0000      -0.473546       -12.8858
  53   2.0000      -0.464087       -12.6285
  54   2.0000      -0.458517       -12.4769
  55   2.0000      -0.454488       -12.3672
  56   2.0000      -0.444604       -12.0983
  57   2.0000      -0.441634       -12.0175
  58   2.0000      -0.432210       -11.7610
  59   2.0000      -0.425669       -11.5830
  60   2.0000      -0.423956       -11.5364
  61   2.0000      -0.419205       -11.4071
  62   2.0000      -0.410190       -11.1618
  63   2.0000      -0.359065        -9.7707
  64   2.0000      -0.334311        -9.0971
  65   2.0000      -0.328116        -8.9285
  66   2.0000      -0.285125        -7.7586
  67   0.0000       0.023978         0.6525
  68   0.0000       0.085692         2.3318
  69   0.0000       0.102233         2.7819
  70   0.0000       0.119942         3.2638
  71   0.0000       0.144865         3.9420

MULLIKEN ATOMIC CHARGES
-----------------------
   0 S :    0.091320
   1 C :   -0.113094
   2 C :   -0.076339
   3 C :    0.007513
   4 C :   -0.135725
   5 H :    0.024655
   6 C :    0.009586
   7 H :    0.039525
   8 H :    0.021867
   9 C :   -0.026571
  10 H :    0.015268
  11 H :    0.024875
  12 C :   -0.061851
  13 H :    0.031817
  14 H :    0.023833
  15 H :    0.039195
  16 S :    0.115460
  17 C :   -0.059195
  18 C :   -0.010862
  19 C :   -0.054792
  20 C :   -0.136167
  21 H :   -0.011853
  22 C :    0.029893
  23 H :    0.052245
  24 H :    0.011706
  25 C :   -0.080101
  26 H :    0.046789
  27 H :    0.024341
  28 C :   -0.006193
  29 H :    0.018908
  30 H :    0.031131
  31 H :    0.015700
  32 H :    0.056907
  33 H :    0.040208
Sum of atomic charges:   -0.0000000

LOEWDIN ATOMIC CHARGES
----------------------
   0 S :    0.398348
   1 C :   -0.209772
   2 C :   -0.072412
   3 C :   -0.074236
   4 C :   -0.170824
   5 H :    0.033768
   6 C :   -0.034208
   7 H :    0.031866
   8 H :    0.031695
   9 C :   -0.029891
  10 H :    0.010174
  11 H :    0.025227
  12 C :   -0.061857
  13 H :    0.015785
  14 H :    0.026412
  15 H :    0.027912
  16 S :    0.432615
  17 C :   -0.183751
  18 C :   -0.060594
  19 C :   -0.057971
  20 C :   -0.216567
  21 H :    0.019923
  22 C :   -0.036207
  23 H :    0.043322
  24 H :    0.022804
  25 C :   -0.032258
  26 H :    0.034841
  27 H :    0.014696
  28 C :   -0.059778
  29 H :    0.026869
  30 H :    0.027655
  31 H :    0.013945
  32 H :    0.036454
  33 H :    0.026015

  Mayer bond orders larger than 0.100000
B(  0-S ,  1-C ) :   1.1309 B(  0-S ,  4-C ) :   1.1617 B(  1-C ,  2-C ) :   1.6295
B(  1-C , 32-H ) :   0.9653 B(  2-C ,  3-C ) :   1.2575 B(  2-C ,  6-C ) :   1.0068
B(  3-C ,  4-C ) :   1.5563 B(  3-C ,  5-H ) :   0.9844 B(  4-C , 20-C ) :   1.0358
B(  6-C ,  7-H ) :   0.9471 B(  6-C ,  8-H ) :   0.9491 B(  6-C ,  9-C ) :   1.0524
B(  9-C , 10-H ) :   0.9600 B(  9-C , 11-H ) :   0.9575 B(  9-C , 12-C ) :   1.0739
B( 12-C , 13-H ) :   0.9777 B( 12-C , 14-H ) :   0.9764 B( 12-C , 15-H ) :   0.9787
B( 16-S , 17-C ) :   1.1472 B( 16-S , 20-C ) :   1.1629 B( 17-C , 18-C ) :   1.6095
B( 17-C , 33-H ) :   0.9671 B( 18-C , 19-C ) :   1.2624 B( 18-C , 21-H ) :   0.9977
B( 19-C , 20-C ) :   1.5518 B( 19-C , 22-C ) :   1.0537 B( 22-C , 23-H ) :   0.9281
B( 22-C , 24-H ) :   0.9305 B( 22-C , 25-C ) :   1.0640 B( 25-C , 26-H ) :   0.9583
B( 25-C , 27-H ) :   0.9548 B( 25-C , 28-C ) :   1.0932 B( 28-C , 29-H ) :   0.9707
B( 28-C , 30-H ) :   0.9746 B( 28-C , 31-H ) :   0.9728

Dispersion correction           -0.013134471
FINAL SINGLE POINT ENERGY     -1339.868921670923

DIPOLE MOMENT
-------------
                                X             Y             Z
Electronic contribution:    -22.05986       9.41864      18.46029
Nuclear contribution   :     22.30254      -9.61289     -19.08482
                        -----------------------------------------
Total Dipole Moment    :      0.24268      -0.19425      -0.62453
                        -----------------------------------------
Magnitude (a.u.)       :      0.69761
Magnitude (Debye)      :      1.77319

Rotational constants in cm-1:     0.017220     0.007985     0.005980
Rotational constants in MHz :   516.236950   239.389289   179.269826

                             ****ORCA TERMINATED NORMALLY****
TOTAL RUN TIME: 0 days 0 hours 0 minutes 28 seconds 696 msec
