                         Program Version 4.2.1 -  RELEASE  -
|  1> ! wB97X-D3 SP def2-SVP
|  2> %pal
|  3> nprocs 16
|  4> end
|  5>
|  6> * xyz 0 1
|  7> S 	 -79.6511 	 51.8284 	 136.762
|  8> C 	 -80.8843 	 50.5439 	 136.487
|  9> C 	 -81.993 	 51.1243 	 135.937
| 10> C 	 -81.9059 	 52.5736 	 135.933
| 11> C 	 -80.6749 	 53.0604 	 136.194
| 12> H 	 -82.7044 	 53.3084 	 135.702
| 13> C 	 -83.314 	 50.3444 	 135.611
| 14> H 	 -83.0907 	 49.4155 	 135.14
| 15> H 	 -83.7833 	 50.9364 	 134.809
| 16> C 	 -84.3611 	 50.485 	 136.828
| 17> H 	 -84.0063 	 49.7762 	 137.597
| 18> H 	 -84.2627 	 51.4813 	 137.29
| 19> C 	 -85.8366 	 50.2463 	 136.562
| 20> H 	 -86.0984 	 49.1871 	 136.209
| 21> H 	 -86.4146 	 50.442 	 137.46
| 22> H 	 -86.1759 	 51.0571 	 135.905
| 23> S 	 -80.4212 	 55.1138 	 134.443
| 24> C 	 -79.7483 	 56.5875 	 134.889
| 25> C 	 -79.2198 	 56.5233 	 136.165
| 26> C 	 -79.4363 	 55.2584 	 136.811
| 27> C 	 -80.1798 	 54.4212 	 136.031
| 28> H 	 -78.7903 	 57.3519 	 136.717
| 29> C 	 -78.9745 	 55.0944 	 138.284
| 30> H 	 -77.9786 	 55.6031 	 138.421
| 31> H 	 -78.7809 	 54.0748 	 138.657
| 32> C 	 -79.892 	 55.6912 	 139.37
| 33> H 	 -80.2239 	 56.6244 	 139.011
| 34> H 	 -79.404 	 55.7552 	 140.332
| 35> C 	 -81.127 	 54.803 	 139.472
| 36> H 	 -81.7217 	 55.1886 	 140.285
| 37> H 	 -81.0303 	 53.6989 	 139.787
| 38> H 	 -81.731 	 54.7438 	 138.569
| 39> H 	 -80.5999 	 49.5149 	 136.47
| 40> H 	 -79.6241 	 57.4345 	 134.264
| 41> *
| 42>
| 43>                          ****END OF INPUT****

CARTESIAN COORDINATES (ANGSTROEM)
---------------------------------
  S    -79.651100   51.828400  136.762000
  C    -80.884300   50.543900  136.487000
  C    -81.993000   51.124300  135.937000
  C    -81.905900   52.573600  135.933000
  C    -80.674900   53.060400  136.194000
  H    -82.704400   53.308400  135.702000
  C    -83.314000   50.344400  135.611000
  H    -83.090700   49.415500  135.140000
  H    -83.783300   50.936400  134.809000
  C    -84.361100   50.485000  136.828000
  H    -84.006300   49.776200  137.597000
  H    -84.262700   51.481300  137.290000
  C    -85.836600   50.246300  136.562000
  H    -86.098400   49.187100  136.209000
  H    -86.414600   50.442000  137.460000
  H    -86.175900   51.057100  135.905000
  S    -80.421200   55.113800  134.443000
  C    -79.748300   56.587500  134.889000
  C    -79.219800   56.523300  136.165000
  C    -79.436300   55.258400  136.811000
  C    -80.179800   54.421200  136.031000
  H    -78.790300   57.351900  136.717000
  C    -78.974500   55.094400  138.284000
  H    -77.978600   55.603100  138.421000
  H    -78.780900   54.074800  138.657000
  C    -79.892000   55.691200  139.370000
  H    -80.223900   56.624400  139.011000
  H    -79.404000   55.755200  140.332000
  C    -81.127000   54.803000  139.472000
  H    -81.721700   55.188600  140.285000
  H    -81.030300   53.698900  139.787000
  H    -81.731000   54.743800  138.569000
  H    -80.599900   49.514900  136.470000
  H    -79.624100   57.434500  134.264000

 Total Charge           Charge          ....    0
 Multiplicity           Mult            ....    1
 Number of Electrons    NEL             ....  134
 Basis Dimension        Dim             ....  322

ORBITAL ENERGIES
----------------

  NO   OCC          E(Eh)            E(eV)
   0   2.0000     -88.966896     -2420.9123
   1   2.0000     -88.959017     -2420.6979
   2   2.0000     -10.326357      -280.9945
   3   2.0000     -10.323955      -280.9291
   4   2.0000     -10.313528      -280.6454
   5   2.0000     -10.312774      -280.6248
   6   2.0000     -10.307490      -280.4811
   7   2.0000     -10.306030      -280.4413
   8   2.0000     -10.299380      -280.2604
   9   2.0000     -10.295098      -280.1439
  10   2.0000     -10.294199      -280.1194
  11   2.0000     -10.293314      -280.0953
  12   2.0000     -10.293194      -280.0920
  13   2.0000     -10.284785      -279.8632
  14   2.0000     -10.281004      -279.7603
  15   2.0000     -10.271076      -279.4902
  16   2.0000      -8.082932      -219.9478
  17   2.0000      -8.074280      -219.7123
  18   2.0000      -6.041362      -164.3938
  19   2.0000      -6.037116      -164.2783
  20   2.0000      -6.033827      -164.1888
  21   2.0000      -6.032908      -164.1638
  22   2.0000      -6.028644      -164.0477
  23   2.0000      -6.024922      -163.9465
  24   2.0000      -1.015465       -27.6322
  25   2.0000      -0.990009       -26.9395
  26   2.0000      -0.908981       -24.7346
  27   2.0000      -0.901820       -24.5398
  28   2.0000      -0.870976       -23.7005
  29   2.0000      -0.850899       -23.1541
  30   2.0000      -0.841296       -22.8928
  31   2.0000      -0.814324       -22.1589
  32   2.0000      -0.780956       -21.2509
  33   2.0000      -0.773326       -21.0433
  34   2.0000      -0.703404       -19.1406
  35   2.0000      -0.695712       -18.9313
  36   2.0000      -0.690250       -18.7827
  37   2.0000      -0.669319       -18.2131
  38   2.0000      -0.640786       -17.4367
  39   2.0000      -0.615332       -16.7440
  40   2.0000      -0.604488       -16.4490
  41   2.0000      -0.564557       -15.3624
  42   2.0000      -0.556303       -15.1378
  43   2.0000      -0.555414       -15.1136
  44   2.0000      -0.536640       -14.6027
  45   2.0000      -0.525266       -14.2932
  46   2.0000      -0.519702       -14.1418
  47   2.0000      -0.505957       -13.7678
  48   2.0000      -0.501692       -13.6517
  49   2.0000      -0.498656       -13.5691
  50   2.0000      -0.494939       -13.4680
  51   2.0000      -0.480354       -13.0711
  52   2.0000      -0.467252       -12.7146
  53   2.0000      -0.462348       -12.5811
  54   2.0000      -0.458429       -12.4745
  55   2.0000      -0.451483       -12.2855
  56   2.0000      -0.445010       -12.1093
  57   2.0000      -0.434371       -11.8198
  58   2.0000      -0.426739       -11.6122
  59   2.0000      -0.424974       -11.5641
  60   2.0000      -0.413313       -11.2468
  61   2.0000      -0.409737       -11.1495
  62   2.0000      -0.408656       -11.1201
  63   2.0000      -0.350089        -9.5264
  64   2.0000      -0.332527        -9.0485
  65   2.0000      -0.325662        -8.8617
  66   2.0000      -0.299839        -8.1590
  67   0.0000       0.034871         0.9489
  68   0.0000       0.074811         2.0357
  69   0.0000       0.113655         3.0927
  70   0.0000       0.116740         3.1767
  71   0.0000       0.124205         3.3798

MULLIKEN ATOMIC CHARGES
-----------------------
   0 S :    0.090796
   1 C :   -0.117804
   2 C :   -0.096622
   3 C :   -0.007178
   4 C :   -0.126646
   5 H :    0.023961
   6 C :    0.080253
   7 H :    0.026998
   8 H :    0.015706
   9 C :   -0.092284
  10 H :    0.032116
  11 H :    0.037487
  12 C :   -0.052225
  13 H :    0.051699
  14 H :    0.032766
  15 H :    0.031681
  16 S :    0.129455
  17 C :   -0.065703
  18 C :   -0.044651
  19 C :   -0.015162
  20 C :   -0.171911
  21 H :    0.019106
  22 C :    0.016456
  23 H :    0.029362
  24 H :    0.025487
  25 C :   -0.001579
  26 H :    0.011868
  27 H :    0.034614
  28 C :   -0.096572
  29 H :    0.022033
  30 H :    0.035295
  31 H :    0.040266
  32 H :    0.052823
  33 H :    0.048109
Sum of atomic charges:    0.0000000

LOEWDIN ATOMIC CHARGES
----------------------
   0 S :    0.401441
   1 C :   -0.180867
   2 C :   -0.054741
   3 C :   -0.082732
   4 C :   -0.204955
   5 H :    0.035206
   6 C :   -0.027180
   7 H :    0.025192
   8 H :    0.028654
   9 C :   -0.042500
  10 H :    0.023791
  11 H :    0.030951
  12 C :   -0.075516
  13 H :    0.034584
  14 H :    0.028683
  15 H :    0.026142
  16 S :    0.446757
  17 C :   -0.202139
  18 C :   -0.069968
  19 C :   -0.057437
  20 C :   -0.199796
  21 H :    0.029912
  22 C :   -0.037765
  23 H :    0.033156
  24 H :    0.025007
  25 C :   -0.029556
  26 H :    0.017695
  27 H :    0.026953
  28 C :   -0.077250
  29 H :    0.020130
  30 H :    0.031720
  31 H :    0.024710
  32 H :    0.025472
  33 H :    0.026246

  Mayer bond orders larger than 0.100000
B(  0-S ,  1-C ) :   1.1136 B(  0-S ,  4-C ) :   1.1549 B(  1-C ,  2-C ) :   1.6429
B(  1-C , 32-H ) :   0.9743 B(  2-C ,  3-C ) :   1.1929 B(  2-C ,  6-C ) :   1.0272
B(  3-C ,  4-C ) :   1.6130 B(  3-C ,  5-H ) :   0.9866 B(  4-C , 20-C ) :   1.0202
B(  6-C ,  7-H ) :   0.9507 B(  6-C ,  8-H ) :   0.9412 B(  6-C ,  9-C ) :   1.0298
B(  9-C , 10-H ) :   0.9586 B(  9-C , 11-H ) :   0.9579 B(  9-C , 12-C ) :   1.0885
B( 12-C , 13-H ) :   0.9736 B( 12-C , 14-H ) :   0.9696 B( 12-C , 15-H ) :   0.9719
B( 16-S , 17-C ) :   1.1727 B( 16-S , 20-C ) :   1.1554 B( 17-C , 18-C ) :   1.5790
B( 17-C , 33-H ) :   0.9729 B( 18-C , 19-C ) :   1.2590 B( 18-C , 21-H ) :   0.9870
B( 19-C , 20-C ) :   1.5941 B( 19-C , 22-C ) :   1.0390 B( 22-C , 23-H ) :   0.9357
B( 22-C , 24-H ) :   0.9436 B( 22-C , 25-C ) :   1.0758 B( 25-C , 26-H ) :   0.9493
B( 25-C , 27-H ) :   0.9542 B( 25-C , 28-C ) :   1.0783 B( 28-C , 29-H ) :   0.9727
B( 28-C , 30-H ) :   0.9739 B( 28-C , 31-H ) :   0.9756

Dispersion correction           -0.014965432
FINAL SINGLE POINT ENERGY     -1339.874676920267

DIPOLE MOMENT
-------------
                                X             Y             Z
Electronic contribution:     17.07139       4.63295     -14.44870
Nuclear contribution   :    -17.37993      -4.50952      14.63506
                        -----------------------------------------
Total Dipole Moment    :     -0.30854       0.12343       0.18636
                        -----------------------------------------
Magnitude (a.u.)       :      0.38100
Magnitude (Debye)      :      0.96843

Rotational constants in cm-1:     0.020499     0.007983     0.007306
Rotational constants in MHz :   614.542253   239.311628   219.037424

                             ****ORCA TERMINATED NORMALLY****
TOTAL RUN TIME: 0 days 0 hours 0 minutes 33 seconds 581 msec
