                         Program Version 4.2.1 -  RELEASE  -
|  1> ! wB97X-D3 SP def2-SVP
|  2> %pal
|  3> nprocs 16
|  4> end
|  5>
|  6> * xyz 0 1
|  7> S 	 -54.2048 	 11.0537 	 89.0729
|  8> C 	 -53.9018 	 12.5562 	 89.8792
|  9> C 	 -53.2132 	 13.4319 	 89.0486
| 10> C 	 -52.9117 	 12.9278 	 87.7361
| 11> C 	 -53.33 	 11.5884 	 87.6829
| 12> H 	 -52.405 	 13.4503 	 86.9644
| 13> C 	 -52.8845 	 14.8589 	 89.4487
| 14> H 	 -53.7612 	 15.2739 	 89.8871
| 15> H 	 -52.5274 	 15.4566 	 88.639
| 16> C 	 -51.7432 	 14.8417 	 90.4973
| 17> H 	 -51.4831 	 15.8681 	 90.8702
| 18> H 	 -52.093 	 14.2665 	 91.3733
| 19> C 	 -50.4154 	 14.2735 	 90.0461
| 20> H 	 -50.5722 	 13.3419 	 89.4292
| 21> H 	 -49.9169 	 14.9006 	 89.3243
| 22> H 	 -49.7549 	 14.1226 	 90.8897
| 23> S 	 -52.4964 	 9.15022 	 86.7838
| 24> C 	 -52.1472 	 8.84877 	 85.0341
| 25> C 	 -52.6835 	 9.85943 	 84.2877
| 26> C 	 -53.2442 	 10.9447 	 85.1135
| 27> C 	 -53.1054 	 10.7257 	 86.4937
| 28> H 	 -52.7518 	 9.65743 	 83.1599
| 29> C 	 -53.8916 	 12.12 	 84.3974
| 30> H 	 -54.0715 	 12.82 	 85.1969
| 31> H 	 -54.86 	 11.8863 	 83.8015
| 32> C 	 -53.0474 	 12.9141 	 83.3892
| 33> H 	 -53.7785 	 13.6821 	 82.9011
| 34> H 	 -52.7385 	 12.2956 	 82.5851
| 35> C 	 -51.8281 	 13.6406 	 84.0678
| 36> H 	 -51.1335 	 14.0268 	 83.2371
| 37> H 	 -51.0979 	 13.0104 	 84.6085
| 38> H 	 -52.3045 	 14.475 	 84.6649
| 39> H 	 -54.069 	 12.7998 	 90.9365
| 40> H 	 -51.8368 	 8.0449 	 84.4702
| 41> *
| 42>
| 43>                          ****END OF INPUT****

CARTESIAN COORDINATES (ANGSTROEM)
---------------------------------
  S    -54.204800   11.053700   89.072900
  C    -53.901800   12.556200   89.879200
  C    -53.213200   13.431900   89.048600
  C    -52.911700   12.927800   87.736100
  C    -53.330000   11.588400   87.682900
  H    -52.405000   13.450300   86.964400
  C    -52.884500   14.858900   89.448700
  H    -53.761200   15.273900   89.887100
  H    -52.527400   15.456600   88.639000
  C    -51.743200   14.841700   90.497300
  H    -51.483100   15.868100   90.870200
  H    -52.093000   14.266500   91.373300
  C    -50.415400   14.273500   90.046100
  H    -50.572200   13.341900   89.429200
  H    -49.916900   14.900600   89.324300
  H    -49.754900   14.122600   90.889700
  S    -52.496400    9.150220   86.783800
  C    -52.147200    8.848770   85.034100
  C    -52.683500    9.859430   84.287700
  C    -53.244200   10.944700   85.113500
  C    -53.105400   10.725700   86.493700
  H    -52.751800    9.657430   83.159900
  C    -53.891600   12.120000   84.397400
  H    -54.071500   12.820000   85.196900
  H    -54.860000   11.886300   83.801500
  C    -53.047400   12.914100   83.389200
  H    -53.778500   13.682100   82.901100
  H    -52.738500   12.295600   82.585100
  C    -51.828100   13.640600   84.067800
  H    -51.133500   14.026800   83.237100
  H    -51.097900   13.010400   84.608500
  H    -52.304500   14.475000   84.664900
  H    -54.069000   12.799800   90.936500
  H    -51.836800    8.044900   84.470200

 Total Charge           Charge          ....    0
 Multiplicity           Mult            ....    1
 Number of Electrons    NEL             ....  134
 Basis Dimension        Dim             ....  322

ORBITAL ENERGIES
----------------

  NO   OCC          E(Eh)            E(eV)
   0   2.0000     -88.975446     -2421.1450
   1   2.0000     -88.965966     -2420.8870
   2   2.0000     -10.336737      -281.2769
   3   2.0000     -10.332486      -281.1612
   4   2.0000     -10.314494      -280.6716
   5   2.0000     -10.313493      -280.6444
   6   2.0000     -10.309424      -280.5337
   7   2.0000     -10.302772      -280.3527
   8   2.0000     -10.301029      -280.3052
   9   2.0000     -10.298123      -280.2262
  10   2.0000     -10.293640      -280.1042
  11   2.0000     -10.293496      -280.1003
  12   2.0000     -10.292936      -280.0850
  13   2.0000     -10.288085      -279.9530
  14   2.0000     -10.288028      -279.9515
  15   2.0000     -10.272945      -279.5411
  16   2.0000      -8.090292      -220.1480
  17   2.0000      -8.080335      -219.8771
  18   2.0000      -6.048787      -164.5959
  19   2.0000      -6.044733      -164.4855
  20   2.0000      -6.041122      -164.3873
  21   2.0000      -6.039157      -164.3338
  22   2.0000      -6.034874      -164.2173
  23   2.0000      -6.030771      -164.1056
  24   2.0000      -1.008492       -27.4425
  25   2.0000      -0.983346       -26.7582
  26   2.0000      -0.913737       -24.8640
  27   2.0000      -0.902684       -24.5633
  28   2.0000      -0.869996       -23.6738
  29   2.0000      -0.851694       -23.1758
  30   2.0000      -0.835501       -22.7351
  31   2.0000      -0.819641       -22.3036
  32   2.0000      -0.781726       -21.2718
  33   2.0000      -0.767801       -20.8929
  34   2.0000      -0.707638       -19.2558
  35   2.0000      -0.695245       -18.9186
  36   2.0000      -0.689161       -18.7530
  37   2.0000      -0.654838       -17.8190
  38   2.0000      -0.638352       -17.3704
  39   2.0000      -0.617158       -16.7937
  40   2.0000      -0.590041       -16.0558
  41   2.0000      -0.578309       -15.7366
  42   2.0000      -0.556641       -15.1470
  43   2.0000      -0.547275       -14.8921
  44   2.0000      -0.539687       -14.6856
  45   2.0000      -0.533685       -14.5223
  46   2.0000      -0.518295       -14.1035
  47   2.0000      -0.515650       -14.0315
  48   2.0000      -0.506886       -13.7931
  49   2.0000      -0.492237       -13.3944
  50   2.0000      -0.489130       -13.3099
  51   2.0000      -0.480928       -13.0867
  52   2.0000      -0.469439       -12.7741
  53   2.0000      -0.463281       -12.6065
  54   2.0000      -0.456581       -12.4242
  55   2.0000      -0.445891       -12.1333
  56   2.0000      -0.443851       -12.0778
  57   2.0000      -0.439999       -11.9730
  58   2.0000      -0.423456       -11.5228
  59   2.0000      -0.421971       -11.4824
  60   2.0000      -0.418785       -11.3957
  61   2.0000      -0.410768       -11.1776
  62   2.0000      -0.408445       -11.1143
  63   2.0000      -0.352100        -9.5811
  64   2.0000      -0.335508        -9.1296
  65   2.0000      -0.323358        -8.7990
  66   2.0000      -0.293721        -7.9926
  67   0.0000       0.026697         0.7265
  68   0.0000       0.071744         1.9522
  69   0.0000       0.100415         2.7324
  70   0.0000       0.113705         3.0941
  71   0.0000       0.125484         3.4146

MULLIKEN ATOMIC CHARGES
-----------------------
   0 S :    0.140827
   1 C :   -0.124036
   2 C :   -0.130921
   3 C :    0.055766
   4 C :   -0.140412
   5 H :   -0.010695
   6 C :    0.127329
   7 H :    0.029486
   8 H :    0.013097
   9 C :   -0.109782
  10 H :    0.031073
  11 H :    0.023827
  12 C :   -0.057067
  13 H :    0.043401
  14 H :    0.017478
  15 H :    0.041243
  16 S :    0.096487
  17 C :   -0.046026
  18 C :   -0.083858
  19 C :   -0.049180
  20 C :   -0.137696
  21 H :    0.057445
  22 C :    0.052440
  23 H :    0.005796
  24 H :    0.057017
  25 C :   -0.093689
  26 H :    0.042873
  27 H :    0.021310
  28 C :   -0.111301
  29 H :    0.043057
  30 H :    0.059868
  31 H :    0.056809
  32 H :    0.056656
  33 H :    0.021380
Sum of atomic charges:    0.0000000

LOEWDIN ATOMIC CHARGES
----------------------
   0 S :    0.436339
   1 C :   -0.218322
   2 C :   -0.055335
   3 C :   -0.056605
   4 C :   -0.194555
   5 H :    0.027144
   6 C :   -0.023549
   7 H :    0.030331
   8 H :    0.024847
   9 C :   -0.044251
  10 H :    0.024768
  11 H :    0.019701
  12 C :   -0.071523
  13 H :    0.032254
  14 H :    0.018974
  15 H :    0.028171
  16 S :    0.396428
  17 C :   -0.168990
  18 C :   -0.075036
  19 C :   -0.064462
  20 C :   -0.205917
  21 H :    0.048400
  22 C :   -0.044659
  23 H :    0.023094
  24 H :    0.045388
  25 C :   -0.044917
  26 H :    0.035786
  27 H :    0.010171
  28 C :   -0.085045
  29 H :    0.035904
  30 H :    0.030288
  31 H :    0.031940
  32 H :    0.034410
  33 H :    0.018827

  Mayer bond orders larger than 0.100000
B(  0-S ,  1-C ) :   1.1307 B(  0-S ,  4-C ) :   1.1892 B(  1-C ,  2-C ) :   1.6025
B(  1-C , 32-H ) :   0.9621 B(  2-C ,  3-C ) :   1.2532 B(  2-C ,  6-C ) :   1.0203
B(  3-C ,  4-C ) :   1.5243 B(  3-C ,  5-H ) :   0.9994 B(  4-C , 20-C ) :   1.0142
B(  6-C ,  7-H ) :   0.9393 B(  6-C ,  8-H ) :   0.9454 B(  6-C ,  9-C ) :   1.0670
B(  9-C , 10-H ) :   0.9559 B(  9-C , 11-H ) :   0.9597 B(  9-C , 12-C ) :   1.0763
B( 12-C , 13-H ) :   0.9715 B( 12-C , 14-H ) :   0.9730 B( 12-C , 15-H ) :   0.9726
B( 16-S , 17-C ) :   1.1163 B( 16-S , 20-C ) :   1.1360 B( 17-C , 18-C ) :   1.6809
B( 17-C , 33-H ) :   0.9687 B( 18-C , 19-C ) :   1.1975 B( 18-C , 21-H ) :   0.9704
B( 19-C , 20-C ) :   1.6033 B( 19-C , 22-C ) :   1.0495 B( 22-C , 23-H ) :   0.9317
B( 22-C , 24-H ) :   0.9367 B( 22-C , 25-C ) :   1.0668 B( 25-C , 26-H ) :   0.9570
B( 25-C , 27-H ) :   0.9571 B( 25-C , 28-C ) :   1.0642 B( 28-C , 29-H ) :   0.9716
B( 28-C , 30-H ) :   0.9704 B( 28-C , 31-H ) :   0.9676

Dispersion correction           -0.015152142
FINAL SINGLE POINT ENERGY     -1339.859676997730

DIPOLE MOMENT
-------------
                                X             Y             Z
Electronic contribution:     -9.69285     -23.69253       5.67765
Nuclear contribution   :      9.76268      24.17343      -6.01018
                        -----------------------------------------
Total Dipole Moment    :      0.06983       0.48090      -0.33253
                        -----------------------------------------
Magnitude (a.u.)       :      0.58883
Magnitude (Debye)      :      1.49668

Rotational constants in cm-1:     0.018993     0.009183     0.007381
Rotational constants in MHz :   569.384585   275.309038   221.287523

                             ****ORCA TERMINATED NORMALLY****
TOTAL RUN TIME: 0 days 0 hours 0 minutes 31 seconds 200 msec
