                         Program Version 4.2.1 -  RELEASE  -
|  1> ! wB97X-D3 SP def2-SVP
|  2> %pal
|  3> nprocs 16
|  4> end
|  5>
|  6> * xyz 0 1
|  7> S 	 -46.2786 	 61.5142 	 134.996
|  8> C 	 -46.0078 	 59.8262 	 134.856
|  9> C 	 -46.9344 	 59.122 	 135.573
| 10> C 	 -47.7927 	 60.0045 	 136.25
| 11> C 	 -47.5963 	 61.3927 	 136.096
| 12> H 	 -48.6169 	 59.7477 	 136.87
| 13> C 	 -47.0668 	 57.6755 	 135.699
| 14> H 	 -47.3571 	 57.3203 	 134.72
| 15> H 	 -47.8835 	 57.4967 	 136.426
| 16> C 	 -45.6952 	 57.0276 	 136.092
| 17> H 	 -44.8338 	 57.3914 	 135.621
| 18> H 	 -45.3952 	 57.3044 	 137.074
| 19> C 	 -45.6048 	 55.4526 	 136.105
| 20> H 	 -44.6531 	 55.0274 	 136.579
| 21> H 	 -46.5217 	 55.1806 	 136.631
| 22> H 	 -45.715 	 55.2805 	 134.971
| 23> S 	 -49.1919 	 63.2154 	 135.001
| 24> C 	 -49.8432 	 64.4831 	 135.97
| 25> C 	 -49.6226 	 64.3394 	 137.292
| 26> C 	 -48.7203 	 63.2729 	 137.596
| 27> C 	 -48.4293 	 62.5608 	 136.454
| 28> H 	 -50.0611 	 64.9488 	 138.089
| 29> C 	 -48.3285 	 62.8911 	 139.022
| 30> H 	 -47.8419 	 61.9554 	 138.829
| 31> H 	 -49.2585 	 62.5972 	 139.61
| 32> C 	 -47.6108 	 63.9427 	 139.959
| 33> H 	 -48.0909 	 64.9297 	 139.997
| 34> H 	 -46.6647 	 64.2625 	 139.521
| 35> C 	 -47.2705 	 63.3445 	 141.356
| 36> H 	 -47.1236 	 64.0773 	 142.145
| 37> H 	 -46.3359 	 62.7311 	 141.224
| 38> H 	 -48.1378 	 62.6843 	 141.575
| 39> H 	 -45.1046 	 59.3629 	 134.569
| 40> H 	 -50.5337 	 65.1531 	 135.531
| 41> *
| 42>
| 43>                          ****END OF INPUT****

CARTESIAN COORDINATES (ANGSTROEM)
---------------------------------
  S    -46.278600   61.514200  134.996000
  C    -46.007800   59.826200  134.856000
  C    -46.934400   59.122000  135.573000
  C    -47.792700   60.004500  136.250000
  C    -47.596300   61.392700  136.096000
  H    -48.616900   59.747700  136.870000
  C    -47.066800   57.675500  135.699000
  H    -47.357100   57.320300  134.720000
  H    -47.883500   57.496700  136.426000
  C    -45.695200   57.027600  136.092000
  H    -44.833800   57.391400  135.621000
  H    -45.395200   57.304400  137.074000
  C    -45.604800   55.452600  136.105000
  H    -44.653100   55.027400  136.579000
  H    -46.521700   55.180600  136.631000
  H    -45.715000   55.280500  134.971000
  S    -49.191900   63.215400  135.001000
  C    -49.843200   64.483100  135.970000
  C    -49.622600   64.339400  137.292000
  C    -48.720300   63.272900  137.596000
  C    -48.429300   62.560800  136.454000
  H    -50.061100   64.948800  138.089000
  C    -48.328500   62.891100  139.022000
  H    -47.841900   61.955400  138.829000
  H    -49.258500   62.597200  139.610000
  C    -47.610800   63.942700  139.959000
  H    -48.090900   64.929700  139.997000
  H    -46.664700   64.262500  139.521000
  C    -47.270500   63.344500  141.356000
  H    -47.123600   64.077300  142.145000
  H    -46.335900   62.731100  141.224000
  H    -48.137800   62.684300  141.575000
  H    -45.104600   59.362900  134.569000
  H    -50.533700   65.153100  135.531000

 Total Charge           Charge          ....    0
 Multiplicity           Mult            ....    1
 Number of Electrons    NEL             ....  134
 Basis Dimension        Dim             ....  322

ORBITAL ENERGIES
----------------

  NO   OCC          E(Eh)            E(eV)
   0   2.0000     -88.963711     -2420.8256
   1   2.0000     -88.962362     -2420.7889
   2   2.0000     -10.329860      -281.0898
   3   2.0000     -10.328684      -281.0578
   4   2.0000     -10.309733      -280.5421
   5   2.0000     -10.305646      -280.4309
   6   2.0000     -10.303950      -280.3847
   7   2.0000     -10.301386      -280.3150
   8   2.0000     -10.296953      -280.1943
   9   2.0000     -10.292955      -280.0856
  10   2.0000     -10.292864      -280.0831
  11   2.0000     -10.292691      -280.0784
  12   2.0000     -10.290837      -280.0279
  13   2.0000     -10.288638      -279.9681
  14   2.0000     -10.286805      -279.9182
  15   2.0000     -10.283169      -279.8193
  16   2.0000      -8.079238      -219.8473
  17   2.0000      -8.078036      -219.8145
  18   2.0000      -6.037641      -164.2926
  19   2.0000      -6.036354      -164.2575
  20   2.0000      -6.033795      -164.1879
  21   2.0000      -6.032092      -164.1416
  22   2.0000      -6.029870      -164.0811
  23   2.0000      -6.029229      -164.0637
  24   2.0000      -1.013171       -27.5698
  25   2.0000      -0.992838       -27.0165
  26   2.0000      -0.916410       -24.9368
  27   2.0000      -0.901933       -24.5428
  28   2.0000      -0.868881       -23.6435
  29   2.0000      -0.853487       -23.2246
  30   2.0000      -0.848633       -23.0925
  31   2.0000      -0.814779       -22.1713
  32   2.0000      -0.780930       -21.2502
  33   2.0000      -0.770585       -20.9687
  34   2.0000      -0.710705       -19.3393
  35   2.0000      -0.704885       -19.1809
  36   2.0000      -0.695440       -18.9239
  37   2.0000      -0.663573       -18.0567
  38   2.0000      -0.645207       -17.5570
  39   2.0000      -0.617123       -16.7928
  40   2.0000      -0.600808       -16.3488
  41   2.0000      -0.573921       -15.6172
  42   2.0000      -0.560669       -15.2566
  43   2.0000      -0.556118       -15.1327
  44   2.0000      -0.531572       -14.4648
  45   2.0000      -0.527967       -14.3667
  46   2.0000      -0.519267       -14.1300
  47   2.0000      -0.517521       -14.0825
  48   2.0000      -0.504457       -13.7270
  49   2.0000      -0.496768       -13.5177
  50   2.0000      -0.488455       -13.2915
  51   2.0000      -0.477540       -12.9945
  52   2.0000      -0.471969       -12.8429
  53   2.0000      -0.464231       -12.6324
  54   2.0000      -0.456827       -12.4309
  55   2.0000      -0.454078       -12.3561
  56   2.0000      -0.444384       -12.0923
  57   2.0000      -0.439141       -11.9496
  58   2.0000      -0.433429       -11.7942
  59   2.0000      -0.426958       -11.6181
  60   2.0000      -0.417490       -11.3605
  61   2.0000      -0.412441       -11.2231
  62   2.0000      -0.409070       -11.1314
  63   2.0000      -0.339871        -9.2484
  64   2.0000      -0.333857        -9.0847
  65   2.0000      -0.324535        -8.8311
  66   2.0000      -0.301299        -8.1987
  67   0.0000       0.040823         1.1109
  68   0.0000       0.057106         1.5539
  69   0.0000       0.110457         3.0057
  70   0.0000       0.129461         3.5228
  71   0.0000       0.133002         3.6192

MULLIKEN ATOMIC CHARGES
-----------------------
   0 S :    0.118246
   1 C :   -0.105397
   2 C :   -0.100112
   3 C :    0.042634
   4 C :   -0.184976
   5 H :   -0.012622
   6 C :    0.129887
   7 H :    0.036827
   8 H :    0.032164
   9 C :   -0.097286
  10 H :    0.008507
  11 H :    0.007861
  12 C :   -0.086793
  13 H :    0.063013
  14 H :    0.038923
  15 H :    0.044278
  16 S :    0.110244
  17 C :   -0.062548
  18 C :   -0.025397
  19 C :   -0.015159
  20 C :   -0.193284
  21 H :    0.022799
  22 C :    0.047259
  23 H :    0.019839
  24 H :    0.041967
  25 C :   -0.082517
  26 H :    0.030297
  27 H :    0.026616
  28 C :   -0.062471
  29 H :    0.043514
  30 H :    0.050032
  31 H :    0.032546
  32 H :    0.038077
  33 H :    0.043032
Sum of atomic charges:    0.0000000

LOEWDIN ATOMIC CHARGES
----------------------
   0 S :    0.441624
   1 C :   -0.206900
   2 C :   -0.070245
   3 C :   -0.066880
   4 C :   -0.220524
   5 H :    0.020622
   6 C :   -0.022484
   7 H :    0.035535
   8 H :    0.037567
   9 C :   -0.044951
  10 H :    0.013007
  11 H :    0.018689
  12 C :   -0.074892
  13 H :    0.038317
  14 H :    0.023652
  15 H :    0.033247
  16 S :    0.412696
  17 C :   -0.179227
  18 C :   -0.071186
  19 C :   -0.054212
  20 C :   -0.192815
  21 H :    0.035111
  22 C :   -0.033305
  23 H :    0.029082
  24 H :    0.039165
  25 C :   -0.048275
  26 H :    0.024201
  27 H :    0.023456
  28 C :   -0.067405
  29 H :    0.026303
  30 H :    0.035194
  31 H :    0.025899
  32 H :    0.021134
  33 H :    0.018798

  Mayer bond orders larger than 0.100000
B(  0-S ,  1-C ) :   1.1708 B(  0-S ,  4-C ) :   1.1898 B(  1-C ,  2-C ) :   1.5504
B(  1-C ,  4-C ) :   0.1097 B(  1-C , 32-H ) :   0.9683 B(  2-C ,  3-C ) :   1.3007
B(  2-C ,  6-C ) :   1.0214 B(  3-C ,  4-C ) :   1.5275 B(  3-C ,  5-H ) :   0.9995
B(  4-C , 20-C ) :   0.9863 B(  6-C ,  7-H ) :   0.9275 B(  6-C ,  8-H ) :   0.9405
B(  6-C ,  9-C ) :   1.0403 B(  9-C , 10-H ) :   0.9625 B(  9-C , 11-H ) :   0.9512
B(  9-C , 12-C ) :   1.0643 B( 12-C , 13-H ) :   0.9730 B( 12-C , 14-H ) :   0.9767
B( 12-C , 15-H ) :   0.9813 B( 16-S , 17-C ) :   1.1490 B( 16-S , 20-C ) :   1.1534
B( 17-C , 18-C ) :   1.6286 B( 17-C , 33-H ) :   0.9699 B( 18-C , 19-C ) :   1.2163
B( 18-C , 21-H ) :   0.9873 B( 19-C , 20-C ) :   1.6357 B( 19-C , 22-C ) :   1.0425
B( 22-C , 23-H ) :   0.9364 B( 22-C , 24-H ) :   0.9362 B( 22-C , 25-C ) :   1.0379
B( 25-C , 26-H ) :   0.9599 B( 25-C , 27-H ) :   0.9574 B( 25-C , 28-C ) :   1.0661
B( 28-C , 29-H ) :   0.9759 B( 28-C , 30-H ) :   0.9790 B( 28-C , 31-H ) :   0.9771

Dispersion correction           -0.013040716
FINAL SINGLE POINT ENERGY     -1339.851376615909

DIPOLE MOMENT
-------------
                                X             Y             Z
Electronic contribution:     -6.59667      16.00822     -20.13323
Nuclear contribution   :      6.49676     -16.22021      20.65279
                        -----------------------------------------
Total Dipole Moment    :     -0.09991      -0.21199       0.51956
                        -----------------------------------------
Magnitude (a.u.)       :      0.56997
Magnitude (Debye)      :      1.44875

Rotational constants in cm-1:     0.018946     0.007311     0.005834
Rotational constants in MHz :   567.997754   219.166111   174.907771

                             ****ORCA TERMINATED NORMALLY****
TOTAL RUN TIME: 0 days 0 hours 0 minutes 34 seconds 393 msec
