                         Program Version 4.2.1 -  RELEASE  -
|  1> ! wB97X-D3 SP def2-SVP
|  2> %pal
|  3> nprocs 16
|  4> end
|  5>
|  6> * xyz 0 1
|  7> S 	 64.7936 	 17.5338 	 76.5671
|  8> C 	 63.3516 	 18.4575 	 77.1049
|  9> C 	 63.6314 	 19.3641 	 78.1442
| 10> C 	 65.0074 	 19.2 	 78.5773
| 11> C 	 65.783 	 18.3465 	 77.7505
| 12> H 	 65.5502 	 19.6857 	 79.2987
| 13> C 	 62.7395 	 20.4079 	 78.7808
| 14> H 	 61.7547 	 20.3972 	 78.3222
| 15> H 	 63.1401 	 21.3245 	 78.2419
| 16> C 	 62.7062 	 20.4061 	 80.2787
| 17> H 	 63.7586 	 20.5415 	 80.5863
| 18> H 	 62.1589 	 21.2302 	 80.675
| 19> C 	 62.1244 	 19.1514 	 80.8764
| 20> H 	 61.2344 	 18.9373 	 80.435
| 21> H 	 62.7704 	 18.3143 	 80.6331
| 22> H 	 62.0376 	 19.2509 	 81.984
| 23> S 	 68.2285 	 19.4829 	 77.9677
| 24> C 	 69.6197 	 18.4873 	 78.072
| 25> C 	 69.3192 	 17.1336 	 77.8131
| 26> C 	 67.9184 	 16.9019 	 77.6358
| 27> C 	 67.1885 	 18.0803 	 77.8124
| 28> H 	 70.1871 	 16.5061 	 77.7316
| 29> C 	 67.3798 	 15.54 	 77.2702
| 30> H 	 67.438 	 15.3246 	 76.2161
| 31> H 	 66.3574 	 15.463 	 77.6126
| 32> C 	 68.1377 	 14.3527 	 77.804
| 33> H 	 68.2307 	 14.2734 	 78.8699
| 34> H 	 69.1503 	 14.4793 	 77.4555
| 35> C 	 67.4442 	 13.0431 	 77.4103
| 36> H 	 66.4128 	 12.8726 	 77.8479
| 37> H 	 68.0465 	 12.2326 	 77.707
| 38> H 	 67.3358 	 12.9864 	 76.3141
| 39> H 	 62.3312 	 18.2397 	 76.796
| 40> H 	 70.6242 	 18.8368 	 77.8987
| 41> *
| 42>
| 43>                          ****END OF INPUT****

CARTESIAN COORDINATES (ANGSTROEM)
---------------------------------
  S     64.793600   17.533800   76.567100
  C     63.351600   18.457500   77.104900
  C     63.631400   19.364100   78.144200
  C     65.007400   19.200000   78.577300
  C     65.783000   18.346500   77.750500
  H     65.550200   19.685700   79.298700
  C     62.739500   20.407900   78.780800
  H     61.754700   20.397200   78.322200
  H     63.140100   21.324500   78.241900
  C     62.706200   20.406100   80.278700
  H     63.758600   20.541500   80.586300
  H     62.158900   21.230200   80.675000
  C     62.124400   19.151400   80.876400
  H     61.234400   18.937300   80.435000
  H     62.770400   18.314300   80.633100
  H     62.037600   19.250900   81.984000
  S     68.228500   19.482900   77.967700
  C     69.619700   18.487300   78.072000
  C     69.319200   17.133600   77.813100
  C     67.918400   16.901900   77.635800
  C     67.188500   18.080300   77.812400
  H     70.187100   16.506100   77.731600
  C     67.379800   15.540000   77.270200
  H     67.438000   15.324600   76.216100
  H     66.357400   15.463000   77.612600
  C     68.137700   14.352700   77.804000
  H     68.230700   14.273400   78.869900
  H     69.150300   14.479300   77.455500
  C     67.444200   13.043100   77.410300
  H     66.412800   12.872600   77.847900
  H     68.046500   12.232600   77.707000
  H     67.335800   12.986400   76.314100
  H     62.331200   18.239700   76.796000
  H     70.624200   18.836800   77.898700

 Total Charge           Charge          ....    0
 Multiplicity           Mult            ....    1
 Number of Electrons    NEL             ....  134
 Basis Dimension        Dim             ....  322

ORBITAL ENERGIES
----------------

  NO   OCC          E(Eh)            E(eV)
   0   2.0000     -88.969122     -2420.9729
   1   2.0000     -88.966978     -2420.9145
   2   2.0000     -10.329448      -281.0786
   3   2.0000     -10.326656      -281.0026
   4   2.0000     -10.316060      -280.7143
   5   2.0000     -10.314307      -280.6666
   6   2.0000     -10.309007      -280.5223
   7   2.0000     -10.307997      -280.4949
   8   2.0000     -10.296800      -280.1902
   9   2.0000     -10.295872      -280.1649
  10   2.0000     -10.290593      -280.0213
  11   2.0000     -10.285620      -279.8859
  12   2.0000     -10.282711      -279.8068
  13   2.0000     -10.279484      -279.7190
  14   2.0000     -10.278936      -279.7041
  15   2.0000     -10.267853      -279.4025
  16   2.0000      -8.084137      -219.9805
  17   2.0000      -8.080510      -219.8819
  18   2.0000      -6.042495      -164.4247
  19   2.0000      -6.039115      -164.3327
  20   2.0000      -6.038583      -164.3182
  21   2.0000      -6.035124      -164.2241
  22   2.0000      -6.035062      -164.2224
  23   2.0000      -6.031312      -164.1204
  24   2.0000      -1.006339       -27.3839
  25   2.0000      -0.977118       -26.5887
  26   2.0000      -0.919616       -25.0240
  27   2.0000      -0.917692       -24.9717
  28   2.0000      -0.869833       -23.6694
  29   2.0000      -0.854493       -23.2519
  30   2.0000      -0.843610       -22.9558
  31   2.0000      -0.809640       -22.0314
  32   2.0000      -0.786856       -21.4114
  33   2.0000      -0.774372       -21.0717
  34   2.0000      -0.710895       -19.3444
  35   2.0000      -0.704850       -19.1800
  36   2.0000      -0.691303       -18.8113
  37   2.0000      -0.660234       -17.9659
  38   2.0000      -0.635792       -17.3008
  39   2.0000      -0.621415       -16.9096
  40   2.0000      -0.603234       -16.4148
  41   2.0000      -0.576568       -15.6892
  42   2.0000      -0.565915       -15.3993
  43   2.0000      -0.557664       -15.1748
  44   2.0000      -0.540357       -14.7039
  45   2.0000      -0.523375       -14.2418
  46   2.0000      -0.517057       -14.0698
  47   2.0000      -0.513401       -13.9703
  48   2.0000      -0.510797       -13.8995
  49   2.0000      -0.490028       -13.3343
  50   2.0000      -0.482012       -13.1162
  51   2.0000      -0.480430       -13.0732
  52   2.0000      -0.472289       -12.8516
  53   2.0000      -0.470185       -12.7944
  54   2.0000      -0.456842       -12.4313
  55   2.0000      -0.450074       -12.2471
  56   2.0000      -0.448785       -12.2121
  57   2.0000      -0.441993       -12.0272
  58   2.0000      -0.431148       -11.7321
  59   2.0000      -0.428180       -11.6514
  60   2.0000      -0.419732       -11.4215
  61   2.0000      -0.416380       -11.3303
  62   2.0000      -0.412293       -11.2190
  63   2.0000      -0.345526        -9.4022
  64   2.0000      -0.333670        -9.0796
  65   2.0000      -0.326677        -8.8893
  66   2.0000      -0.284151        -7.7321
  67   0.0000       0.022937         0.6242
  68   0.0000       0.072379         1.9695
  69   0.0000       0.109694         2.9849
  70   0.0000       0.112211         3.0534
  71   0.0000       0.122139         3.3236

MULLIKEN ATOMIC CHARGES
-----------------------
   0 S :    0.104032
   1 C :   -0.124568
   2 C :   -0.098759
   3 C :    0.043742
   4 C :   -0.171903
   5 H :   -0.024617
   6 C :    0.053265
   7 H :    0.006804
   8 H :    0.055514
   9 C :   -0.051318
  10 H :    0.031863
  11 H :    0.023114
  12 C :   -0.010442
  13 H :    0.003038
  14 H :    0.035653
  15 H :    0.043279
  16 S :    0.122940
  17 C :   -0.086632
  18 C :   -0.078644
  19 C :    0.005118
  20 C :   -0.152341
  21 H :    0.022314
  22 C :    0.079297
  23 H :    0.035453
  24 H :    0.025431
  25 C :   -0.097959
  26 H :    0.024638
  27 H :    0.023359
  28 C :   -0.041244
  29 H :    0.046340
  30 H :    0.023633
  31 H :    0.023570
  32 H :    0.047485
  33 H :    0.058545
Sum of atomic charges:   -0.0000000

LOEWDIN ATOMIC CHARGES
----------------------
   0 S :    0.402523
   1 C :   -0.201136
   2 C :   -0.051743
   3 C :   -0.064117
   4 C :   -0.189596
   5 H :    0.009423
   6 C :   -0.039326
   7 H :    0.025002
   8 H :    0.050105
   9 C :   -0.040762
  10 H :    0.027194
  11 H :    0.022402
  12 C :   -0.052760
  13 H :    0.009883
  14 H :    0.029048
  15 H :    0.034150
  16 S :    0.434254
  17 C :   -0.204676
  18 C :   -0.068217
  19 C :   -0.051131
  20 C :   -0.201457
  21 H :    0.029831
  22 C :   -0.037786
  23 H :    0.035471
  24 H :    0.022860
  25 C :   -0.040341
  26 H :    0.020947
  27 H :    0.019415
  28 C :   -0.062276
  29 H :    0.035415
  30 H :    0.019727
  31 H :    0.022973
  32 H :    0.026374
  33 H :    0.028326

  Mayer bond orders larger than 0.100000
B(  0-S ,  1-C ) :   1.1230 B(  0-S ,  4-C ) :   1.1481 B(  1-C ,  2-C ) :   1.6139
B(  1-C , 32-H ) :   0.9636 B(  2-C ,  3-C ) :   1.2109 B(  2-C ,  6-C ) :   1.0125
B(  3-C ,  4-C ) :   1.5670 B(  3-C ,  5-H ) :   0.9982 B(  4-C , 20-C ) :   1.0751
B(  6-C ,  7-H ) :   0.9387 B(  6-C ,  8-H ) :   0.9345 B(  6-C ,  9-C ) :   1.0669
B(  9-C , 10-H ) :   0.9515 B(  9-C , 11-H ) :   0.9520 B(  9-C , 12-C ) :   1.0802
B( 12-C , 13-H ) :   0.9722 B( 12-C , 14-H ) :   0.9702 B( 12-C , 15-H ) :   0.9730
B( 16-S , 17-C ) :   1.1740 B( 16-S , 20-C ) :   1.1543 B( 17-C , 18-C ) :   1.5963
B( 17-C , 20-C ) :   0.1001 B( 17-C , 33-H ) :   0.9600 B( 18-C , 19-C ) :   1.2455
B( 18-C , 21-H ) :   0.9906 B( 19-C , 20-C ) :   1.5467 B( 19-C , 22-C ) :   1.0433
B( 22-C , 23-H ) :   0.9298 B( 22-C , 24-H ) :   0.9284 B( 22-C , 25-C ) :   1.0687
B( 25-C , 26-H ) :   0.9562 B( 25-C , 27-H ) :   0.9455 B( 25-C , 28-C ) :   1.0910
B( 28-C , 29-H ) :   0.9726 B( 28-C , 30-H ) :   0.9718 B( 28-C , 31-H ) :   0.9723

Dispersion correction           -0.013816780
FINAL SINGLE POINT ENERGY     -1339.868528205372

DIPOLE MOMENT
-------------
                                X             Y             Z
Electronic contribution:      9.13478      10.98254      -9.66063
Nuclear contribution   :     -9.15340     -11.10149       9.75975
                        -----------------------------------------
Total Dipole Moment    :     -0.01861      -0.11895       0.09912
                        -----------------------------------------
Magnitude (a.u.)       :      0.15595
Magnitude (Debye)      :      0.39640

Rotational constants in cm-1:     0.019776     0.007994     0.006653
Rotational constants in MHz :   592.867241   239.665759   199.446151

                             ****ORCA TERMINATED NORMALLY****
TOTAL RUN TIME: 0 days 0 hours 0 minutes 27 seconds 784 msec
