                         Program Version 4.2.1 -  RELEASE  -
|  1> ! wB97X-D3 SP def2-SVP
|  2> %pal
|  3> nprocs 16
|  4> end
|  5>
|  6> * xyz 0 1
|  7> S 	 9.58381 	 22.5762 	 40.2706
|  8> C 	 8.67095 	 23.8825 	 39.5686
|  9> C 	 7.40901 	 23.5011 	 39.1952
| 10> C 	 7.17555 	 22.0632 	 39.433
| 11> C 	 8.37191 	 21.4538 	 39.7954
| 12> H 	 6.23425 	 21.4121 	 39.2572
| 13> C 	 6.3415 	 24.4964 	 38.7488
| 14> H 	 6.73702 	 25.0272 	 37.9201
| 15> H 	 6.32096 	 25.2259 	 39.5495
| 16> C 	 4.91228 	 23.8712 	 38.4029
| 17> H 	 4.30686 	 24.7084 	 38.0175
| 18> H 	 4.91999 	 23.0831 	 37.5704
| 19> C 	 4.09913 	 23.3421 	 39.5931
| 20> H 	 3.12336 	 22.8995 	 39.2704
| 21> H 	 4.62929 	 22.5794 	 40.24
| 22> H 	 3.8195 	 24.1472 	 40.1948
| 23> S 	 10.2893 	 19.5829 	 40.2427
| 24> C 	 9.81686 	 17.8383 	 40.4228
| 25> C 	 8.50439 	 17.7669 	 40.8085
| 26> C 	 7.7996 	 18.9783 	 40.6143
| 27> C 	 8.62876 	 20.0229 	 40.1732
| 28> H 	 8.04189 	 16.8709 	 41.1471
| 29> C 	 6.24572 	 19.1335 	 40.8616
| 30> H 	 5.81531 	 20.0922 	 40.7045
| 31> H 	 6.13051 	 19.0877 	 41.9033
| 32> C 	 5.44167 	 18.0504 	 40.0938
| 33> H 	 5.57387 	 17.0557 	 40.3755
| 34> H 	 5.83845 	 18.0252 	 39.0717
| 35> C 	 3.97822 	 18.4353 	 40.0153
| 36> H 	 3.62724 	 17.9561 	 39.1333
| 37> H 	 3.69516 	 19.5256 	 39.9276
| 38> H 	 3.49751 	 17.9685 	 40.8297
| 39> H 	 9.08411 	 24.9039 	 39.3272
| 40> H 	 10.5433 	 17.1191 	 40.6632
| 41> *
| 42>
| 43>                          ****END OF INPUT****

CARTESIAN COORDINATES (ANGSTROEM)
---------------------------------
  S      9.583810   22.576200   40.270600
  C      8.670950   23.882500   39.568600
  C      7.409010   23.501100   39.195200
  C      7.175550   22.063200   39.433000
  C      8.371910   21.453800   39.795400
  H      6.234250   21.412100   39.257200
  C      6.341500   24.496400   38.748800
  H      6.737020   25.027200   37.920100
  H      6.320960   25.225900   39.549500
  C      4.912280   23.871200   38.402900
  H      4.306860   24.708400   38.017500
  H      4.919990   23.083100   37.570400
  C      4.099130   23.342100   39.593100
  H      3.123360   22.899500   39.270400
  H      4.629290   22.579400   40.240000
  H      3.819500   24.147200   40.194800
  S     10.289300   19.582900   40.242700
  C      9.816860   17.838300   40.422800
  C      8.504390   17.766900   40.808500
  C      7.799600   18.978300   40.614300
  C      8.628760   20.022900   40.173200
  H      8.041890   16.870900   41.147100
  C      6.245720   19.133500   40.861600
  H      5.815310   20.092200   40.704500
  H      6.130510   19.087700   41.903300
  C      5.441670   18.050400   40.093800
  H      5.573870   17.055700   40.375500
  H      5.838450   18.025200   39.071700
  C      3.978220   18.435300   40.015300
  H      3.627240   17.956100   39.133300
  H      3.695160   19.525600   39.927600
  H      3.497510   17.968500   40.829700
  H      9.084110   24.903900   39.327200
  H     10.543300   17.119100   40.663200

 Total Charge           Charge          ....    0
 Multiplicity           Mult            ....    1
 Number of Electrons    NEL             ....  134
 Basis Dimension        Dim             ....  322

ORBITAL ENERGIES
----------------

  NO   OCC          E(Eh)            E(eV)
   0   2.0000     -88.964224     -2420.8396
   1   2.0000     -88.961575     -2420.7675
   2   2.0000     -10.330046      -281.0949
   3   2.0000     -10.327374      -281.0221
   4   2.0000     -10.315292      -280.6934
   5   2.0000     -10.310994      -280.5764
   6   2.0000     -10.305446      -280.4254
   7   2.0000     -10.304892      -280.4104
   8   2.0000     -10.304009      -280.3863
   9   2.0000     -10.302759      -280.3523
  10   2.0000     -10.296471      -280.1812
  11   2.0000     -10.295245      -280.1479
  12   2.0000     -10.289969      -280.0043
  13   2.0000     -10.283118      -279.8179
  14   2.0000     -10.282191      -279.7926
  15   2.0000     -10.274703      -279.5889
  16   2.0000      -8.079854      -219.8640
  17   2.0000      -8.076243      -219.7657
  18   2.0000      -6.038429      -164.3140
  19   2.0000      -6.034779      -164.2147
  20   2.0000      -6.034441      -164.2055
  21   2.0000      -6.031031      -164.1127
  22   2.0000      -6.030291      -164.0926
  23   2.0000      -6.026701      -163.9949
  24   2.0000      -1.006817       -27.3969
  25   2.0000      -0.982045       -26.7228
  26   2.0000      -0.909898       -24.7596
  27   2.0000      -0.904838       -24.6219
  28   2.0000      -0.868648       -23.6371
  29   2.0000      -0.848678       -23.0937
  30   2.0000      -0.841052       -22.8862
  31   2.0000      -0.817792       -22.2532
  32   2.0000      -0.783511       -21.3204
  33   2.0000      -0.771866       -21.0035
  34   2.0000      -0.709369       -19.3029
  35   2.0000      -0.703746       -19.1499
  36   2.0000      -0.687182       -18.6992
  37   2.0000      -0.661552       -18.0017
  38   2.0000      -0.632380       -17.2079
  39   2.0000      -0.617468       -16.8022
  40   2.0000      -0.598926       -16.2976
  41   2.0000      -0.567132       -15.4324
  42   2.0000      -0.561951       -15.2915
  43   2.0000      -0.546639       -14.8748
  44   2.0000      -0.530635       -14.4393
  45   2.0000      -0.528710       -14.3869
  46   2.0000      -0.523321       -14.2403
  47   2.0000      -0.507549       -13.8111
  48   2.0000      -0.503505       -13.7011
  49   2.0000      -0.497537       -13.5387
  50   2.0000      -0.488840       -13.3020
  51   2.0000      -0.486198       -13.2301
  52   2.0000      -0.474036       -12.8992
  53   2.0000      -0.464286       -12.6339
  54   2.0000      -0.459017       -12.4905
  55   2.0000      -0.453975       -12.3533
  56   2.0000      -0.446005       -12.1364
  57   2.0000      -0.440707       -11.9923
  58   2.0000      -0.432819       -11.7776
  59   2.0000      -0.428666       -11.6646
  60   2.0000      -0.419669       -11.4198
  61   2.0000      -0.415043       -11.2939
  62   2.0000      -0.406177       -11.0526
  63   2.0000      -0.353843        -9.6286
  64   2.0000      -0.332383        -9.0446
  65   2.0000      -0.322179        -8.7669
  66   2.0000      -0.284517        -7.7421
  67   0.0000       0.020834         0.5669
  68   0.0000       0.071642         1.9495
  69   0.0000       0.096372         2.6224
  70   0.0000       0.118973         3.2374
  71   0.0000       0.123628         3.3641

MULLIKEN ATOMIC CHARGES
-----------------------
   0 S :    0.097028
   1 C :   -0.138523
   2 C :   -0.102366
   3 C :   -0.051140
   4 C :   -0.078963
   5 H :    0.061295
   6 C :    0.083330
   7 H :    0.028524
   8 H :    0.036427
   9 C :   -0.104288
  10 H :    0.035056
  11 H :    0.050329
  12 C :   -0.067301
  13 H :    0.038868
  14 H :    0.046738
  15 H :    0.019939
  16 S :    0.070838
  17 C :   -0.061165
  18 C :   -0.022326
  19 C :   -0.058836
  20 C :   -0.150680
  21 H :    0.011486
  22 C :    0.128250
  23 H :   -0.021615
  24 H :    0.017788
  25 C :   -0.086641
  26 H :    0.016138
  27 H :    0.030219
  28 C :   -0.030840
  29 H :    0.021011
  30 H :    0.042808
  31 H :    0.026547
  32 H :    0.064861
  33 H :    0.047204
Sum of atomic charges:   -0.0000000

LOEWDIN ATOMIC CHARGES
----------------------
   0 S :    0.411969
   1 C :   -0.219508
   2 C :   -0.057576
   3 C :   -0.086587
   4 C :   -0.189566
   5 H :    0.047933
   6 C :   -0.028881
   7 H :    0.030428
   8 H :    0.035498
   9 C :   -0.046814
  10 H :    0.030110
  11 H :    0.032399
  12 C :   -0.072917
  13 H :    0.031919
  14 H :    0.026415
  15 H :    0.016726
  16 S :    0.382809
  17 C :   -0.160091
  18 C :   -0.056717
  19 C :   -0.056341
  20 C :   -0.201769
  21 H :    0.028826
  22 C :   -0.021357
  23 H :    0.019788
  24 H :    0.027093
  25 C :   -0.037584
  26 H :    0.015662
  27 H :    0.026645
  28 C :   -0.062842
  29 H :    0.024391
  30 H :    0.032209
  31 H :    0.020677
  32 H :    0.039589
  33 H :    0.017463

  Mayer bond orders larger than 0.100000
B(  0-S ,  1-C ) :   1.1177 B(  0-S ,  4-C ) :   1.1661 B(  1-C ,  2-C ) :   1.6536
B(  1-C , 32-H ) :   0.9627 B(  2-C ,  3-C ) :   1.2115 B(  2-C ,  6-C ) :   0.9979
B(  3-C ,  4-C ) :   1.5997 B(  3-C ,  5-H ) :   0.9653 B(  4-C , 20-C ) :   1.0237
B(  6-C ,  7-H ) :   0.9373 B(  6-C ,  8-H ) :   0.9438 B(  6-C ,  9-C ) :   1.0707
B(  9-C , 10-H ) :   0.9546 B(  9-C , 11-H ) :   0.9600 B(  9-C , 12-C ) :   1.0679
B( 12-C , 13-H ) :   0.9718 B( 12-C , 14-H ) :   0.9759 B( 12-C , 15-H ) :   0.9711
B( 16-S , 17-C ) :   1.1299 B( 16-S , 20-C ) :   1.1530 B( 17-C , 18-C ) :   1.6047
B( 17-C , 20-C ) :   0.1037 B( 17-C , 33-H ) :   0.9714 B( 18-C , 19-C ) :   1.2634
B( 18-C , 21-H ) :   0.9906 B( 19-C , 20-C ) :   1.5789 B( 19-C , 22-C ) :   1.0165
B( 22-C , 23-H ) :   0.9464 B( 22-C , 24-H ) :   0.9228 B( 22-C , 25-C ) :   1.0445
B( 25-C , 26-H ) :   0.9523 B( 25-C , 27-H ) :   0.9662 B( 25-C , 28-C ) :   1.0842
B( 28-C , 29-H ) :   0.9732 B( 28-C , 30-H ) :   0.9755 B( 28-C , 31-H ) :   0.9758

Dispersion correction           -0.014670756
FINAL SINGLE POINT ENERGY     -1339.845684189338

DIPOLE MOMENT
-------------
                                X             Y             Z
Electronic contribution:     32.46773      -0.31162       3.62449
Nuclear contribution   :    -33.28010       0.32042      -3.54816
                        -----------------------------------------
Total Dipole Moment    :     -0.81237       0.00880       0.07632
                        -----------------------------------------
Magnitude (a.u.)       :      0.81600
Magnitude (Debye)      :      2.07410

Rotational constants in cm-1:     0.016049     0.010923     0.006716
Rotational constants in MHz :   481.137488   327.461286   201.335805

                             ****ORCA TERMINATED NORMALLY****
TOTAL RUN TIME: 0 days 0 hours 0 minutes 35 seconds 795 msec
