                         Program Version 4.2.1 -  RELEASE  -
|  1> ! wB97X-D3 SP def2-SVP
|  2> %pal
|  3> nprocs 16
|  4> end
|  5>
|  6> * xyz 0 1
|  7> S 	 65.7344 	 -5.52622 	 86.5284
|  8> C 	 64.3346 	 -4.65247 	 87.0758
|  9> C 	 64.6169 	 -3.62573 	 87.9082
| 10> C 	 66.0064 	 -3.62598 	 88.2886
| 11> C 	 66.7393 	 -4.57094 	 87.5856
| 12> H 	 66.44 	 -3.00316 	 89.06
| 13> C 	 63.4939 	 -2.7698 	 88.5357
| 14> H 	 63.866 	 -2.10715 	 89.3027
| 15> H 	 63.0261 	 -3.56138 	 89.1817
| 16> C 	 62.611 	 -1.96387 	 87.554
| 17> H 	 63.3421 	 -1.37856 	 87.0004
| 18> H 	 62.1334 	 -2.63024 	 86.8591
| 19> C 	 61.6742 	 -0.92905 	 88.1995
| 20> H 	 60.8466 	 -1.4405 	 88.7384
| 21> H 	 62.2063 	 -0.288331 	 88.9314
| 22> H 	 61.2946 	 -0.176206 	 87.4535
| 23> S 	 69.2084 	 -4.40929 	 88.9307
| 24> C 	 70.7013 	 -4.63562 	 88.0128
| 25> C 	 70.4194 	 -4.85721 	 86.6756
| 26> C 	 69.023 	 -4.86797 	 86.3613
| 27> C 	 68.2226 	 -4.60112 	 87.4813
| 28> H 	 71.1883 	 -5.0514 	 86.009
| 29> C 	 68.514 	 -4.82657 	 84.949
| 30> H 	 67.7459 	 -5.61559 	 84.8542
| 31> H 	 69.2561 	 -4.99377 	 84.0974
| 32> C 	 67.8736 	 -3.51513 	 84.5165
| 33> H 	 67.1332 	 -3.18678 	 85.2036
| 34> H 	 67.1649 	 -3.56919 	 83.5906
| 35> C 	 68.8455 	 -2.40617 	 84.3082
| 36> H 	 69.5189 	 -2.69764 	 83.509
| 37> H 	 69.4295 	 -2.06955 	 85.1641
| 38> H 	 68.2739 	 -1.59102 	 83.8373
| 39> H 	 63.3412 	 -5.05938 	 86.9667
| 40> H 	 71.649 	 -4.64851 	 88.5052
| 41> *
| 42>
| 43>                          ****END OF INPUT****

CARTESIAN COORDINATES (ANGSTROEM)
---------------------------------
  S     65.734400   -5.526220   86.528400
  C     64.334600   -4.652470   87.075800
  C     64.616900   -3.625730   87.908200
  C     66.006400   -3.625980   88.288600
  C     66.739300   -4.570940   87.585600
  H     66.440000   -3.003160   89.060000
  C     63.493900   -2.769800   88.535700
  H     63.866000   -2.107150   89.302700
  H     63.026100   -3.561380   89.181700
  C     62.611000   -1.963870   87.554000
  H     63.342100   -1.378560   87.000400
  H     62.133400   -2.630240   86.859100
  C     61.674200   -0.929050   88.199500
  H     60.846600   -1.440500   88.738400
  H     62.206300   -0.288331   88.931400
  H     61.294600   -0.176206   87.453500
  S     69.208400   -4.409290   88.930700
  C     70.701300   -4.635620   88.012800
  C     70.419400   -4.857210   86.675600
  C     69.023000   -4.867970   86.361300
  C     68.222600   -4.601120   87.481300
  H     71.188300   -5.051400   86.009000
  C     68.514000   -4.826570   84.949000
  H     67.745900   -5.615590   84.854200
  H     69.256100   -4.993770   84.097400
  C     67.873600   -3.515130   84.516500
  H     67.133200   -3.186780   85.203600
  H     67.164900   -3.569190   83.590600
  C     68.845500   -2.406170   84.308200
  H     69.518900   -2.697640   83.509000
  H     69.429500   -2.069550   85.164100
  H     68.273900   -1.591020   83.837300
  H     63.341200   -5.059380   86.966700
  H     71.649000   -4.648510   88.505200

 Total Charge           Charge          ....    0
 Multiplicity           Mult            ....    1
 Number of Electrons    NEL             ....  134
 Basis Dimension        Dim             ....  322

ORBITAL ENERGIES
----------------

  NO   OCC          E(Eh)            E(eV)
   0   2.0000     -88.968828     -2420.9649
   1   2.0000     -88.966848     -2420.9110
   2   2.0000     -10.333791      -281.1968
   3   2.0000     -10.331968      -281.1471
   4   2.0000     -10.317599      -280.7561
   5   2.0000     -10.308674      -280.5133
   6   2.0000     -10.303352      -280.3685
   7   2.0000     -10.303234      -280.3652
   8   2.0000     -10.298892      -280.2471
   9   2.0000     -10.298205      -280.2284
  10   2.0000     -10.292215      -280.0654
  11   2.0000     -10.291360      -280.0421
  12   2.0000     -10.290668      -280.0233
  13   2.0000     -10.289535      -279.9925
  14   2.0000     -10.277738      -279.6715
  15   2.0000     -10.266701      -279.3711
  16   2.0000      -8.083502      -219.9633
  17   2.0000      -8.080957      -219.8940
  18   2.0000      -6.042037      -164.4122
  19   2.0000      -6.039528      -164.3439
  20   2.0000      -6.038036      -164.3033
  21   2.0000      -6.035529      -164.2351
  22   2.0000      -6.034221      -164.1995
  23   2.0000      -6.031750      -164.1323
  24   2.0000      -1.007344       -27.4112
  25   2.0000      -0.983868       -26.7724
  26   2.0000      -0.911104       -24.7924
  27   2.0000      -0.907372       -24.6908
  28   2.0000      -0.867815       -23.6144
  29   2.0000      -0.853507       -23.2251
  30   2.0000      -0.845139       -22.9974
  31   2.0000      -0.815450       -22.1895
  32   2.0000      -0.780927       -21.2501
  33   2.0000      -0.770782       -20.9740
  34   2.0000      -0.705824       -19.2064
  35   2.0000      -0.702503       -19.1161
  36   2.0000      -0.681571       -18.5465
  37   2.0000      -0.669201       -18.2099
  38   2.0000      -0.641282       -17.4502
  39   2.0000      -0.612626       -16.6704
  40   2.0000      -0.595994       -16.2178
  41   2.0000      -0.575316       -15.6552
  42   2.0000      -0.558906       -15.2086
  43   2.0000      -0.553397       -15.0587
  44   2.0000      -0.547482       -14.8977
  45   2.0000      -0.524068       -14.2606
  46   2.0000      -0.518099       -14.0982
  47   2.0000      -0.507207       -13.8018
  48   2.0000      -0.504292       -13.7225
  49   2.0000      -0.498070       -13.5532
  50   2.0000      -0.487488       -13.2652
  51   2.0000      -0.476563       -12.9679
  52   2.0000      -0.470138       -12.7931
  53   2.0000      -0.466043       -12.6817
  54   2.0000      -0.458497       -12.4763
  55   2.0000      -0.454070       -12.3559
  56   2.0000      -0.437802       -11.9132
  57   2.0000      -0.433612       -11.7992
  58   2.0000      -0.432341       -11.7646
  59   2.0000      -0.426784       -11.6134
  60   2.0000      -0.417659       -11.3651
  61   2.0000      -0.415420       -11.3042
  62   2.0000      -0.400239       -10.8911
  63   2.0000      -0.355007        -9.6602
  64   2.0000      -0.333967        -9.0877
  65   2.0000      -0.330262        -8.9869
  66   2.0000      -0.284744        -7.7483
  67   0.0000       0.022783         0.6200
  68   0.0000       0.076404         2.0791
  69   0.0000       0.109627         2.9831
  70   0.0000       0.115590         3.1454
  71   0.0000       0.128257         3.4900

MULLIKEN ATOMIC CHARGES
-----------------------
   0 S :    0.104173
   1 C :   -0.124770
   2 C :   -0.084551
   3 C :    0.013858
   4 C :   -0.125048
   5 H :    0.018052
   6 C :    0.038599
   7 H :    0.005235
   8 H :    0.044819
   9 C :   -0.047469
  10 H :    0.031112
  11 H :    0.030720
  12 C :   -0.074179
  13 H :    0.043314
  14 H :    0.030928
  15 H :    0.048077
  16 S :    0.093341
  17 C :   -0.094695
  18 C :    0.002921
  19 C :   -0.031823
  20 C :   -0.137013
  21 H :   -0.005512
  22 C :    0.028666
  23 H :    0.037415
  24 H :    0.032224
  25 C :   -0.090590
  26 H :    0.021952
  27 H :    0.029007
  28 C :   -0.031266
  29 H :    0.009012
  30 H :    0.049747
  31 H :    0.025763
  32 H :    0.052258
  33 H :    0.055723
Sum of atomic charges:   -0.0000000

LOEWDIN ATOMIC CHARGES
----------------------
   0 S :    0.428014
   1 C :   -0.200096
   2 C :   -0.061330
   3 C :   -0.061103
   4 C :   -0.188508
   5 H :    0.030460
   6 C :   -0.037488
   7 H :    0.023632
   8 H :    0.039000
   9 C :   -0.039219
  10 H :    0.029982
  11 H :    0.020864
  12 C :   -0.072426
  13 H :    0.027920
  14 H :    0.026655
  15 H :    0.034869
  16 S :    0.394251
  17 C :   -0.176551
  18 C :   -0.057273
  19 C :   -0.066547
  20 C :   -0.185842
  21 H :    0.021540
  22 C :   -0.047433
  23 H :    0.021559
  24 H :    0.037383
  25 C :   -0.054044
  26 H :    0.014903
  27 H :    0.034983
  28 C :   -0.067112
  29 H :    0.018544
  30 H :    0.027635
  31 H :    0.030360
  32 H :    0.027012
  33 H :    0.025406

  Mayer bond orders larger than 0.100000
B(  0-S ,  1-C ) :   1.1323 B(  0-S ,  4-C ) :   1.1598 B(  1-C ,  2-C ) :   1.6251
B(  1-C , 32-H ) :   0.9664 B(  2-C ,  3-C ) :   1.2556 B(  2-C ,  6-C ) :   1.0039
B(  3-C ,  4-C ) :   1.5480 B(  3-C ,  5-H ) :   0.9951 B(  4-C , 20-C ) :   1.0302
B(  6-C ,  7-H ) :   0.9439 B(  6-C ,  8-H ) :   0.9421 B(  6-C ,  9-C ) :   1.0455
B(  9-C , 10-H ) :   0.9548 B(  9-C , 11-H ) :   0.9594 B(  9-C , 12-C ) :   1.0848
B( 12-C , 13-H ) :   0.9764 B( 12-C , 14-H ) :   0.9722 B( 12-C , 15-H ) :   0.9753
B( 16-S , 17-C ) :   1.1473 B( 16-S , 20-C ) :   1.1492 B( 17-C , 18-C ) :   1.5882
B( 17-C , 33-H ) :   0.9740 B( 18-C , 19-C ) :   1.2513 B( 18-C , 21-H ) :   1.0050
B( 19-C , 20-C ) :   1.5584 B( 19-C , 22-C ) :   1.0427 B( 22-C , 23-H ) :   0.9205
B( 22-C , 24-H ) :   0.9472 B( 22-C , 25-C ) :   1.0663 B( 25-C , 26-H ) :   0.9489
B( 25-C , 27-H ) :   0.9506 B( 25-C , 28-C ) :   1.0874 B( 28-C , 29-H ) :   0.9702
B( 28-C , 30-H ) :   0.9749 B( 28-C , 31-H ) :   0.9685

Dispersion correction           -0.014825601
FINAL SINGLE POINT ENERGY     -1339.877613898019

DIPOLE MOMENT
-------------
                                X             Y             Z
Electronic contribution:     13.61029     -17.02676       9.43035
Nuclear contribution   :    -13.87691      17.35322      -9.47715
                        -----------------------------------------
Total Dipole Moment    :     -0.26663       0.32646      -0.04680
                        -----------------------------------------
Magnitude (a.u.)       :      0.42409
Magnitude (Debye)      :      1.07795

Rotational constants in cm-1:     0.022408     0.007641     0.006953
Rotational constants in MHz :   671.763753   229.070357   208.459481

                             ****ORCA TERMINATED NORMALLY****
TOTAL RUN TIME: 0 days 0 hours 0 minutes 29 seconds 224 msec
