                         Program Version 4.2.1 -  RELEASE  -
|  1> ! wB97X-D3 SP def2-SVP
|  2> %pal
|  3> nprocs 16
|  4> end
|  5>
|  6> * xyz 0 1
|  7> S 	 38.6118 	 27.537 	 83.7364
|  8> C 	 37.146 	 26.9877 	 84.4858
|  9> C 	 37.4035 	 26.0076 	 85.4451
| 10> C 	 38.8325 	 25.6748 	 85.5557
| 11> C 	 39.6157 	 26.4154 	 84.7329
| 12> H 	 39.3224 	 25.0142 	 86.2396
| 13> C 	 36.3993 	 25.2336 	 86.2592
| 14> H 	 36.3629 	 24.2266 	 85.808
| 15> H 	 35.4136 	 25.5812 	 85.9927
| 16> C 	 36.6231 	 25.1978 	 87.8043
| 17> H 	 37.4354 	 24.4557 	 88.0203
| 18> H 	 37.0548 	 26.1997 	 88.1079
| 19> C 	 35.3396 	 24.8723 	 88.5502
| 20> H 	 34.3565 	 24.9621 	 87.9958
| 21> H 	 35.5457 	 23.8284 	 88.7832
| 22> H 	 35.1108 	 25.468 	 89.4355
| 23> S 	 41.8735 	 27.8863 	 85.3537
| 24> C 	 43.4603 	 27.4028 	 84.8776
| 25> C 	 43.3487 	 26.0596 	 84.4093
| 26> C 	 42.0077 	 25.5264 	 84.3253
| 27> C 	 41.0747 	 26.4487 	 84.7757
| 28> H 	 44.1561 	 25.4596 	 84.0457
| 29> C 	 41.649 	 24.2383 	 83.5987
| 30> H 	 42.037 	 24.4906 	 82.5918
| 31> H 	 40.5585 	 24.2779 	 83.378
| 32> C 	 42.05 	 22.9614 	 84.3581
| 33> H 	 41.4346 	 23.0187 	 85.3039
| 34> H 	 43.0527 	 22.973 	 84.7799
| 35> C 	 41.8486 	 21.7464 	 83.4712
| 36> H 	 42.3062 	 21.6878 	 82.4786
| 37> H 	 40.8481 	 21.6428 	 83.3309
| 38> H 	 42.2053 	 20.8025 	 83.9346
| 39> H 	 36.1056 	 27.2033 	 84.2952
| 40> H 	 44.3784 	 27.9902 	 84.8931
| 41> *
| 42>
| 43>                          ****END OF INPUT****

CARTESIAN COORDINATES (ANGSTROEM)
---------------------------------
  S     38.611800   27.537000   83.736400
  C     37.146000   26.987700   84.485800
  C     37.403500   26.007600   85.445100
  C     38.832500   25.674800   85.555700
  C     39.615700   26.415400   84.732900
  H     39.322400   25.014200   86.239600
  C     36.399300   25.233600   86.259200
  H     36.362900   24.226600   85.808000
  H     35.413600   25.581200   85.992700
  C     36.623100   25.197800   87.804300
  H     37.435400   24.455700   88.020300
  H     37.054800   26.199700   88.107900
  C     35.339600   24.872300   88.550200
  H     34.356500   24.962100   87.995800
  H     35.545700   23.828400   88.783200
  H     35.110800   25.468000   89.435500
  S     41.873500   27.886300   85.353700
  C     43.460300   27.402800   84.877600
  C     43.348700   26.059600   84.409300
  C     42.007700   25.526400   84.325300
  C     41.074700   26.448700   84.775700
  H     44.156100   25.459600   84.045700
  C     41.649000   24.238300   83.598700
  H     42.037000   24.490600   82.591800
  H     40.558500   24.277900   83.378000
  C     42.050000   22.961400   84.358100
  H     41.434600   23.018700   85.303900
  H     43.052700   22.973000   84.779900
  C     41.848600   21.746400   83.471200
  H     42.306200   21.687800   82.478600
  H     40.848100   21.642800   83.330900
  H     42.205300   20.802500   83.934600
  H     36.105600   27.203300   84.295200
  H     44.378400   27.990200   84.893100

 Total Charge           Charge          ....    0
 Multiplicity           Mult            ....    1
 Number of Electrons    NEL             ....  134
 Basis Dimension        Dim             ....  322

ORBITAL ENERGIES
----------------

  NO   OCC          E(Eh)            E(eV)
   0   2.0000     -88.966124     -2420.8913
   1   2.0000     -88.962639     -2420.7965
   2   2.0000     -10.329292      -281.0743
   3   2.0000     -10.323336      -280.9123
   4   2.0000     -10.322215      -280.8817
   5   2.0000     -10.315573      -280.7010
   6   2.0000     -10.303243      -280.3655
   7   2.0000     -10.301015      -280.3049
   8   2.0000     -10.297700      -280.2147
   9   2.0000     -10.295544      -280.1560
  10   2.0000     -10.294447      -280.1261
  11   2.0000     -10.294130      -280.1175
  12   2.0000     -10.293694      -280.1056
  13   2.0000     -10.292238      -280.0660
  14   2.0000     -10.282807      -279.8094
  15   2.0000     -10.272376      -279.5256
  16   2.0000      -8.080045      -219.8692
  17   2.0000      -8.077777      -219.8075
  18   2.0000      -6.038800      -164.3241
  19   2.0000      -6.036338      -164.2571
  20   2.0000      -6.034658      -164.2114
  21   2.0000      -6.031929      -164.1371
  22   2.0000      -6.030566      -164.1000
  23   2.0000      -6.028743      -164.0504
  24   2.0000      -1.002333       -27.2749
  25   2.0000      -0.979276       -26.6475
  26   2.0000      -0.909141       -24.7390
  27   2.0000      -0.907346       -24.6901
  28   2.0000      -0.870225       -23.6800
  29   2.0000      -0.851012       -23.1572
  30   2.0000      -0.846047       -23.0221
  31   2.0000      -0.813088       -22.1253
  32   2.0000      -0.779105       -21.2005
  33   2.0000      -0.767754       -20.8916
  34   2.0000      -0.709644       -19.3104
  35   2.0000      -0.703511       -19.1435
  36   2.0000      -0.691923       -18.8282
  37   2.0000      -0.659444       -17.9444
  38   2.0000      -0.642722       -17.4894
  39   2.0000      -0.614810       -16.7298
  40   2.0000      -0.593217       -16.1423
  41   2.0000      -0.569158       -15.4876
  42   2.0000      -0.560123       -15.2417
  43   2.0000      -0.556221       -15.1355
  44   2.0000      -0.528746       -14.3879
  45   2.0000      -0.520251       -14.1567
  46   2.0000      -0.518517       -14.1096
  47   2.0000      -0.513811       -13.9815
  48   2.0000      -0.507934       -13.8216
  49   2.0000      -0.502724       -13.6798
  50   2.0000      -0.496058       -13.4984
  51   2.0000      -0.479987       -13.0611
  52   2.0000      -0.469385       -12.7726
  53   2.0000      -0.463088       -12.6013
  54   2.0000      -0.458970       -12.4892
  55   2.0000      -0.449515       -12.2319
  56   2.0000      -0.440079       -11.9751
  57   2.0000      -0.436598       -11.8804
  58   2.0000      -0.433794       -11.8041
  59   2.0000      -0.421785       -11.4773
  60   2.0000      -0.413690       -11.2571
  61   2.0000      -0.408540       -11.1169
  62   2.0000      -0.407714       -11.0945
  63   2.0000      -0.342367        -9.3163
  64   2.0000      -0.327362        -8.9080
  65   2.0000      -0.318420        -8.6646
  66   2.0000      -0.302358        -8.2276
  67   0.0000       0.037303         1.0151
  68   0.0000       0.064214         1.7473
  69   0.0000       0.115291         3.1372
  70   0.0000       0.124183         3.3792
  71   0.0000       0.131671         3.5830

MULLIKEN ATOMIC CHARGES
-----------------------
   0 S :    0.114124
   1 C :   -0.088772
   2 C :   -0.126233
   3 C :    0.053412
   4 C :   -0.166015
   5 H :    0.010932
   6 C :    0.078347
   7 H :    0.039609
   8 H :   -0.005758
   9 C :   -0.109803
  10 H :    0.046396
  11 H :    0.048452
  12 C :   -0.060427
  13 H :    0.041471
  14 H :    0.038300
  15 H :    0.041285
  16 S :    0.117664
  17 C :   -0.099303
  18 C :   -0.024575
  19 C :   -0.049517
  20 C :   -0.189255
  21 H :    0.006361
  22 C :    0.033362
  23 H :    0.039369
  24 H :    0.034111
  25 C :   -0.070176
  26 H :    0.035080
  27 H :    0.030495
  28 C :   -0.000440
  29 H :    0.034033
  30 H :    0.007213
  31 H :    0.027480
  32 H :    0.039998
  33 H :    0.072780
Sum of atomic charges:    0.0000000

LOEWDIN ATOMIC CHARGES
----------------------
   0 S :    0.385250
   1 C :   -0.203935
   2 C :   -0.062245
   3 C :   -0.050654
   4 C :   -0.181031
   5 H :    0.029716
   6 C :   -0.038441
   7 H :    0.036710
   8 H :    0.020794
   9 C :   -0.046524
  10 H :    0.028066
  11 H :    0.030650
  12 C :   -0.076183
  13 H :    0.032184
  14 H :    0.032306
  15 H :    0.028806
  16 S :    0.423475
  17 C :   -0.199471
  18 C :   -0.071776
  19 C :   -0.058355
  20 C :   -0.213295
  21 H :    0.022320
  22 C :   -0.038286
  23 H :    0.037591
  24 H :    0.035401
  25 C :   -0.039998
  26 H :    0.035228
  27 H :    0.022230
  28 C :   -0.064067
  29 H :    0.031175
  30 H :    0.012794
  31 H :    0.029404
  32 H :    0.032378
  33 H :    0.037781

  Mayer bond orders larger than 0.100000
B(  0-S ,  1-C ) :   1.1197 B(  0-S ,  4-C ) :   1.1149 B(  1-C ,  2-C ) :   1.6553
B(  1-C , 32-H ) :   0.9604 B(  2-C ,  3-C ) :   1.1831 B(  2-C ,  6-C ) :   1.0385
B(  3-C ,  4-C ) :   1.6341 B(  3-C ,  5-H ) :   0.9920 B(  4-C , 20-C ) :   1.0282
B(  6-C ,  7-H ) :   0.9337 B(  6-C ,  8-H ) :   0.9394 B(  6-C ,  9-C ) :   1.0359
B(  9-C , 10-H ) :   0.9624 B(  9-C , 11-H ) :   0.9666 B(  9-C , 12-C ) :   1.0514
B( 12-C , 13-H ) :   0.9796 B( 12-C , 14-H ) :   0.9811 B( 12-C , 15-H ) :   0.9784
B( 16-S , 17-C ) :   1.1705 B( 16-S , 20-C ) :   1.1558 B( 17-C , 18-C ) :   1.5535
B( 17-C , 20-C ) :   0.1014 B( 17-C , 33-H ) :   0.9730 B( 18-C , 19-C ) :   1.2800
B( 18-C , 21-H ) :   0.9867 B( 19-C , 20-C ) :   1.5704 B( 19-C , 22-C ) :   1.0315
B( 22-C , 23-H ) :   0.9427 B( 22-C , 24-H ) :   0.9340 B( 22-C , 25-C ) :   1.0341
B( 25-C , 26-H ) :   0.9492 B( 25-C , 27-H ) :   0.9672 B( 25-C , 28-C ) :   1.0732
B( 28-C , 29-H ) :   0.9754 B( 28-C , 30-H ) :   0.9710 B( 28-C , 31-H ) :   0.9724

Dispersion correction           -0.013878091
FINAL SINGLE POINT ENERGY     -1339.862781211737

DIPOLE MOMENT
-------------
                                X             Y             Z
Electronic contribution:      9.05029      24.38312      -7.93004
Nuclear contribution   :     -9.19534     -25.02359       8.04333
                        -----------------------------------------
Total Dipole Moment    :     -0.14504      -0.64047       0.11329
                        -----------------------------------------
Magnitude (a.u.)       :      0.66639
Magnitude (Debye)      :      1.69383

Rotational constants in cm-1:     0.016647     0.008131     0.006675
Rotational constants in MHz :   499.074132   243.754395   200.105306

                             ****ORCA TERMINATED NORMALLY****
TOTAL RUN TIME: 0 days 0 hours 0 minutes 29 seconds 389 msec
