                         Program Version 4.2.1 -  RELEASE  -
|  1> ! wB97X-D3 SP def2-SVP
|  2> %pal
|  3> nprocs 16
|  4> end
|  5>
|  6> * xyz 0 1
|  7> S 	 7.05877 	 26.1266 	 67.9757
|  8> C 	 7.78914 	 24.487 	 67.6513
|  9> C 	 7.28425 	 23.9685 	 66.4529
| 10> C 	 6.34641 	 24.8491 	 65.8406
| 11> C 	 6.19559 	 26.0748 	 66.4193
| 12> H 	 5.83573 	 24.5847 	 64.8946
| 13> C 	 7.48021 	 22.5069 	 66.0261
| 14> H 	 6.54899 	 21.8639 	 66.2401
| 15> H 	 8.25813 	 22.123 	 66.6332
| 16> C 	 7.81611 	 22.4057 	 64.5302
| 17> H 	 7.83034 	 21.3456 	 64.3135
| 18> H 	 6.99878 	 22.7636 	 63.8744
| 19> C 	 9.11128 	 23.1756 	 64.1979
| 20> H 	 10.0397 	 22.7589 	 64.6663
| 21> H 	 9.36059 	 23.0672 	 63.1069
| 22> H 	 8.9717 	 24.2585 	 64.3161
| 23> S 	 4.75692 	 28.3153 	 67.4111
| 24> C 	 3.82647 	 29.3022 	 66.341
| 25> C 	 3.88727 	 28.7772 	 65.0786
| 26> C 	 4.58665 	 27.5811 	 64.9549
| 27> C 	 5.2396 	 27.1519 	 66.1387
| 28> H 	 3.39887 	 29.3941 	 64.311
| 29> C 	 4.78386 	 26.8269 	 63.6238
| 30> H 	 5.70127 	 26.3191 	 63.6351
| 31> H 	 4.8997 	 27.5827 	 62.8288
| 32> C 	 3.71895 	 25.7504 	 63.2213
| 33> H 	 2.71893 	 26.002 	 63.3834
| 34> H 	 3.87359 	 24.9693 	 63.9725
| 35> C 	 3.97585 	 25.2109 	 61.8087
| 36> H 	 3.93536 	 26.0237 	 61.0886
| 37> H 	 3.30825 	 24.381 	 61.5153
| 38> H 	 4.96316 	 24.672 	 61.7004
| 39> H 	 8.409 	 24.0136 	 68.3062
| 40> H 	 3.20442 	 30.163 	 66.6712
| 41> *
| 42>
| 43>                          ****END OF INPUT****

CARTESIAN COORDINATES (ANGSTROEM)
---------------------------------
  S      7.058770   26.126600   67.975700
  C      7.789140   24.487000   67.651300
  C      7.284250   23.968500   66.452900
  C      6.346410   24.849100   65.840600
  C      6.195590   26.074800   66.419300
  H      5.835730   24.584700   64.894600
  C      7.480210   22.506900   66.026100
  H      6.548990   21.863900   66.240100
  H      8.258130   22.123000   66.633200
  C      7.816110   22.405700   64.530200
  H      7.830340   21.345600   64.313500
  H      6.998780   22.763600   63.874400
  C      9.111280   23.175600   64.197900
  H     10.039700   22.758900   64.666300
  H      9.360590   23.067200   63.106900
  H      8.971700   24.258500   64.316100
  S      4.756920   28.315300   67.411100
  C      3.826470   29.302200   66.341000
  C      3.887270   28.777200   65.078600
  C      4.586650   27.581100   64.954900
  C      5.239600   27.151900   66.138700
  H      3.398870   29.394100   64.311000
  C      4.783860   26.826900   63.623800
  H      5.701270   26.319100   63.635100
  H      4.899700   27.582700   62.828800
  C      3.718950   25.750400   63.221300
  H      2.718930   26.002000   63.383400
  H      3.873590   24.969300   63.972500
  C      3.975850   25.210900   61.808700
  H      3.935360   26.023700   61.088600
  H      3.308250   24.381000   61.515300
  H      4.963160   24.672000   61.700400
  H      8.409000   24.013600   68.306200
  H      3.204420   30.163000   66.671200

 Total Charge           Charge          ....    0
 Multiplicity           Mult            ....    1
 Number of Electrons    NEL             ....  134
 Basis Dimension        Dim             ....  322

ORBITAL ENERGIES
----------------

  NO   OCC          E(Eh)            E(eV)
   0   2.0000     -88.965738     -2420.8808
   1   2.0000     -88.965439     -2420.8727
   2   2.0000     -10.338165      -281.3158
   3   2.0000     -10.336145      -281.2608
   4   2.0000     -10.319920      -280.8193
   5   2.0000     -10.316982      -280.7394
   6   2.0000     -10.307496      -280.4812
   7   2.0000     -10.305911      -280.4381
   8   2.0000     -10.299096      -280.2527
   9   2.0000     -10.297320      -280.2043
  10   2.0000     -10.292948      -280.0853
  11   2.0000     -10.291771      -280.0533
  12   2.0000     -10.291506      -280.0461
  13   2.0000     -10.286681      -279.9148
  14   2.0000     -10.286415      -279.9076
  15   2.0000     -10.284590      -279.8579
  16   2.0000      -8.079936      -219.8662
  17   2.0000      -8.079066      -219.8426
  18   2.0000      -6.038396      -164.3131
  19   2.0000      -6.037788      -164.2966
  20   2.0000      -6.034322      -164.2023
  21   2.0000      -6.033942      -164.1919
  22   2.0000      -6.030896      -164.1090
  23   2.0000      -6.029513      -164.0714
  24   2.0000      -1.004243       -27.3268
  25   2.0000      -0.981198       -26.6998
  26   2.0000      -0.911726       -24.8093
  27   2.0000      -0.906563       -24.6688
  28   2.0000      -0.867611       -23.6089
  29   2.0000      -0.851996       -23.1840
  30   2.0000      -0.836592       -22.7648
  31   2.0000      -0.817143       -22.2356
  32   2.0000      -0.782370       -21.2894
  33   2.0000      -0.772036       -21.0082
  34   2.0000      -0.713829       -19.4243
  35   2.0000      -0.704012       -19.1571
  36   2.0000      -0.698163       -18.9980
  37   2.0000      -0.654811       -17.8183
  38   2.0000      -0.643974       -17.5234
  39   2.0000      -0.627491       -17.0749
  40   2.0000      -0.598619       -16.2893
  41   2.0000      -0.569003       -15.4834
  42   2.0000      -0.561469       -15.2784
  43   2.0000      -0.548256       -14.9188
  44   2.0000      -0.536736       -14.6053
  45   2.0000      -0.523873       -14.2553
  46   2.0000      -0.520546       -14.1648
  47   2.0000      -0.512377       -13.9425
  48   2.0000      -0.507713       -13.8156
  49   2.0000      -0.501717       -13.6524
  50   2.0000      -0.491207       -13.3664
  51   2.0000      -0.478288       -13.0149
  52   2.0000      -0.469905       -12.7868
  53   2.0000      -0.466208       -12.6862
  54   2.0000      -0.459301       -12.4982
  55   2.0000      -0.446421       -12.1477
  56   2.0000      -0.444435       -12.0937
  57   2.0000      -0.436008       -11.8644
  58   2.0000      -0.434050       -11.8111
  59   2.0000      -0.428099       -11.6492
  60   2.0000      -0.422466       -11.4959
  61   2.0000      -0.414366       -11.2755
  62   2.0000      -0.406753       -11.0683
  63   2.0000      -0.360727        -9.8159
  64   2.0000      -0.336513        -9.1570
  65   2.0000      -0.329206        -8.9581
  66   2.0000      -0.283058        -7.7024
  67   0.0000       0.014342         0.3903
  68   0.0000       0.076714         2.0875
  69   0.0000       0.099419         2.7053
  70   0.0000       0.115259         3.1364
  71   0.0000       0.121692         3.3114

MULLIKEN ATOMIC CHARGES
-----------------------
   0 S :    0.071542
   1 C :   -0.085788
   2 C :   -0.087219
   3 C :   -0.017814
   4 C :   -0.083660
   5 H :    0.009868
   6 C :    0.074523
   7 H :    0.059182
   8 H :    0.008784
   9 C :   -0.084589
  10 H :    0.024831
  11 H :    0.033318
  12 C :   -0.080956
  13 H :    0.042769
  14 H :    0.030350
  15 H :    0.058741
  16 S :    0.089699
  17 C :   -0.112591
  18 C :   -0.042052
  19 C :   -0.022634
  20 C :   -0.124603
  21 H :    0.026363
  22 C :    0.041767
  23 H :    0.005909
  24 H :    0.020648
  25 C :   -0.022049
  26 H :    0.016659
  27 H :    0.014575
  28 C :   -0.066473
  29 H :    0.038771
  30 H :    0.039312
  31 H :    0.029824
  32 H :    0.013954
  33 H :    0.079042
Sum of atomic charges:    0.0000000

LOEWDIN ATOMIC CHARGES
----------------------
   0 S :    0.358760
   1 C :   -0.153693
   2 C :   -0.058015
   3 C :   -0.073212
   4 C :   -0.166680
   5 H :    0.032277
   6 C :   -0.027834
   7 H :    0.044264
   8 H :    0.022732
   9 C :   -0.048316
  10 H :    0.022893
  11 H :    0.025009
  12 C :   -0.075763
  13 H :    0.030880
  14 H :    0.029528
  15 H :    0.032009
  16 S :    0.398154
  17 C :   -0.194997
  18 C :   -0.082881
  19 C :   -0.057017
  20 C :   -0.184908
  21 H :    0.038450
  22 C :   -0.025371
  23 H :    0.018458
  24 H :    0.028633
  25 C :   -0.035365
  26 H :    0.016592
  27 H :    0.021810
  28 C :   -0.070754
  29 H :    0.024380
  30 H :    0.030229
  31 H :    0.029601
  32 H :    0.006693
  33 H :    0.043455

  Mayer bond orders larger than 0.100000
B(  0-S ,  1-C ) :   1.1190 B(  0-S ,  4-C ) :   1.1225 B(  1-C ,  2-C ) :   1.6123
B(  1-C , 32-H ) :   0.9814 B(  2-C ,  3-C ) :   1.2290 B(  2-C ,  6-C ) :   1.0212
B(  3-C ,  4-C ) :   1.5851 B(  3-C ,  5-H ) :   0.9738 B(  4-C , 20-C ) :   1.0866
B(  6-C ,  7-H ) :   0.9436 B(  6-C ,  8-H ) :   0.9388 B(  6-C ,  9-C ) :   1.0667
B(  9-C , 10-H ) :   0.9552 B(  9-C , 11-H ) :   0.9539 B(  9-C , 12-C ) :   1.0717
B( 12-C , 13-H ) :   0.9755 B( 12-C , 14-H ) :   0.9727 B( 12-C , 15-H ) :   0.9695
B( 16-S , 17-C ) :   1.1694 B( 16-S , 20-C ) :   1.1403 B( 17-C , 18-C ) :   1.5732
B( 17-C , 20-C ) :   0.1060 B( 17-C , 33-H ) :   0.9623 B( 18-C , 19-C ) :   1.2857
B( 18-C , 21-H ) :   0.9934 B( 19-C , 20-C ) :   1.5350 B( 19-C , 22-C ) :   1.0393
B( 22-C , 23-H ) :   0.9330 B( 22-C , 24-H ) :   0.9420 B( 22-C , 25-C ) :   1.0497
B( 25-C , 26-H ) :   0.9561 B( 25-C , 27-H ) :   0.9479 B( 25-C , 28-C ) :   1.0782
B( 28-C , 29-H ) :   0.9766 B( 28-C , 30-H ) :   0.9730 B( 28-C , 31-H ) :   0.9730

Dispersion correction           -0.014573509
FINAL SINGLE POINT ENERGY     -1339.877242691064

DIPOLE MOMENT
-------------
                                X             Y             Z
Electronic contribution:     -2.37838      19.01569      25.67171
Nuclear contribution   :      2.20650     -19.44454     -26.26514
                        -----------------------------------------
Total Dipole Moment    :     -0.17188      -0.42884      -0.59343
                        -----------------------------------------
Magnitude (a.u.)       :      0.75207
Magnitude (Debye)      :      1.91161

Rotational constants in cm-1:     0.016989     0.010255     0.006774
Rotational constants in MHz :   509.304215   307.431828   203.089637

                             ****ORCA TERMINATED NORMALLY****
TOTAL RUN TIME: 0 days 0 hours 0 minutes 33 seconds 860 msec
