                         Program Version 4.2.1 -  RELEASE  -
|  1> ! wB97X-D3 SP def2-SVP
|  2> %pal
|  3> nprocs 16
|  4> end
|  5>
|  6> * xyz 0 1
|  7> S 	 -20.7776 	 34.5542 	 37.3135
|  8> C 	 -21.9627 	 34.1709 	 35.988
|  9> C 	 -22.0306 	 32.8038 	 35.7176
| 10> C 	 -21.017 	 32.1532 	 36.4416
| 11> C 	 -20.2841 	 32.9137 	 37.3376
| 12> H 	 -20.7251 	 31.1263 	 36.4527
| 13> C 	 -23.1545 	 32.1254 	 34.9961
| 14> H 	 -23.8697 	 32.8552 	 34.5867
| 15> H 	 -23.7325 	 31.4774 	 35.657
| 16> C 	 -22.8032 	 31.253 	 33.7832
| 17> H 	 -22.179 	 31.8847 	 33.1065
| 18> H 	 -22.2529 	 30.3685 	 33.9238
| 19> C 	 -24.004 	 30.637 	 33.0883
| 20> H 	 -24.69 	 30.3342 	 33.8724
| 21> H 	 -24.5473 	 31.3106 	 32.4343
| 22> H 	 -23.8052 	 29.6883 	 32.5699
| 23> S 	 -19.4811 	 32.1502 	 39.8721
| 24> C 	 -17.7618 	 31.8794 	 40.2149
| 25> C 	 -17.0549 	 31.7977 	 39.0125
| 26> C 	 -17.8324 	 32.224 	 37.8581
| 27> C 	 -19.1582 	 32.5325 	 38.1677
| 28> H 	 -16.0123 	 31.5002 	 38.9975
| 29> C 	 -17.1275 	 32.4314 	 36.5285
| 30> H 	 -15.9736 	 32.3793 	 36.636
| 31> H 	 -17.3629 	 33.5004 	 36.1957
| 32> C 	 -17.5833 	 31.7569 	 35.2611
| 33> H 	 -17.0249 	 32.2766 	 34.5111
| 34> H 	 -18.7025 	 31.7939 	 35.0317
| 35> C 	 -17.0258 	 30.3774 	 35.1156
| 36> H 	 -15.9393 	 30.3933 	 35.3648
| 37> H 	 -17.2125 	 29.941 	 34.2024
| 38> H 	 -17.5503 	 29.7061 	 35.841
| 39> H 	 -22.6221 	 34.9404 	 35.6725
| 40> H 	 -17.3179 	 31.5787 	 41.2149
| 41> *
| 42>
| 43>                          ****END OF INPUT****

CARTESIAN COORDINATES (ANGSTROEM)
---------------------------------
  S    -20.777600   34.554200   37.313500
  C    -21.962700   34.170900   35.988000
  C    -22.030600   32.803800   35.717600
  C    -21.017000   32.153200   36.441600
  C    -20.284100   32.913700   37.337600
  H    -20.725100   31.126300   36.452700
  C    -23.154500   32.125400   34.996100
  H    -23.869700   32.855200   34.586700
  H    -23.732500   31.477400   35.657000
  C    -22.803200   31.253000   33.783200
  H    -22.179000   31.884700   33.106500
  H    -22.252900   30.368500   33.923800
  C    -24.004000   30.637000   33.088300
  H    -24.690000   30.334200   33.872400
  H    -24.547300   31.310600   32.434300
  H    -23.805200   29.688300   32.569900
  S    -19.481100   32.150200   39.872100
  C    -17.761800   31.879400   40.214900
  C    -17.054900   31.797700   39.012500
  C    -17.832400   32.224000   37.858100
  C    -19.158200   32.532500   38.167700
  H    -16.012300   31.500200   38.997500
  C    -17.127500   32.431400   36.528500
  H    -15.973600   32.379300   36.636000
  H    -17.362900   33.500400   36.195700
  C    -17.583300   31.756900   35.261100
  H    -17.024900   32.276600   34.511100
  H    -18.702500   31.793900   35.031700
  C    -17.025800   30.377400   35.115600
  H    -15.939300   30.393300   35.364800
  H    -17.212500   29.941000   34.202400
  H    -17.550300   29.706100   35.841000
  H    -22.622100   34.940400   35.672500
  H    -17.317900   31.578700   41.214900

 Total Charge           Charge          ....    0
 Multiplicity           Mult            ....    1
 Number of Electrons    NEL             ....  134
 Basis Dimension        Dim             ....  322

ORBITAL ENERGIES
----------------

  NO   OCC          E(Eh)            E(eV)
   0   2.0000     -88.967407     -2420.9262
   1   2.0000     -88.964273     -2420.8409
   2   2.0000     -10.327574      -281.0276
   3   2.0000     -10.326628      -281.0018
   4   2.0000     -10.326220      -280.9907
   5   2.0000     -10.321262      -280.8558
   6   2.0000     -10.309140      -280.5260
   7   2.0000     -10.308845      -280.5179
   8   2.0000     -10.299964      -280.2763
   9   2.0000     -10.299449      -280.2623
  10   2.0000     -10.297973      -280.2221
  11   2.0000     -10.292683      -280.0781
  12   2.0000     -10.284462      -279.8544
  13   2.0000     -10.280428      -279.7447
  14   2.0000     -10.278613      -279.6953
  15   2.0000     -10.267433      -279.3910
  16   2.0000      -8.081886      -219.9193
  17   2.0000      -8.078266      -219.8208
  18   2.0000      -6.040194      -164.3620
  19   2.0000      -6.036906      -164.2726
  20   2.0000      -6.036449      -164.2601
  21   2.0000      -6.032895      -164.1634
  22   2.0000      -6.032834      -164.1618
  23   2.0000      -6.028894      -164.0546
  24   2.0000      -1.004834       -27.3429
  25   2.0000      -0.978452       -26.6250
  26   2.0000      -0.918246       -24.9867
  27   2.0000      -0.911798       -24.8113
  28   2.0000      -0.873017       -23.7560
  29   2.0000      -0.848223       -23.0813
  30   2.0000      -0.846737       -23.0409
  31   2.0000      -0.813873       -22.1466
  32   2.0000      -0.785861       -21.3844
  33   2.0000      -0.771886       -21.0041
  34   2.0000      -0.708519       -19.2798
  35   2.0000      -0.698812       -19.0157
  36   2.0000      -0.678032       -18.4502
  37   2.0000      -0.657779       -17.8991
  38   2.0000      -0.655378       -17.8337
  39   2.0000      -0.619002       -16.8439
  40   2.0000      -0.590499       -16.0683
  41   2.0000      -0.577045       -15.7022
  42   2.0000      -0.566945       -15.4273
  43   2.0000      -0.551652       -15.0112
  44   2.0000      -0.546339       -14.8666
  45   2.0000      -0.529157       -14.3991
  46   2.0000      -0.517098       -14.0710
  47   2.0000      -0.513785       -13.9808
  48   2.0000      -0.501046       -13.6342
  49   2.0000      -0.495962       -13.4958
  50   2.0000      -0.487365       -13.2619
  51   2.0000      -0.476393       -12.9633
  52   2.0000      -0.470950       -12.8152
  53   2.0000      -0.470696       -12.8083
  54   2.0000      -0.458501       -12.4764
  55   2.0000      -0.450714       -12.2646
  56   2.0000      -0.436734       -11.8841
  57   2.0000      -0.434202       -11.8152
  58   2.0000      -0.430842       -11.7238
  59   2.0000      -0.427930       -11.6446
  60   2.0000      -0.419779       -11.4228
  61   2.0000      -0.416205       -11.3255
  62   2.0000      -0.400977       -10.9111
  63   2.0000      -0.336717        -9.1625
  64   2.0000      -0.328988        -8.9522
  65   2.0000      -0.319336        -8.6896
  66   2.0000      -0.308590        -8.3972
  67   0.0000       0.035700         0.9714
  68   0.0000       0.050635         1.3778
  69   0.0000       0.102423         2.7871
  70   0.0000       0.114965         3.1284
  71   0.0000       0.125286         3.4092

MULLIKEN ATOMIC CHARGES
-----------------------
   0 S :    0.112536
   1 C :   -0.129267
   2 C :   -0.028396
   3 C :    0.063238
   4 C :   -0.203098
   5 H :    0.000646
   6 C :    0.072827
   7 H :    0.021831
   8 H :    0.038401
   9 C :   -0.086839
  10 H :    0.031752
  11 H :    0.019226
  12 C :   -0.052312
  13 H :    0.015999
  14 H :    0.033276
  15 H :    0.036761
  16 S :    0.101211
  17 C :   -0.114475
  18 C :   -0.048483
  19 C :    0.034769
  20 C :   -0.176345
  21 H :    0.024731
  22 C :   -0.016151
  23 H :    0.039630
  24 H :    0.050102
  25 C :   -0.073362
  26 H :    0.015830
  27 H :    0.058565
  28 C :   -0.028266
  29 H :    0.023378
  30 H :    0.015214
  31 H :    0.022293
  32 H :    0.040998
  33 H :    0.083779
Sum of atomic charges:   -0.0000000

LOEWDIN ATOMIC CHARGES
----------------------
   0 S :    0.405709
   1 C :   -0.162464
   2 C :   -0.061596
   3 C :   -0.056604
   4 C :   -0.212299
   5 H :    0.027805
   6 C :   -0.027723
   7 H :    0.035212
   8 H :    0.034631
   9 C :   -0.047467
  10 H :    0.026282
  11 H :    0.018057
  12 C :   -0.065353
  13 H :    0.024425
  14 H :    0.021281
  15 H :    0.030064
  16 S :    0.387604
  17 C :   -0.188851
  18 C :   -0.074137
  19 C :   -0.051861
  20 C :   -0.205419
  21 H :    0.031466
  22 C :   -0.045448
  23 H :    0.039846
  24 H :    0.048477
  25 C :   -0.050769
  26 H :    0.023051
  27 H :    0.037531
  28 C :   -0.065300
  29 H :    0.026108
  30 H :    0.010790
  31 H :    0.024582
  32 H :    0.016950
  33 H :    0.045421

  Mayer bond orders larger than 0.100000
B(  0-S ,  1-C ) :   1.1491 B(  0-S ,  4-C ) :   1.1650 B(  1-C ,  2-C ) :   1.5832
B(  1-C ,  4-C ) :   0.1080 B(  1-C , 32-H ) :   0.9754 B(  2-C ,  3-C ) :   1.2188
B(  2-C ,  6-C ) :   1.0375 B(  3-C ,  4-C ) :   1.5970 B(  3-C ,  5-H ) :   0.9985
B(  4-C , 20-C ) :   1.0051 B(  6-C ,  7-H ) :   0.9403 B(  6-C ,  8-H ) :   0.9353
B(  6-C ,  9-C ) :   1.0566 B(  9-C , 10-H ) :   0.9569 B(  9-C , 11-H ) :   0.9581
B(  9-C , 12-C ) :   1.0758 B( 12-C , 13-H ) :   0.9679 B( 12-C , 14-H ) :   0.9755
B( 12-C , 15-H ) :   0.9780 B( 16-S , 17-C ) :   1.1499 B( 16-S , 20-C ) :   1.1346
B( 17-C , 18-C ) :   1.6123 B( 17-C , 20-C ) :   0.1012 B( 17-C , 33-H ) :   0.9586
B( 18-C , 19-C ) :   1.2296 B( 18-C , 21-H ) :   0.9872 B( 19-C , 20-C ) :   1.6023
B( 19-C , 22-C ) :   1.0374 B( 22-C , 23-H ) :   0.9405 B( 22-C , 24-H ) :   0.9342
B( 22-C , 25-C ) :   1.0744 B( 25-C , 26-H ) :   0.9474 B( 25-C , 27-H ) :   0.9462
B( 25-C , 28-C ) :   1.0856 B( 28-C , 29-H ) :   0.9707 B( 28-C , 30-H ) :   0.9727
B( 28-C , 31-H ) :   0.9738

Dispersion correction           -0.014433997
FINAL SINGLE POINT ENERGY     -1339.858599061096

DIPOLE MOMENT
-------------
                                X             Y             Z
Electronic contribution:      1.71457      14.19987      25.50915
Nuclear contribution   :     -1.72682     -14.54373     -25.98063
                        -----------------------------------------
Total Dipole Moment    :     -0.01224      -0.34386      -0.47148
                        -----------------------------------------
Magnitude (a.u.)       :      0.58368
Magnitude (Debye)      :      1.48361

Rotational constants in cm-1:     0.018777     0.008427     0.006933
Rotational constants in MHz :   562.919951   252.643041   207.840619

                             ****ORCA TERMINATED NORMALLY****
TOTAL RUN TIME: 0 days 0 hours 0 minutes 34 seconds 10 msec
