                         Program Version 4.2.1 -  RELEASE  -
|  1> ! wB97X-D3 SP def2-SVP
|  2> %pal
|  3> nprocs 16
|  4> end
|  5>
|  6> * xyz 0 1
|  7> S 	 -9.62564 	 78.0318 	 48.9902
|  8> C 	 -11.2507 	 78.7373 	 49.3005
|  9> C 	 -12.1994 	 77.7584 	 49.3264
| 10> C 	 -11.7273 	 76.4649 	 48.88
| 11> C 	 -10.3765 	 76.4538 	 48.5987
| 12> H 	 -12.3322 	 75.657 	 48.5599
| 13> C 	 -13.6264 	 78.0882 	 49.5831
| 14> H 	 -13.6025 	 78.8956 	 50.2715
| 15> H 	 -14.0815 	 77.2906 	 50.205
| 16> C 	 -14.4148 	 78.3847 	 48.3536
| 17> H 	 -14.222 	 79.3321 	 47.8803
| 18> H 	 -14.3376 	 77.5581 	 47.5602
| 19> C 	 -15.9475 	 78.3833 	 48.6882
| 20> H 	 -16.4087 	 77.469 	 49.1837
| 21> H 	 -16.2045 	 79.1314 	 49.4075
| 22> H 	 -16.4285 	 78.5562 	 47.6764
| 23> S 	 -8.34621 	 74.6433 	 49.2064
| 24> C 	 -8.11539 	 73.1773 	 48.2321
| 25> C 	 -8.94753 	 73.2083 	 47.1261
| 26> C 	 -9.75082 	 74.4145 	 47.0799
| 27> C 	 -9.5882 	 75.3307 	 48.1373
| 28> H 	 -9.06218 	 72.294 	 46.4727
| 29> C 	 -10.8354 	 74.6201 	 46.1485
| 30> H 	 -10.8039 	 75.6795 	 46.0758
| 31> H 	 -11.7579 	 74.3572 	 46.6387
| 32> C 	 -10.775 	 73.9491 	 44.753
| 33> H 	 -10.9001 	 72.8623 	 44.8894
| 34> H 	 -9.80108 	 74.1366 	 44.3042
| 35> C 	 -11.8956 	 74.3168 	 43.7842
| 36> H 	 -12.8533 	 74.2332 	 44.3028
| 37> H 	 -11.9529 	 73.6725 	 42.9837
| 38> H 	 -11.767 	 75.3815 	 43.419
| 39> H 	 -11.5003 	 79.7982 	 49.4548
| 40> H 	 -7.57228 	 72.3853 	 48.7311
| 41> *
| 42>
| 43>                          ****END OF INPUT****

CARTESIAN COORDINATES (ANGSTROEM)
---------------------------------
  S     -9.625640   78.031800   48.990200
  C    -11.250700   78.737300   49.300500
  C    -12.199400   77.758400   49.326400
  C    -11.727300   76.464900   48.880000
  C    -10.376500   76.453800   48.598700
  H    -12.332200   75.657000   48.559900
  C    -13.626400   78.088200   49.583100
  H    -13.602500   78.895600   50.271500
  H    -14.081500   77.290600   50.205000
  C    -14.414800   78.384700   48.353600
  H    -14.222000   79.332100   47.880300
  H    -14.337600   77.558100   47.560200
  C    -15.947500   78.383300   48.688200
  H    -16.408700   77.469000   49.183700
  H    -16.204500   79.131400   49.407500
  H    -16.428500   78.556200   47.676400
  S     -8.346210   74.643300   49.206400
  C     -8.115390   73.177300   48.232100
  C     -8.947530   73.208300   47.126100
  C     -9.750820   74.414500   47.079900
  C     -9.588200   75.330700   48.137300
  H     -9.062180   72.294000   46.472700
  C    -10.835400   74.620100   46.148500
  H    -10.803900   75.679500   46.075800
  H    -11.757900   74.357200   46.638700
  C    -10.775000   73.949100   44.753000
  H    -10.900100   72.862300   44.889400
  H     -9.801080   74.136600   44.304200
  C    -11.895600   74.316800   43.784200
  H    -12.853300   74.233200   44.302800
  H    -11.952900   73.672500   42.983700
  H    -11.767000   75.381500   43.419000
  H    -11.500300   79.798200   49.454800
  H     -7.572280   72.385300   48.731100

 Total Charge           Charge          ....    0
 Multiplicity           Mult            ....    1
 Number of Electrons    NEL             ....  134
 Basis Dimension        Dim             ....  322

ORBITAL ENERGIES
----------------

  NO   OCC          E(Eh)            E(eV)
   0   2.0000     -88.965376     -2420.8710
   1   2.0000     -88.958528     -2420.6846
   2   2.0000     -10.335352      -281.2392
   3   2.0000     -10.326556      -280.9999
   4   2.0000     -10.323143      -280.9070
   5   2.0000     -10.318157      -280.7713
   6   2.0000     -10.304557      -280.4013
   7   2.0000     -10.304182      -280.3910
   8   2.0000     -10.299476      -280.2630
   9   2.0000     -10.297106      -280.1985
  10   2.0000     -10.295565      -280.1566
  11   2.0000     -10.288193      -279.9560
  12   2.0000     -10.287901      -279.9480
  13   2.0000     -10.286597      -279.9125
  14   2.0000     -10.279962      -279.7320
  15   2.0000     -10.276558      -279.6393
  16   2.0000      -8.078851      -219.8367
  17   2.0000      -8.072951      -219.6762
  18   2.0000      -6.037581      -164.2909
  19   2.0000      -6.033652      -164.1840
  20   2.0000      -6.031488      -164.1251
  21   2.0000      -6.029326      -164.0663
  22   2.0000      -6.027352      -164.0126
  23   2.0000      -6.023837      -163.9169
  24   2.0000      -1.000885       -27.2355
  25   2.0000      -0.978965       -26.6390
  26   2.0000      -0.917904       -24.9774
  27   2.0000      -0.912056       -24.8183
  28   2.0000      -0.871438       -23.7130
  29   2.0000      -0.853186       -23.2164
  30   2.0000      -0.842305       -22.9203
  31   2.0000      -0.818692       -22.2778
  32   2.0000      -0.780134       -21.2285
  33   2.0000      -0.767076       -20.8732
  34   2.0000      -0.709184       -19.2979
  35   2.0000      -0.704094       -19.1594
  36   2.0000      -0.700266       -19.0552
  37   2.0000      -0.648586       -17.6489
  38   2.0000      -0.642644       -17.4872
  39   2.0000      -0.620158       -16.8754
  40   2.0000      -0.597094       -16.2477
  41   2.0000      -0.575453       -15.6589
  42   2.0000      -0.570402       -15.5214
  43   2.0000      -0.559157       -15.2154
  44   2.0000      -0.539303       -14.6752
  45   2.0000      -0.533752       -14.5241
  46   2.0000      -0.517790       -14.0898
  47   2.0000      -0.516705       -14.0602
  48   2.0000      -0.506450       -13.7812
  49   2.0000      -0.496406       -13.5079
  50   2.0000      -0.492751       -13.4084
  51   2.0000      -0.477339       -12.9890
  52   2.0000      -0.469763       -12.7829
  53   2.0000      -0.460103       -12.5201
  54   2.0000      -0.458243       -12.4694
  55   2.0000      -0.452515       -12.3135
  56   2.0000      -0.450892       -12.2694
  57   2.0000      -0.436998       -11.8913
  58   2.0000      -0.430154       -11.7051
  59   2.0000      -0.421726       -11.4758
  60   2.0000      -0.416242       -11.3265
  61   2.0000      -0.411616       -11.2006
  62   2.0000      -0.410590       -11.1727
  63   2.0000      -0.346052        -9.4166
  64   2.0000      -0.330247        -8.9865
  65   2.0000      -0.322191        -8.7673
  66   2.0000      -0.294245        -8.0068
  67   0.0000       0.029489         0.8024
  68   0.0000       0.055827         1.5191
  69   0.0000       0.108612         2.9555
  70   0.0000       0.118088         3.2133
  71   0.0000       0.129292         3.5182

MULLIKEN ATOMIC CHARGES
-----------------------
   0 S :    0.100569
   1 C :   -0.126916
   2 C :   -0.087912
   3 C :    0.063314
   4 C :   -0.172752
   5 H :    0.002693
   6 C :    0.081538
   7 H :    0.007848
   8 H :    0.026673
   9 C :   -0.063747
  10 H :    0.033482
  11 H :    0.041967
  12 C :   -0.092292
  13 H :    0.039565
  14 H :    0.024989
  15 H :    0.047018
  16 S :    0.075383
  17 C :   -0.104644
  18 C :   -0.036602
  19 C :   -0.071085
  20 C :   -0.121711
  21 H :    0.051949
  22 C :    0.058415
  23 H :    0.032042
  24 H :    0.032588
  25 C :   -0.099314
  26 H :    0.026405
  27 H :    0.033597
  28 C :   -0.010849
  29 H :    0.019832
  30 H :    0.018244
  31 H :    0.040629
  32 H :    0.056277
  33 H :    0.072809
Sum of atomic charges:    0.0000000

LOEWDIN ATOMIC CHARGES
----------------------
   0 S :    0.364807
   1 C :   -0.180874
   2 C :   -0.061555
   3 C :   -0.049053
   4 C :   -0.177351
   5 H :    0.026394
   6 C :   -0.039874
   7 H :    0.026605
   8 H :    0.036662
   9 C :   -0.037175
  10 H :    0.025515
  11 H :    0.033520
  12 C :   -0.076483
  13 H :    0.029159
  14 H :    0.016082
  15 H :    0.033200
  16 S :    0.381954
  17 C :   -0.169508
  18 C :   -0.082687
  19 C :   -0.052954
  20 C :   -0.202311
  21 H :    0.045743
  22 C :   -0.040281
  23 H :    0.034250
  24 H :    0.029903
  25 C :   -0.040123
  26 H :    0.023261
  27 H :    0.024323
  28 C :   -0.058123
  29 H :    0.024723
  30 H :    0.014451
  31 H :    0.032105
  32 H :    0.035819
  33 H :    0.029876

  Mayer bond orders larger than 0.100000
B(  0-S ,  1-C ) :   1.1087 B(  0-S ,  4-C ) :   1.1264 B(  1-C ,  2-C ) :   1.6587
B(  1-C , 32-H ) :   0.9644 B(  2-C ,  3-C ) :   1.1961 B(  2-C ,  6-C ) :   1.0364
B(  3-C ,  4-C ) :   1.6039 B(  3-C ,  5-H ) :   0.9959 B(  4-C , 20-C ) :   1.0412
B(  6-C ,  7-H ) :   0.9281 B(  6-C ,  8-H ) :   0.9381 B(  6-C ,  9-C ) :   1.0664
B(  9-C , 10-H ) :   0.9523 B(  9-C , 11-H ) :   0.9612 B(  9-C , 12-C ) :   1.0659
B( 12-C , 13-H ) :   0.9770 B( 12-C , 14-H ) :   0.9755 B( 12-C , 15-H ) :   0.9767
B( 16-S , 17-C ) :   1.1753 B( 16-S , 20-C ) :   1.1226 B( 17-C , 18-C ) :   1.5728
B( 17-C , 20-C ) :   0.1001 B( 17-C , 33-H ) :   0.9675 B( 18-C , 19-C ) :   1.2387
B( 18-C , 21-H ) :   0.9832 B( 19-C , 20-C ) :   1.5806 B( 19-C , 22-C ) :   1.0634
B( 22-C , 23-H ) :   0.9268 B( 22-C , 24-H ) :   0.9159 B( 22-C , 25-C ) :   1.0766
B( 25-C , 26-H ) :   0.9447 B( 25-C , 27-H ) :   0.9603 B( 25-C , 28-C ) :   1.0948
B( 28-C , 29-H ) :   0.9708 B( 28-C , 30-H ) :   0.9729 B( 28-C , 31-H ) :   0.9742

Dispersion correction           -0.013729242
FINAL SINGLE POINT ENERGY     -1339.862539350511

DIPOLE MOMENT
-------------
                                X             Y             Z
Electronic contribution:     27.55649       0.07550      15.20861
Nuclear contribution   :    -28.40986      -0.29803     -15.47319
                        -----------------------------------------
Total Dipole Moment    :     -0.85337      -0.22254      -0.26459
                        -----------------------------------------
Magnitude (a.u.)       :      0.92075
Magnitude (Debye)      :      2.34036

Rotational constants in cm-1:     0.016612     0.008647     0.006329
Rotational constants in MHz :   498.025239   259.216612   189.739524

                             ****ORCA TERMINATED NORMALLY****
TOTAL RUN TIME: 0 days 0 hours 0 minutes 33 seconds 468 msec
