                         Program Version 4.2.1 -  RELEASE  -
|  1> ! wB97X-D3 SP def2-SVP
|  2> %pal
|  3> nprocs 16
|  4> end
|  5>
|  6> * xyz 0 1
|  7> S 	 -5.67265 	 22.7332 	 48.7338
|  8> C 	 -4.23569 	 23.6515 	 48.3654
|  9> C 	 -3.83351 	 24.4284 	 49.4713
| 10> C 	 -4.62246 	 24.1884 	 50.6123
| 11> C 	 -5.77337 	 23.4369 	 50.3459
| 12> H 	 -4.43014 	 24.447 	 51.6131
| 13> C 	 -2.43968 	 25.1406 	 49.5192
| 14> H 	 -2.59311 	 25.9608 	 50.228
| 15> H 	 -2.20292 	 25.5839 	 48.5551
| 16> C 	 -1.30951 	 24.2134 	 49.9561
| 17> H 	 -1.49454 	 23.734 	 50.8929
| 18> H 	 -1.16928 	 23.456 	 49.2527
| 19> C 	 -0.0121644 	 24.9965 	 50.207
| 20> H 	 0.90415 	 24.3167 	 50.3836
| 21> H 	 -0.00123612 	 25.6359 	 49.3188
| 22> H 	 -0.0188664 	 25.6603 	 51.1087
| 23> S 	 -7.27193 	 21.3023 	 51.3585
| 24> C 	 -8.40027 	 21.5186 	 52.6607
| 25> C 	 -8.36275 	 22.8398 	 53.0134
| 26> C 	 -7.49031 	 23.6921 	 52.2841
| 27> C 	 -6.73905 	 22.974 	 51.3305
| 28> H 	 -8.9575 	 23.1127 	 53.8382
| 29> C 	 -7.50223 	 25.1979 	 52.5837
| 30> H 	 -8.20637 	 25.725 	 52.0595
| 31> H 	 -6.53066 	 25.6877 	 52.2561
| 32> C 	 -7.59993 	 25.5864 	 54.0979
| 33> H 	 -8.46935 	 25.1668 	 54.5239
| 34> H 	 -7.8371 	 26.5918 	 54.2935
| 35> C 	 -6.41722 	 25.1841 	 54.9092
| 36> H 	 -6.50288 	 25.178 	 56.0036
| 37> H 	 -5.60227 	 25.7944 	 54.6293
| 38> H 	 -5.99941 	 24.1787 	 54.6599
| 39> H 	 -3.57128 	 23.5435 	 47.5064
| 40> H 	 -9.12835 	 20.7666 	 52.9721
| 41> *
| 42>
| 43>                          ****END OF INPUT****

CARTESIAN COORDINATES (ANGSTROEM)
---------------------------------
  S     -5.672650   22.733200   48.733800
  C     -4.235690   23.651500   48.365400
  C     -3.833510   24.428400   49.471300
  C     -4.622460   24.188400   50.612300
  C     -5.773370   23.436900   50.345900
  H     -4.430140   24.447000   51.613100
  C     -2.439680   25.140600   49.519200
  H     -2.593110   25.960800   50.228000
  H     -2.202920   25.583900   48.555100
  C     -1.309510   24.213400   49.956100
  H     -1.494540   23.734000   50.892900
  H     -1.169280   23.456000   49.252700
  C     -0.012164   24.996500   50.207000
  H      0.904150   24.316700   50.383600
  H     -0.001236   25.635900   49.318800
  H     -0.018866   25.660300   51.108700
  S     -7.271930   21.302300   51.358500
  C     -8.400270   21.518600   52.660700
  C     -8.362750   22.839800   53.013400
  C     -7.490310   23.692100   52.284100
  C     -6.739050   22.974000   51.330500
  H     -8.957500   23.112700   53.838200
  C     -7.502230   25.197900   52.583700
  H     -8.206370   25.725000   52.059500
  H     -6.530660   25.687700   52.256100
  C     -7.599930   25.586400   54.097900
  H     -8.469350   25.166800   54.523900
  H     -7.837100   26.591800   54.293500
  C     -6.417220   25.184100   54.909200
  H     -6.502880   25.178000   56.003600
  H     -5.602270   25.794400   54.629300
  H     -5.999410   24.178700   54.659900
  H     -3.571280   23.543500   47.506400
  H     -9.128350   20.766600   52.972100

 Total Charge           Charge          ....    0
 Multiplicity           Mult            ....    1
 Number of Electrons    NEL             ....  134
 Basis Dimension        Dim             ....  322

ORBITAL ENERGIES
----------------

  NO   OCC          E(Eh)            E(eV)
   0   2.0000     -88.971070     -2421.0259
   1   2.0000     -88.963742     -2420.8265
   2   2.0000     -10.332188      -281.1531
   3   2.0000     -10.331999      -281.1480
   4   2.0000     -10.317625      -280.7569
   5   2.0000     -10.317533      -280.7543
   6   2.0000     -10.308249      -280.5017
   7   2.0000     -10.304736      -280.4061
   8   2.0000     -10.297016      -280.1960
   9   2.0000     -10.294262      -280.1211
  10   2.0000     -10.293788      -280.1082
  11   2.0000     -10.287930      -279.9488
  12   2.0000     -10.287312      -279.9320
  13   2.0000     -10.279384      -279.7163
  14   2.0000     -10.278258      -279.6856
  15   2.0000     -10.271578      -279.5039
  16   2.0000      -8.085244      -220.0107
  17   2.0000      -8.078735      -219.8336
  18   2.0000      -6.043716      -164.4579
  19   2.0000      -6.039786      -164.3509
  20   2.0000      -6.037203      -164.2806
  21   2.0000      -6.036112      -164.2510
  22   2.0000      -6.033035      -164.1672
  23   2.0000      -6.029674      -164.0758
  24   2.0000      -1.006514       -27.3886
  25   2.0000      -0.984802       -26.7978
  26   2.0000      -0.912919       -24.8418
  27   2.0000      -0.910490       -24.7757
  28   2.0000      -0.870821       -23.6962
  29   2.0000      -0.853048       -23.2126
  30   2.0000      -0.845221       -22.9996
  31   2.0000      -0.814358       -22.1598
  32   2.0000      -0.783035       -21.3075
  33   2.0000      -0.769281       -20.9332
  34   2.0000      -0.712038       -19.3755
  35   2.0000      -0.701509       -19.0890
  36   2.0000      -0.700988       -19.0749
  37   2.0000      -0.658047       -17.9064
  38   2.0000      -0.642187       -17.4748
  39   2.0000      -0.623187       -16.9578
  40   2.0000      -0.603682       -16.4270
  41   2.0000      -0.567813       -15.4510
  42   2.0000      -0.566862       -15.4251
  43   2.0000      -0.560064       -15.2401
  44   2.0000      -0.535038       -14.5591
  45   2.0000      -0.529987       -14.4217
  46   2.0000      -0.517525       -14.0826
  47   2.0000      -0.513613       -13.9761
  48   2.0000      -0.503038       -13.6884
  49   2.0000      -0.498873       -13.5750
  50   2.0000      -0.489964       -13.3326
  51   2.0000      -0.484842       -13.1932
  52   2.0000      -0.468017       -12.7354
  53   2.0000      -0.466078       -12.6826
  54   2.0000      -0.456696       -12.4273
  55   2.0000      -0.455455       -12.3936
  56   2.0000      -0.448564       -12.2060
  57   2.0000      -0.439615       -11.9625
  58   2.0000      -0.434040       -11.8108
  59   2.0000      -0.425359       -11.5746
  60   2.0000      -0.418003       -11.3745
  61   2.0000      -0.411139       -11.1877
  62   2.0000      -0.407286       -11.0828
  63   2.0000      -0.350976        -9.5505
  64   2.0000      -0.333373        -9.0715
  65   2.0000      -0.330603        -8.9962
  66   2.0000      -0.288220        -7.8429
  67   0.0000       0.019616         0.5338
  68   0.0000       0.074950         2.0395
  69   0.0000       0.111397         3.0313
  70   0.0000       0.123682         3.3655
  71   0.0000       0.134553         3.6614

MULLIKEN ATOMIC CHARGES
-----------------------
   0 S :    0.120053
   1 C :   -0.120001
   2 C :   -0.082831
   3 C :    0.033372
   4 C :   -0.151812
   5 H :    0.003658
   6 C :    0.037229
   7 H :    0.025474
   8 H :    0.026260
   9 C :   -0.013373
  10 H :    0.019136
  11 H :    0.014910
  12 C :   -0.090084
  13 H :    0.052853
  14 H :    0.027850
  15 H :    0.038947
  16 S :    0.094432
  17 C :   -0.100914
  18 C :   -0.027330
  19 C :   -0.026588
  20 C :   -0.151824
  21 H :    0.004131
  22 C :    0.095953
  23 H :    0.021742
  24 H :    0.020254
  25 C :   -0.034664
  26 H :    0.001564
  27 H :    0.008446
  28 C :   -0.053583
  29 H :    0.038456
  30 H :    0.009158
  31 H :    0.031857
  32 H :    0.055387
  33 H :    0.071882
Sum of atomic charges:    0.0000000

LOEWDIN ATOMIC CHARGES
----------------------
   0 S :    0.414146
   1 C :   -0.204989
   2 C :   -0.061656
   3 C :   -0.051940
   4 C :   -0.190244
   5 H :    0.024634
   6 C :   -0.026349
   7 H :    0.029628
   8 H :    0.027628
   9 C :   -0.035989
  10 H :    0.021435
  11 H :    0.016924
  12 C :   -0.074041
  13 H :    0.036640
  14 H :    0.022340
  15 H :    0.026686
  16 S :    0.407441
  17 C :   -0.190743
  18 C :   -0.070264
  19 C :   -0.056667
  20 C :   -0.198905
  21 H :    0.022963
  22 C :   -0.017731
  23 H :    0.021707
  24 H :    0.034948
  25 C :   -0.039730
  26 H :    0.013569
  27 H :    0.021918
  28 C :   -0.069915
  29 H :    0.029170
  30 H :    0.016772
  31 H :    0.029963
  32 H :    0.032147
  33 H :    0.038502

  Mayer bond orders larger than 0.100000
B(  0-S ,  1-C ) :   1.1546 B(  0-S ,  4-C ) :   1.1529 B(  1-C ,  2-C ) :   1.5708
B(  1-C ,  4-C ) :   0.1047 B(  1-C , 32-H ) :   0.9666 B(  2-C ,  3-C ) :   1.2738
B(  2-C ,  6-C ) :   1.0313 B(  3-C ,  4-C ) :   1.5416 B(  3-C ,  5-H ) :   0.9951
B(  4-C , 20-C ) :   1.0767 B(  6-C ,  7-H ) :   0.9442 B(  6-C ,  8-H ) :   0.9385
B(  6-C ,  9-C ) :   1.0681 B(  9-C , 10-H ) :   0.9548 B(  9-C , 11-H ) :   0.9541
B(  9-C , 12-C ) :   1.0674 B( 12-C , 13-H ) :   0.9730 B( 12-C , 14-H ) :   0.9756
B( 12-C , 15-H ) :   0.9779 B( 16-S , 17-C ) :   1.1578 B( 16-S , 20-C ) :   1.1531
B( 17-C , 18-C ) :   1.5873 B( 17-C , 33-H ) :   0.9672 B( 18-C , 19-C ) :   1.2643
B( 18-C , 21-H ) :   0.9978 B( 19-C , 20-C ) :   1.5495 B( 19-C , 22-C ) :   1.0270
B( 22-C , 23-H ) :   0.9332 B( 22-C , 24-H ) :   0.9416 B( 22-C , 25-C ) :   1.0703
B( 25-C , 26-H ) :   0.9489 B( 25-C , 27-H ) :   0.9476 B( 25-C , 28-C ) :   1.0748
B( 28-C , 29-H ) :   0.9735 B( 28-C , 30-H ) :   0.9716 B( 28-C , 31-H ) :   0.9735

Dispersion correction           -0.013993094
FINAL SINGLE POINT ENERGY     -1339.865097763723

DIPOLE MOMENT
-------------
                                X             Y             Z
Electronic contribution:    -17.18840     -18.38035     -13.44958
Nuclear contribution   :     17.38209      18.72526      13.85160
                        -----------------------------------------
Total Dipole Moment    :      0.19369       0.34491       0.40203
                        -----------------------------------------
Magnitude (a.u.)       :      0.56401
Magnitude (Debye)      :      1.43359

Rotational constants in cm-1:     0.018710     0.008162     0.006369
Rotational constants in MHz :   560.919527   244.685190   190.942812

                             ****ORCA TERMINATED NORMALLY****
TOTAL RUN TIME: 0 days 0 hours 0 minutes 34 seconds 364 msec
