                         Program Version 4.2.1 -  RELEASE  -
|  1> ! wB97X-D3 SP def2-SVP
|  2> %pal
|  3> nprocs 16
|  4> end
|  5>
|  6> * xyz 0 1
|  7> S 	 -102.179 	 56.4966 	 121.043
|  8> C 	 -100.858 	 57.7105 	 120.948
|  9> C 	 -101.441 	 58.9153 	 121.075
| 10> C 	 -102.9 	 58.8626 	 120.908
| 11> C 	 -103.434 	 57.6077 	 120.862
| 12> H 	 -103.48 	 59.7322 	 120.848
| 13> C 	 -100.648 	 60.175 	 121.086
| 14> H 	 -99.6964 	 60.0868 	 121.65
| 15> H 	 -101.157 	 60.788 	 121.891
| 16> C 	 -100.387 	 60.8134 	 119.693
| 17> H 	 -101.34 	 61.0896 	 119.223
| 18> H 	 -99.811 	 61.7039 	 119.95
| 19> C 	 -99.6437 	 59.9128 	 118.687
| 20> H 	 -99.4553 	 60.6081 	 117.824
| 21> H 	 -98.7623 	 59.4188 	 119.173
| 22> H 	 -100.184 	 59.0612 	 118.258
| 23> S 	 -105.558 	 57.0355 	 119.194
| 24> C 	 -107.157 	 56.8599 	 119.786
| 25> C 	 -107.196 	 57.0837 	 121.102
| 26> C 	 -105.953 	 57.4094 	 121.681
| 27> C 	 -104.861 	 57.2856 	 120.803
| 28> H 	 -108.117 	 57.0912 	 121.708
| 29> C 	 -105.713 	 57.768 	 123.111
| 30> H 	 -104.666 	 57.5526 	 123.388
| 31> H 	 -106.436 	 57.249 	 123.779
| 32> C 	 -106.02 	 59.2238 	 123.598
| 33> H 	 -106.978 	 59.6337 	 123.41
| 34> H 	 -105.367 	 59.8573 	 123.103
| 35> C 	 -105.639 	 59.2976 	 125.07
| 36> H 	 -106.12 	 58.5046 	 125.626
| 37> H 	 -106.047 	 60.1803 	 125.569
| 38> H 	 -104.587 	 59.2741 	 125.316
| 39> H 	 -99.7878 	 57.4873 	 121.073
| 40> H 	 -107.981 	 56.5855 	 119.127
| 41> *
| 42>
| 43>                          ****END OF INPUT****

CARTESIAN COORDINATES (ANGSTROEM)
---------------------------------
  S    -102.179000   56.496600  121.043000
  C    -100.858000   57.710500  120.948000
  C    -101.441000   58.915300  121.075000
  C    -102.900000   58.862600  120.908000
  C    -103.434000   57.607700  120.862000
  H    -103.480000   59.732200  120.848000
  C    -100.648000   60.175000  121.086000
  H    -99.696400   60.086800  121.650000
  H    -101.157000   60.788000  121.891000
  C    -100.387000   60.813400  119.693000
  H    -101.340000   61.089600  119.223000
  H    -99.811000   61.703900  119.950000
  C    -99.643700   59.912800  118.687000
  H    -99.455300   60.608100  117.824000
  H    -98.762300   59.418800  119.173000
  H    -100.184000   59.061200  118.258000
  S    -105.558000   57.035500  119.194000
  C    -107.157000   56.859900  119.786000
  C    -107.196000   57.083700  121.102000
  C    -105.953000   57.409400  121.681000
  C    -104.861000   57.285600  120.803000
  H    -108.117000   57.091200  121.708000
  C    -105.713000   57.768000  123.111000
  H    -104.666000   57.552600  123.388000
  H    -106.436000   57.249000  123.779000
  C    -106.020000   59.223800  123.598000
  H    -106.978000   59.633700  123.410000
  H    -105.367000   59.857300  123.103000
  C    -105.639000   59.297600  125.070000
  H    -106.120000   58.504600  125.626000
  H    -106.047000   60.180300  125.569000
  H    -104.587000   59.274100  125.316000
  H    -99.787800   57.487300  121.073000
  H    -107.981000   56.585500  119.127000

 Total Charge           Charge          ....    0
 Multiplicity           Mult            ....    1
 Number of Electrons    NEL             ....  134
 Basis Dimension        Dim             ....  322

ORBITAL ENERGIES
----------------

  NO   OCC          E(Eh)            E(eV)
   0   2.0000     -88.959594     -2420.7136
   1   2.0000     -88.958653     -2420.6880
   2   2.0000     -10.328222      -281.0452
   3   2.0000     -10.327427      -281.0236
   4   2.0000     -10.315502      -280.6991
   5   2.0000     -10.314662      -280.6762
   6   2.0000     -10.303481      -280.3720
   7   2.0000     -10.298225      -280.2289
   8   2.0000     -10.295864      -280.1647
   9   2.0000     -10.293585      -280.1027
  10   2.0000     -10.291968      -280.0587
  11   2.0000     -10.290469      -280.0179
  12   2.0000     -10.290340      -280.0144
  13   2.0000     -10.285766      -279.8899
  14   2.0000     -10.277209      -279.6571
  15   2.0000     -10.272930      -279.5406
  16   2.0000      -8.075134      -219.7356
  17   2.0000      -8.074314      -219.7132
  18   2.0000      -6.033566      -164.1817
  19   2.0000      -6.032948      -164.1649
  20   2.0000      -6.029422      -164.0689
  21   2.0000      -6.028542      -164.0450
  22   2.0000      -6.026021      -163.9764
  23   2.0000      -6.024984      -163.9482
  24   2.0000      -1.011979       -27.5374
  25   2.0000      -0.992144       -26.9976
  26   2.0000      -0.913630       -24.8611
  27   2.0000      -0.910291       -24.7703
  28   2.0000      -0.871738       -23.7212
  29   2.0000      -0.852335       -23.1932
  30   2.0000      -0.841383       -22.8952
  31   2.0000      -0.817559       -22.2469
  32   2.0000      -0.782145       -21.2833
  33   2.0000      -0.770283       -20.9605
  34   2.0000      -0.711660       -19.3652
  35   2.0000      -0.702875       -19.1262
  36   2.0000      -0.694023       -18.8853
  37   2.0000      -0.659450       -17.9445
  38   2.0000      -0.642155       -17.4739
  39   2.0000      -0.621373       -16.9084
  40   2.0000      -0.603743       -16.4287
  41   2.0000      -0.574295       -15.6274
  42   2.0000      -0.568382       -15.4664
  43   2.0000      -0.549853       -14.9623
  44   2.0000      -0.542514       -14.7626
  45   2.0000      -0.524713       -14.2782
  46   2.0000      -0.520018       -14.1504
  47   2.0000      -0.513568       -13.9749
  48   2.0000      -0.504466       -13.7272
  49   2.0000      -0.502439       -13.6721
  50   2.0000      -0.486892       -13.2490
  51   2.0000      -0.478628       -13.0241
  52   2.0000      -0.470287       -12.7972
  53   2.0000      -0.462420       -12.5831
  54   2.0000      -0.459749       -12.5104
  55   2.0000      -0.450155       -12.2493
  56   2.0000      -0.446994       -12.1633
  57   2.0000      -0.440266       -11.9802
  58   2.0000      -0.434443       -11.8218
  59   2.0000      -0.419586       -11.4175
  60   2.0000      -0.414691       -11.2843
  61   2.0000      -0.413158       -11.2426
  62   2.0000      -0.401250       -10.9186
  63   2.0000      -0.334797        -9.1103
  64   2.0000      -0.329229        -8.9588
  65   2.0000      -0.320413        -8.7189
  66   2.0000      -0.315978        -8.5982
  67   0.0000       0.043678         1.1885
  68   0.0000       0.058642         1.5957
  69   0.0000       0.111522         3.0347
  70   0.0000       0.126975         3.4552
  71   0.0000       0.130032         3.5383

MULLIKEN ATOMIC CHARGES
-----------------------
   0 S :    0.094630
   1 C :   -0.128141
   2 C :   -0.087694
   3 C :    0.054166
   4 C :   -0.137732
   5 H :   -0.010966
   6 C :   -0.000553
   7 H :    0.019816
   8 H :    0.031544
   9 C :   -0.034299
  10 H :    0.034512
  11 H :    0.038826
  12 C :   -0.083300
  13 H :    0.049480
  14 H :    0.032393
  15 H :    0.050339
  16 S :    0.094880
  17 C :   -0.082562
  18 C :   -0.018773
  19 C :    0.002085
  20 C :   -0.168951
  21 H :    0.021848
  22 C :    0.005043
  23 H :    0.041125
  24 H :    0.021241
  25 C :   -0.007151
  26 H :    0.019515
  27 H :   -0.000135
  28 C :   -0.054154
  29 H :    0.013963
  30 H :    0.024365
  31 H :    0.035949
  32 H :    0.063081
  33 H :    0.065609
Sum of atomic charges:    0.0000000

LOEWDIN ATOMIC CHARGES
----------------------
   0 S :    0.406321
   1 C :   -0.180824
   2 C :   -0.069812
   3 C :   -0.055870
   4 C :   -0.221035
   5 H :    0.019203
   6 C :   -0.053055
   7 H :    0.030416
   8 H :    0.038243
   9 C :   -0.035427
  10 H :    0.026622
  11 H :    0.027991
  12 C :   -0.074621
  13 H :    0.037467
  14 H :    0.026577
  15 H :    0.029013
  16 S :    0.413274
  17 C :   -0.186067
  18 C :   -0.083504
  19 C :   -0.052706
  20 C :   -0.196772
  21 H :    0.037186
  22 C :   -0.032276
  23 H :    0.037433
  24 H :    0.031672
  25 C :   -0.029940
  26 H :    0.019467
  27 H :    0.011871
  28 C :   -0.065274
  29 H :    0.019883
  30 H :    0.026548
  31 H :    0.025632
  32 H :    0.036997
  33 H :    0.035366

  Mayer bond orders larger than 0.100000
B(  0-S ,  1-C ) :   1.1184 B(  0-S ,  4-C ) :   1.1581 B(  1-C ,  2-C ) :   1.6252
B(  1-C , 32-H ) :   0.9694 B(  2-C ,  3-C ) :   1.2086 B(  2-C ,  6-C ) :   1.0417
B(  3-C ,  4-C ) :   1.5832 B(  3-C ,  5-H ) :   1.0114 B(  4-C , 20-C ) :   0.9946
B(  6-C ,  7-H ) :   0.9404 B(  6-C ,  8-H ) :   0.9355 B(  6-C ,  9-C ) :   1.0557
B(  9-C , 10-H ) :   0.9561 B(  9-C , 11-H ) :   0.9561 B(  9-C , 12-C ) :   1.0732
B( 12-C , 13-H ) :   0.9719 B( 12-C , 14-H ) :   0.9740 B( 12-C , 15-H ) :   0.9716
B( 16-S , 17-C ) :   1.1789 B( 16-S , 20-C ) :   1.1463 B( 17-C , 18-C ) :   1.5714
B( 17-C , 20-C ) :   0.1018 B( 17-C , 33-H ) :   0.9667 B( 18-C , 19-C ) :   1.2706
B( 18-C , 21-H ) :   0.9896 B( 19-C , 20-C ) :   1.5738 B( 19-C , 22-C ) :   1.0584
B( 22-C , 23-H ) :   0.9401 B( 22-C , 24-H ) :   0.9385 B( 22-C , 25-C ) :   1.0528
B( 25-C , 26-H ) :   0.9568 B( 25-C , 27-H ) :   0.9455 B( 25-C , 28-C ) :   1.0849
B( 28-C , 29-H ) :   0.9723 B( 28-C , 30-H ) :   0.9715 B( 28-C , 31-H ) :   0.9762

Dispersion correction           -0.014583561
FINAL SINGLE POINT ENERGY     -1339.866992970268

DIPOLE MOMENT
-------------
                                X             Y             Z
Electronic contribution:     -6.58763     -18.22354     -11.22676
Nuclear contribution   :      6.54532      18.86483      11.53236
                        -----------------------------------------
Total Dipole Moment    :     -0.04231       0.64129       0.30560
                        -----------------------------------------
Magnitude (a.u.)       :      0.71165
Magnitude (Debye)      :      1.80886

Rotational constants in cm-1:     0.018515     0.008603     0.007076
Rotational constants in MHz :   555.078625   257.905659   212.144820

                             ****ORCA TERMINATED NORMALLY****
TOTAL RUN TIME: 0 days 0 hours 0 minutes 35 seconds 269 msec
