                         Program Version 4.2.1 -  RELEASE  -
|  1> ! wB97X-D3 SP def2-SVP
|  2> %pal
|  3> nprocs 16
|  4> end
|  5>
|  6> * xyz 0 1
|  7> S 	 12.6006 	 38.5968 	 60.3605
|  8> C 	 14.2155 	 39.1612 	 59.8758
|  9> C 	 15.2005 	 38.3493 	 60.4529
| 10> C 	 14.6309 	 37.4051 	 61.3509
| 11> C 	 13.2095 	 37.4243 	 61.4423
| 12> H 	 15.2635 	 36.6125 	 61.8025
| 13> C 	 16.7023 	 38.552 	 60.2465
| 14> H 	 17.2257 	 38.2313 	 61.1541
| 15> H 	 16.7534 	 39.6698 	 60.1402
| 16> C 	 17.356 	 37.9799 	 58.9337
| 17> H 	 16.927 	 38.1907 	 57.9626
| 18> H 	 18.3446 	 38.3985 	 58.9594
| 19> C 	 17.6197 	 36.4866 	 59.0852
| 20> H 	 16.6406 	 35.9896 	 59.0993
| 21> H 	 18.2294 	 36.215 	 58.2061
| 22> H 	 18.0414 	 36.1655 	 60.0326
| 23> S 	 10.8469 	 36.0447 	 61.6472
| 24> C 	 10.374 	 35.446 	 63.3034
| 25> C 	 11.4832 	 35.2663 	 64.1241
| 26> C 	 12.635 	 35.9968 	 63.5683
| 27> C 	 12.3455 	 36.6422 	 62.3426
| 28> H 	 11.2363 	 34.8358 	 65.0896
| 29> C 	 13.8136 	 36.1396 	 64.4909
| 30> H 	 14.2374 	 37.1189 	 64.1146
| 31> H 	 14.6464 	 35.4477 	 64.3298
| 32> C 	 13.4798 	 36.4148 	 65.9774
| 33> H 	 14.4516 	 36.5236 	 66.486
| 34> H 	 12.9959 	 35.558 	 66.4693
| 35> C 	 12.8328 	 37.7895 	 66.1488
| 36> H 	 12.625 	 37.9357 	 67.2119
| 37> H 	 11.862 	 37.731 	 65.7679
| 38> H 	 13.4456 	 38.5795 	 65.7066
| 39> H 	 14.4416 	 39.7873 	 59.0001
| 40> H 	 9.32367 	 35.0738 	 63.4676
| 41> *
| 42>
| 43>                          ****END OF INPUT****

CARTESIAN COORDINATES (ANGSTROEM)
---------------------------------
  S     12.600600   38.596800   60.360500
  C     14.215500   39.161200   59.875800
  C     15.200500   38.349300   60.452900
  C     14.630900   37.405100   61.350900
  C     13.209500   37.424300   61.442300
  H     15.263500   36.612500   61.802500
  C     16.702300   38.552000   60.246500
  H     17.225700   38.231300   61.154100
  H     16.753400   39.669800   60.140200
  C     17.356000   37.979900   58.933700
  H     16.927000   38.190700   57.962600
  H     18.344600   38.398500   58.959400
  C     17.619700   36.486600   59.085200
  H     16.640600   35.989600   59.099300
  H     18.229400   36.215000   58.206100
  H     18.041400   36.165500   60.032600
  S     10.846900   36.044700   61.647200
  C     10.374000   35.446000   63.303400
  C     11.483200   35.266300   64.124100
  C     12.635000   35.996800   63.568300
  C     12.345500   36.642200   62.342600
  H     11.236300   34.835800   65.089600
  C     13.813600   36.139600   64.490900
  H     14.237400   37.118900   64.114600
  H     14.646400   35.447700   64.329800
  C     13.479800   36.414800   65.977400
  H     14.451600   36.523600   66.486000
  H     12.995900   35.558000   66.469300
  C     12.832800   37.789500   66.148800
  H     12.625000   37.935700   67.211900
  H     11.862000   37.731000   65.767900
  H     13.445600   38.579500   65.706600
  H     14.441600   39.787300   59.000100
  H      9.323670   35.073800   63.467600

 Total Charge           Charge          ....    0
 Multiplicity           Mult            ....    1
 Number of Electrons    NEL             ....  134
 Basis Dimension        Dim             ....  322

ORBITAL ENERGIES
----------------

  NO   OCC          E(Eh)            E(eV)
   0   2.0000     -88.969878     -2420.9934
   1   2.0000     -88.963135     -2420.8100
   2   2.0000     -10.334913      -281.2273
   3   2.0000     -10.334209      -281.2081
   4   2.0000     -10.327896      -281.0363
   5   2.0000     -10.317253      -280.7467
   6   2.0000     -10.314150      -280.6623
   7   2.0000     -10.303707      -280.3781
   8   2.0000     -10.302897      -280.3561
   9   2.0000     -10.302013      -280.3320
  10   2.0000     -10.298549      -280.2378
  11   2.0000     -10.293697      -280.1057
  12   2.0000     -10.288451      -279.9630
  13   2.0000     -10.288266      -279.9580
  14   2.0000     -10.276565      -279.6396
  15   2.0000     -10.270357      -279.4706
  16   2.0000      -8.084424      -219.9884
  17   2.0000      -8.077161      -219.7907
  18   2.0000      -6.042888      -164.4353
  19   2.0000      -6.038785      -164.3237
  20   2.0000      -6.035706      -164.2399
  21   2.0000      -6.035400      -164.2316
  22   2.0000      -6.032192      -164.1443
  23   2.0000      -6.027492      -164.0164
  24   2.0000      -1.002047       -27.2671
  25   2.0000      -0.976428       -26.5700
  26   2.0000      -0.911687       -24.8083
  27   2.0000      -0.906962       -24.6797
  28   2.0000      -0.868185       -23.6245
  29   2.0000      -0.846734       -23.0408
  30   2.0000      -0.841670       -22.9030
  31   2.0000      -0.810546       -22.0561
  32   2.0000      -0.780365       -21.2348
  33   2.0000      -0.768363       -20.9082
  34   2.0000      -0.705863       -19.2075
  35   2.0000      -0.702606       -19.1189
  36   2.0000      -0.689433       -18.7604
  37   2.0000      -0.654735       -17.8163
  38   2.0000      -0.629501       -17.1296
  39   2.0000      -0.616085       -16.7645
  40   2.0000      -0.592499       -16.1227
  41   2.0000      -0.574586       -15.6353
  42   2.0000      -0.556002       -15.1296
  43   2.0000      -0.547496       -14.8981
  44   2.0000      -0.546245       -14.8641
  45   2.0000      -0.534765       -14.5517
  46   2.0000      -0.518420       -14.1069
  47   2.0000      -0.510844       -13.9008
  48   2.0000      -0.500388       -13.6162
  49   2.0000      -0.494236       -13.4488
  50   2.0000      -0.489305       -13.3147
  51   2.0000      -0.472475       -12.8567
  52   2.0000      -0.465118       -12.6565
  53   2.0000      -0.463840       -12.6217
  54   2.0000      -0.456045       -12.4096
  55   2.0000      -0.450919       -12.2701
  56   2.0000      -0.444065       -12.0836
  57   2.0000      -0.435161       -11.8413
  58   2.0000      -0.432681       -11.7739
  59   2.0000      -0.421379       -11.4663
  60   2.0000      -0.416987       -11.3468
  61   2.0000      -0.411415       -11.1952
  62   2.0000      -0.409293       -11.1374
  63   2.0000      -0.349414        -9.5080
  64   2.0000      -0.331313        -9.0155
  65   2.0000      -0.325870        -8.8674
  66   2.0000      -0.284776        -7.7491
  67   0.0000       0.014126         0.3844
  68   0.0000       0.073178         1.9913
  69   0.0000       0.090339         2.4582
  70   0.0000       0.115235         3.1357
  71   0.0000       0.131190         3.5699

MULLIKEN ATOMIC CHARGES
-----------------------
   0 S :    0.117816
   1 C :   -0.124561
   2 C :   -0.107184
   3 C :    0.000727
   4 C :   -0.146616
   5 H :    0.023475
   6 C :    0.018775
   7 H :    0.033653
   8 H :    0.041851
   9 C :   -0.042548
  10 H :    0.035826
  11 H :    0.024613
  12 C :   -0.065963
  13 H :    0.033954
  14 H :    0.044288
  15 H :    0.022830
  16 S :    0.073377
  17 C :   -0.128097
  18 C :   -0.019415
  19 C :   -0.054999
  20 C :   -0.094844
  21 H :    0.036768
  22 C :    0.019714
  23 H :    0.023346
  24 H :    0.047813
  25 C :   -0.097828
  26 H :    0.027120
  27 H :    0.036001
  28 C :   -0.014432
  29 H :    0.026671
  30 H :    0.021349
  31 H :    0.048011
  32 H :    0.060943
  33 H :    0.077567
Sum of atomic charges:    0.0000000

LOEWDIN ATOMIC CHARGES
----------------------
   0 S :    0.427541
   1 C :   -0.206161
   2 C :   -0.065773
   3 C :   -0.080115
   4 C :   -0.212483
   5 H :    0.033367
   6 C :   -0.031325
   7 H :    0.033324
   8 H :    0.040187
   9 C :   -0.036739
  10 H :    0.026338
  11 H :    0.022840
  12 C :   -0.069359
  13 H :    0.025908
  14 H :    0.030105
  15 H :    0.020508
  16 S :    0.357365
  17 C :   -0.160668
  18 C :   -0.067935
  19 C :   -0.050816
  20 C :   -0.191441
  21 H :    0.038336
  22 C :   -0.047205
  23 H :    0.037815
  24 H :    0.031775
  25 C :   -0.044130
  26 H :    0.027509
  27 H :    0.021142
  28 C :   -0.057512
  29 H :    0.028485
  30 H :    0.017811
  31 H :    0.032094
  32 H :    0.034088
  33 H :    0.035122

  Mayer bond orders larger than 0.100000
B(  0-S ,  1-C ) :   1.1436 B(  0-S ,  4-C ) :   1.1857 B(  1-C ,  2-C ) :   1.5781
B(  1-C ,  4-C ) :   0.1101 B(  1-C , 32-H ) :   0.9599 B(  2-C ,  3-C ) :   1.3064
B(  2-C ,  6-C ) :   1.0067 B(  3-C ,  4-C ) :   1.4948 B(  3-C ,  5-H ) :   0.9841
B(  4-C , 20-C ) :   1.0541 B(  6-C ,  7-H ) :   0.9474 B(  6-C ,  8-H ) :   0.9451
B(  6-C ,  9-C ) :   1.0658 B(  9-C , 10-H ) :   0.9596 B(  9-C , 11-H ) :   0.9547
B(  9-C , 12-C ) :   1.0734 B( 12-C , 13-H ) :   0.9776 B( 12-C , 14-H ) :   0.9743
B( 12-C , 15-H ) :   0.9752 B( 16-S , 17-C ) :   1.1223 B( 16-S , 20-C ) :   1.1289
B( 17-C , 18-C ) :   1.6569 B( 17-C , 33-H ) :   0.9612 B( 18-C , 19-C ) :   1.1734
B( 18-C , 21-H ) :   0.9852 B( 19-C , 20-C ) :   1.6134 B( 19-C , 22-C ) :   1.0362
B( 22-C , 23-H ) :   0.9357 B( 22-C , 24-H ) :   0.9331 B( 22-C , 25-C ) :   1.0746
B( 25-C , 26-H ) :   0.9515 B( 25-C , 27-H ) :   0.9505 B( 25-C , 28-C ) :   1.0805
B( 28-C , 29-H ) :   0.9701 B( 28-C , 30-H ) :   0.9729 B( 28-C , 31-H ) :   0.9710

Dispersion correction           -0.014288518
FINAL SINGLE POINT ENERGY     -1339.851462253814

DIPOLE MOMENT
-------------
                                X             Y             Z
Electronic contribution:    -22.24734       0.32275      -9.18758
Nuclear contribution   :     22.81023      -0.45445       9.48604
                        -----------------------------------------
Total Dipole Moment    :      0.56290      -0.13170       0.29846
                        -----------------------------------------
Magnitude (a.u.)       :      0.65060
Magnitude (Debye)      :      1.65368

Rotational constants in cm-1:     0.020101     0.007947     0.006782
Rotational constants in MHz :   602.607898   238.242252   203.315588

                             ****ORCA TERMINATED NORMALLY****
TOTAL RUN TIME: 0 days 0 hours 0 minutes 34 seconds 984 msec
