                         Program Version 4.2.1 -  RELEASE  -
|  1> ! wB97X-D3 SP def2-SVP
|  2> %pal
|  3> nprocs 16
|  4> end
|  5>
|  6> * xyz 0 1
|  7> S 	 -80.1881 	 44.7257 	 125.147
|  8> C 	 -81.4034 	 45.1368 	 123.987
|  9> C 	 -81.2023 	 44.3846 	 122.797
| 10> C 	 -80.383 	 43.2282 	 123.045
| 11> C 	 -79.7946 	 43.2375 	 124.294
| 12> H 	 -80.1588 	 42.4272 	 122.336
| 13> C 	 -81.8645 	 44.5781 	 121.439
| 14> H 	 -81.0466 	 44.5417 	 120.775
| 15> H 	 -82.5929 	 45.4661 	 121.27
| 16> C 	 -82.759 	 43.3984 	 121.029
| 17> H 	 -83.0719 	 43.5923 	 120.016
| 18> H 	 -82.197 	 42.4629 	 120.887
| 19> C 	 -84.043 	 43.1844 	 121.792
| 20> H 	 -84.6912 	 43.9977 	 121.655
| 21> H 	 -84.5451 	 42.2906 	 121.559
| 22> H 	 -83.7858 	 43.2116 	 122.84
| 23> S 	 -77.5325 	 43.017 	 125.604
| 24> C 	 -76.6814 	 41.5443 	 125.821
| 25> C 	 -77.2255 	 40.5169 	 125.061
| 26> C 	 -78.4642 	 40.9445 	 124.419
| 27> C 	 -78.7947 	 42.2891 	 124.778
| 28> H 	 -76.7758 	 39.5851 	 124.938
| 29> C 	 -79.1957 	 40.0944 	 123.43
| 30> H 	 -80.2465 	 40.4435 	 123.445
| 31> H 	 -79.272 	 39.0742 	 123.77
| 32> C 	 -78.7402 	 40.2137 	 121.908
| 33> H 	 -77.9265 	 39.5668 	 121.998
| 34> H 	 -78.3794 	 41.2437 	 121.678
| 35> C 	 -79.824 	 39.79 	 120.882
| 36> H 	 -80.7169 	 40.4674 	 120.754
| 37> H 	 -80.1209 	 38.7708 	 121.069
| 38> H 	 -79.388 	 39.6443 	 119.858
| 39> H 	 -82.0695 	 46.0701 	 124.013
| 40> H 	 -75.7199 	 41.5689 	 126.337
| 41> *
| 42>
| 43>                          ****END OF INPUT****

CARTESIAN COORDINATES (ANGSTROEM)
---------------------------------
  S    -80.188100   44.725700  125.147000
  C    -81.403400   45.136800  123.987000
  C    -81.202300   44.384600  122.797000
  C    -80.383000   43.228200  123.045000
  C    -79.794600   43.237500  124.294000
  H    -80.158800   42.427200  122.336000
  C    -81.864500   44.578100  121.439000
  H    -81.046600   44.541700  120.775000
  H    -82.592900   45.466100  121.270000
  C    -82.759000   43.398400  121.029000
  H    -83.071900   43.592300  120.016000
  H    -82.197000   42.462900  120.887000
  C    -84.043000   43.184400  121.792000
  H    -84.691200   43.997700  121.655000
  H    -84.545100   42.290600  121.559000
  H    -83.785800   43.211600  122.840000
  S    -77.532500   43.017000  125.604000
  C    -76.681400   41.544300  125.821000
  C    -77.225500   40.516900  125.061000
  C    -78.464200   40.944500  124.419000
  C    -78.794700   42.289100  124.778000
  H    -76.775800   39.585100  124.938000
  C    -79.195700   40.094400  123.430000
  H    -80.246500   40.443500  123.445000
  H    -79.272000   39.074200  123.770000
  C    -78.740200   40.213700  121.908000
  H    -77.926500   39.566800  121.998000
  H    -78.379400   41.243700  121.678000
  C    -79.824000   39.790000  120.882000
  H    -80.716900   40.467400  120.754000
  H    -80.120900   38.770800  121.069000
  H    -79.388000   39.644300  119.858000
  H    -82.069500   46.070100  124.013000
  H    -75.719900   41.568900  126.337000

 Total Charge           Charge          ....    0
 Multiplicity           Mult            ....    1
 Number of Electrons    NEL             ....  134
 Basis Dimension        Dim             ....  322

ORBITAL ENERGIES
----------------

  NO   OCC          E(Eh)            E(eV)
   0   2.0000     -88.967877     -2420.9390
   1   2.0000     -88.964282     -2420.8412
   2   2.0000     -10.331319      -281.1295
   3   2.0000     -10.324981      -280.9570
   4   2.0000     -10.322127      -280.8794
   5   2.0000     -10.314805      -280.6801
   6   2.0000     -10.308872      -280.5187
   7   2.0000     -10.308056      -280.4965
   8   2.0000     -10.299508      -280.2639
   9   2.0000     -10.295573      -280.1568
  10   2.0000     -10.295253      -280.1481
  11   2.0000     -10.294552      -280.1290
  12   2.0000     -10.292376      -280.0698
  13   2.0000     -10.292035      -280.0605
  14   2.0000     -10.281888      -279.7844
  15   2.0000     -10.263240      -279.2770
  16   2.0000      -8.082628      -219.9395
  17   2.0000      -8.081319      -219.9039
  18   2.0000      -6.041240      -164.3905
  19   2.0000      -6.039593      -164.3457
  20   2.0000      -6.037248      -164.2819
  21   2.0000      -6.035437      -164.2326
  22   2.0000      -6.033155      -164.1705
  23   2.0000      -6.032253      -164.1460
  24   2.0000      -1.013738       -27.5852
  25   2.0000      -0.986102       -26.8332
  26   2.0000      -0.915120       -24.9017
  27   2.0000      -0.906942       -24.6791
  28   2.0000      -0.871173       -23.7058
  29   2.0000      -0.853000       -23.2113
  30   2.0000      -0.847003       -23.0481
  31   2.0000      -0.814415       -22.1614
  32   2.0000      -0.784906       -21.3584
  33   2.0000      -0.771555       -20.9951
  34   2.0000      -0.710403       -19.3311
  35   2.0000      -0.698224       -18.9996
  36   2.0000      -0.688923       -18.7466
  37   2.0000      -0.668323       -18.1860
  38   2.0000      -0.632720       -17.2172
  39   2.0000      -0.623856       -16.9760
  40   2.0000      -0.597316       -16.2538
  41   2.0000      -0.570378       -15.5208
  42   2.0000      -0.563902       -15.3445
  43   2.0000      -0.560938       -15.2639
  44   2.0000      -0.539105       -14.6698
  45   2.0000      -0.520086       -14.1523
  46   2.0000      -0.519107       -14.1256
  47   2.0000      -0.507498       -13.8097
  48   2.0000      -0.505042       -13.7429
  49   2.0000      -0.497702       -13.5432
  50   2.0000      -0.494593       -13.4586
  51   2.0000      -0.486301       -13.2329
  52   2.0000      -0.477100       -12.9825
  53   2.0000      -0.470304       -12.7976
  54   2.0000      -0.457898       -12.4600
  55   2.0000      -0.455257       -12.3882
  56   2.0000      -0.445264       -12.1162
  57   2.0000      -0.437226       -11.8975
  58   2.0000      -0.433947       -11.8083
  59   2.0000      -0.431461       -11.7407
  60   2.0000      -0.422654       -11.5010
  61   2.0000      -0.411407       -11.1950
  62   2.0000      -0.407276       -11.0825
  63   2.0000      -0.359001        -9.7689
  64   2.0000      -0.330701        -8.9988
  65   2.0000      -0.322620        -8.7789
  66   2.0000      -0.281326        -7.6553
  67   0.0000       0.022472         0.6115
  68   0.0000       0.075614         2.0576
  69   0.0000       0.098958         2.6928
  70   0.0000       0.125449         3.4137
  71   0.0000       0.128016         3.4835

MULLIKEN ATOMIC CHARGES
-----------------------
   0 S :    0.112389
   1 C :   -0.133732
   2 C :   -0.094729
   3 C :    0.003744
   4 C :   -0.108871
   5 H :   -0.010734
   6 C :    0.074475
   7 H :    0.025423
   8 H :    0.044000
   9 C :   -0.117638
  10 H :    0.013514
  11 H :    0.018487
  12 C :    0.014165
  13 H :    0.007480
  14 H :    0.027655
  15 H :    0.026851
  16 S :    0.102203
  17 C :   -0.096199
  18 C :    0.000659
  19 C :   -0.072861
  20 C :   -0.111071
  21 H :   -0.002915
  22 C :    0.016627
  23 H :    0.022493
  24 H :    0.027712
  25 C :   -0.050557
  26 H :    0.016026
  27 H :    0.048447
  28 C :   -0.071302
  29 H :    0.057883
  30 H :    0.026794
  31 H :    0.037659
  32 H :    0.080794
  33 H :    0.065128
Sum of atomic charges:    0.0000000

LOEWDIN ATOMIC CHARGES
----------------------
   0 S :    0.405399
   1 C :   -0.223744
   2 C :   -0.059341
   3 C :   -0.066922
   4 C :   -0.187541
   5 H :    0.032423
   6 C :   -0.031070
   7 H :    0.031527
   8 H :    0.043170
   9 C :   -0.047065
  10 H :    0.019380
  11 H :    0.017121
  12 C :   -0.055734
  13 H :    0.017205
  14 H :    0.023074
  15 H :    0.026257
  16 S :    0.456154
  17 C :   -0.201873
  18 C :   -0.060699
  19 C :   -0.058687
  20 C :   -0.216676
  21 H :    0.021923
  22 C :   -0.041693
  23 H :    0.029720
  24 H :    0.027773
  25 C :   -0.036482
  26 H :    0.018315
  27 H :    0.028497
  28 C :   -0.076227
  29 H :    0.030754
  30 H :    0.024471
  31 H :    0.034554
  32 H :    0.046770
  33 H :    0.029266

  Mayer bond orders larger than 0.100000
B(  0-S ,  1-C ) :   1.1380 B(  0-S ,  4-C ) :   1.1474 B(  1-C ,  2-C ) :   1.5848
B(  1-C , 32-H ) :   0.9586 B(  2-C ,  3-C ) :   1.2312 B(  2-C ,  6-C ) :   1.0315
B(  3-C ,  4-C ) :   1.5609 B(  3-C ,  5-H ) :   0.9883 B(  4-C , 20-C ) :   1.0551
B(  6-C ,  7-H ) :   0.9223 B(  6-C ,  8-H ) :   0.9526 B(  6-C ,  9-C ) :   1.0827
B(  9-C , 10-H ) :   0.9498 B(  9-C , 11-H ) :   0.9496 B(  9-C , 12-C ) :   1.0766
B( 12-C , 13-H ) :   0.9693 B( 12-C , 14-H ) :   0.9716 B( 12-C , 15-H ) :   0.9741
B( 16-S , 17-C ) :   1.1821 B( 16-S , 20-C ) :   1.1859 B( 17-C , 18-C ) :   1.5505
B( 17-C , 33-H ) :   0.9704 B( 18-C , 19-C ) :   1.2723 B( 18-C , 21-H ) :   1.0069
B( 19-C , 20-C ) :   1.5256 B( 19-C , 22-C ) :   1.0664 B( 22-C , 23-H ) :   0.9379
B( 22-C , 24-H ) :   0.9373 B( 22-C , 25-C ) :   1.0172 B( 25-C , 26-H ) :   0.9550
B( 25-C , 27-H ) :   0.9598 B( 25-C , 28-C ) :   1.0767 B( 28-C , 29-H ) :   0.9712
B( 28-C , 30-H ) :   0.9698 B( 28-C , 31-H ) :   0.9695

Dispersion correction           -0.015287657
FINAL SINGLE POINT ENERGY     -1339.857422442657

DIPOLE MOMENT
-------------
                                X             Y             Z
Electronic contribution:     15.71879      12.87417      24.68688
Nuclear contribution   :    -15.73265     -13.20873     -25.42303
                        -----------------------------------------
Total Dipole Moment    :     -0.01386      -0.33456      -0.73615
                        -----------------------------------------
Magnitude (a.u.)       :      0.80873
Magnitude (Debye)      :      2.05563

Rotational constants in cm-1:     0.018133     0.010484     0.007073
Rotational constants in MHz :   543.617829   314.312565   212.043425

                             ****ORCA TERMINATED NORMALLY****
TOTAL RUN TIME: 0 days 0 hours 0 minutes 33 seconds 748 msec
