                         Program Version 4.2.1 -  RELEASE  -
|  1> ! wB97X-D3 SP def2-SVP
|  2> %pal
|  3> nprocs 16
|  4> end
|  5>
|  6> * xyz 0 1
|  7> S 	 21.4614 	 1.52289 	 77.9651
|  8> C 	 22.7407 	 1.85805 	 79.083
|  9> C 	 22.3476 	 2.60726 	 80.1495
| 10> C 	 20.9851 	 2.94827 	 80.0832
| 11> C 	 20.3858 	 2.5331 	 78.8902
| 12> H 	 20.397 	 3.41835 	 80.8484
| 13> C 	 23.1792 	 2.95473 	 81.3065
| 14> H 	 24.0579 	 2.29564 	 81.3624
| 15> H 	 22.5108 	 2.71949 	 82.2014
| 16> C 	 23.8574 	 4.39919 	 81.4055
| 17> H 	 24.5776 	 4.3932 	 80.5745
| 18> H 	 23.11 	 5.21746 	 81.1053
| 19> C 	 24.5458 	 4.66482 	 82.6724
| 20> H 	 24.6164 	 5.74841 	 82.8571
| 21> H 	 24.1005 	 4.25132 	 83.5997
| 22> H 	 25.5309 	 4.24379 	 82.6438
| 23> S 	 18.0254 	 1.12319 	 78.7745
| 24> C 	 16.5097 	 1.87113 	 78.3988
| 25> C 	 16.675 	 3.20417 	 78.2456
| 26> C 	 18.0634 	 3.59179 	 78.3261
| 27> C 	 18.9497 	 2.52838 	 78.6155
| 28> H 	 15.7917 	 3.83342 	 78.0384
| 29> C 	 18.429 	 5.08553 	 78.2224
| 30> H 	 19.4978 	 5.11364 	 78.3093
| 31> H 	 18.0551 	 5.71696 	 79.0558
| 32> C 	 18.0124 	 5.61606 	 76.8637
| 33> H 	 16.994 	 6.0118 	 76.9038
| 34> H 	 18.0676 	 4.80039 	 76.1765
| 35> C 	 18.8509 	 6.85804 	 76.3143
| 36> H 	 19.3527 	 6.68827 	 75.375
| 37> H 	 19.5989 	 7.32363 	 76.9863
| 38> H 	 18.2332 	 7.72465 	 76.1989
| 39> H 	 23.7748 	 1.48392 	 79.0101
| 40> H 	 15.5583 	 1.38516 	 78.3354
| 41> *
| 42>
| 43>                          ****END OF INPUT****

CARTESIAN COORDINATES (ANGSTROEM)
---------------------------------
  S     21.461400    1.522890   77.965100
  C     22.740700    1.858050   79.083000
  C     22.347600    2.607260   80.149500
  C     20.985100    2.948270   80.083200
  C     20.385800    2.533100   78.890200
  H     20.397000    3.418350   80.848400
  C     23.179200    2.954730   81.306500
  H     24.057900    2.295640   81.362400
  H     22.510800    2.719490   82.201400
  C     23.857400    4.399190   81.405500
  H     24.577600    4.393200   80.574500
  H     23.110000    5.217460   81.105300
  C     24.545800    4.664820   82.672400
  H     24.616400    5.748410   82.857100
  H     24.100500    4.251320   83.599700
  H     25.530900    4.243790   82.643800
  S     18.025400    1.123190   78.774500
  C     16.509700    1.871130   78.398800
  C     16.675000    3.204170   78.245600
  C     18.063400    3.591790   78.326100
  C     18.949700    2.528380   78.615500
  H     15.791700    3.833420   78.038400
  C     18.429000    5.085530   78.222400
  H     19.497800    5.113640   78.309300
  H     18.055100    5.716960   79.055800
  C     18.012400    5.616060   76.863700
  H     16.994000    6.011800   76.903800
  H     18.067600    4.800390   76.176500
  C     18.850900    6.858040   76.314300
  H     19.352700    6.688270   75.375000
  H     19.598900    7.323630   76.986300
  H     18.233200    7.724650   76.198900
  H     23.774800    1.483920   79.010100
  H     15.558300    1.385160   78.335400

 Total Charge           Charge          ....    0
 Multiplicity           Mult            ....    1
 Number of Electrons    NEL             ....  134
 Basis Dimension        Dim             ....  322

ORBITAL ENERGIES
----------------

  NO   OCC          E(Eh)            E(eV)
   0   2.0000     -88.969035     -2420.9705
   1   2.0000     -88.961072     -2420.7538
   2   2.0000     -10.329585      -281.0823
   3   2.0000     -10.323052      -280.9045
   4   2.0000     -10.312779      -280.6250
   5   2.0000     -10.309780      -280.5434
   6   2.0000     -10.302320      -280.3404
   7   2.0000     -10.297345      -280.2050
   8   2.0000     -10.294444      -280.1261
   9   2.0000     -10.294246      -280.1207
  10   2.0000     -10.293835      -280.1095
  11   2.0000     -10.290309      -280.0135
  12   2.0000     -10.284667      -279.8600
  13   2.0000     -10.282591      -279.8035
  14   2.0000     -10.277621      -279.6683
  15   2.0000     -10.273078      -279.5447
  16   2.0000      -8.084189      -219.9820
  17   2.0000      -8.077257      -219.7933
  18   2.0000      -6.042620      -164.4281
  19   2.0000      -6.038598      -164.3186
  20   2.0000      -6.035686      -164.2394
  21   2.0000      -6.035041      -164.2218
  22   2.0000      -6.031396      -164.1226
  23   2.0000      -6.028154      -164.0344
  24   2.0000      -1.012842       -27.5608
  25   2.0000      -0.991873       -26.9902
  26   2.0000      -0.912670       -24.8350
  27   2.0000      -0.901443       -24.5295
  28   2.0000      -0.875648       -23.8276
  29   2.0000      -0.857864       -23.3437
  30   2.0000      -0.837650       -22.7936
  31   2.0000      -0.817943       -22.2574
  32   2.0000      -0.780569       -21.2404
  33   2.0000      -0.768464       -20.9110
  34   2.0000      -0.705089       -19.1865
  35   2.0000      -0.697857       -18.9897
  36   2.0000      -0.696972       -18.9656
  37   2.0000      -0.651663       -17.7327
  38   2.0000      -0.641894       -17.4668
  39   2.0000      -0.622944       -16.9512
  40   2.0000      -0.594500       -16.1772
  41   2.0000      -0.572311       -15.5734
  42   2.0000      -0.561923       -15.2907
  43   2.0000      -0.559857       -15.2345
  44   2.0000      -0.524690       -14.2775
  45   2.0000      -0.523371       -14.2416
  46   2.0000      -0.511381       -13.9154
  47   2.0000      -0.510089       -13.8802
  48   2.0000      -0.507391       -13.8068
  49   2.0000      -0.499077       -13.5806
  50   2.0000      -0.489202       -13.3119
  51   2.0000      -0.482492       -13.1293
  52   2.0000      -0.473041       -12.8721
  53   2.0000      -0.464309       -12.6345
  54   2.0000      -0.463510       -12.6128
  55   2.0000      -0.457578       -12.4513
  56   2.0000      -0.437689       -11.9101
  57   2.0000      -0.433895       -11.8069
  58   2.0000      -0.431912       -11.7529
  59   2.0000      -0.423345       -11.5198
  60   2.0000      -0.413156       -11.2425
  61   2.0000      -0.412125       -11.2145
  62   2.0000      -0.409275       -11.1369
  63   2.0000      -0.344636        -9.3780
  64   2.0000      -0.329915        -8.9774
  65   2.0000      -0.321872        -8.7586
  66   2.0000      -0.302495        -8.2313
  67   0.0000       0.038732         1.0540
  68   0.0000       0.067931         1.8485
  69   0.0000       0.114343         3.1114
  70   0.0000       0.125241         3.4080
  71   0.0000       0.135002         3.6736

MULLIKEN ATOMIC CHARGES
-----------------------
   0 S :    0.123871
   1 C :   -0.119664
   2 C :   -0.058574
   3 C :    0.049710
   4 C :   -0.178800
   5 H :    0.013212
   6 C :    0.014988
   7 H :    0.015449
   8 H :    0.041097
   9 C :   -0.086991
  10 H :    0.027890
  11 H :    0.038460
  12 C :   -0.026261
  13 H :    0.039701
  14 H :    0.030245
  15 H :    0.026819
  16 S :    0.115348
  17 C :   -0.089554
  18 C :   -0.029041
  19 C :   -0.093291
  20 C :   -0.146458
  21 H :    0.031308
  22 C :    0.100967
  23 H :    0.013097
  24 H :    0.041045
  25 C :   -0.085481
  26 H :    0.034772
  27 H :    0.038510
  28 C :   -0.056438
  29 H :    0.037237
  30 H :    0.024082
  31 H :    0.014450
  32 H :    0.049191
  33 H :    0.049105
Sum of atomic charges:    0.0000000

LOEWDIN ATOMIC CHARGES
----------------------
   0 S :    0.424637
   1 C :   -0.200185
   2 C :   -0.078240
   3 C :   -0.043387
   4 C :   -0.201758
   5 H :    0.032517
   6 C :   -0.037803
   7 H :    0.027839
   8 H :    0.038687
   9 C :   -0.046712
  10 H :    0.026029
  11 H :    0.027813
  12 C :   -0.072248
  13 H :    0.034242
  14 H :    0.028717
  15 H :    0.025066
  16 S :    0.437925
  17 C :   -0.190447
  18 C :   -0.077596
  19 C :   -0.057680
  20 C :   -0.233340
  21 H :    0.038412
  22 C :   -0.033812
  23 H :    0.023717
  24 H :    0.033588
  25 C :   -0.036655
  26 H :    0.025510
  27 H :    0.024358
  28 C :   -0.074955
  29 H :    0.025343
  30 H :    0.027661
  31 H :    0.020704
  32 H :    0.033302
  33 H :    0.028752

  Mayer bond orders larger than 0.100000
B(  0-S ,  1-C ) :   1.1467 B(  0-S ,  4-C ) :   1.1638 B(  1-C ,  2-C ) :   1.6063
B(  1-C , 32-H ) :   0.9595 B(  2-C ,  3-C ) :   1.2520 B(  2-C ,  6-C ) :   1.0366
B(  3-C ,  4-C ) :   1.5586 B(  3-C ,  5-H ) :   0.9988 B(  4-C , 20-C ) :   1.0121
B(  6-C ,  7-H ) :   0.9410 B(  6-C ,  8-H ) :   0.9388 B(  6-C ,  9-C ) :   1.0446
B(  9-C , 10-H ) :   0.9543 B(  9-C , 11-H ) :   0.9623 B(  9-C , 12-C ) :   1.0805
B( 12-C , 13-H ) :   0.9711 B( 12-C , 14-H ) :   0.9740 B( 12-C , 15-H ) :   0.9716
B( 16-S , 17-C ) :   1.1660 B( 16-S , 20-C ) :   1.1654 B( 17-C , 18-C ) :   1.6021
B( 17-C , 33-H ) :   0.9701 B( 18-C , 19-C ) :   1.2493 B( 18-C , 21-H ) :   0.9898
B( 19-C , 20-C ) :   1.5766 B( 19-C , 22-C ) :   1.0490 B( 22-C , 23-H ) :   0.9314
B( 22-C , 24-H ) :   0.9397 B( 22-C , 25-C ) :   1.0596 B( 25-C , 26-H ) :   0.9596
B( 25-C , 27-H ) :   0.9681 B( 25-C , 28-C ) :   1.0588 B( 28-C , 29-H ) :   0.9817
B( 28-C , 30-H ) :   0.9785 B( 28-C , 31-H ) :   0.9794

Dispersion correction           -0.013413301
FINAL SINGLE POINT ENERGY     -1339.874779766697

DIPOLE MOMENT
-------------
                                X             Y             Z
Electronic contribution:    -10.18739     -24.53963      -6.90416
Nuclear contribution   :     10.30374      24.97800       7.27194
                        -----------------------------------------
Total Dipole Moment    :      0.11635       0.43838       0.36778
                        -----------------------------------------
Magnitude (a.u.)       :      0.58393
Magnitude (Debye)      :      1.48423

Rotational constants in cm-1:     0.017782     0.007781     0.006409
Rotational constants in MHz :   533.092915   233.259100   192.122990

                             ****ORCA TERMINATED NORMALLY****
TOTAL RUN TIME: 0 days 0 hours 0 minutes 33 seconds 665 msec
