                         Program Version 4.2.1 -  RELEASE  -
|  1> ! wB97X-D3 SP def2-SVP
|  2> %pal
|  3> nprocs 16
|  4> end
|  5>
|  6> * xyz 0 1
|  7> S 	 14.3155 	 10.319 	 89.8281
|  8> C 	 15.5974 	 9.12659 	 89.9666
|  9> C 	 15.259 	 7.89005 	 89.5226
| 10> C 	 13.9042 	 7.8554 	 89.058
| 11> C 	 13.2271 	 9.05113 	 89.3524
| 12> H 	 13.4 	 6.97874 	 88.7123
| 13> C 	 16.1122 	 6.65544 	 89.4665
| 14> H 	 15.4532 	 5.76361 	 89.469
| 15> H 	 16.8444 	 6.7374 	 90.3215
| 16> C 	 16.8514 	 6.46108 	 88.1343
| 17> H 	 16.2215 	 6.62713 	 87.2236
| 18> H 	 17.6583 	 7.21868 	 87.9894
| 19> C 	 17.5186 	 5.07043 	 88.0219
| 20> H 	 16.8325 	 4.29265 	 87.7882
| 21> H 	 18.2062 	 5.10783 	 87.1386
| 22> H 	 18.1906 	 4.80201 	 88.8707
| 23> S 	 11.2072 	 10.6999 	 88.392
| 24> C 	 9.47981 	 10.2523 	 88.5818
| 25> C 	 9.39681 	 8.98792 	 89.1816
| 26> C 	 10.6641 	 8.48526 	 89.6741
| 27> C 	 11.8138 	 9.21914 	 89.2178
| 28> H 	 8.44791 	 8.44263 	 89.4039
| 29> C 	 10.7697 	 7.1105 	 90.318
| 30> H 	 11.2741 	 6.45346 	 89.6714
| 31> H 	 9.74997 	 6.71015 	 90.4249
| 32> C 	 11.5033 	 6.9305 	 91.6772
| 33> H 	 11.203 	 7.62642 	 92.4313
| 34> H 	 12.5909 	 7.10669 	 91.484
| 35> C 	 11.3521 	 5.5038 	 92.1646
| 36> H 	 11.6719 	 4.70735 	 91.4668
| 37> H 	 10.3082 	 5.28683 	 92.4997
| 38> H 	 12.0392 	 5.21967 	 92.9873
| 39> H 	 16.5461 	 9.25216 	 90.4781
| 40> H 	 8.66569 	 10.8443 	 88.1853
| 41> *
| 42>
| 43>                          ****END OF INPUT****

CARTESIAN COORDINATES (ANGSTROEM)
---------------------------------
  S     14.315500   10.319000   89.828100
  C     15.597400    9.126590   89.966600
  C     15.259000    7.890050   89.522600
  C     13.904200    7.855400   89.058000
  C     13.227100    9.051130   89.352400
  H     13.400000    6.978740   88.712300
  C     16.112200    6.655440   89.466500
  H     15.453200    5.763610   89.469000
  H     16.844400    6.737400   90.321500
  C     16.851400    6.461080   88.134300
  H     16.221500    6.627130   87.223600
  H     17.658300    7.218680   87.989400
  C     17.518600    5.070430   88.021900
  H     16.832500    4.292650   87.788200
  H     18.206200    5.107830   87.138600
  H     18.190600    4.802010   88.870700
  S     11.207200   10.699900   88.392000
  C      9.479810   10.252300   88.581800
  C      9.396810    8.987920   89.181600
  C     10.664100    8.485260   89.674100
  C     11.813800    9.219140   89.217800
  H      8.447910    8.442630   89.403900
  C     10.769700    7.110500   90.318000
  H     11.274100    6.453460   89.671400
  H      9.749970    6.710150   90.424900
  C     11.503300    6.930500   91.677200
  H     11.203000    7.626420   92.431300
  H     12.590900    7.106690   91.484000
  C     11.352100    5.503800   92.164600
  H     11.671900    4.707350   91.466800
  H     10.308200    5.286830   92.499700
  H     12.039200    5.219670   92.987300
  H     16.546100    9.252160   90.478100
  H      8.665690   10.844300   88.185300

 Total Charge           Charge          ....    0
 Multiplicity           Mult            ....    1
 Number of Electrons    NEL             ....  134
 Basis Dimension        Dim             ....  322

ORBITAL ENERGIES
----------------

  NO   OCC          E(Eh)            E(eV)
   0   2.0000     -88.972031     -2421.0521
   1   2.0000     -88.963815     -2420.8285
   2   2.0000     -10.333590      -281.1913
   3   2.0000     -10.331837      -281.1436
   4   2.0000     -10.326382      -280.9951
   5   2.0000     -10.312677      -280.6222
   6   2.0000     -10.311032      -280.5774
   7   2.0000     -10.304623      -280.4030
   8   2.0000     -10.302224      -280.3378
   9   2.0000     -10.299077      -280.2521
  10   2.0000     -10.295926      -280.1664
  11   2.0000     -10.294848      -280.1371
  12   2.0000     -10.288411      -279.9619
  13   2.0000     -10.283875      -279.8385
  14   2.0000     -10.283458      -279.8271
  15   2.0000     -10.281358      -279.7700
  16   2.0000      -8.086757      -220.0518
  17   2.0000      -8.077181      -219.7913
  18   2.0000      -6.045328      -164.5017
  19   2.0000      -6.041421      -164.3954
  20   2.0000      -6.037283      -164.2828
  21   2.0000      -6.035834      -164.2434
  22   2.0000      -6.031758      -164.1325
  23   2.0000      -6.027994      -164.0300
  24   2.0000      -1.005493       -27.3609
  25   2.0000      -0.973840       -26.4995
  26   2.0000      -0.914039       -24.8723
  27   2.0000      -0.904198       -24.6045
  28   2.0000      -0.870233       -23.6802
  29   2.0000      -0.852417       -23.1954
  30   2.0000      -0.843633       -22.9564
  31   2.0000      -0.810224       -22.0473
  32   2.0000      -0.781383       -21.2625
  33   2.0000      -0.767565       -20.8865
  34   2.0000      -0.710728       -19.3399
  35   2.0000      -0.697390       -18.9769
  36   2.0000      -0.691472       -18.8159
  37   2.0000      -0.661795       -18.0084
  38   2.0000      -0.639401       -17.3990
  39   2.0000      -0.619306       -16.8522
  40   2.0000      -0.594095       -16.1662
  41   2.0000      -0.574313       -15.6279
  42   2.0000      -0.564816       -15.3694
  43   2.0000      -0.556617       -15.1463
  44   2.0000      -0.521784       -14.1985
  45   2.0000      -0.519911       -14.1475
  46   2.0000      -0.514516       -14.0007
  47   2.0000      -0.508261       -13.8305
  48   2.0000      -0.505829       -13.7643
  49   2.0000      -0.499786       -13.5999
  50   2.0000      -0.496071       -13.4988
  51   2.0000      -0.482578       -13.1316
  52   2.0000      -0.468185       -12.7400
  53   2.0000      -0.464326       -12.6350
  54   2.0000      -0.458230       -12.4691
  55   2.0000      -0.449511       -12.2318
  56   2.0000      -0.447484       -12.1767
  57   2.0000      -0.436041       -11.8653
  58   2.0000      -0.429206       -11.6793
  59   2.0000      -0.426371       -11.6021
  60   2.0000      -0.420507       -11.4426
  61   2.0000      -0.417431       -11.3589
  62   2.0000      -0.409883       -11.1535
  63   2.0000      -0.345916        -9.4129
  64   2.0000      -0.334007        -9.0888
  65   2.0000      -0.327457        -8.9105
  66   2.0000      -0.285806        -7.7772
  67   0.0000       0.018297         0.4979
  68   0.0000       0.065177         1.7736
  69   0.0000       0.100059         2.7227
  70   0.0000       0.112166         3.0522
  71   0.0000       0.136699         3.7198

MULLIKEN ATOMIC CHARGES
-----------------------
   0 S :    0.134724
   1 C :   -0.117647
   2 C :   -0.075602
   3 C :    0.022530
   4 C :   -0.138405
   5 H :    0.006500
   6 C :    0.073150
   7 H :    0.024544
   8 H :    0.039232
   9 C :   -0.105696
  10 H :    0.039083
  11 H :    0.028559
  12 C :   -0.059579
  13 H :    0.033446
  14 H :    0.033201
  15 H :    0.040735
  16 S :    0.075019
  17 C :   -0.096229
  18 C :   -0.032096
  19 C :   -0.021568
  20 C :   -0.148066
  21 H :    0.041583
  22 C :    0.029660
  23 H :    0.016959
  24 H :    0.010492
  25 C :   -0.051111
  26 H :    0.030831
  27 H :    0.043275
  28 C :   -0.078632
  29 H :    0.023157
  30 H :    0.037736
  31 H :    0.031623
  32 H :    0.040072
  33 H :    0.068521
Sum of atomic charges:    0.0000000

LOEWDIN ATOMIC CHARGES
----------------------
   0 S :    0.414406
   1 C :   -0.197517
   2 C :   -0.065014
   3 C :   -0.051323
   4 C :   -0.198567
   5 H :    0.026150
   6 C :   -0.034197
   7 H :    0.034270
   8 H :    0.039043
   9 C :   -0.047414
  10 H :    0.030591
  11 H :    0.024200
  12 C :   -0.072371
  13 H :    0.018311
  14 H :    0.032735
  15 H :    0.029520
  16 S :    0.365505
  17 C :   -0.173362
  18 C :   -0.074361
  19 C :   -0.054214
  20 C :   -0.182699
  21 H :    0.039594
  22 C :   -0.032281
  23 H :    0.022099
  24 H :    0.027832
  25 C :   -0.039054
  26 H :    0.022354
  27 H :    0.030709
  28 C :   -0.077249
  29 H :    0.025118
  30 H :    0.026669
  31 H :    0.029365
  32 H :    0.029202
  33 H :    0.031949

  Mayer bond orders larger than 0.100000
B(  0-S ,  1-C ) :   1.1199 B(  0-S ,  4-C ) :   1.1498 B(  1-C ,  2-C ) :   1.6475
B(  1-C , 32-H ) :   0.9588 B(  2-C ,  3-C ) :   1.2228 B(  2-C ,  6-C ) :   1.0335
B(  3-C ,  4-C ) :   1.5469 B(  3-C ,  5-H ) :   0.9968 B(  4-C , 20-C ) :   1.0941
B(  6-C ,  7-H ) :   0.9391 B(  6-C ,  8-H ) :   0.9339 B(  6-C ,  9-C ) :   1.0595
B(  9-C , 10-H ) :   0.9561 B(  9-C , 11-H ) :   0.9556 B(  9-C , 12-C ) :   1.0802
B( 12-C , 13-H ) :   0.9761 B( 12-C , 14-H ) :   0.9736 B( 12-C , 15-H ) :   0.9739
B( 16-S , 17-C ) :   1.1504 B( 16-S , 20-C ) :   1.1231 B( 17-C , 18-C ) :   1.5826
B( 17-C , 20-C ) :   0.1101 B( 17-C , 33-H ) :   0.9701 B( 18-C , 19-C ) :   1.2667
B( 18-C , 21-H ) :   0.9750 B( 19-C , 20-C ) :   1.5496 B( 19-C , 22-C ) :   1.0411
B( 22-C , 23-H ) :   0.9415 B( 22-C , 24-H ) :   0.9393 B( 22-C , 25-C ) :   1.0541
B( 25-C , 26-H ) :   0.9571 B( 25-C , 27-H ) :   0.9497 B( 25-C , 28-C ) :   1.0879
B( 28-C , 29-H ) :   0.9704 B( 28-C , 30-H ) :   0.9740 B( 28-C , 31-H ) :   0.9716

Dispersion correction           -0.014238704
FINAL SINGLE POINT ENERGY     -1339.876327542815

DIPOLE MOMENT
-------------
                                X             Y             Z
Electronic contribution:     -9.58135      29.07597      -5.35806
Nuclear contribution   :      9.71125     -29.82026       5.45082
                        -----------------------------------------
Total Dipole Moment    :      0.12991      -0.74430       0.09276
                        -----------------------------------------
Magnitude (a.u.)       :      0.76122
Magnitude (Debye)      :      1.93487

Rotational constants in cm-1:     0.018022     0.008505     0.006760
Rotational constants in MHz :   540.298897   254.984692   202.673018

                             ****ORCA TERMINATED NORMALLY****
TOTAL RUN TIME: 0 days 0 hours 0 minutes 35 seconds 343 msec
