                         Program Version 4.2.1 -  RELEASE  -
|  1> ! wB97X-D3 SP def2-SVP
|  2> %pal
|  3> nprocs 16
|  4> end
|  5>
|  6> * xyz 0 1
|  7> S 	 -34.947 	 55.4504 	 112.95
|  8> C 	 -34.9084 	 56.5654 	 111.59
|  9> C 	 -35.6917 	 57.7061 	 111.809
| 10> C 	 -36.2041 	 57.7643 	 113.131
| 11> C 	 -36.0499 	 56.5736 	 113.798
| 12> H 	 -36.6928 	 58.6058 	 113.622
| 13> C 	 -36.077 	 58.7274 	 110.845
| 14> H 	 -35.9309 	 58.37 	 109.848
| 15> H 	 -35.471 	 59.5357 	 110.909
| 16> C 	 -37.5067 	 59.169 	 110.787
| 17> H 	 -37.8795 	 59.7455 	 111.692
| 18> H 	 -37.6035 	 59.833 	 109.872
| 19> C 	 -38.4743 	 58.0473 	 110.676
| 20> H 	 -38.4542 	 57.3386 	 111.489
| 21> H 	 -39.376 	 58.5448 	 110.567
| 22> H 	 -38.2469 	 57.3971 	 109.834
| 23> S 	 -35.2223 	 55.6382 	 116.239
| 24> C 	 -36.4602 	 55.7111 	 117.551
| 25> C 	 -37.6262 	 56.2922 	 117.139
| 26> C 	 -37.658 	 56.734 	 115.791
| 27> C 	 -36.4084 	 56.4405 	 115.188
| 28> H 	 -38.527 	 56.2743 	 117.804
| 29> C 	 -38.9772 	 57.2908 	 115.275
| 30> H 	 -39.6542 	 56.4908 	 115.202
| 31> H 	 -38.9 	 57.605 	 114.239
| 32> C 	 -39.4393 	 58.4809 	 116.157
| 33> H 	 -38.6884 	 59.3501 	 116.209
| 34> H 	 -39.4357 	 58.1386 	 117.203
| 35> C 	 -40.897 	 58.953 	 115.787
| 36> H 	 -41.5285 	 58.1864 	 115.345
| 37> H 	 -40.7188 	 59.6491 	 114.96
| 38> H 	 -41.41 	 59.513 	 116.516
| 39> H 	 -34.5903 	 56.2227 	 110.616
| 40> H 	 -36.4093 	 55.3226 	 118.5
| 41> *
| 42>
| 43>                          ****END OF INPUT****

CARTESIAN COORDINATES (ANGSTROEM)
---------------------------------
  S    -34.947000   55.450400  112.950000
  C    -34.908400   56.565400  111.590000
  C    -35.691700   57.706100  111.809000
  C    -36.204100   57.764300  113.131000
  C    -36.049900   56.573600  113.798000
  H    -36.692800   58.605800  113.622000
  C    -36.077000   58.727400  110.845000
  H    -35.930900   58.370000  109.848000
  H    -35.471000   59.535700  110.909000
  C    -37.506700   59.169000  110.787000
  H    -37.879500   59.745500  111.692000
  H    -37.603500   59.833000  109.872000
  C    -38.474300   58.047300  110.676000
  H    -38.454200   57.338600  111.489000
  H    -39.376000   58.544800  110.567000
  H    -38.246900   57.397100  109.834000
  S    -35.222300   55.638200  116.239000
  C    -36.460200   55.711100  117.551000
  C    -37.626200   56.292200  117.139000
  C    -37.658000   56.734000  115.791000
  C    -36.408400   56.440500  115.188000
  H    -38.527000   56.274300  117.804000
  C    -38.977200   57.290800  115.275000
  H    -39.654200   56.490800  115.202000
  H    -38.900000   57.605000  114.239000
  C    -39.439300   58.480900  116.157000
  H    -38.688400   59.350100  116.209000
  H    -39.435700   58.138600  117.203000
  C    -40.897000   58.953000  115.787000
  H    -41.528500   58.186400  115.345000
  H    -40.718800   59.649100  114.960000
  H    -41.410000   59.513000  116.516000
  H    -34.590300   56.222700  110.616000
  H    -36.409300   55.322600  118.500000

 Total Charge           Charge          ....    0
 Multiplicity           Mult            ....    1
 Number of Electrons    NEL             ....  134
 Basis Dimension        Dim             ....  322

ORBITAL ENERGIES
----------------

  NO   OCC          E(Eh)            E(eV)
   0   2.0000     -88.969437     -2420.9815
   1   2.0000     -88.968209     -2420.9480
   2   2.0000     -10.330009      -281.0938
   3   2.0000     -10.326930      -281.0101
   4   2.0000     -10.314591      -280.6743
   5   2.0000     -10.310477      -280.5623
   6   2.0000     -10.304653      -280.4039
   7   2.0000     -10.300684      -280.2959
   8   2.0000     -10.299405      -280.2611
   9   2.0000     -10.294818      -280.1362
  10   2.0000     -10.292147      -280.0636
  11   2.0000     -10.290762      -280.0259
  12   2.0000     -10.289883      -280.0020
  13   2.0000     -10.279611      -279.7224
  14   2.0000     -10.273668      -279.5607
  15   2.0000     -10.263928      -279.2957
  16   2.0000      -8.082653      -219.9402
  17   2.0000      -8.082106      -219.9253
  18   2.0000      -6.041302      -164.3922
  19   2.0000      -6.040682      -164.3753
  20   2.0000      -6.037571      -164.2907
  21   2.0000      -6.036878      -164.2718
  22   2.0000      -6.033167      -164.1708
  23   2.0000      -6.032714      -164.1585
  24   2.0000      -1.002685       -27.2845
  25   2.0000      -0.978213       -26.6185
  26   2.0000      -0.926204       -25.2033
  27   2.0000      -0.906795       -24.6751
  28   2.0000      -0.870449       -23.6861
  29   2.0000      -0.853811       -23.2334
  30   2.0000      -0.845692       -23.0124
  31   2.0000      -0.816925       -22.2297
  32   2.0000      -0.788927       -21.4678
  33   2.0000      -0.773466       -21.0471
  34   2.0000      -0.708664       -19.2837
  35   2.0000      -0.704279       -19.1644
  36   2.0000      -0.692828       -18.8528
  37   2.0000      -0.655323       -17.8322
  38   2.0000      -0.639322       -17.3968
  39   2.0000      -0.624828       -17.0024
  40   2.0000      -0.600206       -16.3324
  41   2.0000      -0.573682       -15.6107
  42   2.0000      -0.559680       -15.2297
  43   2.0000      -0.555107       -15.1052
  44   2.0000      -0.545902       -14.8547
  45   2.0000      -0.531550       -14.4642
  46   2.0000      -0.518988       -14.1224
  47   2.0000      -0.514816       -14.0089
  48   2.0000      -0.503121       -13.6906
  49   2.0000      -0.498498       -13.5648
  50   2.0000      -0.492202       -13.3935
  51   2.0000      -0.481097       -13.0913
  52   2.0000      -0.464313       -12.6346
  53   2.0000      -0.461110       -12.5475
  54   2.0000      -0.455555       -12.3963
  55   2.0000      -0.451122       -12.2756
  56   2.0000      -0.447397       -12.1743
  57   2.0000      -0.446323       -12.1451
  58   2.0000      -0.433994       -11.8096
  59   2.0000      -0.431355       -11.7378
  60   2.0000      -0.422451       -11.4955
  61   2.0000      -0.412035       -11.2120
  62   2.0000      -0.409062       -11.1312
  63   2.0000      -0.352775        -9.5995
  64   2.0000      -0.334721        -9.1082
  65   2.0000      -0.327476        -8.9111
  66   2.0000      -0.281637        -7.6637
  67   0.0000       0.022366         0.6086
  68   0.0000       0.071322         1.9408
  69   0.0000       0.097166         2.6440
  70   0.0000       0.118512         3.2249
  71   0.0000       0.122541         3.3345

MULLIKEN ATOMIC CHARGES
-----------------------
   0 S :    0.095356
   1 C :   -0.112742
   2 C :   -0.098576
   3 C :   -0.015524
   4 C :   -0.124605
   5 H :    0.031111
   6 C :    0.172510
   7 H :   -0.003129
   8 H :    0.010690
   9 C :   -0.151107
  10 H :    0.029705
  11 H :    0.039838
  12 C :   -0.003423
  13 H :    0.039729
  14 H :    0.021730
  15 H :    0.012323
  16 S :    0.105289
  17 C :   -0.052057
  18 C :   -0.063093
  19 C :   -0.047655
  20 C :   -0.161986
  21 H :    0.040905
  22 C :    0.126123
  23 H :    0.027862
  24 H :    0.005937
  25 C :   -0.140877
  26 H :    0.048973
  27 H :    0.030663
  28 C :   -0.019220
  29 H :    0.033617
  30 H :    0.023545
  31 H :    0.032614
  32 H :    0.048163
  33 H :    0.017312
Sum of atomic charges:    0.0000000

LOEWDIN ATOMIC CHARGES
----------------------
   0 S :    0.380101
   1 C :   -0.196123
   2 C :   -0.055115
   3 C :   -0.056563
   4 C :   -0.178527
   5 H :    0.036490
   6 C :   -0.034411
   7 H :    0.030794
   8 H :    0.023268
   9 C :   -0.043781
  10 H :    0.023362
  11 H :    0.034045
  12 C :   -0.059799
  13 H :    0.024568
  14 H :    0.019599
  15 H :    0.023012
  16 S :    0.372671
  17 C :   -0.163392
  18 C :   -0.068983
  19 C :   -0.056743
  20 C :   -0.182203
  21 H :    0.039050
  22 C :   -0.024838
  23 H :    0.029583
  24 H :    0.026151
  25 C :   -0.041698
  26 H :    0.035554
  27 H :    0.018656
  28 C :   -0.066559
  29 H :    0.026939
  30 H :    0.028548
  31 H :    0.020360
  32 H :    0.023718
  33 H :    0.012268

  Mayer bond orders larger than 0.100000
B(  0-S ,  1-C ) :   1.1219 B(  0-S ,  4-C ) :   1.1340 B(  1-C ,  2-C ) :   1.6186
B(  1-C , 32-H ) :   0.9618 B(  2-C ,  3-C ) :   1.2224 B(  2-C ,  6-C ) :   1.0343
B(  3-C ,  4-C ) :   1.5775 B(  3-C ,  5-H ) :   0.9894 B(  4-C , 20-C ) :   1.0696
B(  6-C ,  7-H ) :   0.9277 B(  6-C ,  8-H ) :   0.9138 B(  6-C ,  9-C ) :   1.0826
B(  9-C , 10-H ) :   0.9461 B(  9-C , 11-H ) :   0.9540 B(  9-C , 12-C ) :   1.0873
B( 12-C , 13-H ) :   0.9643 B( 12-C , 14-H ) :   0.9725 B( 12-C , 15-H ) :   0.9684
B( 16-S , 17-C ) :   1.1098 B( 16-S , 20-C ) :   1.1328 B( 17-C , 18-C ) :   1.6654
B( 17-C , 33-H ) :   0.9714 B( 18-C , 19-C ) :   1.2293 B( 18-C , 21-H ) :   0.9692
B( 19-C , 20-C ) :   1.5951 B( 19-C , 22-C ) :   1.0347 B( 22-C , 23-H ) :   0.9322
B( 22-C , 24-H ) :   0.9294 B( 22-C , 25-C ) :   1.0393 B( 25-C , 26-H ) :   0.9596
B( 25-C , 27-H ) :   0.9613 B( 25-C , 28-C ) :   1.0606 B( 28-C , 29-H ) :   0.9765
B( 28-C , 30-H ) :   0.9755 B( 28-C , 31-H ) :   0.9773

Dispersion correction           -0.014983666
FINAL SINGLE POINT ENERGY     -1339.852468025689

DIPOLE MOMENT
-------------
                                X             Y             Z
Electronic contribution:     24.62392     -18.24304       8.61413
Nuclear contribution   :    -25.30023      18.66203      -8.80379
                        -----------------------------------------
Total Dipole Moment    :     -0.67631       0.41899      -0.18966
                        -----------------------------------------
Magnitude (a.u.)       :      0.81787
Magnitude (Debye)      :      2.07887

Rotational constants in cm-1:     0.015601     0.011327     0.006955
Rotational constants in MHz :   467.708587   339.586223   208.508985

                             ****ORCA TERMINATED NORMALLY****
TOTAL RUN TIME: 0 days 0 hours 0 minutes 30 seconds 176 msec
