                         Program Version 4.2.1 -  RELEASE  -
|  1> ! wB97X-D3 SP def2-SVP
|  2> %pal
|  3> nprocs 16
|  4> end
|  5>
|  6> * xyz 0 1
|  7> S 	 -94.4192 	 49.4014 	 121.853
|  8> C 	 -93.1905 	 48.3147 	 122.382
|  9> C 	 -93.4816 	 47.6419 	 123.56
| 10> C 	 -94.8312 	 47.857 	 123.874
| 11> C 	 -95.5236 	 48.7304 	 123.022
| 12> H 	 -95.3985 	 47.5025 	 124.768
| 13> C 	 -92.5209 	 46.9141 	 124.488
| 14> H 	 -92.6926 	 47.2484 	 125.519
| 15> H 	 -91.5335 	 47.3126 	 124.276
| 16> C 	 -92.5166 	 45.4037 	 124.542
| 17> H 	 -92.1504 	 45.0069 	 123.608
| 18> H 	 -91.7877 	 45.0558 	 125.249
| 19> C 	 -93.8426 	 44.6857 	 124.881
| 20> H 	 -94.5674 	 44.7841 	 124.071
| 21> H 	 -93.6147 	 43.6417 	 124.872
| 22> H 	 -94.3417 	 45.0601 	 125.761
| 23> S 	 -97.2529 	 50.825 	 123.263
| 24> C 	 -98.9717 	 50.5748 	 123.138
| 25> C 	 -99.2481 	 49.2273 	 122.878
| 26> C 	 -98.0989 	 48.4093 	 122.791
| 27> C 	 -96.9209 	 49.1483 	 122.998
| 28> H 	 -100.282 	 48.8844 	 122.757
| 29> C 	 -98.1529 	 46.9237 	 122.348
| 30> H 	 -97.1667 	 46.5985 	 121.997
| 31> H 	 -98.6838 	 46.9319 	 121.397
| 32> C 	 -98.6966 	 45.93 	 123.342
| 33> H 	 -99.7049 	 46.2914 	 123.682
| 34> H 	 -98.1443 	 45.8966 	 124.322
| 35> C 	 -98.8105 	 44.5024 	 122.956
| 36> H 	 -99.1944 	 43.8856 	 123.8
| 37> H 	 -97.8354 	 44.2018 	 122.692
| 38> H 	 -99.4185 	 44.5165 	 122.054
| 39> H 	 -92.2052 	 48.2996 	 121.944
| 40> H 	 -99.7298 	 51.3355 	 123.29
| 41> *
| 42>
| 43>                          ****END OF INPUT****

CARTESIAN COORDINATES (ANGSTROEM)
---------------------------------
  S    -94.419200   49.401400  121.853000
  C    -93.190500   48.314700  122.382000
  C    -93.481600   47.641900  123.560000
  C    -94.831200   47.857000  123.874000
  C    -95.523600   48.730400  123.022000
  H    -95.398500   47.502500  124.768000
  C    -92.520900   46.914100  124.488000
  H    -92.692600   47.248400  125.519000
  H    -91.533500   47.312600  124.276000
  C    -92.516600   45.403700  124.542000
  H    -92.150400   45.006900  123.608000
  H    -91.787700   45.055800  125.249000
  C    -93.842600   44.685700  124.881000
  H    -94.567400   44.784100  124.071000
  H    -93.614700   43.641700  124.872000
  H    -94.341700   45.060100  125.761000
  S    -97.252900   50.825000  123.263000
  C    -98.971700   50.574800  123.138000
  C    -99.248100   49.227300  122.878000
  C    -98.098900   48.409300  122.791000
  C    -96.920900   49.148300  122.998000
  H    -100.282000   48.884400  122.757000
  C    -98.152900   46.923700  122.348000
  H    -97.166700   46.598500  121.997000
  H    -98.683800   46.931900  121.397000
  C    -98.696600   45.930000  123.342000
  H    -99.704900   46.291400  123.682000
  H    -98.144300   45.896600  124.322000
  C    -98.810500   44.502400  122.956000
  H    -99.194400   43.885600  123.800000
  H    -97.835400   44.201800  122.692000
  H    -99.418500   44.516500  122.054000
  H    -92.205200   48.299600  121.944000
  H    -99.729800   51.335500  123.290000

 Total Charge           Charge          ....    0
 Multiplicity           Mult            ....    1
 Number of Electrons    NEL             ....  134
 Basis Dimension        Dim             ....  322

ORBITAL ENERGIES
----------------

  NO   OCC          E(Eh)            E(eV)
   0   2.0000     -88.967387     -2420.9257
   1   2.0000     -88.966915     -2420.9128
   2   2.0000     -10.326475      -280.9977
   3   2.0000     -10.325582      -280.9734
   4   2.0000     -10.318124      -280.7704
   5   2.0000     -10.312019      -280.6043
   6   2.0000     -10.305303      -280.4215
   7   2.0000     -10.300580      -280.2930
   8   2.0000     -10.295566      -280.1566
   9   2.0000     -10.295382      -280.1516
  10   2.0000     -10.293506      -280.1005
  11   2.0000     -10.292491      -280.0729
  12   2.0000     -10.284065      -279.8436
  13   2.0000     -10.283467      -279.8274
  14   2.0000     -10.275201      -279.6024
  15   2.0000     -10.273117      -279.5457
  16   2.0000      -8.082708      -219.9417
  17   2.0000      -8.082047      -219.9237
  18   2.0000      -6.041008      -164.3842
  19   2.0000      -6.040415      -164.3680
  20   2.0000      -6.037175      -164.2799
  21   2.0000      -6.036393      -164.2586
  22   2.0000      -6.033626      -164.1833
  23   2.0000      -6.033040      -164.1674
  24   2.0000      -1.008589       -27.4451
  25   2.0000      -0.986500       -26.8440
  26   2.0000      -0.913274       -24.8514
  27   2.0000      -0.911578       -24.8053
  28   2.0000      -0.868005       -23.6196
  29   2.0000      -0.855585       -23.2816
  30   2.0000      -0.848024       -23.0759
  31   2.0000      -0.812818       -22.1179
  32   2.0000      -0.788828       -21.4651
  33   2.0000      -0.773864       -21.0579
  34   2.0000      -0.704628       -19.1739
  35   2.0000      -0.697662       -18.9843
  36   2.0000      -0.689131       -18.7522
  37   2.0000      -0.658466       -17.9178
  38   2.0000      -0.641863       -17.4660
  39   2.0000      -0.614854       -16.7310
  40   2.0000      -0.596599       -16.2343
  41   2.0000      -0.573510       -15.6060
  42   2.0000      -0.563226       -15.3262
  43   2.0000      -0.550453       -14.9786
  44   2.0000      -0.542383       -14.7590
  45   2.0000      -0.535360       -14.5679
  46   2.0000      -0.514090       -13.9891
  47   2.0000      -0.511831       -13.9276
  48   2.0000      -0.507786       -13.8176
  49   2.0000      -0.495253       -13.4765
  50   2.0000      -0.491146       -13.3648
  51   2.0000      -0.476915       -12.9775
  52   2.0000      -0.471578       -12.8323
  53   2.0000      -0.469131       -12.7657
  54   2.0000      -0.459508       -12.5039
  55   2.0000      -0.451961       -12.2985
  56   2.0000      -0.443536       -12.0692
  57   2.0000      -0.440297       -11.9811
  58   2.0000      -0.432822       -11.7777
  59   2.0000      -0.426306       -11.6004
  60   2.0000      -0.421069       -11.4579
  61   2.0000      -0.417028       -11.3479
  62   2.0000      -0.400481       -10.8976
  63   2.0000      -0.339397        -9.2355
  64   2.0000      -0.334614        -9.1053
  65   2.0000      -0.331321        -9.0157
  66   2.0000      -0.292588        -7.9617
  67   0.0000       0.036114         0.9827
  68   0.0000       0.060660         1.6506
  69   0.0000       0.108627         2.9559
  70   0.0000       0.120383         3.2758
  71   0.0000       0.133059         3.6207

MULLIKEN ATOMIC CHARGES
-----------------------
   0 S :    0.127983
   1 C :   -0.123653
   2 C :   -0.073591
   3 C :    0.023262
   4 C :   -0.190772
   5 H :    0.024745
   6 C :    0.077606
   7 H :    0.028971
   8 H :    0.014528
   9 C :   -0.048404
  10 H :    0.013998
  11 H :    0.023076
  12 C :   -0.045185
  13 H :    0.029214
  14 H :    0.031088
  15 H :    0.031561
  16 S :    0.119043
  17 C :   -0.101690
  18 C :   -0.044932
  19 C :   -0.004786
  20 C :   -0.182320
  21 H :    0.025532
  22 C :    0.086707
  23 H :    0.018436
  24 H :    0.025390
  25 C :   -0.113240
  26 H :    0.016855
  27 H :    0.023385
  28 C :   -0.002204
  29 H :    0.050458
  30 H :    0.014929
  31 H :    0.022856
  32 H :    0.040572
  33 H :    0.060581
Sum of atomic charges:    0.0000000

LOEWDIN ATOMIC CHARGES
----------------------
   0 S :    0.427065
   1 C :   -0.199847
   2 C :   -0.068364
   3 C :   -0.062199
   4 C :   -0.207521
   5 H :    0.038124
   6 C :   -0.030909
   7 H :    0.035222
   8 H :    0.030859
   9 C :   -0.037620
  10 H :    0.021033
  11 H :    0.023225
  12 C :   -0.063148
  13 H :    0.024821
  14 H :    0.027180
  15 H :    0.021208
  16 S :    0.424994
  17 C :   -0.194563
  18 C :   -0.071810
  19 C :   -0.053101
  20 C :   -0.213904
  21 H :    0.034101
  22 C :   -0.031203
  23 H :    0.029997
  24 H :    0.033207
  25 C :   -0.054414
  26 H :    0.020049
  27 H :    0.025818
  28 C :   -0.059371
  29 H :    0.036790
  30 H :    0.017104
  31 H :    0.023875
  32 H :    0.022675
  33 H :    0.030629

  Mayer bond orders larger than 0.100000
B(  0-S ,  1-C ) :   1.1714 B(  0-S ,  4-C ) :   1.1623 B(  1-C ,  2-C ) :   1.5884
B(  1-C ,  4-C ) :   0.1096 B(  1-C , 32-H ) :   0.9650 B(  2-C ,  3-C ) :   1.2573
B(  2-C ,  6-C ) :   1.0084 B(  3-C ,  4-C ) :   1.5708 B(  3-C ,  5-H ) :   0.9901
B(  4-C , 20-C ) :   1.0135 B(  6-C ,  7-H ) :   0.9433 B(  6-C ,  8-H ) :   0.9359
B(  6-C ,  9-C ) :   1.0858 B(  9-C , 10-H ) :   0.9498 B(  9-C , 11-H ) :   0.9532
B(  9-C , 12-C ) :   1.0848 B( 12-C , 13-H ) :   0.9709 B( 12-C , 14-H ) :   0.9713
B( 12-C , 15-H ) :   0.9756 B( 16-S , 17-C ) :   1.1637 B( 16-S , 20-C ) :   1.1708
B( 17-C , 18-C ) :   1.5776 B( 17-C , 20-C ) :   0.1092 B( 17-C , 33-H ) :   0.9703
B( 18-C , 19-C ) :   1.2723 B( 18-C , 21-H ) :   0.9868 B( 19-C , 20-C ) :   1.5675
B( 19-C , 22-C ) :   1.0315 B( 22-C , 23-H ) :   0.9294 B( 22-C , 24-H ) :   0.9355
B( 22-C , 25-C ) :   1.0604 B( 25-C , 26-H ) :   0.9533 B( 25-C , 27-H ) :   0.9499
B( 25-C , 28-C ) :   1.0915 B( 28-C , 29-H ) :   0.9707 B( 28-C , 30-H ) :   0.9714
B( 28-C , 31-H ) :   0.9715

Dispersion correction           -0.014444809
FINAL SINGLE POINT ENERGY     -1339.888405889307

DIPOLE MOMENT
-------------
                                X             Y             Z
Electronic contribution:      0.47986      29.94983      -8.02426
Nuclear contribution   :     -0.45790     -30.44225       8.22939
                        -----------------------------------------
Total Dipole Moment    :      0.02197      -0.49242       0.20513
                        -----------------------------------------
Magnitude (a.u.)       :      0.53389
Magnitude (Debye)      :      1.35703

Rotational constants in cm-1:     0.016275     0.010029     0.006907
Rotational constants in MHz :   487.904961   300.664279   207.077034

                             ****ORCA TERMINATED NORMALLY****
TOTAL RUN TIME: 0 days 0 hours 0 minutes 34 seconds 159 msec
