                         Program Version 4.2.1 -  RELEASE  -
|  1> ! wB97X-D3 SP def2-SVP
|  2> %pal
|  3> nprocs 16
|  4> end
|  5>
|  6> * xyz 0 1
|  7> S 	 -28.8088 	 54.2542 	 111.946
|  8> C 	 -27.3973 	 55.3646 	 112.064
|  9> C 	 -27.1713 	 55.9542 	 110.863
| 10> C 	 -28.2112 	 55.6974 	 109.941
| 11> C 	 -29.1563 	 54.8199 	 110.38
| 12> H 	 -28.1766 	 56.1565 	 108.955
| 13> C 	 -25.9806 	 56.8546 	 110.619
| 14> H 	 -25.5752 	 56.3791 	 109.727
| 15> H 	 -25.3342 	 56.6631 	 111.373
| 16> C 	 -26.3802 	 58.3543 	 110.473
| 17> H 	 -27.0517 	 58.5005 	 109.658
| 18> H 	 -26.8249 	 58.6746 	 111.388
| 19> C 	 -25.1415 	 59.2362 	 110.144
| 20> H 	 -25.5342 	 60.2707 	 109.929
| 21> H 	 -24.3733 	 59.2097 	 110.928
| 22> H 	 -24.7138 	 58.8429 	 109.195
| 23> S 	 -31.8379 	 54.1342 	 110.525
| 24> C 	 -32.6259 	 53.4529 	 109.073
| 25> C 	 -31.8051 	 53.5511 	 107.972
| 26> C 	 -30.5101 	 54.0847 	 108.28
| 27> C 	 -30.3002 	 54.3654 	 109.612
| 28> H 	 -32.1735 	 53.2961 	 107.021
| 29> C 	 -29.5063 	 54.1789 	 107.181
| 30> H 	 -29.6947 	 53.3398 	 106.502
| 31> H 	 -28.5157 	 53.8882 	 107.519
| 32> C 	 -29.4348 	 55.4279 	 106.272
| 33> H 	 -28.5473 	 55.6044 	 105.693
| 34> H 	 -29.5306 	 56.225 	 106.95
| 35> C 	 -30.5702 	 55.4686 	 105.292
| 36> H 	 -31.5076 	 55.1176 	 105.73
| 37> H 	 -30.4215 	 54.8511 	 104.426
| 38> H 	 -30.7174 	 56.4457 	 104.955
| 39> H 	 -26.8495 	 55.5042 	 112.969
| 40> H 	 -33.6148 	 53.0981 	 109.028
| 41> *
| 42>
| 43>                          ****END OF INPUT****

CARTESIAN COORDINATES (ANGSTROEM)
---------------------------------
  S    -28.808800   54.254200  111.946000
  C    -27.397300   55.364600  112.064000
  C    -27.171300   55.954200  110.863000
  C    -28.211200   55.697400  109.941000
  C    -29.156300   54.819900  110.380000
  H    -28.176600   56.156500  108.955000
  C    -25.980600   56.854600  110.619000
  H    -25.575200   56.379100  109.727000
  H    -25.334200   56.663100  111.373000
  C    -26.380200   58.354300  110.473000
  H    -27.051700   58.500500  109.658000
  H    -26.824900   58.674600  111.388000
  C    -25.141500   59.236200  110.144000
  H    -25.534200   60.270700  109.929000
  H    -24.373300   59.209700  110.928000
  H    -24.713800   58.842900  109.195000
  S    -31.837900   54.134200  110.525000
  C    -32.625900   53.452900  109.073000
  C    -31.805100   53.551100  107.972000
  C    -30.510100   54.084700  108.280000
  C    -30.300200   54.365400  109.612000
  H    -32.173500   53.296100  107.021000
  C    -29.506300   54.178900  107.181000
  H    -29.694700   53.339800  106.502000
  H    -28.515700   53.888200  107.519000
  C    -29.434800   55.427900  106.272000
  H    -28.547300   55.604400  105.693000
  H    -29.530600   56.225000  106.950000
  C    -30.570200   55.468600  105.292000
  H    -31.507600   55.117600  105.730000
  H    -30.421500   54.851100  104.426000
  H    -30.717400   56.445700  104.955000
  H    -26.849500   55.504200  112.969000
  H    -33.614800   53.098100  109.028000

 Total Charge           Charge          ....    0
 Multiplicity           Mult            ....    1
 Number of Electrons    NEL             ....  134
 Basis Dimension        Dim             ....  322

ORBITAL ENERGIES
----------------

  NO   OCC          E(Eh)            E(eV)
   0   2.0000     -88.963715     -2420.8257
   1   2.0000     -88.963501     -2420.8199
   2   2.0000     -10.330880      -281.1175
   3   2.0000     -10.325916      -280.9825
   4   2.0000     -10.318102      -280.7698
   5   2.0000     -10.310435      -280.5612
   6   2.0000     -10.304025      -280.3868
   7   2.0000     -10.294344      -280.1233
   8   2.0000     -10.292377      -280.0698
   9   2.0000     -10.288345      -279.9601
  10   2.0000     -10.287735      -279.9435
  11   2.0000     -10.287165      -279.9280
  12   2.0000     -10.287002      -279.9236
  13   2.0000     -10.286267      -279.9036
  14   2.0000     -10.280085      -279.7353
  15   2.0000     -10.266978      -279.3787
  16   2.0000      -8.078614      -219.8303
  17   2.0000      -8.077316      -219.7949
  18   2.0000      -6.037080      -164.2773
  19   2.0000      -6.036027      -164.2487
  20   2.0000      -6.033156      -164.1705
  21   2.0000      -6.032023      -164.1397
  22   2.0000      -6.029293      -164.0654
  23   2.0000      -6.027886      -164.0271
  24   2.0000      -1.009357       -27.4660
  25   2.0000      -0.982412       -26.7328
  26   2.0000      -0.916059       -24.9272
  27   2.0000      -0.912205       -24.8224
  28   2.0000      -0.871310       -23.7096
  29   2.0000      -0.854213       -23.2443
  30   2.0000      -0.844315       -22.9750
  31   2.0000      -0.818337       -22.2681
  32   2.0000      -0.784816       -21.3559
  33   2.0000      -0.774152       -21.0658
  34   2.0000      -0.714936       -19.4544
  35   2.0000      -0.705105       -19.1869
  36   2.0000      -0.696219       -18.9451
  37   2.0000      -0.668110       -18.1802
  38   2.0000      -0.640940       -17.4409
  39   2.0000      -0.626841       -17.0572
  40   2.0000      -0.598334       -16.2815
  41   2.0000      -0.570639       -15.5279
  42   2.0000      -0.566097       -15.4043
  43   2.0000      -0.558037       -15.1850
  44   2.0000      -0.549872       -14.9628
  45   2.0000      -0.533300       -14.5118
  46   2.0000      -0.514709       -14.0059
  47   2.0000      -0.511037       -13.9060
  48   2.0000      -0.509265       -13.8578
  49   2.0000      -0.503132       -13.6909
  50   2.0000      -0.494241       -13.4490
  51   2.0000      -0.481284       -13.0964
  52   2.0000      -0.471139       -12.8204
  53   2.0000      -0.464395       -12.6368
  54   2.0000      -0.460942       -12.5429
  55   2.0000      -0.448565       -12.2061
  56   2.0000      -0.442510       -12.0413
  57   2.0000      -0.441039       -12.0013
  58   2.0000      -0.436530       -11.8786
  59   2.0000      -0.429733       -11.6936
  60   2.0000      -0.419460       -11.4141
  61   2.0000      -0.416385       -11.3304
  62   2.0000      -0.411535       -11.1984
  63   2.0000      -0.350955        -9.5500
  64   2.0000      -0.332660        -9.0522
  65   2.0000      -0.329127        -8.9560
  66   2.0000      -0.291462        -7.9311
  67   0.0000       0.024053         0.6545
  68   0.0000       0.079715         2.1691
  69   0.0000       0.103436         2.8146
  70   0.0000       0.118099         3.2136
  71   0.0000       0.133215         3.6250

MULLIKEN ATOMIC CHARGES
-----------------------
   0 S :    0.103318
   1 C :   -0.140966
   2 C :   -0.099353
   3 C :   -0.002136
   4 C :   -0.098714
   5 H :   -0.000027
   6 C :    0.136843
   7 H :    0.026056
   8 H :   -0.017230
   9 C :   -0.053037
  10 H :    0.026202
  11 H :    0.029398
  12 C :   -0.066322
  13 H :    0.045255
  14 H :    0.040276
  15 H :    0.029945
  16 S :    0.083736
  17 C :   -0.070574
  18 C :   -0.012596
  19 C :   -0.024412
  20 C :   -0.132640
  21 H :    0.005927
  22 C :    0.022616
  23 H :    0.011275
  24 H :    0.022806
  25 C :   -0.013751
  26 H :    0.026442
  27 H :    0.015239
  28 C :   -0.027159
  29 H :    0.017057
  30 H :    0.021292
  31 H :    0.014705
  32 H :    0.038377
  33 H :    0.042152
Sum of atomic charges:   -0.0000000

LOEWDIN ATOMIC CHARGES
----------------------
   0 S :    0.401454
   1 C :   -0.180328
   2 C :   -0.059091
   3 C :   -0.069499
   4 C :   -0.203330
   5 H :    0.030077
   6 C :   -0.017539
   7 H :    0.035121
   8 H :    0.013393
   9 C :   -0.027146
  10 H :    0.021422
  11 H :    0.022342
  12 C :   -0.068277
  13 H :    0.032086
  14 H :    0.023243
  15 H :    0.025908
  16 S :    0.363223
  17 C :   -0.158620
  18 C :   -0.061983
  19 C :   -0.056100
  20 C :   -0.169058
  21 H :    0.023663
  22 C :   -0.037718
  23 H :    0.029666
  24 H :    0.029966
  25 C :   -0.033302
  26 H :    0.025971
  27 H :    0.014839
  28 C :   -0.058130
  29 H :    0.023688
  30 H :    0.021548
  31 H :    0.018877
  32 H :    0.022251
  33 H :    0.021384

  Mayer bond orders larger than 0.100000
B(  0-S ,  1-C ) :   1.1136 B(  0-S ,  4-C ) :   1.1608 B(  1-C ,  2-C ) :   1.6141
B(  1-C , 32-H ) :   0.9756 B(  2-C ,  3-C ) :   1.2468 B(  2-C ,  6-C ) :   1.0150
B(  3-C ,  4-C ) :   1.5495 B(  3-C ,  5-H ) :   0.9988 B(  4-C , 20-C ) :   1.0521
B(  6-C ,  7-H ) :   0.9301 B(  6-C ,  8-H ) :   0.9322 B(  6-C ,  9-C ) :   1.0611
B(  9-C , 10-H ) :   0.9587 B(  9-C , 11-H ) :   0.9572 B(  9-C , 12-C ) :   1.0810
B( 12-C , 13-H ) :   0.9756 B( 12-C , 14-H ) :   0.9773 B( 12-C , 15-H ) :   0.9759
B( 16-S , 17-C ) :   1.1353 B( 16-S , 20-C ) :   1.1151 B( 17-C , 18-C ) :   1.6294
B( 17-C , 33-H ) :   0.9715 B( 18-C , 19-C ) :   1.2179 B( 18-C , 21-H ) :   0.9918
B( 19-C , 20-C ) :   1.6188 B( 19-C , 22-C ) :   1.0516 B( 22-C , 23-H ) :   0.9354
B( 22-C , 24-H ) :   0.9335 B( 22-C , 25-C ) :   1.0543 B( 25-C , 26-H ) :   0.9556
B( 25-C , 27-H ) :   0.9514 B( 25-C , 28-C ) :   1.0920 B( 28-C , 29-H ) :   0.9735
B( 28-C , 30-H ) :   0.9725 B( 28-C , 31-H ) :   0.9685

Dispersion correction           -0.014152643
FINAL SINGLE POINT ENERGY     -1339.875527593201

DIPOLE MOMENT
-------------
                                X             Y             Z
Electronic contribution:    -15.12425     -16.89744      19.68951
Nuclear contribution   :     15.49836      17.22954     -20.26231
                        -----------------------------------------
Total Dipole Moment    :      0.37411       0.33210      -0.57280
                        -----------------------------------------
Magnitude (a.u.)       :      0.76049
Magnitude (Debye)      :      1.93301

Rotational constants in cm-1:     0.018197     0.008792     0.006393
Rotational constants in MHz :   545.527333   263.586775   191.661300

                             ****ORCA TERMINATED NORMALLY****
TOTAL RUN TIME: 0 days 0 hours 0 minutes 30 seconds 523 msec
