                         Program Version 4.2.1 -  RELEASE  -
|  1> ! wB97X-D3 SP def2-SVP
|  2> %pal
|  3> nprocs 16
|  4> end
|  5>
|  6> * xyz 0 1
|  7> S 	 1.29175 	 -19.7668 	 84.3525
|  8> C 	 1.73644 	 -20.2238 	 85.9595
|  9> C 	 2.91545 	 -19.6532 	 86.3562
| 10> C 	 3.42995 	 -18.6963 	 85.4178
| 11> C 	 2.78429 	 -18.7884 	 84.2053
| 12> H 	 4.2228 	 -18.0036 	 85.527
| 13> C 	 3.51921 	 -19.6599 	 87.7563
| 14> H 	 2.92171 	 -20.2771 	 88.4381
| 15> H 	 3.54175 	 -18.6261 	 88.0105
| 16> C 	 4.8952 	 -20.2038 	 87.7854
| 17> H 	 4.94561 	 -21.1758 	 87.2174
| 18> H 	 5.60907 	 -19.5878 	 87.1659
| 19> C 	 5.4344 	 -20.3149 	 89.2409
| 20> H 	 4.70679 	 -20.913 	 89.7906
| 21> H 	 6.36278 	 -20.9045 	 89.191
| 22> H 	 5.71494 	 -19.3629 	 89.6975
| 23> S 	 1.94255 	 -17.2488 	 82.1566
| 24> C 	 3.10898 	 -16.6241 	 81.0416
| 25> C 	 4.4065 	 -17.0154 	 81.2862
| 26> C 	 4.45244 	 -17.7422 	 82.5233
| 27> C 	 3.17824 	 -18.0235 	 83.0813
| 28> H 	 5.16547 	 -16.8003 	 80.5037
| 29> C 	 5.74676 	 -18.4779 	 82.9463
| 30> H 	 5.95138 	 -18.1645 	 83.9622
| 31> H 	 6.57378 	 -18.0324 	 82.3195
| 32> C 	 5.77528 	 -19.9838 	 82.6746
| 33> H 	 5.56655 	 -20.3221 	 81.6194
| 34> H 	 4.96341 	 -20.4573 	 83.2601
| 35> C 	 7.12176 	 -20.6027 	 83.1695
| 36> H 	 7.82926 	 -20.2084 	 82.5125
| 37> H 	 7.07099 	 -21.6911 	 83.2386
| 38> H 	 7.49706 	 -20.3006 	 84.1673
| 39> H 	 1.39486 	 -21.066 	 86.5378
| 40> H 	 2.80005 	 -16.0581 	 80.1809
| 41> *
| 42>
| 43>                          ****END OF INPUT****

CARTESIAN COORDINATES (ANGSTROEM)
---------------------------------
  S      1.291750  -19.766800   84.352500
  C      1.736440  -20.223800   85.959500
  C      2.915450  -19.653200   86.356200
  C      3.429950  -18.696300   85.417800
  C      2.784290  -18.788400   84.205300
  H      4.222800  -18.003600   85.527000
  C      3.519210  -19.659900   87.756300
  H      2.921710  -20.277100   88.438100
  H      3.541750  -18.626100   88.010500
  C      4.895200  -20.203800   87.785400
  H      4.945610  -21.175800   87.217400
  H      5.609070  -19.587800   87.165900
  C      5.434400  -20.314900   89.240900
  H      4.706790  -20.913000   89.790600
  H      6.362780  -20.904500   89.191000
  H      5.714940  -19.362900   89.697500
  S      1.942550  -17.248800   82.156600
  C      3.108980  -16.624100   81.041600
  C      4.406500  -17.015400   81.286200
  C      4.452440  -17.742200   82.523300
  C      3.178240  -18.023500   83.081300
  H      5.165470  -16.800300   80.503700
  C      5.746760  -18.477900   82.946300
  H      5.951380  -18.164500   83.962200
  H      6.573780  -18.032400   82.319500
  C      5.775280  -19.983800   82.674600
  H      5.566550  -20.322100   81.619400
  H      4.963410  -20.457300   83.260100
  C      7.121760  -20.602700   83.169500
  H      7.829260  -20.208400   82.512500
  H      7.070990  -21.691100   83.238600
  H      7.497060  -20.300600   84.167300
  H      1.394860  -21.066000   86.537800
  H      2.800050  -16.058100   80.180900

 Total Charge           Charge          ....    0
 Multiplicity           Mult            ....    1
 Number of Electrons    NEL             ....  134
 Basis Dimension        Dim             ....  322

ORBITAL ENERGIES
----------------

  NO   OCC          E(Eh)            E(eV)
   0   2.0000     -88.969110     -2420.9726
   1   2.0000     -88.965710     -2420.8800
   2   2.0000     -10.328785      -281.0605
   3   2.0000     -10.324326      -280.9392
   4   2.0000     -10.313039      -280.6320
   5   2.0000     -10.309090      -280.5246
   6   2.0000     -10.308238      -280.5014
   7   2.0000     -10.298713      -280.2422
   8   2.0000     -10.297388      -280.2062
   9   2.0000     -10.295276      -280.1487
  10   2.0000     -10.289767      -279.9988
  11   2.0000     -10.289748      -279.9983
  12   2.0000     -10.289191      -279.9831
  13   2.0000     -10.286748      -279.9166
  14   2.0000     -10.282473      -279.8003
  15   2.0000     -10.274137      -279.5735
  16   2.0000      -8.083351      -219.9592
  17   2.0000      -8.081399      -219.9061
  18   2.0000      -6.042054      -164.4127
  19   2.0000      -6.039675      -164.3479
  20   2.0000      -6.038026      -164.3030
  21   2.0000      -6.035754      -164.2412
  22   2.0000      -6.033834      -164.1890
  23   2.0000      -6.032381      -164.1494
  24   2.0000      -1.010116       -27.4867
  25   2.0000      -0.985669       -26.8214
  26   2.0000      -0.917247       -24.9596
  27   2.0000      -0.902682       -24.5632
  28   2.0000      -0.877218       -23.8703
  29   2.0000      -0.852018       -23.1846
  30   2.0000      -0.844498       -22.9800
  31   2.0000      -0.813882       -22.1468
  32   2.0000      -0.780434       -21.2367
  33   2.0000      -0.768875       -20.9222
  34   2.0000      -0.710721       -19.3397
  35   2.0000      -0.693417       -18.8688
  36   2.0000      -0.691400       -18.8140
  37   2.0000      -0.663829       -18.0637
  38   2.0000      -0.638491       -17.3742
  39   2.0000      -0.622965       -16.9517
  40   2.0000      -0.590752       -16.0752
  41   2.0000      -0.572242       -15.5715
  42   2.0000      -0.566506       -15.4154
  43   2.0000      -0.558276       -15.1915
  44   2.0000      -0.526987       -14.3400
  45   2.0000      -0.523194       -14.2368
  46   2.0000      -0.512763       -13.9530
  47   2.0000      -0.510780       -13.8990
  48   2.0000      -0.502346       -13.6695
  49   2.0000      -0.501596       -13.6491
  50   2.0000      -0.498095       -13.5539
  51   2.0000      -0.483923       -13.1682
  52   2.0000      -0.473739       -12.8911
  53   2.0000      -0.466508       -12.6943
  54   2.0000      -0.461312       -12.5529
  55   2.0000      -0.449892       -12.2422
  56   2.0000      -0.443097       -12.0573
  57   2.0000      -0.439270       -11.9531
  58   2.0000      -0.432275       -11.7628
  59   2.0000      -0.417045       -11.3484
  60   2.0000      -0.416689       -11.3387
  61   2.0000      -0.414351       -11.2751
  62   2.0000      -0.406561       -11.0631
  63   2.0000      -0.356813        -9.7094
  64   2.0000      -0.334487        -9.1019
  65   2.0000      -0.328847        -8.9484
  66   2.0000      -0.282815        -7.6958
  67   0.0000       0.021844         0.5944
  68   0.0000       0.075878         2.0648
  69   0.0000       0.109278         2.9736
  70   0.0000       0.119785         3.2595
  71   0.0000       0.125477         3.4144

MULLIKEN ATOMIC CHARGES
-----------------------
   0 S :    0.110330
   1 C :   -0.099282
   2 C :   -0.092681
   3 C :    0.003515
   4 C :   -0.118325
   5 H :    0.010480
   6 C :    0.112201
   7 H :    0.011232
   8 H :    0.029657
   9 C :   -0.150373
  10 H :    0.033921
  11 H :    0.025510
  12 C :   -0.025507
  13 H :    0.031899
  14 H :    0.032292
  15 H :    0.042032
  16 S :    0.113103
  17 C :   -0.097316
  18 C :   -0.045911
  19 C :   -0.038646
  20 C :   -0.165080
  21 H :    0.043074
  22 C :    0.048823
  23 H :    0.020926
  24 H :    0.018133
  25 C :   -0.076823
  26 H :    0.043609
  27 H :    0.038212
  28 C :   -0.038048
  29 H :    0.017242
  30 H :    0.040466
  31 H :    0.022640
  32 H :    0.048212
  33 H :    0.050483
Sum of atomic charges:    0.0000000

LOEWDIN ATOMIC CHARGES
----------------------
   0 S :    0.390490
   1 C :   -0.211364
   2 C :   -0.057454
   3 C :   -0.052661
   4 C :   -0.178275
   5 H :    0.026010
   6 C :   -0.028456
   7 H :    0.027019
   8 H :    0.032625
   9 C :   -0.053626
  10 H :    0.028260
  11 H :    0.021874
  12 C :   -0.064538
  13 H :    0.024378
  14 H :    0.029450
  15 H :    0.027616
  16 S :    0.425973
  17 C :   -0.188492
  18 C :   -0.076702
  19 C :   -0.056840
  20 C :   -0.207925
  21 H :    0.045337
  22 C :   -0.034361
  23 H :    0.025153
  24 H :    0.031155
  25 C :   -0.042265
  26 H :    0.033698
  27 H :    0.025058
  28 C :   -0.065190
  29 H :    0.014962
  30 H :    0.028260
  31 H :    0.025671
  32 H :    0.032041
  33 H :    0.023119

  Mayer bond orders larger than 0.100000
B(  0-S ,  1-C ) :   1.1127 B(  0-S ,  4-C ) :   1.1215 B(  1-C ,  2-C ) :   1.6571
B(  1-C , 32-H ) :   0.9556 B(  2-C ,  3-C ) :   1.1958 B(  2-C ,  6-C ) :   1.0308
B(  3-C ,  4-C ) :   1.5793 B(  3-C ,  5-H ) :   0.9992 B(  4-C , 20-C ) :   1.1120
B(  6-C ,  7-H ) :   0.9417 B(  6-C ,  8-H ) :   0.9352 B(  6-C ,  9-C ) :   1.0631
B(  9-C , 10-H ) :   0.9557 B(  9-C , 11-H ) :   0.9504 B(  9-C , 12-C ) :   1.0799
B( 12-C , 13-H ) :   0.9742 B( 12-C , 14-H ) :   0.9737 B( 12-C , 15-H ) :   0.9745
B( 16-S , 17-C ) :   1.1722 B( 16-S , 20-C ) :   1.1487 B( 17-C , 18-C ) :   1.6014
B( 17-C , 20-C ) :   0.1009 B( 17-C , 33-H ) :   0.9663 B( 18-C , 19-C ) :   1.2537
B( 18-C , 21-H ) :   0.9860 B( 19-C , 20-C ) :   1.5455 B( 19-C , 22-C ) :   1.0415
B( 22-C , 23-H ) :   0.9327 B( 22-C , 24-H ) :   0.9401 B( 22-C , 25-C ) :   1.0573
B( 25-C , 26-H ) :   0.9565 B( 25-C , 27-H ) :   0.9551 B( 25-C , 28-C ) :   1.0683
B( 28-C , 29-H ) :   0.9780 B( 28-C , 30-H ) :   0.9754 B( 28-C , 31-H ) :   0.9755

Dispersion correction           -0.014708270
FINAL SINGLE POINT ENERGY     -1339.871605718008

DIPOLE MOMENT
-------------
                                X             Y             Z
Electronic contribution:    -25.91146      10.70952     -15.65842
Nuclear contribution   :     26.52245     -10.80369      15.82156
                        -----------------------------------------
Total Dipole Moment    :      0.61099      -0.09417       0.16314
                        -----------------------------------------
Magnitude (a.u.)       :      0.63937
Magnitude (Debye)      :      1.62515

Rotational constants in cm-1:     0.018387     0.009361     0.007060
Rotational constants in MHz :   551.218167   280.648163   211.650196

                             ****ORCA TERMINATED NORMALLY****
TOTAL RUN TIME: 0 days 0 hours 0 minutes 33 seconds 714 msec
