                         Program Version 4.2.1 -  RELEASE  -
|  1> ! wB97X-D3 SP def2-SVP
|  2> %pal
|  3> nprocs 16
|  4> end
|  5>
|  6> * xyz 0 1
|  7> S 	 -33.5074 	 1.1342 	 98.5257
|  8> C 	 -32.0968 	 2.102 	 98.2292
|  9> C 	 -32.1677 	 2.69562 	 97.0183
| 10> C 	 -33.4887 	 2.53778 	 96.3952
| 11> C 	 -34.2444 	 1.53373 	 97.0008
| 12> H 	 -33.903 	 3.07021 	 95.5157
| 13> C 	 -31.2001 	 3.69788 	 96.4553
| 14> H 	 -30.2928 	 3.58141 	 96.9432
| 15> H 	 -31.5285 	 4.72356 	 96.4957
| 16> C 	 -30.8763 	 3.41277 	 94.9483
| 17> H 	 -30.6684 	 2.36087 	 94.8149
| 18> H 	 -31.7921 	 3.62934 	 94.4184
| 19> C 	 -29.7216 	 4.24396 	 94.4197
| 20> H 	 -30.0396 	 5.25987 	 94.5873
| 21> H 	 -28.7756 	 3.95602 	 94.8355
| 22> H 	 -29.5323 	 4.22894 	 93.3172
| 23> S 	 -36.9008 	 2.03169 	 97.6791
| 24> C 	 -38.2049 	 1.30019 	 96.6793
| 25> C 	 -37.6758 	 0.334046 	 95.8655
| 26> C 	 -36.2358 	 0.325442 	 95.7423
| 27> C 	 -35.6299 	 1.24815 	 96.6716
| 28> H 	 -38.3122 	 -0.387455 	 95.393
| 29> C 	 -35.5264 	 -0.52182 	 94.7762
| 30> H 	 -34.6909 	 -0.00826615 	 94.4247
| 31> H 	 -36.2308 	 -0.815053 	 93.956
| 32> C 	 -35.1382 	 -1.8846 	 95.3779
| 33> H 	 -34.7666 	 -2.6957 	 94.6506
| 34> H 	 -35.9905 	 -2.45209 	 95.8134
| 35> C 	 -34.117 	 -1.70591 	 96.53
| 36> H 	 -33.2446 	 -1.06853 	 96.2444
| 37> H 	 -33.6656 	 -2.7175 	 96.5847
| 38> H 	 -34.4682 	 -1.44132 	 97.504
| 39> H 	 -31.1786 	 2.27342 	 98.8864
| 40> H 	 -39.2528 	 1.20809 	 96.8719
| 41> *
| 42>
| 43>                          ****END OF INPUT****

CARTESIAN COORDINATES (ANGSTROEM)
---------------------------------
  S    -33.507400    1.134200   98.525700
  C    -32.096800    2.102000   98.229200
  C    -32.167700    2.695620   97.018300
  C    -33.488700    2.537780   96.395200
  C    -34.244400    1.533730   97.000800
  H    -33.903000    3.070210   95.515700
  C    -31.200100    3.697880   96.455300
  H    -30.292800    3.581410   96.943200
  H    -31.528500    4.723560   96.495700
  C    -30.876300    3.412770   94.948300
  H    -30.668400    2.360870   94.814900
  H    -31.792100    3.629340   94.418400
  C    -29.721600    4.243960   94.419700
  H    -30.039600    5.259870   94.587300
  H    -28.775600    3.956020   94.835500
  H    -29.532300    4.228940   93.317200
  S    -36.900800    2.031690   97.679100
  C    -38.204900    1.300190   96.679300
  C    -37.675800    0.334046   95.865500
  C    -36.235800    0.325442   95.742300
  C    -35.629900    1.248150   96.671600
  H    -38.312200   -0.387455   95.393000
  C    -35.526400   -0.521820   94.776200
  H    -34.690900   -0.008266   94.424700
  H    -36.230800   -0.815053   93.956000
  C    -35.138200   -1.884600   95.377900
  H    -34.766600   -2.695700   94.650600
  H    -35.990500   -2.452090   95.813400
  C    -34.117000   -1.705910   96.530000
  H    -33.244600   -1.068530   96.244400
  H    -33.665600   -2.717500   96.584700
  H    -34.468200   -1.441320   97.504000
  H    -31.178600    2.273420   98.886400
  H    -39.252800    1.208090   96.871900

 Total Charge           Charge          ....    0
 Multiplicity           Mult            ....    1
 Number of Electrons    NEL             ....  134
 Basis Dimension        Dim             ....  322

ORBITAL ENERGIES
----------------

  NO   OCC          E(Eh)            E(eV)
   0   2.0000     -88.966617     -2420.9047
   1   2.0000     -88.966040     -2420.8890
   2   2.0000     -10.334767      -281.2233
   3   2.0000     -10.329261      -281.0735
   4   2.0000     -10.319436      -280.8061
   5   2.0000     -10.316901      -280.7372
   6   2.0000     -10.309432      -280.5339
   7   2.0000     -10.301666      -280.3226
   8   2.0000     -10.300453      -280.2896
   9   2.0000     -10.293443      -280.0988
  10   2.0000     -10.293082      -280.0890
  11   2.0000     -10.287431      -279.9352
  12   2.0000     -10.285829      -279.8916
  13   2.0000     -10.282632      -279.8046
  14   2.0000     -10.278004      -279.6787
  15   2.0000     -10.270128      -279.4644
  16   2.0000      -8.081392      -219.9058
  17   2.0000      -8.078970      -219.8400
  18   2.0000      -6.040088      -164.3592
  19   2.0000      -6.037819      -164.2974
  20   2.0000      -6.035830      -164.2433
  21   2.0000      -6.033768      -164.1872
  22   2.0000      -6.031973      -164.1383
  23   2.0000      -6.029432      -164.0692
  24   2.0000      -1.004530       -27.3347
  25   2.0000      -0.977186       -26.5906
  26   2.0000      -0.914412       -24.8824
  27   2.0000      -0.908299       -24.7161
  28   2.0000      -0.873067       -23.7574
  29   2.0000      -0.845885       -23.0177
  30   2.0000      -0.838561       -22.8184
  31   2.0000      -0.814358       -22.1598
  32   2.0000      -0.782975       -21.3058
  33   2.0000      -0.768707       -20.9176
  34   2.0000      -0.711241       -19.3539
  35   2.0000      -0.694577       -18.9004
  36   2.0000      -0.690183       -18.7808
  37   2.0000      -0.653949       -17.7948
  38   2.0000      -0.640261       -17.4224
  39   2.0000      -0.615819       -16.7573
  40   2.0000      -0.592858       -16.1325
  41   2.0000      -0.582383       -15.8475
  42   2.0000      -0.565044       -15.3756
  43   2.0000      -0.545290       -14.8381
  44   2.0000      -0.540116       -14.6973
  45   2.0000      -0.517373       -14.0784
  46   2.0000      -0.513478       -13.9724
  47   2.0000      -0.512069       -13.9341
  48   2.0000      -0.507066       -13.7980
  49   2.0000      -0.503688       -13.7060
  50   2.0000      -0.497500       -13.5377
  51   2.0000      -0.472594       -12.8599
  52   2.0000      -0.471230       -12.8228
  53   2.0000      -0.464746       -12.6464
  54   2.0000      -0.457846       -12.4586
  55   2.0000      -0.445380       -12.1194
  56   2.0000      -0.444199       -12.0873
  57   2.0000      -0.431770       -11.7491
  58   2.0000      -0.427893       -11.6436
  59   2.0000      -0.423109       -11.5134
  60   2.0000      -0.417134       -11.3508
  61   2.0000      -0.413595       -11.2545
  62   2.0000      -0.406355       -11.0575
  63   2.0000      -0.336015        -9.1434
  64   2.0000      -0.324639        -8.8339
  65   2.0000      -0.323065        -8.7910
  66   2.0000      -0.305381        -8.3098
  67   0.0000       0.033350         0.9075
  68   0.0000       0.051617         1.4046
  69   0.0000       0.108418         2.9502
  70   0.0000       0.115663         3.1473
  71   0.0000       0.124857         3.3975

MULLIKEN ATOMIC CHARGES
-----------------------
   0 S :    0.113709
   1 C :   -0.135392
   2 C :   -0.085744
   3 C :    0.012414
   4 C :   -0.168123
   5 H :    0.041854
   6 C :    0.104810
   7 H :   -0.008814
   8 H :    0.038366
   9 C :   -0.105905
  10 H :    0.027158
  11 H :    0.023788
  12 C :   -0.033696
  13 H :    0.022170
  14 H :    0.032904
  15 H :    0.035087
  16 S :    0.099791
  17 C :   -0.063063
  18 C :   -0.049376
  19 C :   -0.038010
  20 C :   -0.176730
  21 H :    0.016433
  22 C :    0.124650
  23 H :    0.021679
  24 H :    0.027194
  25 C :   -0.117600
  26 H :    0.041842
  27 H :    0.026675
  28 C :   -0.061833
  29 H :    0.042198
  30 H :    0.022861
  31 H :    0.041207
  32 H :    0.073772
  33 H :    0.053724
Sum of atomic charges:   -0.0000000

LOEWDIN ATOMIC CHARGES
----------------------
   0 S :    0.420541
   1 C :   -0.207436
   2 C :   -0.071765
   3 C :   -0.049302
   4 C :   -0.211676
   5 H :    0.038349
   6 C :   -0.022038
   7 H :    0.016241
   8 H :    0.032033
   9 C :   -0.037668
  10 H :    0.020154
  11 H :    0.017953
  12 C :   -0.067313
  13 H :    0.023779
  14 H :    0.022503
  15 H :    0.032197
  16 S :    0.371054
  17 C :   -0.177201
  18 C :   -0.064604
  19 C :   -0.042208
  20 C :   -0.188316
  21 H :    0.028091
  22 C :   -0.032742
  23 H :    0.025499
  24 H :    0.038607
  25 C :   -0.047782
  26 H :    0.030713
  27 H :    0.025956
  28 C :   -0.076069
  29 H :    0.027473
  30 H :    0.029361
  31 H :    0.013545
  32 H :    0.051211
  33 H :    0.030859

  Mayer bond orders larger than 0.100000
B(  0-S ,  1-C ) :   1.1302 B(  0-S ,  4-C ) :   1.1394 B(  1-C ,  2-C ) :   1.6516
B(  1-C , 32-H ) :   0.9535 B(  2-C ,  3-C ) :   1.1920 B(  2-C ,  6-C ) :   1.0462
B(  3-C ,  4-C ) :   1.6045 B(  3-C ,  5-H ) :   0.9833 B(  4-C , 20-C ) :   1.0440
B(  6-C ,  7-H ) :   0.9350 B(  6-C ,  8-H ) :   0.9396 B(  6-C ,  9-C ) :   1.0515
B(  9-C , 10-H ) :   0.9608 B(  9-C , 11-H ) :   0.9564 B(  9-C , 12-C ) :   1.0872
B( 12-C , 13-H ) :   0.9711 B( 12-C , 14-H ) :   0.9759 B( 12-C , 15-H ) :   0.9730
B( 16-S , 17-C ) :   1.1247 B( 16-S , 20-C ) :   1.1330 B( 17-C , 18-C ) :   1.6552
B( 17-C , 20-C ) :   0.1015 B( 17-C , 33-H ) :   0.9591 B( 18-C , 19-C ) :   1.2424
B( 18-C , 21-H ) :   0.9783 B( 19-C , 20-C ) :   1.5673 B( 19-C , 22-C ) :   1.0564
B( 22-C , 23-H ) :   0.9337 B( 22-C , 24-H ) :   0.9267 B( 22-C , 25-C ) :   1.0629
B( 25-C , 26-H ) :   0.9625 B( 25-C , 27-H ) :   0.9526 B( 25-C , 28-C ) :   1.0652
B( 28-C , 29-H ) :   0.9735 B( 28-C , 30-H ) :   0.9706 B( 28-C , 31-H ) :   0.9748

Dispersion correction           -0.015121440
FINAL SINGLE POINT ENERGY     -1339.855007969277

DIPOLE MOMENT
-------------
                                X             Y             Z
Electronic contribution:    -17.16090       2.65610      16.32345
Nuclear contribution   :     17.41573      -2.74333     -16.75352
                        -----------------------------------------
Total Dipole Moment    :      0.25482      -0.08723      -0.43007
                        -----------------------------------------
Magnitude (a.u.)       :      0.50745
Magnitude (Debye)      :      1.28984

Rotational constants in cm-1:     0.020578     0.008047     0.007548
Rotational constants in MHz :   616.919998   241.255617   226.291952

                             ****ORCA TERMINATED NORMALLY****
TOTAL RUN TIME: 0 days 0 hours 0 minutes 31 seconds 232 msec
