                         Program Version 4.2.1 -  RELEASE  -
|  1> ! wB97X-D3 SP def2-SVP
|  2> %pal
|  3> nprocs 16
|  4> end
|  5>
|  6> * xyz 0 1
|  7> S 	 -42.9985 	 21.8397 	 75.7267
|  8> C 	 -44.2855 	 22.6571 	 76.5999
|  9> C 	 -43.9317 	 22.8012 	 77.9241
| 10> C 	 -42.574 	 22.4156 	 78.1876
| 11> C 	 -41.8899 	 21.9558 	 77.0606
| 12> H 	 -41.9648 	 22.5324 	 79.0901
| 13> C 	 -44.7647 	 23.4804 	 78.9671
| 14> H 	 -45.754 	 23.7739 	 78.5291
| 15> H 	 -44.1432 	 24.3209 	 79.1857
| 16> C 	 -45.103 	 22.6951 	 80.2982
| 17> H 	 -45.7185 	 23.3686 	 80.8418
| 18> H 	 -45.7773 	 21.8121 	 80.0946
| 19> C 	 -43.9527 	 22.3376 	 81.2493
| 20> H 	 -43.2006 	 21.7138 	 80.7678
| 21> H 	 -43.4749 	 23.2658 	 81.4794
| 22> H 	 -44.3235 	 21.8809 	 82.1628
| 23> S 	 -40.0458 	 20.1298 	 76.1118
| 24> C 	 -38.3397 	 20.2557 	 76.5396
| 25> C 	 -38.115 	 21.3581 	 77.3292
| 26> C 	 -39.3448 	 22.0478 	 77.5252
| 27> C 	 -40.5331 	 21.5319 	 76.9757
| 28> H 	 -37.1085 	 21.577 	 77.6674
| 29> C 	 -39.3278 	 23.4444 	 78.1979
| 30> H 	 -39.722 	 23.3035 	 79.244
| 31> H 	 -40.0703 	 24.0473 	 77.6758
| 32> C 	 -38.0199 	 24.2697 	 78.3836
| 33> H 	 -37.5179 	 24.1706 	 77.4123
| 34> H 	 -37.4445 	 23.7286 	 79.1085
| 35> C 	 -38.3052 	 25.8039 	 78.7121
| 36> H 	 -37.4418 	 26.4028 	 78.8881
| 37> H 	 -38.8587 	 25.9094 	 79.6229
| 38> H 	 -38.9178 	 26.3468 	 78.0167
| 39> H 	 -45.1987 	 23.1047 	 76.2194
| 40> H 	 -37.6181 	 19.4881 	 76.2996
| 41> *
| 42>
| 43>                          ****END OF INPUT****

CARTESIAN COORDINATES (ANGSTROEM)
---------------------------------
  S    -42.998500   21.839700   75.726700
  C    -44.285500   22.657100   76.599900
  C    -43.931700   22.801200   77.924100
  C    -42.574000   22.415600   78.187600
  C    -41.889900   21.955800   77.060600
  H    -41.964800   22.532400   79.090100
  C    -44.764700   23.480400   78.967100
  H    -45.754000   23.773900   78.529100
  H    -44.143200   24.320900   79.185700
  C    -45.103000   22.695100   80.298200
  H    -45.718500   23.368600   80.841800
  H    -45.777300   21.812100   80.094600
  C    -43.952700   22.337600   81.249300
  H    -43.200600   21.713800   80.767800
  H    -43.474900   23.265800   81.479400
  H    -44.323500   21.880900   82.162800
  S    -40.045800   20.129800   76.111800
  C    -38.339700   20.255700   76.539600
  C    -38.115000   21.358100   77.329200
  C    -39.344800   22.047800   77.525200
  C    -40.533100   21.531900   76.975700
  H    -37.108500   21.577000   77.667400
  C    -39.327800   23.444400   78.197900
  H    -39.722000   23.303500   79.244000
  H    -40.070300   24.047300   77.675800
  C    -38.019900   24.269700   78.383600
  H    -37.517900   24.170600   77.412300
  H    -37.444500   23.728600   79.108500
  C    -38.305200   25.803900   78.712100
  H    -37.441800   26.402800   78.888100
  H    -38.858700   25.909400   79.622900
  H    -38.917800   26.346800   78.016700
  H    -45.198700   23.104700   76.219400
  H    -37.618100   19.488100   76.299600

 Total Charge           Charge          ....    0
 Multiplicity           Mult            ....    1
 Number of Electrons    NEL             ....  134
 Basis Dimension        Dim             ....  322

ORBITAL ENERGIES
----------------

  NO   OCC          E(Eh)            E(eV)
   0   2.0000     -88.966254     -2420.8948
   1   2.0000     -88.964726     -2420.8533
   2   2.0000     -10.331882      -281.1448
   3   2.0000     -10.326857      -281.0081
   4   2.0000     -10.319877      -280.8181
   5   2.0000     -10.314820      -280.6805
   6   2.0000     -10.307516      -280.4818
   7   2.0000     -10.301816      -280.3267
   8   2.0000     -10.297546      -280.2105
   9   2.0000     -10.296845      -280.1914
  10   2.0000     -10.296761      -280.1891
  11   2.0000     -10.293475      -280.0997
  12   2.0000     -10.290987      -280.0320
  13   2.0000     -10.290444      -280.0172
  14   2.0000     -10.278866      -279.7022
  15   2.0000     -10.276690      -279.6429
  16   2.0000      -8.081016      -219.8956
  17   2.0000      -8.079894      -219.8651
  18   2.0000      -6.039621      -164.3465
  19   2.0000      -6.038371      -164.3124
  20   2.0000      -6.035482      -164.2338
  21   2.0000      -6.034182      -164.1984
  22   2.0000      -6.031697      -164.1308
  23   2.0000      -6.030798      -164.1064
  24   2.0000      -1.011499       -27.5243
  25   2.0000      -0.987365       -26.8676
  26   2.0000      -0.910801       -24.7842
  27   2.0000      -0.897605       -24.4251
  28   2.0000      -0.877453       -23.8767
  29   2.0000      -0.848385       -23.0857
  30   2.0000      -0.843215       -22.9450
  31   2.0000      -0.819448       -22.2983
  32   2.0000      -0.784667       -21.3519
  33   2.0000      -0.772598       -21.0234
  34   2.0000      -0.713898       -19.4262
  35   2.0000      -0.704155       -19.1610
  36   2.0000      -0.701386       -19.0857
  37   2.0000      -0.654834       -17.8189
  38   2.0000      -0.638950       -17.3867
  39   2.0000      -0.616385       -16.7727
  40   2.0000      -0.592080       -16.1113
  41   2.0000      -0.574268       -15.6266
  42   2.0000      -0.563983       -15.3468
  43   2.0000      -0.554737       -15.0952
  44   2.0000      -0.537981       -14.6392
  45   2.0000      -0.524142       -14.2626
  46   2.0000      -0.518026       -14.0962
  47   2.0000      -0.515595       -14.0301
  48   2.0000      -0.506591       -13.7850
  49   2.0000      -0.503197       -13.6927
  50   2.0000      -0.491401       -13.3717
  51   2.0000      -0.484962       -13.1965
  52   2.0000      -0.479955       -13.0602
  53   2.0000      -0.463726       -12.6186
  54   2.0000      -0.460226       -12.5234
  55   2.0000      -0.451491       -12.2857
  56   2.0000      -0.439976       -11.9724
  57   2.0000      -0.435538       -11.8516
  58   2.0000      -0.434232       -11.8160
  59   2.0000      -0.428904       -11.6711
  60   2.0000      -0.415946       -11.3185
  61   2.0000      -0.414315       -11.2741
  62   2.0000      -0.407061       -11.0767
  63   2.0000      -0.358666        -9.7598
  64   2.0000      -0.330706        -8.9990
  65   2.0000      -0.327164        -8.9026
  66   2.0000      -0.285397        -7.7661
  67   0.0000       0.022793         0.6202
  68   0.0000       0.073138         1.9902
  69   0.0000       0.113060         3.0765
  70   0.0000       0.118173         3.2156
  71   0.0000       0.142047         3.8653

MULLIKEN ATOMIC CHARGES
-----------------------
   0 S :    0.113078
   1 C :   -0.117448
   2 C :   -0.069346
   3 C :    0.007650
   4 C :   -0.158135
   5 H :    0.017224
   6 C :    0.048887
   7 H :    0.025906
   8 H :    0.032844
   9 C :   -0.081436
  10 H :    0.019956
  11 H :    0.038843
  12 C :   -0.040303
  13 H :    0.044871
  14 H :    0.016568
  15 H :    0.040711
  16 S :    0.098420
  17 C :   -0.095673
  18 C :   -0.030600
  19 C :   -0.049662
  20 C :   -0.111303
  21 H :    0.028601
  22 C :   -0.029733
  23 H :    0.039342
  24 H :    0.038465
  25 C :   -0.053535
  26 H :    0.034313
  27 H :    0.032083
  28 C :   -0.021386
  29 H :    0.027837
  30 H :    0.015517
  31 H :    0.029800
  32 H :    0.047946
  33 H :    0.059698
Sum of atomic charges:   -0.0000000

LOEWDIN ATOMIC CHARGES
----------------------
   0 S :    0.406015
   1 C :   -0.200602
   2 C :   -0.063219
   3 C :   -0.065469
   4 C :   -0.192474
   5 H :    0.033452
   6 C :   -0.029866
   7 H :    0.035374
   8 H :    0.030923
   9 C :   -0.038137
  10 H :    0.019195
  11 H :    0.028967
  12 C :   -0.064104
  13 H :    0.024242
  14 H :    0.020477
  15 H :    0.030153
  16 S :    0.417289
  17 C :   -0.175302
  18 C :   -0.076592
  19 C :   -0.057891
  20 C :   -0.217492
  21 H :    0.038130
  22 C :   -0.043578
  23 H :    0.029040
  24 H :    0.027582
  25 C :   -0.035907
  26 H :    0.024082
  27 H :    0.019887
  28 C :   -0.061104
  29 H :    0.024449
  30 H :    0.022902
  31 H :    0.026448
  32 H :    0.033493
  33 H :    0.029637

  Mayer bond orders larger than 0.100000
B(  0-S ,  1-C ) :   1.1239 B(  0-S ,  4-C ) :   1.1480 B(  1-C ,  2-C ) :   1.6190
B(  1-C , 32-H ) :   0.9673 B(  2-C ,  3-C ) :   1.2182 B(  2-C ,  6-C ) :   1.0219
B(  3-C ,  4-C ) :   1.5594 B(  3-C ,  5-H ) :   0.9861 B(  4-C , 20-C ) :   1.0877
B(  6-C ,  7-H ) :   0.9399 B(  6-C ,  8-H ) :   0.9392 B(  6-C ,  9-C ) :   1.0731
B(  9-C , 10-H ) :   0.9553 B(  9-C , 11-H ) :   0.9558 B(  9-C , 12-C ) :   1.0802
B( 12-C , 13-H ) :   0.9714 B( 12-C , 14-H ) :   0.9735 B( 12-C , 15-H ) :   0.9700
B( 16-S , 17-C ) :   1.1785 B( 16-S , 20-C ) :   1.1319 B( 17-C , 18-C ) :   1.5648
B( 17-C , 20-C ) :   0.1024 B( 17-C , 33-H ) :   0.9657 B( 18-C , 19-C ) :   1.2718
B( 18-C , 21-H ) :   0.9944 B( 19-C , 20-C ) :   1.5561 B( 19-C , 22-C ) :   1.0209
B( 22-C , 23-H ) :   0.9279 B( 22-C , 24-H ) :   0.9502 B( 22-C , 25-C ) :   1.0674
B( 25-C , 26-H ) :   0.9584 B( 25-C , 27-H ) :   0.9528 B( 25-C , 28-C ) :   1.0678
B( 28-C , 29-H ) :   0.9763 B( 28-C , 30-H ) :   0.9755 B( 28-C , 31-H ) :   0.9771

Dispersion correction           -0.013942575
FINAL SINGLE POINT ENERGY     -1339.871517205425

DIPOLE MOMENT
-------------
                                X             Y             Z
Electronic contribution:     -0.36214     -18.15815     -22.82678
Nuclear contribution   :      0.45750      18.66587      23.44683
                        -----------------------------------------
Total Dipole Moment    :      0.09536       0.50772       0.62005
                        -----------------------------------------
Magnitude (a.u.)       :      0.80705
Magnitude (Debye)      :      2.05137

Rotational constants in cm-1:     0.015837     0.009177     0.007009
Rotational constants in MHz :   474.773791   275.128392   210.134147

                             ****ORCA TERMINATED NORMALLY****
TOTAL RUN TIME: 0 days 0 hours 0 minutes 29 seconds 961 msec
