                         Program Version 4.2.1 -  RELEASE  -
|  1> ! wB97X-D3 SP def2-SVP
|  2> %pal
|  3> nprocs 16
|  4> end
|  5>
|  6> * xyz 0 1
|  7> S 	 4.30988 	 -16.5973 	 85.953
|  8> C 	 2.841 	 -17.2195 	 86.7101
|  9> C 	 3.2373 	 -17.9362 	 87.8147
| 10> C 	 4.67036 	 -17.9124 	 88.0728
| 11> C 	 5.31834 	 -17.1464 	 87.166
| 12> H 	 5.12916 	 -18.4461 	 88.83
| 13> C 	 2.30036 	 -18.5436 	 88.904
| 14> H 	 2.89858 	 -19.3991 	 89.2921
| 15> H 	 1.41766 	 -18.9366 	 88.4719
| 16> C 	 1.85011 	 -17.6066 	 90.0203
| 17> H 	 2.66424 	 -16.916 	 90.3726
| 18> H 	 1.16663 	 -16.8524 	 89.567
| 19> C 	 1.17951 	 -18.3951 	 91.1917
| 20> H 	 0.264796 	 -18.9334 	 90.856
| 21> H 	 1.90858 	 -19.1403 	 91.4561
| 22> H 	 0.83936 	 -17.7932 	 91.9785
| 23> S 	 7.27041 	 -15.2949 	 87.6031
| 24> C 	 8.87091 	 -15.8392 	 87.3819
| 25> C 	 8.9898 	 -17.1837 	 87.0103
| 26> C 	 7.68285 	 -17.7763 	 86.9404
| 27> C 	 6.67993 	 -16.8307 	 87.1235
| 28> H 	 9.94188 	 -17.6378 	 86.7469
| 29> C 	 7.47225 	 -19.275 	 86.6353
| 30> H 	 6.69606 	 -19.5967 	 87.226
| 31> H 	 8.37542 	 -19.83 	 86.9927
| 32> C 	 6.95564 	 -19.5897 	 85.208
| 33> H 	 7.6953 	 -19.1706 	 84.5312
| 34> H 	 6.04694 	 -18.928 	 85.0182
| 35> C 	 6.81902 	 -21.1023 	 84.8607
| 36> H 	 7.66254 	 -21.6635 	 85.2893
| 37> H 	 6.87952 	 -21.095 	 83.7493
| 38> H 	 5.99975 	 -21.6066 	 85.2608
| 39> H 	 1.90914 	 -17.0477 	 86.2459
| 40> H 	 9.7342 	 -15.1829 	 87.5594
| 41> *
| 42>
| 43>                          ****END OF INPUT****

CARTESIAN COORDINATES (ANGSTROEM)
---------------------------------
  S      4.309880  -16.597300   85.953000
  C      2.841000  -17.219500   86.710100
  C      3.237300  -17.936200   87.814700
  C      4.670360  -17.912400   88.072800
  C      5.318340  -17.146400   87.166000
  H      5.129160  -18.446100   88.830000
  C      2.300360  -18.543600   88.904000
  H      2.898580  -19.399100   89.292100
  H      1.417660  -18.936600   88.471900
  C      1.850110  -17.606600   90.020300
  H      2.664240  -16.916000   90.372600
  H      1.166630  -16.852400   89.567000
  C      1.179510  -18.395100   91.191700
  H      0.264796  -18.933400   90.856000
  H      1.908580  -19.140300   91.456100
  H      0.839360  -17.793200   91.978500
  S      7.270410  -15.294900   87.603100
  C      8.870910  -15.839200   87.381900
  C      8.989800  -17.183700   87.010300
  C      7.682850  -17.776300   86.940400
  C      6.679930  -16.830700   87.123500
  H      9.941880  -17.637800   86.746900
  C      7.472250  -19.275000   86.635300
  H      6.696060  -19.596700   87.226000
  H      8.375420  -19.830000   86.992700
  C      6.955640  -19.589700   85.208000
  H      7.695300  -19.170600   84.531200
  H      6.046940  -18.928000   85.018200
  C      6.819020  -21.102300   84.860700
  H      7.662540  -21.663500   85.289300
  H      6.879520  -21.095000   83.749300
  H      5.999750  -21.606600   85.260800
  H      1.909140  -17.047700   86.245900
  H      9.734200  -15.182900   87.559400

 Total Charge           Charge          ....    0
 Multiplicity           Mult            ....    1
 Number of Electrons    NEL             ....  134
 Basis Dimension        Dim             ....  322

ORBITAL ENERGIES
----------------

  NO   OCC          E(Eh)            E(eV)
   0   2.0000     -88.969401     -2420.9805
   1   2.0000     -88.958930     -2420.6955
   2   2.0000     -10.316039      -280.7137
   3   2.0000     -10.314040      -280.6593
   4   2.0000     -10.312770      -280.6247
   5   2.0000     -10.311975      -280.6031
   6   2.0000     -10.304613      -280.4028
   7   2.0000     -10.302277      -280.3392
   8   2.0000     -10.295391      -280.1518
   9   2.0000     -10.291710      -280.0517
  10   2.0000     -10.291379      -280.0427
  11   2.0000     -10.287365      -279.9334
  12   2.0000     -10.285635      -279.8863
  13   2.0000     -10.285414      -279.8803
  14   2.0000     -10.278148      -279.6826
  15   2.0000     -10.277127      -279.6548
  16   2.0000      -8.085395      -220.0148
  17   2.0000      -8.075313      -219.7404
  18   2.0000      -6.043651      -164.4561
  19   2.0000      -6.039732      -164.3495
  20   2.0000      -6.036364      -164.2578
  21   2.0000      -6.033715      -164.1857
  22   2.0000      -6.029439      -164.0694
  23   2.0000      -6.026208      -163.9815
  24   2.0000      -1.019360       -27.7382
  25   2.0000      -0.989380       -26.9224
  26   2.0000      -0.908440       -24.7199
  27   2.0000      -0.902437       -24.5566
  28   2.0000      -0.873281       -23.7632
  29   2.0000      -0.850948       -23.1555
  30   2.0000      -0.844912       -22.9912
  31   2.0000      -0.811823       -22.0908
  32   2.0000      -0.785520       -21.3751
  33   2.0000      -0.772061       -21.0088
  34   2.0000      -0.703846       -19.1526
  35   2.0000      -0.699562       -19.0360
  36   2.0000      -0.690808       -18.7978
  37   2.0000      -0.663208       -18.0468
  38   2.0000      -0.652992       -17.7688
  39   2.0000      -0.622629       -16.9426
  40   2.0000      -0.597258       -16.2522
  41   2.0000      -0.565917       -15.3994
  42   2.0000      -0.560827       -15.2609
  43   2.0000      -0.553734       -15.0679
  44   2.0000      -0.529085       -14.3971
  45   2.0000      -0.525525       -14.3003
  46   2.0000      -0.517162       -14.0727
  47   2.0000      -0.514406       -13.9977
  48   2.0000      -0.504357       -13.7243
  49   2.0000      -0.495178       -13.4745
  50   2.0000      -0.493242       -13.4218
  51   2.0000      -0.478261       -13.0141
  52   2.0000      -0.477127       -12.9833
  53   2.0000      -0.463380       -12.6092
  54   2.0000      -0.459467       -12.5027
  55   2.0000      -0.450966       -12.2714
  56   2.0000      -0.448145       -12.1946
  57   2.0000      -0.443842       -12.0776
  58   2.0000      -0.431511       -11.7420
  59   2.0000      -0.423376       -11.5206
  60   2.0000      -0.414909       -11.2903
  61   2.0000      -0.411538       -11.1985
  62   2.0000      -0.407180       -11.0799
  63   2.0000      -0.337930        -9.1955
  64   2.0000      -0.330584        -8.9956
  65   2.0000      -0.326083        -8.8732
  66   2.0000      -0.302471        -8.2306
  67   0.0000       0.043042         1.1712
  68   0.0000       0.067533         1.8377
  69   0.0000       0.118111         3.2140
  70   0.0000       0.119702         3.2573
  71   0.0000       0.132289         3.5998

MULLIKEN ATOMIC CHARGES
-----------------------
   0 S :    0.100507
   1 C :   -0.124984
   2 C :   -0.074356
   3 C :    0.076830
   4 C :   -0.187874
   5 H :   -0.014369
   6 C :    0.058455
   7 H :    0.021129
   8 H :    0.012830
   9 C :   -0.089725
  10 H :    0.035566
  11 H :    0.024826
  12 C :   -0.021548
  13 H :    0.028110
  14 H :    0.030256
  15 H :    0.032109
  16 S :    0.150091
  17 C :   -0.110134
  18 C :   -0.034593
  19 C :   -0.054924
  20 C :   -0.160829
  21 H :    0.023510
  22 C :    0.134042
  23 H :   -0.013656
  24 H :    0.025112
  25 C :   -0.110948
  26 H :    0.020862
  27 H :    0.044113
  28 C :   -0.017810
  29 H :    0.022626
  30 H :    0.046585
  31 H :    0.027400
  32 H :    0.038319
  33 H :    0.062471
Sum of atomic charges:    0.0000000

LOEWDIN ATOMIC CHARGES
----------------------
   0 S :    0.431782
   1 C :   -0.189026
   2 C :   -0.054541
   3 C :   -0.056317
   4 C :   -0.216808
   5 H :    0.019378
   6 C :   -0.030348
   7 H :    0.028974
   8 H :    0.022064
   9 C :   -0.046979
  10 H :    0.027485
  11 H :    0.024037
  12 C :   -0.059305
  13 H :    0.029215
  14 H :    0.024414
  15 H :    0.020015
  16 S :    0.451747
  17 C :   -0.202020
  18 C :   -0.072282
  19 C :   -0.041109
  20 C :   -0.233891
  21 H :    0.033916
  22 C :   -0.032348
  23 H :    0.014867
  24 H :    0.032538
  25 C :   -0.043116
  26 H :    0.019091
  27 H :    0.029939
  28 C :   -0.061673
  29 H :    0.027579
  30 H :    0.036931
  31 H :    0.015381
  32 H :    0.020498
  33 H :    0.029914

  Mayer bond orders larger than 0.100000
B(  0-S ,  1-C ) :   1.1234 B(  0-S ,  4-C ) :   1.1845 B(  1-C ,  2-C ) :   1.5955
B(  1-C , 32-H ) :   0.9931 B(  2-C ,  3-C ) :   1.2214 B(  2-C ,  6-C ) :   1.0224
B(  3-C ,  4-C ) :   1.5775 B(  3-C ,  5-H ) :   1.0121 B(  4-C , 20-C ) :   1.0075
B(  6-C ,  7-H ) :   0.9438 B(  6-C ,  8-H ) :   0.9414 B(  6-C ,  9-C ) :   1.0580
B(  9-C , 10-H ) :   0.9592 B(  9-C , 11-H ) :   0.9523 B(  9-C , 12-C ) :   1.0661
B( 12-C , 13-H ) :   0.9748 B( 12-C , 14-H ) :   0.9783 B( 12-C , 15-H ) :   0.9753
B( 16-S , 17-C ) :   1.1850 B( 16-S , 20-C ) :   1.1608 B( 17-C , 18-C ) :   1.5781
B( 17-C , 20-C ) :   0.1009 B( 17-C , 33-H ) :   0.9641 B( 18-C , 19-C ) :   1.2612
B( 18-C , 21-H ) :   0.9936 B( 19-C , 20-C ) :   1.5732 B( 19-C , 22-C ) :   1.0456
B( 22-C , 23-H ) :   0.9126 B( 22-C , 24-H ) :   0.9342 B( 22-C , 25-C ) :   1.0592
B( 25-C , 26-H ) :   0.9609 B( 25-C , 27-H ) :   0.9501 B( 25-C , 28-C ) :   1.0654
B( 28-C , 29-H ) :   0.9724 B( 28-C , 30-H ) :   0.9779 B( 28-C , 31-H ) :   0.9785

Dispersion correction           -0.014560715
FINAL SINGLE POINT ENERGY     -1339.870907917392

DIPOLE MOMENT
-------------
                                X             Y             Z
Electronic contribution:      9.75575      20.61553      -6.73133
Nuclear contribution   :     -9.79086     -21.02078       6.98888
                        -----------------------------------------
Total Dipole Moment    :     -0.03511      -0.40525       0.25755
                        -----------------------------------------
Magnitude (a.u.)       :      0.48145
Magnitude (Debye)      :      1.22374

Rotational constants in cm-1:     0.018052     0.008474     0.007150
Rotational constants in MHz :   541.195041   254.047853   214.352317

                             ****ORCA TERMINATED NORMALLY****
TOTAL RUN TIME: 0 days 0 hours 0 minutes 34 seconds 465 msec
