                         Program Version 4.2.1 -  RELEASE  -
|  1> ! wB97X-D3 SP def2-SVP
|  2> %pal
|  3> nprocs 16
|  4> end
|  5>
|  6> * xyz 0 1
|  7> S 	 58.4353 	 -5.0158 	 86.8694
|  8> C 	 57.9018 	 -3.46305 	 87.5076
|  9> C 	 56.6872 	 -3.07624 	 87.0319
| 10> C 	 56.2997 	 -3.92787 	 85.9982
| 11> C 	 57.0858 	 -5.02754 	 85.7373
| 12> H 	 55.4354 	 -3.75354 	 85.4613
| 13> C 	 55.8973 	 -1.85752 	 87.4095
| 14> H 	 55.8217 	 -1.79935 	 88.5133
| 15> H 	 54.9617 	 -1.95821 	 86.8719
| 16> C 	 56.553 	 -0.521106 	 86.908
| 17> H 	 56.1966 	 0.317789 	 87.4486
| 18> H 	 57.6333 	 -0.569897 	 87.1522
| 19> C 	 56.3425 	 -0.247239 	 85.3973
| 20> H 	 56.7483 	 -1.07724 	 84.765
| 21> H 	 55.257 	 -0.450773 	 85.0969
| 22> H 	 56.5589 	 0.795137 	 85.0928
| 23> S 	 55.1994 	 -6.68374 	 84.6243
| 24> C 	 55.7308 	 -7.70776 	 83.3247
| 25> C 	 57.0745 	 -7.81646 	 83.2937
| 26> C 	 57.7662 	 -6.9678 	 84.182
| 27> C 	 56.8821 	 -6.1131 	 84.838
| 28> H 	 57.706 	 -8.38895 	 82.5986
| 29> C 	 59.2906 	 -6.82547 	 84.1622
| 30> H 	 59.6623 	 -7.22043 	 85.1413
| 31> H 	 59.2928 	 -5.76985 	 84.1987
| 32> C 	 60.172 	 -7.3539 	 83.0667
| 33> H 	 59.7539 	 -7.10465 	 82.1382
| 34> H 	 60.0927 	 -8.4123 	 83.1003
| 35> C 	 61.651 	 -6.91233 	 83.2026
| 36> H 	 62.0224 	 -6.91095 	 84.2517
| 37> H 	 61.6503 	 -5.83471 	 82.8622
| 38> H 	 62.4161 	 -7.47735 	 82.7052
| 39> H 	 58.3371 	 -2.96482 	 88.4091
| 40> H 	 55.0044 	 -8.31817 	 82.7618
| 41> *
| 42>
| 43>                          ****END OF INPUT****

CARTESIAN COORDINATES (ANGSTROEM)
---------------------------------
  S     58.435300   -5.015800   86.869400
  C     57.901800   -3.463050   87.507600
  C     56.687200   -3.076240   87.031900
  C     56.299700   -3.927870   85.998200
  C     57.085800   -5.027540   85.737300
  H     55.435400   -3.753540   85.461300
  C     55.897300   -1.857520   87.409500
  H     55.821700   -1.799350   88.513300
  H     54.961700   -1.958210   86.871900
  C     56.553000   -0.521106   86.908000
  H     56.196600    0.317789   87.448600
  H     57.633300   -0.569897   87.152200
  C     56.342500   -0.247239   85.397300
  H     56.748300   -1.077240   84.765000
  H     55.257000   -0.450773   85.096900
  H     56.558900    0.795137   85.092800
  S     55.199400   -6.683740   84.624300
  C     55.730800   -7.707760   83.324700
  C     57.074500   -7.816460   83.293700
  C     57.766200   -6.967800   84.182000
  C     56.882100   -6.113100   84.838000
  H     57.706000   -8.388950   82.598600
  C     59.290600   -6.825470   84.162200
  H     59.662300   -7.220430   85.141300
  H     59.292800   -5.769850   84.198700
  C     60.172000   -7.353900   83.066700
  H     59.753900   -7.104650   82.138200
  H     60.092700   -8.412300   83.100300
  C     61.651000   -6.912330   83.202600
  H     62.022400   -6.910950   84.251700
  H     61.650300   -5.834710   82.862200
  H     62.416100   -7.477350   82.705200
  H     58.337100   -2.964820   88.409100
  H     55.004400   -8.318170   82.761800

 Total Charge           Charge          ....    0
 Multiplicity           Mult            ....    1
 Number of Electrons    NEL             ....  134
 Basis Dimension        Dim             ....  322

ORBITAL ENERGIES
----------------

  NO   OCC          E(Eh)            E(eV)
   0   2.0000     -88.966788     -2420.9094
   1   2.0000     -88.964452     -2420.8458
   2   2.0000     -10.326935      -281.0102
   3   2.0000     -10.326002      -280.9848
   4   2.0000     -10.315733      -280.7054
   5   2.0000     -10.313323      -280.6398
   6   2.0000     -10.302152      -280.3358
   7   2.0000     -10.297085      -280.1979
   8   2.0000     -10.292858      -280.0829
   9   2.0000     -10.289511      -279.9918
  10   2.0000     -10.289474      -279.9908
  11   2.0000     -10.289048      -279.9792
  12   2.0000     -10.287449      -279.9357
  13   2.0000     -10.286220      -279.9023
  14   2.0000     -10.283932      -279.8400
  15   2.0000     -10.283365      -279.8246
  16   2.0000      -8.080820      -219.8903
  17   2.0000      -8.078972      -219.8400
  18   2.0000      -6.039347      -164.3390
  19   2.0000      -6.037448      -164.2873
  20   2.0000      -6.035397      -164.2315
  21   2.0000      -6.033734      -164.1862
  22   2.0000      -6.031637      -164.1292
  23   2.0000      -6.029559      -164.0726
  24   2.0000      -1.010256       -27.4905
  25   2.0000      -0.988248       -26.8916
  26   2.0000      -0.914666       -24.8893
  27   2.0000      -0.911344       -24.7989
  28   2.0000      -0.870473       -23.6868
  29   2.0000      -0.854549       -23.2534
  30   2.0000      -0.845082       -22.9959
  31   2.0000      -0.811178       -22.0733
  32   2.0000      -0.783927       -21.3318
  33   2.0000      -0.771243       -20.9866
  34   2.0000      -0.717534       -19.5251
  35   2.0000      -0.705138       -19.1878
  36   2.0000      -0.701475       -19.0881
  37   2.0000      -0.659150       -17.9364
  38   2.0000      -0.636352       -17.3160
  39   2.0000      -0.612123       -16.6567
  40   2.0000      -0.602399       -16.3921
  41   2.0000      -0.577501       -15.7146
  42   2.0000      -0.568415       -15.4674
  43   2.0000      -0.555681       -15.1208
  44   2.0000      -0.535200       -14.5635
  45   2.0000      -0.529240       -14.4013
  46   2.0000      -0.514556       -14.0018
  47   2.0000      -0.511150       -13.9091
  48   2.0000      -0.504054       -13.7160
  49   2.0000      -0.490671       -13.3518
  50   2.0000      -0.487515       -13.2660
  51   2.0000      -0.477246       -12.9865
  52   2.0000      -0.470426       -12.8009
  53   2.0000      -0.465792       -12.6748
  54   2.0000      -0.458776       -12.4839
  55   2.0000      -0.452656       -12.3174
  56   2.0000      -0.444912       -12.1067
  57   2.0000      -0.440309       -11.9814
  58   2.0000      -0.436890       -11.8884
  59   2.0000      -0.427159       -11.6236
  60   2.0000      -0.424139       -11.5414
  61   2.0000      -0.414075       -11.2675
  62   2.0000      -0.409174       -11.1342
  63   2.0000      -0.353888        -9.6298
  64   2.0000      -0.334737        -9.1087
  65   2.0000      -0.330969        -9.0061
  66   2.0000      -0.282484        -7.6868
  67   0.0000       0.018298         0.4979
  68   0.0000       0.079992         2.1767
  69   0.0000       0.104015         2.8304
  70   0.0000       0.116395         3.1673
  71   0.0000       0.131482         3.5778

MULLIKEN ATOMIC CHARGES
-----------------------
   0 S :    0.104354
   1 C :   -0.134450
   2 C :   -0.084910
   3 C :    0.025326
   4 C :   -0.143564
   5 H :   -0.030970
   6 C :    0.070431
   7 H :    0.043166
   8 H :    0.020782
   9 C :   -0.047983
  10 H :    0.021928
  11 H :    0.030930
  12 C :   -0.093596
  13 H :    0.045930
  14 H :    0.019391
  15 H :    0.054860
  16 S :    0.100858
  17 C :   -0.083909
  18 C :   -0.028288
  19 C :   -0.054448
  20 C :   -0.148428
  21 H :    0.018342
  22 C :    0.032865
  23 H :    0.044532
  24 H :    0.026689
  25 C :   -0.026020
  26 H :    0.016977
  27 H :    0.021643
  28 C :   -0.057853
  29 H :    0.033243
  30 H :    0.044506
  31 H :    0.035949
  32 H :    0.056741
  33 H :    0.064976
Sum of atomic charges:   -0.0000000

LOEWDIN ATOMIC CHARGES
----------------------
   0 S :    0.407828
   1 C :   -0.197220
   2 C :   -0.070723
   3 C :   -0.062405
   4 C :   -0.188810
   5 H :    0.013011
   6 C :   -0.023090
   7 H :    0.038999
   8 H :    0.028930
   9 C :   -0.037182
  10 H :    0.016947
  11 H :    0.025717
  12 C :   -0.082116
  13 H :    0.033026
  14 H :    0.027298
  15 H :    0.031536
  16 S :    0.395317
  17 C :   -0.186860
  18 C :   -0.079061
  19 C :   -0.052240
  20 C :   -0.187007
  21 H :    0.033996
  22 C :   -0.038040
  23 H :    0.035478
  24 H :    0.025021
  25 C :   -0.039065
  26 H :    0.017641
  27 H :    0.018872
  28 C :   -0.064353
  29 H :    0.030276
  30 H :    0.035781
  31 H :    0.024180
  32 H :    0.034594
  33 H :    0.033721

  Mayer bond orders larger than 0.100000
B(  0-S ,  1-C ) :   1.1444 B(  0-S ,  4-C ) :   1.1347 B(  1-C ,  2-C ) :   1.6055
B(  1-C , 32-H ) :   0.9544 B(  2-C ,  3-C ) :   1.2664 B(  2-C ,  6-C ) :   1.0265
B(  3-C ,  4-C ) :   1.5361 B(  3-C ,  5-H ) :   1.0050 B(  4-C , 20-C ) :   1.1090
B(  6-C ,  7-H ) :   0.9326 B(  6-C ,  8-H ) :   0.9433 B(  6-C ,  9-C ) :   1.0691
B(  9-C , 10-H ) :   0.9585 B(  9-C , 11-H ) :   0.9562 B(  9-C , 12-C ) :   1.0664
B( 12-C , 13-H ) :   0.9737 B( 12-C , 14-H ) :   0.9716 B( 12-C , 15-H ) :   0.9751
B( 16-S , 17-C ) :   1.1441 B( 16-S , 20-C ) :   1.1304 B( 17-C , 18-C ) :   1.5875
B( 17-C , 33-H ) :   0.9638 B( 18-C , 19-C ) :   1.2760 B( 18-C , 21-H ) :   0.9800
B( 19-C , 20-C ) :   1.5635 B( 19-C , 22-C ) :   1.0052 B( 22-C , 23-H ) :   0.9200
B( 22-C , 24-H ) :   0.9367 B( 22-C , 25-C ) :   1.0909 B( 25-C , 26-H ) :   0.9522
B( 25-C , 27-H ) :   0.9431 B( 25-C , 28-C ) :   1.0729 B( 28-C , 29-H ) :   0.9758
B( 28-C , 30-H ) :   0.9765 B( 28-C , 31-H ) :   0.9757

Dispersion correction           -0.013930804
FINAL SINGLE POINT ENERGY     -1339.868435446541

DIPOLE MOMENT
-------------
                                X             Y             Z
Electronic contribution:    -10.88125     -13.17800       6.06805
Nuclear contribution   :     11.02460      13.35340      -6.16963
                        -----------------------------------------
Total Dipole Moment    :      0.14335       0.17540      -0.10158
                        -----------------------------------------
Magnitude (a.u.)       :      0.24826
Magnitude (Debye)      :      0.63103

Rotational constants in cm-1:     0.019288     0.008014     0.006592
Rotational constants in MHz :   578.230285   240.259125   197.636657

                             ****ORCA TERMINATED NORMALLY****
TOTAL RUN TIME: 0 days 0 hours 0 minutes 30 seconds 551 msec
