                         Program Version 4.2.1 -  RELEASE  -
|  1> ! wB97X-D3 SP def2-SVP
|  2> %pal
|  3> nprocs 16
|  4> end
|  5>
|  6> * xyz 0 1
|  7> S 	 -5.34794 	 53.1686 	 48.8372
|  8> C 	 -5.33135 	 53.6599 	 50.4986
|  9> C 	 -6.52162 	 53.3696 	 51.0896
| 10> C 	 -7.4339 	 52.7021 	 50.1949
| 11> C 	 -6.91243 	 52.4587 	 48.9161
| 12> H 	 -8.29791 	 52.3008 	 50.6018
| 13> C 	 -6.85824 	 53.6674 	 52.5254
| 14> H 	 -6.00548 	 54.0856 	 52.9594
| 15> H 	 -7.02691 	 52.6862 	 52.9261
| 16> C 	 -8.00324 	 54.6348 	 52.7941
| 17> H 	 -7.7586 	 55.5827 	 52.4035
| 18> H 	 -8.89173 	 54.206 	 52.2591
| 19> C 	 -8.36918 	 54.7933 	 54.3076
| 20> H 	 -9.21872 	 55.512 	 54.4145
| 21> H 	 -8.69992 	 53.8264 	 54.7011
| 22> H 	 -7.52948 	 55.0876 	 54.9005
| 23> S 	 -7.12194 	 52.5108 	 46.1619
| 24> C 	 -8.29357 	 51.4497 	 45.4316
| 25> C 	 -9.02262 	 50.7729 	 46.3766
| 26> C 	 -8.55677 	 50.9567 	 47.7156
| 27> C 	 -7.51455 	 51.8797 	 47.7462
| 28> H 	 -9.8149 	 50.041 	 46.0039
| 29> C 	 -8.88883 	 50.0008 	 48.894
| 30> H 	 -9.2466 	 50.5478 	 49.7597
| 31> H 	 -7.98228 	 49.6294 	 49.3613
| 32> C 	 -9.70757 	 48.6904 	 48.7464
| 33> H 	 -9.77713 	 48.0779 	 49.6397
| 34> H 	 -9.29774 	 48.0258 	 47.9937
| 35> C 	 -11.2194 	 48.9489 	 48.3569
| 36> H 	 -11.9424 	 48.1809 	 48.6255
| 37> H 	 -11.3892 	 49.0333 	 47.2749
| 38> H 	 -11.4903 	 49.9611 	 48.7468
| 39> H 	 -4.55753 	 54.1836 	 51.0595
| 40> H 	 -8.29782 	 51.2836 	 44.4027
| 41> *
| 42>
| 43>                          ****END OF INPUT****

CARTESIAN COORDINATES (ANGSTROEM)
---------------------------------
  S     -5.347940   53.168600   48.837200
  C     -5.331350   53.659900   50.498600
  C     -6.521620   53.369600   51.089600
  C     -7.433900   52.702100   50.194900
  C     -6.912430   52.458700   48.916100
  H     -8.297910   52.300800   50.601800
  C     -6.858240   53.667400   52.525400
  H     -6.005480   54.085600   52.959400
  H     -7.026910   52.686200   52.926100
  C     -8.003240   54.634800   52.794100
  H     -7.758600   55.582700   52.403500
  H     -8.891730   54.206000   52.259100
  C     -8.369180   54.793300   54.307600
  H     -9.218720   55.512000   54.414500
  H     -8.699920   53.826400   54.701100
  H     -7.529480   55.087600   54.900500
  S     -7.121940   52.510800   46.161900
  C     -8.293570   51.449700   45.431600
  C     -9.022620   50.772900   46.376600
  C     -8.556770   50.956700   47.715600
  C     -7.514550   51.879700   47.746200
  H     -9.814900   50.041000   46.003900
  C     -8.888830   50.000800   48.894000
  H     -9.246600   50.547800   49.759700
  H     -7.982280   49.629400   49.361300
  C     -9.707570   48.690400   48.746400
  H     -9.777130   48.077900   49.639700
  H     -9.297740   48.025800   47.993700
  C    -11.219400   48.948900   48.356900
  H    -11.942400   48.180900   48.625500
  H    -11.389200   49.033300   47.274900
  H    -11.490300   49.961100   48.746800
  H     -4.557530   54.183600   51.059500
  H     -8.297820   51.283600   44.402700

 Total Charge           Charge          ....    0
 Multiplicity           Mult            ....    1
 Number of Electrons    NEL             ....  134
 Basis Dimension        Dim             ....  322

ORBITAL ENERGIES
----------------

  NO   OCC          E(Eh)            E(eV)
   0   2.0000     -88.967821     -2420.9375
   1   2.0000     -88.964189     -2420.8387
   2   2.0000     -10.330480      -281.1067
   3   2.0000     -10.327681      -281.0305
   4   2.0000     -10.313282      -280.6387
   5   2.0000     -10.310965      -280.5756
   6   2.0000     -10.309320      -280.5309
   7   2.0000     -10.301215      -280.3103
   8   2.0000     -10.298781      -280.2441
   9   2.0000     -10.294929      -280.1393
  10   2.0000     -10.294173      -280.1187
  11   2.0000     -10.290241      -280.0117
  12   2.0000     -10.288080      -279.9529
  13   2.0000     -10.283841      -279.8375
  14   2.0000     -10.283116      -279.8178
  15   2.0000     -10.280823      -279.7554
  16   2.0000      -8.082859      -219.9458
  17   2.0000      -8.079799      -219.8625
  18   2.0000      -6.041313      -164.3925
  19   2.0000      -6.038337      -164.3115
  20   2.0000      -6.037362      -164.2850
  21   2.0000      -6.034111      -164.1965
  22   2.0000      -6.033629      -164.1834
  23   2.0000      -6.030551      -164.0996
  24   2.0000      -1.012349       -27.5474
  25   2.0000      -0.988281       -26.8925
  26   2.0000      -0.916101       -24.9284
  27   2.0000      -0.902891       -24.5689
  28   2.0000      -0.873726       -23.7753
  29   2.0000      -0.851433       -23.1687
  30   2.0000      -0.841547       -22.8997
  31   2.0000      -0.815924       -22.2024
  32   2.0000      -0.787591       -21.4314
  33   2.0000      -0.776208       -21.1217
  34   2.0000      -0.714031       -19.4298
  35   2.0000      -0.702261       -19.1095
  36   2.0000      -0.698564       -19.0089
  37   2.0000      -0.657772       -17.8989
  38   2.0000      -0.635266       -17.2865
  39   2.0000      -0.630415       -17.1545
  40   2.0000      -0.603939       -16.4340
  41   2.0000      -0.572660       -15.5829
  42   2.0000      -0.563185       -15.3250
  43   2.0000      -0.550056       -14.9678
  44   2.0000      -0.537233       -14.6188
  45   2.0000      -0.524398       -14.2696
  46   2.0000      -0.519212       -14.1285
  47   2.0000      -0.511579       -13.9208
  48   2.0000      -0.507496       -13.8097
  49   2.0000      -0.499611       -13.5951
  50   2.0000      -0.495813       -13.4917
  51   2.0000      -0.486600       -13.2411
  52   2.0000      -0.473181       -12.8759
  53   2.0000      -0.466634       -12.6978
  54   2.0000      -0.460012       -12.5176
  55   2.0000      -0.450996       -12.2722
  56   2.0000      -0.441554       -12.0153
  57   2.0000      -0.439566       -11.9612
  58   2.0000      -0.430928       -11.7261
  59   2.0000      -0.424402       -11.5486
  60   2.0000      -0.421461       -11.4685
  61   2.0000      -0.419499       -11.4151
  62   2.0000      -0.413742       -11.2585
  63   2.0000      -0.358680        -9.7602
  64   2.0000      -0.334661        -9.1066
  65   2.0000      -0.327612        -8.9148
  66   2.0000      -0.284827        -7.7505
  67   0.0000       0.018550         0.5048
  68   0.0000       0.086815         2.3624
  69   0.0000       0.107666         2.9297
  70   0.0000       0.121122         3.2959
  71   0.0000       0.138927         3.7804

MULLIKEN ATOMIC CHARGES
-----------------------
   0 S :    0.098481
   1 C :   -0.113399
   2 C :   -0.130911
   3 C :    0.050212
   4 C :   -0.122337
   5 H :   -0.030374
   6 C :    0.111488
   7 H :   -0.011122
   8 H :    0.025638
   9 C :   -0.078485
  10 H :    0.024810
  11 H :    0.033267
  12 C :   -0.044805
  13 H :    0.046415
  14 H :    0.024098
  15 H :    0.029171
  16 S :    0.109702
  17 C :   -0.078270
  18 C :   -0.060896
  19 C :    0.004811
  20 C :   -0.122350
  21 H :    0.044814
  22 C :    0.024171
  23 H :    0.026559
  24 H :    0.036922
  25 C :   -0.053466
  26 H :    0.033716
  27 H :    0.033059
  28 C :   -0.091691
  29 H :    0.037341
  30 H :    0.023009
  31 H :    0.036155
  32 H :    0.044354
  33 H :    0.039915
Sum of atomic charges:   -0.0000000

LOEWDIN ATOMIC CHARGES
----------------------
   0 S :    0.421531
   1 C :   -0.209024
   2 C :   -0.061905
   3 C :   -0.059687
   4 C :   -0.194086
   5 H :    0.011979
   6 C :   -0.027182
   7 H :    0.018817
   8 H :    0.030724
   9 C :   -0.033051
  10 H :    0.018535
  11 H :    0.027195
  12 C :   -0.063146
  13 H :    0.033179
  14 H :    0.023495
  15 H :    0.019625
  16 S :    0.409157
  17 C :   -0.178941
  18 C :   -0.074688
  19 C :   -0.052529
  20 C :   -0.197186
  21 H :    0.045180
  22 C :   -0.036989
  23 H :    0.028094
  24 H :    0.039930
  25 C :   -0.037686
  26 H :    0.030718
  27 H :    0.023524
  28 C :   -0.078882
  29 H :    0.024512
  30 H :    0.019137
  31 H :    0.028536
  32 H :    0.033595
  33 H :    0.017523

  Mayer bond orders larger than 0.100000
B(  0-S ,  1-C ) :   1.1312 B(  0-S ,  4-C ) :   1.1622 B(  1-C ,  2-C ) :   1.6209
B(  1-C , 32-H ) :   0.9620 B(  2-C ,  3-C ) :   1.2707 B(  2-C ,  6-C ) :   1.0270
B(  3-C ,  4-C ) :   1.5164 B(  3-C ,  5-H ) :   0.9986 B(  4-C , 20-C ) :   1.0799
B(  6-C ,  7-H ) :   0.9323 B(  6-C ,  8-H ) :   0.9329 B(  6-C ,  9-C ) :   1.0676
B(  9-C , 10-H ) :   0.9564 B(  9-C , 11-H ) :   0.9573 B(  9-C , 12-C ) :   1.0803
B( 12-C , 13-H ) :   0.9761 B( 12-C , 14-H ) :   0.9756 B( 12-C , 15-H ) :   0.9760
B( 16-S , 17-C ) :   1.1498 B( 16-S , 20-C ) :   1.1459 B( 17-C , 18-C ) :   1.6093
B( 17-C , 20-C ) :   0.1028 B( 17-C , 33-H ) :   0.9754 B( 18-C , 19-C ) :   1.2531
B( 18-C , 21-H ) :   0.9730 B( 19-C , 20-C ) :   1.5869 B( 19-C , 22-C ) :   1.0103
B( 22-C , 23-H ) :   0.9258 B( 22-C , 24-H ) :   0.9403 B( 22-C , 25-C ) :   1.0884
B( 25-C , 26-H ) :   0.9566 B( 25-C , 27-H ) :   0.9575 B( 25-C , 28-C ) :   1.0516
B( 28-C , 29-H ) :   0.9776 B( 28-C , 30-H ) :   0.9762 B( 28-C , 31-H ) :   0.9808

Dispersion correction           -0.013634738
FINAL SINGLE POINT ENERGY     -1339.872957585501

DIPOLE MOMENT
-------------
                                X             Y             Z
Electronic contribution:     18.39223       6.58817     -22.59649
Nuclear contribution   :    -18.70815      -6.91749      23.08366
                        -----------------------------------------
Total Dipole Moment    :     -0.31591      -0.32932       0.48717
                        -----------------------------------------
Magnitude (a.u.)       :      0.66752
Magnitude (Debye)      :      1.69670

Rotational constants in cm-1:     0.017663     0.008239     0.006119
Rotational constants in MHz :   529.518382   246.987226   183.436847

                             ****ORCA TERMINATED NORMALLY****
TOTAL RUN TIME: 0 days 0 hours 0 minutes 32 seconds 833 msec
