                         Program Version 4.2.1 -  RELEASE  -
|  1> ! wB97X-D3 SP def2-SVP
|  2> %pal
|  3> nprocs 16
|  4> end
|  5>
|  6> * xyz 0 1
|  7> S 	 2.26612 	 -9.90597 	 53.7437
|  8> C 	 1.82458 	 -10.303 	 52.1034
|  9> C 	 1.87012 	 -11.6586 	 51.9247
| 10> C 	 2.22873 	 -12.3689 	 53.1363
| 11> C 	 2.12029 	 -11.5599 	 54.2255
| 12> H 	 2.21908 	 -13.4328 	 53.2145
| 13> C 	 1.44533 	 -12.3157 	 50.6459
| 14> H 	 2.21674 	 -13.0869 	 50.4222
| 15> H 	 1.5635 	 -11.6328 	 49.7963
| 16> C 	 0.132219 	 -12.9144 	 50.4535
| 17> H 	 0.236775 	 -13.3752 	 49.4722
| 18> H 	 -0.0220286 	 -13.603 	 51.2684
| 19> C 	 -1.01961 	 -11.9522 	 50.4049
| 20> H 	 -1.005 	 -11.26 	 51.2763
| 21> H 	 -0.862933 	 -11.2495 	 49.5873
| 22> H 	 -1.95116 	 -12.4713 	 50.3379
| 23> S 	 3.184 	 -11.0619 	 56.7247
| 24> C 	 3.21516 	 -12.2707 	 57.9499
| 25> C 	 2.43851 	 -13.3773 	 57.5744
| 26> C 	 1.86401 	 -13.2003 	 56.2436
| 27> C 	 2.21649 	 -11.9892 	 55.6643
| 28> H 	 2.51121 	 -14.2439 	 58.292
| 29> C 	 1.0621 	 -14.3426 	 55.5921
| 30> H 	 1.55353 	 -14.9761 	 54.815
| 31> H 	 0.426987 	 -13.6912 	 54.9942
| 32> C 	 0.342657 	 -15.2786 	 56.6136
| 33> H 	 -0.201661 	 -14.6547 	 57.2838
| 34> H 	 1.11342 	 -15.872 	 57.131
| 35> C 	 -0.673625 	 -16.2541 	 55.9536
| 36> H 	 -1.69521 	 -15.8729 	 55.8843
| 37> H 	 -0.783465 	 -17.1978 	 56.4379
| 38> H 	 -0.341509 	 -16.5575 	 54.9605
| 39> H 	 1.60929 	 -9.58464 	 51.2679
| 40> H 	 3.73801 	 -12.1693 	 58.871
| 41> *
| 42>
| 43>                          ****END OF INPUT****

CARTESIAN COORDINATES (ANGSTROEM)
---------------------------------
  S      2.266120   -9.905970   53.743700
  C      1.824580  -10.303000   52.103400
  C      1.870120  -11.658600   51.924700
  C      2.228730  -12.368900   53.136300
  C      2.120290  -11.559900   54.225500
  H      2.219080  -13.432800   53.214500
  C      1.445330  -12.315700   50.645900
  H      2.216740  -13.086900   50.422200
  H      1.563500  -11.632800   49.796300
  C      0.132219  -12.914400   50.453500
  H      0.236775  -13.375200   49.472200
  H     -0.022029  -13.603000   51.268400
  C     -1.019610  -11.952200   50.404900
  H     -1.005000  -11.260000   51.276300
  H     -0.862933  -11.249500   49.587300
  H     -1.951160  -12.471300   50.337900
  S      3.184000  -11.061900   56.724700
  C      3.215160  -12.270700   57.949900
  C      2.438510  -13.377300   57.574400
  C      1.864010  -13.200300   56.243600
  C      2.216490  -11.989200   55.664300
  H      2.511210  -14.243900   58.292000
  C      1.062100  -14.342600   55.592100
  H      1.553530  -14.976100   54.815000
  H      0.426987  -13.691200   54.994200
  C      0.342657  -15.278600   56.613600
  H     -0.201661  -14.654700   57.283800
  H      1.113420  -15.872000   57.131000
  C     -0.673625  -16.254100   55.953600
  H     -1.695210  -15.872900   55.884300
  H     -0.783465  -17.197800   56.437900
  H     -0.341509  -16.557500   54.960500
  H      1.609290   -9.584640   51.267900
  H      3.738010  -12.169300   58.871000

 Total Charge           Charge          ....    0
 Multiplicity           Mult            ....    1
 Number of Electrons    NEL             ....  134
 Basis Dimension        Dim             ....  322

ORBITAL ENERGIES
----------------

  NO   OCC          E(Eh)            E(eV)
   0   2.0000     -88.965605     -2420.8772
   1   2.0000     -88.963469     -2420.8191
   2   2.0000     -10.333949      -281.2011
   3   2.0000     -10.329242      -281.0730
   4   2.0000     -10.317094      -280.7424
   5   2.0000     -10.314635      -280.6755
   6   2.0000     -10.311967      -280.6029
   7   2.0000     -10.303157      -280.3632
   8   2.0000     -10.299265      -280.2573
   9   2.0000     -10.298092      -280.2253
  10   2.0000     -10.293296      -280.0948
  11   2.0000     -10.292015      -280.0600
  12   2.0000     -10.286080      -279.8985
  13   2.0000     -10.277881      -279.6754
  14   2.0000     -10.277419      -279.6628
  15   2.0000     -10.272532      -279.5298
  16   2.0000      -8.081711      -219.9145
  17   2.0000      -8.079053      -219.8422
  18   2.0000      -6.040153      -164.3609
  19   2.0000      -6.037692      -164.2940
  20   2.0000      -6.035811      -164.2428
  21   2.0000      -6.033628      -164.1834
  22   2.0000      -6.032702      -164.1582
  23   2.0000      -6.029447      -164.0696
  24   2.0000      -1.013525       -27.5794
  25   2.0000      -0.991080       -26.9687
  26   2.0000      -0.925953       -25.1965
  27   2.0000      -0.905654       -24.6441
  28   2.0000      -0.869863       -23.6702
  29   2.0000      -0.853457       -23.2237
  30   2.0000      -0.843334       -22.9483
  31   2.0000      -0.818766       -22.2798
  32   2.0000      -0.785528       -21.3753
  33   2.0000      -0.776510       -21.1299
  34   2.0000      -0.711627       -19.3644
  35   2.0000      -0.701013       -19.0755
  36   2.0000      -0.688704       -18.7406
  37   2.0000      -0.652773       -17.7629
  38   2.0000      -0.636779       -17.3276
  39   2.0000      -0.628101       -17.0915
  40   2.0000      -0.597347       -16.2547
  41   2.0000      -0.577744       -15.7212
  42   2.0000      -0.568341       -15.4653
  43   2.0000      -0.555167       -15.1069
  44   2.0000      -0.547219       -14.8906
  45   2.0000      -0.525443       -14.2980
  46   2.0000      -0.518366       -14.1055
  47   2.0000      -0.510429       -13.8895
  48   2.0000      -0.505260       -13.7488
  49   2.0000      -0.496305       -13.5052
  50   2.0000      -0.490765       -13.3544
  51   2.0000      -0.486205       -13.2303
  52   2.0000      -0.468898       -12.7594
  53   2.0000      -0.467254       -12.7146
  54   2.0000      -0.464149       -12.6301
  55   2.0000      -0.450841       -12.2680
  56   2.0000      -0.443617       -12.0714
  57   2.0000      -0.440783       -11.9943
  58   2.0000      -0.433073       -11.7845
  59   2.0000      -0.424553       -11.5527
  60   2.0000      -0.418851       -11.3975
  61   2.0000      -0.417857       -11.3705
  62   2.0000      -0.404987       -11.0203
  63   2.0000      -0.354932        -9.6582
  64   2.0000      -0.331594        -9.0231
  65   2.0000      -0.325162        -8.8481
  66   2.0000      -0.292748        -7.9661
  67   0.0000       0.025377         0.6905
  68   0.0000       0.079008         2.1499
  69   0.0000       0.100665         2.7392
  70   0.0000       0.117197         3.1891
  71   0.0000       0.129831         3.5329

MULLIKEN ATOMIC CHARGES
-----------------------
   0 S :    0.095225
   1 C :   -0.117327
   2 C :   -0.108030
   3 C :    0.051073
   4 C :   -0.143481
   5 H :   -0.000407
   6 C :    0.021920
   7 H :    0.028152
   8 H :    0.003713
   9 C :   -0.017115
  10 H :    0.030242
  11 H :    0.017488
  12 C :   -0.040132
  13 H :    0.033125
  14 H :    0.010491
  15 H :    0.038483
  16 S :    0.106386
  17 C :   -0.093971
  18 C :   -0.069531
  19 C :   -0.068858
  20 C :   -0.095402
  21 H :    0.048769
  22 C :    0.011338
  23 H :    0.054171
  24 H :    0.031892
  25 C :   -0.064515
  26 H :    0.031349
  27 H :    0.043650
  28 C :   -0.029275
  29 H :    0.038280
  30 H :    0.020445
  31 H :    0.016392
  32 H :    0.064099
  33 H :    0.051358
Sum of atomic charges:    0.0000000

LOEWDIN ATOMIC CHARGES
----------------------
   0 S :    0.398031
   1 C :   -0.204764
   2 C :   -0.064898
   3 C :   -0.061470
   4 C :   -0.181117
   5 H :    0.025221
   6 C :   -0.042343
   7 H :    0.036429
   8 H :    0.026477
   9 C :   -0.041905
  10 H :    0.031267
  11 H :    0.020150
  12 C :   -0.063851
  13 H :    0.029552
  14 H :    0.021071
  15 H :    0.024645
  16 S :    0.433493
  17 C :   -0.190185
  18 C :   -0.082480
  19 C :   -0.056674
  20 C :   -0.214116
  21 H :    0.044680
  22 C :   -0.041505
  23 H :    0.031003
  24 H :    0.032266
  25 C :   -0.033938
  26 H :    0.023812
  27 H :    0.027998
  28 C :   -0.066747
  29 H :    0.028587
  30 H :    0.022651
  31 H :    0.022592
  32 H :    0.041496
  33 H :    0.024571

  Mayer bond orders larger than 0.100000
B(  0-S ,  1-C ) :   1.1122 B(  0-S ,  4-C ) :   1.1538 B(  1-C ,  2-C ) :   1.6426
B(  1-C , 32-H ) :   0.9628 B(  2-C ,  3-C ) :   1.2090 B(  2-C ,  6-C ) :   1.0378
B(  3-C ,  4-C ) :   1.5863 B(  3-C ,  5-H ) :   0.9903 B(  4-C , 20-C ) :   1.0232
B(  6-C ,  7-H ) :   0.9304 B(  6-C ,  8-H ) :   0.9357 B(  6-C ,  9-C ) :   1.0850
B(  9-C , 10-H ) :   0.9449 B(  9-C , 11-H ) :   0.9480 B(  9-C , 12-C ) :   1.0903
B( 12-C , 13-H ) :   0.9732 B( 12-C , 14-H ) :   0.9695 B( 12-C , 15-H ) :   0.9731
B( 16-S , 17-C ) :   1.1802 B( 16-S , 20-C ) :   1.1501 B( 17-C , 18-C ) :   1.5955
B( 17-C , 33-H ) :   0.9700 B( 18-C , 19-C ) :   1.2361 B( 18-C , 21-H ) :   0.9837
B( 19-C , 20-C ) :   1.6061 B( 19-C , 22-C ) :   1.0129 B( 22-C , 23-H ) :   0.9303
B( 22-C , 24-H ) :   0.9391 B( 22-C , 25-C ) :   1.0732 B( 25-C , 26-H ) :   0.9618
B( 25-C , 27-H ) :   0.9491 B( 25-C , 28-C ) :   1.0762 B( 28-C , 29-H ) :   0.9776
B( 28-C , 30-H ) :   0.9744 B( 28-C , 31-H ) :   0.9736

Dispersion correction           -0.013924135
FINAL SINGLE POINT ENERGY     -1339.863107418839

DIPOLE MOMENT
-------------
                                X             Y             Z
Electronic contribution:     18.12235      21.59883      13.02990
Nuclear contribution   :    -18.30356     -22.29054     -13.21713
                        -----------------------------------------
Total Dipole Moment    :     -0.18122      -0.69172      -0.18724
                        -----------------------------------------
Magnitude (a.u.)       :      0.73917
Magnitude (Debye)      :      1.87881

Rotational constants in cm-1:     0.016563     0.009633     0.006438
Rotational constants in MHz :   496.544256   288.775736   193.009527

                             ****ORCA TERMINATED NORMALLY****
TOTAL RUN TIME: 0 days 0 hours 0 minutes 30 seconds 365 msec
