                         Program Version 4.2.1 -  RELEASE  -
|  1> ! wB97X-D3 SP def2-SVP
|  2> %pal
|  3> nprocs 16
|  4> end
|  5>
|  6> * xyz 0 1
|  7> S 	 49.0438 	 26.2079 	 42.6277
|  8> C 	 50.7307 	 25.5976 	 42.3684
|  9> C 	 51.5217 	 25.9102 	 43.4911
| 10> C 	 50.7339 	 26.5569 	 44.494
| 11> C 	 49.4301 	 26.8301 	 44.1761
| 12> H 	 51.1038 	 26.8591 	 45.4401
| 13> C 	 52.9177 	 25.4699 	 43.5722
| 14> H 	 53.0927 	 24.6446 	 42.9057
| 15> H 	 52.9437 	 24.9876 	 44.5174
| 16> C 	 54.022 	 26.6172 	 43.534
| 17> H 	 53.7948 	 27.2086 	 42.6291
| 18> H 	 53.8628 	 27.2616 	 44.3936
| 19> C 	 55.4674 	 26.1152 	 43.5177
| 20> H 	 55.5154 	 25.1485 	 43.993
| 21> H 	 55.9411 	 26.0624 	 42.5471
| 22> H 	 56.1503 	 26.6918 	 44.1063
| 23> S 	 48.2453 	 29.2769 	 45.0436
| 24> C 	 47.0738 	 29.2573 	 46.3785
| 25> C 	 46.988 	 27.9417 	 46.837
| 26> C 	 47.7405 	 26.9416 	 46.1002
| 27> C 	 48.5181 	 27.524 	 45.1182
| 28> H 	 46.3026 	 27.8118 	 47.6753
| 29> C 	 47.7334 	 25.4884 	 46.4672
| 30> H 	 48.0568 	 24.9198 	 45.6055
| 31> H 	 46.7583 	 25.0848 	 46.5638
| 32> C 	 48.6518 	 25.1902 	 47.6526
| 33> H 	 48.3936 	 25.7295 	 48.4947
| 34> H 	 49.5535 	 25.5405 	 47.3941
| 35> C 	 48.6906 	 23.7332 	 48.0177
| 36> H 	 49.1902 	 23.1282 	 47.282
| 37> H 	 47.6371 	 23.3912 	 48.0623
| 38> H 	 49.2053 	 23.6156 	 48.9916
| 39> H 	 51.0244 	 25.1347 	 41.4691
| 40> H 	 46.5024 	 30.0464 	 46.7171
| 41> *
| 42>
| 43>                          ****END OF INPUT****

CARTESIAN COORDINATES (ANGSTROEM)
---------------------------------
  S     49.043800   26.207900   42.627700
  C     50.730700   25.597600   42.368400
  C     51.521700   25.910200   43.491100
  C     50.733900   26.556900   44.494000
  C     49.430100   26.830100   44.176100
  H     51.103800   26.859100   45.440100
  C     52.917700   25.469900   43.572200
  H     53.092700   24.644600   42.905700
  H     52.943700   24.987600   44.517400
  C     54.022000   26.617200   43.534000
  H     53.794800   27.208600   42.629100
  H     53.862800   27.261600   44.393600
  C     55.467400   26.115200   43.517700
  H     55.515400   25.148500   43.993000
  H     55.941100   26.062400   42.547100
  H     56.150300   26.691800   44.106300
  S     48.245300   29.276900   45.043600
  C     47.073800   29.257300   46.378500
  C     46.988000   27.941700   46.837000
  C     47.740500   26.941600   46.100200
  C     48.518100   27.524000   45.118200
  H     46.302600   27.811800   47.675300
  C     47.733400   25.488400   46.467200
  H     48.056800   24.919800   45.605500
  H     46.758300   25.084800   46.563800
  C     48.651800   25.190200   47.652600
  H     48.393600   25.729500   48.494700
  H     49.553500   25.540500   47.394100
  C     48.690600   23.733200   48.017700
  H     49.190200   23.128200   47.282000
  H     47.637100   23.391200   48.062300
  H     49.205300   23.615600   48.991600
  H     51.024400   25.134700   41.469100
  H     46.502400   30.046400   46.717100

 Total Charge           Charge          ....    0
 Multiplicity           Mult            ....    1
 Number of Electrons    NEL             ....  134
 Basis Dimension        Dim             ....  322

ORBITAL ENERGIES
----------------

  NO   OCC          E(Eh)            E(eV)
   0   2.0000     -88.966167     -2420.8925
   1   2.0000     -88.963286     -2420.8141
   2   2.0000     -10.329235      -281.0728
   3   2.0000     -10.327607      -281.0285
   4   2.0000     -10.318128      -280.7705
   5   2.0000     -10.317483      -280.7530
   6   2.0000     -10.304732      -280.4060
   7   2.0000     -10.303675      -280.3772
   8   2.0000     -10.296765      -280.1892
   9   2.0000     -10.293214      -280.0926
  10   2.0000     -10.290046      -280.0064
  11   2.0000     -10.288718      -279.9702
  12   2.0000     -10.282142      -279.7913
  13   2.0000     -10.275470      -279.6098
  14   2.0000     -10.275132      -279.6006
  15   2.0000     -10.265483      -279.3380
  16   2.0000      -8.080378      -219.8783
  17   2.0000      -8.077139      -219.7901
  18   2.0000      -6.038846      -164.3253
  19   2.0000      -6.035791      -164.2422
  20   2.0000      -6.034831      -164.2161
  21   2.0000      -6.031651      -164.1296
  22   2.0000      -6.031330      -164.1208
  23   2.0000      -6.027911      -164.0278
  24   2.0000      -1.001948       -27.2644
  25   2.0000      -0.978855       -26.6360
  26   2.0000      -0.915560       -24.9137
  27   2.0000      -0.911679       -24.8080
  28   2.0000      -0.866924       -23.5902
  29   2.0000      -0.850763       -23.1504
  30   2.0000      -0.845963       -23.0198
  31   2.0000      -0.816250       -22.2113
  32   2.0000      -0.783418       -21.3179
  33   2.0000      -0.772144       -21.0111
  34   2.0000      -0.711483       -19.3604
  35   2.0000      -0.709328       -19.3018
  36   2.0000      -0.700822       -19.0703
  37   2.0000      -0.659841       -17.9552
  38   2.0000      -0.645787       -17.5728
  39   2.0000      -0.619951       -16.8697
  40   2.0000      -0.596521       -16.2322
  41   2.0000      -0.572048       -15.5662
  42   2.0000      -0.569929       -15.5086
  43   2.0000      -0.558710       -15.2033
  44   2.0000      -0.532693       -14.4953
  45   2.0000      -0.524597       -14.2750
  46   2.0000      -0.517848       -14.0914
  47   2.0000      -0.516447       -14.0532
  48   2.0000      -0.513775       -13.9805
  49   2.0000      -0.506566       -13.7843
  50   2.0000      -0.493594       -13.4314
  51   2.0000      -0.475076       -12.9275
  52   2.0000      -0.466505       -12.6942
  53   2.0000      -0.463704       -12.6180
  54   2.0000      -0.457373       -12.4457
  55   2.0000      -0.453885       -12.3508
  56   2.0000      -0.442272       -12.0348
  57   2.0000      -0.437359       -11.9012
  58   2.0000      -0.432443       -11.7674
  59   2.0000      -0.428667       -11.6646
  60   2.0000      -0.421207       -11.4616
  61   2.0000      -0.416941       -11.3455
  62   2.0000      -0.414036       -11.2665
  63   2.0000      -0.332384        -9.0446
  64   2.0000      -0.325803        -8.8655
  65   2.0000      -0.319438        -8.6923
  66   2.0000      -0.317224        -8.6321
  67   0.0000       0.045607         1.2410
  68   0.0000       0.052259         1.4220
  69   0.0000       0.116727         3.1763
  70   0.0000       0.126128         3.4321
  71   0.0000       0.127773         3.4769

MULLIKEN ATOMIC CHARGES
-----------------------
   0 S :    0.109572
   1 C :   -0.133068
   2 C :   -0.068150
   3 C :    0.047586
   4 C :   -0.161743
   5 H :   -0.003406
   6 C :    0.084216
   7 H :    0.014277
   8 H :    0.014688
   9 C :   -0.077530
  10 H :    0.039730
  11 H :    0.032668
  12 C :   -0.021960
  13 H :    0.020171
  14 H :    0.036754
  15 H :    0.021846
  16 S :    0.099800
  17 C :   -0.076834
  18 C :   -0.038959
  19 C :   -0.025325
  20 C :   -0.182304
  21 H :    0.021711
  22 C :    0.098067
  23 H :    0.010742
  24 H :    0.007844
  25 C :    0.015200
  26 H :    0.002875
  27 H :   -0.020135
  28 C :   -0.035214
  29 H :    0.028276
  30 H :    0.027249
  31 H :    0.038360
  32 H :    0.037947
  33 H :    0.035051
Sum of atomic charges:    0.0000000

LOEWDIN ATOMIC CHARGES
----------------------
   0 S :    0.399279
   1 C :   -0.171219
   2 C :   -0.055791
   3 C :   -0.058750
   4 C :   -0.207468
   5 H :    0.023007
   6 C :   -0.034289
   7 H :    0.028765
   8 H :    0.029533
   9 C :   -0.033979
  10 H :    0.028552
  11 H :    0.025278
  12 C :   -0.068365
  13 H :    0.024948
  14 H :    0.027550
  15 H :    0.025120
  16 S :    0.382998
  17 C :   -0.166545
  18 C :   -0.069820
  19 C :   -0.049016
  20 C :   -0.193107
  21 H :    0.030785
  22 C :   -0.026633
  23 H :    0.030374
  24 H :    0.023783
  25 C :   -0.023829
  26 H :    0.015948
  27 H :    0.007444
  28 C :   -0.059032
  29 H :    0.021359
  30 H :    0.027394
  31 H :    0.030551
  32 H :    0.017675
  33 H :    0.017500

  Mayer bond orders larger than 0.100000
B(  0-S ,  1-C ) :   1.1371 B(  0-S ,  4-C ) :   1.1529 B(  1-C ,  2-C ) :   1.5716
B(  1-C , 32-H ) :   0.9803 B(  2-C ,  3-C ) :   1.2407 B(  2-C ,  6-C ) :   1.0383
B(  3-C ,  4-C ) :   1.5831 B(  3-C ,  5-H ) :   0.9953 B(  4-C , 20-C ) :   1.0103
B(  6-C ,  7-H ) :   0.9426 B(  6-C ,  8-H ) :   0.9232 B(  6-C ,  9-C ) :   1.0467
B(  9-C , 10-H ) :   0.9642 B(  9-C , 11-H ) :   0.9600 B(  9-C , 12-C ) :   1.0728
B( 12-C , 13-H ) :   0.9736 B( 12-C , 14-H ) :   0.9770 B( 12-C , 15-H ) :   0.9743
B( 16-S , 17-C ) :   1.1421 B( 16-S , 20-C ) :   1.1360 B( 17-C , 18-C ) :   1.6274
B( 17-C , 33-H ) :   0.9793 B( 18-C , 19-C ) :   1.2123 B( 18-C , 21-H ) :   0.9876
B( 19-C , 20-C ) :   1.6163 B( 19-C , 22-C ) :   1.0615 B( 22-C , 23-H ) :   0.9160
B( 22-C , 24-H ) :   0.9265 B( 22-C , 25-C ) :   1.0625 B( 25-C , 26-H ) :   0.9531
B( 25-C , 27-H ) :   0.9399 B( 25-C , 28-C ) :   1.0928 B( 28-C , 29-H ) :   0.9748
B( 28-C , 30-H ) :   0.9724 B( 28-C , 31-H ) :   0.9726

Dispersion correction           -0.014210341
FINAL SINGLE POINT ENERGY     -1339.871535152559

DIPOLE MOMENT
-------------
                                X             Y             Z
Electronic contribution:    -18.45275      15.53260     -10.94087
Nuclear contribution   :     18.82358     -15.90523      11.34166
                        -----------------------------------------
Total Dipole Moment    :      0.37083      -0.37264       0.40079
                        -----------------------------------------
Magnitude (a.u.)       :      0.66106
Magnitude (Debye)      :      1.68029

Rotational constants in cm-1:     0.017620     0.007917     0.006876
Rotational constants in MHz :   528.243046   237.344796   206.150231

                             ****ORCA TERMINATED NORMALLY****
TOTAL RUN TIME: 0 days 0 hours 0 minutes 33 seconds 541 msec
