                         Program Version 4.2.1 -  RELEASE  -
|  1> ! wB97X-D3 SP def2-SVP
|  2> %pal
|  3> nprocs 16
|  4> end
|  5>
|  6> * xyz 0 1
|  7> S 	 -71.0875 	 50.521 	 134.888
|  8> C 	 -70.6722 	 51.162 	 136.471
|  9> C 	 -71.3389 	 50.4221 	 137.486
| 10> C 	 -72.0906 	 49.3613 	 136.959
| 11> C 	 -72.1974 	 49.4172 	 135.596
| 12> H 	 -72.6175 	 48.63 	 137.53
| 13> C 	 -71.0319 	 50.5693 	 138.941
| 14> H 	 -71.6057 	 49.741 	 139.346
| 15> H 	 -71.5677 	 51.5134 	 139.198
| 16> C 	 -69.5806 	 50.3568 	 139.282
| 17> H 	 -69.1418 	 49.4105 	 138.991
| 18> H 	 -68.9812 	 51.0511 	 138.656
| 19> C 	 -69.2021 	 50.7425 	 140.73
| 20> H 	 -68.1373 	 50.4649 	 140.909
| 21> H 	 -69.3308 	 51.8504 	 140.921
| 22> H 	 -69.7664 	 50.3134 	 141.583
| 23> S 	 -71.9748 	 47.1335 	 133.977
| 24> C 	 -73.412 	 46.2753 	 133.5
| 25> C 	 -74.5291 	 46.8918 	 134.027
| 26> C 	 -74.2366 	 48.1508 	 134.569
| 27> C 	 -72.8845 	 48.4661 	 134.707
| 28> H 	 -75.4791 	 46.3516 	 133.876
| 29> C 	 -75.3547 	 49.0659 	 135.012
| 30> H 	 -76.2138 	 48.7965 	 134.376
| 31> H 	 -75.1307 	 50.1006 	 134.745
| 32> C 	 -75.8033 	 48.9711 	 136.46
| 33> H 	 -74.8728 	 49.0356 	 137.018
| 34> H 	 -76.2052 	 47.9511 	 136.587
| 35> C 	 -76.9239 	 49.8898 	 137.046
| 36> H 	 -77.2538 	 49.5826 	 138.065
| 37> H 	 -77.725 	 50.1879 	 136.412
| 38> H 	 -76.4304 	 50.8091 	 137.128
| 39> H 	 -69.7957 	 51.7866 	 136.503
| 40> H 	 -73.3731 	 45.3387 	 133.001
| 41> *
| 42>
| 43>                          ****END OF INPUT****

CARTESIAN COORDINATES (ANGSTROEM)
---------------------------------
  S    -71.087500   50.521000  134.888000
  C    -70.672200   51.162000  136.471000
  C    -71.338900   50.422100  137.486000
  C    -72.090600   49.361300  136.959000
  C    -72.197400   49.417200  135.596000
  H    -72.617500   48.630000  137.530000
  C    -71.031900   50.569300  138.941000
  H    -71.605700   49.741000  139.346000
  H    -71.567700   51.513400  139.198000
  C    -69.580600   50.356800  139.282000
  H    -69.141800   49.410500  138.991000
  H    -68.981200   51.051100  138.656000
  C    -69.202100   50.742500  140.730000
  H    -68.137300   50.464900  140.909000
  H    -69.330800   51.850400  140.921000
  H    -69.766400   50.313400  141.583000
  S    -71.974800   47.133500  133.977000
  C    -73.412000   46.275300  133.500000
  C    -74.529100   46.891800  134.027000
  C    -74.236600   48.150800  134.569000
  C    -72.884500   48.466100  134.707000
  H    -75.479100   46.351600  133.876000
  C    -75.354700   49.065900  135.012000
  H    -76.213800   48.796500  134.376000
  H    -75.130700   50.100600  134.745000
  C    -75.803300   48.971100  136.460000
  H    -74.872800   49.035600  137.018000
  H    -76.205200   47.951100  136.587000
  C    -76.923900   49.889800  137.046000
  H    -77.253800   49.582600  138.065000
  H    -77.725000   50.187900  136.412000
  H    -76.430400   50.809100  137.128000
  H    -69.795700   51.786600  136.503000
  H    -73.373100   45.338700  133.001000

 Total Charge           Charge          ....    0
 Multiplicity           Mult            ....    1
 Number of Electrons    NEL             ....  134
 Basis Dimension        Dim             ....  322

ORBITAL ENERGIES
----------------

  NO   OCC          E(Eh)            E(eV)
   0   2.0000     -88.966074     -2420.8900
   1   2.0000     -88.961738     -2420.7720
   2   2.0000     -10.327235      -281.0183
   3   2.0000     -10.325499      -280.9711
   4   2.0000     -10.316388      -280.7232
   5   2.0000     -10.315401      -280.6963
   6   2.0000     -10.302921      -280.3567
   7   2.0000     -10.302184      -280.3367
   8   2.0000     -10.293732      -280.1067
   9   2.0000     -10.292983      -280.0863
  10   2.0000     -10.292862      -280.0830
  11   2.0000     -10.292571      -280.0751
  12   2.0000     -10.287489      -279.9368
  13   2.0000     -10.285399      -279.8799
  14   2.0000     -10.283214      -279.8205
  15   2.0000     -10.273766      -279.5634
  16   2.0000      -8.081392      -219.9059
  17   2.0000      -8.076523      -219.7734
  18   2.0000      -6.039584      -164.3454
  19   2.0000      -6.035717      -164.2402
  20   2.0000      -6.034901      -164.2180
  21   2.0000      -6.032572      -164.1546
  22   2.0000      -6.030893      -164.1089
  23   2.0000      -6.027543      -164.0178
  24   2.0000      -1.009671       -27.4745
  25   2.0000      -0.987695       -26.8765
  26   2.0000      -0.917707       -24.9721
  27   2.0000      -0.904404       -24.6101
  28   2.0000      -0.865569       -23.5533
  29   2.0000      -0.854894       -23.2629
  30   2.0000      -0.847201       -23.0535
  31   2.0000      -0.815843       -22.2002
  32   2.0000      -0.783884       -21.3306
  33   2.0000      -0.770585       -20.9687
  34   2.0000      -0.710043       -19.3212
  35   2.0000      -0.701998       -19.1023
  36   2.0000      -0.690438       -18.7878
  37   2.0000      -0.660159       -17.9638
  38   2.0000      -0.649608       -17.6767
  39   2.0000      -0.620689       -16.8898
  40   2.0000      -0.594413       -16.1748
  41   2.0000      -0.570146       -15.5145
  42   2.0000      -0.562992       -15.3198
  43   2.0000      -0.554614       -15.0918
  44   2.0000      -0.534389       -14.5415
  45   2.0000      -0.525824       -14.3084
  46   2.0000      -0.516865       -14.0646
  47   2.0000      -0.512980       -13.9589
  48   2.0000      -0.509981       -13.8773
  49   2.0000      -0.503173       -13.6920
  50   2.0000      -0.490083       -13.3358
  51   2.0000      -0.475656       -12.9433
  52   2.0000      -0.470978       -12.8160
  53   2.0000      -0.463650       -12.6166
  54   2.0000      -0.461412       -12.5557
  55   2.0000      -0.452962       -12.3257
  56   2.0000      -0.446300       -12.1444
  57   2.0000      -0.443835       -12.0774
  58   2.0000      -0.430183       -11.7059
  59   2.0000      -0.421951       -11.4819
  60   2.0000      -0.412641       -11.2285
  61   2.0000      -0.408260       -11.1093
  62   2.0000      -0.402981       -10.9657
  63   2.0000      -0.340985        -9.2787
  64   2.0000      -0.329976        -8.9791
  65   2.0000      -0.322658        -8.7800
  66   2.0000      -0.303336        -8.2542
  67   0.0000       0.031685         0.8622
  68   0.0000       0.055879         1.5206
  69   0.0000       0.113226         3.0810
  70   0.0000       0.127836         3.4786
  71   0.0000       0.129747         3.5306

MULLIKEN ATOMIC CHARGES
-----------------------
   0 S :    0.112462
   1 C :   -0.136622
   2 C :   -0.126547
   3 C :    0.059067
   4 C :   -0.181323
   5 H :    0.021540
   6 C :    0.102858
   7 H :    0.011557
   8 H :    0.054544
   9 C :   -0.064963
  10 H :    0.033551
  11 H :    0.022685
  12 C :   -0.077553
  13 H :    0.039460
  14 H :    0.036130
  15 H :    0.033642
  16 S :    0.096817
  17 C :   -0.095711
  18 C :   -0.040828
  19 C :   -0.049034
  20 C :   -0.128603
  21 H :    0.033710
  22 C :    0.071439
  23 H :    0.013610
  24 H :    0.026059
  25 C :   -0.084682
  26 H :    0.015422
  27 H :    0.018525
  28 C :   -0.006311
  29 H :    0.045090
  30 H :    0.022553
  31 H :    0.009709
  32 H :    0.059773
  33 H :    0.051973
Sum of atomic charges:   -0.0000000

LOEWDIN ATOMIC CHARGES
----------------------
   0 S :    0.429893
   1 C :   -0.199103
   2 C :   -0.059904
   3 C :   -0.056977
   4 C :   -0.206861
   5 H :    0.030701
   6 C :   -0.037176
   7 H :    0.029395
   8 H :    0.045541
   9 C :   -0.042031
  10 H :    0.029324
  11 H :    0.026828
  12 C :   -0.077152
  13 H :    0.029993
  14 H :    0.029815
  15 H :    0.023867
  16 S :    0.402122
  17 C :   -0.178062
  18 C :   -0.078071
  19 C :   -0.055111
  20 C :   -0.206408
  21 H :    0.040422
  22 C :   -0.034054
  23 H :    0.029073
  24 H :    0.028719
  25 C :   -0.043035
  26 H :    0.019819
  27 H :    0.020713
  28 C :   -0.065630
  29 H :    0.035110
  30 H :    0.022929
  31 H :    0.020007
  32 H :    0.021376
  33 H :    0.023929

  Mayer bond orders larger than 0.100000
B(  0-S ,  1-C ) :   1.1673 B(  0-S ,  4-C ) :   1.1921 B(  1-C ,  2-C ) :   1.5340
B(  1-C ,  4-C ) :   0.1091 B(  1-C , 32-H ) :   0.9750 B(  2-C ,  3-C ) :   1.3010
B(  2-C ,  6-C ) :   1.0087 B(  3-C ,  4-C ) :   1.5446 B(  3-C ,  5-H ) :   0.9852
B(  4-C , 20-C ) :   0.9935 B(  6-C ,  7-H ) :   0.9366 B(  6-C ,  8-H ) :   0.9318
B(  6-C ,  9-C ) :   1.0624 B(  9-C , 10-H ) :   0.9562 B(  9-C , 11-H ) :   0.9543
B(  9-C , 12-C ) :   1.0729 B( 12-C , 13-H ) :   0.9748 B( 12-C , 14-H ) :   0.9767
B( 12-C , 15-H ) :   0.9771 B( 16-S , 17-C ) :   1.1821 B( 16-S , 20-C ) :   1.1400
B( 17-C , 18-C ) :   1.5763 B( 17-C , 20-C ) :   0.1051 B( 17-C , 33-H ) :   0.9708
B( 18-C , 19-C ) :   1.2692 B( 18-C , 21-H ) :   0.9911 B( 19-C , 20-C ) :   1.5828
B( 19-C , 22-C ) :   1.0425 B( 22-C , 23-H ) :   0.9298 B( 22-C , 24-H ) :   0.9368
B( 22-C , 25-C ) :   1.0641 B( 25-C , 26-H ) :   0.9541 B( 25-C , 27-H ) :   0.9568
B( 25-C , 28-C ) :   1.0687 B( 28-C , 29-H ) :   0.9746 B( 28-C , 30-H ) :   0.9747
B( 28-C , 31-H ) :   0.9707

Dispersion correction           -0.014158566
FINAL SINGLE POINT ENERGY     -1339.863393337454

DIPOLE MOMENT
-------------
                                X             Y             Z
Electronic contribution:      8.16300      -7.33959     -24.23059
Nuclear contribution   :     -8.30426       7.23467      24.73455
                        -----------------------------------------
Total Dipole Moment    :     -0.14126      -0.10492       0.50395
                        -----------------------------------------
Magnitude (a.u.)       :      0.53379
Magnitude (Debye)      :      1.35679

Rotational constants in cm-1:     0.018484     0.008139     0.006614
Rotational constants in MHz :   554.121474   243.989616   198.274093

                             ****ORCA TERMINATED NORMALLY****
TOTAL RUN TIME: 0 days 0 hours 0 minutes 34 seconds 517 msec
