                         Program Version 4.2.1 -  RELEASE  -
|  1> ! wB97X-D3 SP def2-SVP
|  2> %pal
|  3> nprocs 16
|  4> end
|  5>
|  6> * xyz 0 1
|  7> S 	 -96.0903 	 42.9373 	 114.244
|  8> C 	 -95.0462 	 44.023 	 115.052
|  9> C 	 -95.7596 	 44.9418 	 115.786
| 10> C 	 -97.1514 	 44.8502 	 115.633
| 11> C 	 -97.5266 	 43.7469 	 114.889
| 12> H 	 -97.897 	 45.4181 	 116.147
| 13> C 	 -95.0672 	 45.8101 	 116.729
| 14> H 	 -95.7857 	 46.6839 	 116.767
| 15> H 	 -94.1211 	 46.2113 	 116.401
| 16> C 	 -94.897 	 45.3096 	 118.181
| 17> H 	 -95.8428 	 45.3998 	 118.68
| 18> H 	 -94.6552 	 44.2631 	 118.191
| 19> C 	 -93.8153 	 46.0045 	 118.994
| 20> H 	 -94.0368 	 47.0433 	 119.138
| 21> H 	 -93.8227 	 45.436 	 119.96
| 22> H 	 -92.8053 	 45.8279 	 118.574
| 23> S 	 -99.0554 	 42.8812 	 112.795
| 24> C 	 -100.643 	 42.4931 	 113.074
| 25> C 	 -101.133 	 42.8691 	 114.277
| 26> C 	 -100.098 	 43.3417 	 115.198
| 27> C 	 -98.8804 	 43.355 	 114.474
| 28> H 	 -102.2 	 42.6882 	 114.498
| 29> C 	 -100.445 	 43.6876 	 116.637
| 30> H 	 -99.4759 	 43.2754 	 116.96
| 31> H 	 -101.319 	 42.9847 	 116.99
| 32> C 	 -100.694 	 45.1632 	 117.104
| 33> H 	 -101.694 	 45.3639 	 116.819
| 34> H 	 -100.021 	 45.9012 	 116.738
| 35> C 	 -100.633 	 45.1372 	 118.605
| 36> H 	 -100.969 	 44.1693 	 119.04
| 37> H 	 -101.329 	 45.8212 	 119.131
| 38> H 	 -99.6505 	 45.3606 	 118.976
| 39> H 	 -94.0065 	 43.8986 	 115.12
| 40> H 	 -101.405 	 42.0597 	 112.331
| 41> *
| 42>
| 43>                          ****END OF INPUT****

CARTESIAN COORDINATES (ANGSTROEM)
---------------------------------
  S    -96.090300   42.937300  114.244000
  C    -95.046200   44.023000  115.052000
  C    -95.759600   44.941800  115.786000
  C    -97.151400   44.850200  115.633000
  C    -97.526600   43.746900  114.889000
  H    -97.897000   45.418100  116.147000
  C    -95.067200   45.810100  116.729000
  H    -95.785700   46.683900  116.767000
  H    -94.121100   46.211300  116.401000
  C    -94.897000   45.309600  118.181000
  H    -95.842800   45.399800  118.680000
  H    -94.655200   44.263100  118.191000
  C    -93.815300   46.004500  118.994000
  H    -94.036800   47.043300  119.138000
  H    -93.822700   45.436000  119.960000
  H    -92.805300   45.827900  118.574000
  S    -99.055400   42.881200  112.795000
  C    -100.643000   42.493100  113.074000
  C    -101.133000   42.869100  114.277000
  C    -100.098000   43.341700  115.198000
  C    -98.880400   43.355000  114.474000
  H    -102.200000   42.688200  114.498000
  C    -100.445000   43.687600  116.637000
  H    -99.475900   43.275400  116.960000
  H    -101.319000   42.984700  116.990000
  C    -100.694000   45.163200  117.104000
  H    -101.694000   45.363900  116.819000
  H    -100.021000   45.901200  116.738000
  C    -100.633000   45.137200  118.605000
  H    -100.969000   44.169300  119.040000
  H    -101.329000   45.821200  119.131000
  H    -99.650500   45.360600  118.976000
  H    -94.006500   43.898600  115.120000
  H    -101.405000   42.059700  112.331000

 Total Charge           Charge          ....    0
 Multiplicity           Mult            ....    1
 Number of Electrons    NEL             ....  134
 Basis Dimension        Dim             ....  322

ORBITAL ENERGIES
----------------

  NO   OCC          E(Eh)            E(eV)
   0   2.0000     -88.966375     -2420.8981
   1   2.0000     -88.964765     -2420.8543
   2   2.0000     -10.329789      -281.0879
   3   2.0000     -10.328240      -281.0457
   4   2.0000     -10.309171      -280.5268
   5   2.0000     -10.308849      -280.5180
   6   2.0000     -10.306386      -280.4510
   7   2.0000     -10.304128      -280.3896
   8   2.0000     -10.292084      -280.0618
   9   2.0000     -10.290966      -280.0314
  10   2.0000     -10.289456      -279.9903
  11   2.0000     -10.287372      -279.9336
  12   2.0000     -10.286224      -279.9024
  13   2.0000     -10.281489      -279.7735
  14   2.0000     -10.280623      -279.7500
  15   2.0000     -10.279007      -279.7060
  16   2.0000      -8.082851      -219.9456
  17   2.0000      -8.079918      -219.8657
  18   2.0000      -6.041197      -164.3893
  19   2.0000      -6.038329      -164.3113
  20   2.0000      -6.037248      -164.2819
  21   2.0000      -6.034248      -164.2002
  22   2.0000      -6.033532      -164.1807
  23   2.0000      -6.030882      -164.1086
  24   2.0000      -1.011595       -27.5269
  25   2.0000      -0.991913       -26.9913
  26   2.0000      -0.914096       -24.8738
  27   2.0000      -0.913987       -24.8709
  28   2.0000      -0.869935       -23.6721
  29   2.0000      -0.860935       -23.4272
  30   2.0000      -0.853034       -23.2122
  31   2.0000      -0.817065       -22.2335
  32   2.0000      -0.781115       -21.2552
  33   2.0000      -0.765308       -20.8251
  34   2.0000      -0.713797       -19.4234
  35   2.0000      -0.699108       -19.0237
  36   2.0000      -0.693383       -18.8679
  37   2.0000      -0.659326       -17.9412
  38   2.0000      -0.638986       -17.3877
  39   2.0000      -0.623121       -16.9560
  40   2.0000      -0.592056       -16.1107
  41   2.0000      -0.576426       -15.6854
  42   2.0000      -0.570927       -15.5357
  43   2.0000      -0.557380       -15.1671
  44   2.0000      -0.526161       -14.3176
  45   2.0000      -0.522934       -14.2297
  46   2.0000      -0.518183       -14.1005
  47   2.0000      -0.512599       -13.9485
  48   2.0000      -0.509967       -13.8769
  49   2.0000      -0.501550       -13.6479
  50   2.0000      -0.488563       -13.2945
  51   2.0000      -0.482867       -13.1395
  52   2.0000      -0.473888       -12.8951
  53   2.0000      -0.464659       -12.6440
  54   2.0000      -0.459521       -12.5042
  55   2.0000      -0.453492       -12.3401
  56   2.0000      -0.445710       -12.1284
  57   2.0000      -0.438167       -11.9231
  58   2.0000      -0.434178       -11.8146
  59   2.0000      -0.430463       -11.7135
  60   2.0000      -0.426411       -11.6032
  61   2.0000      -0.410397       -11.1675
  62   2.0000      -0.406529       -11.0622
  63   2.0000      -0.353177        -9.6104
  64   2.0000      -0.329865        -8.9761
  65   2.0000      -0.327952        -8.9240
  66   2.0000      -0.285536        -7.7698
  67   0.0000       0.028108         0.7649
  68   0.0000       0.080520         2.1911
  69   0.0000       0.111772         3.0415
  70   0.0000       0.120989         3.2923
  71   0.0000       0.124708         3.3935

MULLIKEN ATOMIC CHARGES
-----------------------
   0 S :    0.109114
   1 C :   -0.092185
   2 C :   -0.075513
   3 C :    0.055389
   4 C :   -0.158488
   5 H :   -0.024798
   6 C :    0.044003
   7 H :    0.021115
   8 H :    0.015795
   9 C :   -0.053779
  10 H :    0.018594
  11 H :    0.019306
  12 C :   -0.056424
  13 H :    0.037477
  14 H :    0.038905
  15 H :    0.036741
  16 S :    0.136653
  17 C :   -0.102158
  18 C :   -0.061216
  19 C :   -0.022958
  20 C :   -0.172462
  21 H :    0.020097
  22 C :   -0.038671
  23 H :    0.045498
  24 H :    0.054877
  25 C :    0.021539
  26 H :    0.021793
  27 H :    0.035581
  28 C :   -0.062502
  29 H :    0.027496
  30 H :    0.027585
  31 H :    0.030374
  32 H :    0.029421
  33 H :    0.073798
Sum of atomic charges:    0.0000000

LOEWDIN ATOMIC CHARGES
----------------------
   0 S :    0.412811
   1 C :   -0.198232
   2 C :   -0.069744
   3 C :   -0.062300
   4 C :   -0.185536
   5 H :    0.026504
   6 C :   -0.039175
   7 H :    0.035172
   8 H :    0.025360
   9 C :   -0.038709
  10 H :    0.020180
  11 H :    0.020124
  12 C :   -0.064070
  13 H :    0.020896
  14 H :    0.035678
  15 H :    0.026644
  16 S :    0.442161
  17 C :   -0.231383
  18 C :   -0.086136
  19 C :   -0.053518
  20 C :   -0.204436
  21 H :    0.032658
  22 C :   -0.044801
  23 H :    0.038951
  24 H :    0.047744
  25 C :   -0.028406
  26 H :    0.023821
  27 H :    0.022002
  28 C :   -0.066720
  29 H :    0.028097
  30 H :    0.026443
  31 H :    0.021258
  32 H :    0.019259
  33 H :    0.047405

  Mayer bond orders larger than 0.100000
B(  0-S ,  1-C ) :   1.1454 B(  0-S ,  4-C ) :   1.1640 B(  1-C ,  2-C ) :   1.5781
B(  1-C , 32-H ) :   0.9764 B(  2-C ,  3-C ) :   1.2656 B(  2-C ,  6-C ) :   1.0439
B(  3-C ,  4-C ) :   1.5443 B(  3-C ,  5-H ) :   0.9946 B(  4-C , 20-C ) :   1.0470
B(  6-C ,  7-H ) :   0.9324 B(  6-C ,  8-H ) :   0.9440 B(  6-C ,  9-C ) :   1.0509
B(  9-C , 10-H ) :   0.9524 B(  9-C , 11-H ) :   0.9590 B(  9-C , 12-C ) :   1.0914
B( 12-C , 13-H ) :   0.9764 B( 12-C , 14-H ) :   0.9722 B( 12-C , 15-H ) :   0.9740
B( 16-S , 17-C ) :   1.1573 B( 16-S , 20-C ) :   1.1530 B( 17-C , 18-C ) :   1.6455
B( 17-C , 33-H ) :   0.9483 B( 18-C , 19-C ) :   1.2279 B( 18-C , 21-H ) :   0.9818
B( 19-C , 20-C ) :   1.5836 B( 19-C , 22-C ) :   1.0067 B( 22-C , 23-H ) :   0.9419
B( 22-C , 24-H ) :   0.9359 B( 22-C , 25-C ) :   1.0564 B( 25-C , 26-H ) :   0.9491
B( 25-C , 27-H ) :   0.9569 B( 25-C , 28-C ) :   1.0759 B( 28-C , 29-H ) :   0.9703
B( 28-C , 30-H ) :   0.9731 B( 28-C , 31-H ) :   0.9782

Dispersion correction           -0.013923558
FINAL SINGLE POINT ENERGY     -1339.860449881254

DIPOLE MOMENT
-------------
                                X             Y             Z
Electronic contribution:     -0.76600     -14.45384     -29.26960
Nuclear contribution   :      0.54439      14.70117      29.87237
                        -----------------------------------------
Total Dipole Moment    :     -0.22161       0.24733       0.60277
                        -----------------------------------------
Magnitude (a.u.)       :      0.68819
Magnitude (Debye)      :      1.74925

Rotational constants in cm-1:     0.018005     0.009145     0.006313
Rotational constants in MHz :   539.766299   274.146411   189.254760

                             ****ORCA TERMINATED NORMALLY****
TOTAL RUN TIME: 0 days 0 hours 0 minutes 33 seconds 804 msec
