                         Program Version 4.2.1 -  RELEASE  -
|  1> ! wB97X-D3 SP def2-SVP
|  2> %pal
|  3> nprocs 16
|  4> end
|  5>
|  6> * xyz 0 1
|  7> S 	 -4.02525 	 -13.9852 	 82.4805
|  8> C 	 -3.65764 	 -15.4082 	 83.4342
|  9> C 	 -4.56412 	 -16.3612 	 83.3507
| 10> C 	 -5.66957 	 -16.0069 	 82.5691
| 11> C 	 -5.61912 	 -14.6766 	 82.091
| 12> H 	 -6.5099 	 -16.567 	 82.3363
| 13> C 	 -4.48323 	 -17.6872 	 84.0391
| 14> H 	 -5.25033 	 -17.7395 	 84.8014
| 15> H 	 -3.58187 	 -17.7785 	 84.6097
| 16> C 	 -4.73584 	 -18.8424 	 83.0514
| 17> H 	 -5.66352 	 -18.7273 	 82.4579
| 18> H 	 -3.97402 	 -18.908 	 82.2728
| 19> C 	 -4.50019 	 -20.2094 	 83.7771
| 20> H 	 -3.60564 	 -20.1997 	 84.3733
| 21> H 	 -5.37321 	 -20.3443 	 84.3854
| 22> H 	 -4.32778 	 -21.0546 	 83.0231
| 23> S 	 -6.80167 	 -12.2147 	 81.7141
| 24> C 	 -8.28848 	 -12.0025 	 80.7265
| 25> C 	 -8.59119 	 -13.2278 	 80.1124
| 26> C 	 -7.66533 	 -14.2879 	 80.4582
| 27> C 	 -6.65514 	 -13.9234 	 81.3578
| 28> H 	 -9.41319 	 -13.3879 	 79.4127
| 29> C 	 -7.81343 	 -15.6404 	 79.7273
| 30> H 	 -6.87912 	 -16.1374 	 79.7476
| 31> H 	 -7.98617 	 -15.4215 	 78.6637
| 32> C 	 -8.76985 	 -16.568 	 80.3814
| 33> H 	 -9.81296 	 -16.2066 	 80.1689
| 34> H 	 -8.52612 	 -16.5384 	 81.4553
| 35> C 	 -8.81338 	 -17.9589 	 79.8593
| 36> H 	 -9.32412 	 -17.9554 	 78.8974
| 37> H 	 -9.4174 	 -18.7191 	 80.3936
| 38> H 	 -7.81804 	 -18.465 	 79.831
| 39> H 	 -2.90724 	 -15.5464 	 84.1525
| 40> H 	 -8.76187 	 -11.0921 	 80.5175
| 41> *
| 42>
| 43>                          ****END OF INPUT****

CARTESIAN COORDINATES (ANGSTROEM)
---------------------------------
  S     -4.025250  -13.985200   82.480500
  C     -3.657640  -15.408200   83.434200
  C     -4.564120  -16.361200   83.350700
  C     -5.669570  -16.006900   82.569100
  C     -5.619120  -14.676600   82.091000
  H     -6.509900  -16.567000   82.336300
  C     -4.483230  -17.687200   84.039100
  H     -5.250330  -17.739500   84.801400
  H     -3.581870  -17.778500   84.609700
  C     -4.735840  -18.842400   83.051400
  H     -5.663520  -18.727300   82.457900
  H     -3.974020  -18.908000   82.272800
  C     -4.500190  -20.209400   83.777100
  H     -3.605640  -20.199700   84.373300
  H     -5.373210  -20.344300   84.385400
  H     -4.327780  -21.054600   83.023100
  S     -6.801670  -12.214700   81.714100
  C     -8.288480  -12.002500   80.726500
  C     -8.591190  -13.227800   80.112400
  C     -7.665330  -14.287900   80.458200
  C     -6.655140  -13.923400   81.357800
  H     -9.413190  -13.387900   79.412700
  C     -7.813430  -15.640400   79.727300
  H     -6.879120  -16.137400   79.747600
  H     -7.986170  -15.421500   78.663700
  C     -8.769850  -16.568000   80.381400
  H     -9.812960  -16.206600   80.168900
  H     -8.526120  -16.538400   81.455300
  C     -8.813380  -17.958900   79.859300
  H     -9.324120  -17.955400   78.897400
  H     -9.417400  -18.719100   80.393600
  H     -7.818040  -18.465000   79.831000
  H     -2.907240  -15.546400   84.152500
  H     -8.761870  -11.092100   80.517500

 Total Charge           Charge          ....    0
 Multiplicity           Mult            ....    1
 Number of Electrons    NEL             ....  134
 Basis Dimension        Dim             ....  322

ORBITAL ENERGIES
----------------

  NO   OCC          E(Eh)            E(eV)
   0   2.0000     -88.968429     -2420.9540
   1   2.0000     -88.966234     -2420.8943
   2   2.0000     -10.339257      -281.3455
   3   2.0000     -10.334775      -281.2235
   4   2.0000     -10.324048      -280.9316
   5   2.0000     -10.308184      -280.4999
   6   2.0000     -10.302389      -280.3423
   7   2.0000     -10.301972      -280.3309
   8   2.0000     -10.291964      -280.0586
   9   2.0000     -10.291563      -280.0477
  10   2.0000     -10.291469      -280.0451
  11   2.0000     -10.289760      -279.9986
  12   2.0000     -10.287878      -279.9474
  13   2.0000     -10.287732      -279.9434
  14   2.0000     -10.284232      -279.8482
  15   2.0000     -10.281219      -279.7662
  16   2.0000      -8.082523      -219.9366
  17   2.0000      -8.080178      -219.8728
  18   2.0000      -6.041140      -164.3878
  19   2.0000      -6.038846      -164.3253
  20   2.0000      -6.037257      -164.2821
  21   2.0000      -6.034690      -164.2123
  22   2.0000      -6.033069      -164.1681
  23   2.0000      -6.030895      -164.1090
  24   2.0000      -1.005661       -27.3654
  25   2.0000      -0.983020       -26.7493
  26   2.0000      -0.919355       -25.0169
  27   2.0000      -0.913797       -24.8657
  28   2.0000      -0.870811       -23.6960
  29   2.0000      -0.851324       -23.1657
  30   2.0000      -0.845655       -23.0115
  31   2.0000      -0.818935       -22.2844
  32   2.0000      -0.782454       -21.2917
  33   2.0000      -0.775400       -21.0997
  34   2.0000      -0.715485       -19.4693
  35   2.0000      -0.698423       -19.0050
  36   2.0000      -0.692501       -18.8439
  37   2.0000      -0.668608       -18.1937
  38   2.0000      -0.645346       -17.5608
  39   2.0000      -0.624400       -16.9908
  40   2.0000      -0.597861       -16.2686
  41   2.0000      -0.580091       -15.7851
  42   2.0000      -0.573791       -15.6137
  43   2.0000      -0.562021       -15.2934
  44   2.0000      -0.525025       -14.2867
  45   2.0000      -0.523816       -14.2538
  46   2.0000      -0.517305       -14.0766
  47   2.0000      -0.517123       -14.0716
  48   2.0000      -0.513452       -13.9717
  49   2.0000      -0.501018       -13.6334
  50   2.0000      -0.493643       -13.4327
  51   2.0000      -0.484893       -13.1946
  52   2.0000      -0.479072       -13.0362
  53   2.0000      -0.471234       -12.8229
  54   2.0000      -0.457685       -12.4542
  55   2.0000      -0.452234       -12.3059
  56   2.0000      -0.449356       -12.2276
  57   2.0000      -0.441546       -12.0151
  58   2.0000      -0.427862       -11.6427
  59   2.0000      -0.425311       -11.5733
  60   2.0000      -0.415225       -11.2988
  61   2.0000      -0.413218       -11.2442
  62   2.0000      -0.407480       -11.0881
  63   2.0000      -0.354324        -9.6417
  64   2.0000      -0.334287        -9.0964
  65   2.0000      -0.329728        -8.9724
  66   2.0000      -0.289497        -7.8776
  67   0.0000       0.018964         0.5160
  68   0.0000       0.076031         2.0689
  69   0.0000       0.106299         2.8926
  70   0.0000       0.118307         3.2193
  71   0.0000       0.127691         3.4747

MULLIKEN ATOMIC CHARGES
-----------------------
   0 S :    0.109073
   1 C :   -0.095786
   2 C :   -0.046427
   3 C :    0.044689
   4 C :   -0.128159
   5 H :   -0.052124
   6 C :    0.114744
   7 H :    0.028332
   8 H :    0.002339
   9 C :   -0.125390
  10 H :    0.043271
  11 H :    0.027620
  12 C :   -0.049925
  13 H :    0.030933
  14 H :    0.033484
  15 H :    0.045485
  16 S :    0.089028
  17 C :   -0.073867
  18 C :   -0.020105
  19 C :   -0.081551
  20 C :   -0.127246
  21 H :    0.026913
  22 C :    0.080886
  23 H :    0.002755
  24 H :    0.029092
  25 C :   -0.081594
  26 H :    0.027954
  27 H :    0.045477
  28 C :   -0.051513
  29 H :    0.028594
  30 H :    0.032640
  31 H :    0.030151
  32 H :    0.012674
  33 H :    0.047551
Sum of atomic charges:    0.0000000

LOEWDIN ATOMIC CHARGES
----------------------
   0 S :    0.389122
   1 C :   -0.187196
   2 C :   -0.065912
   3 C :   -0.052282
   4 C :   -0.171027
   5 H :    0.013002
   6 C :   -0.022680
   7 H :    0.031596
   8 H :    0.025022
   9 C :   -0.043230
  10 H :    0.026456
  11 H :    0.023616
  12 C :   -0.063385
  13 H :    0.022560
  14 H :    0.020499
  15 H :    0.034469
  16 S :    0.390913
  17 C :   -0.164181
  18 C :   -0.064592
  19 C :   -0.055547
  20 C :   -0.198632
  21 H :    0.033302
  22 C :   -0.030526
  23 H :    0.022045
  24 H :    0.032402
  25 C :   -0.049923
  26 H :    0.030106
  27 H :    0.025550
  28 C :   -0.075487
  29 H :    0.027221
  30 H :    0.030511
  31 H :    0.024327
  32 H :    0.020679
  33 H :    0.021201

  Mayer bond orders larger than 0.100000
B(  0-S ,  1-C ) :   1.1097 B(  0-S ,  4-C ) :   1.1457 B(  1-C ,  2-C ) :   1.6721
B(  1-C , 32-H ) :   0.9576 B(  2-C ,  3-C ) :   1.2233 B(  2-C ,  6-C ) :   1.0230
B(  3-C ,  4-C ) :   1.5674 B(  3-C ,  5-H ) :   1.0029 B(  4-C , 20-C ) :   1.0509
B(  6-C ,  7-H ) :   0.9327 B(  6-C ,  8-H ) :   0.9385 B(  6-C ,  9-C ) :   1.0471
B(  9-C , 10-H ) :   0.9586 B(  9-C , 11-H ) :   0.9605 B(  9-C , 12-C ) :   1.0687
B( 12-C , 13-H ) :   0.9745 B( 12-C , 14-H ) :   0.9792 B( 12-C , 15-H ) :   0.9782
B( 16-S , 17-C ) :   1.1479 B( 16-S , 20-C ) :   1.1326 B( 17-C , 18-C ) :   1.5838
B( 17-C , 20-C ) :   0.1018 B( 17-C , 33-H ) :   0.9781 B( 18-C , 19-C ) :   1.2611
B( 18-C , 21-H ) :   0.9841 B( 19-C , 20-C ) :   1.5832 B( 19-C , 22-C ) :   1.0405
B( 22-C , 23-H ) :   0.9300 B( 22-C , 24-H ) :   0.9374 B( 22-C , 25-C ) :   1.0640
B( 25-C , 26-H ) :   0.9497 B( 25-C , 27-H ) :   0.9479 B( 25-C , 28-C ) :   1.0934
B( 28-C , 29-H ) :   0.9709 B( 28-C , 30-H ) :   0.9715 B( 28-C , 31-H ) :   0.9692

Dispersion correction           -0.014150578
FINAL SINGLE POINT ENERGY     -1339.866320702417

DIPOLE MOMENT
-------------
                                X             Y             Z
Electronic contribution:      7.23926      32.80450       1.76570
Nuclear contribution   :     -7.54843     -33.46876      -1.86813
                        -----------------------------------------
Total Dipole Moment    :     -0.30917      -0.66426      -0.10243
                        -----------------------------------------
Magnitude (a.u.)       :      0.73981
Magnitude (Debye)      :      1.88046

Rotational constants in cm-1:     0.017441     0.009492     0.006406
Rotational constants in MHz :   522.869117   284.571349   192.033812

                             ****ORCA TERMINATED NORMALLY****
TOTAL RUN TIME: 0 days 0 hours 0 minutes 34 seconds 133 msec
