                         Program Version 4.2.1 -  RELEASE  -
|  1> ! wB97X-D3 SP def2-SVP
|  2> %pal
|  3> nprocs 16
|  4> end
|  5>
|  6> * xyz 0 1
|  7> S 	 -67.8167 	 36.9852 	 138.307
|  8> C 	 -69.0327 	 35.9176 	 138.883
|  9> C 	 -68.6839 	 35.3005 	 140.095
| 10> C 	 -67.446 	 35.8481 	 140.597
| 11> C 	 -66.8546 	 36.7455 	 139.754
| 12> H 	 -66.9948 	 35.5753 	 141.547
| 13> C 	 -69.5206 	 34.1694 	 140.728
| 14> H 	 -70.1922 	 33.7803 	 140.005
| 15> H 	 -70.2054 	 34.64 	 141.456
| 16> C 	 -68.5485 	 33.0726 	 141.326
| 17> H 	 -67.6064 	 32.8299 	 140.764
| 18> H 	 -68.2077 	 33.5016 	 142.216
| 19> C 	 -69.2377 	 31.6824 	 141.636
| 20> H 	 -70.3463 	 31.7143 	 141.805
| 21> H 	 -69.0214 	 31.1009 	 140.768
| 22> H 	 -68.7488 	 31.2085 	 142.452
| 23> S 	 -65.4886 	 38.7386 	 141.083
| 24> C 	 -63.8322 	 38.9479 	 141.013
| 25> C 	 -63.3586 	 38.0491 	 140.113
| 26> C 	 -64.3495 	 37.3138 	 139.379
| 27> C 	 -65.5922 	 37.4762 	 139.943
| 28> H 	 -62.3521 	 38.1436 	 139.868
| 29> C 	 -64.179 	 36.4797 	 138.195
| 30> H 	 -65.0875 	 35.9382 	 137.97
| 31> H 	 -63.3887 	 35.6807 	 138.426
| 32> C 	 -63.794 	 37.1283 	 136.904
| 33> H 	 -63.3999 	 36.383 	 136.245
| 34> H 	 -62.9833 	 37.8334 	 137.115
| 35> C 	 -64.9432 	 37.6617 	 136.065
| 36> H 	 -64.9642 	 38.7055 	 136.166
| 37> H 	 -65.8198 	 37.0755 	 136.065
| 38> H 	 -64.4576 	 37.4771 	 135.021
| 39> H 	 -69.8433 	 35.5246 	 138.311
| 40> H 	 -63.235 	 39.6921 	 141.496
| 41> *
| 42>
| 43>                          ****END OF INPUT****

CARTESIAN COORDINATES (ANGSTROEM)
---------------------------------
  S    -67.816700   36.985200  138.307000
  C    -69.032700   35.917600  138.883000
  C    -68.683900   35.300500  140.095000
  C    -67.446000   35.848100  140.597000
  C    -66.854600   36.745500  139.754000
  H    -66.994800   35.575300  141.547000
  C    -69.520600   34.169400  140.728000
  H    -70.192200   33.780300  140.005000
  H    -70.205400   34.640000  141.456000
  C    -68.548500   33.072600  141.326000
  H    -67.606400   32.829900  140.764000
  H    -68.207700   33.501600  142.216000
  C    -69.237700   31.682400  141.636000
  H    -70.346300   31.714300  141.805000
  H    -69.021400   31.100900  140.768000
  H    -68.748800   31.208500  142.452000
  S    -65.488600   38.738600  141.083000
  C    -63.832200   38.947900  141.013000
  C    -63.358600   38.049100  140.113000
  C    -64.349500   37.313800  139.379000
  C    -65.592200   37.476200  139.943000
  H    -62.352100   38.143600  139.868000
  C    -64.179000   36.479700  138.195000
  H    -65.087500   35.938200  137.970000
  H    -63.388700   35.680700  138.426000
  C    -63.794000   37.128300  136.904000
  H    -63.399900   36.383000  136.245000
  H    -62.983300   37.833400  137.115000
  C    -64.943200   37.661700  136.065000
  H    -64.964200   38.705500  136.166000
  H    -65.819800   37.075500  136.065000
  H    -64.457600   37.477100  135.021000
  H    -69.843300   35.524600  138.311000
  H    -63.235000   39.692100  141.496000

 Total Charge           Charge          ....    0
 Multiplicity           Mult            ....    1
 Number of Electrons    NEL             ....  134
 Basis Dimension        Dim             ....  322

ORBITAL ENERGIES
----------------

  NO   OCC          E(Eh)            E(eV)
   0   2.0000     -88.967233     -2420.9215
   1   2.0000     -88.956506     -2420.6296
   2   2.0000     -10.328751      -281.0596
   3   2.0000     -10.317096      -280.7425
   4   2.0000     -10.309059      -280.5238
   5   2.0000     -10.307771      -280.4887
   6   2.0000     -10.304129      -280.3896
   7   2.0000     -10.299141      -280.2539
   8   2.0000     -10.296333      -280.1775
   9   2.0000     -10.295127      -280.1447
  10   2.0000     -10.292445      -280.0717
  11   2.0000     -10.282803      -279.8093
  12   2.0000     -10.280083      -279.7353
  13   2.0000     -10.279227      -279.7120
  14   2.0000     -10.274586      -279.5857
  15   2.0000     -10.269973      -279.4602
  16   2.0000      -8.081841      -219.9181
  17   2.0000      -8.073778      -219.6987
  18   2.0000      -6.040260      -164.3638
  19   2.0000      -6.036337      -164.2571
  20   2.0000      -6.032734      -164.1590
  21   2.0000      -6.032035      -164.1400
  22   2.0000      -6.027649      -164.0207
  23   2.0000      -6.024906      -163.9460
  24   2.0000      -1.017457       -27.6864
  25   2.0000      -0.991004       -26.9666
  26   2.0000      -0.918165       -24.9845
  27   2.0000      -0.902763       -24.5654
  28   2.0000      -0.872030       -23.7292
  29   2.0000      -0.851448       -23.1691
  30   2.0000      -0.845747       -23.0140
  31   2.0000      -0.820661       -22.3313
  32   2.0000      -0.783066       -21.3083
  33   2.0000      -0.772167       -21.0117
  34   2.0000      -0.713595       -19.4179
  35   2.0000      -0.697302       -18.9746
  36   2.0000      -0.689871       -18.7724
  37   2.0000      -0.654530       -17.8107
  38   2.0000      -0.640837       -17.4381
  39   2.0000      -0.622359       -16.9353
  40   2.0000      -0.604612       -16.4523
  41   2.0000      -0.572132       -15.5685
  42   2.0000      -0.559585       -15.2271
  43   2.0000      -0.556351       -15.1391
  44   2.0000      -0.544156       -14.8072
  45   2.0000      -0.529763       -14.4156
  46   2.0000      -0.524383       -14.2692
  47   2.0000      -0.506780       -13.7902
  48   2.0000      -0.506079       -13.7711
  49   2.0000      -0.502999       -13.6873
  50   2.0000      -0.490174       -13.3383
  51   2.0000      -0.487870       -13.2756
  52   2.0000      -0.477329       -12.9888
  53   2.0000      -0.471245       -12.8232
  54   2.0000      -0.459097       -12.4927
  55   2.0000      -0.450359       -12.2549
  56   2.0000      -0.444959       -12.1080
  57   2.0000      -0.427519       -11.6334
  58   2.0000      -0.426172       -11.5967
  59   2.0000      -0.422788       -11.5046
  60   2.0000      -0.418499       -11.3879
  61   2.0000      -0.410293       -11.1647
  62   2.0000      -0.397711       -10.8223
  63   2.0000      -0.338430        -9.2092
  64   2.0000      -0.330101        -8.9825
  65   2.0000      -0.319267        -8.6877
  66   2.0000      -0.305726        -8.3192
  67   0.0000       0.045845         1.2475
  68   0.0000       0.067531         1.8376
  69   0.0000       0.110821         3.0156
  70   0.0000       0.127046         3.4571
  71   0.0000       0.134657         3.6642

MULLIKEN ATOMIC CHARGES
-----------------------
   0 S :    0.125171
   1 C :   -0.102710
   2 C :   -0.135427
   3 C :    0.049715
   4 C :   -0.180484
   5 H :    0.015173
   6 C :    0.103561
   7 H :    0.006949
   8 H :    0.050176
   9 C :   -0.120827
  10 H :    0.051041
  11 H :    0.024295
  12 C :   -0.041373
  13 H :    0.043612
  14 H :    0.031936
  15 H :    0.028734
  16 S :    0.119047
  17 C :   -0.080667
  18 C :   -0.018301
  19 C :   -0.008424
  20 C :   -0.164527
  21 H :   -0.010327
  22 C :    0.039998
  23 H :    0.010988
  24 H :    0.031970
  25 C :   -0.067637
  26 H :    0.015627
  27 H :    0.021221
  28 C :   -0.022966
  29 H :    0.034983
  30 H :    0.032237
  31 H :    0.024348
  32 H :    0.038846
  33 H :    0.054042
Sum of atomic charges:    0.0000000

LOEWDIN ATOMIC CHARGES
----------------------
   0 S :    0.429631
   1 C :   -0.211209
   2 C :   -0.058517
   3 C :   -0.055834
   4 C :   -0.193954
   5 H :    0.033971
   6 C :   -0.024319
   7 H :    0.020256
   8 H :    0.039982
   9 C :   -0.038699
  10 H :    0.035021
  11 H :    0.012393
  12 C :   -0.065072
  13 H :    0.030711
  14 H :    0.023578
  15 H :    0.022450
  16 S :    0.455301
  17 C :   -0.204043
  18 C :   -0.075391
  19 C :   -0.057702
  20 C :   -0.222634
  21 H :    0.016936
  22 C :   -0.044627
  23 H :    0.022500
  24 H :    0.039501
  25 C :   -0.042399
  26 H :    0.021221
  27 H :    0.023082
  28 C :   -0.061844
  29 H :    0.020633
  30 H :    0.013867
  31 H :    0.039466
  32 H :    0.022399
  33 H :    0.033344

  Mayer bond orders larger than 0.100000
B(  0-S ,  1-C ) :   1.1507 B(  0-S ,  4-C ) :   1.1548 B(  1-C ,  2-C ) :   1.6210
B(  1-C , 32-H ) :   0.9642 B(  2-C ,  3-C ) :   1.2352 B(  2-C ,  6-C ) :   1.0157
B(  3-C ,  4-C ) :   1.6068 B(  3-C ,  5-H ) :   0.9935 B(  4-C , 20-C ) :   0.9828
B(  6-C ,  7-H ) :   0.9475 B(  6-C ,  8-H ) :   0.9358 B(  6-C ,  9-C ) :   1.0398
B(  9-C , 10-H ) :   0.9699 B(  9-C , 11-H ) :   0.9570 B(  9-C , 12-C ) :   1.0691
B( 12-C , 13-H ) :   0.9785 B( 12-C , 14-H ) :   0.9813 B( 12-C , 15-H ) :   0.9770
B( 16-S , 17-C ) :   1.1862 B( 16-S , 20-C ) :   1.1704 B( 17-C , 18-C ) :   1.5710
B( 17-C , 33-H ) :   0.9736 B( 18-C , 19-C ) :   1.2580 B( 18-C , 21-H ) :   0.9980
B( 19-C , 20-C ) :   1.5642 B( 19-C , 22-C ) :   1.0739 B( 22-C , 23-H ) :   0.9292
B( 22-C , 24-H ) :   0.9226 B( 22-C , 25-C ) :   1.0823 B( 25-C , 26-H ) :   0.9612
B( 25-C , 27-H ) :   0.9529 B( 25-C , 28-C ) :   1.0700 B( 28-C , 29-H ) :   0.9781
B( 28-C , 30-H ) :   0.9670 B( 28-C , 31-H ) :   0.9821

Dispersion correction           -0.014477939
FINAL SINGLE POINT ENERGY     -1339.853015316329

DIPOLE MOMENT
-------------
                                X             Y             Z
Electronic contribution:      0.66042      18.82530       5.03760
Nuclear contribution   :     -0.52018     -19.32313      -5.04403
                        -----------------------------------------
Total Dipole Moment    :      0.14024      -0.49783      -0.00643
                        -----------------------------------------
Magnitude (a.u.)       :      0.51724
Magnitude (Debye)      :      1.31473

Rotational constants in cm-1:     0.020510     0.007941     0.007018
Rotational constants in MHz :   614.873219   238.057266   210.380709

                             ****ORCA TERMINATED NORMALLY****
TOTAL RUN TIME: 0 days 0 hours 0 minutes 32 seconds 694 msec
