                         Program Version 4.2.1 -  RELEASE  -
|  1> ! wB97X-D3 SP def2-SVP
|  2> %pal
|  3> nprocs 16
|  4> end
|  5>
|  6> * xyz 0 1
|  7> S 	 -114.741 	 57.7898 	 110.781
|  8> C 	 -114.291 	 56.4405 	 109.702
|  9> C 	 -113.37 	 55.6063 	 110.291
| 10> C 	 -113.087 	 55.9737 	 111.647
| 11> C 	 -113.754 	 57.1114 	 112.031
| 12> H 	 -112.386 	 55.5146 	 112.335
| 13> C 	 -112.803 	 54.3305 	 109.58
| 14> H 	 -113.576 	 53.8202 	 109.051
| 15> H 	 -112.507 	 53.6349 	 110.315
| 16> C 	 -111.646 	 54.6363 	 108.616
| 17> H 	 -111.495 	 53.7577 	 108.044
| 18> H 	 -111.973 	 55.5244 	 107.963
| 19> C 	 -110.355 	 55.0997 	 109.308
| 20> H 	 -110.066 	 54.3152 	 109.9
| 21> H 	 -109.528 	 55.2958 	 108.512
| 22> H 	 -110.445 	 56.0148 	 109.864
| 23> S 	 -112.949 	 59.5709 	 112.895
| 24> C 	 -112.487 	 59.8741 	 114.568
| 25> C 	 -112.77 	 58.7578 	 115.289
| 26> C 	 -113.337 	 57.6734 	 114.54
| 27> C 	 -113.466 	 57.9274 	 113.208
| 28> H 	 -112.338 	 58.7136 	 116.308
| 29> C 	 -113.497 	 56.2556 	 115.165
| 30> H 	 -114.26 	 55.6755 	 114.597
| 31> H 	 -114.044 	 56.255 	 116.16
| 32> C 	 -112.267 	 55.4266 	 115.214
| 33> H 	 -111.685 	 55.8886 	 116.032
| 34> H 	 -111.547 	 55.7731 	 114.448
| 35> C 	 -112.326 	 53.9074 	 115.201
| 36> H 	 -112.588 	 53.5429 	 114.211
| 37> H 	 -112.948 	 53.4436 	 115.975
| 38> H 	 -111.324 	 53.5467 	 115.4
| 39> H 	 -114.655 	 56.2848 	 108.708
| 40> H 	 -112.041 	 60.7405 	 114.994
| 41> *
| 42>
| 43>                          ****END OF INPUT****

CARTESIAN COORDINATES (ANGSTROEM)
---------------------------------
  S    -114.741000   57.789800  110.781000
  C    -114.291000   56.440500  109.702000
  C    -113.370000   55.606300  110.291000
  C    -113.087000   55.973700  111.647000
  C    -113.754000   57.111400  112.031000
  H    -112.386000   55.514600  112.335000
  C    -112.803000   54.330500  109.580000
  H    -113.576000   53.820200  109.051000
  H    -112.507000   53.634900  110.315000
  C    -111.646000   54.636300  108.616000
  H    -111.495000   53.757700  108.044000
  H    -111.973000   55.524400  107.963000
  C    -110.355000   55.099700  109.308000
  H    -110.066000   54.315200  109.900000
  H    -109.528000   55.295800  108.512000
  H    -110.445000   56.014800  109.864000
  S    -112.949000   59.570900  112.895000
  C    -112.487000   59.874100  114.568000
  C    -112.770000   58.757800  115.289000
  C    -113.337000   57.673400  114.540000
  C    -113.466000   57.927400  113.208000
  H    -112.338000   58.713600  116.308000
  C    -113.497000   56.255600  115.165000
  H    -114.260000   55.675500  114.597000
  H    -114.044000   56.255000  116.160000
  C    -112.267000   55.426600  115.214000
  H    -111.685000   55.888600  116.032000
  H    -111.547000   55.773100  114.448000
  C    -112.326000   53.907400  115.201000
  H    -112.588000   53.542900  114.211000
  H    -112.948000   53.443600  115.975000
  H    -111.324000   53.546700  115.400000
  H    -114.655000   56.284800  108.708000
  H    -112.041000   60.740500  114.994000

 Total Charge           Charge          ....    0
 Multiplicity           Mult            ....    1
 Number of Electrons    NEL             ....  134
 Basis Dimension        Dim             ....  322

ORBITAL ENERGIES
----------------

  NO   OCC          E(Eh)            E(eV)
   0   2.0000     -88.969688     -2420.9883
   1   2.0000     -88.961523     -2420.7661
   2   2.0000     -10.329802      -281.0882
   3   2.0000     -10.326791      -281.0063
   4   2.0000     -10.315634      -280.7027
   5   2.0000     -10.314839      -280.6810
   6   2.0000     -10.305753      -280.4338
   7   2.0000     -10.304193      -280.3913
   8   2.0000     -10.297015      -280.1960
   9   2.0000     -10.294076      -280.1161
  10   2.0000     -10.293776      -280.1079
  11   2.0000     -10.290805      -280.0271
  12   2.0000     -10.289139      -279.9817
  13   2.0000     -10.285235      -279.8755
  14   2.0000     -10.283013      -279.8150
  15   2.0000     -10.275224      -279.6031
  16   2.0000      -8.084123      -219.9802
  17   2.0000      -8.076353      -219.7687
  18   2.0000      -6.042648      -164.4288
  19   2.0000      -6.038728      -164.3221
  20   2.0000      -6.034983      -164.2202
  21   2.0000      -6.034821      -164.2158
  22   2.0000      -6.030754      -164.1051
  23   2.0000      -6.027021      -164.0036
  24   2.0000      -1.010701       -27.5026
  25   2.0000      -0.985177       -26.8080
  26   2.0000      -0.911704       -24.8087
  27   2.0000      -0.910094       -24.7649
  28   2.0000      -0.871629       -23.7182
  29   2.0000      -0.849882       -23.1265
  30   2.0000      -0.842253       -22.9189
  31   2.0000      -0.819017       -22.2866
  32   2.0000      -0.786774       -21.4092
  33   2.0000      -0.779340       -21.2069
  34   2.0000      -0.706149       -19.2153
  35   2.0000      -0.698921       -19.0186
  36   2.0000      -0.695540       -18.9266
  37   2.0000      -0.661495       -18.0002
  38   2.0000      -0.642989       -17.4966
  39   2.0000      -0.616576       -16.7779
  40   2.0000      -0.598426       -16.2840
  41   2.0000      -0.578235       -15.7346
  42   2.0000      -0.556210       -15.1352
  43   2.0000      -0.548462       -14.9244
  44   2.0000      -0.542481       -14.7617
  45   2.0000      -0.523611       -14.2482
  46   2.0000      -0.518484       -14.1087
  47   2.0000      -0.515693       -14.0327
  48   2.0000      -0.513719       -13.9790
  49   2.0000      -0.498502       -13.5649
  50   2.0000      -0.491347       -13.3702
  51   2.0000      -0.484648       -13.1879
  52   2.0000      -0.477590       -12.9959
  53   2.0000      -0.468235       -12.7413
  54   2.0000      -0.461285       -12.5522
  55   2.0000      -0.448354       -12.2003
  56   2.0000      -0.442856       -12.0507
  57   2.0000      -0.438381       -11.9290
  58   2.0000      -0.433256       -11.7895
  59   2.0000      -0.422222       -11.4893
  60   2.0000      -0.418856       -11.3976
  61   2.0000      -0.414852       -11.2887
  62   2.0000      -0.392804       -10.6887
  63   2.0000      -0.350388        -9.5345
  64   2.0000      -0.335839        -9.1387
  65   2.0000      -0.329313        -8.9611
  66   2.0000      -0.298364        -8.1189
  67   0.0000       0.031941         0.8692
  68   0.0000       0.068448         1.8626
  69   0.0000       0.108100         2.9416
  70   0.0000       0.120359         3.2751
  71   0.0000       0.133767         3.6400

MULLIKEN ATOMIC CHARGES
-----------------------
   0 S :    0.112443
   1 C :   -0.109505
   2 C :   -0.096131
   3 C :    0.041940
   4 C :   -0.138680
   5 H :    0.000757
   6 C :    0.094652
   7 H :    0.022186
   8 H :    0.004932
   9 C :   -0.081193
  10 H :    0.027773
  11 H :    0.038060
  12 C :   -0.047363
  13 H :    0.010401
  14 H :    0.043537
  15 H :    0.045710
  16 S :    0.090042
  17 C :   -0.083320
  18 C :   -0.048307
  19 C :   -0.041817
  20 C :   -0.132290
  21 H :    0.036272
  22 C :    0.038430
  23 H :    0.017646
  24 H :    0.033991
  25 C :   -0.098418
  26 H :    0.010157
  27 H :    0.026032
  28 C :   -0.002115
  29 H :    0.030999
  30 H :    0.037688
  31 H :    0.027829
  32 H :    0.039182
  33 H :    0.048482
Sum of atomic charges:    0.0000000

LOEWDIN ATOMIC CHARGES
----------------------
   0 S :    0.404182
   1 C :   -0.181350
   2 C :   -0.056117
   3 C :   -0.060221
   4 C :   -0.194148
   5 H :    0.031572
   6 C :   -0.023221
   7 H :    0.028424
   8 H :    0.020275
   9 C :   -0.038192
  10 H :    0.018226
  11 H :    0.031183
  12 C :   -0.062000
  13 H :    0.008576
  14 H :    0.038279
  15 H :    0.025811
  16 S :    0.394396
  17 C :   -0.177450
  18 C :   -0.078943
  19 C :   -0.063129
  20 C :   -0.190355
  21 H :    0.038212
  22 C :   -0.043680
  23 H :    0.028067
  24 H :    0.034832
  25 C :   -0.062802
  26 H :    0.025085
  27 H :    0.026393
  28 C :   -0.059079
  29 H :    0.024713
  30 H :    0.027927
  31 H :    0.030945
  32 H :    0.024529
  33 H :    0.029058

  Mayer bond orders larger than 0.100000
B(  0-S ,  1-C ) :   1.1230 B(  0-S ,  4-C ) :   1.1543 B(  1-C ,  2-C ) :   1.6384
B(  1-C , 32-H ) :   0.9688 B(  2-C ,  3-C ) :   1.2295 B(  2-C ,  6-C ) :   1.0061
B(  3-C ,  4-C ) :   1.5809 B(  3-C ,  5-H ) :   0.9905 B(  4-C , 20-C ) :   1.0114
B(  6-C ,  7-H ) :   0.9436 B(  6-C ,  8-H ) :   0.9425 B(  6-C ,  9-C ) :   1.0708
B(  9-C , 10-H ) :   0.9567 B(  9-C , 11-H ) :   0.9587 B(  9-C , 12-C ) :   1.0734
B( 12-C , 13-H ) :   0.9767 B( 12-C , 14-H ) :   0.9733 B( 12-C , 15-H ) :   0.9762
B( 16-S , 17-C ) :   1.1378 B( 16-S , 20-C ) :   1.1354 B( 17-C , 18-C ) :   1.6385
B( 17-C , 33-H ) :   0.9713 B( 18-C , 19-C ) :   1.2218 B( 18-C , 21-H ) :   0.9828
B( 19-C , 20-C ) :   1.6385 B( 19-C , 22-C ) :   1.0503 B( 22-C , 23-H ) :   0.9385
B( 22-C , 24-H ) :   0.9359 B( 22-C , 25-C ) :   1.0487 B( 25-C , 26-H ) :   0.9414
B( 25-C , 27-H ) :   0.9473 B( 25-C , 28-C ) :   1.0827 B( 28-C , 29-H ) :   0.9705
B( 28-C , 30-H ) :   0.9753 B( 28-C , 31-H ) :   0.9683

Dispersion correction           -0.015011300
FINAL SINGLE POINT ENERGY     -1339.873470480817

DIPOLE MOMENT
-------------
                                X             Y             Z
Electronic contribution:    -13.86008      24.06167      -1.39216
Nuclear contribution   :     14.33978     -24.68696       1.50745
                        -----------------------------------------
Total Dipole Moment    :      0.47970      -0.62528       0.11529
                        -----------------------------------------
Magnitude (a.u.)       :      0.79648
Magnitude (Debye)      :      2.02450

Rotational constants in cm-1:     0.017180     0.009706     0.007538
Rotational constants in MHz :   515.040021   290.986201   225.997831

                             ****ORCA TERMINATED NORMALLY****
TOTAL RUN TIME: 0 days 0 hours 0 minutes 35 seconds 697 msec
