                         Program Version 4.2.1 -  RELEASE  -
|  1> ! wB97X-D3 SP def2-SVP
|  2> %pal
|  3> nprocs 16
|  4> end
|  5>
|  6> * xyz 0 1
|  7> S 	 -8.93307 	 42.0437 	 36.5421
|  8> C 	 -8.59776 	 40.5925 	 35.5308
|  9> C 	 -7.37092 	 40.7784 	 34.9219
| 10> C 	 -6.67112 	 41.9145 	 35.3159
| 11> C 	 -7.36705 	 42.7481 	 36.2108
| 12> H 	 -5.72066 	 42.1939 	 34.9835
| 13> C 	 -6.67495 	 39.8352 	 33.9336
| 14> H 	 -5.88336 	 40.3315 	 33.3894
| 15> H 	 -7.39256 	 39.66 	 33.1345
| 16> C 	 -6.13182 	 38.6203 	 34.7002
| 17> H 	 -5.36996 	 38.8984 	 35.4951
| 18> H 	 -6.91996 	 38.079 	 35.1566
| 19> C 	 -5.4196 	 37.5881 	 33.766
| 20> H 	 -5.49649 	 37.9806 	 32.7445
| 21> H 	 -4.33853 	 37.5643 	 34.0037
| 22> H 	 -5.93236 	 36.6422 	 33.7034
| 23> S 	 -7.82225 	 45.4487 	 36.5727
| 24> C 	 -6.57593 	 46.4512 	 37.0946
| 25> C 	 -5.41257 	 45.7412 	 37.5423
| 26> C 	 -5.61244 	 44.3487 	 37.2707
| 27> C 	 -6.91582 	 44.0078 	 36.8003
| 28> H 	 -4.57404 	 46.1826 	 38.1005
| 29> C 	 -4.58588 	 43.3521 	 37.7343
| 30> H 	 -5.0116 	 42.4136 	 37.901
| 31> H 	 -4.23708 	 43.6891 	 38.7369
| 32> C 	 -3.35253 	 43.2547 	 36.8279
| 33> H 	 -2.84522 	 44.1508 	 36.7827
| 34> H 	 -3.66758 	 43.0301 	 35.8036
| 35> C 	 -2.45844 	 42.1333 	 37.3335
| 36> H 	 -1.99648 	 42.1961 	 38.2522
| 37> H 	 -1.55722 	 42.1337 	 36.6223
| 38> H 	 -2.82895 	 41.1885 	 37.1072
| 39> H 	 -9.17721 	 39.7966 	 35.1597
| 40> H 	 -6.67751 	 47.5124 	 37.2671
| 41> *
| 42>
| 43>                          ****END OF INPUT****

CARTESIAN COORDINATES (ANGSTROEM)
---------------------------------
  S     -8.933070   42.043700   36.542100
  C     -8.597760   40.592500   35.530800
  C     -7.370920   40.778400   34.921900
  C     -6.671120   41.914500   35.315900
  C     -7.367050   42.748100   36.210800
  H     -5.720660   42.193900   34.983500
  C     -6.674950   39.835200   33.933600
  H     -5.883360   40.331500   33.389400
  H     -7.392560   39.660000   33.134500
  C     -6.131820   38.620300   34.700200
  H     -5.369960   38.898400   35.495100
  H     -6.919960   38.079000   35.156600
  C     -5.419600   37.588100   33.766000
  H     -5.496490   37.980600   32.744500
  H     -4.338530   37.564300   34.003700
  H     -5.932360   36.642200   33.703400
  S     -7.822250   45.448700   36.572700
  C     -6.575930   46.451200   37.094600
  C     -5.412570   45.741200   37.542300
  C     -5.612440   44.348700   37.270700
  C     -6.915820   44.007800   36.800300
  H     -4.574040   46.182600   38.100500
  C     -4.585880   43.352100   37.734300
  H     -5.011600   42.413600   37.901000
  H     -4.237080   43.689100   38.736900
  C     -3.352530   43.254700   36.827900
  H     -2.845220   44.150800   36.782700
  H     -3.667580   43.030100   35.803600
  C     -2.458440   42.133300   37.333500
  H     -1.996480   42.196100   38.252200
  H     -1.557220   42.133700   36.622300
  H     -2.828950   41.188500   37.107200
  H     -9.177210   39.796600   35.159700
  H     -6.677510   47.512400   37.267100

 Total Charge           Charge          ....    0
 Multiplicity           Mult            ....    1
 Number of Electrons    NEL             ....  134
 Basis Dimension        Dim             ....  322

ORBITAL ENERGIES
----------------

  NO   OCC          E(Eh)            E(eV)
   0   2.0000     -88.971238     -2421.0305
   1   2.0000     -88.969188     -2420.9747
   2   2.0000     -10.332930      -281.1733
   3   2.0000     -10.326056      -280.9863
   4   2.0000     -10.319724      -280.8140
   5   2.0000     -10.312138      -280.6076
   6   2.0000     -10.305252      -280.4202
   7   2.0000     -10.301739      -280.3246
   8   2.0000     -10.294983      -280.1407
   9   2.0000     -10.292626      -280.0766
  10   2.0000     -10.289184      -279.9829
  11   2.0000     -10.285541      -279.8838
  12   2.0000     -10.282488      -279.8007
  13   2.0000     -10.280894      -279.7573
  14   2.0000     -10.277812      -279.6735
  15   2.0000     -10.271052      -279.4895
  16   2.0000      -8.087355      -220.0681
  17   2.0000      -8.082578      -219.9381
  18   2.0000      -6.045620      -164.5097
  19   2.0000      -6.041432      -164.3957
  20   2.0000      -6.041303      -164.3922
  21   2.0000      -6.038528      -164.3167
  22   2.0000      -6.037114      -164.2782
  23   2.0000      -6.033352      -164.1759
  24   2.0000      -1.008101       -27.4318
  25   2.0000      -0.984566       -26.7914
  26   2.0000      -0.915404       -24.9094
  27   2.0000      -0.909616       -24.7519
  28   2.0000      -0.865614       -23.5545
  29   2.0000      -0.857098       -23.3228
  30   2.0000      -0.844492       -22.9798
  31   2.0000      -0.810539       -22.0559
  32   2.0000      -0.782606       -21.2958
  33   2.0000      -0.771832       -21.0026
  34   2.0000      -0.711374       -19.3575
  35   2.0000      -0.703542       -19.1443
  36   2.0000      -0.697437       -18.9782
  37   2.0000      -0.662924       -18.0391
  38   2.0000      -0.638280       -17.3685
  39   2.0000      -0.620120       -16.8743
  40   2.0000      -0.598155       -16.2766
  41   2.0000      -0.573394       -15.6028
  42   2.0000      -0.573017       -15.5926
  43   2.0000      -0.560801       -15.2602
  44   2.0000      -0.526588       -14.3292
  45   2.0000      -0.522158       -14.2087
  46   2.0000      -0.520659       -14.1679
  47   2.0000      -0.506993       -13.7960
  48   2.0000      -0.505804       -13.7636
  49   2.0000      -0.504870       -13.7382
  50   2.0000      -0.495511       -13.4836
  51   2.0000      -0.484329       -13.1793
  52   2.0000      -0.477898       -13.0043
  53   2.0000      -0.467919       -12.7327
  54   2.0000      -0.460011       -12.5175
  55   2.0000      -0.450963       -12.2713
  56   2.0000      -0.441177       -12.0050
  57   2.0000      -0.435090       -11.8394
  58   2.0000      -0.433219       -11.7885
  59   2.0000      -0.424891       -11.5619
  60   2.0000      -0.420749       -11.4492
  61   2.0000      -0.413706       -11.2575
  62   2.0000      -0.410548       -11.1716
  63   2.0000      -0.344294        -9.3687
  64   2.0000      -0.333089        -9.0638
  65   2.0000      -0.329733        -8.9725
  66   2.0000      -0.288221        -7.8429
  67   0.0000       0.025728         0.7001
  68   0.0000       0.068348         1.8599
  69   0.0000       0.108802         2.9607
  70   0.0000       0.117126         3.1872
  71   0.0000       0.128063         3.4848

MULLIKEN ATOMIC CHARGES
-----------------------
   0 S :    0.106528
   1 C :   -0.086679
   2 C :   -0.114467
   3 C :    0.061607
   4 C :   -0.145591
   5 H :   -0.034003
   6 C :    0.067589
   7 H :    0.016534
   8 H :    0.030209
   9 C :   -0.085259
  10 H :    0.045243
  11 H :    0.022722
  12 C :   -0.047201
  13 H :    0.018338
  14 H :    0.044350
  15 H :    0.038388
  16 S :    0.142307
  17 C :   -0.098598
  18 C :   -0.044319
  19 C :   -0.053806
  20 C :   -0.130351
  21 H :    0.037641
  22 C :    0.059671
  23 H :    0.009489
  24 H :    0.022377
  25 C :   -0.042721
  26 H :    0.008251
  27 H :    0.020591
  28 C :   -0.013894
  29 H :    0.024414
  30 H :    0.016644
  31 H :    0.017090
  32 H :    0.026155
  33 H :    0.060753
Sum of atomic charges:   -0.0000000

LOEWDIN ATOMIC CHARGES
----------------------
   0 S :    0.396670
   1 C :   -0.192780
   2 C :   -0.058575
   3 C :   -0.061604
   4 C :   -0.188519
   5 H :    0.017458
   6 C :   -0.031014
   7 H :    0.026482
   8 H :    0.030554
   9 C :   -0.038856
  10 H :    0.034578
  11 H :    0.018091
  12 C :   -0.072227
  13 H :    0.023755
  14 H :    0.030750
  15 H :    0.025301
  16 S :    0.467967
  17 C :   -0.207283
  18 C :   -0.074601
  19 C :   -0.047288
  20 C :   -0.232326
  21 H :    0.038371
  22 C :   -0.028995
  23 H :    0.019906
  24 H :    0.034208
  25 C :   -0.026768
  26 H :    0.012155
  27 H :    0.023227
  28 C :   -0.057444
  29 H :    0.014780
  30 H :    0.034887
  31 H :    0.017319
  32 H :    0.024267
  33 H :    0.027555

  Mayer bond orders larger than 0.100000
B(  0-S ,  1-C ) :   1.1196 B(  0-S ,  4-C ) :   1.1626 B(  1-C ,  2-C ) :   1.6053
B(  1-C ,  4-C ) :   0.1100 B(  1-C , 32-H ) :   0.9680 B(  2-C ,  3-C ) :   1.2778
B(  2-C ,  6-C ) :   1.0145 B(  3-C ,  4-C ) :   1.5308 B(  3-C ,  5-H ) :   1.0060
B(  4-C , 20-C ) :   1.0270 B(  6-C ,  7-H ) :   0.9425 B(  6-C ,  8-H ) :   0.9364
B(  6-C ,  9-C ) :   1.0685 B(  9-C , 10-H ) :   0.9638 B(  9-C , 11-H ) :   0.9642
B(  9-C , 12-C ) :   1.0594 B( 12-C , 13-H ) :   0.9777 B( 12-C , 14-H ) :   0.9797
B( 12-C , 15-H ) :   0.9783 B( 16-S , 17-C ) :   1.2255 B( 16-S , 20-C ) :   1.1564
B( 17-C , 18-C ) :   1.5168 B( 17-C , 20-C ) :   0.1049 B( 17-C , 33-H ) :   0.9660
B( 18-C , 19-C ) :   1.3050 B( 18-C , 21-H ) :   0.9866 B( 19-C , 20-C ) :   1.5253
B( 19-C , 22-C ) :   1.0508 B( 22-C , 23-H ) :   0.9438 B( 22-C , 24-H ) :   0.9390
B( 22-C , 25-C ) :   1.0569 B( 25-C , 26-H ) :   0.9537 B( 25-C , 27-H ) :   0.9512
B( 25-C , 28-C ) :   1.0952 B( 28-C , 29-H ) :   0.9756 B( 28-C , 30-H ) :   0.9674
B( 28-C , 31-H ) :   0.9729

Dispersion correction           -0.014229193
FINAL SINGLE POINT ENERGY     -1339.856563673700

DIPOLE MOMENT
-------------
                                X             Y             Z
Electronic contribution:    -25.04613      20.95173       6.25029
Nuclear contribution   :     25.68741     -21.09848      -6.40991
                        -----------------------------------------
Total Dipole Moment    :      0.64128      -0.14675      -0.15962
                        -----------------------------------------
Magnitude (a.u.)       :      0.67695
Magnitude (Debye)      :      1.72066

Rotational constants in cm-1:     0.017960     0.009116     0.006488
Rotational constants in MHz :   538.422052   273.278707   194.517862

                             ****ORCA TERMINATED NORMALLY****
TOTAL RUN TIME: 0 days 0 hours 0 minutes 34 seconds 292 msec
