                         Program Version 4.2.1 -  RELEASE  -
|  1> ! wB97X-D3 SP def2-SVP
|  2> %pal
|  3> nprocs 16
|  4> end
|  5>
|  6> * xyz 0 1
|  7> S 	 -65.9397 	 36.0801 	 118.27
|  8> C 	 -65.6888 	 35.8325 	 120.045
|  9> C 	 -66.1928 	 36.9319 	 120.74
| 10> C 	 -66.8069 	 37.8604 	 119.852
| 11> C 	 -66.9377 	 37.4405 	 118.557
| 12> H 	 -67.3404 	 38.7419 	 120.12
| 13> C 	 -66.1278 	 37.0799 	 122.261
| 14> H 	 -65.6502 	 38.0162 	 122.516
| 15> H 	 -65.5163 	 36.2847 	 122.657
| 16> C 	 -67.5176 	 36.9868 	 122.968
| 17> H 	 -67.3782 	 37.0746 	 124.039
| 18> H 	 -68.1267 	 37.9153 	 122.682
| 19> C 	 -68.1762 	 35.5853 	 122.688
| 20> H 	 -69.1536 	 35.4617 	 123.185
| 21> H 	 -68.4759 	 35.4649 	 121.583
| 22> H 	 -67.5989 	 34.7396 	 122.941
| 23> S 	 -66.401 	 38.7831 	 116.235
| 24> C 	 -67.7425 	 39.6897 	 115.518
| 25> C 	 -68.9873 	 39.3947 	 116.002
| 26> C 	 -68.8266 	 38.5397 	 117.134
| 27> C 	 -67.4895 	 38.2032 	 117.472
| 28> H 	 -69.899 	 39.81 	 115.541
| 29> C 	 -70.0777 	 38.0881 	 117.89
| 30> H 	 -70.7783 	 38.8987 	 118.228
| 31> H 	 -69.8075 	 37.6363 	 118.852
| 32> C 	 -70.9442 	 37.0421 	 117.274
| 33> H 	 -71.0367 	 37.3027 	 116.237
| 34> H 	 -71.9689 	 37.1954 	 117.644
| 35> C 	 -70.4344 	 35.5853 	 117.48
| 36> H 	 -69.9786 	 35.4631 	 118.437
| 37> H 	 -69.6579 	 35.2799 	 116.878
| 38> H 	 -71.1776 	 34.8359 	 117.609
| 39> H 	 -65.1552 	 35.0481 	 120.592
| 40> H 	 -67.5981 	 40.4052 	 114.752
| 41> *
| 42>
| 43>                          ****END OF INPUT****

CARTESIAN COORDINATES (ANGSTROEM)
---------------------------------
  S    -65.939700   36.080100  118.270000
  C    -65.688800   35.832500  120.045000
  C    -66.192800   36.931900  120.740000
  C    -66.806900   37.860400  119.852000
  C    -66.937700   37.440500  118.557000
  H    -67.340400   38.741900  120.120000
  C    -66.127800   37.079900  122.261000
  H    -65.650200   38.016200  122.516000
  H    -65.516300   36.284700  122.657000
  C    -67.517600   36.986800  122.968000
  H    -67.378200   37.074600  124.039000
  H    -68.126700   37.915300  122.682000
  C    -68.176200   35.585300  122.688000
  H    -69.153600   35.461700  123.185000
  H    -68.475900   35.464900  121.583000
  H    -67.598900   34.739600  122.941000
  S    -66.401000   38.783100  116.235000
  C    -67.742500   39.689700  115.518000
  C    -68.987300   39.394700  116.002000
  C    -68.826600   38.539700  117.134000
  C    -67.489500   38.203200  117.472000
  H    -69.899000   39.810000  115.541000
  C    -70.077700   38.088100  117.890000
  H    -70.778300   38.898700  118.228000
  H    -69.807500   37.636300  118.852000
  C    -70.944200   37.042100  117.274000
  H    -71.036700   37.302700  116.237000
  H    -71.968900   37.195400  117.644000
  C    -70.434400   35.585300  117.480000
  H    -69.978600   35.463100  118.437000
  H    -69.657900   35.279900  116.878000
  H    -71.177600   34.835900  117.609000
  H    -65.155200   35.048100  120.592000
  H    -67.598100   40.405200  114.752000

 Total Charge           Charge          ....    0
 Multiplicity           Mult            ....    1
 Number of Electrons    NEL             ....  134
 Basis Dimension        Dim             ....  322

ORBITAL ENERGIES
----------------

  NO   OCC          E(Eh)            E(eV)
   0   2.0000     -88.968412     -2420.9536
   1   2.0000     -88.966743     -2420.9082
   2   2.0000     -10.328501      -281.0528
   3   2.0000     -10.324073      -280.9323
   4   2.0000     -10.319122      -280.7976
   5   2.0000     -10.316617      -280.7294
   6   2.0000     -10.309570      -280.5376
   7   2.0000     -10.303229      -280.3651
   8   2.0000     -10.299067      -280.2519
   9   2.0000     -10.297976      -280.2222
  10   2.0000     -10.294774      -280.1350
  11   2.0000     -10.288085      -279.9530
  12   2.0000     -10.285907      -279.8937
  13   2.0000     -10.282570      -279.8029
  14   2.0000     -10.280687      -279.7517
  15   2.0000     -10.260222      -279.1948
  16   2.0000      -8.083059      -219.9512
  17   2.0000      -8.081176      -219.9000
  18   2.0000      -6.041513      -164.3979
  19   2.0000      -6.039722      -164.3492
  20   2.0000      -6.037731      -164.2950
  21   2.0000      -6.035817      -164.2429
  22   2.0000      -6.033719      -164.1858
  23   2.0000      -6.031795      -164.1335
  24   2.0000      -1.008964       -27.4553
  25   2.0000      -0.982888       -26.7458
  26   2.0000      -0.909777       -24.7563
  27   2.0000      -0.907253       -24.6876
  28   2.0000      -0.869263       -23.6538
  29   2.0000      -0.845194       -22.9989
  30   2.0000      -0.839843       -22.8533
  31   2.0000      -0.813680       -22.1414
  32   2.0000      -0.785664       -21.3790
  33   2.0000      -0.775746       -21.1091
  34   2.0000      -0.713124       -19.4051
  35   2.0000      -0.697271       -18.9737
  36   2.0000      -0.694142       -18.8886
  37   2.0000      -0.657601       -17.8942
  38   2.0000      -0.640400       -17.4262
  39   2.0000      -0.618776       -16.8377
  40   2.0000      -0.601759       -16.3747
  41   2.0000      -0.567640       -15.4463
  42   2.0000      -0.551991       -15.0204
  43   2.0000      -0.549845       -14.9620
  44   2.0000      -0.540856       -14.7174
  45   2.0000      -0.530460       -14.4345
  46   2.0000      -0.512549       -13.9472
  47   2.0000      -0.506811       -13.7910
  48   2.0000      -0.503632       -13.7045
  49   2.0000      -0.493655       -13.4330
  50   2.0000      -0.488122       -13.2825
  51   2.0000      -0.477589       -12.9958
  52   2.0000      -0.473595       -12.8872
  53   2.0000      -0.462582       -12.5875
  54   2.0000      -0.455746       -12.4015
  55   2.0000      -0.454139       -12.3578
  56   2.0000      -0.442853       -12.0506
  57   2.0000      -0.432823       -11.7777
  58   2.0000      -0.428704       -11.6656
  59   2.0000      -0.424544       -11.5524
  60   2.0000      -0.417779       -11.3683
  61   2.0000      -0.414633       -11.2827
  62   2.0000      -0.412218       -11.2170
  63   2.0000      -0.344855        -9.3840
  64   2.0000      -0.331194        -9.0123
  65   2.0000      -0.328986        -8.9522
  66   2.0000      -0.294589        -8.0162
  67   0.0000       0.034820         0.9475
  68   0.0000       0.055692         1.5155
  69   0.0000       0.101306         2.7567
  70   0.0000       0.120169         3.2700
  71   0.0000       0.125193         3.4067

MULLIKEN ATOMIC CHARGES
-----------------------
   0 S :    0.101109
   1 C :   -0.121110
   2 C :   -0.094815
   3 C :    0.057329
   4 C :   -0.166494
   5 H :    0.001313
   6 C :    0.086956
   7 H :    0.035913
   8 H :    0.009716
   9 C :   -0.087817
  10 H :    0.034611
  11 H :    0.045231
  12 C :   -0.079275
  13 H :    0.034532
  14 H :    0.053775
  15 H :    0.027017
  16 S :    0.114942
  17 C :   -0.080458
  18 C :   -0.025058
  19 C :   -0.013314
  20 C :   -0.158737
  21 H :    0.039527
  22 C :    0.020654
  23 H :    0.031861
  24 H :    0.009763
  25 C :   -0.048736
  26 H :    0.012071
  27 H :    0.022027
  28 C :    0.009919
  29 H :   -0.002498
  30 H :    0.022770
  31 H :    0.018936
  32 H :    0.048334
  33 H :    0.040004
Sum of atomic charges:   -0.0000000

LOEWDIN ATOMIC CHARGES
----------------------
   0 S :    0.396284
   1 C :   -0.188479
   2 C :   -0.057466
   3 C :   -0.059517
   4 C :   -0.206460
   5 H :    0.026159
   6 C :   -0.027174
   7 H :    0.031707
   8 H :    0.025063
   9 C :   -0.041263
  10 H :    0.022539
  11 H :    0.031607
  12 C :   -0.074583
  13 H :    0.027483
  14 H :    0.037098
  15 H :    0.017647
  16 S :    0.401196
  17 C :   -0.162714
  18 C :   -0.069567
  19 C :   -0.048689
  20 C :   -0.205231
  21 H :    0.044061
  22 C :   -0.044895
  23 H :    0.035520
  24 H :    0.025688
  25 C :   -0.038604
  26 H :    0.017768
  27 H :    0.027736
  28 C :   -0.062660
  29 H :    0.025027
  30 H :    0.019129
  31 H :    0.025082
  32 H :    0.032599
  33 H :    0.017911

  Mayer bond orders larger than 0.100000
B(  0-S ,  1-C ) :   1.1195 B(  0-S ,  4-C ) :   1.1451 B(  1-C ,  2-C ) :   1.6186
B(  1-C , 32-H ) :   0.9646 B(  2-C ,  3-C ) :   1.2252 B(  2-C ,  6-C ) :   1.0287
B(  3-C ,  4-C ) :   1.5899 B(  3-C ,  5-H ) :   0.9962 B(  4-C , 20-C ) :   1.0404
B(  6-C ,  7-H ) :   0.9405 B(  6-C ,  8-H ) :   0.9396 B(  6-C ,  9-C ) :   1.0687
B(  9-C , 10-H ) :   0.9586 B(  9-C , 11-H ) :   0.9579 B(  9-C , 12-C ) :   1.0587
B( 12-C , 13-H ) :   0.9757 B( 12-C , 14-H ) :   0.9738 B( 12-C , 15-H ) :   0.9775
B( 16-S , 17-C ) :   1.1552 B( 16-S , 20-C ) :   1.1336 B( 17-C , 18-C ) :   1.6239
B( 17-C , 33-H ) :   0.9687 B( 18-C , 19-C ) :   1.2234 B( 18-C , 21-H ) :   0.9890
B( 19-C , 20-C ) :   1.6000 B( 19-C , 22-C ) :   1.0448 B( 22-C , 23-H ) :   0.9422
B( 22-C , 24-H ) :   0.9349 B( 22-C , 25-C ) :   1.0821 B( 25-C , 26-H ) :   0.9553
B( 25-C , 27-H ) :   0.9528 B( 25-C , 28-C ) :   1.0657 B( 28-C , 29-H ) :   0.9677
B( 28-C , 30-H ) :   0.9756 B( 28-C , 31-H ) :   0.9735

Dispersion correction           -0.015371242
FINAL SINGLE POINT ENERGY     -1339.860825330789

DIPOLE MOMENT
-------------
                                X             Y             Z
Electronic contribution:     18.33191       7.49679     -18.13892
Nuclear contribution   :    -18.73516      -7.30859      18.60184
                        -----------------------------------------
Total Dipole Moment    :     -0.40325       0.18820       0.46292
                        -----------------------------------------
Magnitude (a.u.)       :      0.64212
Magnitude (Debye)      :      1.63215

Rotational constants in cm-1:     0.019374     0.009334     0.007679
Rotational constants in MHz :   580.807036   279.821262   230.225490

                             ****ORCA TERMINATED NORMALLY****
TOTAL RUN TIME: 0 days 0 hours 0 minutes 32 seconds 208 msec
