                         Program Version 4.2.1 -  RELEASE  -
|  1> ! wB97X-D3 SP def2-SVP
|  2> %pal
|  3> nprocs 16
|  4> end
|  5>
|  6> * xyz 0 1
|  7> S 	 -6.97462 	 63.2402 	 52.7696
|  8> C 	 -6.65018 	 63.3409 	 54.5284
|  9> C 	 -7.17051 	 64.5057 	 55.034
| 10> C 	 -7.99211 	 65.1807 	 54.0676
| 11> C 	 -7.92606 	 64.7006 	 52.7634
| 12> H 	 -8.73933 	 65.8704 	 54.2728
| 13> C 	 -7.25343 	 64.8574 	 56.5667
| 14> H 	 -6.29927 	 64.3394 	 56.9561
| 15> H 	 -8.17875 	 64.4563 	 57.0081
| 16> C 	 -7.14226 	 66.3775 	 56.9953
| 17> H 	 -8.00339 	 67.0357 	 56.741
| 18> H 	 -7.22353 	 66.4666 	 58.1136
| 19> C 	 -5.85233 	 67.1099 	 56.5367
| 20> H 	 -5.75833 	 67.2989 	 55.4612
| 21> H 	 -5.72739 	 68.0436 	 57.1862
| 22> H 	 -4.97972 	 66.5796 	 56.9007
| 23> S 	 -8.69949 	 64.0721 	 50.1854
| 24> C 	 -9.52074 	 65.3326 	 49.2549
| 25> C 	 -9.78534 	 66.4674 	 49.9669
| 26> C 	 -9.05497 	 66.4469 	 51.2437
| 27> C 	 -8.62153 	 65.1151 	 51.6135
| 28> H 	 -10.3969 	 67.2409 	 49.5692
| 29> C 	 -8.95047 	 67.7449 	 52.0693
| 30> H 	 -8.45552 	 67.5763 	 52.965
| 31> H 	 -9.90375 	 68.2915 	 52.1765
| 32> C 	 -7.98052 	 68.7744 	 51.4589
| 33> H 	 -8.08107 	 69.694 	 51.9427
| 34> H 	 -8.39216 	 69.0726 	 50.472
| 35> C 	 -6.5522 	 68.245 	 51.5446
| 36> H 	 -6.21617 	 68.0762 	 52.5401
| 37> H 	 -5.83482 	 68.9853 	 51.0399
| 38> H 	 -6.46132 	 67.299 	 51.1331
| 39> H 	 -6.14313 	 62.612 	 55.1286
| 40> H 	 -10.0192 	 65.1825 	 48.3651
| 41> *
| 42>
| 43>                          ****END OF INPUT****

CARTESIAN COORDINATES (ANGSTROEM)
---------------------------------
  S     -6.974620   63.240200   52.769600
  C     -6.650180   63.340900   54.528400
  C     -7.170510   64.505700   55.034000
  C     -7.992110   65.180700   54.067600
  C     -7.926060   64.700600   52.763400
  H     -8.739330   65.870400   54.272800
  C     -7.253430   64.857400   56.566700
  H     -6.299270   64.339400   56.956100
  H     -8.178750   64.456300   57.008100
  C     -7.142260   66.377500   56.995300
  H     -8.003390   67.035700   56.741000
  H     -7.223530   66.466600   58.113600
  C     -5.852330   67.109900   56.536700
  H     -5.758330   67.298900   55.461200
  H     -5.727390   68.043600   57.186200
  H     -4.979720   66.579600   56.900700
  S     -8.699490   64.072100   50.185400
  C     -9.520740   65.332600   49.254900
  C     -9.785340   66.467400   49.966900
  C     -9.054970   66.446900   51.243700
  C     -8.621530   65.115100   51.613500
  H    -10.396900   67.240900   49.569200
  C     -8.950470   67.744900   52.069300
  H     -8.455520   67.576300   52.965000
  H     -9.903750   68.291500   52.176500
  C     -7.980520   68.774400   51.458900
  H     -8.081070   69.694000   51.942700
  H     -8.392160   69.072600   50.472000
  C     -6.552200   68.245000   51.544600
  H     -6.216170   68.076200   52.540100
  H     -5.834820   68.985300   51.039900
  H     -6.461320   67.299000   51.133100
  H     -6.143130   62.612000   55.128600
  H    -10.019200   65.182500   48.365100

 Total Charge           Charge          ....    0
 Multiplicity           Mult            ....    1
 Number of Electrons    NEL             ....  134
 Basis Dimension        Dim             ....  322

ORBITAL ENERGIES
----------------

  NO   OCC          E(Eh)            E(eV)
   0   2.0000     -88.969672     -2420.9878
   1   2.0000     -88.965413     -2420.8720
   2   2.0000     -10.335354      -281.2393
   3   2.0000     -10.329412      -281.0776
   4   2.0000     -10.318260      -280.7741
   5   2.0000     -10.318116      -280.7702
   6   2.0000     -10.315413      -280.6967
   7   2.0000     -10.311330      -280.5855
   8   2.0000     -10.306794      -280.4621
   9   2.0000     -10.299996      -280.2771
  10   2.0000     -10.298600      -280.2392
  11   2.0000     -10.288791      -279.9722
  12   2.0000     -10.288403      -279.9617
  13   2.0000     -10.283884      -279.8387
  14   2.0000     -10.280227      -279.7392
  15   2.0000     -10.269600      -279.4500
  16   2.0000      -8.083713      -219.9690
  17   2.0000      -8.079810      -219.8628
  18   2.0000      -6.042475      -164.4241
  19   2.0000      -6.038518      -164.3164
  20   2.0000      -6.038421      -164.3138
  21   2.0000      -6.034380      -164.2038
  22   2.0000      -6.034142      -164.1974
  23   2.0000      -6.030347      -164.0941
  24   2.0000      -1.005630       -27.3646
  25   2.0000      -0.978308       -26.6211
  26   2.0000      -0.912361       -24.8266
  27   2.0000      -0.901402       -24.5284
  28   2.0000      -0.874443       -23.7948
  29   2.0000      -0.846239       -23.0273
  30   2.0000      -0.837713       -22.7953
  31   2.0000      -0.815392       -22.1879
  32   2.0000      -0.782491       -21.2927
  33   2.0000      -0.773241       -21.0410
  34   2.0000      -0.718059       -19.5394
  35   2.0000      -0.700340       -19.0572
  36   2.0000      -0.695220       -18.9179
  37   2.0000      -0.658481       -17.9182
  38   2.0000      -0.640542       -17.4300
  39   2.0000      -0.621424       -16.9098
  40   2.0000      -0.596779       -16.2392
  41   2.0000      -0.565698       -15.3934
  42   2.0000      -0.556268       -15.1368
  43   2.0000      -0.549177       -14.9439
  44   2.0000      -0.542427       -14.7602
  45   2.0000      -0.538260       -14.6468
  46   2.0000      -0.514379       -13.9970
  47   2.0000      -0.511347       -13.9145
  48   2.0000      -0.505761       -13.7624
  49   2.0000      -0.501982       -13.6596
  50   2.0000      -0.491916       -13.3857
  51   2.0000      -0.475590       -12.9415
  52   2.0000      -0.468384       -12.7454
  53   2.0000      -0.462536       -12.5862
  54   2.0000      -0.456491       -12.4217
  55   2.0000      -0.448954       -12.2167
  56   2.0000      -0.448034       -12.1916
  57   2.0000      -0.439226       -11.9519
  58   2.0000      -0.431085       -11.7304
  59   2.0000      -0.424009       -11.5379
  60   2.0000      -0.414529       -11.2799
  61   2.0000      -0.408625       -11.1193
  62   2.0000      -0.407387       -11.0856
  63   2.0000      -0.365491        -9.9455
  64   2.0000      -0.333717        -9.0809
  65   2.0000      -0.327576        -8.9138
  66   2.0000      -0.278954        -7.5907
  67   0.0000       0.010406         0.2832
  68   0.0000       0.086613         2.3568
  69   0.0000       0.089736         2.4418
  70   0.0000       0.105544         2.8720
  71   0.0000       0.128484         3.4962

MULLIKEN ATOMIC CHARGES
-----------------------
   0 S :    0.085440
   1 C :   -0.117311
   2 C :   -0.057644
   3 C :    0.003748
   4 C :   -0.122859
   5 H :    0.005375
   6 C :    0.026246
   7 H :    0.040640
   8 H :    0.060898
   9 C :   -0.107551
  10 H :    0.033769
  11 H :    0.033699
  12 C :   -0.075446
  13 H :    0.061668
  14 H :    0.035296
  15 H :    0.022266
  16 S :    0.092768
  17 C :   -0.043357
  18 C :   -0.016799
  19 C :   -0.097080
  20 C :   -0.096659
  21 H :    0.021710
  22 C :    0.072031
  23 H :   -0.010738
  24 H :    0.037529
  25 C :   -0.049503
  26 H :    0.009695
  27 H :    0.013787
  28 C :   -0.032988
  29 H :    0.021825
  30 H :    0.044216
  31 H :    0.028499
  32 H :    0.044931
  33 H :    0.031900
Sum of atomic charges:   -0.0000000

LOEWDIN ATOMIC CHARGES
----------------------
   0 S :    0.384111
   1 C :   -0.178460
   2 C :   -0.065989
   3 C :   -0.065134
   4 C :   -0.189102
   5 H :    0.019053
   6 C :   -0.031957
   7 H :    0.039257
   8 H :    0.037535
   9 C :   -0.057357
  10 H :    0.024315
  11 H :    0.031563
  12 C :   -0.076410
  13 H :    0.027869
  14 H :    0.036560
  15 H :    0.021889
  16 S :    0.385297
  17 C :   -0.162280
  18 C :   -0.057425
  19 C :   -0.037309
  20 C :   -0.197253
  21 H :    0.030550
  22 C :   -0.030635
  23 H :    0.015153
  24 H :    0.035847
  25 C :   -0.035609
  26 H :    0.014738
  27 H :    0.020104
  28 C :   -0.059903
  29 H :    0.022775
  30 H :    0.036446
  31 H :    0.019267
  32 H :    0.027466
  33 H :    0.015027

  Mayer bond orders larger than 0.100000
B(  0-S ,  1-C ) :   1.1235 B(  0-S ,  4-C ) :   1.1217 B(  1-C ,  2-C ) :   1.6296
B(  1-C , 32-H ) :   0.9721 B(  2-C ,  3-C ) :   1.2181 B(  2-C ,  6-C ) :   1.0060
B(  3-C ,  4-C ) :   1.5715 B(  3-C ,  5-H ) :   0.9949 B(  4-C , 20-C ) :   1.1451
B(  6-C ,  7-H ) :   0.9464 B(  6-C ,  8-H ) :   0.9489 B(  6-C ,  9-C ) :   1.0612
B(  9-C , 10-H ) :   0.9546 B(  9-C , 11-H ) :   0.9563 B(  9-C , 12-C ) :   1.0735
B( 12-C , 13-H ) :   0.9753 B( 12-C , 14-H ) :   0.9718 B( 12-C , 15-H ) :   0.9737
B( 16-S , 17-C ) :   1.1355 B( 16-S , 20-C ) :   1.1105 B( 17-C , 18-C ) :   1.6549
B( 17-C , 33-H ) :   0.9661 B( 18-C , 19-C ) :   1.2012 B( 18-C , 21-H ) :   0.9885
B( 19-C , 20-C ) :   1.5550 B( 19-C , 22-C ) :   1.0555 B( 22-C , 23-H ) :   0.9306
B( 22-C , 24-H ) :   0.9388 B( 22-C , 25-C ) :   1.0757 B( 25-C , 26-H ) :   0.9526
B( 25-C , 27-H ) :   0.9534 B( 25-C , 28-C ) :   1.0661 B( 28-C , 29-H ) :   0.9699
B( 28-C , 30-H ) :   0.9719 B( 28-C , 31-H ) :   0.9769

Dispersion correction           -0.015133075
FINAL SINGLE POINT ENERGY     -1339.846941193945

DIPOLE MOMENT
-------------
                                X             Y             Z
Electronic contribution:     -6.32127     -23.51483     -17.06301
Nuclear contribution   :      6.03542      24.10721      17.48353
                        -----------------------------------------
Total Dipole Moment    :     -0.28585       0.59238       0.42051
                        -----------------------------------------
Magnitude (a.u.)       :      0.78067
Magnitude (Debye)      :      1.98432

Rotational constants in cm-1:     0.019128     0.009835     0.007243
Rotational constants in MHz :   573.454880   294.834562   217.151925

                             ****ORCA TERMINATED NORMALLY****
TOTAL RUN TIME: 0 days 0 hours 0 minutes 35 seconds 719 msec
