                         Program Version 4.2.1 -  RELEASE  -
|  1> ! wB97X-D3 SP def2-SVP
|  2> %pal
|  3> nprocs 16
|  4> end
|  5>
|  6> * xyz 0 1
|  7> S 	 -0.167761 	 -12.0845 	 70.5646
|  8> C 	 0.82174 	 -13.1244 	 69.5946
|  9> C 	 1.27006 	 -14.1996 	 70.38
| 10> C 	 0.596905 	 -14.2271 	 71.6183
| 11> C 	 -0.130855 	 -13.1644 	 71.9514
| 12> H 	 0.559875 	 -15.0129 	 72.3758
| 13> C 	 2.11102 	 -15.3789 	 69.7656
| 14> H 	 1.57569 	 -16.2998 	 69.8238
| 15> H 	 2.99181 	 -15.466 	 70.3639
| 16> C 	 2.53525 	 -15.3331 	 68.2583
| 17> H 	 1.64861 	 -15.3326 	 67.622
| 18> H 	 3.23284 	 -14.5294 	 68.1459
| 19> C 	 3.40372 	 -16.6031 	 67.9376
| 20> H 	 4.29856 	 -16.5603 	 68.5304
| 21> H 	 2.87604 	 -17.5064 	 68.0647
| 22> H 	 3.70736 	 -16.5024 	 66.8815
| 23> S 	 -2.37348 	 -12.0713 	 73.1839
| 24> C 	 -2.49917 	 -12.1938 	 74.9036
| 25> C 	 -1.39086 	 -12.8176 	 75.4607
| 26> C 	 -0.353789 	 -13.0935 	 74.5387
| 27> C 	 -0.734853 	 -12.7569 	 73.2293
| 28> H 	 -1.31547 	 -12.7609 	 76.531
| 29> C 	 0.98355 	 -13.7 	 75.0435
| 30> H 	 1.5566 	 -14.058 	 74.2019
| 31> H 	 0.829852 	 -14.6029 	 75.7264
| 32> C 	 1.81623 	 -12.5837 	 75.7868
| 33> H 	 1.39547 	 -12.2056 	 76.7729
| 34> H 	 1.92314 	 -11.66 	 75.1569
| 35> C 	 3.19498 	 -13.1149 	 76.0558
| 36> H 	 3.79378 	 -13.3986 	 75.13
| 37> H 	 3.18632 	 -14.0785 	 76.5957
| 38> H 	 3.85037 	 -12.3839 	 76.5836
| 39> H 	 0.984676 	 -13.091 	 68.5358
| 40> H 	 -3.24921 	 -11.8246 	 75.5267
| 41> *
| 42>
| 43>                          ****END OF INPUT****

CARTESIAN COORDINATES (ANGSTROEM)
---------------------------------
  S     -0.167761  -12.084500   70.564600
  C      0.821740  -13.124400   69.594600
  C      1.270060  -14.199600   70.380000
  C      0.596905  -14.227100   71.618300
  C     -0.130855  -13.164400   71.951400
  H      0.559875  -15.012900   72.375800
  C      2.111020  -15.378900   69.765600
  H      1.575690  -16.299800   69.823800
  H      2.991810  -15.466000   70.363900
  C      2.535250  -15.333100   68.258300
  H      1.648610  -15.332600   67.622000
  H      3.232840  -14.529400   68.145900
  C      3.403720  -16.603100   67.937600
  H      4.298560  -16.560300   68.530400
  H      2.876040  -17.506400   68.064700
  H      3.707360  -16.502400   66.881500
  S     -2.373480  -12.071300   73.183900
  C     -2.499170  -12.193800   74.903600
  C     -1.390860  -12.817600   75.460700
  C     -0.353789  -13.093500   74.538700
  C     -0.734853  -12.756900   73.229300
  H     -1.315470  -12.760900   76.531000
  C      0.983550  -13.700000   75.043500
  H      1.556600  -14.058000   74.201900
  H      0.829852  -14.602900   75.726400
  C      1.816230  -12.583700   75.786800
  H      1.395470  -12.205600   76.772900
  H      1.923140  -11.660000   75.156900
  C      3.194980  -13.114900   76.055800
  H      3.793780  -13.398600   75.130000
  H      3.186320  -14.078500   76.595700
  H      3.850370  -12.383900   76.583600
  H      0.984676  -13.091000   68.535800
  H     -3.249210  -11.824600   75.526700

 Total Charge           Charge          ....    0
 Multiplicity           Mult            ....    1
 Number of Electrons    NEL             ....  134
 Basis Dimension        Dim             ....  322

ORBITAL ENERGIES
----------------

  NO   OCC          E(Eh)            E(eV)
   0   2.0000     -88.969431     -2420.9813
   1   2.0000     -88.958734     -2420.6902
   2   2.0000     -10.332318      -281.1567
   3   2.0000     -10.323329      -280.9121
   4   2.0000     -10.314926      -280.6834
   5   2.0000     -10.313146      -280.6350
   6   2.0000     -10.309887      -280.5463
   7   2.0000     -10.305451      -280.4256
   8   2.0000     -10.304338      -280.3953
   9   2.0000     -10.296893      -280.1927
  10   2.0000     -10.291807      -280.0543
  11   2.0000     -10.291589      -280.0484
  12   2.0000     -10.290745      -280.0254
  13   2.0000     -10.287706      -279.9427
  14   2.0000     -10.283072      -279.8166
  15   2.0000     -10.279002      -279.7059
  16   2.0000      -8.083930      -219.9749
  17   2.0000      -8.073960      -219.7036
  18   2.0000      -6.042405      -164.4222
  19   2.0000      -6.038462      -164.3149
  20   2.0000      -6.034743      -164.2137
  21   2.0000      -6.032439      -164.1510
  22   2.0000      -6.028315      -164.0388
  23   2.0000      -6.024810      -163.9434
  24   2.0000      -1.008063       -27.4308
  25   2.0000      -0.985981       -26.8299
  26   2.0000      -0.906094       -24.6561
  27   2.0000      -0.905381       -24.6367
  28   2.0000      -0.868915       -23.6444
  29   2.0000      -0.853833       -23.2340
  30   2.0000      -0.844244       -22.9731
  31   2.0000      -0.816355       -22.2142
  32   2.0000      -0.779848       -21.2207
  33   2.0000      -0.768064       -20.9001
  34   2.0000      -0.708159       -19.2700
  35   2.0000      -0.697534       -18.9809
  36   2.0000      -0.693067       -18.8593
  37   2.0000      -0.660139       -17.9633
  38   2.0000      -0.643847       -17.5200
  39   2.0000      -0.612989       -16.6803
  40   2.0000      -0.595860       -16.2142
  41   2.0000      -0.584138       -15.8952
  42   2.0000      -0.566723       -15.4213
  43   2.0000      -0.557072       -15.1587
  44   2.0000      -0.526337       -14.3224
  45   2.0000      -0.520740       -14.1701
  46   2.0000      -0.512266       -13.9395
  47   2.0000      -0.510936       -13.9033
  48   2.0000      -0.507125       -13.7996
  49   2.0000      -0.503457       -13.6998
  50   2.0000      -0.494093       -13.4449
  51   2.0000      -0.482395       -13.1266
  52   2.0000      -0.473338       -12.8802
  53   2.0000      -0.463460       -12.6114
  54   2.0000      -0.455904       -12.4058
  55   2.0000      -0.447643       -12.1810
  56   2.0000      -0.445817       -12.1313
  57   2.0000      -0.436057       -11.8657
  58   2.0000      -0.433730       -11.8024
  59   2.0000      -0.424068       -11.5395
  60   2.0000      -0.422128       -11.4867
  61   2.0000      -0.414432       -11.2773
  62   2.0000      -0.409954       -11.1554
  63   2.0000      -0.351035        -9.5522
  64   2.0000      -0.334405        -9.0996
  65   2.0000      -0.329368        -8.9626
  66   2.0000      -0.289794        -7.8857
  67   0.0000       0.025570         0.6958
  68   0.0000       0.079207         2.1553
  69   0.0000       0.109460         2.9786
  70   0.0000       0.119923         3.2633
  71   0.0000       0.136263         3.7079

MULLIKEN ATOMIC CHARGES
-----------------------
   0 S :    0.089561
   1 C :   -0.105468
   2 C :   -0.075877
   3 C :   -0.010818
   4 C :   -0.125899
   5 H :    0.016034
   6 C :    0.048935
   7 H :    0.026900
   8 H :    0.023684
   9 C :   -0.111287
  10 H :    0.045665
  11 H :    0.034357
  12 C :   -0.039038
  13 H :    0.029568
  14 H :    0.029455
  15 H :    0.036976
  16 S :    0.114611
  17 C :   -0.067595
  18 C :   -0.038307
  19 C :   -0.043405
  20 C :   -0.127173
  21 H :    0.019310
  22 C :    0.051618
  23 H :    0.014539
  24 H :    0.050763
  25 C :   -0.091956
  26 H :    0.043390
  27 H :    0.049208
  28 C :   -0.078160
  29 H :    0.033719
  30 H :    0.026571
  31 H :    0.042282
  32 H :    0.051812
  33 H :    0.036024
Sum of atomic charges:    0.0000000

LOEWDIN ATOMIC CHARGES
----------------------
   0 S :    0.395880
   1 C :   -0.197684
   2 C :   -0.063754
   3 C :   -0.076006
   4 C :   -0.189078
   5 H :    0.034215
   6 C :   -0.028065
   7 H :    0.026458
   8 H :    0.025836
   9 C :   -0.036333
  10 H :    0.024572
  11 H :    0.021589
  12 C :   -0.054378
  13 H :    0.023101
  14 H :    0.016457
  15 H :    0.030924
  16 S :    0.411426
  17 C :   -0.176946
  18 C :   -0.072507
  19 C :   -0.049533
  20 C :   -0.196867
  21 H :    0.029287
  22 C :   -0.028297
  23 H :    0.024600
  24 H :    0.041304
  25 C :   -0.047539
  26 H :    0.030217
  27 H :    0.034462
  28 C :   -0.081569
  29 H :    0.028933
  30 H :    0.023180
  31 H :    0.028579
  32 H :    0.027689
  33 H :    0.019847

  Mayer bond orders larger than 0.100000
B(  0-S ,  1-C ) :   1.1488 B(  0-S ,  4-C ) :   1.1307 B(  1-C ,  2-C ) :   1.6058
B(  1-C ,  4-C ) :   0.1007 B(  1-C , 32-H ) :   0.9632 B(  2-C ,  3-C ) :   1.2432
B(  2-C ,  6-C ) :   0.9967 B(  3-C ,  4-C ) :   1.6315 B(  3-C ,  5-H ) :   0.9856
B(  4-C , 20-C ) :   1.0088 B(  6-C ,  7-H ) :   0.9527 B(  6-C ,  8-H ) :   0.9393
B(  6-C ,  9-C ) :   1.0822 B(  9-C , 10-H ) :   0.9529 B(  9-C , 11-H ) :   0.9545
B(  9-C , 12-C ) :   1.0851 B( 12-C , 13-H ) :   0.9766 B( 12-C , 14-H ) :   0.9784
B( 12-C , 15-H ) :   0.9741 B( 16-S , 17-C ) :   1.1638 B( 16-S , 20-C ) :   1.1365
B( 17-C , 18-C ) :   1.6122 B( 17-C , 20-C ) :   0.1024 B( 17-C , 33-H ) :   0.9713
B( 18-C , 19-C ) :   1.2563 B( 18-C , 21-H ) :   0.9846 B( 19-C , 20-C ) :   1.5888
B( 19-C , 22-C ) :   1.0340 B( 22-C , 23-H ) :   0.9379 B( 22-C , 24-H ) :   0.9412
B( 22-C , 25-C ) :   1.0476 B( 25-C , 26-H ) :   0.9550 B( 25-C , 27-H ) :   0.9544
B( 25-C , 28-C ) :   1.0885 B( 28-C , 29-H ) :   0.9719 B( 28-C , 30-H ) :   0.9697
B( 28-C , 31-H ) :   0.9726

Dispersion correction           -0.013231745
FINAL SINGLE POINT ENERGY     -1339.871826875806

DIPOLE MOMENT
-------------
                                X             Y             Z
Electronic contribution:    -25.19163      15.49002      -0.73554
Nuclear contribution   :     25.62708     -15.97832       1.00064
                        -----------------------------------------
Total Dipole Moment    :      0.43545      -0.48831       0.26510
                        -----------------------------------------
Magnitude (a.u.)       :      0.70593
Magnitude (Debye)      :      1.79433

Rotational constants in cm-1:     0.019117     0.007540     0.005885
Rotational constants in MHz :   573.108737   226.054097   176.419076

                             ****ORCA TERMINATED NORMALLY****
TOTAL RUN TIME: 0 days 0 hours 0 minutes 33 seconds 697 msec
