                         Program Version 4.2.1 -  RELEASE  -
|  1> ! wB97X-D3 SP def2-SVP
|  2> %pal
|  3> nprocs 16
|  4> end
|  5>
|  6> * xyz 0 1
|  7> S 	 -68.1153 	 40.4279 	 137.672
|  8> C 	 -66.3524 	 40.4425 	 137.412
|  9> C 	 -65.7516 	 39.3149 	 137.918
| 10> C 	 -66.7142 	 38.4799 	 138.545
| 11> C 	 -68.0267 	 38.8307 	 138.359
| 12> H 	 -66.4779 	 37.5462 	 139.042
| 13> C 	 -64.2651 	 39.0968 	 137.944
| 14> H 	 -63.946 	 38.8246 	 136.958
| 15> H 	 -64.0439 	 38.2378 	 138.563
| 16> C 	 -63.4035 	 40.3026 	 138.306
| 17> H 	 -62.4052 	 40.2484 	 137.995
| 18> H 	 -63.8274 	 41.1588 	 137.809
| 19> C 	 -63.3297 	 40.6591 	 139.768
| 20> H 	 -62.8322 	 39.8375 	 140.29
| 21> H 	 -62.9038 	 41.697 	 139.898
| 22> H 	 -64.3534 	 40.7827 	 140.122
| 23> S 	 -70.2664 	 38.8691 	 139.876
| 24> C 	 -71.3584 	 37.5847 	 139.836
| 25> C 	 -71.0482 	 36.6349 	 138.912
| 26> C 	 -69.769 	 36.8452 	 138.335
| 27> C 	 -69.1878 	 38.0685 	 138.742
| 28> H 	 -71.7917 	 35.8774 	 138.635
| 29> C 	 -69.2357 	 35.7667 	 137.397
| 30> H 	 -68.1829 	 36.0275 	 137.406
| 31> H 	 -69.5566 	 35.8782 	 136.357
| 32> C 	 -69.2847 	 34.297 	 137.652
| 33> H 	 -69.0102 	 34.0673 	 138.678
| 34> H 	 -68.6826 	 33.7676 	 136.886
| 35> C 	 -70.661 	 33.5984 	 137.406
| 36> H 	 -71.0417 	 33.8942 	 136.403
| 37> H 	 -71.383 	 33.9218 	 138.112
| 38> H 	 -70.5355 	 32.5126 	 137.58
| 39> H 	 -65.9651 	 41.3632 	 136.99
| 40> H 	 -72.4036 	 37.6371 	 140.196
| 41> *
| 42>
| 43>                          ****END OF INPUT****

CARTESIAN COORDINATES (ANGSTROEM)
---------------------------------
  S    -68.115300   40.427900  137.672000
  C    -66.352400   40.442500  137.412000
  C    -65.751600   39.314900  137.918000
  C    -66.714200   38.479900  138.545000
  C    -68.026700   38.830700  138.359000
  H    -66.477900   37.546200  139.042000
  C    -64.265100   39.096800  137.944000
  H    -63.946000   38.824600  136.958000
  H    -64.043900   38.237800  138.563000
  C    -63.403500   40.302600  138.306000
  H    -62.405200   40.248400  137.995000
  H    -63.827400   41.158800  137.809000
  C    -63.329700   40.659100  139.768000
  H    -62.832200   39.837500  140.290000
  H    -62.903800   41.697000  139.898000
  H    -64.353400   40.782700  140.122000
  S    -70.266400   38.869100  139.876000
  C    -71.358400   37.584700  139.836000
  C    -71.048200   36.634900  138.912000
  C    -69.769000   36.845200  138.335000
  C    -69.187800   38.068500  138.742000
  H    -71.791700   35.877400  138.635000
  C    -69.235700   35.766700  137.397000
  H    -68.182900   36.027500  137.406000
  H    -69.556600   35.878200  136.357000
  C    -69.284700   34.297000  137.652000
  H    -69.010200   34.067300  138.678000
  H    -68.682600   33.767600  136.886000
  C    -70.661000   33.598400  137.406000
  H    -71.041700   33.894200  136.403000
  H    -71.383000   33.921800  138.112000
  H    -70.535500   32.512600  137.580000
  H    -65.965100   41.363200  136.990000
  H    -72.403600   37.637100  140.196000

 Total Charge           Charge          ....    0
 Multiplicity           Mult            ....    1
 Number of Electrons    NEL             ....  134
 Basis Dimension        Dim             ....  322

ORBITAL ENERGIES
----------------

  NO   OCC          E(Eh)            E(eV)
   0   2.0000     -88.965100     -2420.8634
   1   2.0000     -88.964014     -2420.8339
   2   2.0000     -10.328915      -281.0641
   3   2.0000     -10.326468      -280.9975
   4   2.0000     -10.316984      -280.7394
   5   2.0000     -10.309866      -280.5457
   6   2.0000     -10.308848      -280.5180
   7   2.0000     -10.303101      -280.3616
   8   2.0000     -10.292143      -280.0635
   9   2.0000     -10.289837      -280.0007
  10   2.0000     -10.287919      -279.9485
  11   2.0000     -10.287735      -279.9435
  12   2.0000     -10.286579      -279.9120
  13   2.0000     -10.278566      -279.6940
  14   2.0000     -10.276636      -279.6415
  15   2.0000     -10.275497      -279.6105
  16   2.0000      -8.080989      -219.8949
  17   2.0000      -8.078854      -219.8368
  18   2.0000      -6.039319      -164.3382
  19   2.0000      -6.037298      -164.2832
  20   2.0000      -6.035232      -164.2270
  21   2.0000      -6.033422      -164.1778
  22   2.0000      -6.031975      -164.1384
  23   2.0000      -6.029594      -164.0736
  24   2.0000      -1.011230       -27.5170
  25   2.0000      -0.989104       -26.9149
  26   2.0000      -0.918971       -25.0065
  27   2.0000      -0.912426       -24.8284
  28   2.0000      -0.872332       -23.7374
  29   2.0000      -0.852149       -23.1881
  30   2.0000      -0.847578       -23.0638
  31   2.0000      -0.815554       -22.1923
  32   2.0000      -0.789110       -21.4728
  33   2.0000      -0.775390       -21.0994
  34   2.0000      -0.707958       -19.2645
  35   2.0000      -0.700871       -19.0717
  36   2.0000      -0.686311       -18.6755
  37   2.0000      -0.658427       -17.9167
  38   2.0000      -0.644775       -17.5452
  39   2.0000      -0.616924       -16.7874
  40   2.0000      -0.599792       -16.3212
  41   2.0000      -0.582596       -15.8532
  42   2.0000      -0.558277       -15.1915
  43   2.0000      -0.553224       -15.0540
  44   2.0000      -0.544857       -14.8263
  45   2.0000      -0.537507       -14.6263
  46   2.0000      -0.522500       -14.2179
  47   2.0000      -0.510320       -13.8865
  48   2.0000      -0.509564       -13.8659
  49   2.0000      -0.500878       -13.6296
  50   2.0000      -0.490364       -13.3435
  51   2.0000      -0.480529       -13.0759
  52   2.0000      -0.472342       -12.8531
  53   2.0000      -0.467973       -12.7342
  54   2.0000      -0.461699       -12.5635
  55   2.0000      -0.441323       -12.0090
  56   2.0000      -0.439039       -11.9468
  57   2.0000      -0.436411       -11.8754
  58   2.0000      -0.430732       -11.7208
  59   2.0000      -0.426548       -11.6069
  60   2.0000      -0.421988       -11.4829
  61   2.0000      -0.421870       -11.4797
  62   2.0000      -0.400545       -10.8994
  63   2.0000      -0.339674        -9.2430
  64   2.0000      -0.333139        -9.0652
  65   2.0000      -0.330604        -8.9962
  66   2.0000      -0.297592        -8.0979
  67   0.0000       0.031102         0.8463
  68   0.0000       0.063475         1.7273
  69   0.0000       0.113921         3.1000
  70   0.0000       0.124270         3.3816
  71   0.0000       0.134666         3.6645

MULLIKEN ATOMIC CHARGES
-----------------------
   0 S :    0.105477
   1 C :   -0.165036
   2 C :   -0.065024
   3 C :    0.037824
   4 C :   -0.160995
   5 H :    0.010310
   6 C :    0.123701
   7 H :    0.030297
   8 H :    0.008800
   9 C :   -0.064327
  10 H :    0.014484
  11 H :    0.010923
  12 C :   -0.058444
  13 H :    0.036067
  14 H :    0.041481
  15 H :    0.028577
  16 S :    0.115054
  17 C :   -0.080039
  18 C :   -0.076935
  19 C :   -0.010535
  20 C :   -0.184012
  21 H :    0.031281
  22 C :    0.082893
  23 H :    0.014210
  24 H :    0.032685
  25 C :   -0.072713
  26 H :    0.029698
  27 H :    0.039191
  28 C :   -0.074128
  29 H :    0.030877
  30 H :    0.019485
  31 H :    0.043652
  32 H :    0.060683
  33 H :    0.064537
Sum of atomic charges:    0.0000000

LOEWDIN ATOMIC CHARGES
----------------------
   0 S :    0.394705
   1 C :   -0.181164
   2 C :   -0.062390
   3 C :   -0.060805
   4 C :   -0.203636
   5 H :    0.030648
   6 C :   -0.025409
   7 H :    0.036544
   8 H :    0.026596
   9 C :   -0.039413
  10 H :    0.016652
  11 H :    0.020075
  12 C :   -0.066607
  13 H :    0.024119
  14 H :    0.034193
  15 H :    0.023859
  16 S :    0.434800
  17 C :   -0.211710
  18 C :   -0.081575
  19 C :   -0.046340
  20 C :   -0.202692
  21 H :    0.036443
  22 C :   -0.042390
  23 H :    0.032754
  24 H :    0.035216
  25 C :   -0.038773
  26 H :    0.023387
  27 H :    0.035136
  28 C :   -0.069792
  29 H :    0.025327
  30 H :    0.010194
  31 H :    0.031288
  32 H :    0.023879
  33 H :    0.036882

  Mayer bond orders larger than 0.100000
B(  0-S ,  1-C ) :   1.1396 B(  0-S ,  4-C ) :   1.1508 B(  1-C ,  2-C ) :   1.5844
B(  1-C , 32-H ) :   0.9714 B(  2-C ,  3-C ) :   1.2462 B(  2-C ,  6-C ) :   1.0211
B(  3-C ,  4-C ) :   1.5778 B(  3-C ,  5-H ) :   0.9922 B(  4-C , 20-C ) :   1.0427
B(  6-C ,  7-H ) :   0.9209 B(  6-C ,  8-H ) :   0.9429 B(  6-C ,  9-C ) :   1.0772
B(  9-C , 10-H ) :   0.9533 B(  9-C , 11-H ) :   0.9515 B(  9-C , 12-C ) :   1.0858
B( 12-C , 13-H ) :   0.9746 B( 12-C , 14-H ) :   0.9714 B( 12-C , 15-H ) :   0.9765
B( 16-S , 17-C ) :   1.1775 B( 16-S , 20-C ) :   1.1572 B( 17-C , 18-C ) :   1.6111
B( 17-C , 33-H ) :   0.9525 B( 18-C , 19-C ) :   1.2566 B( 18-C , 21-H ) :   0.9823
B( 19-C , 20-C ) :   1.5695 B( 19-C , 22-C ) :   1.0314 B( 22-C , 23-H ) :   0.9256
B( 22-C , 24-H ) :   0.9253 B( 22-C , 25-C ) :   1.0945 B( 25-C , 26-H ) :   0.9539
B( 25-C , 27-H ) :   0.9517 B( 25-C , 28-C ) :   1.0699 B( 28-C , 29-H ) :   0.9754
B( 28-C , 30-H ) :   0.9738 B( 28-C , 31-H ) :   0.9717

Dispersion correction           -0.013685945
FINAL SINGLE POINT ENERGY     -1339.870988709643

DIPOLE MOMENT
-------------
                                X             Y             Z
Electronic contribution:    -14.75281      14.50602       3.40157
Nuclear contribution   :     15.04314     -14.85281      -3.62622
                        -----------------------------------------
Total Dipole Moment    :      0.29033      -0.34679      -0.22465
                        -----------------------------------------
Magnitude (a.u.)       :      0.50500
Magnitude (Debye)      :      1.28362

Rotational constants in cm-1:     0.022874     0.007123     0.006061
Rotational constants in MHz :   685.752708   213.536551   181.717292

                             ****ORCA TERMINATED NORMALLY****
TOTAL RUN TIME: 0 days 0 hours 0 minutes 33 seconds 902 msec
