                         Program Version 4.2.1 -  RELEASE  -
|  1> ! wB97X-D3 SP def2-SVP
|  2> %pal
|  3> nprocs 16
|  4> end
|  5>
|  6> * xyz 0 1
|  7> S 	 10.1265 	 -12.8869 	 87.1148
|  8> C 	 11.1173 	 -13.6185 	 85.9419
|  9> C 	 11.8052 	 -14.6376 	 86.5069
| 10> C 	 11.5399 	 -14.815 	 87.9164
| 11> C 	 10.7317 	 -13.8647 	 88.4532
| 12> H 	 11.8606 	 -15.6433 	 88.558
| 13> C 	 12.8382 	 -15.6067 	 85.8678
| 14> H 	 12.3814 	 -16.3507 	 85.1861
| 15> H 	 13.0256 	 -16.4195 	 86.5769
| 16> C 	 14.1821 	 -15.0218 	 85.3987
| 17> H 	 14.7602 	 -15.6679 	 84.758
| 18> H 	 13.881 	 -14.2328 	 84.8202
| 19> C 	 14.9465 	 -14.4358 	 86.6764
| 20> H 	 15.0557 	 -15.1744 	 87.4795
| 21> H 	 15.8756 	 -14.0137 	 86.4239
| 22> H 	 14.4384 	 -13.6988 	 87.238
| 23> S 	 8.43647 	 -14.0479 	 90.0613
| 24> C 	 8.71296 	 -14.1362 	 91.7919
| 25> C 	 10.0052 	 -13.9361 	 92.0857
| 26> C 	 10.8882 	 -13.9795 	 91.0131
| 27> C 	 10.1739 	 -13.9223 	 89.8293
| 28> H 	 10.2429 	 -14.0462 	 93.1258
| 29> C 	 12.4012 	 -13.9001 	 91.2438
| 30> H 	 12.511 	 -12.9882 	 91.8508
| 31> H 	 12.914 	 -13.7507 	 90.2889
| 32> C 	 12.8491 	 -15.181 	 91.9456
| 33> H 	 12.5543 	 -16.0265 	 91.3874
| 34> H 	 12.5192 	 -15.2134 	 93.0123
| 35> C 	 14.3515 	 -15.1744 	 92.097
| 36> H 	 14.6534 	 -16.0245 	 92.6791
| 37> H 	 14.6978 	 -14.2677 	 92.6759
| 38> H 	 14.9314 	 -15.1612 	 91.216
| 39> H 	 11.0487 	 -13.2992 	 84.9097
| 40> H 	 7.83376 	 -14.2883 	 92.4733
| 41> *
| 42>
| 43>                          ****END OF INPUT****

CARTESIAN COORDINATES (ANGSTROEM)
---------------------------------
  S     10.126500  -12.886900   87.114800
  C     11.117300  -13.618500   85.941900
  C     11.805200  -14.637600   86.506900
  C     11.539900  -14.815000   87.916400
  C     10.731700  -13.864700   88.453200
  H     11.860600  -15.643300   88.558000
  C     12.838200  -15.606700   85.867800
  H     12.381400  -16.350700   85.186100
  H     13.025600  -16.419500   86.576900
  C     14.182100  -15.021800   85.398700
  H     14.760200  -15.667900   84.758000
  H     13.881000  -14.232800   84.820200
  C     14.946500  -14.435800   86.676400
  H     15.055700  -15.174400   87.479500
  H     15.875600  -14.013700   86.423900
  H     14.438400  -13.698800   87.238000
  S      8.436470  -14.047900   90.061300
  C      8.712960  -14.136200   91.791900
  C     10.005200  -13.936100   92.085700
  C     10.888200  -13.979500   91.013100
  C     10.173900  -13.922300   89.829300
  H     10.242900  -14.046200   93.125800
  C     12.401200  -13.900100   91.243800
  H     12.511000  -12.988200   91.850800
  H     12.914000  -13.750700   90.288900
  C     12.849100  -15.181000   91.945600
  H     12.554300  -16.026500   91.387400
  H     12.519200  -15.213400   93.012300
  C     14.351500  -15.174400   92.097000
  H     14.653400  -16.024500   92.679100
  H     14.697800  -14.267700   92.675900
  H     14.931400  -15.161200   91.216000
  H     11.048700  -13.299200   84.909700
  H      7.833760  -14.288300   92.473300

 Total Charge           Charge          ....    0
 Multiplicity           Mult            ....    1
 Number of Electrons    NEL             ....  134
 Basis Dimension        Dim             ....  322

ORBITAL ENERGIES
----------------

  NO   OCC          E(Eh)            E(eV)
   0   2.0000     -88.963365     -2420.8162
   1   2.0000     -88.961193     -2420.7571
   2   2.0000     -10.327008      -281.0122
   3   2.0000     -10.326110      -280.9877
   4   2.0000     -10.316808      -280.7346
   5   2.0000     -10.312478      -280.6168
   6   2.0000     -10.302393      -280.3424
   7   2.0000     -10.298813      -280.2449
   8   2.0000     -10.295076      -280.1433
   9   2.0000     -10.291373      -280.0425
  10   2.0000     -10.291325      -280.0412
  11   2.0000     -10.287647      -279.9411
  12   2.0000     -10.285183      -279.8741
  13   2.0000     -10.284375      -279.8521
  14   2.0000     -10.273597      -279.5588
  15   2.0000     -10.271298      -279.4962
  16   2.0000      -8.078330      -219.8225
  17   2.0000      -8.076960      -219.7853
  18   2.0000      -6.036733      -164.2679
  19   2.0000      -6.035573      -164.2363
  20   2.0000      -6.032972      -164.1655
  21   2.0000      -6.031187      -164.1169
  22   2.0000      -6.029018      -164.0579
  23   2.0000      -6.027676      -164.0214
  24   2.0000      -1.011013       -27.5111
  25   2.0000      -0.992803       -27.0155
  26   2.0000      -0.916050       -24.9270
  27   2.0000      -0.903105       -24.5747
  28   2.0000      -0.872294       -23.7363
  29   2.0000      -0.855787       -23.2872
  30   2.0000      -0.840129       -22.8611
  31   2.0000      -0.815359       -22.1870
  32   2.0000      -0.782330       -21.2883
  33   2.0000      -0.774634       -21.0789
  34   2.0000      -0.714565       -19.4443
  35   2.0000      -0.702327       -19.1113
  36   2.0000      -0.694131       -18.8883
  37   2.0000      -0.661166       -17.9912
  38   2.0000      -0.646896       -17.6029
  39   2.0000      -0.612309       -16.6618
  40   2.0000      -0.597322       -16.2540
  41   2.0000      -0.577219       -15.7069
  42   2.0000      -0.573622       -15.6091
  43   2.0000      -0.547464       -14.8973
  44   2.0000      -0.534520       -14.5450
  45   2.0000      -0.532403       -14.4874
  46   2.0000      -0.515877       -14.0377
  47   2.0000      -0.510008       -13.8780
  48   2.0000      -0.506157       -13.7732
  49   2.0000      -0.494879       -13.4664
  50   2.0000      -0.489164       -13.3108
  51   2.0000      -0.476147       -12.9566
  52   2.0000      -0.473522       -12.8852
  53   2.0000      -0.472857       -12.8671
  54   2.0000      -0.457803       -12.4574
  55   2.0000      -0.444699       -12.1009
  56   2.0000      -0.439377       -11.9561
  57   2.0000      -0.438256       -11.9255
  58   2.0000      -0.434653       -11.8275
  59   2.0000      -0.429426       -11.6853
  60   2.0000      -0.420095       -11.4314
  61   2.0000      -0.416805       -11.3418
  62   2.0000      -0.405524       -11.0349
  63   2.0000      -0.353029        -9.6064
  64   2.0000      -0.334289        -9.0965
  65   2.0000      -0.325578        -8.8594
  66   2.0000      -0.296932        -8.0799
  67   0.0000       0.037824         1.0292
  68   0.0000       0.071997         1.9591
  69   0.0000       0.118819         3.2332
  70   0.0000       0.120233         3.2717
  71   0.0000       0.130470         3.5503

MULLIKEN ATOMIC CHARGES
-----------------------
   0 S :    0.093110
   1 C :   -0.127870
   2 C :   -0.064128
   3 C :    0.005660
   4 C :   -0.147891
   5 H :    0.023994
   6 C :    0.024066
   7 H :    0.026799
   8 H :   -0.000504
   9 C :    0.012471
  10 H :    0.030897
  11 H :    0.007915
  12 C :   -0.043726
  13 H :    0.015753
  14 H :    0.024507
  15 H :    0.027154
  16 S :    0.103981
  17 C :   -0.132583
  18 C :    0.002442
  19 C :   -0.055134
  20 C :   -0.157129
  21 H :    0.012480
  22 C :    0.082061
  23 H :    0.040389
  24 H :    0.028016
  25 C :   -0.081116
  26 H :    0.028645
  27 H :    0.040966
  28 C :   -0.026913
  29 H :    0.026008
  30 H :    0.024603
  31 H :    0.019359
  32 H :    0.058797
  33 H :    0.076920
Sum of atomic charges:   -0.0000000

LOEWDIN ATOMIC CHARGES
----------------------
   0 S :    0.411586
   1 C :   -0.201750
   2 C :   -0.068605
   3 C :   -0.066515
   4 C :   -0.192598
   5 H :    0.034228
   6 C :   -0.045019
   7 H :    0.032985
   8 H :    0.024898
   9 C :   -0.023432
  10 H :    0.025793
  11 H :    0.012301
  12 C :   -0.060846
  13 H :    0.023961
  14 H :    0.017586
  15 H :    0.023255
  16 S :    0.392239
  17 C :   -0.180298
  18 C :   -0.076491
  19 C :   -0.056879
  20 C :   -0.193921
  21 H :    0.030030
  22 C :   -0.023426
  23 H :    0.037868
  24 H :    0.029837
  25 C :   -0.035495
  26 H :    0.020321
  27 H :    0.033653
  28 C :   -0.064901
  29 H :    0.022345
  30 H :    0.030076
  31 H :    0.014568
  32 H :    0.033606
  33 H :    0.039039

  Mayer bond orders larger than 0.100000
B(  0-S ,  1-C ) :   1.1466 B(  0-S ,  4-C ) :   1.1467 B(  1-C ,  2-C ) :   1.6056
B(  1-C , 32-H ) :   0.9782 B(  2-C ,  3-C ) :   1.2440 B(  2-C ,  6-C ) :   1.0095
B(  3-C ,  4-C ) :   1.5887 B(  3-C ,  5-H ) :   0.9892 B(  4-C , 20-C ) :   1.0221
B(  6-C ,  7-H ) :   0.9377 B(  6-C ,  8-H ) :   0.9404 B(  6-C ,  9-C ) :   1.0600
B(  9-C , 10-H ) :   0.9586 B(  9-C , 11-H ) :   0.9590 B(  9-C , 12-C ) :   1.0591
B( 12-C , 13-H ) :   0.9780 B( 12-C , 14-H ) :   0.9773 B( 12-C , 15-H ) :   0.9758
B( 16-S , 17-C ) :   1.1451 B( 16-S , 20-C ) :   1.1453 B( 17-C , 18-C ) :   1.6333
B( 17-C , 33-H ) :   0.9609 B( 18-C , 19-C ) :   1.2317 B( 18-C , 21-H ) :   0.9848
B( 19-C , 20-C ) :   1.6087 B( 19-C , 22-C ) :   1.0348 B( 22-C , 23-H ) :   0.9335
B( 22-C , 24-H ) :   0.9352 B( 22-C , 25-C ) :   1.0673 B( 25-C , 26-H ) :   0.9566
B( 25-C , 27-H ) :   0.9506 B( 25-C , 28-C ) :   1.0967 B( 28-C , 29-H ) :   0.9729
B( 28-C , 30-H ) :   0.9690 B( 28-C , 31-H ) :   0.9731

Dispersion correction           -0.014774509
FINAL SINGLE POINT ENERGY     -1339.862441074550

DIPOLE MOMENT
-------------
                                X             Y             Z
Electronic contribution:    -29.27803       9.33694      -3.25718
Nuclear contribution   :     29.74730      -9.71579       3.49451
                        -----------------------------------------
Total Dipole Moment    :      0.46927      -0.37885       0.23733
                        -----------------------------------------
Magnitude (a.u.)       :      0.64813
Magnitude (Debye)      :      1.64740

Rotational constants in cm-1:     0.017029     0.010077     0.006801
Rotational constants in MHz :   510.502193   302.086777   203.883821

                             ****ORCA TERMINATED NORMALLY****
TOTAL RUN TIME: 0 days 0 hours 0 minutes 35 seconds 88 msec
