                         Program Version 4.2.1 -  RELEASE  -
|  1> ! wB97X-D3 SP def2-SVP
|  2> %pal
|  3> nprocs 16
|  4> end
|  5>
|  6> * xyz 0 1
|  7> S 	 -33.3359 	 58.4606 	 107.642
|  8> C 	 -32.0529 	 59.3535 	 106.75
|  9> C 	 -31.5566 	 58.5493 	 105.711
| 10> C 	 -32.157 	 57.2524 	 105.649
| 11> C 	 -33.0832 	 57.1004 	 106.675
| 12> H 	 -31.9716 	 56.3665 	 105.013
| 13> C 	 -30.2545 	 58.9075 	 104.943
| 14> H 	 -30.4407 	 59.5046 	 104.062
| 15> H 	 -29.9549 	 58.054 	 104.323
| 16> C 	 -29.0961 	 59.6095 	 105.677
| 17> H 	 -29.4212 	 60.6591 	 105.706
| 18> H 	 -28.8803 	 59.2033 	 106.713
| 19> C 	 -27.6866 	 59.4592 	 105.014
| 20> H 	 -27.3901 	 58.4148 	 104.955
| 21> H 	 -27.7278 	 59.7178 	 103.951
| 22> H 	 -26.9899 	 60.0525 	 105.575
| 23> S 	 -35.4062 	 55.7097 	 106.182
| 24> C 	 -35.5349 	 54.0894 	 106.782
| 25> C 	 -34.6042 	 53.788 	 107.71
| 26> C 	 -33.5517 	 54.7808 	 107.874
| 27> C 	 -33.8198 	 55.8369 	 106.994
| 28> H 	 -34.5869 	 52.8008 	 108.099
| 29> C 	 -32.3362 	 54.7012 	 108.801
| 30> H 	 -32.6317 	 55.0016 	 109.858
| 31> H 	 -31.5834 	 55.365 	 108.433
| 32> C 	 -31.7719 	 53.2682 	 108.922
| 33> H 	 -31.5701 	 52.8655 	 107.877
| 34> H 	 -32.4679 	 52.4996 	 109.32
| 35> C 	 -30.4475 	 53.1981 	 109.693
| 36> H 	 -30.32 	 53.7983 	 110.602
| 37> H 	 -29.6735 	 53.4404 	 108.935
| 38> H 	 -30.1463 	 52.2092 	 109.952
| 39> H 	 -31.7092 	 60.3124 	 107.116
| 40> H 	 -36.2401 	 53.3565 	 106.472
| 41> *
| 42>
| 43>                          ****END OF INPUT****

CARTESIAN COORDINATES (ANGSTROEM)
---------------------------------
  S    -33.335900   58.460600  107.642000
  C    -32.052900   59.353500  106.750000
  C    -31.556600   58.549300  105.711000
  C    -32.157000   57.252400  105.649000
  C    -33.083200   57.100400  106.675000
  H    -31.971600   56.366500  105.013000
  C    -30.254500   58.907500  104.943000
  H    -30.440700   59.504600  104.062000
  H    -29.954900   58.054000  104.323000
  C    -29.096100   59.609500  105.677000
  H    -29.421200   60.659100  105.706000
  H    -28.880300   59.203300  106.713000
  C    -27.686600   59.459200  105.014000
  H    -27.390100   58.414800  104.955000
  H    -27.727800   59.717800  103.951000
  H    -26.989900   60.052500  105.575000
  S    -35.406200   55.709700  106.182000
  C    -35.534900   54.089400  106.782000
  C    -34.604200   53.788000  107.710000
  C    -33.551700   54.780800  107.874000
  C    -33.819800   55.836900  106.994000
  H    -34.586900   52.800800  108.099000
  C    -32.336200   54.701200  108.801000
  H    -32.631700   55.001600  109.858000
  H    -31.583400   55.365000  108.433000
  C    -31.771900   53.268200  108.922000
  H    -31.570100   52.865500  107.877000
  H    -32.467900   52.499600  109.320000
  C    -30.447500   53.198100  109.693000
  H    -30.320000   53.798300  110.602000
  H    -29.673500   53.440400  108.935000
  H    -30.146300   52.209200  109.952000
  H    -31.709200   60.312400  107.116000
  H    -36.240100   53.356500  106.472000

 Total Charge           Charge          ....    0
 Multiplicity           Mult            ....    1
 Number of Electrons    NEL             ....  134
 Basis Dimension        Dim             ....  322

ORBITAL ENERGIES
----------------

  NO   OCC          E(Eh)            E(eV)
   0   2.0000     -88.965830     -2420.8833
   1   2.0000     -88.961689     -2420.7706
   2   2.0000     -10.327468      -281.0247
   3   2.0000     -10.324573      -280.9459
   4   2.0000     -10.317760      -280.7605
   5   2.0000     -10.311098      -280.5792
   6   2.0000     -10.310058      -280.5509
   7   2.0000     -10.308453      -280.5073
   8   2.0000     -10.300057      -280.2788
   9   2.0000     -10.297567      -280.2111
  10   2.0000     -10.295552      -280.1562
  11   2.0000     -10.294636      -280.1313
  12   2.0000     -10.292973      -280.0860
  13   2.0000     -10.287639      -279.9409
  14   2.0000     -10.280984      -279.7598
  15   2.0000     -10.277725      -279.6711
  16   2.0000      -8.080918      -219.8930
  17   2.0000      -8.076517      -219.7732
  18   2.0000      -6.039230      -164.3358
  19   2.0000      -6.035282      -164.2284
  20   2.0000      -6.035008      -164.2209
  21   2.0000      -6.031951      -164.1377
  22   2.0000      -6.031220      -164.1178
  23   2.0000      -6.027079      -164.0052
  24   2.0000      -1.002867       -27.2894
  25   2.0000      -0.980320       -26.6759
  26   2.0000      -0.905682       -24.6449
  27   2.0000      -0.904820       -24.6214
  28   2.0000      -0.862517       -23.4703
  29   2.0000      -0.847509       -23.0619
  30   2.0000      -0.846174       -23.0256
  31   2.0000      -0.812133       -22.0993
  32   2.0000      -0.785129       -21.3645
  33   2.0000      -0.771385       -20.9905
  34   2.0000      -0.704019       -19.1573
  35   2.0000      -0.698296       -19.0016
  36   2.0000      -0.688934       -18.7468
  37   2.0000      -0.648799       -17.6547
  38   2.0000      -0.646190       -17.5837
  39   2.0000      -0.609361       -16.5816
  40   2.0000      -0.597823       -16.2676
  41   2.0000      -0.566696       -15.4206
  42   2.0000      -0.560662       -15.2564
  43   2.0000      -0.556064       -15.1313
  44   2.0000      -0.531497       -14.4628
  45   2.0000      -0.524606       -14.2752
  46   2.0000      -0.516219       -14.0470
  47   2.0000      -0.515450       -14.0261
  48   2.0000      -0.502169       -13.6647
  49   2.0000      -0.493689       -13.4340
  50   2.0000      -0.488740       -13.2993
  51   2.0000      -0.475383       -12.9358
  52   2.0000      -0.470465       -12.8020
  53   2.0000      -0.461567       -12.5599
  54   2.0000      -0.455343       -12.3905
  55   2.0000      -0.449207       -12.2235
  56   2.0000      -0.443234       -12.0610
  57   2.0000      -0.439486       -11.9590
  58   2.0000      -0.433446       -11.7947
  59   2.0000      -0.424416       -11.5490
  60   2.0000      -0.419218       -11.4075
  61   2.0000      -0.412368       -11.2211
  62   2.0000      -0.411241       -11.1904
  63   2.0000      -0.335413        -9.1270
  64   2.0000      -0.327238        -8.9046
  65   2.0000      -0.315318        -8.5802
  66   2.0000      -0.311911        -8.4875
  67   0.0000       0.044205         1.2029
  68   0.0000       0.059039         1.6065
  69   0.0000       0.112922         3.0728
  70   0.0000       0.118616         3.2277
  71   0.0000       0.127816         3.4780

MULLIKEN ATOMIC CHARGES
-----------------------
   0 S :    0.124000
   1 C :   -0.149743
   2 C :   -0.032361
   3 C :    0.038472
   4 C :   -0.194972
   5 H :    0.031544
   6 C :    0.060093
   7 H :    0.020860
   8 H :    0.001053
   9 C :   -0.106147
  10 H :    0.042197
  11 H :    0.048573
  12 C :   -0.047412
  13 H :    0.033101
  14 H :    0.023713
  15 H :    0.041906
  16 S :    0.107987
  17 C :   -0.067073
  18 C :   -0.031086
  19 C :   -0.003357
  20 C :   -0.215681
  21 H :    0.006036
  22 C :    0.112012
  23 H :    0.052660
  24 H :    0.031722
  25 C :   -0.158055
  26 H :    0.036767
  27 H :    0.040395
  28 C :   -0.028534
  29 H :    0.039635
  30 H :    0.029272
  31 H :    0.017037
  32 H :    0.053773
  33 H :    0.041614
Sum of atomic charges:    0.0000000

LOEWDIN ATOMIC CHARGES
----------------------
   0 S :    0.420266
   1 C :   -0.189006
   2 C :   -0.053286
   3 C :   -0.069872
   4 C :   -0.220971
   5 H :    0.043277
   6 C :   -0.046196
   7 H :    0.033135
   8 H :    0.027442
   9 C :   -0.044838
  10 H :    0.025282
  11 H :    0.031600
  12 C :   -0.061683
  13 H :    0.025859
  14 H :    0.022146
  15 H :    0.026287
  16 S :    0.390626
  17 C :   -0.181095
  18 C :   -0.072671
  19 C :   -0.046926
  20 C :   -0.191697
  21 H :    0.024801
  22 C :   -0.025893
  23 H :    0.044068
  24 H :    0.031329
  25 C :   -0.052450
  26 H :    0.029927
  27 H :    0.022323
  28 C :   -0.071859
  29 H :    0.026642
  30 H :    0.031579
  31 H :    0.021534
  32 H :    0.025125
  33 H :    0.025197

  Mayer bond orders larger than 0.100000
B(  0-S ,  1-C ) :   1.1321 B(  0-S ,  4-C ) :   1.1949 B(  1-C ,  2-C ) :   1.5953
B(  1-C , 32-H ) :   0.9754 B(  2-C ,  3-C ) :   1.2322 B(  2-C ,  6-C ) :   1.0182
B(  3-C ,  4-C ) :   1.5848 B(  3-C ,  5-H ) :   0.9885 B(  4-C , 20-C ) :   0.9730
B(  6-C ,  7-H ) :   0.9240 B(  6-C ,  8-H ) :   0.9459 B(  6-C ,  9-C ) :   1.0488
B(  9-C , 10-H ) :   0.9521 B(  9-C , 11-H ) :   0.9646 B(  9-C , 12-C ) :   1.0804
B( 12-C , 13-H ) :   0.9763 B( 12-C , 14-H ) :   0.9755 B( 12-C , 15-H ) :   0.9753
B( 16-S , 17-C ) :   1.1319 B( 16-S , 20-C ) :   1.1440 B( 17-C , 18-C ) :   1.6716
B( 17-C , 33-H ) :   0.9652 B( 18-C , 19-C ) :   1.1902 B( 18-C , 21-H ) :   0.9874
B( 19-C , 20-C ) :   1.6376 B( 19-C , 22-C ) :   1.0421 B( 22-C , 23-H ) :   0.9276
B( 22-C , 24-H ) :   0.9363 B( 22-C , 25-C ) :   1.0526 B( 25-C , 26-H ) :   0.9617
B( 25-C , 27-H ) :   0.9553 B( 25-C , 28-C ) :   1.0806 B( 28-C , 29-H ) :   0.9754
B( 28-C , 30-H ) :   0.9751 B( 28-C , 31-H ) :   0.9722

Dispersion correction           -0.013532614
FINAL SINGLE POINT ENERGY     -1339.867348237226

DIPOLE MOMENT
-------------
                                X             Y             Z
Electronic contribution:    -29.05958       4.28027      -1.84854
Nuclear contribution   :     29.72248      -4.60337       1.87145
                        -----------------------------------------
Total Dipole Moment    :      0.66290      -0.32309       0.02291
                        -----------------------------------------
Magnitude (a.u.)       :      0.73780
Magnitude (Debye)      :      1.87533

Rotational constants in cm-1:     0.017473     0.007855     0.006185
Rotational constants in MHz :   523.815581   235.477125   185.435790

                             ****ORCA TERMINATED NORMALLY****
TOTAL RUN TIME: 0 days 0 hours 0 minutes 28 seconds 200 msec
