                         Program Version 4.2.1 -  RELEASE  -
|  1> ! wB97X-D3 SP def2-SVP
|  2> %pal
|  3> nprocs 16
|  4> end
|  5>
|  6> * xyz 0 1
|  7> S 	 39.6631 	 24.7573 	 93.4453
|  8> C 	 40.6869 	 26.1683 	 93.1288
|  9> C 	 41.9051 	 25.795 	 92.6047
| 10> C 	 41.9932 	 24.3483 	 92.4947
| 11> C 	 40.8905 	 23.6716 	 93.096
| 12> H 	 42.7963 	 23.7144 	 92.1918
| 13> C 	 43.002 	 26.7179 	 92.1229
| 14> H 	 43.025 	 27.4786 	 92.8984
| 15> H 	 42.6034 	 27.1356 	 91.1992
| 16> C 	 44.4225 	 26.1887 	 91.8199
| 17> H 	 44.405 	 25.4082 	 91.0837
| 18> H 	 44.9528 	 26.9853 	 91.3263
| 19> C 	 45.2246 	 25.7325 	 93.0455
| 20> H 	 46.1445 	 25.2869 	 92.7107
| 21> H 	 45.5251 	 26.622 	 93.6392
| 22> H 	 44.6871 	 24.9408 	 93.6204
| 23> S 	 40.3132 	 21.7511 	 95.0063
| 24> C 	 40.5749 	 20.0681 	 94.5732
| 25> C 	 41.031 	 19.9818 	 93.3201
| 26> C 	 41.0841 	 21.1553 	 92.5645
| 27> C 	 40.722 	 22.2449 	 93.3614
| 28> H 	 41.4366 	 19.0527 	 92.9734
| 29> C 	 41.4639 	 21.2793 	 91.1102
| 30> H 	 42.3878 	 20.6208 	 91.1199
| 31> H 	 41.7293 	 22.2415 	 90.7013
| 32> C 	 40.3169 	 20.8187 	 90.2136
| 33> H 	 39.4335 	 21.3557 	 90.5145
| 34> H 	 40.0377 	 19.8199 	 90.3296
| 35> C 	 40.484 	 21.0976 	 88.7252
| 36> H 	 39.6791 	 20.5691 	 88.1851
| 37> H 	 41.3086 	 20.7175 	 88.1992
| 38> H 	 40.3317 	 22.1205 	 88.3861
| 39> H 	 40.3658 	 27.1986 	 93.2578
| 40> H 	 40.6638 	 19.2765 	 95.3194
| 41> *
| 42>
| 43>                          ****END OF INPUT****

CARTESIAN COORDINATES (ANGSTROEM)
---------------------------------
  S     39.663100   24.757300   93.445300
  C     40.686900   26.168300   93.128800
  C     41.905100   25.795000   92.604700
  C     41.993200   24.348300   92.494700
  C     40.890500   23.671600   93.096000
  H     42.796300   23.714400   92.191800
  C     43.002000   26.717900   92.122900
  H     43.025000   27.478600   92.898400
  H     42.603400   27.135600   91.199200
  C     44.422500   26.188700   91.819900
  H     44.405000   25.408200   91.083700
  H     44.952800   26.985300   91.326300
  C     45.224600   25.732500   93.045500
  H     46.144500   25.286900   92.710700
  H     45.525100   26.622000   93.639200
  H     44.687100   24.940800   93.620400
  S     40.313200   21.751100   95.006300
  C     40.574900   20.068100   94.573200
  C     41.031000   19.981800   93.320100
  C     41.084100   21.155300   92.564500
  C     40.722000   22.244900   93.361400
  H     41.436600   19.052700   92.973400
  C     41.463900   21.279300   91.110200
  H     42.387800   20.620800   91.119900
  H     41.729300   22.241500   90.701300
  C     40.316900   20.818700   90.213600
  H     39.433500   21.355700   90.514500
  H     40.037700   19.819900   90.329600
  C     40.484000   21.097600   88.725200
  H     39.679100   20.569100   88.185100
  H     41.308600   20.717500   88.199200
  H     40.331700   22.120500   88.386100
  H     40.365800   27.198600   93.257800
  H     40.663800   19.276500   95.319400

 Total Charge           Charge          ....    0
 Multiplicity           Mult            ....    1
 Number of Electrons    NEL             ....  134
 Basis Dimension        Dim             ....  322

ORBITAL ENERGIES
----------------

  NO   OCC          E(Eh)            E(eV)
   0   2.0000     -88.964041     -2420.8346
   1   2.0000     -88.963288     -2420.8141
   2   2.0000     -10.326328      -280.9937
   3   2.0000     -10.325467      -280.9702
   4   2.0000     -10.314232      -280.6645
   5   2.0000     -10.310214      -280.5552
   6   2.0000     -10.304288      -280.3939
   7   2.0000     -10.300928      -280.3025
   8   2.0000     -10.295103      -280.1440
   9   2.0000     -10.292893      -280.0839
  10   2.0000     -10.292825      -280.0820
  11   2.0000     -10.287834      -279.9462
  12   2.0000     -10.286799      -279.9180
  13   2.0000     -10.279517      -279.7199
  14   2.0000     -10.279105      -279.7087
  15   2.0000     -10.271326      -279.4970
  16   2.0000      -8.079025      -219.8414
  17   2.0000      -8.078671      -219.8318
  18   2.0000      -6.037428      -164.2868
  19   2.0000      -6.037148      -164.2791
  20   2.0000      -6.033308      -164.1746
  21   2.0000      -6.033257      -164.1733
  22   2.0000      -6.029920      -164.0825
  23   2.0000      -6.029391      -164.0681
  24   2.0000      -1.009184       -27.4613
  25   2.0000      -0.986220       -26.8364
  26   2.0000      -0.912968       -24.8431
  27   2.0000      -0.912111       -24.8198
  28   2.0000      -0.870979       -23.7005
  29   2.0000      -0.854020       -23.2391
  30   2.0000      -0.842157       -22.9163
  31   2.0000      -0.812271       -22.1030
  32   2.0000      -0.787062       -21.4170
  33   2.0000      -0.775268       -21.0961
  34   2.0000      -0.712471       -19.3873
  35   2.0000      -0.703773       -19.1506
  36   2.0000      -0.693519       -18.8716
  37   2.0000      -0.658551       -17.9201
  38   2.0000      -0.637725       -17.3534
  39   2.0000      -0.617902       -16.8140
  40   2.0000      -0.603391       -16.4191
  41   2.0000      -0.566654       -15.4194
  42   2.0000      -0.562586       -15.3087
  43   2.0000      -0.553880       -15.0718
  44   2.0000      -0.537958       -14.6386
  45   2.0000      -0.525307       -14.2943
  46   2.0000      -0.519895       -14.1471
  47   2.0000      -0.516067       -14.0429
  48   2.0000      -0.509459       -13.8631
  49   2.0000      -0.495067       -13.4715
  50   2.0000      -0.492182       -13.3929
  51   2.0000      -0.477125       -12.9832
  52   2.0000      -0.472825       -12.8662
  53   2.0000      -0.462488       -12.5849
  54   2.0000      -0.458264       -12.4700
  55   2.0000      -0.451181       -12.2773
  56   2.0000      -0.441801       -12.0220
  57   2.0000      -0.437019       -11.8919
  58   2.0000      -0.434829       -11.8323
  59   2.0000      -0.430209       -11.7066
  60   2.0000      -0.423469       -11.5232
  61   2.0000      -0.416941       -11.3456
  62   2.0000      -0.408015       -11.1026
  63   2.0000      -0.346116        -9.4183
  64   2.0000      -0.332721        -9.0538
  65   2.0000      -0.325215        -8.8495
  66   2.0000      -0.288572        -7.8524
  67   0.0000       0.028502         0.7756
  68   0.0000       0.074127         2.0171
  69   0.0000       0.116157         3.1608
  70   0.0000       0.119119         3.2414
  71   0.0000       0.137336         3.7371

MULLIKEN ATOMIC CHARGES
-----------------------
   0 S :    0.115366
   1 C :   -0.138633
   2 C :   -0.089361
   3 C :    0.029672
   4 C :   -0.177465
   5 H :    0.005015
   6 C :    0.069666
   7 H :    0.027252
   8 H :    0.043942
   9 C :   -0.057269
  10 H :    0.019714
  11 H :    0.022877
  12 C :   -0.060798
  13 H :    0.025535
  14 H :    0.038905
  15 H :    0.051913
  16 S :    0.101222
  17 C :   -0.082794
  18 C :   -0.033968
  19 C :   -0.034621
  20 C :   -0.155221
  21 H :    0.006083
  22 C :    0.079771
  23 H :    0.033529
  24 H :    0.021226
  25 C :   -0.029872
  26 H :    0.026526
  27 H :    0.010846
  28 C :   -0.042827
  29 H :    0.018097
  30 H :    0.016264
  31 H :    0.032203
  32 H :    0.043913
  33 H :    0.063291
Sum of atomic charges:   -0.0000000

LOEWDIN ATOMIC CHARGES
----------------------
   0 S :    0.433033
   1 C :   -0.206362
   2 C :   -0.056229
   3 C :   -0.074729
   4 C :   -0.215580
   5 H :    0.021589
   6 C :   -0.031943
   7 H :    0.032622
   8 H :    0.038842
   9 C :   -0.040558
  10 H :    0.019106
  11 H :    0.026941
  12 C :   -0.067799
  13 H :    0.022939
  14 H :    0.029802
  15 H :    0.031833
  16 S :    0.395336
  17 C :   -0.182517
  18 C :   -0.070800
  19 C :   -0.056432
  20 C :   -0.195992
  21 H :    0.028785
  22 C :   -0.030038
  23 H :    0.038108
  24 H :    0.029590
  25 C :   -0.032693
  26 H :    0.031658
  27 H :    0.016322
  28 C :   -0.071471
  29 H :    0.032723
  30 H :    0.016084
  31 H :    0.025621
  32 H :    0.027609
  33 H :    0.034598

  Mayer bond orders larger than 0.100000
B(  0-S ,  1-C ) :   1.1284 B(  0-S ,  4-C ) :   1.1976 B(  1-C ,  2-C ) :   1.6082
B(  1-C , 32-H ) :   0.9761 B(  2-C ,  3-C ) :   1.2446 B(  2-C ,  6-C ) :   0.9962
B(  3-C ,  4-C ) :   1.5372 B(  3-C ,  5-H ) :   0.9876 B(  4-C , 20-C ) :   1.0273
B(  6-C ,  7-H ) :   0.9410 B(  6-C ,  8-H ) :   0.9331 B(  6-C ,  9-C ) :   1.0922
B(  9-C , 10-H ) :   0.9474 B(  9-C , 11-H ) :   0.9495 B(  9-C , 12-C ) :   1.0830
B( 12-C , 13-H ) :   0.9728 B( 12-C , 14-H ) :   0.9741 B( 12-C , 15-H ) :   0.9757
B( 16-S , 17-C ) :   1.1383 B( 16-S , 20-C ) :   1.1534 B( 17-C , 18-C ) :   1.6204
B( 17-C , 33-H ) :   0.9637 B( 18-C , 19-C ) :   1.2552 B( 18-C , 21-H ) :   0.9871
B( 19-C , 20-C ) :   1.5722 B( 19-C , 22-C ) :   1.0362 B( 22-C , 23-H ) :   0.9271
B( 22-C , 24-H ) :   0.9381 B( 22-C , 25-C ) :   1.0598 B( 25-C , 26-H ) :   0.9480
B( 25-C , 27-H ) :   0.9564 B( 25-C , 28-C ) :   1.0943 B( 28-C , 29-H ) :   0.9684
B( 28-C , 30-H ) :   0.9743 B( 28-C , 31-H ) :   0.9740

Dispersion correction           -0.014154478
FINAL SINGLE POINT ENERGY     -1339.874541442176

DIPOLE MOMENT
-------------
                                X             Y             Z
Electronic contribution:    -16.40455      -2.02801      19.84845
Nuclear contribution   :     16.97361       1.94862     -20.35776
                        -----------------------------------------
Total Dipole Moment    :      0.56906      -0.07939      -0.50932
                        -----------------------------------------
Magnitude (a.u.)       :      0.76781
Magnitude (Debye)      :      1.95162

Rotational constants in cm-1:     0.016291     0.009002     0.007657
Rotational constants in MHz :   488.381861   269.887789   229.547363

                             ****ORCA TERMINATED NORMALLY****
TOTAL RUN TIME: 0 days 0 hours 0 minutes 31 seconds 293 msec
