                         Program Version 4.2.1 -  RELEASE  -
|  1> ! wB97X-D3 SP def2-SVP
|  2> %pal
|  3> nprocs 16
|  4> end
|  5>
|  6> * xyz 0 1
|  7> S 	 -40.2412 	 35.6583 	 77.8171
|  8> C 	 -40.5798 	 35.8939 	 79.4973
|  9> C 	 -39.6482 	 36.7592 	 80.1394
| 10> C 	 -38.7874 	 37.346 	 79.1818
| 11> C 	 -39.0362 	 36.9282 	 77.9106
| 12> H 	 -38.0631 	 38.146 	 79.3845
| 13> C 	 -39.6389 	 37.1315 	 81.5801
| 14> H 	 -38.5371 	 37.2403 	 81.7837
| 15> H 	 -40.0242 	 36.3657 	 82.2181
| 16> C 	 -40.4177 	 38.3682 	 82.0872
| 17> H 	 -41.4956 	 38.1257 	 81.9648
| 18> H 	 -40.1516 	 38.5677 	 83.1586
| 19> C 	 -40.0838 	 39.5632 	 81.2193
| 20> H 	 -40.4256 	 39.492 	 80.2196
| 21> H 	 -40.6898 	 40.378 	 81.6168
| 22> H 	 -38.9918 	 39.7416 	 81.3063
| 23> S 	 -38.0754 	 39.0038 	 76.3403
| 24> C 	 -36.6946 	 38.7599 	 75.2856
| 25> C 	 -36.3353 	 37.4459 	 75.2723
| 26> C 	 -37.2372 	 36.615 	 75.9819
| 27> C 	 -38.1412 	 37.2818 	 76.7734
| 28> H 	 -35.4333 	 37.1894 	 74.7883
| 29> C 	 -37.1966 	 35.1185 	 75.9464
| 30> H 	 -37.4462 	 34.8048 	 76.9456
| 31> H 	 -36.1516 	 34.7528 	 75.7924
| 32> C 	 -38.0111 	 34.4409 	 74.9363
| 33> H 	 -39.0731 	 34.6703 	 75.1217
| 34> H 	 -37.9489 	 33.3661 	 75.2388
| 35> C 	 -37.5891 	 34.5945 	 73.5119
| 36> H 	 -37.3877 	 35.6369 	 73.2212
| 37> H 	 -38.2477 	 34.1249 	 72.7576
| 38> H 	 -36.6526 	 33.9825 	 73.3742
| 39> H 	 -41.3209 	 35.3328 	 80.0907
| 40> H 	 -36.0987 	 39.5807 	 74.8365
| 41> *
| 42>
| 43>                          ****END OF INPUT****

CARTESIAN COORDINATES (ANGSTROEM)
---------------------------------
  S    -40.241200   35.658300   77.817100
  C    -40.579800   35.893900   79.497300
  C    -39.648200   36.759200   80.139400
  C    -38.787400   37.346000   79.181800
  C    -39.036200   36.928200   77.910600
  H    -38.063100   38.146000   79.384500
  C    -39.638900   37.131500   81.580100
  H    -38.537100   37.240300   81.783700
  H    -40.024200   36.365700   82.218100
  C    -40.417700   38.368200   82.087200
  H    -41.495600   38.125700   81.964800
  H    -40.151600   38.567700   83.158600
  C    -40.083800   39.563200   81.219300
  H    -40.425600   39.492000   80.219600
  H    -40.689800   40.378000   81.616800
  H    -38.991800   39.741600   81.306300
  S    -38.075400   39.003800   76.340300
  C    -36.694600   38.759900   75.285600
  C    -36.335300   37.445900   75.272300
  C    -37.237200   36.615000   75.981900
  C    -38.141200   37.281800   76.773400
  H    -35.433300   37.189400   74.788300
  C    -37.196600   35.118500   75.946400
  H    -37.446200   34.804800   76.945600
  H    -36.151600   34.752800   75.792400
  C    -38.011100   34.440900   74.936300
  H    -39.073100   34.670300   75.121700
  H    -37.948900   33.366100   75.238800
  C    -37.589100   34.594500   73.511900
  H    -37.387700   35.636900   73.221200
  H    -38.247700   34.124900   72.757600
  H    -36.652600   33.982500   73.374200
  H    -41.320900   35.332800   80.090700
  H    -36.098700   39.580700   74.836500

 Total Charge           Charge          ....    0
 Multiplicity           Mult            ....    1
 Number of Electrons    NEL             ....  134
 Basis Dimension        Dim             ....  322

ORBITAL ENERGIES
----------------

  NO   OCC          E(Eh)            E(eV)
   0   2.0000     -88.975048     -2421.1341
   1   2.0000     -88.959370     -2420.7075
   2   2.0000     -10.331171      -281.1254
   3   2.0000     -10.326405      -280.9958
   4   2.0000     -10.320502      -280.8351
   5   2.0000     -10.315461      -280.6980
   6   2.0000     -10.303930      -280.3842
   7   2.0000     -10.296642      -280.1859
   8   2.0000     -10.295291      -280.1491
   9   2.0000     -10.291898      -280.0568
  10   2.0000     -10.290186      -280.0102
  11   2.0000     -10.287375      -279.9337
  12   2.0000     -10.280845      -279.7560
  13   2.0000     -10.279530      -279.7202
  14   2.0000     -10.278293      -279.6866
  15   2.0000     -10.271358      -279.4979
  16   2.0000      -8.089251      -220.1197
  17   2.0000      -8.073814      -219.6997
  18   2.0000      -6.047625      -164.5643
  19   2.0000      -6.043849      -164.4615
  20   2.0000      -6.040187      -164.3619
  21   2.0000      -6.032328      -164.1480
  22   2.0000      -6.028342      -164.0395
  23   2.0000      -6.024611      -163.9380
  24   2.0000      -1.008206       -27.4347
  25   2.0000      -0.986935       -26.8559
  26   2.0000      -0.917506       -24.9666
  27   2.0000      -0.915048       -24.8997
  28   2.0000      -0.868187       -23.6246
  29   2.0000      -0.854763       -23.2593
  30   2.0000      -0.844454       -22.9788
  31   2.0000      -0.816892       -22.2288
  32   2.0000      -0.783788       -21.3280
  33   2.0000      -0.772213       -21.0130
  34   2.0000      -0.701359       -19.0849
  35   2.0000      -0.699165       -19.0253
  36   2.0000      -0.683620       -18.6022
  37   2.0000      -0.662298       -18.0220
  38   2.0000      -0.639245       -17.3947
  39   2.0000      -0.613970       -16.7070
  40   2.0000      -0.592264       -16.1163
  41   2.0000      -0.575564       -15.6619
  42   2.0000      -0.561376       -15.2758
  43   2.0000      -0.553457       -15.0603
  44   2.0000      -0.548984       -14.9386
  45   2.0000      -0.542268       -14.7559
  46   2.0000      -0.515514       -14.0279
  47   2.0000      -0.510194       -13.8831
  48   2.0000      -0.502121       -13.6634
  49   2.0000      -0.494881       -13.4664
  50   2.0000      -0.485685       -13.2162
  51   2.0000      -0.483859       -13.1665
  52   2.0000      -0.470536       -12.8039
  53   2.0000      -0.465523       -12.6675
  54   2.0000      -0.459656       -12.5079
  55   2.0000      -0.448023       -12.1913
  56   2.0000      -0.445933       -12.1344
  57   2.0000      -0.438558       -11.9338
  58   2.0000      -0.427564       -11.6346
  59   2.0000      -0.422107       -11.4861
  60   2.0000      -0.415183       -11.2977
  61   2.0000      -0.413860       -11.2617
  62   2.0000      -0.400193       -10.8898
  63   2.0000      -0.347241        -9.4489
  64   2.0000      -0.332391        -9.0448
  65   2.0000      -0.324404        -8.8275
  66   2.0000      -0.296427        -8.0662
  67   0.0000       0.033505         0.9117
  68   0.0000       0.065449         1.7810
  69   0.0000       0.101937         2.7739
  70   0.0000       0.117186         3.1888
  71   0.0000       0.129966         3.5366

MULLIKEN ATOMIC CHARGES
-----------------------
   0 S :    0.128091
   1 C :   -0.113822
   2 C :   -0.095101
   3 C :    0.027389
   4 C :   -0.145766
   5 H :    0.028464
   6 C :    0.041838
   7 H :    0.035250
   8 H :    0.015513
   9 C :   -0.081137
  10 H :    0.032171
  11 H :    0.046140
  12 C :   -0.047354
  13 H :    0.043116
  14 H :    0.026761
  15 H :    0.035213
  16 S :    0.083357
  17 C :   -0.108022
  18 C :   -0.017173
  19 C :   -0.026555
  20 C :   -0.173642
  21 H :    0.005625
  22 C :    0.054513
  23 H :    0.020991
  24 H :    0.009067
  25 C :   -0.041890
  26 H :    0.016022
  27 H :    0.028959
  28 C :   -0.059856
  29 H :    0.046442
  30 H :    0.038416
  31 H :    0.023433
  32 H :    0.053789
  33 H :    0.069759
Sum of atomic charges:    0.0000000

LOEWDIN ATOMIC CHARGES
----------------------
   0 S :    0.427069
   1 C :   -0.205938
   2 C :   -0.064149
   3 C :   -0.054013
   4 C :   -0.199549
   5 H :    0.038254
   6 C :   -0.043036
   7 H :    0.036856
   8 H :    0.025952
   9 C :   -0.038374
  10 H :    0.026108
  11 H :    0.032000
  12 C :   -0.067180
  13 H :    0.023104
  14 H :    0.026778
  15 H :    0.026977
  16 S :    0.384915
  17 C :   -0.187493
  18 C :   -0.072071
  19 C :   -0.061756
  20 C :   -0.182989
  21 H :    0.027571
  22 C :   -0.038497
  23 H :    0.026674
  24 H :    0.029567
  25 C :   -0.050436
  26 H :    0.015917
  27 H :    0.032371
  28 C :   -0.072497
  29 H :    0.027688
  30 H :    0.030986
  31 H :    0.029969
  32 H :    0.031361
  33 H :    0.037863

  Mayer bond orders larger than 0.100000
B(  0-S ,  1-C ) :   1.1559 B(  0-S ,  4-C ) :   1.1477 B(  1-C ,  2-C ) :   1.5805
B(  1-C , 32-H ) :   0.9631 B(  2-C ,  3-C ) :   1.2548 B(  2-C ,  6-C ) :   1.0356
B(  3-C ,  4-C ) :   1.5792 B(  3-C ,  5-H ) :   0.9855 B(  4-C , 20-C ) :   0.9961
B(  6-C ,  7-H ) :   0.9381 B(  6-C ,  8-H ) :   0.9362 B(  6-C ,  9-C ) :   1.0703
B(  9-C , 10-H ) :   0.9514 B(  9-C , 11-H ) :   0.9533 B(  9-C , 12-C ) :   1.0939
B( 12-C , 13-H ) :   0.9668 B( 12-C , 14-H ) :   0.9698 B( 12-C , 15-H ) :   0.9742
B( 16-S , 17-C ) :   1.1499 B( 16-S , 20-C ) :   1.1321 B( 17-C , 18-C ) :   1.6165
B( 17-C , 33-H ) :   0.9602 B( 18-C , 19-C ) :   1.2213 B( 18-C , 21-H ) :   1.0023
B( 19-C , 20-C ) :   1.6172 B( 19-C , 22-C ) :   1.0432 B( 22-C , 23-H ) :   0.9241
B( 22-C , 24-H ) :   0.9296 B( 22-C , 25-C ) :   1.0935 B( 25-C , 26-H ) :   0.9434
B( 25-C , 27-H ) :   0.9479 B( 25-C , 28-C ) :   1.0783 B( 28-C , 29-H ) :   0.9745
B( 28-C , 30-H ) :   0.9705 B( 28-C , 31-H ) :   0.9690

Dispersion correction           -0.015269449
FINAL SINGLE POINT ENERGY     -1339.880630943938

DIPOLE MOMENT
-------------
                                X             Y             Z
Electronic contribution:     -1.98642       3.77238      -5.65369
Nuclear contribution   :      2.20352      -3.94898       6.02664
                        -----------------------------------------
Total Dipole Moment    :      0.21709      -0.17660       0.37295
                        -----------------------------------------
Magnitude (a.u.)       :      0.46627
Magnitude (Debye)      :      1.18518

Rotational constants in cm-1:     0.024082     0.008425     0.006748
Rotational constants in MHz :   721.948073   252.584983   202.286687

                             ****ORCA TERMINATED NORMALLY****
TOTAL RUN TIME: 0 days 0 hours 0 minutes 30 seconds 492 msec
