                         Program Version 4.2.1 -  RELEASE  -
|  1> ! wB97X-D3 SP def2-SVP
|  2> %pal
|  3> nprocs 16
|  4> end
|  5>
|  6> * xyz 0 1
|  7> S 	 -45.4189 	 30.7122 	 88.4565
|  8> C 	 -46.0413 	 30.1556 	 90.0193
|  9> C 	 -47.0942 	 30.8905 	 90.4603
| 10> C 	 -47.3643 	 31.9968 	 89.5778
| 11> C 	 -46.5446 	 32.0591 	 88.5071
| 12> H 	 -48.0511 	 32.804 	 89.7405
| 13> C 	 -47.9642 	 30.6651 	 91.6889
| 14> H 	 -47.3244 	 31.2143 	 92.4328
| 15> H 	 -47.894 	 29.6555 	 92.0597
| 16> C 	 -49.4768 	 31.0348 	 91.6946
| 17> H 	 -49.6935 	 32.1103 	 91.6203
| 18> H 	 -49.8762 	 30.5856 	 90.7171
| 19> C 	 -50.2852 	 30.376 	 92.865
| 20> H 	 -51.3058 	 30.7824 	 92.7923
| 21> H 	 -50.2661 	 29.2414 	 92.7553
| 22> H 	 -49.9026 	 30.817 	 93.7782
| 23> S 	 -46.1717 	 32.3851 	 85.8852
| 24> C 	 -46.104 	 33.9586 	 85.218
| 25> C 	 -46.3873 	 34.9266 	 86.1126
| 26> C 	 -46.7009 	 34.3863 	 87.3707
| 27> C 	 -46.5036 	 33.0384 	 87.4329
| 28> H 	 -46.4148 	 35.958 	 85.869
| 29> C 	 -47.1646 	 35.3491 	 88.4884
| 30> H 	 -46.4647 	 36.1331 	 88.5168
| 31> H 	 -47.0755 	 34.825 	 89.4143
| 32> C 	 -48.5353 	 36.0026 	 88.2271
| 33> H 	 -49.1688 	 35.1646 	 88.0002
| 34> H 	 -48.4573 	 36.5491 	 87.3426
| 35> C 	 -49.1019 	 36.9547 	 89.3348
| 36> H 	 -48.4564 	 37.7975 	 89.5384
| 37> H 	 -49.2878 	 36.4591 	 90.3112
| 38> H 	 -50.0634 	 37.3374 	 89.1123
| 39> H 	 -45.8327 	 29.1921 	 90.4757
| 40> H 	 -46.0167 	 34.2301 	 84.1652
| 41> *
| 42>
| 43>                          ****END OF INPUT****

CARTESIAN COORDINATES (ANGSTROEM)
---------------------------------
  S    -45.418900   30.712200   88.456500
  C    -46.041300   30.155600   90.019300
  C    -47.094200   30.890500   90.460300
  C    -47.364300   31.996800   89.577800
  C    -46.544600   32.059100   88.507100
  H    -48.051100   32.804000   89.740500
  C    -47.964200   30.665100   91.688900
  H    -47.324400   31.214300   92.432800
  H    -47.894000   29.655500   92.059700
  C    -49.476800   31.034800   91.694600
  H    -49.693500   32.110300   91.620300
  H    -49.876200   30.585600   90.717100
  C    -50.285200   30.376000   92.865000
  H    -51.305800   30.782400   92.792300
  H    -50.266100   29.241400   92.755300
  H    -49.902600   30.817000   93.778200
  S    -46.171700   32.385100   85.885200
  C    -46.104000   33.958600   85.218000
  C    -46.387300   34.926600   86.112600
  C    -46.700900   34.386300   87.370700
  C    -46.503600   33.038400   87.432900
  H    -46.414800   35.958000   85.869000
  C    -47.164600   35.349100   88.488400
  H    -46.464700   36.133100   88.516800
  H    -47.075500   34.825000   89.414300
  C    -48.535300   36.002600   88.227100
  H    -49.168800   35.164600   88.000200
  H    -48.457300   36.549100   87.342600
  C    -49.101900   36.954700   89.334800
  H    -48.456400   37.797500   89.538400
  H    -49.287800   36.459100   90.311200
  H    -50.063400   37.337400   89.112300
  H    -45.832700   29.192100   90.475700
  H    -46.016700   34.230100   84.165200

 Total Charge           Charge          ....    0
 Multiplicity           Mult            ....    1
 Number of Electrons    NEL             ....  134
 Basis Dimension        Dim             ....  322

ORBITAL ENERGIES
----------------

  NO   OCC          E(Eh)            E(eV)
   0   2.0000     -88.964948     -2420.8593
   1   2.0000     -88.963427     -2420.8179
   2   2.0000     -10.325104      -280.9604
   3   2.0000     -10.319854      -280.8175
   4   2.0000     -10.308893      -280.5192
   5   2.0000     -10.307773      -280.4888
   6   2.0000     -10.300693      -280.2961
   7   2.0000     -10.300471      -280.2901
   8   2.0000     -10.297187      -280.2007
   9   2.0000     -10.297079      -280.1978
  10   2.0000     -10.291356      -280.0420
  11   2.0000     -10.286357      -279.9060
  12   2.0000     -10.285363      -279.8789
  13   2.0000     -10.284880      -279.8658
  14   2.0000     -10.283447      -279.8268
  15   2.0000     -10.281317      -279.7689
  16   2.0000      -8.081268      -219.9025
  17   2.0000      -8.077798      -219.8081
  18   2.0000      -6.039659      -164.3475
  19   2.0000      -6.036482      -164.2610
  20   2.0000      -6.035637      -164.2380
  21   2.0000      -6.032510      -164.1529
  22   2.0000      -6.031966      -164.1381
  23   2.0000      -6.028243      -164.0368
  24   2.0000      -1.018420       -27.7126
  25   2.0000      -0.988809       -26.9069
  26   2.0000      -0.909738       -24.7552
  27   2.0000      -0.905767       -24.6472
  28   2.0000      -0.873366       -23.7655
  29   2.0000      -0.853524       -23.2256
  30   2.0000      -0.843952       -22.9651
  31   2.0000      -0.818925       -22.2841
  32   2.0000      -0.786236       -21.3946
  33   2.0000      -0.775028       -21.0896
  34   2.0000      -0.712983       -19.4013
  35   2.0000      -0.703436       -19.1415
  36   2.0000      -0.690465       -18.7885
  37   2.0000      -0.667824       -18.1724
  38   2.0000      -0.639354       -17.3977
  39   2.0000      -0.621953       -16.9242
  40   2.0000      -0.596706       -16.2372
  41   2.0000      -0.570089       -15.5129
  42   2.0000      -0.565732       -15.3944
  43   2.0000      -0.560952       -15.2643
  44   2.0000      -0.526702       -14.3323
  45   2.0000      -0.524015       -14.2592
  46   2.0000      -0.513856       -13.9827
  47   2.0000      -0.507390       -13.8068
  48   2.0000      -0.507084       -13.7985
  49   2.0000      -0.501048       -13.6342
  50   2.0000      -0.492568       -13.4034
  51   2.0000      -0.483044       -13.1443
  52   2.0000      -0.473436       -12.8828
  53   2.0000      -0.464749       -12.6465
  54   2.0000      -0.461279       -12.5520
  55   2.0000      -0.455988       -12.4081
  56   2.0000      -0.447532       -12.1780
  57   2.0000      -0.436390       -11.8748
  58   2.0000      -0.432310       -11.7637
  59   2.0000      -0.428368       -11.6565
  60   2.0000      -0.425005       -11.5650
  61   2.0000      -0.421523       -11.4702
  62   2.0000      -0.413605       -11.2548
  63   2.0000      -0.355725        -9.6798
  64   2.0000      -0.334330        -9.0976
  65   2.0000      -0.327675        -8.9165
  66   2.0000      -0.289165        -7.8686
  67   0.0000       0.033508         0.9118
  68   0.0000       0.078957         2.1485
  69   0.0000       0.110733         3.0132
  70   0.0000       0.127366         3.4658
  71   0.0000       0.131071         3.5666

MULLIKEN ATOMIC CHARGES
-----------------------
   0 S :    0.096374
   1 C :   -0.124521
   2 C :   -0.073910
   3 C :   -0.002554
   4 C :   -0.110311
   5 H :   -0.000177
   6 C :    0.064631
   7 H :    0.047134
   8 H :    0.007504
   9 C :   -0.124281
  10 H :    0.040917
  11 H :    0.043239
  12 C :   -0.055010
  13 H :    0.038783
  14 H :    0.061182
  15 H :    0.036655
  16 S :    0.114786
  17 C :   -0.071122
  18 C :   -0.033914
  19 C :   -0.065890
  20 C :   -0.148091
  21 H :    0.003846
  22 C :    0.113869
  23 H :    0.004416
  24 H :    0.006734
  25 C :   -0.056969
  26 H :    0.026566
  27 H :    0.012379
  28 C :   -0.026912
  29 H :    0.030331
  30 H :    0.026278
  31 H :    0.024593
  32 H :    0.040766
  33 H :    0.052678
Sum of atomic charges:   -0.0000000

LOEWDIN ATOMIC CHARGES
----------------------
   0 S :    0.381862
   1 C :   -0.200516
   2 C :   -0.056848
   3 C :   -0.070900
   4 C :   -0.177711
   5 H :    0.026746
   6 C :   -0.042732
   7 H :    0.043419
   8 H :    0.025791
   9 C :   -0.048894
  10 H :    0.022320
  11 H :    0.032679
  12 C :   -0.067546
  13 H :    0.031051
  14 H :    0.037830
  15 H :    0.024722
  16 S :    0.435104
  17 C :   -0.195049
  18 C :   -0.068119
  19 C :   -0.055356
  20 C :   -0.207619
  21 H :    0.027216
  22 C :   -0.020520
  23 H :    0.021819
  24 H :    0.020766
  25 C :   -0.031570
  26 H :    0.023394
  27 H :    0.015534
  28 C :   -0.062997
  29 H :    0.024753
  30 H :    0.027783
  31 H :    0.022551
  32 H :    0.028214
  33 H :    0.032826

  Mayer bond orders larger than 0.100000
B(  0-S ,  1-C ) :   1.1033 B(  0-S ,  4-C ) :   1.1307 B(  1-C ,  2-C ) :   1.6748
B(  1-C , 32-H ) :   0.9605 B(  2-C ,  3-C ) :   1.1935 B(  2-C ,  6-C ) :   1.0088
B(  3-C ,  4-C ) :   1.6269 B(  3-C ,  5-H ) :   0.9964 B(  4-C , 20-C ) :   1.0266
B(  6-C ,  7-H ) :   0.9271 B(  6-C ,  8-H ) :   0.9432 B(  6-C ,  9-C ) :   1.0478
B(  9-C , 10-H ) :   0.9516 B(  9-C , 11-H ) :   0.9606 B(  9-C , 12-C ) :   1.0832
B( 12-C , 13-H ) :   0.9736 B( 12-C , 14-H ) :   0.9727 B( 12-C , 15-H ) :   0.9758
B( 16-S , 17-C ) :   1.1542 B( 16-S , 20-C ) :   1.1488 B( 17-C , 18-C ) :   1.6123
B( 17-C , 33-H ) :   0.9625 B( 18-C , 19-C ) :   1.2476 B( 18-C , 21-H ) :   0.9981
B( 19-C , 20-C ) :   1.6109 B( 19-C , 22-C ) :   1.0417 B( 22-C , 23-H ) :   0.9263
B( 22-C , 24-H ) :   0.9357 B( 22-C , 25-C ) :   1.0561 B( 25-C , 26-H ) :   0.9577
B( 25-C , 27-H ) :   0.9533 B( 25-C , 28-C ) :   1.0814 B( 28-C , 29-H ) :   0.9750
B( 28-C , 30-H ) :   0.9759 B( 28-C , 31-H ) :   0.9744

Dispersion correction           -0.013599068
FINAL SINGLE POINT ENERGY     -1339.876323720633

DIPOLE MOMENT
-------------
                                X             Y             Z
Electronic contribution:     21.06171     -12.01027     -21.30091
Nuclear contribution   :    -21.63530      12.47239      21.66852
                        -----------------------------------------
Total Dipole Moment    :     -0.57359       0.46212       0.36761
                        -----------------------------------------
Magnitude (a.u.)       :      0.82322
Magnitude (Debye)      :      2.09247

Rotational constants in cm-1:     0.016006     0.009268     0.006273
Rotational constants in MHz :   479.836478   277.856603   188.062756

                             ****ORCA TERMINATED NORMALLY****
TOTAL RUN TIME: 0 days 0 hours 0 minutes 27 seconds 736 msec
