                         Program Version 4.2.1 -  RELEASE  -
|  1> ! wB97X-D3 SP def2-SVP
|  2> %pal
|  3> nprocs 16
|  4> end
|  5>
|  6> * xyz 0 1
|  7> S 	 17.6349 	 -10.8582 	 83.6241
|  8> C 	 16.2379 	 -9.74481 	 83.7061
|  9> C 	 15.261 	 -10.2111 	 82.9336
| 10> C 	 15.7041 	 -11.1853 	 81.983
| 11> C 	 16.9729 	 -11.7213 	 82.2734
| 12> H 	 15.103 	 -11.7407 	 81.2757
| 13> C 	 13.8702 	 -9.63076 	 82.9043
| 14> H 	 13.4348 	 -9.79059 	 83.8761
| 15> H 	 13.2791 	 -10.1926 	 82.1753
| 16> C 	 13.7732 	 -8.13701 	 82.5877
| 17> H 	 14.6247 	 -7.55054 	 82.9243
| 18> H 	 13.884 	 -8.15076 	 81.4898
| 19> C 	 12.52 	 -7.36461 	 82.9994
| 20> H 	 11.5609 	 -7.70494 	 82.6478
| 21> H 	 12.4082 	 -7.32017 	 84.1127
| 22> H 	 12.6431 	 -6.3632 	 82.6436
| 23> S 	 18.3339 	 -14.0667 	 82.4403
| 24> C 	 18.6832 	 -14.951 	 80.961
| 25> C 	 18.2925 	 -14.2704 	 79.846
| 26> C 	 17.5582 	 -13.0658 	 80.1089
| 27> C 	 17.5492 	 -12.7958 	 81.5167
| 28> H 	 18.5961 	 -14.5618 	 78.8536
| 29> C 	 17.1948 	 -12.1021 	 78.9838
| 30> H 	 17.9067 	 -12.1226 	 78.0889
| 31> H 	 17.395 	 -11.1423 	 79.4829
| 32> C 	 15.8346 	 -12.298 	 78.4145
| 33> H 	 15.7499 	 -11.6164 	 77.5841
| 34> H 	 15.109 	 -12.0394 	 79.2359
| 35> C 	 15.6272 	 -13.6983 	 77.8794
| 36> H 	 16.3507 	 -13.9433 	 77.0606
| 37> H 	 14.5788 	 -13.7159 	 77.4965
| 38> H 	 15.632 	 -14.4465 	 78.6234
| 39> H 	 16.1578 	 -9.07045 	 84.5824
| 40> H 	 19.2312 	 -15.8722 	 80.9341
| 41> *
| 42>
| 43>                          ****END OF INPUT****

CARTESIAN COORDINATES (ANGSTROEM)
---------------------------------
  S     17.634900  -10.858200   83.624100
  C     16.237900   -9.744810   83.706100
  C     15.261000  -10.211100   82.933600
  C     15.704100  -11.185300   81.983000
  C     16.972900  -11.721300   82.273400
  H     15.103000  -11.740700   81.275700
  C     13.870200   -9.630760   82.904300
  H     13.434800   -9.790590   83.876100
  H     13.279100  -10.192600   82.175300
  C     13.773200   -8.137010   82.587700
  H     14.624700   -7.550540   82.924300
  H     13.884000   -8.150760   81.489800
  C     12.520000   -7.364610   82.999400
  H     11.560900   -7.704940   82.647800
  H     12.408200   -7.320170   84.112700
  H     12.643100   -6.363200   82.643600
  S     18.333900  -14.066700   82.440300
  C     18.683200  -14.951000   80.961000
  C     18.292500  -14.270400   79.846000
  C     17.558200  -13.065800   80.108900
  C     17.549200  -12.795800   81.516700
  H     18.596100  -14.561800   78.853600
  C     17.194800  -12.102100   78.983800
  H     17.906700  -12.122600   78.088900
  H     17.395000  -11.142300   79.482900
  C     15.834600  -12.298000   78.414500
  H     15.749900  -11.616400   77.584100
  H     15.109000  -12.039400   79.235900
  C     15.627200  -13.698300   77.879400
  H     16.350700  -13.943300   77.060600
  H     14.578800  -13.715900   77.496500
  H     15.632000  -14.446500   78.623400
  H     16.157800   -9.070450   84.582400
  H     19.231200  -15.872200   80.934100

 Total Charge           Charge          ....    0
 Multiplicity           Mult            ....    1
 Number of Electrons    NEL             ....  134
 Basis Dimension        Dim             ....  322

ORBITAL ENERGIES
----------------

  NO   OCC          E(Eh)            E(eV)
   0   2.0000     -88.968040     -2420.9434
   1   2.0000     -88.964876     -2420.8574
   2   2.0000     -10.332920      -281.1730
   3   2.0000     -10.330787      -281.1150
   4   2.0000     -10.315121      -280.6887
   5   2.0000     -10.313651      -280.6487
   6   2.0000     -10.308210      -280.5006
   7   2.0000     -10.299015      -280.2505
   8   2.0000     -10.293494      -280.1002
   9   2.0000     -10.293093      -280.0893
  10   2.0000     -10.292475      -280.0725
  11   2.0000     -10.289525      -279.9922
  12   2.0000     -10.287150      -279.9276
  13   2.0000     -10.284730      -279.8617
  14   2.0000     -10.279773      -279.7268
  15   2.0000     -10.277861      -279.6748
  16   2.0000      -8.082604      -219.9388
  17   2.0000      -8.079485      -219.8540
  18   2.0000      -6.041110      -164.3870
  19   2.0000      -6.038155      -164.3066
  20   2.0000      -6.037159      -164.2794
  21   2.0000      -6.033963      -164.1925
  22   2.0000      -6.033372      -164.1764
  23   2.0000      -6.030116      -164.0878
  24   2.0000      -1.007457       -27.4143
  25   2.0000      -0.984319       -26.7847
  26   2.0000      -0.917564       -24.9682
  27   2.0000      -0.913656       -24.8618
  28   2.0000      -0.874032       -23.7836
  29   2.0000      -0.849567       -23.1179
  30   2.0000      -0.845523       -23.0079
  31   2.0000      -0.813476       -22.1358
  32   2.0000      -0.786582       -21.4040
  33   2.0000      -0.775490       -21.1021
  34   2.0000      -0.710384       -19.3305
  35   2.0000      -0.702110       -19.1054
  36   2.0000      -0.685745       -18.6601
  37   2.0000      -0.664477       -18.0814
  38   2.0000      -0.640050       -17.4166
  39   2.0000      -0.612737       -16.6734
  40   2.0000      -0.595147       -16.1948
  41   2.0000      -0.573782       -15.6134
  42   2.0000      -0.564614       -15.3639
  43   2.0000      -0.555432       -15.1141
  44   2.0000      -0.550857       -14.9896
  45   2.0000      -0.526468       -14.3259
  46   2.0000      -0.515688       -14.0326
  47   2.0000      -0.511769       -13.9259
  48   2.0000      -0.501583       -13.6488
  49   2.0000      -0.496295       -13.5049
  50   2.0000      -0.490548       -13.3485
  51   2.0000      -0.486879       -13.2486
  52   2.0000      -0.479191       -13.0395
  53   2.0000      -0.465152       -12.6574
  54   2.0000      -0.462547       -12.5866
  55   2.0000      -0.447255       -12.1704
  56   2.0000      -0.439582       -11.9616
  57   2.0000      -0.435143       -11.8408
  58   2.0000      -0.433937       -11.8080
  59   2.0000      -0.420984       -11.4556
  60   2.0000      -0.418577       -11.3901
  61   2.0000      -0.415696       -11.3117
  62   2.0000      -0.411567       -11.1993
  63   2.0000      -0.354897        -9.6573
  64   2.0000      -0.332584        -9.0501
  65   2.0000      -0.330021        -8.9803
  66   2.0000      -0.286930        -7.8078
  67   0.0000       0.020613         0.5609
  68   0.0000       0.072997         1.9863
  69   0.0000       0.105156         2.8614
  70   0.0000       0.119152         3.2423
  71   0.0000       0.132037         3.5929

MULLIKEN ATOMIC CHARGES
-----------------------
   0 S :    0.096104
   1 C :   -0.149635
   2 C :   -0.068591
   3 C :   -0.003231
   4 C :   -0.118887
   5 H :    0.014232
   6 C :    0.103675
   7 H :    0.021369
   8 H :    0.020023
   9 C :   -0.101826
  10 H :    0.032173
  11 H :    0.027049
  12 C :   -0.034355
  13 H :    0.026340
  14 H :    0.031843
  15 H :    0.031062
  16 S :    0.107604
  17 C :   -0.083879
  18 C :   -0.017402
  19 C :   -0.038418
  20 C :   -0.175542
  21 H :    0.014067
  22 C :    0.004271
  23 H :    0.035569
  24 H :    0.043919
  25 C :   -0.044427
  26 H :    0.026845
  27 H :    0.026603
  28 C :   -0.054016
  29 H :    0.035476
  30 H :    0.035393
  31 H :    0.035257
  32 H :    0.069642
  33 H :    0.051690
Sum of atomic charges:   -0.0000000

LOEWDIN ATOMIC CHARGES
----------------------
   0 S :    0.391377
   1 C :   -0.187576
   2 C :   -0.062660
   3 C :   -0.070087
   4 C :   -0.198690
   5 H :    0.025858
   6 C :   -0.028590
   7 H :    0.027657
   8 H :    0.029914
   9 C :   -0.044928
  10 H :    0.024935
  11 H :    0.028283
  12 C :   -0.065063
  13 H :    0.020535
  14 H :    0.028321
  15 H :    0.027405
  16 S :    0.403069
  17 C :   -0.182455
  18 C :   -0.065592
  19 C :   -0.052783
  20 C :   -0.192300
  21 H :    0.030165
  22 C :   -0.042028
  23 H :    0.035930
  24 H :    0.035870
  25 C :   -0.044321
  26 H :    0.023795
  27 H :    0.025093
  28 C :   -0.064184
  29 H :    0.028956
  30 H :    0.032926
  31 H :    0.018516
  32 H :    0.036089
  33 H :    0.026561

  Mayer bond orders larger than 0.100000
B(  0-S ,  1-C ) :   1.1101 B(  0-S ,  4-C ) :   1.1545 B(  1-C ,  2-C ) :   1.6305
B(  1-C , 32-H ) :   0.9627 B(  2-C ,  3-C ) :   1.2360 B(  2-C ,  6-C ) :   1.0250
B(  3-C ,  4-C ) :   1.5488 B(  3-C ,  5-H ) :   0.9821 B(  4-C , 20-C ) :   1.0832
B(  6-C ,  7-H ) :   0.9326 B(  6-C ,  8-H ) :   0.9437 B(  6-C ,  9-C ) :   1.0542
B(  9-C , 10-H ) :   0.9606 B(  9-C , 11-H ) :   0.9548 B(  9-C , 12-C ) :   1.0849
B( 12-C , 13-H ) :   0.9759 B( 12-C , 14-H ) :   0.9729 B( 12-C , 15-H ) :   0.9716
B( 16-S , 17-C ) :   1.1412 B( 16-S , 20-C ) :   1.1477 B( 17-C , 18-C ) :   1.6147
B( 17-C , 20-C ) :   0.1023 B( 17-C , 33-H ) :   0.9689 B( 18-C , 19-C ) :   1.2456
B( 18-C , 21-H ) :   0.9871 B( 19-C , 20-C ) :   1.5605 B( 19-C , 22-C ) :   1.0160
B( 22-C , 23-H ) :   0.9480 B( 22-C , 24-H ) :   0.9389 B( 22-C , 25-C ) :   1.0759
B( 25-C , 26-H ) :   0.9500 B( 25-C , 27-H ) :   0.9438 B( 25-C , 28-C ) :   1.0870
B( 28-C , 29-H ) :   0.9715 B( 28-C , 30-H ) :   0.9701 B( 28-C , 31-H ) :   0.9688

Dispersion correction           -0.014392368
FINAL SINGLE POINT ENERGY     -1339.876909547925

DIPOLE MOMENT
-------------
                                X             Y             Z
Electronic contribution:     21.60607     -12.59858      15.25264
Nuclear contribution   :    -22.03205      12.74999     -15.65112
                        -----------------------------------------
Total Dipole Moment    :     -0.42598       0.15141      -0.39848
                        -----------------------------------------
Magnitude (a.u.)       :      0.60263
Magnitude (Debye)      :      1.53177

Rotational constants in cm-1:     0.020545     0.008181     0.006207
Rotational constants in MHz :   615.923763   245.266315   186.082341

                             ****ORCA TERMINATED NORMALLY****
TOTAL RUN TIME: 0 days 0 hours 0 minutes 30 seconds 279 msec
