                         Program Version 4.2.1 -  RELEASE  -
|  1> ! wB97X-D3 SP def2-SVP
|  2> %pal
|  3> nprocs 16
|  4> end
|  5>
|  6> * xyz 0 1
|  7> S 	 -4.68552 	 60.499 	 46.9599
|  8> C 	 -5.22932 	 60.4285 	 48.6299
|  9> C 	 -4.58408 	 59.4805 	 49.3841
| 10> C 	 -3.74656 	 58.6714 	 48.5629
| 11> C 	 -3.70526 	 59.0434 	 47.2283
| 12> H 	 -3.22691 	 57.7129 	 48.8863
| 13> C 	 -4.91176 	 59.2057 	 50.8096
| 14> H 	 -4.41845 	 60.0662 	 51.2126
| 15> H 	 -4.33343 	 58.3382 	 51.2617
| 16> C 	 -6.432 	 59.065 	 51.2045
| 17> H 	 -6.87302 	 60.0655 	 51.1304
| 18> H 	 -6.9759 	 58.5192 	 50.4622
| 19> C 	 -6.73578 	 58.4515 	 52.6372
| 20> H 	 -6.40012 	 58.9619 	 53.5693
| 21> H 	 -7.79845 	 58.3884 	 52.6402
| 22> H 	 -6.24645 	 57.4692 	 52.6782
| 23> S 	 -3.93296 	 58.0552 	 44.678
| 24> C 	 -2.6128 	 57.1767 	 43.929
| 25> C 	 -1.46947 	 57.0912 	 44.736
| 26> C 	 -1.71217 	 57.7583 	 45.9799
| 27> C 	 -3.01152 	 58.2999 	 46.1506
| 28> H 	 -0.557536 	 56.59 	 44.415
| 29> C 	 -0.592171 	 57.7831 	 46.9824
| 30> H 	 -0.730696 	 58.6782 	 47.6568
| 31> H 	 0.283472 	 57.9302 	 46.4512
| 32> C 	 -0.503474 	 56.4475 	 47.7413
| 33> H 	 -0.575143 	 55.561 	 47.1582
| 34> H 	 -1.2913 	 56.2873 	 48.513
| 35> C 	 0.726059 	 56.3248 	 48.5529
| 36> H 	 0.451769 	 55.5865 	 49.2688
| 37> H 	 0.960736 	 57.1587 	 49.289
| 38> H 	 1.56581 	 55.9199 	 48.0477
| 39> H 	 -5.82204 	 61.1587 	 49.1073
| 40> H 	 -2.5638 	 56.9621 	 42.8483
| 41> *
| 42>
| 43>                          ****END OF INPUT****

CARTESIAN COORDINATES (ANGSTROEM)
---------------------------------
  S     -4.685520   60.499000   46.959900
  C     -5.229320   60.428500   48.629900
  C     -4.584080   59.480500   49.384100
  C     -3.746560   58.671400   48.562900
  C     -3.705260   59.043400   47.228300
  H     -3.226910   57.712900   48.886300
  C     -4.911760   59.205700   50.809600
  H     -4.418450   60.066200   51.212600
  H     -4.333430   58.338200   51.261700
  C     -6.432000   59.065000   51.204500
  H     -6.873020   60.065500   51.130400
  H     -6.975900   58.519200   50.462200
  C     -6.735780   58.451500   52.637200
  H     -6.400120   58.961900   53.569300
  H     -7.798450   58.388400   52.640200
  H     -6.246450   57.469200   52.678200
  S     -3.932960   58.055200   44.678000
  C     -2.612800   57.176700   43.929000
  C     -1.469470   57.091200   44.736000
  C     -1.712170   57.758300   45.979900
  C     -3.011520   58.299900   46.150600
  H     -0.557536   56.590000   44.415000
  C     -0.592171   57.783100   46.982400
  H     -0.730696   58.678200   47.656800
  H      0.283472   57.930200   46.451200
  C     -0.503474   56.447500   47.741300
  H     -0.575143   55.561000   47.158200
  H     -1.291300   56.287300   48.513000
  C      0.726059   56.324800   48.552900
  H      0.451769   55.586500   49.268800
  H      0.960736   57.158700   49.289000
  H      1.565810   55.919900   48.047700
  H     -5.822040   61.158700   49.107300
  H     -2.563800   56.962100   42.848300

 Total Charge           Charge          ....    0
 Multiplicity           Mult            ....    1
 Number of Electrons    NEL             ....  134
 Basis Dimension        Dim             ....  322

ORBITAL ENERGIES
----------------

  NO   OCC          E(Eh)            E(eV)
   0   2.0000     -88.969125     -2420.9730
   1   2.0000     -88.964670     -2420.8518
   2   2.0000     -10.333250      -281.1820
   3   2.0000     -10.329458      -281.0789
   4   2.0000     -10.319730      -280.8141
   5   2.0000     -10.308326      -280.5038
   6   2.0000     -10.304081      -280.3883
   7   2.0000     -10.299154      -280.2542
   8   2.0000     -10.297916      -280.2205
   9   2.0000     -10.297243      -280.2022
  10   2.0000     -10.295535      -280.1558
  11   2.0000     -10.295493      -280.1546
  12   2.0000     -10.286245      -279.9029
  13   2.0000     -10.286138      -279.9001
  14   2.0000     -10.283027      -279.8154
  15   2.0000     -10.269983      -279.4605
  16   2.0000      -8.083011      -219.9499
  17   2.0000      -8.079194      -219.8461
  18   2.0000      -6.041566      -164.3994
  19   2.0000      -6.037753      -164.2956
  20   2.0000      -6.037685      -164.2938
  21   2.0000      -6.033665      -164.1844
  22   2.0000      -6.033627      -164.1833
  23   2.0000      -6.030097      -164.0873
  24   2.0000      -1.001049       -27.2399
  25   2.0000      -0.980850       -26.6903
  26   2.0000      -0.915594       -24.9146
  27   2.0000      -0.905960       -24.6524
  28   2.0000      -0.863501       -23.4971
  29   2.0000      -0.856259       -23.3000
  30   2.0000      -0.847234       -23.0544
  31   2.0000      -0.814293       -22.1580
  32   2.0000      -0.781350       -21.2616
  33   2.0000      -0.767506       -20.8849
  34   2.0000      -0.712403       -19.3855
  35   2.0000      -0.700891       -19.0722
  36   2.0000      -0.691239       -18.8096
  37   2.0000      -0.662800       -18.0357
  38   2.0000      -0.635441       -17.2912
  39   2.0000      -0.612117       -16.6565
  40   2.0000      -0.590851       -16.0779
  41   2.0000      -0.570787       -15.5319
  42   2.0000      -0.569443       -15.4953
  43   2.0000      -0.553181       -15.0528
  44   2.0000      -0.528611       -14.3842
  45   2.0000      -0.527631       -14.3576
  46   2.0000      -0.519260       -14.1298
  47   2.0000      -0.511095       -13.9076
  48   2.0000      -0.507166       -13.8007
  49   2.0000      -0.497615       -13.5408
  50   2.0000      -0.490927       -13.3588
  51   2.0000      -0.481146       -13.0926
  52   2.0000      -0.468302       -12.7431
  53   2.0000      -0.466322       -12.6893
  54   2.0000      -0.453067       -12.3286
  55   2.0000      -0.450824       -12.2675
  56   2.0000      -0.442882       -12.0514
  57   2.0000      -0.436685       -11.8828
  58   2.0000      -0.431677       -11.7465
  59   2.0000      -0.427349       -11.6287
  60   2.0000      -0.418625       -11.3914
  61   2.0000      -0.415100       -11.2954
  62   2.0000      -0.411954       -11.2098
  63   2.0000      -0.346645        -9.4327
  64   2.0000      -0.330211        -8.9855
  65   2.0000      -0.328053        -8.9268
  66   2.0000      -0.287295        -7.8177
  67   0.0000       0.027207         0.7404
  68   0.0000       0.071447         1.9442
  69   0.0000       0.109055         2.9675
  70   0.0000       0.125402         3.4124
  71   0.0000       0.127767         3.4767

MULLIKEN ATOMIC CHARGES
-----------------------
   0 S :    0.118870
   1 C :   -0.115699
   2 C :   -0.080301
   3 C :   -0.001793
   4 C :   -0.140075
   5 H :    0.031657
   6 C :    0.055180
   7 H :    0.036582
   8 H :    0.025493
   9 C :   -0.077819
  10 H :    0.026301
  11 H :    0.037702
  12 C :   -0.058941
  13 H :    0.043865
  14 H :    0.036843
  15 H :    0.036002
  16 S :    0.101034
  17 C :   -0.101284
  18 C :   -0.042767
  19 C :   -0.061106
  20 C :   -0.156656
  21 H :    0.028941
  22 C :    0.115076
  23 H :    0.039295
  24 H :    0.001557
  25 C :   -0.080572
  26 H :    0.018362
  27 H :    0.023142
  28 C :   -0.028876
  29 H :    0.006024
  30 H :    0.035110
  31 H :    0.029825
  32 H :    0.029300
  33 H :    0.069725
Sum of atomic charges:    0.0000000

LOEWDIN ATOMIC CHARGES
----------------------
   0 S :    0.392861
   1 C :   -0.192206
   2 C :   -0.064421
   3 C :   -0.067866
   4 C :   -0.190061
   5 H :    0.041323
   6 C :   -0.041789
   7 H :    0.036504
   8 H :    0.033436
   9 C :   -0.034412
  10 H :    0.022521
  11 H :    0.025332
  12 C :   -0.065760
  13 H :    0.030194
  14 H :    0.025448
  15 H :    0.026407
  16 S :    0.406716
  17 C :   -0.189582
  18 C :   -0.072711
  19 C :   -0.052341
  20 C :   -0.204175
  21 H :    0.036080
  22 C :   -0.027668
  23 H :    0.039542
  24 H :    0.020196
  25 C :   -0.040148
  26 H :    0.023527
  27 H :    0.026675
  28 C :   -0.072071
  29 H :    0.024789
  30 H :    0.034148
  31 H :    0.017876
  32 H :    0.018050
  33 H :    0.033585

  Mayer bond orders larger than 0.100000
B(  0-S ,  1-C ) :   1.1259 B(  0-S ,  4-C ) :   1.1427 B(  1-C ,  2-C ) :   1.6225
B(  1-C , 32-H ) :   0.9693 B(  2-C ,  3-C ) :   1.2404 B(  2-C ,  6-C ) :   1.0064
B(  3-C ,  4-C ) :   1.5824 B(  3-C ,  5-H ) :   0.9811 B(  4-C , 20-C ) :   1.0451
B(  6-C ,  7-H ) :   0.9267 B(  6-C ,  8-H ) :   0.9524 B(  6-C ,  9-C ) :   1.0517
B(  9-C , 10-H ) :   0.9507 B(  9-C , 11-H ) :   0.9638 B(  9-C , 12-C ) :   1.0749
B( 12-C , 13-H ) :   0.9788 B( 12-C , 14-H ) :   0.9763 B( 12-C , 15-H ) :   0.9764
B( 16-S , 17-C ) :   1.1724 B( 16-S , 20-C ) :   1.1350 B( 17-C , 18-C ) :   1.5853
B( 17-C , 20-C ) :   0.1010 B( 17-C , 33-H ) :   0.9599 B( 18-C , 19-C ) :   1.2576
B( 18-C , 21-H ) :   0.9896 B( 19-C , 20-C ) :   1.5725 B( 19-C , 22-C ) :   1.0542
B( 22-C , 23-H ) :   0.9301 B( 22-C , 24-H ) :   0.9298 B( 22-C , 25-C ) :   1.0585
B( 25-C , 26-H ) :   0.9514 B( 25-C , 27-H ) :   0.9584 B( 25-C , 28-C ) :   1.0976
B( 28-C , 29-H ) :   0.9697 B( 28-C , 30-H ) :   0.9664 B( 28-C , 31-H ) :   0.9731

Dispersion correction           -0.013652394
FINAL SINGLE POINT ENERGY     -1339.859973256591

DIPOLE MOMENT
-------------
                                X             Y             Z
Electronic contribution:     -6.97492      10.18981     -26.47034
Nuclear contribution   :      7.27191     -10.48549      27.02574
                        -----------------------------------------
Total Dipole Moment    :      0.29699      -0.29568       0.55540
                        -----------------------------------------
Magnitude (a.u.)       :      0.69577
Magnitude (Debye)      :      1.76851

Rotational constants in cm-1:     0.018062     0.007915     0.006071
Rotational constants in MHz :   541.478749   237.281727   182.007075

                             ****ORCA TERMINATED NORMALLY****
TOTAL RUN TIME: 0 days 0 hours 0 minutes 32 seconds 808 msec
