                         Program Version 4.2.1 -  RELEASE  -
|  1> ! wB97X-D3 SP def2-SVP
|  2> %pal
|  3> nprocs 16
|  4> end
|  5>
|  6> * xyz 0 1
|  7> S 	 -48.6854 	 49.0047 	 105.923
|  8> C 	 -47.9209 	 49.037 	 107.479
|  9> C 	 -47.424 	 47.7742 	 107.89
| 10> C 	 -47.7035 	 46.8112 	 106.897
| 11> C 	 -48.3104 	 47.2615 	 105.72
| 12> H 	 -47.3571 	 45.7557 	 106.904
| 13> C 	 -46.5291 	 47.5769 	 109.097
| 14> H 	 -46.1654 	 48.5154 	 109.409
| 15> H 	 -45.6603 	 46.9567 	 108.741
| 16> C 	 -47.1644 	 46.746 	 110.214
| 17> H 	 -48.0304 	 47.2369 	 110.687
| 18> H 	 -47.4761 	 45.8198 	 109.754
| 19> C 	 -46.1024 	 46.5661 	 111.369
| 20> H 	 -45.1238 	 46.2788 	 111.056
| 21> H 	 -45.9995 	 47.4303 	 111.922
| 22> H 	 -46.4365 	 45.8023 	 112.075
| 23> S 	 -49.142 	 47.6398 	 103.11
| 24> C 	 -49.4476 	 46.1953 	 102.192
| 25> C 	 -49.1101 	 45.0645 	 102.824
| 26> C 	 -48.8584 	 45.2376 	 104.212
| 27> C 	 -48.6854 	 46.5974 	 104.484
| 28> H 	 -49.2796 	 44.1478 	 102.233
| 29> C 	 -48.6684 	 44.0288 	 105.176
| 30> H 	 -47.6495 	 44.0039 	 105.588
| 31> H 	 -48.826 	 43.0959 	 104.644
| 32> C 	 -49.7818 	 43.9136 	 106.284
| 33> H 	 -49.5495 	 44.5841 	 107.148
| 34> H 	 -49.6381 	 43.0332 	 106.81
| 35> C 	 -51.2383 	 43.9113 	 105.847
| 36> H 	 -51.8142 	 43.4149 	 106.598
| 37> H 	 -51.4399 	 43.6803 	 104.881
| 38> H 	 -51.4595 	 45.0365 	 105.97
| 39> H 	 -47.7434 	 49.8815 	 108.108
| 40> H 	 -49.965 	 46.1061 	 101.224
| 41> *
| 42>
| 43>                          ****END OF INPUT****

CARTESIAN COORDINATES (ANGSTROEM)
---------------------------------
  S    -48.685400   49.004700  105.923000
  C    -47.920900   49.037000  107.479000
  C    -47.424000   47.774200  107.890000
  C    -47.703500   46.811200  106.897000
  C    -48.310400   47.261500  105.720000
  H    -47.357100   45.755700  106.904000
  C    -46.529100   47.576900  109.097000
  H    -46.165400   48.515400  109.409000
  H    -45.660300   46.956700  108.741000
  C    -47.164400   46.746000  110.214000
  H    -48.030400   47.236900  110.687000
  H    -47.476100   45.819800  109.754000
  C    -46.102400   46.566100  111.369000
  H    -45.123800   46.278800  111.056000
  H    -45.999500   47.430300  111.922000
  H    -46.436500   45.802300  112.075000
  S    -49.142000   47.639800  103.110000
  C    -49.447600   46.195300  102.192000
  C    -49.110100   45.064500  102.824000
  C    -48.858400   45.237600  104.212000
  C    -48.685400   46.597400  104.484000
  H    -49.279600   44.147800  102.233000
  C    -48.668400   44.028800  105.176000
  H    -47.649500   44.003900  105.588000
  H    -48.826000   43.095900  104.644000
  C    -49.781800   43.913600  106.284000
  H    -49.549500   44.584100  107.148000
  H    -49.638100   43.033200  106.810000
  C    -51.238300   43.911300  105.847000
  H    -51.814200   43.414900  106.598000
  H    -51.439900   43.680300  104.881000
  H    -51.459500   45.036500  105.970000
  H    -47.743400   49.881500  108.108000
  H    -49.965000   46.106100  101.224000

 Total Charge           Charge          ....    0
 Multiplicity           Mult            ....    1
 Number of Electrons    NEL             ....  134
 Basis Dimension        Dim             ....  322

ORBITAL ENERGIES
----------------

  NO   OCC          E(Eh)            E(eV)
   0   2.0000     -88.968776     -2420.9635
   1   2.0000     -88.967057     -2420.9167
   2   2.0000     -10.333419      -281.1866
   3   2.0000     -10.332292      -281.1560
   4   2.0000     -10.312673      -280.6221
   5   2.0000     -10.311962      -280.6027
   6   2.0000     -10.309245      -280.5288
   7   2.0000     -10.302329      -280.3406
   8   2.0000     -10.301086      -280.3068
   9   2.0000     -10.296918      -280.1934
  10   2.0000     -10.293514      -280.1007
  11   2.0000     -10.290736      -280.0252
  12   2.0000     -10.290282      -280.0128
  13   2.0000     -10.280757      -279.7536
  14   2.0000     -10.272742      -279.5355
  15   2.0000     -10.270164      -279.4654
  16   2.0000      -8.083241      -219.9562
  17   2.0000      -8.081136      -219.8989
  18   2.0000      -6.041847      -164.4070
  19   2.0000      -6.039670      -164.3478
  20   2.0000      -6.038023      -164.3030
  21   2.0000      -6.035754      -164.2412
  22   2.0000      -6.033681      -164.1848
  23   2.0000      -6.031902      -164.1364
  24   2.0000      -1.005480       -27.3605
  25   2.0000      -0.981781       -26.7156
  26   2.0000      -0.911454       -24.8019
  27   2.0000      -0.904643       -24.6166
  28   2.0000      -0.869205       -23.6523
  29   2.0000      -0.853478       -23.2243
  30   2.0000      -0.843956       -22.9652
  31   2.0000      -0.814875       -22.1739
  32   2.0000      -0.787741       -21.4355
  33   2.0000      -0.773162       -21.0388
  34   2.0000      -0.714282       -19.4366
  35   2.0000      -0.702727       -19.1222
  36   2.0000      -0.690596       -18.7921
  37   2.0000      -0.658827       -17.9276
  38   2.0000      -0.636286       -17.3142
  39   2.0000      -0.618670       -16.8349
  40   2.0000      -0.589225       -16.0336
  41   2.0000      -0.570923       -15.5356
  42   2.0000      -0.561021       -15.2662
  43   2.0000      -0.556746       -15.1498
  44   2.0000      -0.544816       -14.8252
  45   2.0000      -0.521938       -14.2027
  46   2.0000      -0.514386       -13.9972
  47   2.0000      -0.507198       -13.8016
  48   2.0000      -0.502756       -13.6807
  49   2.0000      -0.496713       -13.5163
  50   2.0000      -0.491818       -13.3831
  51   2.0000      -0.484615       -13.1871
  52   2.0000      -0.471861       -12.8400
  53   2.0000      -0.467863       -12.7312
  54   2.0000      -0.461849       -12.5675
  55   2.0000      -0.449001       -12.2179
  56   2.0000      -0.446023       -12.1369
  57   2.0000      -0.443609       -12.0712
  58   2.0000      -0.434574       -11.8254
  59   2.0000      -0.430080       -11.7031
  60   2.0000      -0.424450       -11.5499
  61   2.0000      -0.413559       -11.2535
  62   2.0000      -0.393295       -10.7021
  63   2.0000      -0.359246        -9.7756
  64   2.0000      -0.339313        -9.2332
  65   2.0000      -0.328946        -8.9511
  66   2.0000      -0.275541        -7.4978
  67   0.0000       0.015238         0.4147
  68   0.0000       0.081723         2.2238
  69   0.0000       0.094332         2.5669
  70   0.0000       0.119428         3.2498
  71   0.0000       0.129162         3.5147

MULLIKEN ATOMIC CHARGES
-----------------------
   0 S :    0.096359
   1 C :   -0.096335
   2 C :   -0.090243
   3 C :   -0.002097
   4 C :   -0.131761
   5 H :    0.010121
   6 C :    0.066709
   7 H :    0.005317
   8 H :    0.037994
   9 C :   -0.080237
  10 H :    0.036898
  11 H :    0.029087
  12 C :   -0.013006
  13 H :    0.016778
  14 H :    0.015184
  15 H :    0.030533
  16 S :    0.105366
  17 C :   -0.094022
  18 C :   -0.034147
  19 C :   -0.070671
  20 C :   -0.106289
  21 H :    0.024764
  22 C :    0.058009
  23 H :    0.049676
  24 H :    0.017421
  25 C :   -0.083959
  26 H :    0.024062
  27 H :   -0.001492
  28 C :   -0.010182
  29 H :    0.033114
  30 H :    0.015078
  31 H :    0.046718
  32 H :    0.034614
  33 H :    0.060638
Sum of atomic charges:   -0.0000000

LOEWDIN ATOMIC CHARGES
----------------------
   0 S :    0.391261
   1 C :   -0.200559
   2 C :   -0.064019
   3 C :   -0.072920
   4 C :   -0.174849
   5 H :    0.032433
   6 C :   -0.026653
   7 H :    0.020385
   8 H :    0.040066
   9 C :   -0.031554
  10 H :    0.027636
  11 H :    0.020656
  12 C :   -0.058538
  13 H :    0.018585
  14 H :    0.015304
  15 H :    0.028392
  16 S :    0.389561
  17 C :   -0.191003
  18 C :   -0.079559
  19 C :   -0.053583
  20 C :   -0.182084
  21 H :    0.037697
  22 C :   -0.025333
  23 H :    0.032301
  24 H :    0.030619
  25 C :   -0.046778
  26 H :    0.024932
  27 H :    0.009802
  28 C :   -0.055843
  29 H :    0.027260
  30 H :    0.009349
  31 H :    0.046362
  32 H :    0.022837
  33 H :    0.037836

  Mayer bond orders larger than 0.100000
B(  0-S ,  1-C ) :   1.1508 B(  0-S ,  4-C ) :   1.1314 B(  1-C ,  2-C ) :   1.5867
B(  1-C ,  4-C ) :   0.1055 B(  1-C , 32-H ) :   0.9659 B(  2-C ,  3-C ) :   1.2708
B(  2-C ,  6-C ) :   1.0249 B(  3-C ,  4-C ) :   1.5670 B(  3-C ,  5-H ) :   0.9732
B(  4-C , 20-C ) :   1.1061 B(  6-C ,  7-H ) :   0.9430 B(  6-C ,  8-H ) :   0.9431
B(  6-C ,  9-C ) :   1.0566 B(  9-C , 10-H ) :   0.9573 B(  9-C , 11-H ) :   0.9609
B(  9-C , 12-C ) :   1.0736 B( 12-C , 13-H ) :   0.9759 B( 12-C , 14-H ) :   0.9760
B( 12-C , 15-H ) :   0.9749 B( 16-S , 17-C ) :   1.1322 B( 16-S , 20-C ) :   1.1212
B( 17-C , 18-C ) :   1.6691 B( 17-C , 33-H ) :   0.9566 B( 18-C , 19-C ) :   1.2227
B( 18-C , 21-H ) :   0.9773 B( 19-C , 20-C ) :   1.5884 B( 19-C , 22-C ) :   1.0314
B( 22-C , 23-H ) :   0.9402 B( 22-C , 24-H ) :   0.9358 B( 22-C , 25-C ) :   1.0687
B( 25-C , 26-H ) :   0.9521 B( 25-C , 27-H ) :   0.9573 B( 25-C , 28-C ) :   1.0607
B( 28-C , 29-H ) :   0.9748 B( 28-C , 30-H ) :   0.9815 B( 28-C , 31-H ) :   0.9757

Dispersion correction           -0.014472120
FINAL SINGLE POINT ENERGY     -1339.856202475476

DIPOLE MOMENT
-------------
                                X             Y             Z
Electronic contribution:     -2.97530      18.01309     -23.91765
Nuclear contribution   :      3.09509     -18.62257      24.30505
                        -----------------------------------------
Total Dipole Moment    :      0.11979      -0.60948       0.38740
                        -----------------------------------------
Magnitude (a.u.)       :      0.73205
Magnitude (Debye)      :      1.86072

Rotational constants in cm-1:     0.020430     0.008502     0.006586
Rotational constants in MHz :   612.484913   254.875743   197.432119

                             ****ORCA TERMINATED NORMALLY****
TOTAL RUN TIME: 0 days 0 hours 0 minutes 29 seconds 17 msec
