                         Program Version 4.2.1 -  RELEASE  -
|  1> ! wB97X-D3 SP def2-SVP
|  2> %pal
|  3> nprocs 16
|  4> end
|  5>
|  6> * xyz 0 1
|  7> S 	 28.3228 	 8.11427 	 76.8265
|  8> C 	 30.0277 	 8.39672 	 76.8264
|  9> C 	 30.7388 	 7.29776 	 77.2227
| 10> C 	 29.9533 	 6.1398 	 77.1367
| 11> C 	 28.6275 	 6.38955 	 77.0326
| 12> H 	 30.2134 	 5.1442 	 77.2456
| 13> C 	 32.2448 	 7.22239 	 77.5035
| 14> H 	 32.4225 	 6.95616 	 78.5654
| 15> H 	 32.591 	 8.22221 	 77.2189
| 16> C 	 33.0535 	 6.22913 	 76.7295
| 17> H 	 34.1072 	 6.31755 	 76.9824
| 18> H 	 32.7001 	 5.26135 	 77.0229
| 19> C 	 32.8338 	 6.31478 	 75.195
| 20> H 	 33.475 	 5.54961 	 74.8092
| 21> H 	 31.8049 	 6.14635 	 74.9451
| 22> H 	 33.0608 	 7.33716 	 74.7241
| 23> S 	 26.7238 	 5.06281 	 75.5306
| 24> C 	 25.7967 	 3.77242 	 76.3346
| 25> C 	 26.0402 	 3.65963 	 77.7028
| 26> C 	 27.1614 	 4.57644 	 78.0592
| 27> C 	 27.5299 	 5.43446 	 77.0849
| 28> H 	 25.4222 	 2.93386 	 78.2527
| 29> C 	 27.7308 	 4.48241 	 79.4875
| 30> H 	 28.7415 	 5.04065 	 79.379
| 31> H 	 28.0465 	 3.53893 	 79.8525
| 32> C 	 26.8413 	 5.06449 	 80.6239
| 33> H 	 26.0736 	 4.34489 	 80.9155
| 34> H 	 26.2483 	 5.95565 	 80.3571
| 35> C 	 27.486 	 5.35094 	 81.9866
| 36> H 	 27.9858 	 6.34538 	 82.1143
| 37> H 	 28.2959 	 4.6611 	 82.0875
| 38> H 	 26.736 	 5.25 	 82.7821
| 39> H 	 30.3969 	 9.3198 	 76.828
| 40> H 	 25.0946 	 3.06921 	 75.9192
| 41> *
| 42>
| 43>                          ****END OF INPUT****

CARTESIAN COORDINATES (ANGSTROEM)
---------------------------------
  S     28.322800    8.114270   76.826500
  C     30.027700    8.396720   76.826400
  C     30.738800    7.297760   77.222700
  C     29.953300    6.139800   77.136700
  C     28.627500    6.389550   77.032600
  H     30.213400    5.144200   77.245600
  C     32.244800    7.222390   77.503500
  H     32.422500    6.956160   78.565400
  H     32.591000    8.222210   77.218900
  C     33.053500    6.229130   76.729500
  H     34.107200    6.317550   76.982400
  H     32.700100    5.261350   77.022900
  C     32.833800    6.314780   75.195000
  H     33.475000    5.549610   74.809200
  H     31.804900    6.146350   74.945100
  H     33.060800    7.337160   74.724100
  S     26.723800    5.062810   75.530600
  C     25.796700    3.772420   76.334600
  C     26.040200    3.659630   77.702800
  C     27.161400    4.576440   78.059200
  C     27.529900    5.434460   77.084900
  H     25.422200    2.933860   78.252700
  C     27.730800    4.482410   79.487500
  H     28.741500    5.040650   79.379000
  H     28.046500    3.538930   79.852500
  C     26.841300    5.064490   80.623900
  H     26.073600    4.344890   80.915500
  H     26.248300    5.955650   80.357100
  C     27.486000    5.350940   81.986600
  H     27.985800    6.345380   82.114300
  H     28.295900    4.661100   82.087500
  H     26.736000    5.250000   82.782100
  H     30.396900    9.319800   76.828000
  H     25.094600    3.069210   75.919200

 Total Charge           Charge          ....    0
 Multiplicity           Mult            ....    1
 Number of Electrons    NEL             ....  134
 Basis Dimension        Dim             ....  322

ORBITAL ENERGIES
----------------

  NO   OCC          E(Eh)            E(eV)
   0   2.0000     -88.966040     -2420.8890
   1   2.0000     -88.964108     -2420.8364
   2   2.0000     -10.326910      -281.0095
   3   2.0000     -10.324984      -280.9571
   4   2.0000     -10.321162      -280.8531
   5   2.0000     -10.313080      -280.6332
   6   2.0000     -10.303045      -280.3601
   7   2.0000     -10.302074      -280.3337
   8   2.0000     -10.298276      -280.2303
   9   2.0000     -10.298059      -280.2244
  10   2.0000     -10.291822      -280.0547
  11   2.0000     -10.285931      -279.8944
  12   2.0000     -10.284517      -279.8559
  13   2.0000     -10.283197      -279.8200
  14   2.0000     -10.277666      -279.6695
  15   2.0000     -10.275724      -279.6167
  16   2.0000      -8.079779      -219.8620
  17   2.0000      -8.079398      -219.8516
  18   2.0000      -6.038552      -164.3173
  19   2.0000      -6.037759      -164.2958
  20   2.0000      -6.034563      -164.2088
  21   2.0000      -6.033988      -164.1931
  22   2.0000      -6.030164      -164.0891
  23   2.0000      -6.030117      -164.0878
  24   2.0000      -1.010169       -27.4881
  25   2.0000      -0.981331       -26.7034
  26   2.0000      -0.915205       -24.9040
  27   2.0000      -0.900033       -24.4911
  28   2.0000      -0.872988       -23.7552
  29   2.0000      -0.849942       -23.1281
  30   2.0000      -0.844728       -22.9862
  31   2.0000      -0.818784       -22.2803
  32   2.0000      -0.783780       -21.3277
  33   2.0000      -0.773013       -21.0348
  34   2.0000      -0.708501       -19.2793
  35   2.0000      -0.695589       -18.9280
  36   2.0000      -0.692666       -18.8484
  37   2.0000      -0.658264       -17.9123
  38   2.0000      -0.653867       -17.7926
  39   2.0000      -0.624187       -16.9850
  40   2.0000      -0.592417       -16.1205
  41   2.0000      -0.566926       -15.4268
  42   2.0000      -0.557062       -15.1584
  43   2.0000      -0.551441       -15.0055
  44   2.0000      -0.547953       -14.9106
  45   2.0000      -0.527170       -14.3450
  46   2.0000      -0.523578       -14.2473
  47   2.0000      -0.516890       -14.0653
  48   2.0000      -0.503668       -13.7055
  49   2.0000      -0.493837       -13.4380
  50   2.0000      -0.487836       -13.2747
  51   2.0000      -0.481852       -13.1119
  52   2.0000      -0.469520       -12.7763
  53   2.0000      -0.464843       -12.6490
  54   2.0000      -0.457241       -12.4422
  55   2.0000      -0.447755       -12.1840
  56   2.0000      -0.441209       -12.0059
  57   2.0000      -0.435526       -11.8513
  58   2.0000      -0.432288       -11.7632
  59   2.0000      -0.424159       -11.5419
  60   2.0000      -0.417735       -11.3671
  61   2.0000      -0.412179       -11.2160
  62   2.0000      -0.403527       -10.9805
  63   2.0000      -0.342038        -9.3073
  64   2.0000      -0.331365        -9.0169
  65   2.0000      -0.327617        -8.9149
  66   2.0000      -0.306756        -8.3473
  67   0.0000       0.041128         1.1192
  68   0.0000       0.060905         1.6573
  69   0.0000       0.110016         2.9937
  70   0.0000       0.115638         3.1467
  71   0.0000       0.123732         3.3669

MULLIKEN ATOMIC CHARGES
-----------------------
   0 S :    0.111095
   1 C :   -0.056465
   2 C :   -0.113714
   3 C :    0.074618
   4 C :   -0.187112
   5 H :   -0.016139
   6 C :    0.099028
   7 H :    0.044092
   8 H :    0.009751
   9 C :   -0.082283
  10 H :    0.036031
  11 H :    0.018018
  12 C :   -0.058585
  13 H :    0.034383
  14 H :    0.038490
  15 H :    0.035862
  16 S :    0.102364
  17 C :   -0.086248
  18 C :   -0.044153
  19 C :   -0.025715
  20 C :   -0.139815
  21 H :    0.037921
  22 C :    0.065259
  23 H :    0.030430
  24 H :    0.019265
  25 C :   -0.088374
  26 H :    0.023585
  27 H :    0.036404
  28 C :   -0.055387
  29 H :    0.039349
  30 H :    0.014487
  31 H :    0.038085
  32 H :   -0.004443
  33 H :    0.049916
Sum of atomic charges:   -0.0000000

LOEWDIN ATOMIC CHARGES
----------------------
   0 S :    0.407389
   1 C :   -0.177264
   2 C :   -0.058841
   3 C :   -0.053530
   4 C :   -0.185427
   5 H :    0.021395
   6 C :   -0.030413
   7 H :    0.037866
   8 H :    0.026677
   9 C :   -0.040632
  10 H :    0.027482
  11 H :    0.018087
  12 C :   -0.065036
  13 H :    0.023555
  14 H :    0.023160
  15 H :    0.030775
  16 S :    0.372563
  17 C :   -0.170004
  18 C :   -0.072611
  19 C :   -0.043036
  20 C :   -0.193654
  21 H :    0.039732
  22 C :   -0.036708
  23 H :    0.037187
  24 H :    0.023701
  25 C :   -0.047453
  26 H :    0.023747
  27 H :    0.026816
  28 C :   -0.066529
  29 H :    0.028359
  30 H :    0.017651
  31 H :    0.028652
  32 H :   -0.001888
  33 H :    0.028230

  Mayer bond orders larger than 0.100000
B(  0-S ,  1-C ) :   1.1461 B(  0-S ,  4-C ) :   1.1476 B(  1-C ,  2-C ) :   1.6300
B(  1-C , 32-H ) :   0.9738 B(  2-C ,  3-C ) :   1.1975 B(  2-C ,  6-C ) :   1.0192
B(  3-C ,  4-C ) :   1.6215 B(  3-C ,  5-H ) :   1.0028 B(  4-C , 20-C ) :   1.0013
B(  6-C ,  7-H ) :   0.9348 B(  6-C ,  8-H ) :   0.9385 B(  6-C ,  9-C ) :   1.0860
B(  9-C , 10-H ) :   0.9551 B(  9-C , 11-H ) :   0.9455 B(  9-C , 12-C ) :   1.0788
B( 12-C , 13-H ) :   0.9751 B( 12-C , 14-H ) :   0.9707 B( 12-C , 15-H ) :   0.9767
B( 16-S , 17-C ) :   1.1319 B( 16-S , 20-C ) :   1.0950 B( 17-C , 18-C ) :   1.6925
B( 17-C , 33-H ) :   0.9626 B( 18-C , 19-C ) :   1.1437 B( 18-C , 21-H ) :   0.9860
B( 19-C , 20-C ) :   1.7058 B( 19-C , 22-C ) :   1.0433 B( 22-C , 23-H ) :   0.9362
B( 22-C , 24-H ) :   0.9345 B( 22-C , 25-C ) :   1.0523 B( 25-C , 26-H ) :   0.9571
B( 25-C , 27-H ) :   0.9601 B( 25-C , 28-C ) :   1.0789 B( 28-C , 29-H ) :   0.9757
B( 28-C , 30-H ) :   0.9740 B( 28-C , 31-H ) :   0.9777

Dispersion correction           -0.014350520
FINAL SINGLE POINT ENERGY     -1339.854349274503

DIPOLE MOMENT
-------------
                                X             Y             Z
Electronic contribution:    -16.00964       4.94094     -15.17528
Nuclear contribution   :     16.33286      -5.35856      15.65970
                        -----------------------------------------
Total Dipole Moment    :      0.32323      -0.41762       0.48443
                        -----------------------------------------
Magnitude (a.u.)       :      0.71663
Magnitude (Debye)      :      1.82152

Rotational constants in cm-1:     0.017084     0.008873     0.007398
Rotational constants in MHz :   512.154737   266.009925   221.775892

                             ****ORCA TERMINATED NORMALLY****
TOTAL RUN TIME: 0 days 0 hours 0 minutes 34 seconds 855 msec
