                         Program Version 4.2.1 -  RELEASE  -
|  1> ! wB97X-D3 SP def2-SVP
|  2> %pal
|  3> nprocs 16
|  4> end
|  5>
|  6> * xyz 0 1
|  7> S 	 -36.5946 	 75.8001 	 153.09
|  8> C 	 -35.1173 	 76.7743 	 153.234
|  9> C 	 -34.1007 	 76.0725 	 152.659
| 10> C 	 -34.4825 	 74.8049 	 152.126
| 11> C 	 -35.8035 	 74.4581 	 152.257
| 12> H 	 -33.8091 	 74.0908 	 151.742
| 13> C 	 -32.682 	 76.5174 	 152.65
| 14> H 	 -32.7865 	 77.6079 	 152.773
| 15> H 	 -32.2239 	 76.3812 	 151.654
| 16> C 	 -31.9163 	 75.9023 	 153.854
| 17> H 	 -32.2909 	 76.3981 	 154.726
| 18> H 	 -32.1751 	 74.8175 	 153.94
| 19> C 	 -30.3873 	 76.1337 	 153.926
| 20> H 	 -30.1187 	 77.1782 	 154.149
| 21> H 	 -29.7817 	 75.4926 	 154.617
| 22> H 	 -29.9818 	 75.7983 	 152.983
| 23> S 	 -38.0844 	 73.8006 	 151.079
| 24> C 	 -38.4757 	 72.1389 	 150.817
| 25> C 	 -37.5229 	 71.2659 	 151.22
| 26> C 	 -36.4236 	 71.9368 	 151.794
| 27> C 	 -36.5664 	 73.3083 	 151.748
| 28> H 	 -37.6017 	 70.2174 	 151.125
| 29> C 	 -35.3851 	 71.0688 	 152.496
| 30> H 	 -34.6511 	 71.7023 	 152.992
| 31> H 	 -34.7043 	 70.4556 	 151.846
| 32> C 	 -36.0827 	 70.194 	 153.623
| 33> H 	 -35.3599 	 69.5453 	 154.056
| 34> H 	 -36.8962 	 69.6263 	 153.162
| 35> C 	 -36.6857 	 70.9791 	 154.781
| 36> H 	 -35.9821 	 71.4985 	 155.479
| 37> H 	 -37.311 	 70.2579 	 155.313
| 38> H 	 -37.2798 	 71.7801 	 154.425
| 39> H 	 -34.8505 	 77.7401 	 153.656
| 40> H 	 -39.5366 	 71.7955 	 150.495
| 41> *
| 42>
| 43>                          ****END OF INPUT****

CARTESIAN COORDINATES (ANGSTROEM)
---------------------------------
  S    -36.594600   75.800100  153.090000
  C    -35.117300   76.774300  153.234000
  C    -34.100700   76.072500  152.659000
  C    -34.482500   74.804900  152.126000
  C    -35.803500   74.458100  152.257000
  H    -33.809100   74.090800  151.742000
  C    -32.682000   76.517400  152.650000
  H    -32.786500   77.607900  152.773000
  H    -32.223900   76.381200  151.654000
  C    -31.916300   75.902300  153.854000
  H    -32.290900   76.398100  154.726000
  H    -32.175100   74.817500  153.940000
  C    -30.387300   76.133700  153.926000
  H    -30.118700   77.178200  154.149000
  H    -29.781700   75.492600  154.617000
  H    -29.981800   75.798300  152.983000
  S    -38.084400   73.800600  151.079000
  C    -38.475700   72.138900  150.817000
  C    -37.522900   71.265900  151.220000
  C    -36.423600   71.936800  151.794000
  C    -36.566400   73.308300  151.748000
  H    -37.601700   70.217400  151.125000
  C    -35.385100   71.068800  152.496000
  H    -34.651100   71.702300  152.992000
  H    -34.704300   70.455600  151.846000
  C    -36.082700   70.194000  153.623000
  H    -35.359900   69.545300  154.056000
  H    -36.896200   69.626300  153.162000
  C    -36.685700   70.979100  154.781000
  H    -35.982100   71.498500  155.479000
  H    -37.311000   70.257900  155.313000
  H    -37.279800   71.780100  154.425000
  H    -34.850500   77.740100  153.656000
  H    -39.536600   71.795500  150.495000

 Total Charge           Charge          ....    0
 Multiplicity           Mult            ....    1
 Number of Electrons    NEL             ....  134
 Basis Dimension        Dim             ....  322

ORBITAL ENERGIES
----------------

  NO   OCC          E(Eh)            E(eV)
   0   2.0000     -88.967511     -2420.9291
   1   2.0000     -88.965221     -2420.8668
   2   2.0000     -10.332338      -281.1572
   3   2.0000     -10.329294      -281.0744
   4   2.0000     -10.320316      -280.8301
   5   2.0000     -10.314087      -280.6606
   6   2.0000     -10.304807      -280.4080
   7   2.0000     -10.298975      -280.2494
   8   2.0000     -10.294047      -280.1153
   9   2.0000     -10.293853      -280.1100
  10   2.0000     -10.291131      -280.0359
  11   2.0000     -10.287917      -279.9485
  12   2.0000     -10.287296      -279.9316
  13   2.0000     -10.286471      -279.9091
  14   2.0000     -10.282306      -279.7958
  15   2.0000     -10.271585      -279.5040
  16   2.0000      -8.083317      -219.9582
  17   2.0000      -8.079015      -219.8412
  18   2.0000      -6.041706      -164.4032
  19   2.0000      -6.037825      -164.2976
  20   2.0000      -6.037735      -164.2951
  21   2.0000      -6.034042      -164.1946
  22   2.0000      -6.033551      -164.1813
  23   2.0000      -6.029556      -164.0725
  24   2.0000      -1.014451       -27.6046
  25   2.0000      -0.989427       -26.9237
  26   2.0000      -0.913113       -24.8471
  27   2.0000      -0.906372       -24.6636
  28   2.0000      -0.871310       -23.7095
  29   2.0000      -0.851967       -23.1832
  30   2.0000      -0.842178       -22.9168
  31   2.0000      -0.819835       -22.3088
  32   2.0000      -0.782131       -21.2829
  33   2.0000      -0.771667       -20.9981
  34   2.0000      -0.709225       -19.2990
  35   2.0000      -0.699490       -19.0341
  36   2.0000      -0.693034       -18.8584
  37   2.0000      -0.665850       -18.1187
  38   2.0000      -0.638991       -17.3878
  39   2.0000      -0.621726       -16.9180
  40   2.0000      -0.601134       -16.3577
  41   2.0000      -0.570534       -15.5250
  42   2.0000      -0.560359       -15.2481
  43   2.0000      -0.549570       -14.9546
  44   2.0000      -0.539068       -14.6688
  45   2.0000      -0.522755       -14.2249
  46   2.0000      -0.515863       -14.0373
  47   2.0000      -0.511880       -13.9290
  48   2.0000      -0.505255       -13.7487
  49   2.0000      -0.500785       -13.6271
  50   2.0000      -0.494536       -13.4570
  51   2.0000      -0.484091       -13.1728
  52   2.0000      -0.465473       -12.6662
  53   2.0000      -0.463789       -12.6203
  54   2.0000      -0.462744       -12.5919
  55   2.0000      -0.450763       -12.2659
  56   2.0000      -0.443515       -12.0686
  57   2.0000      -0.432397       -11.7661
  58   2.0000      -0.424896       -11.5620
  59   2.0000      -0.421774       -11.4771
  60   2.0000      -0.421390       -11.4666
  61   2.0000      -0.420440       -11.4408
  62   2.0000      -0.412702       -11.2302
  63   2.0000      -0.352676        -9.5968
  64   2.0000      -0.336249        -9.1498
  65   2.0000      -0.327565        -8.9135
  66   2.0000      -0.295374        -8.0375
  67   0.0000       0.030053         0.8178
  68   0.0000       0.075161         2.0452
  69   0.0000       0.109289         2.9739
  70   0.0000       0.122815         3.3420
  71   0.0000       0.130048         3.5388

MULLIKEN ATOMIC CHARGES
-----------------------
   0 S :    0.093425
   1 C :   -0.091284
   2 C :   -0.134361
   3 C :    0.058467
   4 C :   -0.132261
   5 H :   -0.012413
   6 C :    0.058306
   7 H :    0.014239
   8 H :    0.036811
   9 C :   -0.067427
  10 H :    0.019837
  11 H :    0.039268
  12 C :   -0.045270
  13 H :    0.039398
  14 H :    0.036135
  15 H :    0.018761
  16 S :    0.115095
  17 C :   -0.109164
  18 C :   -0.023450
  19 C :   -0.030959
  20 C :   -0.160472
  21 H :    0.009561
  22 C :    0.063897
  23 H :    0.008789
  24 H :    0.044343
  25 C :   -0.084525
  26 H :    0.027052
  27 H :    0.030809
  28 C :   -0.048362
  29 H :    0.036913
  30 H :    0.035494
  31 H :    0.030918
  32 H :    0.040408
  33 H :    0.082019
Sum of atomic charges:   -0.0000000

LOEWDIN ATOMIC CHARGES
----------------------
   0 S :    0.382996
   1 C :   -0.196002
   2 C :   -0.068274
   3 C :   -0.065411
   4 C :   -0.184712
   5 H :    0.021763
   6 C :   -0.034267
   7 H :    0.029634
   8 H :    0.031884
   9 C :   -0.039368
  10 H :    0.022192
  11 H :    0.029487
  12 C :   -0.074113
  13 H :    0.027093
  14 H :    0.032479
  15 H :    0.019944
  16 S :    0.427453
  17 C :   -0.197594
  18 C :   -0.067848
  19 C :   -0.056820
  20 C :   -0.201393
  21 H :    0.027874
  22 C :   -0.034910
  23 H :    0.024590
  24 H :    0.036650
  25 C :   -0.033230
  26 H :    0.020244
  27 H :    0.022039
  28 C :   -0.064672
  29 H :    0.029816
  30 H :    0.029473
  31 H :    0.020344
  32 H :    0.037176
  33 H :    0.045483

  Mayer bond orders larger than 0.100000
B(  0-S ,  1-C ) :   1.1095 B(  0-S ,  4-C ) :   1.1365 B(  1-C ,  2-C ) :   1.6396
B(  1-C , 32-H ) :   0.9603 B(  2-C ,  3-C ) :   1.2280 B(  2-C ,  6-C ) :   1.0361
B(  3-C ,  4-C ) :   1.5915 B(  3-C ,  5-H ) :   1.0042 B(  4-C , 20-C ) :   1.0236
B(  6-C ,  7-H ) :   0.9357 B(  6-C ,  8-H ) :   0.9425 B(  6-C ,  9-C ) :   1.0451
B(  9-C , 10-H ) :   0.9549 B(  9-C , 11-H ) :   0.9629 B(  9-C , 12-C ) :   1.0737
B( 12-C , 13-H ) :   0.9768 B( 12-C , 14-H ) :   0.9746 B( 12-C , 15-H ) :   0.9750
B( 16-S , 17-C ) :   1.1561 B( 16-S , 20-C ) :   1.1500 B( 17-C , 18-C ) :   1.6159
B( 17-C , 33-H ) :   0.9517 B( 18-C , 19-C ) :   1.2359 B( 18-C , 21-H ) :   0.9975
B( 19-C , 20-C ) :   1.6029 B( 19-C , 22-C ) :   1.0420 B( 22-C , 23-H ) :   0.9355
B( 22-C , 24-H ) :   0.9410 B( 22-C , 25-C ) :   1.0587 B( 25-C , 26-H ) :   0.9567
B( 25-C , 27-H ) :   0.9602 B( 25-C , 28-C ) :   1.0731 B( 28-C , 29-H ) :   0.9743
B( 28-C , 30-H ) :   0.9728 B( 28-C , 31-H ) :   0.9759

Dispersion correction           -0.014305709
FINAL SINGLE POINT ENERGY     -1339.874175831173

DIPOLE MOMENT
-------------
                                X             Y             Z
Electronic contribution:    -22.08405       7.87859     -12.20733
Nuclear contribution   :     22.55277      -8.27764      12.35264
                        -----------------------------------------
Total Dipole Moment    :      0.46872      -0.39905       0.14531
                        -----------------------------------------
Magnitude (a.u.)       :      0.63250
Magnitude (Debye)      :      1.60768

Rotational constants in cm-1:     0.020770     0.008119     0.006677
Rotational constants in MHz :   622.680009   243.390049   200.179811

                             ****ORCA TERMINATED NORMALLY****
TOTAL RUN TIME: 0 days 0 hours 0 minutes 34 seconds 542 msec
