                         Program Version 4.2.1 -  RELEASE  -
|  1> ! wB97X-D3 SP def2-SVP
|  2> %pal
|  3> nprocs 16
|  4> end
|  5>
|  6> * xyz 0 1
|  7> S 	 10.0108 	 -9.75085 	 95.4786
|  8> C 	 11.4233 	 -9.84539 	 96.5739
|  9> C 	 11.0195 	 -9.54341 	 97.865
| 10> C 	 9.63003 	 -9.21273 	 97.9715
| 11> C 	 8.9257 	 -9.35618 	 96.7969
| 12> H 	 9.12461 	 -8.92975 	 98.8871
| 13> C 	 11.9711 	 -9.64908 	 99.0942
| 14> H 	 11.8176 	 -8.7354 	 99.6797
| 15> H 	 13.0038 	 -9.62709 	 98.7379
| 16> C 	 11.7457 	 -10.8443 	 99.9954
| 17> H 	 12.5117 	 -10.9086 	 100.821
| 18> H 	 10.8466 	 -10.6908 	 100.497
| 19> C 	 11.8444 	 -12.1865 	 99.276
| 20> H 	 12.7621 	 -12.2088 	 98.7145
| 21> H 	 11.8138 	 -12.9906 	 100.005
| 22> H 	 10.9813 	 -12.3364 	 98.568
| 23> S 	 7.12271 	 -7.85335 	 95.3618
| 24> C 	 5.39171 	 -8.22853 	 95.3586
| 25> C 	 5.14671 	 -8.88568 	 96.4771
| 26> C 	 6.31771 	 -9.36319 	 97.1627
| 27> C 	 7.51704 	 -9.08805 	 96.5087
| 28> H 	 4.07374 	 -9.04902 	 96.7567
| 29> C 	 6.19571 	 -10.2986 	 98.3361
| 30> H 	 6.95283 	 -11.0759 	 98.4302
| 31> H 	 5.39252 	 -10.9351 	 98.0847
| 32> C 	 5.83789 	 -9.59619 	 99.6653
| 33> H 	 4.96391 	 -8.81777 	 99.6138
| 34> H 	 6.74119 	 -9.07641 	 100.015
| 35> C 	 5.44786 	 -10.7406 	 100.685
| 36> H 	 4.94867 	 -11.6289 	 100.217
| 37> H 	 4.7289 	 -10.3489 	 101.494
| 38> H 	 6.33767 	 -11.1113 	 101.244
| 39> H 	 12.3633 	 -10.3165 	 96.3424
| 40> H 	 4.61472 	 -7.91835 	 94.7153
| 41> *
| 42>
| 43>                          ****END OF INPUT****

CARTESIAN COORDINATES (ANGSTROEM)
---------------------------------
  S     10.010800   -9.750850   95.478600
  C     11.423300   -9.845390   96.573900
  C     11.019500   -9.543410   97.865000
  C      9.630030   -9.212730   97.971500
  C      8.925700   -9.356180   96.796900
  H      9.124610   -8.929750   98.887100
  C     11.971100   -9.649080   99.094200
  H     11.817600   -8.735400   99.679700
  H     13.003800   -9.627090   98.737900
  C     11.745700  -10.844300   99.995400
  H     12.511700  -10.908600  100.821000
  H     10.846600  -10.690800  100.497000
  C     11.844400  -12.186500   99.276000
  H     12.762100  -12.208800   98.714500
  H     11.813800  -12.990600  100.005000
  H     10.981300  -12.336400   98.568000
  S      7.122710   -7.853350   95.361800
  C      5.391710   -8.228530   95.358600
  C      5.146710   -8.885680   96.477100
  C      6.317710   -9.363190   97.162700
  C      7.517040   -9.088050   96.508700
  H      4.073740   -9.049020   96.756700
  C      6.195710  -10.298600   98.336100
  H      6.952830  -11.075900   98.430200
  H      5.392520  -10.935100   98.084700
  C      5.837890   -9.596190   99.665300
  H      4.963910   -8.817770   99.613800
  H      6.741190   -9.076410  100.015000
  C      5.447860  -10.740600  100.685000
  H      4.948670  -11.628900  100.217000
  H      4.728900  -10.348900  101.494000
  H      6.337670  -11.111300  101.244000
  H     12.363300  -10.316500   96.342400
  H      4.614720   -7.918350   94.715300

 Total Charge           Charge          ....    0
 Multiplicity           Mult            ....    1
 Number of Electrons    NEL             ....  134
 Basis Dimension        Dim             ....  322

ORBITAL ENERGIES
----------------

  NO   OCC          E(Eh)            E(eV)
   0   2.0000     -88.967187     -2420.9202
   1   2.0000     -88.955698     -2420.6076
   2   2.0000     -10.335370      -281.2397
   3   2.0000     -10.327212      -281.0177
   4   2.0000     -10.319327      -280.8032
   5   2.0000     -10.309877      -280.5460
   6   2.0000     -10.307202      -280.4732
   7   2.0000     -10.303492      -280.3723
   8   2.0000     -10.302634      -280.3489
   9   2.0000     -10.299201      -280.2555
  10   2.0000     -10.295654      -280.1590
  11   2.0000     -10.292294      -280.0676
  12   2.0000     -10.292218      -280.0655
  13   2.0000     -10.285422      -279.8806
  14   2.0000     -10.284728      -279.8617
  15   2.0000     -10.277868      -279.6750
  16   2.0000      -8.081234      -219.9016
  17   2.0000      -8.071101      -219.6258
  18   2.0000      -6.039846      -164.3526
  19   2.0000      -6.035770      -164.2416
  20   2.0000      -6.031956      -164.1379
  21   2.0000      -6.029840      -164.0803
  22   2.0000      -6.025718      -163.9681
  23   2.0000      -6.021303      -163.8480
  24   2.0000      -1.009989       -27.4832
  25   2.0000      -0.986421       -26.8419
  26   2.0000      -0.914228       -24.8774
  27   2.0000      -0.905321       -24.6350
  28   2.0000      -0.875068       -23.8118
  29   2.0000      -0.844812       -22.9885
  30   2.0000      -0.836994       -22.7758
  31   2.0000      -0.821824       -22.3630
  32   2.0000      -0.783460       -21.3190
  33   2.0000      -0.765621       -20.8336
  34   2.0000      -0.712650       -19.3922
  35   2.0000      -0.697467       -18.9790
  36   2.0000      -0.694369       -18.8947
  37   2.0000      -0.656106       -17.8536
  38   2.0000      -0.642717       -17.4892
  39   2.0000      -0.622393       -16.9362
  40   2.0000      -0.598413       -16.2836
  41   2.0000      -0.572525       -15.5792
  42   2.0000      -0.556176       -15.1343
  43   2.0000      -0.553989       -15.0748
  44   2.0000      -0.547722       -14.9043
  45   2.0000      -0.522592       -14.2204
  46   2.0000      -0.518551       -14.1105
  47   2.0000      -0.515049       -14.0152
  48   2.0000      -0.505420       -13.7532
  49   2.0000      -0.501226       -13.6390
  50   2.0000      -0.485356       -13.2072
  51   2.0000      -0.481054       -13.0901
  52   2.0000      -0.466832       -12.7032
  53   2.0000      -0.464000       -12.6261
  54   2.0000      -0.458582       -12.4786
  55   2.0000      -0.446170       -12.1409
  56   2.0000      -0.443401       -12.0656
  57   2.0000      -0.441091       -12.0027
  58   2.0000      -0.435789       -11.8584
  59   2.0000      -0.428413       -11.6577
  60   2.0000      -0.419932       -11.4269
  61   2.0000      -0.409831       -11.1521
  62   2.0000      -0.402350       -10.9485
  63   2.0000      -0.350441        -9.5360
  64   2.0000      -0.333214        -9.0672
  65   2.0000      -0.320724        -8.7274
  66   2.0000      -0.298426        -8.1206
  67   0.0000       0.023709         0.6452
  68   0.0000       0.070774         1.9258
  69   0.0000       0.111615         3.0372
  70   0.0000       0.118663         3.2290
  71   0.0000       0.126259         3.4357

MULLIKEN ATOMIC CHARGES
-----------------------
   0 S :    0.106562
   1 C :   -0.111218
   2 C :   -0.115039
   3 C :    0.049661
   4 C :   -0.164968
   5 H :    0.007259
   6 C :    0.070435
   7 H :    0.031640
   8 H :    0.020288
   9 C :   -0.061051
  10 H :    0.033191
  11 H :    0.010722
  12 C :   -0.053274
  13 H :    0.023673
  14 H :    0.032721
  15 H :    0.050038
  16 S :    0.081096
  17 C :   -0.063828
  18 C :   -0.039222
  19 C :   -0.022173
  20 C :   -0.115944
  21 H :    0.034034
  22 C :    0.044441
  23 H :    0.028801
  24 H :    0.004178
  25 C :   -0.096875
  26 H :    0.056102
  27 H :    0.037077
  28 C :   -0.099564
  29 H :    0.041938
  30 H :    0.044981
  31 H :    0.042494
  32 H :    0.052463
  33 H :    0.039360
Sum of atomic charges:   -0.0000000

LOEWDIN ATOMIC CHARGES
----------------------
   0 S :    0.397238
   1 C :   -0.184798
   2 C :   -0.059578
   3 C :   -0.060296
   4 C :   -0.189181
   5 H :    0.031151
   6 C :   -0.028352
   7 H :    0.033537
   8 H :    0.027266
   9 C :   -0.042904
  10 H :    0.031299
  11 H :    0.012029
  12 C :   -0.063560
  13 H :    0.020731
  14 H :    0.024757
  15 H :    0.032100
  16 S :    0.388450
  17 C :   -0.167083
  18 C :   -0.076647
  19 C :   -0.059814
  20 C :   -0.201138
  21 H :    0.040715
  22 C :   -0.041483
  23 H :    0.033819
  24 H :    0.023170
  25 C :   -0.042408
  26 H :    0.036456
  27 H :    0.022357
  28 C :   -0.082351
  29 H :    0.027063
  30 H :    0.032383
  31 H :    0.028078
  32 H :    0.028869
  33 H :    0.028123

  Mayer bond orders larger than 0.100000
B(  0-S ,  1-C ) :   1.1289 B(  0-S ,  4-C ) :   1.1571 B(  1-C ,  2-C ) :   1.6206
B(  1-C ,  4-C ) :   0.1015 B(  1-C , 32-H ) :   0.9679 B(  2-C ,  3-C ) :   1.2286
B(  2-C ,  6-C ) :   1.0143 B(  3-C ,  4-C ) :   1.5763 B(  3-C ,  5-H ) :   0.9960
B(  4-C , 20-C ) :   1.0265 B(  6-C ,  7-H ) :   0.9398 B(  6-C ,  8-H ) :   0.9449
B(  6-C ,  9-C ) :   1.0795 B(  9-C , 10-H ) :   0.9545 B(  9-C , 11-H ) :   0.9539
B(  9-C , 12-C ) :   1.0745 B( 12-C , 13-H ) :   0.9761 B( 12-C , 14-H ) :   0.9746
B( 12-C , 15-H ) :   0.9724 B( 16-S , 17-C ) :   1.1221 B( 16-S , 20-C ) :   1.1363
B( 17-C , 18-C ) :   1.6555 B( 17-C , 33-H ) :   0.9743 B( 18-C , 19-C ) :   1.2109
B( 18-C , 21-H ) :   0.9809 B( 19-C , 20-C ) :   1.5997 B( 19-C , 22-C ) :   1.0453
B( 22-C , 23-H ) :   0.9459 B( 22-C , 24-H ) :   0.9391 B( 22-C , 25-C ) :   1.0379
B( 25-C , 26-H ) :   0.9636 B( 25-C , 27-H ) :   0.9575 B( 25-C , 28-C ) :   1.0535
B( 28-C , 29-H ) :   0.9774 B( 28-C , 30-H ) :   0.9780 B( 28-C , 31-H ) :   0.9770

Dispersion correction           -0.014475958
FINAL SINGLE POINT ENERGY     -1339.864537243751

DIPOLE MOMENT
-------------
                                X             Y             Z
Electronic contribution:     -1.17787      13.29435     -27.10100
Nuclear contribution   :      1.03332     -13.62009      27.83916
                        -----------------------------------------
Total Dipole Moment    :     -0.14454      -0.32574       0.73816
                        -----------------------------------------
Magnitude (a.u.)       :      0.81968
Magnitude (Debye)      :      2.08347

Rotational constants in cm-1:     0.017445     0.009614     0.006694
Rotational constants in MHz :   522.998575   288.212562   200.675198

                             ****ORCA TERMINATED NORMALLY****
TOTAL RUN TIME: 0 days 0 hours 0 minutes 34 seconds 618 msec
