                         Program Version 4.2.1 -  RELEASE  -
|  1> ! wB97X-D3 SP def2-SVP
|  2> %pal
|  3> nprocs 16
|  4> end
|  5>
|  6> * xyz 0 1
|  7> S 	 4.35804 	 -13.6404 	 63.0523
|  8> C 	 5.6096 	 -13.2768 	 64.1681
|  9> C 	 5.69469 	 -11.9235 	 64.3636
| 10> C 	 4.71088 	 -11.1804 	 63.6473
| 11> C 	 3.91536 	 -11.9973 	 62.869
| 12> H 	 4.70789 	 -10.1085 	 63.5379
| 13> C 	 6.6339 	 -11.2766 	 65.3745
| 14> H 	 7.09279 	 -10.4496 	 64.8608
| 15> H 	 7.43739 	 -11.9632 	 65.5468
| 16> C 	 6.12157 	 -11.1333 	 66.8135
| 17> H 	 5.78652 	 -12.1217 	 67.1686
| 18> H 	 6.9767 	 -11.012 	 67.4373
| 19> C 	 5.16182 	 -9.90875 	 66.9698
| 20> H 	 4.85192 	 -9.80139 	 68.0216
| 21> H 	 5.67027 	 -8.99515 	 66.6779
| 22> H 	 4.32109 	 -9.97588 	 66.2511
| 23> S 	 3.80296 	 -10.4819 	 60.6199
| 24> C 	 2.36662 	 -10.4588 	 59.6838
| 25> C 	 1.40852 	 -11.355 	 60.1401
| 26> C 	 1.78976 	 -11.9651 	 61.3848
| 27> C 	 3.06715 	 -11.5439 	 61.7808
| 28> H 	 0.507395 	 -11.4596 	 59.6332
| 29> C 	 0.82086 	 -12.8202 	 62.2096
| 30> H 	 -0.0186595 	 -12.279 	 62.4261
| 31> H 	 1.25079 	 -13.1831 	 63.1041
| 32> C 	 0.26923 	 -14.0745 	 61.5383
| 33> H 	 1.21412 	 -14.6845 	 61.303
| 34> H 	 -0.311272 	 -13.898 	 60.6634
| 35> C 	 -0.673961 	 -14.9306 	 62.5409
| 36> H 	 -0.883455 	 -15.9522 	 62.148
| 37> H 	 -1.58785 	 -14.4541 	 62.8092
| 38> H 	 -0.130862 	 -15.1593 	 63.4964
| 39> H 	 6.28385 	 -14.0288 	 64.6306
| 40> H 	 2.02326 	 -9.69412 	 59.0079
| 41> *
| 42>
| 43>                          ****END OF INPUT****

CARTESIAN COORDINATES (ANGSTROEM)
---------------------------------
  S      4.358040  -13.640400   63.052300
  C      5.609600  -13.276800   64.168100
  C      5.694690  -11.923500   64.363600
  C      4.710880  -11.180400   63.647300
  C      3.915360  -11.997300   62.869000
  H      4.707890  -10.108500   63.537900
  C      6.633900  -11.276600   65.374500
  H      7.092790  -10.449600   64.860800
  H      7.437390  -11.963200   65.546800
  C      6.121570  -11.133300   66.813500
  H      5.786520  -12.121700   67.168600
  H      6.976700  -11.012000   67.437300
  C      5.161820   -9.908750   66.969800
  H      4.851920   -9.801390   68.021600
  H      5.670270   -8.995150   66.677900
  H      4.321090   -9.975880   66.251100
  S      3.802960  -10.481900   60.619900
  C      2.366620  -10.458800   59.683800
  C      1.408520  -11.355000   60.140100
  C      1.789760  -11.965100   61.384800
  C      3.067150  -11.543900   61.780800
  H      0.507395  -11.459600   59.633200
  C      0.820860  -12.820200   62.209600
  H     -0.018659  -12.279000   62.426100
  H      1.250790  -13.183100   63.104100
  C      0.269230  -14.074500   61.538300
  H      1.214120  -14.684500   61.303000
  H     -0.311272  -13.898000   60.663400
  C     -0.673961  -14.930600   62.540900
  H     -0.883455  -15.952200   62.148000
  H     -1.587850  -14.454100   62.809200
  H     -0.130862  -15.159300   63.496400
  H      6.283850  -14.028800   64.630600
  H      2.023260   -9.694120   59.007900

 Total Charge           Charge          ....    0
 Multiplicity           Mult            ....    1
 Number of Electrons    NEL             ....  134
 Basis Dimension        Dim             ....  322

ORBITAL ENERGIES
----------------

  NO   OCC          E(Eh)            E(eV)
   0   2.0000     -88.967351     -2420.9247
   1   2.0000     -88.966164     -2420.8924
   2   2.0000     -10.323775      -280.9242
   3   2.0000     -10.323418      -280.9145
   4   2.0000     -10.312462      -280.6163
   5   2.0000     -10.311555      -280.5917
   6   2.0000     -10.305363      -280.4232
   7   2.0000     -10.296708      -280.1877
   8   2.0000     -10.292195      -280.0649
   9   2.0000     -10.291024      -280.0330
  10   2.0000     -10.289765      -279.9987
  11   2.0000     -10.287801      -279.9453
  12   2.0000     -10.285303      -279.8773
  13   2.0000     -10.284341      -279.8511
  14   2.0000     -10.279832      -279.7285
  15   2.0000     -10.279380      -279.7161
  16   2.0000      -8.082617      -219.9392
  17   2.0000      -8.081968      -219.9215
  18   2.0000      -6.041071      -164.3859
  19   2.0000      -6.040266      -164.3640
  20   2.0000      -6.036995      -164.2750
  21   2.0000      -6.036237      -164.2544
  22   2.0000      -6.033461      -164.1788
  23   2.0000      -6.032963      -164.1653
  24   2.0000      -1.013748       -27.5855
  25   2.0000      -0.989263       -26.9192
  26   2.0000      -0.910424       -24.7739
  27   2.0000      -0.906203       -24.6590
  28   2.0000      -0.870361       -23.6837
  29   2.0000      -0.848420       -23.0867
  30   2.0000      -0.841600       -22.9011
  31   2.0000      -0.813601       -22.1392
  32   2.0000      -0.784425       -21.3453
  33   2.0000      -0.771399       -20.9908
  34   2.0000      -0.706407       -19.2223
  35   2.0000      -0.702064       -19.1041
  36   2.0000      -0.692992       -18.8573
  37   2.0000      -0.663340       -18.0504
  38   2.0000      -0.641489       -17.4558
  39   2.0000      -0.614852       -16.7310
  40   2.0000      -0.597964       -16.2714
  41   2.0000      -0.572771       -15.5859
  42   2.0000      -0.570252       -15.5174
  43   2.0000      -0.546816       -14.8796
  44   2.0000      -0.537580       -14.6283
  45   2.0000      -0.520882       -14.1739
  46   2.0000      -0.514112       -13.9897
  47   2.0000      -0.508577       -13.8391
  48   2.0000      -0.502301       -13.6683
  49   2.0000      -0.497216       -13.5299
  50   2.0000      -0.489299       -13.3145
  51   2.0000      -0.485778       -13.2187
  52   2.0000      -0.469351       -12.7717
  53   2.0000      -0.465821       -12.6756
  54   2.0000      -0.459470       -12.5028
  55   2.0000      -0.450871       -12.2688
  56   2.0000      -0.449636       -12.2352
  57   2.0000      -0.440625       -11.9900
  58   2.0000      -0.430922       -11.7260
  59   2.0000      -0.425057       -11.5664
  60   2.0000      -0.417932       -11.3725
  61   2.0000      -0.413256       -11.2453
  62   2.0000      -0.409714       -11.1489
  63   2.0000      -0.339949        -9.2505
  64   2.0000      -0.334479        -9.1016
  65   2.0000      -0.330023        -8.9804
  66   2.0000      -0.295442        -8.0394
  67   0.0000       0.030850         0.8395
  68   0.0000       0.074212         2.0194
  69   0.0000       0.110489         3.0066
  70   0.0000       0.114423         3.1136
  71   0.0000       0.133505         3.6329

MULLIKEN ATOMIC CHARGES
-----------------------
   0 S :    0.128167
   1 C :   -0.137911
   2 C :   -0.104862
   3 C :    0.016667
   4 C :   -0.140760
   5 H :    0.015855
   6 C :    0.062980
   7 H :    0.025160
   8 H :   -0.000801
   9 C :   -0.032168
  10 H :    0.021642
  11 H :    0.016804
  12 C :   -0.051386
  13 H :    0.042001
  14 H :    0.022635
  15 H :    0.042722
  16 S :    0.128518
  17 C :   -0.088033
  18 C :   -0.027645
  19 C :   -0.024507
  20 C :   -0.166386
  21 H :   -0.004088
  22 C :    0.143127
  23 H :    0.006178
  24 H :    0.003004
  25 C :   -0.125679
  26 H :    0.043296
  27 H :    0.033066
  28 C :   -0.074402
  29 H :    0.041616
  30 H :    0.033401
  31 H :    0.031692
  32 H :    0.061124
  33 H :    0.058974
Sum of atomic charges:   -0.0000000

LOEWDIN ATOMIC CHARGES
----------------------
   0 S :    0.442352
   1 C :   -0.213772
   2 C :   -0.065990
   3 C :   -0.069212
   4 C :   -0.210304
   5 H :    0.028929
   6 C :   -0.032638
   7 H :    0.028283
   8 H :    0.027092
   9 C :   -0.033840
  10 H :    0.027272
  11 H :    0.019462
  12 C :   -0.068772
  13 H :    0.027869
  14 H :    0.023713
  15 H :    0.028800
  16 S :    0.434450
  17 C :   -0.202182
  18 C :   -0.058449
  19 C :   -0.050237
  20 C :   -0.206425
  21 H :    0.019640
  22 C :   -0.024235
  23 H :    0.019888
  24 H :    0.021403
  25 C :   -0.034265
  26 H :    0.032287
  27 H :    0.014336
  28 C :   -0.071989
  29 H :    0.030931
  30 H :    0.017931
  31 H :    0.028478
  32 H :    0.037670
  33 H :    0.031524

  Mayer bond orders larger than 0.100000
B(  0-S ,  1-C ) :   1.1506 B(  0-S ,  4-C ) :   1.1762 B(  1-C ,  2-C ) :   1.5959
B(  1-C , 32-H ) :   0.9641 B(  2-C ,  3-C ) :   1.2567 B(  2-C ,  6-C ) :   1.0338
B(  3-C ,  4-C ) :   1.5292 B(  3-C ,  5-H ) :   0.9993 B(  4-C , 20-C ) :   1.0424
B(  6-C ,  7-H ) :   0.9414 B(  6-C ,  8-H ) :   0.9332 B(  6-C ,  9-C ) :   1.0702
B(  9-C , 10-H ) :   0.9510 B(  9-C , 11-H ) :   0.9547 B(  9-C , 12-C ) :   1.0693
B( 12-C , 13-H ) :   0.9752 B( 12-C , 14-H ) :   0.9746 B( 12-C , 15-H ) :   0.9758
B( 16-S , 17-C ) :   1.1636 B( 16-S , 20-C ) :   1.1491 B( 17-C , 18-C ) :   1.6067
B( 17-C , 33-H ) :   0.9611 B( 18-C , 19-C ) :   1.2435 B( 18-C , 21-H ) :   0.9986
B( 19-C , 20-C ) :   1.5690 B( 19-C , 22-C ) :   1.0500 B( 22-C , 23-H ) :   0.9316
B( 22-C , 24-H ) :   0.9322 B( 22-C , 25-C ) :   1.0513 B( 25-C , 26-H ) :   0.9585
B( 25-C , 27-H ) :   0.9597 B( 25-C , 28-C ) :   1.0729 B( 28-C , 29-H ) :   0.9774
B( 28-C , 30-H ) :   0.9777 B( 28-C , 31-H ) :   0.9757

Dispersion correction           -0.014185973
FINAL SINGLE POINT ENERGY     -1339.873428032503

DIPOLE MOMENT
-------------
                                X             Y             Z
Electronic contribution:      7.56787       2.74801     -16.40451
Nuclear contribution   :     -7.63319      -2.66119      16.70105
                        -----------------------------------------
Total Dipole Moment    :     -0.06532       0.08682       0.29654
                        -----------------------------------------
Magnitude (a.u.)       :      0.31582
Magnitude (Debye)      :      0.80275

Rotational constants in cm-1:     0.019261     0.008131     0.006744
Rotational constants in MHz :   577.429931   243.756539   202.183826

                             ****ORCA TERMINATED NORMALLY****
TOTAL RUN TIME: 0 days 0 hours 0 minutes 27 seconds 568 msec
