                         Program Version 4.2.1 -  RELEASE  -
|  1> ! wB97X-D3 SP def2-SVP
|  2> %pal
|  3> nprocs 16
|  4> end
|  5>
|  6> * xyz 0 1
|  7> S 	 -93.4858 	 52.33 	 124.58
|  8> C 	 -95.03 	 51.4565 	 124.482
|  9> C 	 -94.8977 	 50.398 	 123.589
| 10> C 	 -93.6295 	 50.2951 	 122.934
| 11> C 	 -92.7535 	 51.3219 	 123.32
| 12> H 	 -93.3206 	 49.5875 	 122.215
| 13> C 	 -96.0508 	 49.4561 	 123.529
| 14> H 	 -96.5292 	 49.5126 	 122.542
| 15> H 	 -96.8104 	 49.7648 	 124.29
| 16> C 	 -95.7095 	 48.0159 	 123.733
| 17> H 	 -96.6832 	 47.4424 	 123.775
| 18> H 	 -95.0938 	 47.6948 	 122.849
| 19> C 	 -94.9149 	 47.6378 	 124.998
| 20> H 	 -95.4375 	 47.9667 	 125.959
| 21> H 	 -94.5724 	 46.5972 	 125.024
| 22> H 	 -93.9879 	 48.1028 	 124.94
| 23> S 	 -91.1282 	 53.282 	 122.29
| 24> C 	 -89.7233 	 52.7613 	 121.334
| 25> C 	 -89.5164 	 51.4247 	 121.412
| 26> C 	 -90.5689 	 50.6811 	 122.061
| 27> C 	 -91.4554 	 51.562 	 122.718
| 28> H 	 -88.6016 	 51.0645 	 120.945
| 29> C 	 -90.547 	 49.1384 	 122.283
| 30> H 	 -91.4561 	 48.8588 	 122.77
| 31> H 	 -89.6748 	 48.7899 	 122.861
| 32> C 	 -90.5347 	 48.253 	 121.059
| 33> H 	 -89.6085 	 48.4158 	 120.432
| 34> H 	 -91.385 	 48.6466 	 120.441
| 35> C 	 -91.0229 	 46.8103 	 121.319
| 36> H 	 -90.245 	 46.2306 	 121.731
| 37> H 	 -91.2279 	 46.3558 	 120.301
| 38> H 	 -91.7689 	 46.7413 	 122.1
| 39> H 	 -95.9094 	 51.6444 	 125.026
| 40> H 	 -89.011 	 53.3647 	 120.875
| 41> *
| 42>
| 43>                          ****END OF INPUT****

CARTESIAN COORDINATES (ANGSTROEM)
---------------------------------
  S    -93.485800   52.330000  124.580000
  C    -95.030000   51.456500  124.482000
  C    -94.897700   50.398000  123.589000
  C    -93.629500   50.295100  122.934000
  C    -92.753500   51.321900  123.320000
  H    -93.320600   49.587500  122.215000
  C    -96.050800   49.456100  123.529000
  H    -96.529200   49.512600  122.542000
  H    -96.810400   49.764800  124.290000
  C    -95.709500   48.015900  123.733000
  H    -96.683200   47.442400  123.775000
  H    -95.093800   47.694800  122.849000
  C    -94.914900   47.637800  124.998000
  H    -95.437500   47.966700  125.959000
  H    -94.572400   46.597200  125.024000
  H    -93.987900   48.102800  124.940000
  S    -91.128200   53.282000  122.290000
  C    -89.723300   52.761300  121.334000
  C    -89.516400   51.424700  121.412000
  C    -90.568900   50.681100  122.061000
  C    -91.455400   51.562000  122.718000
  H    -88.601600   51.064500  120.945000
  C    -90.547000   49.138400  122.283000
  H    -91.456100   48.858800  122.770000
  H    -89.674800   48.789900  122.861000
  C    -90.534700   48.253000  121.059000
  H    -89.608500   48.415800  120.432000
  H    -91.385000   48.646600  120.441000
  C    -91.022900   46.810300  121.319000
  H    -90.245000   46.230600  121.731000
  H    -91.227900   46.355800  120.301000
  H    -91.768900   46.741300  122.100000
  H    -95.909400   51.644400  125.026000
  H    -89.011000   53.364700  120.875000

 Total Charge           Charge          ....    0
 Multiplicity           Mult            ....    1
 Number of Electrons    NEL             ....  134
 Basis Dimension        Dim             ....  322

ORBITAL ENERGIES
----------------

  NO   OCC          E(Eh)            E(eV)
   0   2.0000     -88.968850     -2420.9655
   1   2.0000     -88.967633     -2420.9324
   2   2.0000     -10.337045      -281.2853
   3   2.0000     -10.336823      -281.2792
   4   2.0000     -10.315844      -280.7084
   5   2.0000     -10.314412      -280.6694
   6   2.0000     -10.313486      -280.6442
   7   2.0000     -10.301462      -280.3170
   8   2.0000     -10.297498      -280.2092
   9   2.0000     -10.296505      -280.1821
  10   2.0000     -10.295002      -280.1412
  11   2.0000     -10.293604      -280.1032
  12   2.0000     -10.291933      -280.0577
  13   2.0000     -10.290954      -280.0311
  14   2.0000     -10.285405      -279.8801
  15   2.0000     -10.275077      -279.5991
  16   2.0000      -8.082545      -219.9372
  17   2.0000      -8.081290      -219.9031
  18   2.0000      -6.041149      -164.3880
  19   2.0000      -6.039937      -164.3550
  20   2.0000      -6.037176      -164.2799
  21   2.0000      -6.036071      -164.2498
  22   2.0000      -6.033278      -164.1738
  23   2.0000      -6.031813      -164.1340
  24   2.0000      -1.001705       -27.2578
  25   2.0000      -0.978943       -26.6384
  26   2.0000      -0.916652       -24.9434
  27   2.0000      -0.912767       -24.8377
  28   2.0000      -0.872147       -23.7323
  29   2.0000      -0.850462       -23.1423
  30   2.0000      -0.840563       -22.8729
  31   2.0000      -0.820387       -22.3239
  32   2.0000      -0.787330       -21.4243
  33   2.0000      -0.776524       -21.1303
  34   2.0000      -0.715182       -19.4611
  35   2.0000      -0.695774       -18.9330
  36   2.0000      -0.687343       -18.7036
  37   2.0000      -0.655157       -17.8277
  38   2.0000      -0.641384       -17.4529
  39   2.0000      -0.623897       -16.9771
  40   2.0000      -0.598997       -16.2995
  41   2.0000      -0.573854       -15.6154
  42   2.0000      -0.566258       -15.4087
  43   2.0000      -0.558926       -15.2091
  44   2.0000      -0.540535       -14.7087
  45   2.0000      -0.529932       -14.4202
  46   2.0000      -0.520841       -14.1728
  47   2.0000      -0.515029       -14.0147
  48   2.0000      -0.501013       -13.6332
  49   2.0000      -0.499059       -13.5801
  50   2.0000      -0.494060       -13.4440
  51   2.0000      -0.484079       -13.1724
  52   2.0000      -0.475674       -12.9438
  53   2.0000      -0.463601       -12.6152
  54   2.0000      -0.458996       -12.4899
  55   2.0000      -0.449974       -12.2444
  56   2.0000      -0.442777       -12.0486
  57   2.0000      -0.440106       -11.9759
  58   2.0000      -0.433860       -11.8059
  59   2.0000      -0.425514       -11.5788
  60   2.0000      -0.420063       -11.4305
  61   2.0000      -0.407002       -11.0751
  62   2.0000      -0.405453       -11.0329
  63   2.0000      -0.356353        -9.6969
  64   2.0000      -0.334266        -9.0959
  65   2.0000      -0.330196        -8.9851
  66   2.0000      -0.287005        -7.8098
  67   0.0000       0.017259         0.4696
  68   0.0000       0.072644         1.9768
  69   0.0000       0.105950         2.8830
  70   0.0000       0.111904         3.0451
  71   0.0000       0.118436         3.2228

MULLIKEN ATOMIC CHARGES
-----------------------
   0 S :    0.106675
   1 C :   -0.111686
   2 C :   -0.086611
   3 C :    0.037877
   4 C :   -0.136067
   5 H :   -0.006306
   6 C :    0.087719
   7 H :    0.040086
   8 H :    0.019326
   9 C :   -0.130391
  10 H :    0.042837
  11 H :    0.032330
  12 C :   -0.038071
  13 H :    0.042943
  14 H :    0.032098
  15 H :    0.016249
  16 S :    0.091029
  17 C :   -0.059809
  18 C :   -0.031993
  19 C :   -0.032604
  20 C :   -0.123359
  21 H :    0.021840
  22 C :    0.076371
  23 H :   -0.006317
  24 H :    0.044789
  25 C :   -0.141503
  26 H :    0.044737
  27 H :    0.028493
  28 C :   -0.029493
  29 H :    0.016433
  30 H :    0.054765
  31 H :    0.030447
  32 H :    0.035021
  33 H :    0.032148
Sum of atomic charges:    0.0000000

LOEWDIN ATOMIC CHARGES
----------------------
   0 S :    0.386508
   1 C :   -0.186140
   2 C :   -0.057665
   3 C :   -0.062682
   4 C :   -0.178871
   5 H :    0.023033
   6 C :   -0.037376
   7 H :    0.036452
   8 H :    0.031798
   9 C :   -0.049900
  10 H :    0.031148
  11 H :    0.025432
  12 C :   -0.072854
  13 H :    0.033707
  14 H :    0.029663
  15 H :    0.014753
  16 S :    0.374218
  17 C :   -0.164006
  18 C :   -0.068754
  19 C :   -0.048297
  20 C :   -0.174327
  21 H :    0.034446
  22 C :   -0.033078
  23 H :    0.020167
  24 H :    0.035196
  25 C :   -0.054101
  26 H :    0.027898
  27 H :    0.024466
  28 C :   -0.065023
  29 H :    0.016871
  30 H :    0.041151
  31 H :    0.026166
  32 H :    0.021036
  33 H :    0.018964

  Mayer bond orders larger than 0.100000
B(  0-S ,  1-C ) :   1.1154 B(  0-S ,  4-C ) :   1.1546 B(  1-C ,  2-C ) :   1.6025
B(  1-C , 32-H ) :   0.9773 B(  2-C ,  3-C ) :   1.2369 B(  2-C ,  6-C ) :   1.0294
B(  3-C ,  4-C ) :   1.5462 B(  3-C ,  5-H ) :   0.9922 B(  4-C , 20-C ) :   1.0602
B(  6-C ,  7-H ) :   0.9277 B(  6-C ,  8-H ) :   0.9417 B(  6-C ,  9-C ) :   1.0783
B(  9-C , 10-H ) :   0.9558 B(  9-C , 11-H ) :   0.9496 B(  9-C , 12-C ) :   1.0802
B( 12-C , 13-H ) :   0.9734 B( 12-C , 14-H ) :   0.9710 B( 12-C , 15-H ) :   0.9672
B( 16-S , 17-C ) :   1.1280 B( 16-S , 20-C ) :   1.1231 B( 17-C , 18-C ) :   1.6722
B( 17-C , 33-H ) :   0.9672 B( 18-C , 19-C ) :   1.1956 B( 18-C , 21-H ) :   0.9857
B( 19-C , 20-C ) :   1.6064 B( 19-C , 22-C ) :   1.0403 B( 22-C , 23-H ) :   0.9332
B( 22-C , 24-H ) :   0.9403 B( 22-C , 25-C ) :   1.0566 B( 25-C , 26-H ) :   0.9541
B( 25-C , 27-H ) :   0.9576 B( 25-C , 28-C ) :   1.0731 B( 28-C , 29-H ) :   0.9723
B( 28-C , 30-H ) :   0.9756 B( 28-C , 31-H ) :   0.9686

Dispersion correction           -0.014814541
FINAL SINGLE POINT ENERGY     -1339.863285719319

DIPOLE MOMENT
-------------
                                X             Y             Z
Electronic contribution:      5.33842      31.16020       3.30734
Nuclear contribution   :     -5.25343     -31.82843      -3.57925
                        -----------------------------------------
Total Dipole Moment    :      0.08500      -0.66824      -0.27191
                        -----------------------------------------
Magnitude (a.u.)       :      0.72643
Magnitude (Debye)      :      1.84644

Rotational constants in cm-1:     0.016529     0.010603     0.006892
Rotational constants in MHz :   495.523945   317.884176   206.602131

                             ****ORCA TERMINATED NORMALLY****
TOTAL RUN TIME: 0 days 0 hours 0 minutes 35 seconds 44 msec
