                         Program Version 4.2.1 -  RELEASE  -
|  1> ! wB97X-D3 SP def2-SVP
|  2> %pal
|  3> nprocs 16
|  4> end
|  5>
|  6> * xyz 0 1
|  7> S 	 -0.765157 	 76.5722 	 46.5974
|  8> C 	 0.100636 	 75.9237 	 48.0333
|  9> C 	 -0.0166259 	 74.5619 	 48.0925
| 10> C 	 -0.781012 	 74.0733 	 46.9968
| 11> C 	 -1.30283 	 75.0329 	 46.1223
| 12> H 	 -1.02852 	 72.9909 	 46.8215
| 13> C 	 0.554936 	 73.853 	 49.2602
| 14> H 	 -0.246252 	 73.6008 	 49.9408
| 15> H 	 1.16902 	 74.5995 	 49.7447
| 16> C 	 1.18793 	 72.4402 	 49.0092
| 17> H 	 1.56334 	 72.0318 	 50.0039
| 18> H 	 0.431543 	 71.7845 	 48.5625
| 19> C 	 2.37462 	 72.467 	 47.9774
| 20> H 	 2.0683 	 72.6198 	 46.9654
| 21> H 	 3.11772 	 73.0901 	 48.3967
| 22> H 	 2.82808 	 71.4804 	 48.0191
| 23> S 	 -3.18026 	 75.6621 	 44.3857
| 24> C 	 -3.25063 	 75.0051 	 42.764
| 25> C 	 -2.13255 	 74.2292 	 42.5251
| 26> C 	 -1.25125 	 74.1358 	 43.6786
| 27> C 	 -1.78837 	 74.8404 	 44.7881
| 28> H 	 -1.98697 	 73.6986 	 41.5555
| 29> C 	 0.0574537 	 73.3559 	 43.5822
| 30> H 	 0.151601 	 72.8379 	 42.6157
| 31> H 	 -0.060153 	 72.5012 	 44.2745
| 32> C 	 1.42169 	 74.0764 	 43.7995
| 33> H 	 2.21886 	 73.3972 	 43.9427
| 34> H 	 1.48352 	 74.7974 	 44.5954
| 35> C 	 1.80512 	 74.8587 	 42.5015
| 36> H 	 1.01358 	 75.4178 	 42.0977
| 37> H 	 2.05125 	 74.0995 	 41.8108
| 38> H 	 2.68665 	 75.4759 	 42.6968
| 39> H 	 0.665784 	 76.471 	 48.742
| 40> H 	 -4.07401 	 75.2407 	 42.0655
| 41> *
| 42>
| 43>                          ****END OF INPUT****

CARTESIAN COORDINATES (ANGSTROEM)
---------------------------------
  S     -0.765157   76.572200   46.597400
  C      0.100636   75.923700   48.033300
  C     -0.016626   74.561900   48.092500
  C     -0.781012   74.073300   46.996800
  C     -1.302830   75.032900   46.122300
  H     -1.028520   72.990900   46.821500
  C      0.554936   73.853000   49.260200
  H     -0.246252   73.600800   49.940800
  H      1.169020   74.599500   49.744700
  C      1.187930   72.440200   49.009200
  H      1.563340   72.031800   50.003900
  H      0.431543   71.784500   48.562500
  C      2.374620   72.467000   47.977400
  H      2.068300   72.619800   46.965400
  H      3.117720   73.090100   48.396700
  H      2.828080   71.480400   48.019100
  S     -3.180260   75.662100   44.385700
  C     -3.250630   75.005100   42.764000
  C     -2.132550   74.229200   42.525100
  C     -1.251250   74.135800   43.678600
  C     -1.788370   74.840400   44.788100
  H     -1.986970   73.698600   41.555500
  C      0.057454   73.355900   43.582200
  H      0.151601   72.837900   42.615700
  H     -0.060153   72.501200   44.274500
  C      1.421690   74.076400   43.799500
  H      2.218860   73.397200   43.942700
  H      1.483520   74.797400   44.595400
  C      1.805120   74.858700   42.501500
  H      1.013580   75.417800   42.097700
  H      2.051250   74.099500   41.810800
  H      2.686650   75.475900   42.696800
  H      0.665784   76.471000   48.742000
  H     -4.074010   75.240700   42.065500

 Total Charge           Charge          ....    0
 Multiplicity           Mult            ....    1
 Number of Electrons    NEL             ....  134
 Basis Dimension        Dim             ....  322

ORBITAL ENERGIES
----------------

  NO   OCC          E(Eh)            E(eV)
   0   2.0000     -88.965194     -2420.8660
   1   2.0000     -88.965090     -2420.8632
   2   2.0000     -10.325680      -280.9760
   3   2.0000     -10.323227      -280.9093
   4   2.0000     -10.319276      -280.8018
   5   2.0000     -10.311967      -280.6029
   6   2.0000     -10.310134      -280.5530
   7   2.0000     -10.300911      -280.3020
   8   2.0000     -10.298782      -280.2441
   9   2.0000     -10.298567      -280.2383
  10   2.0000     -10.298198      -280.2282
  11   2.0000     -10.296389      -280.1790
  12   2.0000     -10.291536      -280.0469
  13   2.0000     -10.279735      -279.7258
  14   2.0000     -10.271960      -279.5142
  15   2.0000     -10.263957      -279.2965
  16   2.0000      -8.081562      -219.9105
  17   2.0000      -8.080083      -219.8702
  18   2.0000      -6.039859      -164.3529
  19   2.0000      -6.038544      -164.3171
  20   2.0000      -6.035645      -164.2382
  21   2.0000      -6.034427      -164.2051
  22   2.0000      -6.032608      -164.1556
  23   2.0000      -6.030985      -164.1114
  24   2.0000      -1.015293       -27.6275
  25   2.0000      -0.987432       -26.8694
  26   2.0000      -0.914915       -24.8961
  27   2.0000      -0.902667       -24.5628
  28   2.0000      -0.872129       -23.7318
  29   2.0000      -0.847535       -23.0626
  30   2.0000      -0.841544       -22.8996
  31   2.0000      -0.815845       -22.2003
  32   2.0000      -0.786155       -21.3924
  33   2.0000      -0.770478       -20.9658
  34   2.0000      -0.714818       -19.4512
  35   2.0000      -0.697403       -18.9773
  36   2.0000      -0.687706       -18.7134
  37   2.0000      -0.661906       -18.0114
  38   2.0000      -0.637959       -17.3597
  39   2.0000      -0.617696       -16.8084
  40   2.0000      -0.592964       -16.1354
  41   2.0000      -0.568557       -15.4712
  42   2.0000      -0.554639       -15.0925
  43   2.0000      -0.550166       -14.9708
  44   2.0000      -0.545275       -14.8377
  45   2.0000      -0.537688       -14.6312
  46   2.0000      -0.520430       -14.1616
  47   2.0000      -0.512380       -13.9426
  48   2.0000      -0.508946       -13.8491
  49   2.0000      -0.500030       -13.6065
  50   2.0000      -0.486634       -13.2420
  51   2.0000      -0.479593       -13.0504
  52   2.0000      -0.475698       -12.9444
  53   2.0000      -0.463897       -12.6233
  54   2.0000      -0.459405       -12.5011
  55   2.0000      -0.445146       -12.1130
  56   2.0000      -0.438401       -11.9295
  57   2.0000      -0.436940       -11.8897
  58   2.0000      -0.431849       -11.7512
  59   2.0000      -0.425071       -11.5668
  60   2.0000      -0.420368       -11.4388
  61   2.0000      -0.416782       -11.3412
  62   2.0000      -0.412537       -11.2257
  63   2.0000      -0.346232        -9.4215
  64   2.0000      -0.331775        -9.0281
  65   2.0000      -0.324456        -8.8289
  66   2.0000      -0.294612        -8.0168
  67   0.0000       0.032294         0.8788
  68   0.0000       0.066561         1.8112
  69   0.0000       0.112977         3.0742
  70   0.0000       0.118186         3.2160
  71   0.0000       0.129940         3.5358

MULLIKEN ATOMIC CHARGES
-----------------------
   0 S :    0.110980
   1 C :   -0.125706
   2 C :   -0.079020
   3 C :   -0.009244
   4 C :   -0.121187
   5 H :    0.026797
   6 C :    0.098355
   7 H :    0.042482
   8 H :    0.011033
   9 C :   -0.132831
  10 H :    0.044819
  11 H :    0.037951
  12 C :   -0.024766
  13 H :    0.044570
  14 H :    0.023157
  15 H :    0.021619
  16 S :    0.117994
  17 C :   -0.112731
  18 C :   -0.045391
  19 C :   -0.032870
  20 C :   -0.174970
  21 H :    0.038234
  22 C :    0.051071
  23 H :    0.010470
  24 H :    0.031245
  25 C :   -0.044455
  26 H :    0.018961
  27 H :    0.036268
  28 C :   -0.040082
  29 H :    0.029651
  30 H :    0.009031
  31 H :    0.035175
  32 H :    0.031140
  33 H :    0.072251
Sum of atomic charges:   -0.0000000

LOEWDIN ATOMIC CHARGES
----------------------
   0 S :    0.414338
   1 C :   -0.179127
   2 C :   -0.063671
   3 C :   -0.071850
   4 C :   -0.218006
   5 H :    0.035569
   6 C :   -0.032376
   7 H :    0.037978
   8 H :    0.028192
   9 C :   -0.039454
  10 H :    0.032665
  11 H :    0.023406
  12 C :   -0.062956
  13 H :    0.023634
  14 H :    0.019917
  15 H :    0.026329
  16 S :    0.451157
  17 C :   -0.198417
  18 C :   -0.075338
  19 C :   -0.055478
  20 C :   -0.233901
  21 H :    0.039787
  22 C :   -0.036204
  23 H :    0.030944
  24 H :    0.032453
  25 C :   -0.030076
  26 H :    0.018688
  27 H :    0.021348
  28 C :   -0.055218
  29 H :    0.017392
  30 H :    0.014908
  31 H :    0.027164
  32 H :    0.019971
  33 H :    0.036233

  Mayer bond orders larger than 0.100000
B(  0-S ,  1-C ) :   1.1338 B(  0-S ,  4-C ) :   1.1705 B(  1-C ,  2-C ) :   1.5995
B(  1-C ,  4-C ) :   0.1017 B(  1-C , 32-H ) :   0.9714 B(  2-C ,  3-C ) :   1.2394
B(  2-C ,  6-C ) :   1.0284 B(  3-C ,  4-C ) :   1.5638 B(  3-C ,  5-H ) :   0.9936
B(  4-C , 20-C ) :   1.0139 B(  6-C ,  7-H ) :   0.9310 B(  6-C ,  8-H ) :   0.9382
B(  6-C ,  9-C ) :   1.0634 B(  9-C , 10-H ) :   0.9584 B(  9-C , 11-H ) :   0.9540
B(  9-C , 12-C ) :   1.0783 B( 12-C , 13-H ) :   0.9745 B( 12-C , 14-H ) :   0.9774
B( 12-C , 15-H ) :   0.9729 B( 16-S , 17-C ) :   1.1661 B( 16-S , 20-C ) :   1.1834
B( 17-C , 18-C ) :   1.5782 B( 17-C , 20-C ) :   0.1007 B( 17-C , 33-H ) :   0.9684
B( 18-C , 19-C ) :   1.2702 B( 18-C , 21-H ) :   0.9826 B( 19-C , 20-C ) :   1.5363
B( 19-C , 22-C ) :   1.0416 B( 22-C , 23-H ) :   0.9368 B( 22-C , 24-H ) :   0.9330
B( 22-C , 25-C ) :   1.0611 B( 25-C , 26-H ) :   0.9551 B( 25-C , 27-H ) :   0.9653
B( 25-C , 28-C ) :   1.0678 B( 28-C , 29-H ) :   0.9823 B( 28-C , 30-H ) :   0.9770
B( 28-C , 31-H ) :   0.9755

Dispersion correction           -0.015589275
FINAL SINGLE POINT ENERGY     -1339.873921823106

DIPOLE MOMENT
-------------
                                X             Y             Z
Electronic contribution:    -22.86563      16.12098      -1.60984
Nuclear contribution   :     23.28590     -16.65416       1.66922
                        -----------------------------------------
Total Dipole Moment    :      0.42027      -0.53319       0.05938
                        -----------------------------------------
Magnitude (a.u.)       :      0.68150
Magnitude (Debye)      :      1.73224

Rotational constants in cm-1:     0.019458     0.009685     0.007820
Rotational constants in MHz :   583.326448   290.350541   234.430146

                             ****ORCA TERMINATED NORMALLY****
TOTAL RUN TIME: 0 days 0 hours 0 minutes 36 seconds 218 msec
