                         Program Version 4.2.1 -  RELEASE  -
|  1> ! wB97X-D3 SP def2-SVP
|  2> %pal
|  3> nprocs 16
|  4> end
|  5>
|  6> * xyz 0 1
|  7> S 	 -5.35973 	 -14.064 	 81.5496
|  8> C 	 -4.21435 	 -14.1666 	 82.8363
|  9> C 	 -4.48558 	 -13.3833 	 83.9034
| 10> C 	 -5.68411 	 -12.7236 	 83.7675
| 11> C 	 -6.29924 	 -12.9458 	 82.4717
| 12> H 	 -6.11573 	 -12.1884 	 84.5427
| 13> C 	 -3.59625 	 -13.3553 	 85.1663
| 14> H 	 -3.02064 	 -14.3725 	 85.2469
| 15> H 	 -4.37641 	 -13.3568 	 85.957
| 16> C 	 -2.67362 	 -12.1828 	 85.3779
| 17> H 	 -2.08491 	 -12.4129 	 86.2842
| 18> H 	 -2.07098 	 -12.1115 	 84.4793
| 19> C 	 -3.38405 	 -10.819 	 85.6022
| 20> H 	 -4.05471 	 -10.7556 	 86.5059
| 21> H 	 -2.68105 	 -10.0194 	 85.6266
| 22> H 	 -4.00211 	 -10.4982 	 84.7767
| 23> S 	 -7.84265 	 -11.6615 	 80.6166
| 24> C 	 -9.55944 	 -11.5332 	 80.834
| 25> C 	 -9.94468 	 -11.9395 	 82.0958
| 26> C 	 -8.88399 	 -12.6165 	 82.768
| 27> C 	 -7.68133 	 -12.5275 	 82.1024
| 28> H 	 -10.8524 	 -11.6641 	 82.557
| 29> C 	 -9.0647 	 -13.3931 	 84.1423
| 30> H 	 -8.18976 	 -14.0279 	 84.1649
| 31> H 	 -9.93552 	 -14.0973 	 84.0552
| 32> C 	 -9.27289 	 -12.4258 	 85.3081
| 33> H 	 -10.2157 	 -11.8212 	 85.1586
| 34> H 	 -8.40138 	 -11.7626 	 85.2377
| 35> C 	 -9.05802 	 -12.9902 	 86.718
| 36> H 	 -9.01022 	 -12.2291 	 87.4687
| 37> H 	 -8.1437 	 -13.5963 	 86.7971
| 38> H 	 -9.96544 	 -13.4719 	 87.0269
| 39> H 	 -3.33512 	 -14.7655 	 82.6136
| 40> H 	 -10.18 	 -10.81 	 80.3275
| 41> *
| 42>
| 43>                          ****END OF INPUT****

CARTESIAN COORDINATES (ANGSTROEM)
---------------------------------
  S     -5.359730  -14.064000   81.549600
  C     -4.214350  -14.166600   82.836300
  C     -4.485580  -13.383300   83.903400
  C     -5.684110  -12.723600   83.767500
  C     -6.299240  -12.945800   82.471700
  H     -6.115730  -12.188400   84.542700
  C     -3.596250  -13.355300   85.166300
  H     -3.020640  -14.372500   85.246900
  H     -4.376410  -13.356800   85.957000
  C     -2.673620  -12.182800   85.377900
  H     -2.084910  -12.412900   86.284200
  H     -2.070980  -12.111500   84.479300
  C     -3.384050  -10.819000   85.602200
  H     -4.054710  -10.755600   86.505900
  H     -2.681050  -10.019400   85.626600
  H     -4.002110  -10.498200   84.776700
  S     -7.842650  -11.661500   80.616600
  C     -9.559440  -11.533200   80.834000
  C     -9.944680  -11.939500   82.095800
  C     -8.883990  -12.616500   82.768000
  C     -7.681330  -12.527500   82.102400
  H    -10.852400  -11.664100   82.557000
  C     -9.064700  -13.393100   84.142300
  H     -8.189760  -14.027900   84.164900
  H     -9.935520  -14.097300   84.055200
  C     -9.272890  -12.425800   85.308100
  H    -10.215700  -11.821200   85.158600
  H     -8.401380  -11.762600   85.237700
  C     -9.058020  -12.990200   86.718000
  H     -9.010220  -12.229100   87.468700
  H     -8.143700  -13.596300   86.797100
  H     -9.965440  -13.471900   87.026900
  H     -3.335120  -14.765500   82.613600
  H    -10.180000  -10.810000   80.327500

 Total Charge           Charge          ....    0
 Multiplicity           Mult            ....    1
 Number of Electrons    NEL             ....  134
 Basis Dimension        Dim             ....  322

ORBITAL ENERGIES
----------------

  NO   OCC          E(Eh)            E(eV)
   0   2.0000     -88.970202     -2421.0023
   1   2.0000     -88.963340     -2420.8156
   2   2.0000     -10.334618      -281.2193
   3   2.0000     -10.324267      -280.9376
   4   2.0000     -10.311613      -280.5932
   5   2.0000     -10.309195      -280.5275
   6   2.0000     -10.303121      -280.3622
   7   2.0000     -10.301172      -280.3091
   8   2.0000     -10.295152      -280.1453
   9   2.0000     -10.294713      -280.1334
  10   2.0000     -10.293195      -280.0921
  11   2.0000     -10.291823      -280.0547
  12   2.0000     -10.291722      -280.0520
  13   2.0000     -10.290035      -280.0061
  14   2.0000     -10.279387      -279.7163
  15   2.0000     -10.276831      -279.6468
  16   2.0000      -8.085713      -220.0234
  17   2.0000      -8.078873      -219.8373
  18   2.0000      -6.043864      -164.4619
  19   2.0000      -6.039966      -164.3558
  20   2.0000      -6.037312      -164.2836
  21   2.0000      -6.036967      -164.2742
  22   2.0000      -6.033309      -164.1747
  23   2.0000      -6.029611      -164.0741
  24   2.0000      -1.010346       -27.4929
  25   2.0000      -0.990915       -26.9642
  26   2.0000      -0.912362       -24.8266
  27   2.0000      -0.903945       -24.5976
  28   2.0000      -0.867107       -23.5952
  29   2.0000      -0.853723       -23.2310
  30   2.0000      -0.847959       -23.0741
  31   2.0000      -0.811783       -22.0897
  32   2.0000      -0.785596       -21.3772
  33   2.0000      -0.773967       -21.0607
  34   2.0000      -0.701931       -19.1005
  35   2.0000      -0.698788       -19.0150
  36   2.0000      -0.692396       -18.8411
  37   2.0000      -0.664509       -18.0822
  38   2.0000      -0.646612       -17.5952
  39   2.0000      -0.614632       -16.7250
  40   2.0000      -0.588650       -16.0180
  41   2.0000      -0.575817       -15.6688
  42   2.0000      -0.568538       -15.4707
  43   2.0000      -0.546022       -14.8580
  44   2.0000      -0.541143       -14.7252
  45   2.0000      -0.522189       -14.2095
  46   2.0000      -0.516855       -14.0643
  47   2.0000      -0.511433       -13.9168
  48   2.0000      -0.501656       -13.6508
  49   2.0000      -0.494967       -13.4687
  50   2.0000      -0.487508       -13.2658
  51   2.0000      -0.480466       -13.0741
  52   2.0000      -0.478227       -13.0132
  53   2.0000      -0.470012       -12.7897
  54   2.0000      -0.462604       -12.5881
  55   2.0000      -0.451381       -12.2827
  56   2.0000      -0.445441       -12.1211
  57   2.0000      -0.438971       -11.9450
  58   2.0000      -0.435095       -11.8395
  59   2.0000      -0.424938       -11.5632
  60   2.0000      -0.418637       -11.3917
  61   2.0000      -0.417881       -11.3711
  62   2.0000      -0.402339       -10.9482
  63   2.0000      -0.343299        -9.3416
  64   2.0000      -0.337890        -9.1944
  65   2.0000      -0.329022        -8.9532
  66   2.0000      -0.294700        -8.0192
  67   0.0000       0.032438         0.8827
  68   0.0000       0.064287         1.7494
  69   0.0000       0.112677         3.0661
  70   0.0000       0.117829         3.2063
  71   0.0000       0.129707         3.5295

MULLIKEN ATOMIC CHARGES
-----------------------
   0 S :    0.134701
   1 C :   -0.160865
   2 C :   -0.043326
   3 C :    0.047698
   4 C :   -0.151117
   5 H :   -0.028645
   6 C :    0.017590
   7 H :    0.046348
   8 H :    0.021425
   9 C :   -0.024590
  10 H :    0.043949
  11 H :    0.031759
  12 C :   -0.074409
  13 H :    0.036474
  14 H :    0.025394
  15 H :    0.032984
  16 S :    0.105537
  17 C :   -0.071957
  18 C :   -0.040172
  19 C :   -0.055982
  20 C :   -0.172582
  21 H :    0.009640
  22 C :    0.069774
  23 H :    0.029920
  24 H :    0.034816
  25 C :   -0.107599
  26 H :    0.042999
  27 H :    0.025910
  28 C :   -0.014381
  29 H :    0.019812
  30 H :    0.041310
  31 H :    0.020795
  32 H :    0.049577
  33 H :    0.057215
Sum of atomic charges:    0.0000000

LOEWDIN ATOMIC CHARGES
----------------------
   0 S :    0.440976
   1 C :   -0.200592
   2 C :   -0.075069
   3 C :   -0.049918
   4 C :   -0.209434
   5 H :    0.016146
   6 C :   -0.034925
   7 H :    0.041909
   8 H :    0.028507
   9 C :   -0.039725
  10 H :    0.032262
  11 H :    0.027239
  12 C :   -0.073206
  13 H :    0.029212
  14 H :    0.023484
  15 H :    0.025122
  16 S :    0.419620
  17 C :   -0.195315
  18 C :   -0.061581
  19 C :   -0.056036
  20 C :   -0.210075
  21 H :    0.024545
  22 C :   -0.028063
  23 H :    0.027618
  24 H :    0.030913
  25 C :   -0.049787
  26 H :    0.031245
  27 H :    0.022396
  28 C :   -0.064396
  29 H :    0.023349
  30 H :    0.030655
  31 H :    0.021426
  32 H :    0.023781
  33 H :    0.027715

  Mayer bond orders larger than 0.100000
B(  0-S ,  1-C ) :   1.1712 B(  0-S ,  4-C ) :   1.2020 B(  1-C ,  2-C ) :   1.5632
B(  1-C ,  4-C ) :   0.1091 B(  1-C , 32-H ) :   0.9690 B(  2-C ,  3-C ) :   1.3180
B(  2-C ,  6-C ) :   0.9878 B(  3-C ,  4-C ) :   1.4819 B(  3-C ,  5-H ) :   1.0081
B(  4-C , 20-C ) :   0.9994 B(  6-C ,  7-H ) :   0.9484 B(  6-C ,  8-H ) :   0.9402
B(  6-C ,  9-C ) :   1.0738 B(  9-C , 10-H ) :   0.9531 B(  9-C , 11-H ) :   0.9507
B(  9-C , 12-C ) :   1.0803 B( 12-C , 13-H ) :   0.9754 B( 12-C , 14-H ) :   0.9718
B( 12-C , 15-H ) :   0.9704 B( 16-S , 17-C ) :   1.1565 B( 16-S , 20-C ) :   1.1581
B( 17-C , 18-C ) :   1.6148 B( 17-C , 33-H ) :   0.9613 B( 18-C , 19-C ) :   1.2486
B( 18-C , 21-H ) :   0.9913 B( 19-C , 20-C ) :   1.6203 B( 19-C , 22-C ) :   1.0173
B( 22-C , 23-H ) :   0.9380 B( 22-C , 24-H ) :   0.9427 B( 22-C , 25-C ) :   1.0547
B( 25-C , 26-H ) :   0.9542 B( 25-C , 27-H ) :   0.9575 B( 25-C , 28-C ) :   1.0854
B( 28-C , 29-H ) :   0.9726 B( 28-C , 30-H ) :   0.9727 B( 28-C , 31-H ) :   0.9721

Dispersion correction           -0.014886319
FINAL SINGLE POINT ENERGY     -1339.870649469273

DIPOLE MOMENT
-------------
                                X             Y             Z
Electronic contribution:     -2.95269      -3.97054     -29.01160
Nuclear contribution   :      3.02090       4.10453      29.73045
                        -----------------------------------------
Total Dipole Moment    :      0.06820       0.13399       0.71885
                        -----------------------------------------
Magnitude (a.u.)       :      0.73441
Magnitude (Debye)      :      1.86671

Rotational constants in cm-1:     0.016809     0.009586     0.007313
Rotational constants in MHz :   503.915481   287.370342   219.228071

                             ****ORCA TERMINATED NORMALLY****
TOTAL RUN TIME: 0 days 0 hours 0 minutes 34 seconds 425 msec
