                         Program Version 4.2.1 -  RELEASE  -
|  1> ! wB97X-D3 SP def2-SVP
|  2> %pal
|  3> nprocs 16
|  4> end
|  5>
|  6> * xyz 0 1
|  7> S 	 -53.8248 	 20.9479 	 92.8652
|  8> C 	 -52.6386 	 21.8796 	 93.8348
|  9> C 	 -52.6633 	 23.2232 	 93.4968
| 10> C 	 -53.8244 	 23.5461 	 92.7188
| 11> C 	 -54.5112 	 22.4589 	 92.3132
| 12> H 	 -54.1655 	 24.5105 	 92.4669
| 13> C 	 -51.6999 	 24.2273 	 94.0385
| 14> H 	 -51.0324 	 23.6881 	 94.743
| 15> H 	 -52.163 	 24.9016 	 94.7115
| 16> C 	 -50.9323 	 24.9589 	 92.9302
| 17> H 	 -50.4812 	 24.363 	 92.1887
| 18> H 	 -51.5879 	 25.6291 	 92.3628
| 19> C 	 -49.7673 	 25.8278 	 93.5577
| 20> H 	 -50.254 	 26.4875 	 94.315
| 21> H 	 -48.8649 	 25.3232 	 93.9343
| 22> H 	 -49.342 	 26.4418 	 92.7478
| 23> S 	 -55.9351 	 22.9832 	 89.9801
| 24> C 	 -57.7257 	 22.9395 	 89.9496
| 25> C 	 -58.1521 	 22.5324 	 91.1788
| 26> C 	 -57.1426 	 22.3411 	 92.1423
| 27> C 	 -55.8614 	 22.5919 	 91.7001
| 28> H 	 -59.2043 	 22.4255 	 91.2675
| 29> C 	 -57.3407 	 21.7047 	 93.4794
| 30> H 	 -56.9968 	 22.308 	 94.3609
| 31> H 	 -56.7045 	 20.8755 	 93.5196
| 32> C 	 -58.8008 	 21.2974 	 93.7699
| 33> H 	 -59.0596 	 20.4989 	 93.1504
| 34> H 	 -59.4858 	 22.1233 	 93.5892
| 35> C 	 -59.0678 	 20.7893 	 95.2018
| 36> H 	 -58.5426 	 19.8661 	 95.4987
| 37> H 	 -60.1715 	 20.6591 	 95.4522
| 38> H 	 -58.827 	 21.59 	 95.944
| 39> H 	 -51.8172 	 21.4271 	 94.3874
| 40> H 	 -58.3892 	 23.1271 	 89.1003
| 41> *
| 42>
| 43>                          ****END OF INPUT****

CARTESIAN COORDINATES (ANGSTROEM)
---------------------------------
  S    -53.824800   20.947900   92.865200
  C    -52.638600   21.879600   93.834800
  C    -52.663300   23.223200   93.496800
  C    -53.824400   23.546100   92.718800
  C    -54.511200   22.458900   92.313200
  H    -54.165500   24.510500   92.466900
  C    -51.699900   24.227300   94.038500
  H    -51.032400   23.688100   94.743000
  H    -52.163000   24.901600   94.711500
  C    -50.932300   24.958900   92.930200
  H    -50.481200   24.363000   92.188700
  H    -51.587900   25.629100   92.362800
  C    -49.767300   25.827800   93.557700
  H    -50.254000   26.487500   94.315000
  H    -48.864900   25.323200   93.934300
  H    -49.342000   26.441800   92.747800
  S    -55.935100   22.983200   89.980100
  C    -57.725700   22.939500   89.949600
  C    -58.152100   22.532400   91.178800
  C    -57.142600   22.341100   92.142300
  C    -55.861400   22.591900   91.700100
  H    -59.204300   22.425500   91.267500
  C    -57.340700   21.704700   93.479400
  H    -56.996800   22.308000   94.360900
  H    -56.704500   20.875500   93.519600
  C    -58.800800   21.297400   93.769900
  H    -59.059600   20.498900   93.150400
  H    -59.485800   22.123300   93.589200
  C    -59.067800   20.789300   95.201800
  H    -58.542600   19.866100   95.498700
  H    -60.171500   20.659100   95.452200
  H    -58.827000   21.590000   95.944000
  H    -51.817200   21.427100   94.387400
  H    -58.389200   23.127100   89.100300

 Total Charge           Charge          ....    0
 Multiplicity           Mult            ....    1
 Number of Electrons    NEL             ....  134
 Basis Dimension        Dim             ....  322

ORBITAL ENERGIES
----------------

  NO   OCC          E(Eh)            E(eV)
   0   2.0000     -88.968954     -2420.9683
   1   2.0000     -88.959728     -2420.7173
   2   2.0000     -10.328843      -281.0621
   3   2.0000     -10.324433      -280.9421
   4   2.0000     -10.319035      -280.7952
   5   2.0000     -10.318259      -280.7741
   6   2.0000     -10.302785      -280.3530
   7   2.0000     -10.298363      -280.2327
   8   2.0000     -10.292546      -280.0744
   9   2.0000     -10.290821      -280.0275
  10   2.0000     -10.289506      -279.9917
  11   2.0000     -10.287729      -279.9434
  12   2.0000     -10.285560      -279.8843
  13   2.0000     -10.283560      -279.8299
  14   2.0000     -10.282605      -279.8039
  15   2.0000     -10.279963      -279.7320
  16   2.0000      -8.082813      -219.9445
  17   2.0000      -8.073698      -219.6965
  18   2.0000      -6.041426      -164.3956
  19   2.0000      -6.037570      -164.2906
  20   2.0000      -6.033385      -164.1767
  21   2.0000      -6.032275      -164.1466
  22   2.0000      -6.028243      -164.0368
  23   2.0000      -6.024501      -163.9350
  24   2.0000      -1.005320       -27.3562
  25   2.0000      -0.983736       -26.7688
  26   2.0000      -0.912549       -24.8317
  27   2.0000      -0.904878       -24.6230
  28   2.0000      -0.868790       -23.6410
  29   2.0000      -0.848383       -23.0857
  30   2.0000      -0.842412       -22.9232
  31   2.0000      -0.820857       -22.3366
  32   2.0000      -0.778297       -21.1786
  33   2.0000      -0.766352       -20.8535
  34   2.0000      -0.710387       -19.3306
  35   2.0000      -0.703826       -19.1521
  36   2.0000      -0.696631       -18.9563
  37   2.0000      -0.653501       -17.7827
  38   2.0000      -0.642052       -17.4711
  39   2.0000      -0.622211       -16.9312
  40   2.0000      -0.596712       -16.2373
  41   2.0000      -0.577585       -15.7169
  42   2.0000      -0.568896       -15.4804
  43   2.0000      -0.556061       -15.1312
  44   2.0000      -0.530001       -14.4221
  45   2.0000      -0.525071       -14.2879
  46   2.0000      -0.514079       -13.9888
  47   2.0000      -0.508515       -13.8374
  48   2.0000      -0.504082       -13.7168
  49   2.0000      -0.502205       -13.6657
  50   2.0000      -0.483929       -13.1684
  51   2.0000      -0.477147       -12.9838
  52   2.0000      -0.471234       -12.8229
  53   2.0000      -0.463040       -12.6000
  54   2.0000      -0.454975       -12.3805
  55   2.0000      -0.450571       -12.2607
  56   2.0000      -0.445207       -12.1147
  57   2.0000      -0.442273       -12.0349
  58   2.0000      -0.430445       -11.7130
  59   2.0000      -0.429105       -11.6765
  60   2.0000      -0.417073       -11.3491
  61   2.0000      -0.413160       -11.2427
  62   2.0000      -0.408844       -11.1252
  63   2.0000      -0.338299        -9.2056
  64   2.0000      -0.333069        -9.0633
  65   2.0000      -0.322779        -8.7833
  66   2.0000      -0.306195        -8.3320
  67   0.0000       0.036911         1.0044
  68   0.0000       0.060932         1.6580
  69   0.0000       0.109181         2.9710
  70   0.0000       0.126114         3.4317
  71   0.0000       0.127650         3.4735

MULLIKEN ATOMIC CHARGES
-----------------------
   0 S :    0.106424
   1 C :   -0.134047
   2 C :   -0.071436
   3 C :    0.055455
   4 C :   -0.131741
   5 H :    0.001346
   6 C :    0.092492
   7 H :    0.010282
   8 H :    0.024152
   9 C :   -0.070560
  10 H :    0.025531
  11 H :    0.033922
  12 C :   -0.082557
  13 H :    0.038199
  14 H :    0.044852
  15 H :    0.032091
  16 S :    0.084292
  17 C :   -0.094854
  18 C :   -0.045411
  19 C :   -0.009581
  20 C :   -0.177845
  21 H :    0.009468
  22 C :    0.092684
  23 H :    0.032509
  24 H :    0.007770
  25 C :   -0.069697
  26 H :    0.020826
  27 H :    0.035035
  28 C :   -0.081539
  29 H :    0.042257
  30 H :    0.036196
  31 H :    0.027648
  32 H :    0.053917
  33 H :    0.061921
Sum of atomic charges:    0.0000000

LOEWDIN ATOMIC CHARGES
----------------------
   0 S :    0.386646
   1 C :   -0.182655
   2 C :   -0.056251
   3 C :   -0.044613
   4 C :   -0.192391
   5 H :    0.027461
   6 C :   -0.031757
   7 H :    0.032571
   8 H :    0.027965
   9 C :   -0.031803
  10 H :    0.019777
  11 H :    0.026930
  12 C :   -0.072135
  13 H :    0.027327
  14 H :    0.026643
  15 H :    0.026930
  16 S :    0.380176
  17 C :   -0.173457
  18 C :   -0.075346
  19 C :   -0.061277
  20 C :   -0.188899
  21 H :    0.028925
  22 C :   -0.031132
  23 H :    0.038602
  24 H :    0.017977
  25 C :   -0.039505
  26 H :    0.016816
  27 H :    0.024833
  28 C :   -0.076199
  29 H :    0.025530
  30 H :    0.032529
  31 H :    0.024747
  32 H :    0.028217
  33 H :    0.036820

  Mayer bond orders larger than 0.100000
B(  0-S ,  1-C ) :   1.1188 B(  0-S ,  4-C ) :   1.1298 B(  1-C ,  2-C ) :   1.6455
B(  1-C , 32-H ) :   0.9615 B(  2-C ,  3-C ) :   1.1878 B(  2-C ,  6-C ) :   1.0399
B(  3-C ,  4-C ) :   1.6282 B(  3-C ,  5-H ) :   0.9995 B(  4-C , 20-C ) :   0.9877
B(  6-C ,  7-H ) :   0.9405 B(  6-C ,  8-H ) :   0.9332 B(  6-C ,  9-C ) :   1.0489
B(  9-C , 10-H ) :   0.9614 B(  9-C , 11-H ) :   0.9556 B(  9-C , 12-C ) :   1.0788
B( 12-C , 13-H ) :   0.9756 B( 12-C , 14-H ) :   0.9783 B( 12-C , 15-H ) :   0.9758
B( 16-S , 17-C ) :   1.1481 B( 16-S , 20-C ) :   1.1450 B( 17-C , 18-C ) :   1.6062
B( 17-C , 20-C ) :   0.1050 B( 17-C , 33-H ) :   0.9621 B( 18-C , 19-C ) :   1.2396
B( 18-C , 21-H ) :   0.9957 B( 19-C , 20-C ) :   1.6030 B( 19-C , 22-C ) :   1.0360
B( 22-C , 23-H ) :   0.9255 B( 22-C , 24-H ) :   0.9238 B( 22-C , 25-C ) :   1.0875
B( 25-C , 26-H ) :   0.9481 B( 25-C , 27-H ) :   0.9509 B( 25-C , 28-C ) :   1.0867
B( 28-C , 29-H ) :   0.9754 B( 28-C , 30-H ) :   0.9733 B( 28-C , 31-H ) :   0.9733

Dispersion correction           -0.013648516
FINAL SINGLE POINT ENERGY     -1339.874041830161

DIPOLE MOMENT
-------------
                                X             Y             Z
Electronic contribution:     -2.08019      -7.57667     -16.37133
Nuclear contribution   :      2.11262       7.82961      16.72922
                        -----------------------------------------
Total Dipole Moment    :      0.03243       0.25294       0.35789
                        -----------------------------------------
Magnitude (a.u.)       :      0.43945
Magnitude (Debye)      :      1.11699

Rotational constants in cm-1:     0.020681     0.007228     0.006115
Rotational constants in MHz :   619.998531   216.689439   183.323282

                             ****ORCA TERMINATED NORMALLY****
TOTAL RUN TIME: 0 days 0 hours 0 minutes 29 seconds 215 msec
