                         Program Version 4.2.1 -  RELEASE  -
|  1> ! wB97X-D3 SP def2-SVP
|  2> %pal
|  3> nprocs 16
|  4> end
|  5>
|  6> * xyz 0 1
|  7> S 	 -101.877 	 56.6004 	 121.125
|  8> C 	 -102.679 	 55.2677 	 120.311
|  9> C 	 -103.876 	 54.9704 	 120.872
| 10> C 	 -104.152 	 55.7809 	 121.981
| 11> C 	 -103.235 	 56.8599 	 122.131
| 12> H 	 -105.019 	 55.5729 	 122.513
| 13> C 	 -104.645 	 53.6884 	 120.518
| 14> H 	 -104.204 	 53.2925 	 119.607
| 15> H 	 -105.643 	 54.0974 	 120.271
| 16> C 	 -104.677 	 52.7473 	 121.733
| 17> H 	 -103.814 	 52.2572 	 121.952
| 18> H 	 -104.654 	 53.3623 	 122.619
| 19> C 	 -105.943 	 51.8352 	 121.882
| 20> H 	 -105.846 	 51.0068 	 121.15
| 21> H 	 -106.09 	 51.3971 	 122.871
| 22> H 	 -106.883 	 52.2986 	 121.662
| 23> S 	 -102.992 	 59.53 	 122.258
| 24> C 	 -103.618 	 60.3315 	 123.703
| 25> C 	 -103.985 	 59.4007 	 124.654
| 26> C 	 -103.796 	 58.0642 	 124.282
| 27> C 	 -103.316 	 58.0145 	 122.984
| 28> H 	 -104.35 	 59.6109 	 125.643
| 29> C 	 -104.199 	 56.9239 	 125.187
| 30> H 	 -104.731 	 56.2897 	 124.504
| 31> H 	 -104.832 	 57.3207 	 125.952
| 32> C 	 -103.019 	 56.0985 	 125.859
| 33> H 	 -102.329 	 55.8972 	 125.035
| 34> H 	 -103.617 	 55.1423 	 126.113
| 35> C 	 -102.501 	 56.7845 	 127.179
| 36> H 	 -101.734 	 56.1599 	 127.618
| 37> H 	 -103.273 	 56.8983 	 128.005
| 38> H 	 -101.916 	 57.685 	 126.947
| 39> H 	 -102.189 	 54.6563 	 119.56
| 40> H 	 -103.842 	 61.3842 	 123.867
| 41> *
| 42>
| 43>                          ****END OF INPUT****

CARTESIAN COORDINATES (ANGSTROEM)
---------------------------------
  S    -101.877000   56.600400  121.125000
  C    -102.679000   55.267700  120.311000
  C    -103.876000   54.970400  120.872000
  C    -104.152000   55.780900  121.981000
  C    -103.235000   56.859900  122.131000
  H    -105.019000   55.572900  122.513000
  C    -104.645000   53.688400  120.518000
  H    -104.204000   53.292500  119.607000
  H    -105.643000   54.097400  120.271000
  C    -104.677000   52.747300  121.733000
  H    -103.814000   52.257200  121.952000
  H    -104.654000   53.362300  122.619000
  C    -105.943000   51.835200  121.882000
  H    -105.846000   51.006800  121.150000
  H    -106.090000   51.397100  122.871000
  H    -106.883000   52.298600  121.662000
  S    -102.992000   59.530000  122.258000
  C    -103.618000   60.331500  123.703000
  C    -103.985000   59.400700  124.654000
  C    -103.796000   58.064200  124.282000
  C    -103.316000   58.014500  122.984000
  H    -104.350000   59.610900  125.643000
  C    -104.199000   56.923900  125.187000
  H    -104.731000   56.289700  124.504000
  H    -104.832000   57.320700  125.952000
  C    -103.019000   56.098500  125.859000
  H    -102.329000   55.897200  125.035000
  H    -103.617000   55.142300  126.113000
  C    -102.501000   56.784500  127.179000
  H    -101.734000   56.159900  127.618000
  H    -103.273000   56.898300  128.005000
  H    -101.916000   57.685000  126.947000
  H    -102.189000   54.656300  119.560000
  H    -103.842000   61.384200  123.867000

 Total Charge           Charge          ....    0
 Multiplicity           Mult            ....    1
 Number of Electrons    NEL             ....  134
 Basis Dimension        Dim             ....  322

ORBITAL ENERGIES
----------------

  NO   OCC          E(Eh)            E(eV)
   0   2.0000     -88.970182     -2421.0017
   1   2.0000     -88.965248     -2420.8675
   2   2.0000     -10.329536      -281.0810
   3   2.0000     -10.318812      -280.7892
   4   2.0000     -10.315739      -280.7055
   5   2.0000     -10.305986      -280.4401
   6   2.0000     -10.300198      -280.2826
   7   2.0000     -10.298111      -280.2259
   8   2.0000     -10.292650      -280.0773
   9   2.0000     -10.292236      -280.0660
  10   2.0000     -10.288476      -279.9637
  11   2.0000     -10.288157      -279.9550
  12   2.0000     -10.288036      -279.9517
  13   2.0000     -10.286861      -279.9197
  14   2.0000     -10.283016      -279.8151
  15   2.0000     -10.281293      -279.7682
  16   2.0000      -8.085011      -220.0043
  17   2.0000      -8.080671      -219.8862
  18   2.0000      -6.043519      -164.4525
  19   2.0000      -6.039502      -164.3432
  20   2.0000      -6.039011      -164.3298
  21   2.0000      -6.035760      -164.2414
  22   2.0000      -6.035091      -164.2232
  23   2.0000      -6.031580      -164.1276
  24   2.0000      -1.013886       -27.5892
  25   2.0000      -0.988612       -26.9015
  26   2.0000      -0.913499       -24.8576
  27   2.0000      -0.902806       -24.5666
  28   2.0000      -0.870277       -23.6815
  29   2.0000      -0.848352       -23.0848
  30   2.0000      -0.845684       -23.0122
  31   2.0000      -0.811041       -22.0695
  32   2.0000      -0.785545       -21.3758
  33   2.0000      -0.772960       -21.0333
  34   2.0000      -0.719881       -19.5890
  35   2.0000      -0.706722       -19.2309
  36   2.0000      -0.689584       -18.7645
  37   2.0000      -0.668329       -18.1862
  38   2.0000      -0.636294       -17.3144
  39   2.0000      -0.627458       -17.0740
  40   2.0000      -0.590983       -16.0815
  41   2.0000      -0.564609       -15.3638
  42   2.0000      -0.555146       -15.1063
  43   2.0000      -0.548145       -14.9158
  44   2.0000      -0.538394       -14.6504
  45   2.0000      -0.525967       -14.3123
  46   2.0000      -0.517909       -14.0930
  47   2.0000      -0.509869       -13.8742
  48   2.0000      -0.500613       -13.6224
  49   2.0000      -0.497253       -13.5309
  50   2.0000      -0.487430       -13.2636
  51   2.0000      -0.481291       -13.0966
  52   2.0000      -0.470908       -12.8140
  53   2.0000      -0.466759       -12.7011
  54   2.0000      -0.461333       -12.5535
  55   2.0000      -0.456176       -12.4132
  56   2.0000      -0.453249       -12.3335
  57   2.0000      -0.447306       -12.1718
  58   2.0000      -0.435801       -11.8588
  59   2.0000      -0.427322       -11.6280
  60   2.0000      -0.422304       -11.4915
  61   2.0000      -0.410639       -11.1741
  62   2.0000      -0.408676       -11.1207
  63   2.0000      -0.349108        -9.4997
  64   2.0000      -0.333181        -9.0663
  65   2.0000      -0.331269        -9.0143
  66   2.0000      -0.281709        -7.6657
  67   0.0000       0.026566         0.7229
  68   0.0000       0.074198         2.0190
  69   0.0000       0.109981         2.9927
  70   0.0000       0.115781         3.1506
  71   0.0000       0.137353         3.7376

MULLIKEN ATOMIC CHARGES
-----------------------
   0 S :    0.108270
   1 C :   -0.132823
   2 C :   -0.120043
   3 C :    0.035689
   4 C :   -0.157938
   5 H :   -0.010775
   6 C :    0.113463
   7 H :    0.021842
   8 H :    0.033419
   9 C :   -0.030314
  10 H :    0.001702
  11 H :    0.006092
  12 C :   -0.053954
  13 H :    0.033402
  14 H :    0.034233
  15 H :    0.023838
  16 S :    0.133111
  17 C :   -0.085653
  18 C :   -0.036000
  19 C :   -0.053716
  20 C :   -0.151782
  21 H :    0.003348
  22 C :    0.106126
  23 H :    0.009864
  24 H :    0.005261
  25 C :   -0.091323
  26 H :    0.049629
  27 H :    0.042167
  28 C :   -0.062161
  29 H :    0.030610
  30 H :    0.048914
  31 H :    0.046445
  32 H :    0.042385
  33 H :    0.056671
Sum of atomic charges:    0.0000000

LOEWDIN ATOMIC CHARGES
----------------------
   0 S :    0.417795
   1 C :   -0.203477
   2 C :   -0.065705
   3 C :   -0.068182
   4 C :   -0.198974
   5 H :    0.014504
   6 C :   -0.016927
   7 H :    0.027946
   8 H :    0.036200
   9 C :   -0.037092
  10 H :    0.016346
  11 H :    0.025864
  12 C :   -0.065474
  13 H :    0.026567
  14 H :    0.027351
  15 H :    0.020058
  16 S :    0.427709
  17 C :   -0.191959
  18 C :   -0.064978
  19 C :   -0.059940
  20 C :   -0.218760
  21 H :    0.026706
  22 C :   -0.026931
  23 H :    0.027206
  24 H :    0.023487
  25 C :   -0.035716
  26 H :    0.029187
  27 H :    0.033466
  28 C :   -0.077749
  29 H :    0.025854
  30 H :    0.035910
  31 H :    0.031238
  32 H :    0.025153
  33 H :    0.033317

  Mayer bond orders larger than 0.100000
B(  0-S ,  1-C ) :   1.1309 B(  0-S ,  4-C ) :   1.1828 B(  1-C ,  2-C ) :   1.6119
B(  1-C ,  4-C ) :   0.1025 B(  1-C , 32-H ) :   0.9655 B(  2-C ,  3-C ) :   1.2972
B(  2-C ,  6-C ) :   1.0144 B(  3-C ,  4-C ) :   1.5011 B(  3-C ,  5-H ) :   0.9922
B(  4-C , 20-C ) :   1.0429 B(  6-C ,  7-H ) :   0.9448 B(  6-C ,  8-H ) :   0.9359
B(  6-C ,  9-C ) :   1.0430 B(  9-C , 10-H ) :   0.9501 B(  9-C , 11-H ) :   0.9567
B(  9-C , 12-C ) :   1.0683 B( 12-C , 13-H ) :   0.9783 B( 12-C , 14-H ) :   0.9767
B( 12-C , 15-H ) :   0.9787 B( 16-S , 17-C ) :   1.1406 B( 16-S , 20-C ) :   1.1607
B( 17-C , 18-C ) :   1.5887 B( 17-C , 20-C ) :   0.1020 B( 17-C , 33-H ) :   0.9671
B( 18-C , 19-C ) :   1.2866 B( 18-C , 21-H ) :   0.9838 B( 19-C , 20-C ) :   1.5535
B( 19-C , 22-C ) :   1.0337 B( 22-C , 23-H ) :   0.9269 B( 22-C , 24-H ) :   0.9291
B( 22-C , 25-C ) :   1.0595 B( 25-C , 26-H ) :   0.9612 B( 25-C , 27-H ) :   0.9585
B( 25-C , 28-C ) :   1.0640 B( 28-C , 29-H ) :   0.9736 B( 28-C , 30-H ) :   0.9734
B( 28-C , 31-H ) :   0.9751

Dispersion correction           -0.014461470
FINAL SINGLE POINT ENERGY     -1339.858825047581

DIPOLE MOMENT
-------------
                                X             Y             Z
Electronic contribution:     10.95942      22.70694     -14.59944
Nuclear contribution   :    -11.32253     -23.15230      15.03291
                        -----------------------------------------
Total Dipole Moment    :     -0.36310      -0.44536       0.43347
                        -----------------------------------------
Magnitude (a.u.)       :      0.71978
Magnitude (Debye)      :      1.82955

Rotational constants in cm-1:     0.018068     0.009057     0.007000
Rotational constants in MHz :   541.650033   271.536405   209.853843

                             ****ORCA TERMINATED NORMALLY****
TOTAL RUN TIME: 0 days 0 hours 0 minutes 36 seconds 354 msec
