                         Program Version 4.2.1 -  RELEASE  -
|  1> ! wB97X-D3 SP def2-SVP
|  2> %pal
|  3> nprocs 16
|  4> end
|  5>
|  6> * xyz 0 1
|  7> S 	 -34.8619 	 67.4693 	 149.761
|  8> C 	 -33.8964 	 67.7179 	 148.376
|  9> C 	 -32.7405 	 68.4093 	 148.744
| 10> C 	 -32.7215 	 68.7517 	 150.11
| 11> C 	 -33.787 	 68.3002 	 150.849
| 12> H 	 -31.9518 	 69.1996 	 150.698
| 13> C 	 -31.5652 	 68.6811 	 147.853
| 14> H 	 -31.2706 	 69.6848 	 148.052
| 15> H 	 -31.9015 	 68.6474 	 146.844
| 16> C 	 -30.3954 	 67.742 	 148.118
| 17> H 	 -30.6584 	 66.6959 	 147.803
| 18> H 	 -29.5401 	 67.9898 	 147.422
| 19> C 	 -29.9345 	 67.7405 	 149.538
| 20> H 	 -28.9468 	 67.2748 	 149.567
| 21> H 	 -29.8032 	 68.7502 	 149.879
| 22> H 	 -30.6544 	 67.282 	 150.242
| 23> S 	 -34.5415 	 66.9958 	 153.148
| 24> C 	 -34.8017 	 67.8993 	 154.598
| 25> C 	 -34.3603 	 69.1842 	 154.434
| 26> C 	 -33.8914 	 69.5147 	 153.115
| 27> C 	 -34.0516 	 68.4178 	 152.26
| 28> H 	 -34.3116 	 69.8584 	 155.248
| 29> C 	 -33.3442 	 70.8921 	 152.863
| 30> H 	 -32.8964 	 70.8659 	 151.854
| 31> H 	 -32.4433 	 71.0665 	 153.512
| 32> C 	 -34.131 	 72.238 	 153.019
| 33> H 	 -34.9268 	 72.3876 	 152.316
| 34> H 	 -33.4398 	 72.9793 	 152.747
| 35> C 	 -34.4645 	 72.5271 	 154.476
| 36> H 	 -33.8023 	 72.0352 	 155.12
| 37> H 	 -35.4711 	 72.211 	 154.417
| 38> H 	 -34.4085 	 73.5882 	 154.707
| 39> H 	 -34.0774 	 67.2946 	 147.407
| 40> H 	 -35.1654 	 67.4929 	 155.487
| 41> *
| 42>
| 43>                          ****END OF INPUT****

CARTESIAN COORDINATES (ANGSTROEM)
---------------------------------
  S    -34.861900   67.469300  149.761000
  C    -33.896400   67.717900  148.376000
  C    -32.740500   68.409300  148.744000
  C    -32.721500   68.751700  150.110000
  C    -33.787000   68.300200  150.849000
  H    -31.951800   69.199600  150.698000
  C    -31.565200   68.681100  147.853000
  H    -31.270600   69.684800  148.052000
  H    -31.901500   68.647400  146.844000
  C    -30.395400   67.742000  148.118000
  H    -30.658400   66.695900  147.803000
  H    -29.540100   67.989800  147.422000
  C    -29.934500   67.740500  149.538000
  H    -28.946800   67.274800  149.567000
  H    -29.803200   68.750200  149.879000
  H    -30.654400   67.282000  150.242000
  S    -34.541500   66.995800  153.148000
  C    -34.801700   67.899300  154.598000
  C    -34.360300   69.184200  154.434000
  C    -33.891400   69.514700  153.115000
  C    -34.051600   68.417800  152.260000
  H    -34.311600   69.858400  155.248000
  C    -33.344200   70.892100  152.863000
  H    -32.896400   70.865900  151.854000
  H    -32.443300   71.066500  153.512000
  C    -34.131000   72.238000  153.019000
  H    -34.926800   72.387600  152.316000
  H    -33.439800   72.979300  152.747000
  C    -34.464500   72.527100  154.476000
  H    -33.802300   72.035200  155.120000
  H    -35.471100   72.211000  154.417000
  H    -34.408500   73.588200  154.707000
  H    -34.077400   67.294600  147.407000
  H    -35.165400   67.492900  155.487000

 Total Charge           Charge          ....    0
 Multiplicity           Mult            ....    1
 Number of Electrons    NEL             ....  134
 Basis Dimension        Dim             ....  322

ORBITAL ENERGIES
----------------

  NO   OCC          E(Eh)            E(eV)
   0   2.0000     -88.965678     -2420.8792
   1   2.0000     -88.962215     -2420.7849
   2   2.0000     -10.328646      -281.0568
   3   2.0000     -10.323981      -280.9298
   4   2.0000     -10.311407      -280.5877
   5   2.0000     -10.310956      -280.5754
   6   2.0000     -10.305423      -280.4248
   7   2.0000     -10.297705      -280.2148
   8   2.0000     -10.297036      -280.1966
   9   2.0000     -10.288422      -279.9622
  10   2.0000     -10.287844      -279.9465
  11   2.0000     -10.286387      -279.9068
  12   2.0000     -10.282398      -279.7983
  13   2.0000     -10.280798      -279.7547
  14   2.0000     -10.272052      -279.5167
  15   2.0000     -10.268664      -279.4246
  16   2.0000      -8.080927      -219.8932
  17   2.0000      -8.077845      -219.8093
  18   2.0000      -6.039461      -164.3421
  19   2.0000      -6.036273      -164.2553
  20   2.0000      -6.035342      -164.2300
  21   2.0000      -6.031968      -164.1382
  22   2.0000      -6.031653      -164.1296
  23   2.0000      -6.028888      -164.0544
  24   2.0000      -1.012252       -27.5448
  25   2.0000      -0.989894       -26.9364
  26   2.0000      -0.918228       -24.9863
  27   2.0000      -0.911951       -24.8155
  28   2.0000      -0.875068       -23.8118
  29   2.0000      -0.855979       -23.2924
  30   2.0000      -0.844440       -22.9784
  31   2.0000      -0.820519       -22.3275
  32   2.0000      -0.787795       -21.4370
  33   2.0000      -0.774224       -21.0677
  34   2.0000      -0.710955       -19.3461
  35   2.0000      -0.698014       -18.9939
  36   2.0000      -0.694612       -18.9014
  37   2.0000      -0.666081       -18.1250
  38   2.0000      -0.647910       -17.6305
  39   2.0000      -0.617675       -16.8078
  40   2.0000      -0.599790       -16.3211
  41   2.0000      -0.574143       -15.6232
  42   2.0000      -0.562047       -15.2941
  43   2.0000      -0.552584       -15.0366
  44   2.0000      -0.547193       -14.8899
  45   2.0000      -0.543247       -14.7825
  46   2.0000      -0.522501       -14.2180
  47   2.0000      -0.513943       -13.9851
  48   2.0000      -0.512270       -13.9396
  49   2.0000      -0.500203       -13.6112
  50   2.0000      -0.493373       -13.4254
  51   2.0000      -0.483046       -13.1444
  52   2.0000      -0.474430       -12.9099
  53   2.0000      -0.473013       -12.8713
  54   2.0000      -0.463981       -12.6256
  55   2.0000      -0.444826       -12.1043
  56   2.0000      -0.437146       -11.8953
  57   2.0000      -0.434898       -11.8342
  58   2.0000      -0.433272       -11.7899
  59   2.0000      -0.430258       -11.7079
  60   2.0000      -0.420536       -11.4434
  61   2.0000      -0.407123       -11.0784
  62   2.0000      -0.403163       -10.9706
  63   2.0000      -0.352086        -9.5808
  64   2.0000      -0.329702        -8.9716
  65   2.0000      -0.328038        -8.9264
  66   2.0000      -0.289836        -7.8868
  67   0.0000       0.028482         0.7750
  68   0.0000       0.078709         2.1418
  69   0.0000       0.108799         2.9606
  70   0.0000       0.124401         3.3851
  71   0.0000       0.137818         3.7502

MULLIKEN ATOMIC CHARGES
-----------------------
   0 S :    0.114141
   1 C :   -0.108140
   2 C :   -0.120377
   3 C :    0.024732
   4 C :   -0.170249
   5 H :    0.002385
   6 C :    0.126644
   7 H :    0.016119
   8 H :    0.006237
   9 C :   -0.091454
  10 H :    0.026810
  11 H :    0.034641
  12 C :   -0.046412
  13 H :    0.033957
  14 H :    0.013833
  15 H :    0.065486
  16 S :    0.114527
  17 C :   -0.057585
  18 C :   -0.027862
  19 C :    0.005687
  20 C :   -0.161090
  21 H :   -0.002410
  22 C :   -0.003894
  23 H :    0.011802
  24 H :    0.040457
  25 C :   -0.034371
  26 H :    0.029946
  27 H :    0.006353
  28 C :   -0.020369
  29 H :    0.022779
  30 H :    0.039465
  31 H :    0.029667
  32 H :    0.043992
  33 H :    0.034553
Sum of atomic charges:   -0.0000000

LOEWDIN ATOMIC CHARGES
----------------------
   0 S :    0.429611
   1 C :   -0.209724
   2 C :   -0.064216
   3 C :   -0.068009
   4 C :   -0.199838
   5 H :    0.025979
   6 C :   -0.028098
   7 H :    0.026284
   8 H :    0.025312
   9 C :   -0.044302
  10 H :    0.026092
  11 H :    0.028280
  12 C :   -0.067281
  13 H :    0.029868
  14 H :    0.016928
  15 H :    0.034261
  16 S :    0.417385
  17 C :   -0.179696
  18 C :   -0.064281
  19 C :   -0.055863
  20 C :   -0.201230
  21 H :    0.022640
  22 C :   -0.040466
  23 H :    0.029562
  24 H :    0.039947
  25 C :   -0.028375
  26 H :    0.021763
  27 H :    0.017752
  28 C :   -0.058787
  29 H :    0.013841
  30 H :    0.030072
  31 H :    0.027380
  32 H :    0.028207
  33 H :    0.019000

  Mayer bond orders larger than 0.100000
B(  0-S ,  1-C ) :   1.1596 B(  0-S ,  4-C ) :   1.1673 B(  1-C ,  2-C ) :   1.5695
B(  1-C ,  4-C ) :   0.1053 B(  1-C , 32-H ) :   0.9746 B(  2-C ,  3-C ) :   1.2636
B(  2-C ,  6-C ) :   1.0257 B(  3-C ,  4-C ) :   1.5519 B(  3-C ,  5-H ) :   0.9899
B(  4-C , 20-C ) :   1.0531 B(  6-C ,  7-H ) :   0.9358 B(  6-C ,  8-H ) :   0.9330
B(  6-C ,  9-C ) :   1.0763 B(  9-C , 10-H ) :   0.9492 B(  9-C , 11-H ) :   0.9550
B(  9-C , 12-C ) :   1.0971 B( 12-C , 13-H ) :   0.9644 B( 12-C , 14-H ) :   0.9691
B( 12-C , 15-H ) :   0.9606 B( 16-S , 17-C ) :   1.1471 B( 16-S , 20-C ) :   1.1550
B( 17-C , 18-C ) :   1.5970 B( 17-C , 33-H ) :   0.9773 B( 18-C , 19-C ) :   1.2429
B( 18-C , 21-H ) :   0.9948 B( 19-C , 20-C ) :   1.5652 B( 19-C , 22-C ) :   1.0483
B( 22-C , 23-H ) :   0.9234 B( 22-C , 24-H ) :   0.9364 B( 22-C , 25-C ) :   1.0843
B( 25-C , 26-H ) :   0.9631 B( 25-C , 27-H ) :   0.9467 B( 25-C , 28-C ) :   1.0636
B( 28-C , 29-H ) :   0.9703 B( 28-C , 30-H ) :   0.9816 B( 28-C , 31-H ) :   0.9719

Dispersion correction           -0.014438502
FINAL SINGLE POINT ENERGY     -1339.872343051941

DIPOLE MOMENT
-------------
                                X             Y             Z
Electronic contribution:    -15.87450     -17.19896       0.90986
Nuclear contribution   :     16.36584      17.67169      -0.86611
                        -----------------------------------------
Total Dipole Moment    :      0.49134       0.47273       0.04375
                        -----------------------------------------
Magnitude (a.u.)       :      0.68323
Magnitude (Debye)      :      1.73663

Rotational constants in cm-1:     0.019627     0.008508     0.007257
Rotational constants in MHz :   588.410857   255.048520   217.559879

                             ****ORCA TERMINATED NORMALLY****
TOTAL RUN TIME: 0 days 0 hours 0 minutes 35 seconds 572 msec
