                         Program Version 4.2.1 -  RELEASE  -
|  1> ! wB97X-D3 SP def2-SVP
|  2> %pal
|  3> nprocs 16
|  4> end
|  5>
|  6> * xyz 0 1
|  7> S 	 -93.7839 	 50.8397 	 124.852
|  8> C 	 -92.5307 	 50.3443 	 123.735
|  9> C 	 -93.0355 	 49.6957 	 122.627
| 10> C 	 -94.4678 	 49.5639 	 122.731
| 11> C 	 -95.0302 	 49.932 	 123.983
| 12> H 	 -95.0952 	 49.212 	 121.977
| 13> C 	 -92.2101 	 49.383 	 121.39
| 14> H 	 -91.614 	 50.2786 	 121.131
| 15> H 	 -92.9719 	 49.0918 	 120.662
| 16> C 	 -91.3027 	 48.1238 	 121.563
| 17> H 	 -90.5672 	 48.2716 	 122.237
| 18> H 	 -91.9421 	 47.434 	 122.07
| 19> C 	 -90.8618 	 47.6973 	 120.128
| 20> H 	 -90.301 	 48.4875 	 119.615
| 21> H 	 -90.1301 	 46.8153 	 120.236
| 22> H 	 -91.6482 	 47.436 	 119.459
| 23> S 	 -97.2278 	 51.6105 	 124.28
| 24> C 	 -98.7589 	 50.9129 	 124.363
| 25> C 	 -98.7236 	 49.5017 	 124.495
| 26> C 	 -97.4158 	 48.9567 	 124.223
| 27> C 	 -96.4538 	 49.9996 	 124.224
| 28> H 	 -99.6374 	 48.9331 	 124.669
| 29> C 	 -97.187 	 47.4653 	 124.29
| 30> H 	 -97.5331 	 47.1282 	 125.308
| 31> H 	 -96.183 	 47.1954 	 124.241
| 32> C 	 -97.8762 	 46.5483 	 123.276
| 33> H 	 -97.8161 	 47.1166 	 122.362
| 34> H 	 -99.0107 	 46.5569 	 123.366
| 35> C 	 -97.2339 	 45.1473 	 123.28
| 36> H 	 -97.3054 	 44.7213 	 122.3
| 37> H 	 -97.7546 	 44.4874 	 124.024
| 38> H 	 -96.1711 	 45.1977 	 123.474
| 39> H 	 -91.5163 	 50.6782 	 123.738
| 40> H 	 -99.7576 	 51.397 	 124.495
| 41> *
| 42>
| 43>                          ****END OF INPUT****

CARTESIAN COORDINATES (ANGSTROEM)
---------------------------------
  S    -93.783900   50.839700  124.852000
  C    -92.530700   50.344300  123.735000
  C    -93.035500   49.695700  122.627000
  C    -94.467800   49.563900  122.731000
  C    -95.030200   49.932000  123.983000
  H    -95.095200   49.212000  121.977000
  C    -92.210100   49.383000  121.390000
  H    -91.614000   50.278600  121.131000
  H    -92.971900   49.091800  120.662000
  C    -91.302700   48.123800  121.563000
  H    -90.567200   48.271600  122.237000
  H    -91.942100   47.434000  122.070000
  C    -90.861800   47.697300  120.128000
  H    -90.301000   48.487500  119.615000
  H    -90.130100   46.815300  120.236000
  H    -91.648200   47.436000  119.459000
  S    -97.227800   51.610500  124.280000
  C    -98.758900   50.912900  124.363000
  C    -98.723600   49.501700  124.495000
  C    -97.415800   48.956700  124.223000
  C    -96.453800   49.999600  124.224000
  H    -99.637400   48.933100  124.669000
  C    -97.187000   47.465300  124.290000
  H    -97.533100   47.128200  125.308000
  H    -96.183000   47.195400  124.241000
  C    -97.876200   46.548300  123.276000
  H    -97.816100   47.116600  122.362000
  H    -99.010700   46.556900  123.366000
  C    -97.233900   45.147300  123.280000
  H    -97.305400   44.721300  122.300000
  H    -97.754600   44.487400  124.024000
  H    -96.171100   45.197700  123.474000
  H    -91.516300   50.678200  123.738000
  H    -99.757600   51.397000  124.495000

 Total Charge           Charge          ....    0
 Multiplicity           Mult            ....    1
 Number of Electrons    NEL             ....  134
 Basis Dimension        Dim             ....  322

ORBITAL ENERGIES
----------------

  NO   OCC          E(Eh)            E(eV)
   0   2.0000     -88.970022     -2420.9974
   1   2.0000     -88.967176     -2420.9199
   2   2.0000     -10.330640      -281.1110
   3   2.0000     -10.330323      -281.1024
   4   2.0000     -10.318838      -280.7899
   5   2.0000     -10.311015      -280.5770
   6   2.0000     -10.309612      -280.5388
   7   2.0000     -10.298702      -280.2419
   8   2.0000     -10.295422      -280.1527
   9   2.0000     -10.295214      -280.1470
  10   2.0000     -10.294322      -280.1227
  11   2.0000     -10.288599      -279.9670
  12   2.0000     -10.287351      -279.9330
  13   2.0000     -10.286542      -279.9111
  14   2.0000     -10.282661      -279.8054
  15   2.0000     -10.281164      -279.7647
  16   2.0000      -8.085033      -220.0049
  17   2.0000      -8.081268      -219.9025
  18   2.0000      -6.043489      -164.4517
  19   2.0000      -6.039877      -164.3534
  20   2.0000      -6.039504      -164.3433
  21   2.0000      -6.035855      -164.2440
  22   2.0000      -6.035811      -164.2428
  23   2.0000      -6.031975      -164.1384
  24   2.0000      -1.001515       -27.2526
  25   2.0000      -0.980292       -26.6751
  26   2.0000      -0.911538       -24.8042
  27   2.0000      -0.910830       -24.7850
  28   2.0000      -0.866933       -23.5905
  29   2.0000      -0.852617       -23.2009
  30   2.0000      -0.843206       -22.9448
  31   2.0000      -0.805464       -21.9178
  32   2.0000      -0.781813       -21.2742
  33   2.0000      -0.768145       -20.9023
  34   2.0000      -0.714137       -19.4327
  35   2.0000      -0.706655       -19.2291
  36   2.0000      -0.695313       -18.9204
  37   2.0000      -0.654281       -17.8039
  38   2.0000      -0.639687       -17.4068
  39   2.0000      -0.616758       -16.7829
  40   2.0000      -0.597244       -16.2518
  41   2.0000      -0.572308       -15.5733
  42   2.0000      -0.562838       -15.3156
  43   2.0000      -0.558469       -15.1967
  44   2.0000      -0.521124       -14.1805
  45   2.0000      -0.516605       -14.0575
  46   2.0000      -0.511630       -13.9222
  47   2.0000      -0.510684       -13.8964
  48   2.0000      -0.503273       -13.6947
  49   2.0000      -0.497125       -13.5274
  50   2.0000      -0.493716       -13.4347
  51   2.0000      -0.480697       -13.0804
  52   2.0000      -0.476024       -12.9533
  53   2.0000      -0.467634       -12.7250
  54   2.0000      -0.461405       -12.5555
  55   2.0000      -0.452970       -12.3259
  56   2.0000      -0.445458       -12.1215
  57   2.0000      -0.438733       -11.9385
  58   2.0000      -0.434538       -11.8244
  59   2.0000      -0.431614       -11.7448
  60   2.0000      -0.421577       -11.4717
  61   2.0000      -0.416225       -11.3261
  62   2.0000      -0.408840       -11.1251
  63   2.0000      -0.339044        -9.2258
  64   2.0000      -0.330493        -8.9932
  65   2.0000      -0.325239        -8.8502
  66   2.0000      -0.289281        -7.8717
  67   0.0000       0.028002         0.7620
  68   0.0000       0.059992         1.6325
  69   0.0000       0.110299         3.0014
  70   0.0000       0.114291         3.1100
  71   0.0000       0.126180         3.4335

MULLIKEN ATOMIC CHARGES
-----------------------
   0 S :    0.105517
   1 C :   -0.100026
   2 C :   -0.107156
   3 C :    0.044429
   4 C :   -0.158677
   5 H :   -0.007931
   6 C :    0.042301
   7 H :    0.047362
   8 H :    0.020034
   9 C :   -0.012735
  10 H :    0.002721
  11 H :    0.020891
  12 C :   -0.062703
  13 H :    0.031842
  14 H :    0.043943
  15 H :    0.033528
  16 S :    0.134721
  17 C :   -0.105183
  18 C :   -0.052469
  19 C :   -0.022457
  20 C :   -0.162215
  21 H :    0.025471
  22 C :    0.064913
  23 H :    0.038760
  24 H :    0.001141
  25 C :   -0.108111
  26 H :    0.017318
  27 H :    0.031050
  28 C :   -0.030700
  29 H :    0.032118
  30 H :    0.050149
  31 H :    0.031581
  32 H :    0.038044
  33 H :    0.072529
Sum of atomic charges:    0.0000000

LOEWDIN ATOMIC CHARGES
----------------------
   0 S :    0.400505
   1 C :   -0.194351
   2 C :   -0.069669
   3 C :   -0.046850
   4 C :   -0.201808
   5 H :    0.017498
   6 C :   -0.026845
   7 H :    0.033884
   8 H :    0.031266
   9 C :   -0.025380
  10 H :    0.007202
  11 H :    0.024496
  12 C :   -0.066495
  13 H :    0.026475
  14 H :    0.034188
  15 H :    0.020910
  16 S :    0.428116
  17 C :   -0.217775
  18 C :   -0.075146
  19 C :   -0.046434
  20 C :   -0.197401
  21 H :    0.030419
  22 C :   -0.032553
  23 H :    0.039549
  24 H :    0.017618
  25 C :   -0.049641
  26 H :    0.018589
  27 H :    0.027019
  28 C :   -0.061498
  29 H :    0.026584
  30 H :    0.035975
  31 H :    0.025889
  32 H :    0.024169
  33 H :    0.041495

  Mayer bond orders larger than 0.100000
B(  0-S ,  1-C ) :   1.1494 B(  0-S ,  4-C ) :   1.1426 B(  1-C ,  2-C ) :   1.5912
B(  1-C , 32-H ) :   0.9671 B(  2-C ,  3-C ) :   1.2687 B(  2-C ,  6-C ) :   1.0176
B(  3-C ,  4-C ) :   1.5353 B(  3-C ,  5-H ) :   0.9982 B(  4-C , 20-C ) :   1.0653
B(  6-C ,  7-H ) :   0.9428 B(  6-C ,  8-H ) :   0.9456 B(  6-C ,  9-C ) :   1.0539
B(  9-C , 10-H ) :   0.9591 B(  9-C , 11-H ) :   0.9549 B(  9-C , 12-C ) :   1.0718
B( 12-C , 13-H ) :   0.9742 B( 12-C , 14-H ) :   0.9755 B( 12-C , 15-H ) :   0.9780
B( 16-S , 17-C ) :   1.1800 B( 16-S , 20-C ) :   1.1366 B( 17-C , 18-C ) :   1.5945
B( 17-C , 33-H ) :   0.9582 B( 18-C , 19-C ) :   1.2439 B( 18-C , 21-H ) :   0.9853
B( 19-C , 20-C ) :   1.5693 B( 19-C , 22-C ) :   1.0601 B( 22-C , 23-H ) :   0.9363
B( 22-C , 24-H ) :   0.9358 B( 22-C , 25-C ) :   1.0466 B( 25-C , 26-H ) :   0.9598
B( 25-C , 27-H ) :   0.9523 B( 25-C , 28-C ) :   1.0714 B( 28-C , 29-H ) :   0.9748
B( 28-C , 30-H ) :   0.9756 B( 28-C , 31-H ) :   0.9757

Dispersion correction           -0.013418880
FINAL SINGLE POINT ENERGY     -1339.855124078606

DIPOLE MOMENT
-------------
                                X             Y             Z
Electronic contribution:     -7.35490      25.85458      15.75075
Nuclear contribution   :      7.35217     -26.28274     -16.21890
                        -----------------------------------------
Total Dipole Moment    :     -0.00273      -0.42817      -0.46815
                        -----------------------------------------
Magnitude (a.u.)       :      0.63443
Magnitude (Debye)      :      1.61259

Rotational constants in cm-1:     0.016576     0.008458     0.006160
Rotational constants in MHz :   496.940121   253.559577   184.657632

                             ****ORCA TERMINATED NORMALLY****
TOTAL RUN TIME: 0 days 0 hours 0 minutes 32 seconds 891 msec
