                         Program Version 4.2.1 -  RELEASE  -
|  1> ! wB97X-D3 SP def2-SVP
|  2> %pal
|  3> nprocs 16
|  4> end
|  5>
|  6> * xyz 0 1
|  7> S 	 56.449 	 6.84618 	 63.4393
|  8> C 	 57.0912 	 7.76822 	 64.8396
|  9> C 	 56.1076 	 8.68483 	 65.2928
| 10> C 	 54.8424 	 8.51071 	 64.6856
| 11> C 	 54.8273 	 7.61 	 63.6248
| 12> H 	 53.9843 	 9.07269 	 64.7835
| 13> C 	 56.3469 	 9.80836 	 66.2039
| 14> H 	 57.0587 	 9.55874 	 67.0457
| 15> H 	 55.4559 	 10.0606 	 66.7068
| 16> C 	 56.9499 	 11.0645 	 65.4657
| 17> H 	 57.8381 	 10.829 	 65.0435
| 18> H 	 56.3245 	 11.4835 	 64.6652
| 19> C 	 57.1619 	 12.2506 	 66.4392
| 20> H 	 56.2076 	 12.6461 	 66.6889
| 21> H 	 57.7067 	 11.9149 	 67.3206
| 22> H 	 57.7183 	 13.0869 	 66.0715
| 23> S 	 53.1229 	 5.67091 	 62.8959
| 24> C 	 52.0532 	 5.90941 	 61.4947
| 25> C 	 52.2232 	 7.13132 	 60.9511
| 26> C 	 53.2628 	 7.87918 	 61.5386
| 27> C 	 53.7523 	 7.27932 	 62.6949
| 28> H 	 51.6775 	 7.39205 	 60.0547
| 29> C 	 53.7005 	 9.29079 	 60.9451
| 30> H 	 54.0971 	 9.90478 	 61.8341
| 31> H 	 52.6918 	 9.74415 	 60.8927
| 32> C 	 54.6155 	 9.28816 	 59.7193
| 33> H 	 55.6429 	 9.05988 	 59.9886
| 34> H 	 54.7043 	 10.3165 	 59.374
| 35> C 	 54.0491 	 8.458 	 58.5254
| 36> H 	 53.8905 	 7.44725 	 58.8282
| 37> H 	 54.8185 	 8.35604 	 57.678
| 38> H 	 53.0762 	 8.88771 	 58.1954
| 39> H 	 58.1708 	 7.94644 	 64.9685
| 40> H 	 51.3021 	 5.24147 	 61.0947
| 41> *
| 42>
| 43>                          ****END OF INPUT****

CARTESIAN COORDINATES (ANGSTROEM)
---------------------------------
  S     56.449000    6.846180   63.439300
  C     57.091200    7.768220   64.839600
  C     56.107600    8.684830   65.292800
  C     54.842400    8.510710   64.685600
  C     54.827300    7.610000   63.624800
  H     53.984300    9.072690   64.783500
  C     56.346900    9.808360   66.203900
  H     57.058700    9.558740   67.045700
  H     55.455900   10.060600   66.706800
  C     56.949900   11.064500   65.465700
  H     57.838100   10.829000   65.043500
  H     56.324500   11.483500   64.665200
  C     57.161900   12.250600   66.439200
  H     56.207600   12.646100   66.688900
  H     57.706700   11.914900   67.320600
  H     57.718300   13.086900   66.071500
  S     53.122900    5.670910   62.895900
  C     52.053200    5.909410   61.494700
  C     52.223200    7.131320   60.951100
  C     53.262800    7.879180   61.538600
  C     53.752300    7.279320   62.694900
  H     51.677500    7.392050   60.054700
  C     53.700500    9.290790   60.945100
  H     54.097100    9.904780   61.834100
  H     52.691800    9.744150   60.892700
  C     54.615500    9.288160   59.719300
  H     55.642900    9.059880   59.988600
  H     54.704300   10.316500   59.374000
  C     54.049100    8.458000   58.525400
  H     53.890500    7.447250   58.828200
  H     54.818500    8.356040   57.678000
  H     53.076200    8.887710   58.195400
  H     58.170800    7.946440   64.968500
  H     51.302100    5.241470   61.094700

 Total Charge           Charge          ....    0
 Multiplicity           Mult            ....    1
 Number of Electrons    NEL             ....  134
 Basis Dimension        Dim             ....  322

ORBITAL ENERGIES
----------------

  NO   OCC          E(Eh)            E(eV)
   0   2.0000     -88.965151     -2420.8648
   1   2.0000     -88.964949     -2420.8593
   2   2.0000     -10.333696      -281.1942
   3   2.0000     -10.325296      -280.9656
   4   2.0000     -10.319623      -280.8112
   5   2.0000     -10.315463      -280.6980
   6   2.0000     -10.306430      -280.4522
   7   2.0000     -10.304226      -280.3922
   8   2.0000     -10.303784      -280.3802
   9   2.0000     -10.292571      -280.0751
  10   2.0000     -10.291475      -280.0453
  11   2.0000     -10.290296      -280.0132
  12   2.0000     -10.288526      -279.9650
  13   2.0000     -10.285745      -279.8894
  14   2.0000     -10.283449      -279.8269
  15   2.0000     -10.273042      -279.5437
  16   2.0000      -8.079532      -219.8552
  17   2.0000      -8.078252      -219.8204
  18   2.0000      -6.038072      -164.3043
  19   2.0000      -6.036803      -164.2697
  20   2.0000      -6.034058      -164.1951
  21   2.0000      -6.032964      -164.1653
  22   2.0000      -6.030249      -164.0914
  23   2.0000      -6.029076      -164.0595
  24   2.0000      -1.003696       -27.3120
  25   2.0000      -0.978106       -26.6156
  26   2.0000      -0.910814       -24.7845
  27   2.0000      -0.900280       -24.4979
  28   2.0000      -0.869808       -23.6687
  29   2.0000      -0.848841       -23.0981
  30   2.0000      -0.842553       -22.9270
  31   2.0000      -0.817347       -22.2411
  32   2.0000      -0.779828       -21.2202
  33   2.0000      -0.767134       -20.8748
  34   2.0000      -0.711039       -19.3483
  35   2.0000      -0.708892       -19.2899
  36   2.0000      -0.693315       -18.8661
  37   2.0000      -0.659846       -17.9553
  38   2.0000      -0.646581       -17.5944
  39   2.0000      -0.617520       -16.8036
  40   2.0000      -0.583976       -15.8908
  41   2.0000      -0.573212       -15.5979
  42   2.0000      -0.561030       -15.2664
  43   2.0000      -0.550113       -14.9693
  44   2.0000      -0.542314       -14.7571
  45   2.0000      -0.521512       -14.1911
  46   2.0000      -0.517304       -14.0766
  47   2.0000      -0.515210       -14.0196
  48   2.0000      -0.504971       -13.7410
  49   2.0000      -0.495647       -13.4873
  50   2.0000      -0.481408       -13.0998
  51   2.0000      -0.475194       -12.9307
  52   2.0000      -0.472159       -12.8481
  53   2.0000      -0.464479       -12.6391
  54   2.0000      -0.457366       -12.4456
  55   2.0000      -0.445984       -12.1358
  56   2.0000      -0.442606       -12.0439
  57   2.0000      -0.439530       -11.9602
  58   2.0000      -0.432722       -11.7750
  59   2.0000      -0.427734       -11.6392
  60   2.0000      -0.422465       -11.4959
  61   2.0000      -0.421078       -11.4581
  62   2.0000      -0.407430       -11.0867
  63   2.0000      -0.340844        -9.2748
  64   2.0000      -0.330084        -8.9821
  65   2.0000      -0.324416        -8.8278
  66   2.0000      -0.301166        -8.1951
  67   0.0000       0.035395         0.9631
  68   0.0000       0.048654         1.3240
  69   0.0000       0.113317         3.0835
  70   0.0000       0.118145         3.2149
  71   0.0000       0.127455         3.4682

MULLIKEN ATOMIC CHARGES
-----------------------
   0 S :    0.097126
   1 C :   -0.118947
   2 C :   -0.085021
   3 C :    0.092677
   4 C :   -0.170906
   5 H :   -0.017425
   6 C :    0.048156
   7 H :    0.034769
   8 H :    0.010639
   9 C :   -0.035175
  10 H :   -0.001041
  11 H :    0.029231
  12 C :   -0.034986
  13 H :    0.020887
  14 H :    0.023706
  15 H :    0.027397
  16 S :    0.109904
  17 C :   -0.082564
  18 C :   -0.039133
  19 C :   -0.035916
  20 C :   -0.196202
  21 H :    0.018310
  22 C :    0.025304
  23 H :    0.034669
  24 H :    0.034494
  25 C :   -0.016671
  26 H :    0.036145
  27 H :    0.028842
  28 C :   -0.089258
  29 H :    0.042468
  30 H :    0.047745
  31 H :    0.040017
  32 H :    0.069473
  33 H :    0.051283
Sum of atomic charges:   -0.0000000

LOEWDIN ATOMIC CHARGES
----------------------
   0 S :    0.370772
   1 C :   -0.198518
   2 C :   -0.057230
   3 C :   -0.051633
   4 C :   -0.175146
   5 H :    0.021355
   6 C :   -0.030962
   7 H :    0.038900
   8 H :    0.023167
   9 C :   -0.022911
  10 H :    0.005380
  11 H :    0.026957
  12 C :   -0.061219
  13 H :    0.019524
  14 H :    0.022503
  15 H :    0.023268
  16 S :    0.405204
  17 C :   -0.174053
  18 C :   -0.078757
  19 C :   -0.055296
  20 C :   -0.212568
  21 H :    0.032735
  22 C :   -0.039368
  23 H :    0.038969
  24 H :    0.033555
  25 C :   -0.040411
  26 H :    0.028784
  27 H :    0.027308
  28 C :   -0.070181
  29 H :    0.019751
  30 H :    0.036824
  31 H :    0.028012
  32 H :    0.033700
  33 H :    0.031585

  Mayer bond orders larger than 0.100000
B(  0-S ,  1-C ) :   1.1300 B(  0-S ,  4-C ) :   1.1509 B(  1-C ,  2-C ) :   1.5952
B(  1-C ,  4-C ) :   0.1093 B(  1-C , 32-H ) :   0.9604 B(  2-C ,  3-C ) :   1.2331
B(  2-C ,  6-C ) :   1.0528 B(  3-C ,  4-C ) :   1.5896 B(  3-C ,  5-H ) :   1.0015
B(  4-C , 20-C ) :   1.0098 B(  6-C ,  7-H ) :   0.9387 B(  6-C ,  8-H ) :   0.9395
B(  6-C ,  9-C ) :   1.0484 B(  9-C , 10-H ) :   0.9574 B(  9-C , 11-H ) :   0.9588
B(  9-C , 12-C ) :   1.0820 B( 12-C , 13-H ) :   0.9778 B( 12-C , 14-H ) :   0.9745
B( 12-C , 15-H ) :   0.9746 B( 16-S , 17-C ) :   1.1412 B( 16-S , 20-C ) :   1.1509
B( 17-C , 18-C ) :   1.6398 B( 17-C , 33-H ) :   0.9634 B( 18-C , 19-C ) :   1.2388
B( 18-C , 21-H ) :   0.9829 B( 19-C , 20-C ) :   1.6175 B( 19-C , 22-C ) :   0.9945
B( 22-C , 23-H ) :   0.9402 B( 22-C , 24-H ) :   0.9476 B( 22-C , 25-C ) :   1.0619
B( 25-C , 26-H ) :   0.9544 B( 25-C , 27-H ) :   0.9526 B( 25-C , 28-C ) :   1.0726
B( 28-C , 29-H ) :   0.9729 B( 28-C , 30-H ) :   0.9725 B( 28-C , 31-H ) :   0.9742

Dispersion correction           -0.014414509
FINAL SINGLE POINT ENERGY     -1339.861191090330

DIPOLE MOMENT
-------------
                                X             Y             Z
Electronic contribution:     -5.48484     -24.82227       3.20372
Nuclear contribution   :      5.42871      25.59198      -3.47861
                        -----------------------------------------
Total Dipole Moment    :     -0.05613       0.76971      -0.27488
                        -----------------------------------------
Magnitude (a.u.)       :      0.81925
Magnitude (Debye)      :      2.08236

Rotational constants in cm-1:     0.020480     0.007836     0.006658
Rotational constants in MHz :   613.987821   234.925615   199.600871

                             ****ORCA TERMINATED NORMALLY****
TOTAL RUN TIME: 0 days 0 hours 0 minutes 29 seconds 781 msec
