                         Program Version 4.2.1 -  RELEASE  -
|  1> ! wB97X-D3 SP def2-SVP
|  2> %pal
|  3> nprocs 16
|  4> end
|  5>
|  6> * xyz 0 1
|  7> S 	 -29.865 	 59.898 	 108.569
|  8> C 	 -29.4398 	 59.365 	 106.896
|  9> C 	 -30.4429 	 59.7449 	 106.046
| 10> C 	 -31.6461 	 60.1536 	 106.734
| 11> C 	 -31.4816 	 60.2538 	 108.077
| 12> H 	 -32.5399 	 60.3501 	 106.223
| 13> C 	 -30.3989 	 59.5626 	 104.526
| 14> H 	 -31.3031 	 60.1403 	 104.204
| 15> H 	 -30.5055 	 58.5361 	 104.231
| 16> C 	 -29.1427 	 60.1144 	 103.795
| 17> H 	 -28.8243 	 61.1225 	 104.112
| 18> H 	 -28.3443 	 59.4907 	 104.115
| 19> C 	 -29.2426 	 60.1599 	 102.335
| 20> H 	 -28.4301 	 60.7065 	 101.851
| 21> H 	 -29.2084 	 59.1175 	 101.994
| 22> H 	 -30.1205 	 60.6589 	 101.976
| 23> S 	 -32.2305 	 62.1272 	 110.028
| 24> C 	 -33.5922 	 61.7338 	 111.094
| 25> C 	 -34.2212 	 60.6076 	 110.641
| 26> C 	 -33.6148 	 60.0457 	 109.441
| 27> C 	 -32.4431 	 60.6991 	 109.069
| 28> H 	 -35.1788 	 60.3961 	 111.081
| 29> C 	 -34.0087 	 58.753 	 108.825
| 30> H 	 -34.4526 	 58.1975 	 109.64
| 31> H 	 -33.255 	 58.1232 	 108.441
| 32> C 	 -35.0766 	 58.9433 	 107.67
| 33> H 	 -34.4965 	 59.4776 	 106.959
| 34> H 	 -35.9722 	 59.544 	 107.875
| 35> C 	 -35.5019 	 57.5695 	 107.123
| 36> H 	 -34.5765 	 56.9765 	 106.976
| 37> H 	 -36.0293 	 57.651 	 106.113
| 38> H 	 -36.1244 	 57.0063 	 107.743
| 39> H 	 -28.3736 	 59.13 	 106.565
| 40> H 	 -33.9339 	 62.3855 	 111.806
| 41> *
| 42>
| 43>                          ****END OF INPUT****

CARTESIAN COORDINATES (ANGSTROEM)
---------------------------------
  S    -29.865000   59.898000  108.569000
  C    -29.439800   59.365000  106.896000
  C    -30.442900   59.744900  106.046000
  C    -31.646100   60.153600  106.734000
  C    -31.481600   60.253800  108.077000
  H    -32.539900   60.350100  106.223000
  C    -30.398900   59.562600  104.526000
  H    -31.303100   60.140300  104.204000
  H    -30.505500   58.536100  104.231000
  C    -29.142700   60.114400  103.795000
  H    -28.824300   61.122500  104.112000
  H    -28.344300   59.490700  104.115000
  C    -29.242600   60.159900  102.335000
  H    -28.430100   60.706500  101.851000
  H    -29.208400   59.117500  101.994000
  H    -30.120500   60.658900  101.976000
  S    -32.230500   62.127200  110.028000
  C    -33.592200   61.733800  111.094000
  C    -34.221200   60.607600  110.641000
  C    -33.614800   60.045700  109.441000
  C    -32.443100   60.699100  109.069000
  H    -35.178800   60.396100  111.081000
  C    -34.008700   58.753000  108.825000
  H    -34.452600   58.197500  109.640000
  H    -33.255000   58.123200  108.441000
  C    -35.076600   58.943300  107.670000
  H    -34.496500   59.477600  106.959000
  H    -35.972200   59.544000  107.875000
  C    -35.501900   57.569500  107.123000
  H    -34.576500   56.976500  106.976000
  H    -36.029300   57.651000  106.113000
  H    -36.124400   57.006300  107.743000
  H    -28.373600   59.130000  106.565000
  H    -33.933900   62.385500  111.806000

 Total Charge           Charge          ....    0
 Multiplicity           Mult            ....    1
 Number of Electrons    NEL             ....  134
 Basis Dimension        Dim             ....  322

ORBITAL ENERGIES
----------------

  NO   OCC          E(Eh)            E(eV)
   0   2.0000     -88.964129     -2420.8370
   1   2.0000     -88.962709     -2420.7984
   2   2.0000     -10.328247      -281.0459
   3   2.0000     -10.323387      -280.9136
   4   2.0000     -10.320416      -280.8328
   5   2.0000     -10.314331      -280.6672
   6   2.0000     -10.303363      -280.3688
   7   2.0000     -10.302887      -280.3558
   8   2.0000     -10.296911      -280.1932
   9   2.0000     -10.296426      -280.1800
  10   2.0000     -10.291824      -280.0548
  11   2.0000     -10.285607      -279.8856
  12   2.0000     -10.284119      -279.8451
  13   2.0000     -10.282173      -279.7921
  14   2.0000     -10.278719      -279.6982
  15   2.0000     -10.274144      -279.5737
  16   2.0000      -8.078669      -219.8318
  17   2.0000      -8.077514      -219.8003
  18   2.0000      -6.037256      -164.2821
  19   2.0000      -6.036014      -164.2483
  20   2.0000      -6.033279      -164.1739
  21   2.0000      -6.031985      -164.1387
  22   2.0000      -6.029251      -164.0643
  23   2.0000      -6.028298      -164.0383
  24   2.0000      -1.008329       -27.4380
  25   2.0000      -0.983155       -26.7530
  26   2.0000      -0.916408       -24.9367
  27   2.0000      -0.906977       -24.6801
  28   2.0000      -0.875286       -23.8177
  29   2.0000      -0.850737       -23.1497
  30   2.0000      -0.845768       -23.0145
  31   2.0000      -0.820838       -22.3361
  32   2.0000      -0.782504       -21.2930
  33   2.0000      -0.767927       -20.8964
  34   2.0000      -0.709112       -19.2959
  35   2.0000      -0.702770       -19.1233
  36   2.0000      -0.697949       -18.9922
  37   2.0000      -0.663150       -18.0452
  38   2.0000      -0.638180       -17.3658
  39   2.0000      -0.623353       -16.9623
  40   2.0000      -0.602426       -16.3929
  41   2.0000      -0.573661       -15.6101
  42   2.0000      -0.570430       -15.5222
  43   2.0000      -0.560024       -15.2390
  44   2.0000      -0.529560       -14.4101
  45   2.0000      -0.525501       -14.2996
  46   2.0000      -0.516691       -14.0599
  47   2.0000      -0.512350       -13.9418
  48   2.0000      -0.509524       -13.8648
  49   2.0000      -0.506942       -13.7946
  50   2.0000      -0.494039       -13.4435
  51   2.0000      -0.477624       -12.9968
  52   2.0000      -0.472855       -12.8670
  53   2.0000      -0.464047       -12.6274
  54   2.0000      -0.463163       -12.6033
  55   2.0000      -0.457146       -12.4396
  56   2.0000      -0.445667       -12.1272
  57   2.0000      -0.436243       -11.8708
  58   2.0000      -0.426199       -11.5975
  59   2.0000      -0.419640       -11.4190
  60   2.0000      -0.418776       -11.3955
  61   2.0000      -0.415992       -11.3197
  62   2.0000      -0.411987       -11.2107
  63   2.0000      -0.343291        -9.3414
  64   2.0000      -0.332328        -9.0431
  65   2.0000      -0.326015        -8.8713
  66   2.0000      -0.302003        -8.2179
  67   0.0000       0.035538         0.9670
  68   0.0000       0.063575         1.7300
  69   0.0000       0.109707         2.9853
  70   0.0000       0.120352         3.2750
  71   0.0000       0.127914         3.4807

MULLIKEN ATOMIC CHARGES
-----------------------
   0 S :    0.104714
   1 C :   -0.155147
   2 C :   -0.081585
   3 C :    0.049137
   4 C :   -0.144443
   5 H :   -0.002372
   6 C :    0.052794
   7 H :    0.021327
   8 H :    0.042402
   9 C :   -0.080644
  10 H :    0.024796
  11 H :    0.016030
  12 C :   -0.023599
  13 H :    0.032689
  14 H :    0.025042
  15 H :    0.024232
  16 S :    0.099324
  17 C :   -0.070383
  18 C :   -0.011041
  19 C :   -0.022502
  20 C :   -0.158090
  21 H :    0.020888
  22 C :    0.058382
  23 H :    0.016093
  24 H :    0.027885
  25 C :   -0.061377
  26 H :    0.002801
  27 H :    0.034728
  28 C :   -0.044548
  29 H :    0.024693
  30 H :    0.041960
  31 H :    0.023912
  32 H :    0.080564
  33 H :    0.031340
Sum of atomic charges:   -0.0000000

LOEWDIN ATOMIC CHARGES
----------------------
   0 S :    0.393812
   1 C :   -0.194798
   2 C :   -0.060278
   3 C :   -0.058769
   4 C :   -0.188747
   5 H :    0.021655
   6 C :   -0.026864
   7 H :    0.030929
   8 H :    0.031580
   9 C :   -0.045827
  10 H :    0.025578
  11 H :    0.016637
  12 C :   -0.062774
  13 H :    0.030011
  14 H :    0.026401
  15 H :    0.022255
  16 S :    0.396092
  17 C :   -0.158679
  18 C :   -0.065238
  19 C :   -0.052298
  20 C :   -0.209546
  21 H :    0.032127
  22 C :   -0.026932
  23 H :    0.027968
  24 H :    0.026418
  25 C :   -0.032351
  26 H :    0.013624
  27 H :    0.024889
  28 C :   -0.067238
  29 H :    0.026927
  30 H :    0.033616
  31 H :    0.013937
  32 H :    0.043026
  33 H :    0.012854

  Mayer bond orders larger than 0.100000
B(  0-S ,  1-C ) :   1.1111 B(  0-S ,  4-C ) :   1.1529 B(  1-C ,  2-C ) :   1.6434
B(  1-C , 32-H ) :   0.9582 B(  2-C ,  3-C ) :   1.2231 B(  2-C ,  6-C ) :   1.0096
B(  3-C ,  4-C ) :   1.5904 B(  3-C ,  5-H ) :   0.9995 B(  4-C , 20-C ) :   1.0277
B(  6-C ,  7-H ) :   0.9453 B(  6-C ,  8-H ) :   0.9418 B(  6-C ,  9-C ) :   1.0551
B(  9-C , 10-H ) :   0.9589 B(  9-C , 11-H ) :   0.9500 B(  9-C , 12-C ) :   1.1042
B( 12-C , 13-H ) :   0.9707 B( 12-C , 14-H ) :   0.9707 B( 12-C , 15-H ) :   0.9726
B( 16-S , 17-C ) :   1.1435 B( 16-S , 20-C ) :   1.1424 B( 17-C , 18-C ) :   1.6258
B( 17-C , 33-H ) :   0.9789 B( 18-C , 19-C ) :   1.2308 B( 18-C , 21-H ) :   0.9875
B( 19-C , 20-C ) :   1.5847 B( 19-C , 22-C ) :   1.0603 B( 22-C , 23-H ) :   0.9387
B( 22-C , 24-H ) :   0.9329 B( 22-C , 25-C ) :   1.0416 B( 25-C , 26-H ) :   0.9542
B( 25-C , 27-H ) :   0.9599 B( 25-C , 28-C ) :   1.0810 B( 28-C , 29-H ) :   0.9706
B( 28-C , 30-H ) :   0.9733 B( 28-C , 31-H ) :   0.9785

Dispersion correction           -0.014065029
FINAL SINGLE POINT ENERGY     -1339.871607121437

DIPOLE MOMENT
-------------
                                X             Y             Z
Electronic contribution:      6.95439      11.95055      25.26717
Nuclear contribution   :     -7.27425     -12.13635     -25.75481
                        -----------------------------------------
Total Dipole Moment    :     -0.31986      -0.18580      -0.48764
                        -----------------------------------------
Magnitude (a.u.)       :      0.61207
Magnitude (Debye)      :      1.55575

Rotational constants in cm-1:     0.019458     0.007995     0.006347
Rotational constants in MHz :   583.326504   239.670295   190.285644

                             ****ORCA TERMINATED NORMALLY****
TOTAL RUN TIME: 0 days 0 hours 0 minutes 29 seconds 981 msec
