                         Program Version 4.2.1 -  RELEASE  -
|  1> ! wB97X-D3 SP def2-SVP
|  2> %pal
|  3> nprocs 16
|  4> end
|  5>
|  6> * xyz 0 1
|  7> S 	 19.0821 	 -6.51351 	 80.8597
|  8> C 	 18.5075 	 -6.18712 	 79.2297
|  9> C 	 17.7754 	 -7.24361 	 78.6917
| 10> C 	 18.0104 	 -8.40508 	 79.4446
| 11> C 	 18.645 	 -8.19214 	 80.6618
| 12> H 	 17.6086 	 -9.38382 	 79.1609
| 13> C 	 17.232 	 -7.38689 	 77.3131
| 14> H 	 17.4624 	 -8.30492 	 76.8228
| 15> H 	 17.6072 	 -6.55965 	 76.6178
| 16> C 	 15.6993 	 -7.29886 	 77.1688
| 17> H 	 15.281 	 -8.22698 	 77.4873
| 18> H 	 15.253 	 -6.53849 	 77.8269
| 19> C 	 15.2638 	 -7.02447 	 75.7024
| 20> H 	 14.1933 	 -7.27579 	 75.6085
| 21> H 	 15.5365 	 -6.04934 	 75.2793
| 22> H 	 15.5539 	 -7.75138 	 75.0079
| 23> S 	 20.5679 	 -8.79606 	 82.5522
| 24> C 	 20.3415 	 -10.2231 	 83.5246
| 25> C 	 19.2219 	 -10.9407 	 83.1605
| 26> C 	 18.3673 	 -10.3093 	 82.1762
| 27> C 	 19.0231 	 -9.12335 	 81.6985
| 28> H 	 18.8714 	 -11.7651 	 83.7707
| 29> C 	 17.0367 	 -10.8696 	 81.7575
| 30> H 	 17.2736 	 -11.8261 	 81.3701
| 31> H 	 16.6771 	 -10.1258 	 81.0642
| 32> C 	 15.9888 	 -11.1065 	 82.8724
| 33> H 	 15.7618 	 -10.3082 	 83.5691
| 34> H 	 16.3908 	 -11.7411 	 83.6485
| 35> C 	 14.7706 	 -11.8399 	 82.3204
| 36> H 	 15.0111 	 -12.7643 	 81.8435
| 37> H 	 14.1486 	 -11.1985 	 81.6125
| 38> H 	 14.0488 	 -12.0534 	 83.1234
| 39> H 	 18.5275 	 -5.23473 	 78.7024
| 40> H 	 21.0581 	 -10.4358 	 84.3051
| 41> *
| 42>
| 43>                          ****END OF INPUT****

CARTESIAN COORDINATES (ANGSTROEM)
---------------------------------
  S     19.082100   -6.513510   80.859700
  C     18.507500   -6.187120   79.229700
  C     17.775400   -7.243610   78.691700
  C     18.010400   -8.405080   79.444600
  C     18.645000   -8.192140   80.661800
  H     17.608600   -9.383820   79.160900
  C     17.232000   -7.386890   77.313100
  H     17.462400   -8.304920   76.822800
  H     17.607200   -6.559650   76.617800
  C     15.699300   -7.298860   77.168800
  H     15.281000   -8.226980   77.487300
  H     15.253000   -6.538490   77.826900
  C     15.263800   -7.024470   75.702400
  H     14.193300   -7.275790   75.608500
  H     15.536500   -6.049340   75.279300
  H     15.553900   -7.751380   75.007900
  S     20.567900   -8.796060   82.552200
  C     20.341500  -10.223100   83.524600
  C     19.221900  -10.940700   83.160500
  C     18.367300  -10.309300   82.176200
  C     19.023100   -9.123350   81.698500
  H     18.871400  -11.765100   83.770700
  C     17.036700  -10.869600   81.757500
  H     17.273600  -11.826100   81.370100
  H     16.677100  -10.125800   81.064200
  C     15.988800  -11.106500   82.872400
  H     15.761800  -10.308200   83.569100
  H     16.390800  -11.741100   83.648500
  C     14.770600  -11.839900   82.320400
  H     15.011100  -12.764300   81.843500
  H     14.148600  -11.198500   81.612500
  H     14.048800  -12.053400   83.123400
  H     18.527500   -5.234730   78.702400
  H     21.058100  -10.435800   84.305100

 Total Charge           Charge          ....    0
 Multiplicity           Mult            ....    1
 Number of Electrons    NEL             ....  134
 Basis Dimension        Dim             ....  322

ORBITAL ENERGIES
----------------

  NO   OCC          E(Eh)            E(eV)
   0   2.0000     -88.968875     -2420.9662
   1   2.0000     -88.965773     -2420.8818
   2   2.0000     -10.331517      -281.1349
   3   2.0000     -10.327085      -281.0143
   4   2.0000     -10.318345      -280.7764
   5   2.0000     -10.315214      -280.6912
   6   2.0000     -10.309852      -280.5453
   7   2.0000     -10.297537      -280.2102
   8   2.0000     -10.294837      -280.1368
   9   2.0000     -10.293414      -280.0980
  10   2.0000     -10.292509      -280.0734
  11   2.0000     -10.291586      -280.0483
  12   2.0000     -10.287608      -279.9401
  13   2.0000     -10.286458      -279.9087
  14   2.0000     -10.283649      -279.8323
  15   2.0000     -10.277593      -279.6675
  16   2.0000      -8.083417      -219.9609
  17   2.0000      -8.080117      -219.8712
  18   2.0000      -6.041892      -164.4082
  19   2.0000      -6.038549      -164.3173
  20   2.0000      -6.038052      -164.3037
  21   2.0000      -6.034756      -164.2140
  22   2.0000      -6.034122      -164.1968
  23   2.0000      -6.030915      -164.1095
  24   2.0000      -1.004666       -27.3383
  25   2.0000      -0.979078       -26.6421
  26   2.0000      -0.914300       -24.8794
  27   2.0000      -0.911599       -24.8059
  28   2.0000      -0.867887       -23.6164
  29   2.0000      -0.856094       -23.2955
  30   2.0000      -0.845851       -23.0168
  31   2.0000      -0.809549       -22.0289
  32   2.0000      -0.785483       -21.3741
  33   2.0000      -0.771070       -20.9819
  34   2.0000      -0.713043       -19.4029
  35   2.0000      -0.702906       -19.1271
  36   2.0000      -0.697946       -18.9921
  37   2.0000      -0.658965       -17.9314
  38   2.0000      -0.637184       -17.3387
  39   2.0000      -0.622274       -16.9329
  40   2.0000      -0.599623       -16.3166
  41   2.0000      -0.573882       -15.6161
  42   2.0000      -0.572470       -15.5777
  43   2.0000      -0.554369       -15.0851
  44   2.0000      -0.529431       -14.4066
  45   2.0000      -0.519527       -14.1370
  46   2.0000      -0.516019       -14.0416
  47   2.0000      -0.510432       -13.8896
  48   2.0000      -0.502111       -13.6631
  49   2.0000      -0.492203       -13.3935
  50   2.0000      -0.490480       -13.3466
  51   2.0000      -0.484532       -13.1848
  52   2.0000      -0.469488       -12.7754
  53   2.0000      -0.463950       -12.6247
  54   2.0000      -0.461732       -12.5644
  55   2.0000      -0.453791       -12.3483
  56   2.0000      -0.446981       -12.1630
  57   2.0000      -0.439614       -11.9625
  58   2.0000      -0.434354       -11.8194
  59   2.0000      -0.427094       -11.6218
  60   2.0000      -0.422897       -11.5076
  61   2.0000      -0.417072       -11.3491
  62   2.0000      -0.411738       -11.2040
  63   2.0000      -0.350314        -9.5325
  64   2.0000      -0.334217        -9.0945
  65   2.0000      -0.330392        -8.9904
  66   2.0000      -0.279704        -7.6111
  67   0.0000       0.019771         0.5380
  68   0.0000       0.076280         2.0757
  69   0.0000       0.099159         2.6982
  70   0.0000       0.114942         3.1277
  71   0.0000       0.130609         3.5540

MULLIKEN ATOMIC CHARGES
-----------------------
   0 S :    0.114239
   1 C :   -0.117772
   2 C :   -0.033072
   3 C :    0.003004
   4 C :   -0.143707
   5 H :    0.016498
   6 C :    0.011966
   7 H :    0.023713
   8 H :    0.029543
   9 C :   -0.065794
  10 H :    0.012974
  11 H :    0.035690
  12 C :   -0.045155
  13 H :    0.026150
  14 H :    0.045587
  15 H :    0.006969
  16 S :    0.095122
  17 C :   -0.096002
  18 C :   -0.018902
  19 C :   -0.072623
  20 C :   -0.144129
  21 H :    0.021752
  22 C :    0.129135
  23 H :    0.026362
  24 H :    0.026092
  25 C :   -0.078131
  26 H :    0.027288
  27 H :    0.010250
  28 C :   -0.054971
  29 H :    0.029092
  30 H :    0.036610
  31 H :    0.032689
  32 H :    0.047272
  33 H :    0.062260
Sum of atomic charges:   -0.0000000

LOEWDIN ATOMIC CHARGES
----------------------
   0 S :    0.406669
   1 C :   -0.191152
   2 C :   -0.066798
   3 C :   -0.064680
   4 C :   -0.194383
   5 H :    0.030744
   6 C :   -0.034706
   7 H :    0.027836
   8 H :    0.035888
   9 C :   -0.035423
  10 H :    0.016495
  11 H :    0.025549
  12 C :   -0.072670
  13 H :    0.033761
  14 H :    0.027690
  15 H :    0.017261
  16 S :    0.386870
  17 C :   -0.181721
  18 C :   -0.075471
  19 C :   -0.045457
  20 C :   -0.190573
  21 H :    0.029212
  22 C :   -0.023560
  23 H :    0.034072
  24 H :    0.032271
  25 C :   -0.046231
  26 H :    0.028402
  27 H :    0.021380
  28 C :   -0.066367
  29 H :    0.020117
  30 H :    0.029968
  31 H :    0.029169
  32 H :    0.028133
  33 H :    0.027706

  Mayer bond orders larger than 0.100000
B(  0-S ,  1-C ) :   1.1399 B(  0-S ,  4-C ) :   1.1449 B(  1-C ,  2-C ) :   1.5973
B(  1-C , 32-H ) :   0.9620 B(  2-C ,  3-C ) :   1.2527 B(  2-C ,  6-C ) :   1.0349
B(  3-C ,  4-C ) :   1.5570 B(  3-C ,  5-H ) :   0.9843 B(  4-C , 20-C ) :   1.0791
B(  6-C ,  7-H ) :   0.9475 B(  6-C ,  8-H ) :   0.9529 B(  6-C ,  9-C ) :   1.0458
B(  9-C , 10-H ) :   0.9534 B(  9-C , 11-H ) :   0.9605 B(  9-C , 12-C ) :   1.0869
B( 12-C , 13-H ) :   0.9686 B( 12-C , 14-H ) :   0.9765 B( 12-C , 15-H ) :   0.9680
B( 16-S , 17-C ) :   1.1500 B( 16-S , 20-C ) :   1.1347 B( 17-C , 18-C ) :   1.6073
B( 17-C , 33-H ) :   0.9699 B( 18-C , 19-C ) :   1.2405 B( 18-C , 21-H ) :   0.9822
B( 19-C , 20-C ) :   1.5656 B( 19-C , 22-C ) :   1.0456 B( 22-C , 23-H ) :   0.9248
B( 22-C , 24-H ) :   0.9274 B( 22-C , 25-C ) :   1.0621 B( 25-C , 26-H ) :   0.9524
B( 25-C , 27-H ) :   0.9471 B( 25-C , 28-C ) :   1.0882 B( 28-C , 29-H ) :   0.9740
B( 28-C , 30-H ) :   0.9755 B( 28-C , 31-H ) :   0.9719

Dispersion correction           -0.013153833
FINAL SINGLE POINT ENERGY     -1339.868200965848

DIPOLE MOMENT
-------------
                                X             Y             Z
Electronic contribution:     26.63846      10.11929      14.68002
Nuclear contribution   :    -27.17427     -10.57823     -14.83613
                        -----------------------------------------
Total Dipole Moment    :     -0.53581      -0.45894      -0.15611
                        -----------------------------------------
Magnitude (a.u.)       :      0.72256
Magnitude (Debye)      :      1.83660

Rotational constants in cm-1:     0.016895     0.008472     0.005984
Rotational constants in MHz :   506.490493   253.972271   179.386284

                             ****ORCA TERMINATED NORMALLY****
TOTAL RUN TIME: 0 days 0 hours 0 minutes 29 seconds 562 msec
