                         Program Version 4.2.1 -  RELEASE  -
|  1> ! wB97X-D3 SP def2-SVP
|  2> %pal
|  3> nprocs 16
|  4> end
|  5>
|  6> * xyz 0 1
|  7> S 	 -59.1978 	 35.5694 	 91.588
|  8> C 	 -59.8928 	 33.9612 	 91.6206
|  9> C 	 -59.0526 	 33.0693 	 92.2545
| 10> C 	 -57.7867 	 33.6318 	 92.5653
| 11> C 	 -57.7094 	 34.9367 	 92.1282
| 12> H 	 -56.9929 	 33.1698 	 93.1473
| 13> C 	 -59.4781 	 31.636 	 92.4826
| 14> H 	 -60.3053 	 31.2772 	 91.886
| 15> H 	 -59.9035 	 31.8051 	 93.4534
| 16> C 	 -58.2583 	 30.7234 	 92.6202
| 17> H 	 -57.7475 	 31.0753 	 93.4848
| 18> H 	 -58.4392 	 29.7117 	 92.8347
| 19> C 	 -57.4722 	 30.5717 	 91.3022
| 20> H 	 -58.0175 	 30.3294 	 90.4274
| 21> H 	 -56.9195 	 31.4839 	 91.1445
| 22> H 	 -56.7559 	 29.7452 	 91.4673
| 23> S 	 -56.8195 	 37.3629 	 92.873
| 24> C 	 -55.0573 	 37.7427 	 92.936
| 25> C 	 -54.3798 	 36.7604 	 92.2017
| 26> C 	 -55.1685 	 35.5698 	 91.9182
| 27> C 	 -56.5507 	 35.7315 	 92.2687
| 28> H 	 -53.3288 	 37.02 	 91.994
| 29> C 	 -54.4708 	 34.3587 	 91.2612
| 30> H 	 -53.4771 	 34.7648 	 91.1231
| 31> H 	 -55.0009 	 34.2787 	 90.3432
| 32> C 	 -54.342 	 32.9898 	 92.1455
| 33> H 	 -53.5586 	 32.4276 	 91.6142
| 34> H 	 -55.3239 	 32.4683 	 92.1232
| 35> C 	 -53.9287 	 32.9487 	 93.6031
| 36> H 	 -52.9276 	 33.3678 	 93.7144
| 37> H 	 -53.9289 	 31.9446 	 94.1069
| 38> H 	 -54.6284 	 33.5809 	 94.1927
| 39> H 	 -60.8693 	 33.6347 	 91.2882
| 40> H 	 -54.5958 	 38.6502 	 93.2922
| 41> *
| 42>
| 43>                          ****END OF INPUT****

CARTESIAN COORDINATES (ANGSTROEM)
---------------------------------
  S    -59.197800   35.569400   91.588000
  C    -59.892800   33.961200   91.620600
  C    -59.052600   33.069300   92.254500
  C    -57.786700   33.631800   92.565300
  C    -57.709400   34.936700   92.128200
  H    -56.992900   33.169800   93.147300
  C    -59.478100   31.636000   92.482600
  H    -60.305300   31.277200   91.886000
  H    -59.903500   31.805100   93.453400
  C    -58.258300   30.723400   92.620200
  H    -57.747500   31.075300   93.484800
  H    -58.439200   29.711700   92.834700
  C    -57.472200   30.571700   91.302200
  H    -58.017500   30.329400   90.427400
  H    -56.919500   31.483900   91.144500
  H    -56.755900   29.745200   91.467300
  S    -56.819500   37.362900   92.873000
  C    -55.057300   37.742700   92.936000
  C    -54.379800   36.760400   92.201700
  C    -55.168500   35.569800   91.918200
  C    -56.550700   35.731500   92.268700
  H    -53.328800   37.020000   91.994000
  C    -54.470800   34.358700   91.261200
  H    -53.477100   34.764800   91.123100
  H    -55.000900   34.278700   90.343200
  C    -54.342000   32.989800   92.145500
  H    -53.558600   32.427600   91.614200
  H    -55.323900   32.468300   92.123200
  C    -53.928700   32.948700   93.603100
  H    -52.927600   33.367800   93.714400
  H    -53.928900   31.944600   94.106900
  H    -54.628400   33.580900   94.192700
  H    -60.869300   33.634700   91.288200
  H    -54.595800   38.650200   93.292200

 Total Charge           Charge          ....    0
 Multiplicity           Mult            ....    1
 Number of Electrons    NEL             ....  134
 Basis Dimension        Dim             ....  322

ORBITAL ENERGIES
----------------

  NO   OCC          E(Eh)            E(eV)
   0   2.0000     -88.968353     -2420.9520
   1   2.0000     -88.962745     -2420.7994
   2   2.0000     -10.329113      -281.0695
   3   2.0000     -10.324380      -280.9407
   4   2.0000     -10.321069      -280.8506
   5   2.0000     -10.312905      -280.6284
   6   2.0000     -10.306929      -280.4658
   7   2.0000     -10.301042      -280.3056
   8   2.0000     -10.299093      -280.2526
   9   2.0000     -10.298523      -280.2371
  10   2.0000     -10.295731      -280.1611
  11   2.0000     -10.292280      -280.0672
  12   2.0000     -10.288793      -279.9723
  13   2.0000     -10.283503      -279.8283
  14   2.0000     -10.281084      -279.7625
  15   2.0000     -10.272752      -279.5358
  16   2.0000      -8.083721      -219.9692
  17   2.0000      -8.076579      -219.7749
  18   2.0000      -6.042191      -164.4164
  19   2.0000      -6.038323      -164.3111
  20   2.0000      -6.035269      -164.2280
  21   2.0000      -6.034297      -164.2016
  22   2.0000      -6.031206      -164.1175
  23   2.0000      -6.027211      -164.0088
  24   2.0000      -1.012126       -27.5413
  25   2.0000      -0.975704       -26.5503
  26   2.0000      -0.919525       -25.0215
  27   2.0000      -0.894961       -24.3531
  28   2.0000      -0.873170       -23.7602
  29   2.0000      -0.849609       -23.1190
  30   2.0000      -0.844312       -22.9749
  31   2.0000      -0.818604       -22.2753
  32   2.0000      -0.784823       -21.3561
  33   2.0000      -0.769617       -20.9423
  34   2.0000      -0.717439       -19.5225
  35   2.0000      -0.699046       -19.0220
  36   2.0000      -0.687515       -18.7082
  37   2.0000      -0.658950       -17.9310
  38   2.0000      -0.637337       -17.3428
  39   2.0000      -0.627186       -17.0666
  40   2.0000      -0.575101       -15.6493
  41   2.0000      -0.565357       -15.3841
  42   2.0000      -0.561484       -15.2787
  43   2.0000      -0.556507       -15.1433
  44   2.0000      -0.546500       -14.8710
  45   2.0000      -0.536504       -14.5990
  46   2.0000      -0.517855       -14.0916
  47   2.0000      -0.514251       -13.9935
  48   2.0000      -0.506204       -13.7745
  49   2.0000      -0.498246       -13.5580
  50   2.0000      -0.490002       -13.3336
  51   2.0000      -0.481671       -13.1069
  52   2.0000      -0.472007       -12.8440
  53   2.0000      -0.469233       -12.7685
  54   2.0000      -0.460731       -12.5371
  55   2.0000      -0.453019       -12.3273
  56   2.0000      -0.446224       -12.1424
  57   2.0000      -0.443175       -12.0594
  58   2.0000      -0.431752       -11.7486
  59   2.0000      -0.426237       -11.5985
  60   2.0000      -0.409713       -11.1489
  61   2.0000      -0.408716       -11.1217
  62   2.0000      -0.400760       -10.9052
  63   2.0000      -0.349452        -9.5091
  64   2.0000      -0.330613        -8.9964
  65   2.0000      -0.323332        -8.7983
  66   2.0000      -0.281358        -7.6561
  67   0.0000       0.022815         0.6208
  68   0.0000       0.067527         1.8375
  69   0.0000       0.100384         2.7316
  70   0.0000       0.121089         3.2950
  71   0.0000       0.131345         3.5741

MULLIKEN ATOMIC CHARGES
-----------------------
   0 S :    0.128371
   1 C :   -0.125524
   2 C :   -0.097787
   3 C :   -0.019350
   4 C :   -0.110345
   5 H :    0.019769
   6 C :    0.103250
   7 H :    0.023142
   8 H :    0.033550
   9 C :   -0.062057
  10 H :    0.019920
  11 H :    0.010825
  12 C :   -0.035325
  13 H :    0.029015
  14 H :    0.041651
  15 H :    0.029373
  16 S :    0.077273
  17 C :   -0.100443
  18 C :   -0.058173
  19 C :   -0.080682
  20 C :   -0.155256
  21 H :    0.037081
  22 C :    0.125496
  23 H :    0.013192
  24 H :    0.048076
  25 C :   -0.103337
  26 H :    0.037731
  27 H :    0.030057
  28 C :   -0.070949
  29 H :    0.029372
  30 H :    0.049138
  31 H :    0.041444
  32 H :    0.033196
  33 H :    0.058305
Sum of atomic charges:    0.0000000

LOEWDIN ATOMIC CHARGES
----------------------
   0 S :    0.424373
   1 C :   -0.209462
   2 C :   -0.052003
   3 C :   -0.069390
   4 C :   -0.204274
   5 H :    0.033582
   6 C :   -0.029487
   7 H :    0.028591
   8 H :    0.038877
   9 C :   -0.039184
  10 H :    0.021787
  11 H :    0.018872
  12 C :   -0.057352
  13 H :    0.023438
  14 H :    0.018761
  15 H :    0.029021
  16 S :    0.374999
  17 C :   -0.175535
  18 C :   -0.076861
  19 C :   -0.059167
  20 C :   -0.192917
  21 H :    0.037605
  22 C :   -0.020068
  23 H :    0.028912
  24 H :    0.036043
  25 C :   -0.045496
  26 H :    0.027077
  27 H :    0.022516
  28 C :   -0.075048
  29 H :    0.023194
  30 H :    0.036559
  31 H :    0.026126
  32 H :    0.026637
  33 H :    0.029275

  Mayer bond orders larger than 0.100000
B(  0-S ,  1-C ) :   1.1155 B(  0-S ,  4-C ) :   1.1633 B(  1-C ,  2-C ) :   1.6243
B(  1-C , 32-H ) :   0.9703 B(  2-C ,  3-C ) :   1.2394 B(  2-C ,  6-C ) :   0.9866
B(  3-C ,  4-C ) :   1.5375 B(  3-C ,  5-H ) :   0.9906 B(  4-C , 20-C ) :   1.0952
B(  6-C ,  7-H ) :   0.9506 B(  6-C ,  8-H ) :   0.9245 B(  6-C ,  9-C ) :   1.0884
B(  9-C , 10-H ) :   0.9448 B(  9-C , 11-H ) :   0.9565 B(  9-C , 12-C ) :   1.0691
B( 12-C , 13-H ) :   0.9695 B( 12-C , 14-H ) :   0.9688 B( 12-C , 15-H ) :   0.9777
B( 16-S , 17-C ) :   1.1361 B( 16-S , 20-C ) :   1.1318 B( 17-C , 18-C ) :   1.6261
B( 17-C , 20-C ) :   0.1090 B( 17-C , 33-H ) :   0.9687 B( 18-C , 19-C ) :   1.2350
B( 18-C , 21-H ) :   0.9788 B( 19-C , 20-C ) :   1.5488 B( 19-C , 22-C ) :   1.0211
B( 22-C , 23-H ) :   0.9337 B( 22-C , 24-H ) :   0.9383 B( 22-C , 25-C ) :   1.0453
B( 25-C , 26-H ) :   0.9581 B( 25-C , 27-H ) :   0.9493 B( 25-C , 28-C ) :   1.0866
B( 28-C , 29-H ) :   0.9726 B( 28-C , 30-H ) :   0.9720 B( 28-C , 31-H ) :   0.9662

Dispersion correction           -0.016289790
FINAL SINGLE POINT ENERGY     -1339.844487786848

DIPOLE MOMENT
-------------
                                X             Y             Z
Electronic contribution:    -12.04194      27.55467      -1.19042
Nuclear contribution   :     12.36997     -28.17496       1.23026
                        -----------------------------------------
Total Dipole Moment    :      0.32803      -0.62029       0.03984
                        -----------------------------------------
Magnitude (a.u.)       :      0.70282
Magnitude (Debye)      :      1.78642

Rotational constants in cm-1:     0.018345     0.011282     0.007629
Rotational constants in MHz :   549.980318   338.236374   228.726332

                             ****ORCA TERMINATED NORMALLY****
TOTAL RUN TIME: 0 days 0 hours 0 minutes 32 seconds 275 msec
