                         Program Version 4.2.1 -  RELEASE  -
|  1> ! wB97X-D3 SP def2-SVP
|  2> %pal
|  3> nprocs 16
|  4> end
|  5>
|  6> * xyz 0 1
|  7> S 	 43.348 	 24.2231 	 81.8361
|  8> C 	 41.9063 	 25.0889 	 81.4548
|  9> C 	 41.1724 	 24.4612 	 80.449
| 10> C 	 41.7515 	 23.1522 	 80.1591
| 11> C 	 42.9093 	 22.867 	 80.8231
| 12> H 	 41.2837 	 22.4357 	 79.538
| 13> C 	 39.9395 	 25.015 	 79.7839
| 14> H 	 39.2389 	 24.2372 	 79.523
| 15> H 	 40.3573 	 25.4476 	 78.8539
| 16> C 	 39.0892 	 26.0881 	 80.4607
| 17> H 	 38.5006 	 25.7422 	 81.3391
| 18> H 	 39.8726 	 26.7208 	 80.8356
| 19> C 	 38.1119 	 26.7994 	 79.499
| 20> H 	 37.5907 	 27.5701 	 80.1064
| 21> H 	 38.6424 	 27.2539 	 78.6276
| 22> H 	 37.3929 	 25.9564 	 79.1983
| 23> S 	 45.463 	 22.3741 	 79.8375
| 24> C 	 46.1072 	 20.8057 	 79.9403
| 25> C 	 45.1753 	 19.9322 	 80.3924
| 26> C 	 43.8845 	 20.5077 	 80.6836
| 27> C 	 43.9127 	 21.8727 	 80.4987
| 28> H 	 45.4903 	 18.8744 	 80.4578
| 29> C 	 42.8438 	 19.5878 	 81.3149
| 30> H 	 42.9617 	 18.5311 	 81.0225
| 31> H 	 41.8751 	 19.9675 	 80.9434
| 32> C 	 42.9439 	 19.6296 	 82.8498
| 33> H 	 43.3829 	 20.5858 	 83.0763
| 34> H 	 43.6294 	 18.935 	 83.2779
| 35> C 	 41.6326 	 19.4621 	 83.6293
| 36> H 	 40.9049 	 20.3549 	 83.7863
| 37> H 	 41.8645 	 19.2399 	 84.6398
| 38> H 	 40.9786 	 18.7693 	 83.1206
| 39> H 	 41.6927 	 26.0906 	 81.8099
| 40> H 	 47.0533 	 20.4686 	 79.6372
| 41> *
| 42>
| 43>                          ****END OF INPUT****

CARTESIAN COORDINATES (ANGSTROEM)
---------------------------------
  S     43.348000   24.223100   81.836100
  C     41.906300   25.088900   81.454800
  C     41.172400   24.461200   80.449000
  C     41.751500   23.152200   80.159100
  C     42.909300   22.867000   80.823100
  H     41.283700   22.435700   79.538000
  C     39.939500   25.015000   79.783900
  H     39.238900   24.237200   79.523000
  H     40.357300   25.447600   78.853900
  C     39.089200   26.088100   80.460700
  H     38.500600   25.742200   81.339100
  H     39.872600   26.720800   80.835600
  C     38.111900   26.799400   79.499000
  H     37.590700   27.570100   80.106400
  H     38.642400   27.253900   78.627600
  H     37.392900   25.956400   79.198300
  S     45.463000   22.374100   79.837500
  C     46.107200   20.805700   79.940300
  C     45.175300   19.932200   80.392400
  C     43.884500   20.507700   80.683600
  C     43.912700   21.872700   80.498700
  H     45.490300   18.874400   80.457800
  C     42.843800   19.587800   81.314900
  H     42.961700   18.531100   81.022500
  H     41.875100   19.967500   80.943400
  C     42.943900   19.629600   82.849800
  H     43.382900   20.585800   83.076300
  H     43.629400   18.935000   83.277900
  C     41.632600   19.462100   83.629300
  H     40.904900   20.354900   83.786300
  H     41.864500   19.239900   84.639800
  H     40.978600   18.769300   83.120600
  H     41.692700   26.090600   81.809900
  H     47.053300   20.468600   79.637200

 Total Charge           Charge          ....    0
 Multiplicity           Mult            ....    1
 Number of Electrons    NEL             ....  134
 Basis Dimension        Dim             ....  322

ORBITAL ENERGIES
----------------

  NO   OCC          E(Eh)            E(eV)
   0   2.0000     -88.963487     -2420.8195
   1   2.0000     -88.963370     -2420.8164
   2   2.0000     -10.325578      -280.9733
   3   2.0000     -10.325130      -280.9611
   4   2.0000     -10.312957      -280.6298
   5   2.0000     -10.305767      -280.4342
   6   2.0000     -10.305345      -280.4227
   7   2.0000     -10.301953      -280.3304
   8   2.0000     -10.294713      -280.1334
   9   2.0000     -10.294210      -280.1197
  10   2.0000     -10.293715      -280.1062
  11   2.0000     -10.292543      -280.0743
  12   2.0000     -10.288792      -279.9723
  13   2.0000     -10.287364      -279.9334
  14   2.0000     -10.277973      -279.6779
  15   2.0000     -10.275928      -279.6222
  16   2.0000      -8.079039      -219.8418
  17   2.0000      -8.078661      -219.8315
  18   2.0000      -6.037598      -164.2914
  19   2.0000      -6.037157      -164.2794
  20   2.0000      -6.033386      -164.1768
  21   2.0000      -6.033010      -164.1665
  22   2.0000      -6.029723      -164.0771
  23   2.0000      -6.029473      -164.0703
  24   2.0000      -1.010500       -27.4971
  25   2.0000      -0.987612       -26.8743
  26   2.0000      -0.915122       -24.9017
  27   2.0000      -0.907354       -24.6904
  28   2.0000      -0.871371       -23.7112
  29   2.0000      -0.850349       -23.1392
  30   2.0000      -0.845150       -22.9977
  31   2.0000      -0.816137       -22.2082
  32   2.0000      -0.781388       -21.2626
  33   2.0000      -0.770714       -20.9722
  34   2.0000      -0.707854       -19.2617
  35   2.0000      -0.700804       -19.0698
  36   2.0000      -0.691618       -18.8199
  37   2.0000      -0.658932       -17.9305
  38   2.0000      -0.642198       -17.4751
  39   2.0000      -0.614989       -16.7347
  40   2.0000      -0.595658       -16.2087
  41   2.0000      -0.581560       -15.8251
  42   2.0000      -0.565596       -15.3907
  43   2.0000      -0.557487       -15.1700
  44   2.0000      -0.529635       -14.4121
  45   2.0000      -0.526510       -14.3271
  46   2.0000      -0.520285       -14.1577
  47   2.0000      -0.509513       -13.8646
  48   2.0000      -0.505906       -13.7664
  49   2.0000      -0.499485       -13.5917
  50   2.0000      -0.492834       -13.4107
  51   2.0000      -0.480622       -13.0784
  52   2.0000      -0.477268       -12.9871
  53   2.0000      -0.466797       -12.7022
  54   2.0000      -0.456363       -12.4183
  55   2.0000      -0.445742       -12.1293
  56   2.0000      -0.441859       -12.0236
  57   2.0000      -0.440490       -11.9863
  58   2.0000      -0.430635       -11.7182
  59   2.0000      -0.421307       -11.4643
  60   2.0000      -0.417707       -11.3664
  61   2.0000      -0.410823       -11.1791
  62   2.0000      -0.404507       -11.0072
  63   2.0000      -0.346050        -9.4165
  64   2.0000      -0.330466        -8.9924
  65   2.0000      -0.321800        -8.7566
  66   2.0000      -0.299987        -8.1631
  67   0.0000       0.039482         1.0744
  68   0.0000       0.065604         1.7852
  69   0.0000       0.122615         3.3365
  70   0.0000       0.126877         3.4525
  71   0.0000       0.129060         3.5119

MULLIKEN ATOMIC CHARGES
-----------------------
   0 S :    0.108837
   1 C :   -0.126684
   2 C :   -0.096016
   3 C :    0.056265
   4 C :   -0.159503
   5 H :   -0.001162
   6 C :    0.054412
   7 H :    0.021876
   8 H :    0.044566
   9 C :   -0.103082
  10 H :    0.043026
  11 H :    0.014760
  12 C :   -0.073739
  13 H :    0.048853
  14 H :    0.047639
  15 H :    0.047706
  16 S :    0.123343
  17 C :   -0.061662
  18 C :   -0.061226
  19 C :   -0.046777
  20 C :   -0.172732
  21 H :    0.023310
  22 C :    0.094037
  23 H :    0.031243
  24 H :    0.025056
  25 C :   -0.040108
  26 H :    0.027682
  27 H :    0.022532
  28 C :   -0.070589
  29 H :    0.037565
  30 H :    0.027544
  31 H :    0.027068
  32 H :    0.053887
  33 H :    0.032076
Sum of atomic charges:   -0.0000000

LOEWDIN ATOMIC CHARGES
----------------------
   0 S :    0.416443
   1 C :   -0.209508
   2 C :   -0.060602
   3 C :   -0.049731
   4 C :   -0.199564
   5 H :    0.024408
   6 C :   -0.038048
   7 H :    0.025492
   8 H :    0.042135
   9 C :   -0.048685
  10 H :    0.029526
  11 H :    0.014228
  12 C :   -0.068082
  13 H :    0.032092
  14 H :    0.029244
  15 H :    0.035788
  16 S :    0.422213
  17 C :   -0.194795
  18 C :   -0.079908
  19 C :   -0.053185
  20 C :   -0.204956
  21 H :    0.033925
  22 C :   -0.027465
  23 H :    0.034025
  24 H :    0.031452
  25 C :   -0.038056
  26 H :    0.025089
  27 H :    0.023055
  28 C :   -0.071795
  29 H :    0.034791
  30 H :    0.021109
  31 H :    0.020405
  32 H :    0.026089
  33 H :    0.022871

  Mayer bond orders larger than 0.100000
B(  0-S ,  1-C ) :   1.1448 B(  0-S ,  4-C ) :   1.1474 B(  1-C ,  2-C ) :   1.6087
B(  1-C , 32-H ) :   0.9633 B(  2-C ,  3-C ) :   1.2455 B(  2-C ,  6-C ) :   1.0158
B(  3-C ,  4-C ) :   1.5897 B(  3-C ,  5-H ) :   1.0000 B(  4-C , 20-C ) :   1.0214
B(  6-C ,  7-H ) :   0.9461 B(  6-C ,  8-H ) :   0.9294 B(  6-C ,  9-C ) :   1.0663
B(  9-C , 10-H ) :   0.9575 B(  9-C , 11-H ) :   0.9485 B(  9-C , 12-C ) :   1.0811
B( 12-C , 13-H ) :   0.9731 B( 12-C , 14-H ) :   0.9746 B( 12-C , 15-H ) :   0.9747
B( 16-S , 17-C ) :   1.1506 B( 16-S , 20-C ) :   1.1435 B( 17-C , 18-C ) :   1.6377
B( 17-C , 33-H ) :   0.9695 B( 18-C , 19-C ) :   1.2247 B( 18-C , 21-H ) :   0.9867
B( 19-C , 20-C ) :   1.6082 B( 19-C , 22-C ) :   1.0572 B( 22-C , 23-H ) :   0.9326
B( 22-C , 24-H ) :   0.9343 B( 22-C , 25-C ) :   1.0537 B( 25-C , 26-H ) :   0.9600
B( 25-C , 27-H ) :   0.9550 B( 25-C , 28-C ) :   1.0753 B( 28-C , 29-H ) :   0.9758
B( 28-C , 30-H ) :   0.9750 B( 28-C , 31-H ) :   0.9772

Dispersion correction           -0.013657007
FINAL SINGLE POINT ENERGY     -1339.872222856884

DIPOLE MOMENT
-------------
                                X             Y             Z
Electronic contribution:     24.38514       1.64465      -4.03883
Nuclear contribution   :    -24.79927      -1.80674       3.93787
                        -----------------------------------------
Total Dipole Moment    :     -0.41414      -0.16210      -0.10097
                        -----------------------------------------
Magnitude (a.u.)       :      0.45605
Magnitude (Debye)      :      1.15918

Rotational constants in cm-1:     0.021165     0.007345     0.006236
Rotational constants in MHz :   634.522535   220.196859   186.954693

                             ****ORCA TERMINATED NORMALLY****
TOTAL RUN TIME: 0 days 0 hours 0 minutes 29 seconds 129 msec
