                         Program Version 4.2.1 -  RELEASE  -
|  1> ! wB97X-D3 SP def2-SVP
|  2> %pal
|  3> nprocs 16
|  4> end
|  5>
|  6> * xyz 0 1
|  7> S 	 19.2744 	 30.8267 	 57.0697
|  8> C 	 17.655 	 30.4751 	 57.5205
|  9> C 	 17.008 	 31.6294 	 57.8707
| 10> C 	 17.9014 	 32.7273 	 57.9651
| 11> C 	 19.2025 	 32.4757 	 57.5711
| 12> H 	 17.6383 	 33.7149 	 58.2297
| 13> C 	 15.5535 	 31.8503 	 58.276
| 14> H 	 15.1454 	 30.8937 	 58.5131
| 15> H 	 15.2094 	 32.1174 	 57.275
| 16> C 	 15.1525 	 32.7907 	 59.4449
| 17> H 	 15.8263 	 32.6528 	 60.312
| 18> H 	 15.2281 	 33.8215 	 59.2171
| 19> C 	 13.7643 	 32.4798 	 59.9249
| 20> H 	 13.7066 	 31.4211 	 60.2566
| 21> H 	 13.4579 	 33.1652 	 60.7501
| 22> H 	 13.0182 	 32.6447 	 59.094
| 23> S 	 20.9613 	 33.2554 	 55.6392
| 24> C 	 22.2391 	 34.3634 	 56.1509
| 25> C 	 21.8546 	 35.1013 	 57.2608
| 26> C 	 20.7584 	 34.4892 	 57.9573
| 27> C 	 20.272 	 33.3601 	 57.2438
| 28> H 	 22.5039 	 35.846 	 57.6226
| 29> C 	 20.3569 	 34.9117 	 59.2943
| 30> H 	 21.148 	 35.2933 	 59.854
| 31> H 	 19.9604 	 34.014 	 59.8551
| 32> C 	 19.233 	 36.0287 	 59.4033
| 33> H 	 19.1259 	 36.2327 	 60.4614
| 34> H 	 18.3247 	 35.7204 	 59.0276
| 35> C 	 19.4853 	 37.3704 	 58.6176
| 36> H 	 18.7201 	 38.1004 	 58.9424
| 37> H 	 19.4637 	 37.2565 	 57.5174
| 38> H 	 20.4378 	 37.7945 	 58.9767
| 39> H 	 17.1101 	 29.5625 	 57.198
| 40> H 	 23.1793 	 34.538 	 55.643
| 41> *
| 42>
| 43>                          ****END OF INPUT****

CARTESIAN COORDINATES (ANGSTROEM)
---------------------------------
  S     19.274400   30.826700   57.069700
  C     17.655000   30.475100   57.520500
  C     17.008000   31.629400   57.870700
  C     17.901400   32.727300   57.965100
  C     19.202500   32.475700   57.571100
  H     17.638300   33.714900   58.229700
  C     15.553500   31.850300   58.276000
  H     15.145400   30.893700   58.513100
  H     15.209400   32.117400   57.275000
  C     15.152500   32.790700   59.444900
  H     15.826300   32.652800   60.312000
  H     15.228100   33.821500   59.217100
  C     13.764300   32.479800   59.924900
  H     13.706600   31.421100   60.256600
  H     13.457900   33.165200   60.750100
  H     13.018200   32.644700   59.094000
  S     20.961300   33.255400   55.639200
  C     22.239100   34.363400   56.150900
  C     21.854600   35.101300   57.260800
  C     20.758400   34.489200   57.957300
  C     20.272000   33.360100   57.243800
  H     22.503900   35.846000   57.622600
  C     20.356900   34.911700   59.294300
  H     21.148000   35.293300   59.854000
  H     19.960400   34.014000   59.855100
  C     19.233000   36.028700   59.403300
  H     19.125900   36.232700   60.461400
  H     18.324700   35.720400   59.027600
  C     19.485300   37.370400   58.617600
  H     18.720100   38.100400   58.942400
  H     19.463700   37.256500   57.517400
  H     20.437800   37.794500   58.976700
  H     17.110100   29.562500   57.198000
  H     23.179300   34.538000   55.643000

 Total Charge           Charge          ....    0
 Multiplicity           Mult            ....    1
 Number of Electrons    NEL             ....  134
 Basis Dimension        Dim             ....  322

ORBITAL ENERGIES
----------------

  NO   OCC          E(Eh)            E(eV)
   0   2.0000     -88.965964     -2420.8870
   1   2.0000     -88.960559     -2420.7399
   2   2.0000     -10.324736      -280.9503
   3   2.0000     -10.322038      -280.8769
   4   2.0000     -10.316420      -280.7241
   5   2.0000     -10.311212      -280.5824
   6   2.0000     -10.302658      -280.3496
   7   2.0000     -10.298730      -280.2427
   8   2.0000     -10.292717      -280.0791
   9   2.0000     -10.291389      -280.0429
  10   2.0000     -10.289101      -279.9807
  11   2.0000     -10.288720      -279.9703
  12   2.0000     -10.287249      -279.9303
  13   2.0000     -10.286382      -279.9067
  14   2.0000     -10.285259      -279.8761
  15   2.0000     -10.283678      -279.8331
  16   2.0000      -8.080461      -219.8805
  17   2.0000      -8.076510      -219.7730
  18   2.0000      -6.038941      -164.3279
  19   2.0000      -6.035312      -164.2292
  20   2.0000      -6.034882      -164.2175
  21   2.0000      -6.030934      -164.1101
  22   2.0000      -6.030708      -164.1039
  23   2.0000      -6.027450      -164.0152
  24   2.0000      -1.012069       -27.5398
  25   2.0000      -0.984781       -26.7973
  26   2.0000      -0.914910       -24.8960
  27   2.0000      -0.905343       -24.6356
  28   2.0000      -0.875624       -23.8269
  29   2.0000      -0.850881       -23.1536
  30   2.0000      -0.846443       -23.0329
  31   2.0000      -0.815339       -22.1865
  32   2.0000      -0.782272       -21.2867
  33   2.0000      -0.769070       -20.9275
  34   2.0000      -0.713577       -19.4174
  35   2.0000      -0.701837       -19.0980
  36   2.0000      -0.688587       -18.7374
  37   2.0000      -0.663862       -18.0646
  38   2.0000      -0.640868       -17.4389
  39   2.0000      -0.622249       -16.9323
  40   2.0000      -0.596234       -16.2244
  41   2.0000      -0.575001       -15.6466
  42   2.0000      -0.565698       -15.3934
  43   2.0000      -0.552284       -15.0284
  44   2.0000      -0.539150       -14.6710
  45   2.0000      -0.530236       -14.4284
  46   2.0000      -0.516377       -14.0513
  47   2.0000      -0.508693       -13.8422
  48   2.0000      -0.501501       -13.6465
  49   2.0000      -0.500744       -13.6259
  50   2.0000      -0.488633       -13.2964
  51   2.0000      -0.482109       -13.1188
  52   2.0000      -0.473536       -12.8856
  53   2.0000      -0.468534       -12.7494
  54   2.0000      -0.457803       -12.4574
  55   2.0000      -0.448649       -12.2084
  56   2.0000      -0.444238       -12.0883
  57   2.0000      -0.437371       -11.9015
  58   2.0000      -0.433475       -11.7955
  59   2.0000      -0.428483       -11.6596
  60   2.0000      -0.425134       -11.5685
  61   2.0000      -0.416781       -11.3412
  62   2.0000      -0.411087       -11.1862
  63   2.0000      -0.347066        -9.4442
  64   2.0000      -0.329123        -8.9559
  65   2.0000      -0.324706        -8.8357
  66   2.0000      -0.284873        -7.7518
  67   0.0000       0.019722         0.5367
  68   0.0000       0.076394         2.0788
  69   0.0000       0.103246         2.8095
  70   0.0000       0.129562         3.5256
  71   0.0000       0.133574         3.6347

MULLIKEN ATOMIC CHARGES
-----------------------
   0 S :    0.100624
   1 C :   -0.125863
   2 C :   -0.116628
   3 C :    0.047453
   4 C :   -0.151962
   5 H :   -0.035063
   6 C :    0.080898
   7 H :    0.004914
   8 H :    0.044607
   9 C :   -0.050674
  10 H :    0.036759
  11 H :    0.024840
  12 C :   -0.083588
  13 H :    0.042367
  14 H :    0.042680
  15 H :    0.037775
  16 S :    0.115474
  17 C :   -0.105360
  18 C :   -0.009256
  19 C :   -0.024609
  20 C :   -0.134659
  21 H :    0.006984
  22 C :    0.060309
  23 H :    0.006620
  24 H :    0.042656
  25 C :   -0.051220
  26 H :    0.029547
  27 H :    0.010652
  28 C :   -0.091413
  29 H :    0.038956
  30 H :    0.059611
  31 H :    0.025208
  32 H :    0.064869
  33 H :    0.056492
Sum of atomic charges:   -0.0000000

LOEWDIN ATOMIC CHARGES
----------------------
   0 S :    0.430438
   1 C :   -0.221716
   2 C :   -0.064616
   3 C :   -0.059797
   4 C :   -0.205685
   5 H :    0.017923
   6 C :   -0.029732
   7 H :    0.023879
   8 H :    0.041279
   9 C :   -0.043118
  10 H :    0.031293
  11 H :    0.017836
  12 C :   -0.069033
  13 H :    0.027634
  14 H :    0.030945
  15 H :    0.028950
  16 S :    0.397138
  17 C :   -0.176525
  18 C :   -0.059960
  19 C :   -0.054645
  20 C :   -0.199104
  21 H :    0.024362
  22 C :   -0.033805
  23 H :    0.021028
  24 H :    0.043737
  25 C :   -0.025552
  26 H :    0.024575
  27 H :    0.005266
  28 C :   -0.071558
  29 H :    0.030203
  30 H :    0.030925
  31 H :    0.020728
  32 H :    0.038530
  33 H :    0.028177

  Mayer bond orders larger than 0.100000
B(  0-S ,  1-C ) :   1.1479 B(  0-S ,  4-C ) :   1.1650 B(  1-C ,  2-C ) :   1.5980
B(  1-C , 32-H ) :   0.9592 B(  2-C ,  3-C ) :   1.2793 B(  2-C ,  6-C ) :   0.9935
B(  3-C ,  4-C ) :   1.5207 B(  3-C ,  5-H ) :   1.0044 B(  4-C , 20-C ) :   1.0797
B(  6-C ,  7-H ) :   0.9508 B(  6-C ,  8-H ) :   0.9248 B(  6-C ,  9-C ) :   1.0570
B(  9-C , 10-H ) :   0.9570 B(  9-C , 11-H ) :   0.9453 B(  9-C , 12-C ) :   1.0979
B( 12-C , 13-H ) :   0.9730 B( 12-C , 14-H ) :   0.9720 B( 12-C , 15-H ) :   0.9738
B( 16-S , 17-C ) :   1.1385 B( 16-S , 20-C ) :   1.1413 B( 17-C , 18-C ) :   1.6222
B( 17-C , 20-C ) :   0.1008 B( 17-C , 33-H ) :   0.9696 B( 18-C , 19-C ) :   1.2218
B( 18-C , 21-H ) :   0.9935 B( 19-C , 20-C ) :   1.5586 B( 19-C , 22-C ) :   1.0790
B( 22-C , 23-H ) :   0.9321 B( 22-C , 24-H ) :   0.9274 B( 22-C , 25-C ) :   1.0625
B( 25-C , 26-H ) :   0.9559 B( 25-C , 27-H ) :   0.9561 B( 25-C , 28-C ) :   1.0754
B( 28-C , 29-H ) :   0.9739 B( 28-C , 30-H ) :   0.9740 B( 28-C , 31-H ) :   0.9778

Dispersion correction           -0.014437613
FINAL SINGLE POINT ENERGY     -1339.864271445311

DIPOLE MOMENT
-------------
                                X             Y             Z
Electronic contribution:     19.81879     -15.32247     -17.65221
Nuclear contribution   :    -20.23322      15.78334      18.00251
                        -----------------------------------------
Total Dipole Moment    :     -0.41443       0.46087       0.35030
                        -----------------------------------------
Magnitude (a.u.)       :      0.71195
Magnitude (Debye)      :      1.80963

Rotational constants in cm-1:     0.018238     0.009328     0.006579
Rotational constants in MHz :   546.769383   279.636219   197.238958

                             ****ORCA TERMINATED NORMALLY****
TOTAL RUN TIME: 0 days 0 hours 0 minutes 35 seconds 565 msec
