                         Program Version 4.2.1 -  RELEASE  -
|  1> ! wB97X-D3 SP def2-SVP
|  2> %pal
|  3> nprocs 16
|  4> end
|  5>
|  6> * xyz 0 1
|  7> S 	 -35.8769 	 47.8303 	 95.4572
|  8> C 	 -34.2622 	 47.4302 	 94.9594
|  9> C 	 -33.2834 	 48.3253 	 95.3121
| 10> C 	 -33.8958 	 49.4837 	 95.8949
| 11> C 	 -35.2398 	 49.2875 	 96.2086
| 12> H 	 -33.3663 	 50.3875 	 96.1282
| 13> C 	 -31.8837 	 48.324 	 94.7886
| 14> H 	 -31.6793 	 49.2925 	 94.3795
| 15> H 	 -31.8409 	 47.6341 	 93.9664
| 16> C 	 -30.7585 	 47.7534 	 95.6948
| 17> H 	 -30.9746 	 46.6756 	 95.9474
| 18> H 	 -29.7649 	 47.8114 	 95.1887
| 19> C 	 -30.5335 	 48.4684 	 97.0348
| 20> H 	 -30.5931 	 49.557 	 97.0018
| 21> H 	 -31.2591 	 48.1683 	 97.7627
| 22> H 	 -29.5714 	 48.1889 	 97.4234
| 23> S 	 -37.7917 	 50.2947 	 96.2512
| 24> C 	 -38.3896 	 51.3576 	 97.4673
| 25> C 	 -37.2615 	 51.7541 	 98.2894
| 26> C 	 -35.9901 	 51.0837 	 97.9353
| 27> C 	 -36.1338 	 50.2606 	 96.8067
| 28> H 	 -37.3979 	 52.5555 	 99.0822
| 29> C 	 -34.6975 	 51.3376 	 98.6967
| 30> H 	 -34.1518 	 50.334 	 98.6545
| 31> H 	 -34.9389 	 51.604 	 99.7301
| 32> C 	 -33.7644 	 52.4563 	 98.1805
| 33> H 	 -34.3436 	 53.3518 	 98.2591
| 34> H 	 -33.6568 	 52.2092 	 97.0939
| 35> C 	 -32.4954 	 52.4741 	 99.0832
| 36> H 	 -31.7 	 53.1258 	 98.679
| 37> H 	 -32.08 	 51.4645 	 99.3039
| 38> H 	 -32.6744 	 52.9883 	 100.064
| 39> H 	 -34.069 	 46.63 	 94.3439
| 40> H 	 -39.4186 	 51.6422 	 97.7602
| 41> *
| 42>
| 43>                          ****END OF INPUT****

CARTESIAN COORDINATES (ANGSTROEM)
---------------------------------
  S    -35.876900   47.830300   95.457200
  C    -34.262200   47.430200   94.959400
  C    -33.283400   48.325300   95.312100
  C    -33.895800   49.483700   95.894900
  C    -35.239800   49.287500   96.208600
  H    -33.366300   50.387500   96.128200
  C    -31.883700   48.324000   94.788600
  H    -31.679300   49.292500   94.379500
  H    -31.840900   47.634100   93.966400
  C    -30.758500   47.753400   95.694800
  H    -30.974600   46.675600   95.947400
  H    -29.764900   47.811400   95.188700
  C    -30.533500   48.468400   97.034800
  H    -30.593100   49.557000   97.001800
  H    -31.259100   48.168300   97.762700
  H    -29.571400   48.188900   97.423400
  S    -37.791700   50.294700   96.251200
  C    -38.389600   51.357600   97.467300
  C    -37.261500   51.754100   98.289400
  C    -35.990100   51.083700   97.935300
  C    -36.133800   50.260600   96.806700
  H    -37.397900   52.555500   99.082200
  C    -34.697500   51.337600   98.696700
  H    -34.151800   50.334000   98.654500
  H    -34.938900   51.604000   99.730100
  C    -33.764400   52.456300   98.180500
  H    -34.343600   53.351800   98.259100
  H    -33.656800   52.209200   97.093900
  C    -32.495400   52.474100   99.083200
  H    -31.700000   53.125800   98.679000
  H    -32.080000   51.464500   99.303900
  H    -32.674400   52.988300  100.064000
  H    -34.069000   46.630000   94.343900
  H    -39.418600   51.642200   97.760200

 Total Charge           Charge          ....    0
 Multiplicity           Mult            ....    1
 Number of Electrons    NEL             ....  134
 Basis Dimension        Dim             ....  322

ORBITAL ENERGIES
----------------

  NO   OCC          E(Eh)            E(eV)
   0   2.0000     -88.970560     -2421.0120
   1   2.0000     -88.967528     -2420.9295
   2   2.0000     -10.332130      -281.1516
   3   2.0000     -10.328335      -281.0483
   4   2.0000     -10.325413      -280.9688
   5   2.0000     -10.309622      -280.5391
   6   2.0000     -10.308188      -280.5001
   7   2.0000     -10.308180      -280.4998
   8   2.0000     -10.299927      -280.2753
   9   2.0000     -10.296844      -280.1914
  10   2.0000     -10.295293      -280.1492
  11   2.0000     -10.294808      -280.1360
  12   2.0000     -10.292856      -280.0828
  13   2.0000     -10.290978      -280.0318
  14   2.0000     -10.290688      -280.0239
  15   2.0000     -10.271296      -279.4962
  16   2.0000      -8.085385      -220.0145
  17   2.0000      -8.082290      -219.9303
  18   2.0000      -6.043817      -164.4606
  19   2.0000      -6.040886      -164.3809
  20   2.0000      -6.040027      -164.3575
  21   2.0000      -6.036522      -164.2621
  22   2.0000      -6.036063      -164.2496
  23   2.0000      -6.033217      -164.1722
  24   2.0000      -1.007476       -27.4148
  25   2.0000      -0.981058       -26.6959
  26   2.0000      -0.911591       -24.8056
  27   2.0000      -0.907107       -24.6836
  28   2.0000      -0.867392       -23.6029
  29   2.0000      -0.853542       -23.2261
  30   2.0000      -0.841111       -22.8878
  31   2.0000      -0.813075       -22.1249
  32   2.0000      -0.782414       -21.2906
  33   2.0000      -0.770559       -20.9680
  34   2.0000      -0.706152       -19.2154
  35   2.0000      -0.700185       -19.0530
  36   2.0000      -0.693134       -18.8611
  37   2.0000      -0.662371       -18.0240
  38   2.0000      -0.641504       -17.4562
  39   2.0000      -0.618242       -16.8232
  40   2.0000      -0.586284       -15.9536
  41   2.0000      -0.571559       -15.5529
  42   2.0000      -0.566164       -15.4061
  43   2.0000      -0.545885       -14.8543
  44   2.0000      -0.542253       -14.7555
  45   2.0000      -0.519081       -14.1249
  46   2.0000      -0.516731       -14.0610
  47   2.0000      -0.511479       -13.9180
  48   2.0000      -0.509329       -13.8595
  49   2.0000      -0.497807       -13.5460
  50   2.0000      -0.489324       -13.3152
  51   2.0000      -0.482130       -13.1194
  52   2.0000      -0.473909       -12.8957
  53   2.0000      -0.462546       -12.5865
  54   2.0000      -0.460522       -12.5315
  55   2.0000      -0.452231       -12.3058
  56   2.0000      -0.442371       -12.0375
  57   2.0000      -0.435281       -11.8446
  58   2.0000      -0.432755       -11.7759
  59   2.0000      -0.424435       -11.5495
  60   2.0000      -0.421250       -11.4628
  61   2.0000      -0.417890       -11.3714
  62   2.0000      -0.414313       -11.2740
  63   2.0000      -0.351480        -9.5643
  64   2.0000      -0.334610        -9.1052
  65   2.0000      -0.324601        -8.8328
  66   2.0000      -0.285683        -7.7738
  67   0.0000       0.019495         0.5305
  68   0.0000       0.075800         2.0626
  69   0.0000       0.102144         2.7795
  70   0.0000       0.116446         3.1687
  71   0.0000       0.126579         3.4444

MULLIKEN ATOMIC CHARGES
-----------------------
   0 S :    0.119180
   1 C :   -0.085059
   2 C :   -0.058914
   3 C :    0.000953
   4 C :   -0.117435
   5 H :   -0.000400
   6 C :    0.081077
   7 H :    0.028241
   8 H :    0.013140
   9 C :   -0.106108
  10 H :    0.040261
  11 H :    0.040351
  12 C :   -0.045375
  13 H :    0.025350
  14 H :    0.030965
  15 H :    0.026041
  16 S :    0.104449
  17 C :   -0.112418
  18 C :   -0.072901
  19 C :   -0.041440
  20 C :   -0.139105
  21 H :    0.044739
  22 C :   -0.009579
  23 H :    0.046808
  24 H :    0.021252
  25 C :   -0.043159
  26 H :    0.023891
  27 H :    0.035813
  28 C :   -0.065325
  29 H :    0.039178
  30 H :    0.044768
  31 H :    0.038294
  32 H :    0.013473
  33 H :    0.078994
Sum of atomic charges:   -0.0000000

LOEWDIN ATOMIC CHARGES
----------------------
   0 S :    0.410243
   1 C :   -0.178194
   2 C :   -0.062645
   3 C :   -0.051865
   4 C :   -0.188775
   5 H :    0.025099
   6 C :   -0.029521
   7 H :    0.030707
   8 H :    0.031254
   9 C :   -0.042035
  10 H :    0.031678
  11 H :    0.028866
  12 C :   -0.070773
  13 H :    0.021337
  14 H :    0.022073
  15 H :    0.024139
  16 S :    0.420811
  17 C :   -0.215794
  18 C :   -0.081489
  19 C :   -0.059385
  20 C :   -0.205069
  21 H :    0.037629
  22 C :   -0.040534
  23 H :    0.036903
  24 H :    0.027156
  25 C :   -0.038548
  26 H :    0.022739
  27 H :    0.024010
  28 C :   -0.074311
  29 H :    0.028597
  30 H :    0.030130
  31 H :    0.033418
  32 H :    0.008282
  33 H :    0.043866

  Mayer bond orders larger than 0.100000
B(  0-S ,  1-C ) :   1.1464 B(  0-S ,  4-C ) :   1.1377 B(  1-C ,  2-C ) :   1.6174
B(  1-C , 32-H ) :   0.9674 B(  2-C ,  3-C ) :   1.2335 B(  2-C ,  6-C ) :   1.0233
B(  3-C ,  4-C ) :   1.5549 B(  3-C ,  5-H ) :   0.9914 B(  4-C , 20-C ) :   1.0861
B(  6-C ,  7-H ) :   0.9458 B(  6-C ,  8-H ) :   0.9385 B(  6-C ,  9-C ) :   1.0673
B(  9-C , 10-H ) :   0.9552 B(  9-C , 11-H ) :   0.9602 B(  9-C , 12-C ) :   1.0776
B( 12-C , 13-H ) :   0.9761 B( 12-C , 14-H ) :   0.9746 B( 12-C , 15-H ) :   0.9748
B( 16-S , 17-C ) :   1.1701 B( 16-S , 20-C ) :   1.1361 B( 17-C , 18-C ) :   1.5717
B( 17-C , 33-H ) :   0.9656 B( 18-C , 19-C ) :   1.2666 B( 18-C , 21-H ) :   0.9758
B( 19-C , 20-C ) :   1.5481 B( 19-C , 22-C ) :   1.0558 B( 22-C , 23-H ) :   0.9300
B( 22-C , 24-H ) :   0.9370 B( 22-C , 25-C ) :   1.0553 B( 25-C , 26-H ) :   0.9510
B( 25-C , 27-H ) :   0.9555 B( 25-C , 28-C ) :   1.0650 B( 28-C , 29-H ) :   0.9746
B( 28-C , 30-H ) :   0.9757 B( 28-C , 31-H ) :   0.9715

Dispersion correction           -0.014735607
FINAL SINGLE POINT ENERGY     -1339.874781230813

DIPOLE MOMENT
-------------
                                X             Y             Z
Electronic contribution:    -30.02408      -7.17162     -10.33086
Nuclear contribution   :     30.58749       7.40988      10.48481
                        -----------------------------------------
Total Dipole Moment    :      0.56341       0.23826       0.15395
                        -----------------------------------------
Magnitude (a.u.)       :      0.63080
Magnitude (Debye)      :      1.60335

Rotational constants in cm-1:     0.017343     0.010240     0.006717
Rotational constants in MHz :   519.916101   307.001428   201.372119

                             ****ORCA TERMINATED NORMALLY****
TOTAL RUN TIME: 0 days 0 hours 0 minutes 29 seconds 339 msec
