                         Program Version 4.2.1 -  RELEASE  -
|  1> ! wB97X-D3 SP def2-SVP
|  2> %pal
|  3> nprocs 16
|  4> end
|  5>
|  6> * xyz 0 1
|  7> S 	 16.6906 	 7.51913 	 85.8032
|  8> C 	 18.0843 	 6.54459 	 85.7868
|  9> C 	 18.0635 	 5.6181 	 86.8827
| 10> C 	 16.7883 	 5.66752 	 87.5765
| 11> C 	 15.9508 	 6.65072 	 87.1763
| 12> H 	 16.4094 	 4.96383 	 88.372
| 13> C 	 18.9837 	 4.42741 	 87.1288
| 14> H 	 19.2 	 4.31814 	 88.0999
| 15> H 	 19.9214 	 4.59366 	 86.7105
| 16> C 	 18.4303 	 3.13594 	 86.4211
| 17> H 	 17.4671 	 2.89268 	 86.864
| 18> H 	 18.1571 	 3.41646 	 85.3814
| 19> C 	 19.3293 	 1.95868 	 86.3769
| 20> H 	 18.8544 	 1.00555 	 86.1363
| 21> H 	 20.3381 	 2.06495 	 85.8891
| 22> H 	 19.6428 	 1.80247 	 87.3739
| 23> S 	 13.4129 	 7.17571 	 86.506
| 24> C 	 12.3114 	 7.70075 	 87.6531
| 25> C 	 12.9034 	 7.85803 	 88.8555
| 26> C 	 14.2745 	 7.38466 	 88.9564
| 27> C 	 14.7105 	 7.07184 	 87.6876
| 28> H 	 12.3031 	 8.17804 	 89.6601
| 29> C 	 15.032 	 7.43552 	 90.2902
| 30> H 	 14.786 	 8.29777 	 90.8308
| 31> H 	 16.1487 	 7.5399 	 90.0978
| 32> C 	 14.7562 	 6.10635 	 91.0147
| 33> H 	 15.0674 	 5.29297 	 90.3306
| 34> H 	 13.7365 	 6.02722 	 91.4018
| 35> C 	 15.6107 	 6.00272 	 92.2136
| 36> H 	 16.6958 	 5.98271 	 91.8604
| 37> H 	 15.5197 	 5.11099 	 92.6931
| 38> H 	 15.4345 	 6.87754 	 92.821
| 39> H 	 18.8753 	 6.40276 	 85.0785
| 40> H 	 11.2426 	 7.77995 	 87.6122
| 41> *
| 42>
| 43>                          ****END OF INPUT****

CARTESIAN COORDINATES (ANGSTROEM)
---------------------------------
  S     16.690600    7.519130   85.803200
  C     18.084300    6.544590   85.786800
  C     18.063500    5.618100   86.882700
  C     16.788300    5.667520   87.576500
  C     15.950800    6.650720   87.176300
  H     16.409400    4.963830   88.372000
  C     18.983700    4.427410   87.128800
  H     19.200000    4.318140   88.099900
  H     19.921400    4.593660   86.710500
  C     18.430300    3.135940   86.421100
  H     17.467100    2.892680   86.864000
  H     18.157100    3.416460   85.381400
  C     19.329300    1.958680   86.376900
  H     18.854400    1.005550   86.136300
  H     20.338100    2.064950   85.889100
  H     19.642800    1.802470   87.373900
  S     13.412900    7.175710   86.506000
  C     12.311400    7.700750   87.653100
  C     12.903400    7.858030   88.855500
  C     14.274500    7.384660   88.956400
  C     14.710500    7.071840   87.687600
  H     12.303100    8.178040   89.660100
  C     15.032000    7.435520   90.290200
  H     14.786000    8.297770   90.830800
  H     16.148700    7.539900   90.097800
  C     14.756200    6.106350   91.014700
  H     15.067400    5.292970   90.330600
  H     13.736500    6.027220   91.401800
  C     15.610700    6.002720   92.213600
  H     16.695800    5.982710   91.860400
  H     15.519700    5.110990   92.693100
  H     15.434500    6.877540   92.821000
  H     18.875300    6.402760   85.078500
  H     11.242600    7.779950   87.612200

 Total Charge           Charge          ....    0
 Multiplicity           Mult            ....    1
 Number of Electrons    NEL             ....  134
 Basis Dimension        Dim             ....  322

ORBITAL ENERGIES
----------------

  NO   OCC          E(Eh)            E(eV)
   0   2.0000     -88.964597     -2420.8498
   1   2.0000     -88.961942     -2420.7775
   2   2.0000     -10.322251      -280.8827
   3   2.0000     -10.321320      -280.8574
   4   2.0000     -10.314633      -280.6754
   5   2.0000     -10.306959      -280.4666
   6   2.0000     -10.306470      -280.4533
   7   2.0000     -10.305103      -280.4161
   8   2.0000     -10.296126      -280.1718
   9   2.0000     -10.295146      -280.1452
  10   2.0000     -10.286242      -279.9029
  11   2.0000     -10.285788      -279.8905
  12   2.0000     -10.284295      -279.8499
  13   2.0000     -10.280461      -279.7456
  14   2.0000     -10.274749      -279.5901
  15   2.0000     -10.269388      -279.4443
  16   2.0000      -8.079412      -219.8520
  17   2.0000      -8.078265      -219.8208
  18   2.0000      -6.037991      -164.3021
  19   2.0000      -6.036759      -164.2686
  20   2.0000      -6.033757      -164.1869
  21   2.0000      -6.032474      -164.1520
  22   2.0000      -6.030211      -164.0904
  23   2.0000      -6.029001      -164.0574
  24   2.0000      -1.013542       -27.5799
  25   2.0000      -0.985686       -26.8219
  26   2.0000      -0.920659       -25.0524
  27   2.0000      -0.912352       -24.8264
  28   2.0000      -0.878205       -23.8972
  29   2.0000      -0.857489       -23.3335
  30   2.0000      -0.848276       -23.0828
  31   2.0000      -0.818661       -22.2769
  32   2.0000      -0.786141       -21.3920
  33   2.0000      -0.772220       -21.0132
  34   2.0000      -0.707998       -19.2656
  35   2.0000      -0.702369       -19.1124
  36   2.0000      -0.692777       -18.8514
  37   2.0000      -0.664461       -18.0809
  38   2.0000      -0.643540       -17.5116
  39   2.0000      -0.616922       -16.7873
  40   2.0000      -0.600320       -16.3356
  41   2.0000      -0.580305       -15.7909
  42   2.0000      -0.568003       -15.4562
  43   2.0000      -0.558153       -15.1881
  44   2.0000      -0.538968       -14.6661
  45   2.0000      -0.527156       -14.3446
  46   2.0000      -0.522717       -14.2238
  47   2.0000      -0.516104       -14.0439
  48   2.0000      -0.511353       -13.9146
  49   2.0000      -0.504155       -13.7188
  50   2.0000      -0.499884       -13.6025
  51   2.0000      -0.480314       -13.0700
  52   2.0000      -0.468691       -12.7537
  53   2.0000      -0.465924       -12.6784
  54   2.0000      -0.455198       -12.3866
  55   2.0000      -0.451525       -12.2866
  56   2.0000      -0.439994       -11.9728
  57   2.0000      -0.435990       -11.8639
  58   2.0000      -0.429150       -11.6778
  59   2.0000      -0.424665       -11.5557
  60   2.0000      -0.421852       -11.4792
  61   2.0000      -0.419165       -11.4061
  62   2.0000      -0.411026       -11.1846
  63   2.0000      -0.351130        -9.5547
  64   2.0000      -0.331281        -9.0146
  65   2.0000      -0.324943        -8.8421
  66   2.0000      -0.290634        -7.9085
  67   0.0000       0.034371         0.9353
  68   0.0000       0.070833         1.9275
  69   0.0000       0.121824         3.3150
  70   0.0000       0.126022         3.4292
  71   0.0000       0.127427         3.4675

MULLIKEN ATOMIC CHARGES
-----------------------
   0 S :    0.120177
   1 C :   -0.078611
   2 C :   -0.146048
   3 C :   -0.008389
   4 C :   -0.139400
   5 H :    0.034130
   6 C :    0.145818
   7 H :   -0.006662
   8 H :   -0.011142
   9 C :   -0.084874
  10 H :    0.022645
  11 H :    0.027515
  12 C :   -0.015332
  13 H :    0.037312
  14 H :    0.035153
  15 H :   -0.000804
  16 S :    0.118332
  17 C :   -0.056043
  18 C :   -0.046045
  19 C :   -0.004298
  20 C :   -0.186041
  21 H :   -0.006203
  22 C :    0.060423
  23 H :    0.015718
  24 H :    0.039960
  25 C :   -0.094486
  26 H :    0.031865
  27 H :    0.035834
  28 C :    0.008230
  29 H :    0.021137
  30 H :    0.012902
  31 H :    0.026631
  32 H :    0.041887
  33 H :    0.048710
Sum of atomic charges:    0.0000000

LOEWDIN ATOMIC CHARGES
----------------------
   0 S :    0.413223
   1 C :   -0.214855
   2 C :   -0.056984
   3 C :   -0.072494
   4 C :   -0.191422
   5 H :    0.039413
   6 C :   -0.019080
   7 H :    0.012605
   8 H :    0.020658
   9 C :   -0.038241
  10 H :    0.023281
  11 H :    0.025947
  12 C :   -0.075602
  13 H :    0.031847
  14 H :    0.032088
  15 H :    0.018469
  16 S :    0.431140
  17 C :   -0.205849
  18 C :   -0.072845
  19 C :   -0.037945
  20 C :   -0.204654
  21 H :    0.019525
  22 C :   -0.024143
  23 H :    0.022216
  24 H :    0.040218
  25 C :   -0.038973
  26 H :    0.026450
  27 H :    0.026805
  28 C :   -0.058114
  29 H :    0.029731
  30 H :    0.010055
  31 H :    0.023645
  32 H :    0.029898
  33 H :    0.033985

  Mayer bond orders larger than 0.100000
B(  0-S ,  1-C ) :   1.1524 B(  0-S ,  4-C ) :   1.1245 B(  1-C ,  2-C ) :   1.5928
B(  1-C , 32-H ) :   0.9661 B(  2-C ,  3-C ) :   1.2219 B(  2-C ,  6-C ) :   1.0569
B(  3-C ,  4-C ) :   1.6136 B(  3-C ,  5-H ) :   0.9820 B(  4-C , 20-C ) :   1.0537
B(  6-C ,  7-H ) :   0.9285 B(  6-C ,  8-H ) :   0.9302 B(  6-C ,  9-C ) :   1.0471
B(  9-C , 10-H ) :   0.9531 B(  9-C , 11-H ) :   0.9564 B(  9-C , 12-C ) :   1.0916
B( 12-C , 13-H ) :   0.9693 B( 12-C , 14-H ) :   0.9705 B( 12-C , 15-H ) :   0.9636
B( 16-S , 17-C ) :   1.1532 B( 16-S , 20-C ) :   1.1408 B( 17-C , 18-C ) :   1.6334
B( 17-C , 33-H ) :   0.9644 B( 18-C , 19-C ) :   1.2193 B( 18-C , 21-H ) :   0.9900
B( 19-C , 20-C ) :   1.5986 B( 19-C , 22-C ) :   1.0426 B( 22-C , 23-H ) :   0.9348
B( 22-C , 24-H ) :   0.9389 B( 22-C , 25-C ) :   1.0628 B( 25-C , 26-H ) :   0.9525
B( 25-C , 27-H ) :   0.9514 B( 25-C , 28-C ) :   1.1036 B( 28-C , 29-H ) :   0.9698
B( 28-C , 30-H ) :   0.9693 B( 28-C , 31-H ) :   0.9676

Dispersion correction           -0.014106855
FINAL SINGLE POINT ENERGY     -1339.851727409113

DIPOLE MOMENT
-------------
                                X             Y             Z
Electronic contribution:    -13.39296      18.54933     -17.29007
Nuclear contribution   :     13.42014     -18.98169      17.92968
                        -----------------------------------------
Total Dipole Moment    :      0.02718      -0.43236       0.63961
                        -----------------------------------------
Magnitude (a.u.)       :      0.77251
Magnitude (Debye)      :      1.96357

Rotational constants in cm-1:     0.017526     0.008734     0.006737
Rotational constants in MHz :   525.418781   261.844967   201.970501

                             ****ORCA TERMINATED NORMALLY****
TOTAL RUN TIME: 0 days 0 hours 0 minutes 32 seconds 943 msec
