                         Program Version 4.2.1 -  RELEASE  -
|  1> ! wB97X-D3 SP def2-SVP
|  2> %pal
|  3> nprocs 16
|  4> end
|  5>
|  6> * xyz 0 1
|  7> S 	 -2.81705 	 -5.64427 	 80.6073
|  8> C 	 -2.9951 	 -7.36838 	 80.7622
|  9> C 	 -2.5188 	 -7.79821 	 81.9605
| 10> C 	 -1.83874 	 -6.73132 	 82.6595
| 11> C 	 -2.00441 	 -5.4808 	 82.1122
| 12> H 	 -1.33541 	 -6.90187 	 83.5714
| 13> C 	 -2.61217 	 -9.2195 	 82.4771
| 14> H 	 -1.68652 	 -9.6083 	 82.9145
| 15> H 	 -2.84648 	 -9.85513 	 81.6582
| 16> C 	 -3.78162 	 -9.43489 	 83.4721
| 17> H 	 -3.54641 	 -10.483 	 83.6933
| 18> H 	 -3.53428 	 -8.97963 	 84.4018
| 19> C 	 -5.18289 	 -9.21962 	 82.8766
| 20> H 	 -6.1162 	 -9.50843 	 83.4543
| 21> H 	 -5.20513 	 -8.16166 	 82.6464
| 22> H 	 -5.3647 	 -9.76961 	 81.9502
| 23> S 	 -0.796953 	 -3.1199 	 81.292
| 24> C 	 -0.641659 	 -1.65494 	 82.4059
| 25> C 	 -0.87624 	 -2.12173 	 83.6817
| 26> C 	 -1.21065 	 -3.56765 	 83.7718
| 27> C 	 -1.38242 	 -4.18704 	 82.5329
| 28> H 	 -0.665265 	 -1.41409 	 84.4195
| 29> C 	 -1.31336 	 -4.10197 	 85.1657
| 30> H 	 -0.968396 	 -3.42619 	 85.9111
| 31> H 	 -0.552642 	 -4.92186 	 85.2248
| 32> C 	 -2.60939 	 -4.58857 	 85.576
| 33> H 	 -2.46179 	 -5.05702 	 86.4838
| 34> H 	 -3.08611 	 -5.31182 	 84.994
| 35> C 	 -3.58392 	 -3.45832 	 85.9873
| 36> H 	 -3.25161 	 -2.96968 	 86.8742
| 37> H 	 -4.57733 	 -3.70206 	 86.2605
| 38> H 	 -3.56768 	 -2.69414 	 85.2473
| 39> H 	 -3.59544 	 -7.9864 	 80.0973
| 40> H 	 -0.325758 	 -0.66933 	 82.2032
| 41> *
| 42>
| 43>                          ****END OF INPUT****

CARTESIAN COORDINATES (ANGSTROEM)
---------------------------------
  S     -2.817050   -5.644270   80.607300
  C     -2.995100   -7.368380   80.762200
  C     -2.518800   -7.798210   81.960500
  C     -1.838740   -6.731320   82.659500
  C     -2.004410   -5.480800   82.112200
  H     -1.335410   -6.901870   83.571400
  C     -2.612170   -9.219500   82.477100
  H     -1.686520   -9.608300   82.914500
  H     -2.846480   -9.855130   81.658200
  C     -3.781620   -9.434890   83.472100
  H     -3.546410  -10.483000   83.693300
  H     -3.534280   -8.979630   84.401800
  C     -5.182890   -9.219620   82.876600
  H     -6.116200   -9.508430   83.454300
  H     -5.205130   -8.161660   82.646400
  H     -5.364700   -9.769610   81.950200
  S     -0.796953   -3.119900   81.292000
  C     -0.641659   -1.654940   82.405900
  C     -0.876240   -2.121730   83.681700
  C     -1.210650   -3.567650   83.771800
  C     -1.382420   -4.187040   82.532900
  H     -0.665265   -1.414090   84.419500
  C     -1.313360   -4.101970   85.165700
  H     -0.968396   -3.426190   85.911100
  H     -0.552642   -4.921860   85.224800
  C     -2.609390   -4.588570   85.576000
  H     -2.461790   -5.057020   86.483800
  H     -3.086110   -5.311820   84.994000
  C     -3.583920   -3.458320   85.987300
  H     -3.251610   -2.969680   86.874200
  H     -4.577330   -3.702060   86.260500
  H     -3.567680   -2.694140   85.247300
  H     -3.595440   -7.986400   80.097300
  H     -0.325758   -0.669330   82.203200

 Total Charge           Charge          ....    0
 Multiplicity           Mult            ....    1
 Number of Electrons    NEL             ....  134
 Basis Dimension        Dim             ....  322

ORBITAL ENERGIES
----------------

  NO   OCC          E(Eh)            E(eV)
   0   2.0000     -88.965701     -2420.8798
   1   2.0000     -88.962036     -2420.7801
   2   2.0000     -10.336075      -281.2589
   3   2.0000     -10.334384      -281.2129
   4   2.0000     -10.322040      -280.8770
   5   2.0000     -10.313008      -280.6312
   6   2.0000     -10.308939      -280.5205
   7   2.0000     -10.299574      -280.2656
   8   2.0000     -10.295201      -280.1467
   9   2.0000     -10.293236      -280.0932
  10   2.0000     -10.292171      -280.0642
  11   2.0000     -10.288038      -279.9517
  12   2.0000     -10.285792      -279.8906
  13   2.0000     -10.284805      -279.8638
  14   2.0000     -10.266291      -279.3600
  15   2.0000     -10.262994      -279.2703
  16   2.0000      -8.081177      -219.9000
  17   2.0000      -8.075653      -219.7497
  18   2.0000      -6.039760      -164.3502
  19   2.0000      -6.035457      -164.2331
  20   2.0000      -6.034564      -164.2088
  21   2.0000      -6.031891      -164.1361
  22   2.0000      -6.030258      -164.0917
  23   2.0000      -6.026060      -163.9774
  24   2.0000      -1.009048       -27.4576
  25   2.0000      -0.980507       -26.6809
  26   2.0000      -0.922286       -25.0967
  27   2.0000      -0.914797       -24.8929
  28   2.0000      -0.870289       -23.6818
  29   2.0000      -0.846339       -23.0300
  30   2.0000      -0.838698       -22.8221
  31   2.0000      -0.822592       -22.3839
  32   2.0000      -0.786562       -21.4035
  33   2.0000      -0.778242       -21.1770
  34   2.0000      -0.717760       -19.5312
  35   2.0000      -0.705018       -19.1845
  36   2.0000      -0.689985       -18.7754
  37   2.0000      -0.664823       -18.0908
  38   2.0000      -0.642912       -17.4945
  39   2.0000      -0.626511       -17.0482
  40   2.0000      -0.597248       -16.2519
  41   2.0000      -0.578512       -15.7421
  42   2.0000      -0.563412       -15.3312
  43   2.0000      -0.551965       -15.0197
  44   2.0000      -0.549625       -14.9561
  45   2.0000      -0.543740       -14.7959
  46   2.0000      -0.513550       -13.9744
  47   2.0000      -0.512035       -13.9332
  48   2.0000      -0.509139       -13.8544
  49   2.0000      -0.493572       -13.4308
  50   2.0000      -0.491413       -13.3720
  51   2.0000      -0.482174       -13.1206
  52   2.0000      -0.471524       -12.8308
  53   2.0000      -0.470009       -12.7896
  54   2.0000      -0.464834       -12.6488
  55   2.0000      -0.446408       -12.1474
  56   2.0000      -0.444182       -12.0868
  57   2.0000      -0.438310       -11.9270
  58   2.0000      -0.434134       -11.8134
  59   2.0000      -0.429254       -11.6806
  60   2.0000      -0.415884       -11.3168
  61   2.0000      -0.406816       -11.0700
  62   2.0000      -0.399782       -10.8786
  63   2.0000      -0.356362        -9.6971
  64   2.0000      -0.329476        -8.9655
  65   2.0000      -0.324544        -8.8313
  66   2.0000      -0.293134        -7.9766
  67   0.0000       0.022925         0.6238
  68   0.0000       0.079077         2.1518
  69   0.0000       0.102266         2.7828
  70   0.0000       0.123189         3.3522
  71   0.0000       0.126706         3.4479

MULLIKEN ATOMIC CHARGES
-----------------------
   0 S :    0.110795
   1 C :   -0.118110
   2 C :   -0.105856
   3 C :    0.042205
   4 C :   -0.115973
   5 H :   -0.011181
   6 C :    0.058385
   7 H :    0.033890
   8 H :    0.006266
   9 C :   -0.045592
  10 H :    0.019269
  11 H :    0.020753
  12 C :   -0.064491
  13 H :    0.050362
  14 H :    0.048421
  15 H :    0.023544
  16 S :    0.075278
  17 C :   -0.083896
  18 C :   -0.015784
  19 C :   -0.051384
  20 C :   -0.115707
  21 H :    0.006057
  22 C :    0.063733
  23 H :    0.002147
  24 H :    0.035534
  25 C :    0.002384
  26 H :   -0.003580
  27 H :    0.020102
  28 C :   -0.022313
  29 H :   -0.000429
  30 H :    0.021524
  31 H :    0.018679
  32 H :    0.049946
  33 H :    0.045021
Sum of atomic charges:   -0.0000000

LOEWDIN ATOMIC CHARGES
----------------------
   0 S :    0.424691
   1 C :   -0.198408
   2 C :   -0.066332
   3 C :   -0.059802
   4 C :   -0.198003
   5 H :    0.020417
   6 C :   -0.024920
   7 H :    0.034004
   8 H :    0.024142
   9 C :   -0.037787
  10 H :    0.024484
  11 H :    0.017568
  12 C :   -0.074455
  13 H :    0.037274
  14 H :    0.028908
  15 H :    0.025007
  16 S :    0.367035
  17 C :   -0.151917
  18 C :   -0.062247
  19 C :   -0.053953
  20 C :   -0.193830
  21 H :    0.023280
  22 C :   -0.033044
  23 H :    0.028967
  24 H :    0.038221
  25 C :   -0.034274
  26 H :    0.018614
  27 H :    0.017131
  28 C :   -0.055126
  29 H :    0.018244
  30 H :    0.021220
  31 H :    0.018850
  32 H :    0.030467
  33 H :    0.025574

  Mayer bond orders larger than 0.100000
B(  0-S ,  1-C ) :   1.1388 B(  0-S ,  4-C ) :   1.1608 B(  1-C ,  2-C ) :   1.6147
B(  1-C , 32-H ) :   0.9633 B(  2-C ,  3-C ) :   1.2445 B(  2-C ,  6-C ) :   1.0307
B(  3-C ,  4-C ) :   1.5559 B(  3-C ,  5-H ) :   1.0002 B(  4-C , 20-C ) :   1.0302
B(  6-C ,  7-H ) :   0.9450 B(  6-C ,  8-H ) :   0.9385 B(  6-C ,  9-C ) :   1.0674
B(  9-C , 10-H ) :   0.9566 B(  9-C , 11-H ) :   0.9606 B(  9-C , 12-C ) :   1.0537
B( 12-C , 13-H ) :   0.9754 B( 12-C , 14-H ) :   0.9757 B( 12-C , 15-H ) :   0.9734
B( 16-S , 17-C ) :   1.1122 B( 16-S , 20-C ) :   1.1302 B( 17-C , 18-C ) :   1.6533
B( 17-C , 33-H ) :   0.9737 B( 18-C , 19-C ) :   1.2022 B( 18-C , 21-H ) :   0.9938
B( 19-C , 20-C ) :   1.6062 B( 19-C , 22-C ) :   1.0473 B( 22-C , 23-H ) :   0.9298
B( 22-C , 24-H ) :   0.9261 B( 22-C , 25-C ) :   1.0930 B( 25-C , 26-H ) :   0.9406
B( 25-C , 27-H ) :   0.9554 B( 25-C , 28-C ) :   1.0683 B( 28-C , 29-H ) :   0.9706
B( 28-C , 30-H ) :   0.9741 B( 28-C , 31-H ) :   0.9802

Dispersion correction           -0.014905972
FINAL SINGLE POINT ENERGY     -1339.846603610301

DIPOLE MOMENT
-------------
                                X             Y             Z
Electronic contribution:     11.66984      13.75749     -21.14486
Nuclear contribution   :    -11.69405     -14.13273      21.84891
                        -----------------------------------------
Total Dipole Moment    :     -0.02422      -0.37524       0.70405
                        -----------------------------------------
Magnitude (a.u.)       :      0.79817
Magnitude (Debye)      :      2.02879

Rotational constants in cm-1:     0.020468     0.009093     0.006977
Rotational constants in MHz :   613.600503   272.592253   209.166563

                             ****ORCA TERMINATED NORMALLY****
TOTAL RUN TIME: 0 days 0 hours 0 minutes 35 seconds 437 msec
