                         Program Version 4.2.1 -  RELEASE  -
|  1> ! wB97X-D3 SP def2-SVP
|  2> %pal
|  3> nprocs 16
|  4> end
|  5>
|  6> * xyz 0 1
|  7> S 	 -65.2507 	 53.5056 	 135.187
|  8> C 	 -66.1757 	 54.9075 	 135.482
|  9> C 	 -67.5533 	 54.7137 	 135.317
| 10> C 	 -67.7998 	 53.3972 	 134.877
| 11> C 	 -66.6985 	 52.6217 	 134.599
| 12> H 	 -68.882 	 53.0647 	 134.771
| 13> C 	 -68.6564 	 55.7322 	 135.743
| 14> H 	 -68.3609 	 56.7107 	 135.509
| 15> H 	 -68.8084 	 55.6787 	 136.839
| 16> C 	 -70.0645 	 55.5063 	 135.195
| 17> H 	 -70.1104 	 55.2823 	 134.102
| 18> H 	 -70.4452 	 54.5786 	 135.661
| 19> C 	 -70.9866 	 56.7007 	 135.534
| 20> H 	 -71.1887 	 56.6559 	 136.614
| 21> H 	 -70.5586 	 57.6609 	 135.378
| 22> H 	 -71.9313 	 56.7351 	 134.964
| 23> S 	 -65.2836 	 50.2437 	 134.662
| 24> C 	 -65.8242 	 48.8604 	 133.631
| 25> C 	 -67.064 	 49.1375 	 133.034
| 26> C 	 -67.5437 	 50.4158 	 133.358
| 27> C 	 -66.6683 	 51.2206 	 134.163
| 28> H 	 -67.6168 	 48.4072 	 132.468
| 29> C 	 -68.916 	 50.9132 	 132.909
| 30> H 	 -69.1409 	 50.7213 	 131.87
| 31> H 	 -68.8598 	 52.0389 	 132.973
| 32> C 	 -69.9729 	 50.2564 	 133.753
| 33> H 	 -69.9824 	 50.6423 	 134.814
| 34> H 	 -69.8114 	 49.1891 	 134.017
| 35> C 	 -71.3824 	 50.3453 	 133.12
| 36> H 	 -71.3098 	 49.8205 	 132.194
| 37> H 	 -71.7793 	 51.3651 	 132.979
| 38> H 	 -72.2041 	 49.8001 	 133.593
| 39> H 	 -65.8303 	 55.8775 	 135.924
| 40> H 	 -65.2046 	 47.9577 	 133.533
| 41> *
| 42>
| 43>                          ****END OF INPUT****

CARTESIAN COORDINATES (ANGSTROEM)
---------------------------------
  S    -65.250700   53.505600  135.187000
  C    -66.175700   54.907500  135.482000
  C    -67.553300   54.713700  135.317000
  C    -67.799800   53.397200  134.877000
  C    -66.698500   52.621700  134.599000
  H    -68.882000   53.064700  134.771000
  C    -68.656400   55.732200  135.743000
  H    -68.360900   56.710700  135.509000
  H    -68.808400   55.678700  136.839000
  C    -70.064500   55.506300  135.195000
  H    -70.110400   55.282300  134.102000
  H    -70.445200   54.578600  135.661000
  C    -70.986600   56.700700  135.534000
  H    -71.188700   56.655900  136.614000
  H    -70.558600   57.660900  135.378000
  H    -71.931300   56.735100  134.964000
  S    -65.283600   50.243700  134.662000
  C    -65.824200   48.860400  133.631000
  C    -67.064000   49.137500  133.034000
  C    -67.543700   50.415800  133.358000
  C    -66.668300   51.220600  134.163000
  H    -67.616800   48.407200  132.468000
  C    -68.916000   50.913200  132.909000
  H    -69.140900   50.721300  131.870000
  H    -68.859800   52.038900  132.973000
  C    -69.972900   50.256400  133.753000
  H    -69.982400   50.642300  134.814000
  H    -69.811400   49.189100  134.017000
  C    -71.382400   50.345300  133.120000
  H    -71.309800   49.820500  132.194000
  H    -71.779300   51.365100  132.979000
  H    -72.204100   49.800100  133.593000
  H    -65.830300   55.877500  135.924000
  H    -65.204600   47.957700  133.533000

 Total Charge           Charge          ....    0
 Multiplicity           Mult            ....    1
 Number of Electrons    NEL             ....  134
 Basis Dimension        Dim             ....  322

ORBITAL ENERGIES
----------------

  NO   OCC          E(Eh)            E(eV)
   0   2.0000     -88.972537     -2421.0658
   1   2.0000     -88.967091     -2420.9176
   2   2.0000     -10.336077      -281.2590
   3   2.0000     -10.335657      -281.2475
   4   2.0000     -10.327205      -281.0175
   5   2.0000     -10.317332      -280.7489
   6   2.0000     -10.306628      -280.4576
   7   2.0000     -10.302775      -280.3528
   8   2.0000     -10.298812      -280.2449
   9   2.0000     -10.297870      -280.2193
  10   2.0000     -10.296529      -280.1828
  11   2.0000     -10.294278      -280.1215
  12   2.0000     -10.293480      -280.0998
  13   2.0000     -10.292112      -280.0626
  14   2.0000     -10.282220      -279.7934
  15   2.0000     -10.277706      -279.6706
  16   2.0000      -8.086881      -220.0552
  17   2.0000      -8.080636      -219.8853
  18   2.0000      -6.045501      -164.5065
  19   2.0000      -6.041480      -164.3970
  20   2.0000      -6.039191      -164.3347
  21   2.0000      -6.037500      -164.2887
  22   2.0000      -6.035308      -164.2291
  23   2.0000      -6.031445      -164.1240
  24   2.0000      -1.003857       -27.3163
  25   2.0000      -0.979500       -26.6535
  26   2.0000      -0.912372       -24.8269
  27   2.0000      -0.908613       -24.7246
  28   2.0000      -0.868822       -23.6418
  29   2.0000      -0.851841       -23.1798
  30   2.0000      -0.843773       -22.9602
  31   2.0000      -0.812753       -22.1161
  32   2.0000      -0.781849       -21.2752
  33   2.0000      -0.768185       -20.9034
  34   2.0000      -0.711172       -19.3520
  35   2.0000      -0.699198       -19.0262
  36   2.0000      -0.690864       -18.7994
  37   2.0000      -0.663064       -18.0429
  38   2.0000      -0.635879       -17.3031
  39   2.0000      -0.622785       -16.9468
  40   2.0000      -0.596507       -16.2318
  41   2.0000      -0.573513       -15.6061
  42   2.0000      -0.565055       -15.3759
  43   2.0000      -0.557593       -15.1729
  44   2.0000      -0.525119       -14.2892
  45   2.0000      -0.524003       -14.2589
  46   2.0000      -0.516332       -14.0501
  47   2.0000      -0.507142       -13.8000
  48   2.0000      -0.504491       -13.7279
  49   2.0000      -0.497339       -13.5333
  50   2.0000      -0.489325       -13.3152
  51   2.0000      -0.483473       -13.1560
  52   2.0000      -0.473423       -12.8825
  53   2.0000      -0.462378       -12.5819
  54   2.0000      -0.458181       -12.4677
  55   2.0000      -0.450047       -12.2464
  56   2.0000      -0.447935       -12.1889
  57   2.0000      -0.438238       -11.9251
  58   2.0000      -0.433745       -11.8028
  59   2.0000      -0.429829       -11.6963
  60   2.0000      -0.420381       -11.4391
  61   2.0000      -0.415320       -11.3014
  62   2.0000      -0.408122       -11.1056
  63   2.0000      -0.359353        -9.7785
  64   2.0000      -0.337794        -9.1918
  65   2.0000      -0.328984        -8.9521
  66   2.0000      -0.277220        -7.5435
  67   0.0000       0.014991         0.4079
  68   0.0000       0.075907         2.0655
  69   0.0000       0.094889         2.5820
  70   0.0000       0.123418         3.3584
  71   0.0000       0.129645         3.5278

MULLIKEN ATOMIC CHARGES
-----------------------
   0 S :    0.122257
   1 C :   -0.127172
   2 C :   -0.090078
   3 C :   -0.039308
   4 C :   -0.101810
   5 H :    0.039948
   6 C :    0.081198
   7 H :    0.011739
   8 H :    0.046237
   9 C :   -0.133726
  10 H :    0.039232
  11 H :    0.039343
  12 C :   -0.031572
  13 H :    0.029707
  14 H :    0.020740
  15 H :    0.041365
  16 S :    0.080359
  17 C :   -0.116420
  18 C :   -0.000179
  19 C :   -0.069766
  20 C :   -0.132958
  21 H :    0.019896
  22 C :    0.073822
  23 H :    0.016305
  24 H :    0.038266
  25 C :   -0.094821
  26 H :    0.029437
  27 H :    0.034163
  28 C :   -0.044941
  29 H :    0.020977
  30 H :    0.036175
  31 H :    0.028565
  32 H :    0.060101
  33 H :    0.072920
Sum of atomic charges:   -0.0000000

LOEWDIN ATOMIC CHARGES
----------------------
   0 S :    0.414481
   1 C :   -0.216176
   2 C :   -0.068992
   3 C :   -0.073506
   4 C :   -0.185501
   5 H :    0.041726
   6 C :   -0.025757
   7 H :    0.020109
   8 H :    0.039925
   9 C :   -0.049823
  10 H :    0.024160
  11 H :    0.024340
  12 C :   -0.064423
  13 H :    0.028310
  14 H :    0.019146
  15 H :    0.031736
  16 S :    0.375761
  17 C :   -0.170609
  18 C :   -0.065454
  19 C :   -0.055028
  20 C :   -0.188159
  21 H :    0.034100
  22 C :   -0.034738
  23 H :    0.025813
  24 H :    0.037913
  25 C :   -0.050971
  26 H :    0.027154
  27 H :    0.030364
  28 C :   -0.072347
  29 H :    0.020507
  30 H :    0.026112
  31 H :    0.027028
  32 H :    0.039973
  33 H :    0.032826

  Mayer bond orders larger than 0.100000
B(  0-S ,  1-C ) :   1.1614 B(  0-S ,  4-C ) :   1.1340 B(  1-C ,  2-C ) :   1.5924
B(  1-C , 32-H ) :   0.9584 B(  2-C ,  3-C ) :   1.3062 B(  2-C ,  6-C ) :   1.0042
B(  3-C ,  4-C ) :   1.5276 B(  3-C ,  5-H ) :   0.9665 B(  4-C , 20-C ) :   1.0916
B(  6-C ,  7-H ) :   0.9456 B(  6-C ,  8-H ) :   0.9394 B(  6-C ,  9-C ) :   1.0658
B(  9-C , 10-H ) :   0.9627 B(  9-C , 11-H ) :   0.9475 B(  9-C , 12-C ) :   1.0768
B( 12-C , 13-H ) :   0.9738 B( 12-C , 14-H ) :   0.9768 B( 12-C , 15-H ) :   0.9744
B( 16-S , 17-C ) :   1.1536 B( 16-S , 20-C ) :   1.1374 B( 17-C , 18-C ) :   1.5597
B( 17-C , 20-C ) :   0.1119 B( 17-C , 33-H ) :   0.9682 B( 18-C , 19-C ) :   1.2891
B( 18-C , 21-H ) :   0.9909 B( 19-C , 20-C ) :   1.5408 B( 19-C , 22-C ) :   1.0413
B( 22-C , 23-H ) :   0.9413 B( 22-C , 24-H ) :   0.9277 B( 22-C , 25-C ) :   1.0418
B( 25-C , 26-H ) :   0.9472 B( 25-C , 27-H ) :   0.9599 B( 25-C , 28-C ) :   1.0721
B( 28-C , 29-H ) :   0.9740 B( 28-C , 30-H ) :   0.9759 B( 28-C , 31-H ) :   0.9740

Dispersion correction           -0.013838427
FINAL SINGLE POINT ENERGY     -1339.875447264464

DIPOLE MOMENT
-------------
                                X             Y             Z
Electronic contribution:     32.91747      -9.08960       2.46066
Nuclear contribution   :    -33.65953       9.20556      -2.44398
                        -----------------------------------------
Total Dipole Moment    :     -0.74206       0.11596       0.01668
                        -----------------------------------------
Magnitude (a.u.)       :      0.75126
Magnitude (Debye)      :      1.90954

Rotational constants in cm-1:     0.016594     0.009508     0.006199
Rotational constants in MHz :   497.464713   285.051202   185.837716

                             ****ORCA TERMINATED NORMALLY****
TOTAL RUN TIME: 0 days 0 hours 0 minutes 34 seconds 424 msec
