                         Program Version 4.2.1 -  RELEASE  -
|  1> ! wB97X-D3 SP def2-SVP
|  2> %pal
|  3> nprocs 16
|  4> end
|  5>
|  6> * xyz 0 1
|  7> S 	 21.6395 	 0.125628 	 84.3361
|  8> C 	 22.9274 	 1.13911 	 83.8857
|  9> C 	 22.4643 	 2.38979 	 83.5763
| 10> C 	 21.0093 	 2.47892 	 83.5964
| 11> C 	 20.4325 	 1.32074 	 84.0423
| 12> H 	 20.4156 	 3.29283 	 83.3547
| 13> C 	 23.2526 	 3.63312 	 83.3699
| 14> H 	 22.6344 	 4.50678 	 83.271
| 15> H 	 23.7237 	 3.54507 	 82.4019
| 16> C 	 24.2183 	 3.8402 	 84.5814
| 17> H 	 23.6038 	 4.16784 	 85.3584
| 18> H 	 24.6479 	 2.91581 	 84.9648
| 19> C 	 25.3019 	 4.74395 	 84.2684
| 20> H 	 25.9047 	 4.50195 	 83.3822
| 21> H 	 24.7795 	 5.71001 	 83.9956
| 22> H 	 25.9329 	 4.7626 	 85.1296
| 23> S 	 18.6398 	 0.165408 	 85.8555
| 24> C 	 16.9429 	 0.403048 	 85.5409
| 25> C 	 16.751 	 0.930542 	 84.255
| 26> C 	 17.9193 	 1.24865 	 83.5737
| 27> C 	 19.047 	 1.01982 	 84.346
| 28> H 	 15.7959 	 1.00602 	 83.8459
| 29> C 	 17.8712 	 1.69671 	 82.0879
| 30> H 	 18.7753 	 1.2407 	 81.7837
| 31> H 	 18.0926 	 2.83069 	 81.9678
| 32> C 	 16.6706 	 1.25302 	 81.2928
| 33> H 	 15.8858 	 2.09183 	 81.4953
| 34> H 	 16.3232 	 0.273795 	 81.6165
| 35> C 	 16.9087 	 1.14424 	 79.8257
| 36> H 	 15.9535 	 1.06099 	 79.2444
| 37> H 	 17.545 	 0.349166 	 79.4993
| 38> H 	 17.2808 	 2.04957 	 79.3083
| 39> H 	 24.0087 	 0.820895 	 83.9663
| 40> H 	 16.191 	 -0.0712743 	 86.1988
| 41> *
| 42>
| 43>                          ****END OF INPUT****

CARTESIAN COORDINATES (ANGSTROEM)
---------------------------------
  S     21.639500    0.125628   84.336100
  C     22.927400    1.139110   83.885700
  C     22.464300    2.389790   83.576300
  C     21.009300    2.478920   83.596400
  C     20.432500    1.320740   84.042300
  H     20.415600    3.292830   83.354700
  C     23.252600    3.633120   83.369900
  H     22.634400    4.506780   83.271000
  H     23.723700    3.545070   82.401900
  C     24.218300    3.840200   84.581400
  H     23.603800    4.167840   85.358400
  H     24.647900    2.915810   84.964800
  C     25.301900    4.743950   84.268400
  H     25.904700    4.501950   83.382200
  H     24.779500    5.710010   83.995600
  H     25.932900    4.762600   85.129600
  S     18.639800    0.165408   85.855500
  C     16.942900    0.403048   85.540900
  C     16.751000    0.930542   84.255000
  C     17.919300    1.248650   83.573700
  C     19.047000    1.019820   84.346000
  H     15.795900    1.006020   83.845900
  C     17.871200    1.696710   82.087900
  H     18.775300    1.240700   81.783700
  H     18.092600    2.830690   81.967800
  C     16.670600    1.253020   81.292800
  H     15.885800    2.091830   81.495300
  H     16.323200    0.273795   81.616500
  C     16.908700    1.144240   79.825700
  H     15.953500    1.060990   79.244400
  H     17.545000    0.349166   79.499300
  H     17.280800    2.049570   79.308300
  H     24.008700    0.820895   83.966300
  H     16.191000   -0.071274   86.198800

 Total Charge           Charge          ....    0
 Multiplicity           Mult            ....    1
 Number of Electrons    NEL             ....  134
 Basis Dimension        Dim             ....  322

ORBITAL ENERGIES
----------------

  NO   OCC          E(Eh)            E(eV)
   0   2.0000     -88.966228     -2420.8941
   1   2.0000     -88.959386     -2420.7080
   2   2.0000     -10.324855      -280.9536
   3   2.0000     -10.322246      -280.8826
   4   2.0000     -10.319647      -280.8119
   5   2.0000     -10.310789      -280.5708
   6   2.0000     -10.299792      -280.2716
   7   2.0000     -10.297044      -280.1968
   8   2.0000     -10.295554      -280.1563
   9   2.0000     -10.295269      -280.1485
  10   2.0000     -10.287049      -279.9248
  11   2.0000     -10.286482      -279.9094
  12   2.0000     -10.284791      -279.8634
  13   2.0000     -10.279206      -279.7114
  14   2.0000     -10.274243      -279.5764
  15   2.0000     -10.273299      -279.5507
  16   2.0000      -8.080623      -219.8849
  17   2.0000      -8.075884      -219.7560
  18   2.0000      -6.039037      -164.3305
  19   2.0000      -6.035235      -164.2271
  20   2.0000      -6.034407      -164.2046
  21   2.0000      -6.031460      -164.1244
  22   2.0000      -6.030015      -164.0851
  23   2.0000      -6.026654      -163.9936
  24   2.0000      -1.010550       -27.4985
  25   2.0000      -0.986629       -26.8475
  26   2.0000      -0.920723       -25.0541
  27   2.0000      -0.913613       -24.8607
  28   2.0000      -0.871822       -23.7235
  29   2.0000      -0.858333       -23.3564
  30   2.0000      -0.850613       -23.1463
  31   2.0000      -0.813254       -22.1298
  32   2.0000      -0.784014       -21.3341
  33   2.0000      -0.769341       -20.9348
  34   2.0000      -0.703978       -19.1562
  35   2.0000      -0.703524       -19.1439
  36   2.0000      -0.693209       -18.8632
  37   2.0000      -0.659532       -17.9468
  38   2.0000      -0.643247       -17.5036
  39   2.0000      -0.615819       -16.7573
  40   2.0000      -0.598137       -16.2761
  41   2.0000      -0.579460       -15.7679
  42   2.0000      -0.572698       -15.5839
  43   2.0000      -0.552130       -15.0242
  44   2.0000      -0.537654       -14.6303
  45   2.0000      -0.525874       -14.3098
  46   2.0000      -0.521768       -14.1980
  47   2.0000      -0.512017       -13.9327
  48   2.0000      -0.509241       -13.8571
  49   2.0000      -0.496131       -13.5004
  50   2.0000      -0.491167       -13.3653
  51   2.0000      -0.490246       -13.3403
  52   2.0000      -0.482280       -13.1235
  53   2.0000      -0.467111       -12.7107
  54   2.0000      -0.458374       -12.4730
  55   2.0000      -0.450086       -12.2475
  56   2.0000      -0.447269       -12.1708
  57   2.0000      -0.430387       -11.7114
  58   2.0000      -0.424838       -11.5604
  59   2.0000      -0.421403       -11.4670
  60   2.0000      -0.418145       -11.3783
  61   2.0000      -0.415010       -11.2930
  62   2.0000      -0.408160       -11.1066
  63   2.0000      -0.348734        -9.4895
  64   2.0000      -0.333663        -9.0794
  65   2.0000      -0.323876        -8.8131
  66   2.0000      -0.286211        -7.7882
  67   0.0000       0.028687         0.7806
  68   0.0000       0.072981         1.9859
  69   0.0000       0.115341         3.1386
  70   0.0000       0.128260         3.4901
  71   0.0000       0.134689         3.6651

MULLIKEN ATOMIC CHARGES
-----------------------
   0 S :    0.102203
   1 C :   -0.145636
   2 C :   -0.101877
   3 C :    0.045757
   4 C :   -0.156451
   5 H :   -0.021901
   6 C :    0.091849
   7 H :    0.010930
   8 H :    0.027296
   9 C :   -0.070639
  10 H :    0.018907
  11 H :    0.017185
  12 C :   -0.016676
  13 H :    0.030087
  14 H :    0.024560
  15 H :    0.030446
  16 S :    0.111154
  17 C :   -0.105161
  18 C :   -0.021846
  19 C :   -0.044490
  20 C :   -0.157717
  21 H :   -0.004407
  22 C :    0.082521
  23 H :    0.017715
  24 H :    0.050624
  25 C :   -0.088290
  26 H :    0.048629
  27 H :    0.040878
  28 C :   -0.048563
  29 H :    0.029728
  30 H :    0.036396
  31 H :    0.020963
  32 H :    0.073045
  33 H :    0.072782
Sum of atomic charges:    0.0000000

LOEWDIN ATOMIC CHARGES
----------------------
   0 S :    0.427612
   1 C :   -0.224798
   2 C :   -0.061729
   3 C :   -0.057484
   4 C :   -0.198124
   5 H :    0.019061
   6 C :   -0.027607
   7 H :    0.025764
   8 H :    0.029577
   9 C :   -0.036044
  10 H :    0.021756
  11 H :    0.019387
  12 C :   -0.063462
  13 H :    0.025169
  14 H :    0.030297
  15 H :    0.024222
  16 S :    0.400674
  17 C :   -0.191957
  18 C :   -0.067621
  19 C :   -0.056144
  20 C :   -0.195856
  21 H :    0.020292
  22 C :   -0.034619
  23 H :    0.025203
  24 H :    0.041497
  25 C :   -0.049932
  26 H :    0.039238
  27 H :    0.029284
  28 C :   -0.072269
  29 H :    0.033044
  30 H :    0.023246
  31 H :    0.026261
  32 H :    0.041877
  33 H :    0.034187

  Mayer bond orders larger than 0.100000
B(  0-S ,  1-C ) :   1.1403 B(  0-S ,  4-C ) :   1.1648 B(  1-C ,  2-C ) :   1.6093
B(  1-C , 32-H ) :   0.9618 B(  2-C ,  3-C ) :   1.2322 B(  2-C ,  6-C ) :   1.0277
B(  3-C ,  4-C ) :   1.5705 B(  3-C ,  5-H ) :   1.0114 B(  4-C , 20-C ) :   1.0441
B(  6-C ,  7-H ) :   0.9408 B(  6-C ,  8-H ) :   0.9340 B(  6-C ,  9-C ) :   1.0469
B(  9-C , 10-H ) :   0.9502 B(  9-C , 11-H ) :   0.9627 B(  9-C , 12-C ) :   1.0926
B( 12-C , 13-H ) :   0.9756 B( 12-C , 14-H ) :   0.9668 B( 12-C , 15-H ) :   0.9691
B( 16-S , 17-C ) :   1.1672 B( 16-S , 20-C ) :   1.1461 B( 17-C , 18-C ) :   1.5516
B( 17-C , 20-C ) :   0.1144 B( 17-C , 33-H ) :   0.9639 B( 18-C , 19-C ) :   1.2890
B( 18-C , 21-H ) :   0.9965 B( 19-C , 20-C ) :   1.5741 B( 19-C , 22-C ) :   1.0047
B( 22-C , 23-H ) :   0.9332 B( 22-C , 24-H ) :   0.9252 B( 22-C , 25-C ) :   1.0746
B( 25-C , 26-H ) :   0.9426 B( 25-C , 27-H ) :   0.9537 B( 25-C , 28-C ) :   1.0975
B( 28-C , 29-H ) :   0.9690 B( 28-C , 30-H ) :   0.9735 B( 28-C , 31-H ) :   0.9691

Dispersion correction           -0.013424559
FINAL SINGLE POINT ENERGY     -1339.863895404629

DIPOLE MOMENT
-------------
                                X             Y             Z
Electronic contribution:     -4.58271     -16.24603      16.58142
Nuclear contribution   :      4.52748      16.59263     -16.99022
                        -----------------------------------------
Total Dipole Moment    :     -0.05523       0.34660      -0.40880
                        -----------------------------------------
Magnitude (a.u.)       :      0.53880
Magnitude (Debye)      :      1.36951

Rotational constants in cm-1:     0.020575     0.007295     0.006064
Rotational constants in MHz :   616.824321   218.700461   181.785341

                             ****ORCA TERMINATED NORMALLY****
TOTAL RUN TIME: 0 days 0 hours 0 minutes 33 seconds 978 msec
