                         Program Version 4.2.1 -  RELEASE  -
|  1> ! wB97X-D3 SP def2-SVP
|  2> %pal
|  3> nprocs 16
|  4> end
|  5>
|  6> * xyz 0 1
|  7> S 	 8.82361 	 20.1108 	 52.0392
|  8> C 	 10.1657 	 19.4199 	 52.9401
|  9> C 	 11.3753 	 19.8381 	 52.3802
| 10> C 	 11.1441 	 20.35 	 51.0359
| 11> C 	 9.8381 	 20.4431 	 50.6021
| 12> H 	 11.9659 	 20.4892 	 50.3286
| 13> C 	 12.7666 	 19.6062 	 52.9809
| 14> H 	 12.7558 	 19.5567 	 54.0948
| 15> H 	 13.3334 	 20.5418 	 52.879
| 16> C 	 13.371 	 18.3114 	 52.4403
| 17> H 	 12.7335 	 17.472 	 52.5824
| 18> H 	 13.5275 	 18.4679 	 51.3977
| 19> C 	 14.6627 	 17.9489 	 53.0928
| 20> H 	 14.5028 	 17.7762 	 54.1735
| 21> H 	 15.137 	 17.0576 	 52.6901
| 22> H 	 15.4327 	 18.6939 	 53.1435
| 23> S 	 10.0902 	 20.0199 	 47.8152
| 24> C 	 8.89916 	 20.8191 	 46.7459
| 25> C 	 8.12091 	 21.6954 	 47.5403
| 26> C 	 8.32679 	 21.7095 	 48.9182
| 27> C 	 9.31609 	 20.8251 	 49.2554
| 28> H 	 7.58419 	 22.4386 	 46.9442
| 29> C 	 7.61789 	 22.6629 	 49.8407
| 30> H 	 8.3855 	 23.1089 	 50.4342
| 31> H 	 6.89137 	 22.0433 	 50.4487
| 32> C 	 6.63605 	 23.6722 	 49.1987
| 33> H 	 5.83172 	 23.08 	 48.8067
| 34> H 	 7.14396 	 24.1996 	 48.3743
| 35> C 	 5.94867 	 24.676 	 50.2025
| 36> H 	 5.76327 	 24.2301 	 51.1631
| 37> H 	 5.03444 	 25.0749 	 49.7296
| 38> H 	 6.65658 	 25.5424 	 50.3737
| 39> H 	 9.99015 	 18.8899 	 53.8117
| 40> H 	 8.86417 	 20.8637 	 45.6758
| 41> *
| 42>
| 43>                          ****END OF INPUT****

CARTESIAN COORDINATES (ANGSTROEM)
---------------------------------
  S      8.823610   20.110800   52.039200
  C     10.165700   19.419900   52.940100
  C     11.375300   19.838100   52.380200
  C     11.144100   20.350000   51.035900
  C      9.838100   20.443100   50.602100
  H     11.965900   20.489200   50.328600
  C     12.766600   19.606200   52.980900
  H     12.755800   19.556700   54.094800
  H     13.333400   20.541800   52.879000
  C     13.371000   18.311400   52.440300
  H     12.733500   17.472000   52.582400
  H     13.527500   18.467900   51.397700
  C     14.662700   17.948900   53.092800
  H     14.502800   17.776200   54.173500
  H     15.137000   17.057600   52.690100
  H     15.432700   18.693900   53.143500
  S     10.090200   20.019900   47.815200
  C      8.899160   20.819100   46.745900
  C      8.120910   21.695400   47.540300
  C      8.326790   21.709500   48.918200
  C      9.316090   20.825100   49.255400
  H      7.584190   22.438600   46.944200
  C      7.617890   22.662900   49.840700
  H      8.385500   23.108900   50.434200
  H      6.891370   22.043300   50.448700
  C      6.636050   23.672200   49.198700
  H      5.831720   23.080000   48.806700
  H      7.143960   24.199600   48.374300
  C      5.948670   24.676000   50.202500
  H      5.763270   24.230100   51.163100
  H      5.034440   25.074900   49.729600
  H      6.656580   25.542400   50.373700
  H      9.990150   18.889900   53.811700
  H      8.864170   20.863700   45.675800

 Total Charge           Charge          ....    0
 Multiplicity           Mult            ....    1
 Number of Electrons    NEL             ....  134
 Basis Dimension        Dim             ....  322

ORBITAL ENERGIES
----------------

  NO   OCC          E(Eh)            E(eV)
   0   2.0000     -88.970693     -2421.0156
   1   2.0000     -88.960860     -2420.7481
   2   2.0000     -10.334973      -281.2289
   3   2.0000     -10.334816      -281.2246
   4   2.0000     -10.321359      -280.8584
   5   2.0000     -10.313984      -280.6578
   6   2.0000     -10.308061      -280.4966
   7   2.0000     -10.300979      -280.3039
   8   2.0000     -10.298012      -280.2231
   9   2.0000     -10.297698      -280.2146
  10   2.0000     -10.295582      -280.1570
  11   2.0000     -10.292981      -280.0862
  12   2.0000     -10.290897      -280.0296
  13   2.0000     -10.286722      -279.9159
  14   2.0000     -10.280410      -279.7442
  15   2.0000     -10.273197      -279.5479
  16   2.0000      -8.083187      -219.9547
  17   2.0000      -8.074988      -219.7316
  18   2.0000      -6.041925      -164.4091
  19   2.0000      -6.038074      -164.3044
  20   2.0000      -6.033781      -164.1875
  21   2.0000      -6.033721      -164.1859
  22   2.0000      -6.029658      -164.0753
  23   2.0000      -6.025480      -163.9616
  24   2.0000      -0.997557       -27.1449
  25   2.0000      -0.978090       -26.6152
  26   2.0000      -0.914444       -24.8833
  27   2.0000      -0.906334       -24.6626
  28   2.0000      -0.865056       -23.5394
  29   2.0000      -0.849384       -23.1129
  30   2.0000      -0.842774       -22.9331
  31   2.0000      -0.810654       -22.0590
  32   2.0000      -0.782287       -21.2871
  33   2.0000      -0.771412       -20.9912
  34   2.0000      -0.707073       -19.2404
  35   2.0000      -0.704191       -19.1620
  36   2.0000      -0.698593       -19.0097
  37   2.0000      -0.659740       -17.9524
  38   2.0000      -0.636708       -17.3257
  39   2.0000      -0.614428       -16.7194
  40   2.0000      -0.594140       -16.1674
  41   2.0000      -0.577543       -15.7157
  42   2.0000      -0.567303       -15.4371
  43   2.0000      -0.561825       -15.2880
  44   2.0000      -0.533149       -14.5077
  45   2.0000      -0.530268       -14.4293
  46   2.0000      -0.514866       -14.0102
  47   2.0000      -0.511337       -13.9142
  48   2.0000      -0.505681       -13.7603
  49   2.0000      -0.497181       -13.5290
  50   2.0000      -0.486731       -13.2446
  51   2.0000      -0.480553       -13.0765
  52   2.0000      -0.472745       -12.8640
  53   2.0000      -0.458546       -12.4777
  54   2.0000      -0.452594       -12.3157
  55   2.0000      -0.449161       -12.2223
  56   2.0000      -0.444113       -12.0849
  57   2.0000      -0.437008       -11.8916
  58   2.0000      -0.428903       -11.6710
  59   2.0000      -0.426561       -11.6073
  60   2.0000      -0.419811       -11.4236
  61   2.0000      -0.415810       -11.3148
  62   2.0000      -0.410858       -11.1800
  63   2.0000      -0.347107        -9.4453
  64   2.0000      -0.334594        -9.1048
  65   2.0000      -0.323997        -8.8164
  66   2.0000      -0.286400        -7.7934
  67   0.0000       0.022675         0.6170
  68   0.0000       0.061306         1.6682
  69   0.0000       0.095045         2.5863
  70   0.0000       0.117849         3.2068
  71   0.0000       0.131723         3.5844

MULLIKEN ATOMIC CHARGES
-----------------------
   0 S :    0.083756
   1 C :   -0.100693
   2 C :   -0.073571
   3 C :    0.007608
   4 C :   -0.142135
   5 H :    0.017227
   6 C :    0.030211
   7 H :    0.017249
   8 H :    0.036323
   9 C :   -0.017686
  10 H :    0.028581
  11 H :    0.022866
  12 C :   -0.038583
  13 H :    0.017622
  14 H :    0.034335
  15 H :    0.015233
  16 S :    0.103311
  17 C :   -0.084295
  18 C :   -0.077096
  19 C :   -0.016366
  20 C :   -0.162550
  21 H :    0.025617
  22 C :    0.073205
  23 H :    0.043188
  24 H :    0.046004
  25 C :   -0.121394
  26 H :    0.032490
  27 H :    0.039864
  28 C :   -0.040150
  29 H :    0.033778
  30 H :    0.044053
  31 H :    0.040191
  32 H :    0.029367
  33 H :    0.052440
Sum of atomic charges:    0.0000000

LOEWDIN ATOMIC CHARGES
----------------------
   0 S :    0.375471
   1 C :   -0.170421
   2 C :   -0.057259
   3 C :   -0.068699
   4 C :   -0.180691
   5 H :    0.028271
   6 C :   -0.035682
   7 H :    0.030183
   8 H :    0.035642
   9 C :   -0.034255
  10 H :    0.027530
  11 H :    0.022290
  12 C :   -0.068688
  13 H :    0.025481
  14 H :    0.027153
  15 H :    0.019043
  16 S :    0.372174
  17 C :   -0.179794
  18 C :   -0.072997
  19 C :   -0.065558
  20 C :   -0.166866
  21 H :    0.031796
  22 C :   -0.032967
  23 H :    0.030067
  24 H :    0.042742
  25 C :   -0.042206
  26 H :    0.022238
  27 H :    0.022171
  28 C :   -0.063097
  29 H :    0.022630
  30 H :    0.031039
  31 H :    0.031618
  32 H :    0.013017
  33 H :    0.028625

  Mayer bond orders larger than 0.100000
B(  0-S ,  1-C ) :   1.1425 B(  0-S ,  4-C ) :   1.1189 B(  1-C ,  2-C ) :   1.5976
B(  1-C , 32-H ) :   0.9859 B(  2-C ,  3-C ) :   1.2179 B(  2-C ,  6-C ) :   1.0326
B(  3-C ,  4-C ) :   1.5972 B(  3-C ,  5-H ) :   0.9880 B(  4-C , 20-C ) :   1.0435
B(  6-C ,  7-H ) :   0.9445 B(  6-C ,  8-H ) :   0.9401 B(  6-C ,  9-C ) :   1.0554
B(  9-C , 10-H ) :   0.9542 B(  9-C , 11-H ) :   0.9542 B(  9-C , 12-C ) :   1.0927
B( 12-C , 13-H ) :   0.9696 B( 12-C , 14-H ) :   0.9723 B( 12-C , 15-H ) :   0.9722
B( 16-S , 17-C ) :   1.1366 B( 16-S , 20-C ) :   1.1332 B( 17-C , 18-C ) :   1.6106
B( 17-C , 20-C ) :   0.1120 B( 17-C , 33-H ) :   0.9640 B( 18-C , 19-C ) :   1.2624
B( 18-C , 21-H ) :   0.9722 B( 19-C , 20-C ) :   1.5935 B( 19-C , 22-C ) :   1.0195
B( 22-C , 23-H ) :   0.9350 B( 22-C , 24-H ) :   0.9215 B( 22-C , 25-C ) :   1.0905
B( 25-C , 26-H ) :   0.9520 B( 25-C , 27-H ) :   0.9541 B( 25-C , 28-C ) :   1.0742
B( 28-C , 29-H ) :   0.9747 B( 28-C , 30-H ) :   0.9760 B( 28-C , 31-H ) :   0.9773

Dispersion correction           -0.013452110
FINAL SINGLE POINT ENERGY     -1339.861333620188

DIPOLE MOMENT
-------------
                                X             Y             Z
Electronic contribution:     -4.97557      -6.74385      -9.25427
Nuclear contribution   :      5.16872       7.04288       9.36939
                        -----------------------------------------
Total Dipole Moment    :      0.19315       0.29903       0.11512
                        -----------------------------------------
Magnitude (a.u.)       :      0.37413
Magnitude (Debye)      :      0.95097

Rotational constants in cm-1:     0.022607     0.006911     0.005658
Rotational constants in MHz :   677.755698   207.183309   169.637081

                             ****ORCA TERMINATED NORMALLY****
TOTAL RUN TIME: 0 days 0 hours 0 minutes 30 seconds 914 msec
