                         Program Version 4.2.1 -  RELEASE  -
|  1> ! wB97X-D3 SP def2-SVP
|  2> %pal
|  3> nprocs 16
|  4> end
|  5>
|  6> * xyz 0 1
|  7> S 	 54.2192 	 11.3863 	 49.392
|  8> C 	 54.9435 	 12.3227 	 48.1187
|  9> C 	 55.8359 	 13.2749 	 48.5883
| 10> C 	 55.8027 	 13.3218 	 50.0101
| 11> C 	 54.9059 	 12.5016 	 50.6045
| 12> H 	 56.4169 	 13.9158 	 50.6942
| 13> C 	 56.5925 	 14.3726 	 47.8252
| 14> H 	 57.1433 	 14.0489 	 46.9483
| 15> H 	 57.3254 	 14.6568 	 48.5048
| 16> C 	 55.6561 	 15.623 	 47.4356
| 17> H 	 54.9374 	 15.8219 	 48.2261
| 18> H 	 56.2876 	 16.4671 	 47.3428
| 19> C 	 54.9726 	 15.3379 	 46.0509
| 20> H 	 55.757 	 15.1822 	 45.3082
| 21> H 	 54.2294 	 14.511 	 46.0669
| 22> H 	 54.4256 	 16.2344 	 45.8235
| 23> S 	 55.9912 	 12.2442 	 53.1411
| 24> C 	 54.8964 	 11.7812 	 54.4359
| 25> C 	 53.57 	 11.7513 	 54.0717
| 26> C 	 53.4278 	 12.1035 	 52.6874
| 27> C 	 54.6437 	 12.3954 	 52.0511
| 28> H 	 52.8303 	 11.4543 	 54.7977
| 29> C 	 52.0857 	 12.156 	 52.0563
| 30> H 	 51.6667 	 11.1814 	 52.2118
| 31> H 	 52.1108 	 12.303 	 50.9422
| 32> C 	 51.0544 	 13.0883 	 52.7282
| 33> H 	 51.2971 	 14.161 	 52.564
| 34> H 	 50.9306 	 12.9293 	 53.7604
| 35> C 	 49.5949 	 12.9316 	 52.2464
| 36> H 	 48.8523 	 13.6102 	 52.7686
| 37> H 	 49.1638 	 11.9942 	 52.5358
| 38> H 	 49.4384 	 13.0399 	 51.12
| 39> H 	 54.9273 	 12.1303 	 47.0486
| 40> H 	 55.1633 	 11.3844 	 55.3907
| 41> *
| 42>
| 43>                          ****END OF INPUT****

CARTESIAN COORDINATES (ANGSTROEM)
---------------------------------
  S     54.219200   11.386300   49.392000
  C     54.943500   12.322700   48.118700
  C     55.835900   13.274900   48.588300
  C     55.802700   13.321800   50.010100
  C     54.905900   12.501600   50.604500
  H     56.416900   13.915800   50.694200
  C     56.592500   14.372600   47.825200
  H     57.143300   14.048900   46.948300
  H     57.325400   14.656800   48.504800
  C     55.656100   15.623000   47.435600
  H     54.937400   15.821900   48.226100
  H     56.287600   16.467100   47.342800
  C     54.972600   15.337900   46.050900
  H     55.757000   15.182200   45.308200
  H     54.229400   14.511000   46.066900
  H     54.425600   16.234400   45.823500
  S     55.991200   12.244200   53.141100
  C     54.896400   11.781200   54.435900
  C     53.570000   11.751300   54.071700
  C     53.427800   12.103500   52.687400
  C     54.643700   12.395400   52.051100
  H     52.830300   11.454300   54.797700
  C     52.085700   12.156000   52.056300
  H     51.666700   11.181400   52.211800
  H     52.110800   12.303000   50.942200
  C     51.054400   13.088300   52.728200
  H     51.297100   14.161000   52.564000
  H     50.930600   12.929300   53.760400
  C     49.594900   12.931600   52.246400
  H     48.852300   13.610200   52.768600
  H     49.163800   11.994200   52.535800
  H     49.438400   13.039900   51.120000
  H     54.927300   12.130300   47.048600
  H     55.163300   11.384400   55.390700

 Total Charge           Charge          ....    0
 Multiplicity           Mult            ....    1
 Number of Electrons    NEL             ....  134
 Basis Dimension        Dim             ....  322

ORBITAL ENERGIES
----------------

  NO   OCC          E(Eh)            E(eV)
   0   2.0000     -88.969359     -2420.9793
   1   2.0000     -88.967810     -2420.9372
   2   2.0000     -10.327302      -281.0202
   3   2.0000     -10.326648      -281.0024
   4   2.0000     -10.317143      -280.7437
   5   2.0000     -10.311740      -280.5967
   6   2.0000     -10.304746      -280.4064
   7   2.0000     -10.300251      -280.2841
   8   2.0000     -10.295311      -280.1497
   9   2.0000     -10.290183      -280.0101
  10   2.0000     -10.289575      -279.9936
  11   2.0000     -10.288823      -279.9731
  12   2.0000     -10.288300      -279.9589
  13   2.0000     -10.285470      -279.8819
  14   2.0000     -10.282984      -279.8142
  15   2.0000     -10.280778      -279.7542
  16   2.0000      -8.083961      -219.9758
  17   2.0000      -8.081634      -219.9124
  18   2.0000      -6.042529      -164.4256
  19   2.0000      -6.040303      -164.3650
  20   2.0000      -6.038541      -164.3170
  21   2.0000      -6.036354      -164.2575
  22   2.0000      -6.034620      -164.2104
  23   2.0000      -6.032195      -164.1444
  24   2.0000      -1.006028       -27.3754
  25   2.0000      -0.984265       -26.7832
  26   2.0000      -0.908059       -24.7095
  27   2.0000      -0.901022       -24.5180
  28   2.0000      -0.868857       -23.6428
  29   2.0000      -0.851662       -23.1749
  30   2.0000      -0.844839       -22.9892
  31   2.0000      -0.815440       -22.1892
  32   2.0000      -0.781023       -21.2527
  33   2.0000      -0.768792       -20.9199
  34   2.0000      -0.703520       -19.1438
  35   2.0000      -0.701813       -19.0973
  36   2.0000      -0.693724       -18.8772
  37   2.0000      -0.665375       -18.1058
  38   2.0000      -0.634323       -17.2608
  39   2.0000      -0.617899       -16.8139
  40   2.0000      -0.596504       -16.2317
  41   2.0000      -0.571806       -15.5596
  42   2.0000      -0.563265       -15.3272
  43   2.0000      -0.542165       -14.7530
  44   2.0000      -0.538687       -14.6584
  45   2.0000      -0.521640       -14.1945
  46   2.0000      -0.513302       -13.9677
  47   2.0000      -0.510720       -13.8974
  48   2.0000      -0.506221       -13.7750
  49   2.0000      -0.492796       -13.4097
  50   2.0000      -0.485397       -13.2083
  51   2.0000      -0.475189       -12.9305
  52   2.0000      -0.465160       -12.6576
  53   2.0000      -0.461054       -12.5459
  54   2.0000      -0.458364       -12.4727
  55   2.0000      -0.456295       -12.4164
  56   2.0000      -0.445706       -12.1283
  57   2.0000      -0.440064       -11.9747
  58   2.0000      -0.430037       -11.7019
  59   2.0000      -0.424672       -11.5559
  60   2.0000      -0.422314       -11.4918
  61   2.0000      -0.419291       -11.4095
  62   2.0000      -0.417816       -11.3693
  63   2.0000      -0.352621        -9.5953
  64   2.0000      -0.332397        -9.0450
  65   2.0000      -0.326192        -8.8761
  66   2.0000      -0.288415        -7.8482
  67   0.0000       0.029712         0.8085
  68   0.0000       0.070270         1.9121
  69   0.0000       0.104329         2.8389
  70   0.0000       0.113799         3.0966
  71   0.0000       0.128482         3.4962

MULLIKEN ATOMIC CHARGES
-----------------------
   0 S :    0.117020
   1 C :   -0.123417
   2 C :   -0.084014
   3 C :   -0.015259
   4 C :   -0.127548
   5 H :    0.013909
   6 C :    0.084070
   7 H :    0.021033
   8 H :    0.003958
   9 C :   -0.056063
  10 H :    0.038028
  11 H :    0.024944
  12 C :   -0.062499
  13 H :    0.033668
  14 H :    0.043005
  15 H :    0.031667
  16 S :    0.110944
  17 C :   -0.077913
  18 C :   -0.038665
  19 C :   -0.040911
  20 C :   -0.137407
  21 H :    0.024099
  22 C :    0.071618
  23 H :    0.015136
  24 H :    0.038011
  25 C :   -0.058102
  26 H :    0.040358
  27 H :    0.018366
  28 C :   -0.098665
  29 H :    0.037068
  30 H :    0.016318
  31 H :    0.044194
  32 H :    0.048599
  33 H :    0.044451
Sum of atomic charges:   -0.0000000

LOEWDIN ATOMIC CHARGES
----------------------
   0 S :    0.402583
   1 C :   -0.205774
   2 C :   -0.062082
   3 C :   -0.070589
   4 C :   -0.177821
   5 H :    0.030737
   6 C :   -0.024079
   7 H :    0.026776
   8 H :    0.019504
   9 C :   -0.023161
  10 H :    0.025696
  11 H :    0.017827
  12 C :   -0.064823
  13 H :    0.024006
  14 H :    0.027761
  15 H :    0.023812
  16 S :    0.409698
  17 C :   -0.174826
  18 C :   -0.065075
  19 C :   -0.051669
  20 C :   -0.207091
  21 H :    0.034641
  22 C :   -0.040684
  23 H :    0.030691
  24 H :    0.029070
  25 C :   -0.037325
  26 H :    0.029326
  27 H :    0.017500
  28 C :   -0.077565
  29 H :    0.033172
  30 H :    0.015086
  31 H :    0.029440
  32 H :    0.030090
  33 H :    0.025150

  Mayer bond orders larger than 0.100000
B(  0-S ,  1-C ) :   1.1355 B(  0-S ,  4-C ) :   1.1174 B(  1-C ,  2-C ) :   1.6260
B(  1-C , 32-H ) :   0.9584 B(  2-C ,  3-C ) :   1.2221 B(  2-C ,  6-C ) :   1.0324
B(  3-C ,  4-C ) :   1.6081 B(  3-C ,  5-H ) :   0.9923 B(  4-C , 20-C ) :   1.0559
B(  6-C ,  7-H ) :   0.9426 B(  6-C ,  8-H ) :   0.9381 B(  6-C ,  9-C ) :   1.0530
B(  9-C , 10-H ) :   0.9609 B(  9-C , 11-H ) :   0.9587 B(  9-C , 12-C ) :   1.0740
B( 12-C , 13-H ) :   0.9777 B( 12-C , 14-H ) :   0.9750 B( 12-C , 15-H ) :   0.9746
B( 16-S , 17-C ) :   1.1534 B( 16-S , 20-C ) :   1.1224 B( 17-C , 18-C ) :   1.6348
B( 17-C , 33-H ) :   0.9639 B( 18-C , 19-C ) :   1.2154 B( 18-C , 21-H ) :   0.9914
B( 19-C , 20-C ) :   1.5859 B( 19-C , 22-C ) :   1.0627 B( 22-C , 23-H ) :   0.9221
B( 22-C , 24-H ) :   0.9299 B( 22-C , 25-C ) :   1.0618 B( 25-C , 26-H ) :   0.9572
B( 25-C , 27-H ) :   0.9526 B( 25-C , 28-C ) :   1.0799 B( 28-C , 29-H ) :   0.9737
B( 28-C , 30-H ) :   0.9739 B( 28-C , 31-H ) :   0.9757

Dispersion correction           -0.013905041
FINAL SINGLE POINT ENERGY     -1339.875091549425

DIPOLE MOMENT
-------------
                                X             Y             Z
Electronic contribution:     14.20037     -13.79810      10.96846
Nuclear contribution   :    -14.34459      13.99501     -10.93507
                        -----------------------------------------
Total Dipole Moment    :     -0.14422       0.19691       0.03339
                        -----------------------------------------
Magnitude (a.u.)       :      0.24635
Magnitude (Debye)      :      0.62618

Rotational constants in cm-1:     0.018801     0.008040     0.006555
Rotational constants in MHz :   563.640178   241.036707   196.522673

                             ****ORCA TERMINATED NORMALLY****
TOTAL RUN TIME: 0 days 0 hours 0 minutes 29 seconds 216 msec
