                         Program Version 4.2.1 -  RELEASE  -
|  1> ! wB97X-D3 SP def2-SVP
|  2> %pal
|  3> nprocs 16
|  4> end
|  5>
|  6> * xyz 0 1
|  7> S 	 -3.68154 	 35.4988 	 50.4729
|  8> C 	 -2.07091 	 34.797 	 50.6443
|  9> C 	 -2.10171 	 33.445 	 50.2471
| 10> C 	 -3.4318 	 33.0846 	 49.8957
| 11> C 	 -4.40182 	 34.0637 	 49.6995
| 12> H 	 -3.69835 	 32.1091 	 49.5216
| 13> C 	 -1.02849 	 32.4578 	 50.4264
| 14> H 	 -0.547359 	 32.4296 	 49.5045
| 15> H 	 -1.51918 	 31.4701 	 50.5985
| 16> C 	 0.0198754 	 32.6217 	 51.5835
| 17> H 	 0.406789 	 33.6656 	 51.5887
| 18> H 	 -0.489033 	 32.6883 	 52.5033
| 19> C 	 1.21848 	 31.7255 	 51.5875
| 20> H 	 2.03279 	 32.2498 	 52.0101
| 21> H 	 1.04305 	 30.8345 	 52.1878
| 22> H 	 1.52691 	 31.4684 	 50.5639
| 23> S 	 -7.05411 	 34.1596 	 50.3621
| 24> C 	 -8.27237 	 33.8752 	 49.1008
| 25> C 	 -7.62207 	 33.5564 	 47.9078
| 26> C 	 -6.18115 	 33.5672 	 47.9766
| 27> C 	 -5.72642 	 33.9382 	 49.1973
| 28> H 	 -8.2235 	 33.3062 	 47.0691
| 29> C 	 -5.33486 	 33.2311 	 46.7471
| 30> H 	 -5.56443 	 32.2172 	 46.5097
| 31> H 	 -4.29758 	 33.3214 	 47.0094
| 32> C 	 -5.56887 	 34.22 	 45.6213
| 33> H 	 -6.61659 	 34.0019 	 45.2827
| 34> H 	 -4.99069 	 33.965 	 44.709
| 35> C 	 -5.39273 	 35.644 	 46.0698
| 36> H 	 -4.57816 	 35.7242 	 46.7912
| 37> H 	 -6.33786 	 35.9615 	 46.6253
| 38> H 	 -5.26719 	 36.2607 	 45.1722
| 39> H 	 -1.11804 	 35.3166 	 50.8571
| 40> H 	 -9.31479 	 33.7913 	 49.244
| 41> *
| 42>
| 43>                          ****END OF INPUT****

CARTESIAN COORDINATES (ANGSTROEM)
---------------------------------
  S     -3.681540   35.498800   50.472900
  C     -2.070910   34.797000   50.644300
  C     -2.101710   33.445000   50.247100
  C     -3.431800   33.084600   49.895700
  C     -4.401820   34.063700   49.699500
  H     -3.698350   32.109100   49.521600
  C     -1.028490   32.457800   50.426400
  H     -0.547359   32.429600   49.504500
  H     -1.519180   31.470100   50.598500
  C      0.019875   32.621700   51.583500
  H      0.406789   33.665600   51.588700
  H     -0.489033   32.688300   52.503300
  C      1.218480   31.725500   51.587500
  H      2.032790   32.249800   52.010100
  H      1.043050   30.834500   52.187800
  H      1.526910   31.468400   50.563900
  S     -7.054110   34.159600   50.362100
  C     -8.272370   33.875200   49.100800
  C     -7.622070   33.556400   47.907800
  C     -6.181150   33.567200   47.976600
  C     -5.726420   33.938200   49.197300
  H     -8.223500   33.306200   47.069100
  C     -5.334860   33.231100   46.747100
  H     -5.564430   32.217200   46.509700
  H     -4.297580   33.321400   47.009400
  C     -5.568870   34.220000   45.621300
  H     -6.616590   34.001900   45.282700
  H     -4.990690   33.965000   44.709000
  C     -5.392730   35.644000   46.069800
  H     -4.578160   35.724200   46.791200
  H     -6.337860   35.961500   46.625300
  H     -5.267190   36.260700   45.172200
  H     -1.118040   35.316600   50.857100
  H     -9.314790   33.791300   49.244000

 Total Charge           Charge          ....    0
 Multiplicity           Mult            ....    1
 Number of Electrons    NEL             ....  134
 Basis Dimension        Dim             ....  322

ORBITAL ENERGIES
----------------

  NO   OCC          E(Eh)            E(eV)
   0   2.0000     -88.964548     -2420.8484
   1   2.0000     -88.963916     -2420.8312
   2   2.0000     -10.330297      -281.1017
   3   2.0000     -10.326374      -280.9949
   4   2.0000     -10.321588      -280.8647
   5   2.0000     -10.320216      -280.8273
   6   2.0000     -10.304872      -280.4098
   7   2.0000     -10.301304      -280.3127
   8   2.0000     -10.296019      -280.1689
   9   2.0000     -10.292042      -280.0607
  10   2.0000     -10.290341      -280.0144
  11   2.0000     -10.286052      -279.8977
  12   2.0000     -10.285454      -279.8814
  13   2.0000     -10.284825      -279.8643
  14   2.0000     -10.276699      -279.6432
  15   2.0000     -10.275682      -279.6155
  16   2.0000      -8.078241      -219.8201
  17   2.0000      -8.078028      -219.8143
  18   2.0000      -6.036892      -164.2722
  19   2.0000      -6.036768      -164.2688
  20   2.0000      -6.032715      -164.1585
  21   2.0000      -6.032607      -164.1556
  22   2.0000      -6.029045      -164.0587
  23   2.0000      -6.028573      -164.0458
  24   2.0000      -1.004421       -27.3317
  25   2.0000      -0.980765       -26.6880
  26   2.0000      -0.914862       -24.8947
  27   2.0000      -0.913237       -24.8504
  28   2.0000      -0.874313       -23.7913
  29   2.0000      -0.852731       -23.2040
  30   2.0000      -0.842138       -22.9157
  31   2.0000      -0.813823       -22.1453
  32   2.0000      -0.784002       -21.3338
  33   2.0000      -0.774292       -21.0696
  34   2.0000      -0.714126       -19.4324
  35   2.0000      -0.704720       -19.1764
  36   2.0000      -0.692938       -18.8558
  37   2.0000      -0.662023       -18.0146
  38   2.0000      -0.638653       -17.3786
  39   2.0000      -0.613402       -16.6915
  40   2.0000      -0.595732       -16.2107
  41   2.0000      -0.573687       -15.6108
  42   2.0000      -0.565007       -15.3746
  43   2.0000      -0.563693       -15.3389
  44   2.0000      -0.542896       -14.7730
  45   2.0000      -0.522893       -14.2286
  46   2.0000      -0.520476       -14.1629
  47   2.0000      -0.516051       -14.0425
  48   2.0000      -0.510915       -13.9027
  49   2.0000      -0.507489       -13.8095
  50   2.0000      -0.494757       -13.4630
  51   2.0000      -0.475911       -12.9502
  52   2.0000      -0.470465       -12.8020
  53   2.0000      -0.461654       -12.5622
  54   2.0000      -0.459393       -12.5007
  55   2.0000      -0.446682       -12.1548
  56   2.0000      -0.443243       -12.0613
  57   2.0000      -0.438146       -11.9226
  58   2.0000      -0.433602       -11.7989
  59   2.0000      -0.422361       -11.4930
  60   2.0000      -0.417946       -11.3729
  61   2.0000      -0.405568       -11.0361
  62   2.0000      -0.403205       -10.9718
  63   2.0000      -0.341469        -9.2918
  64   2.0000      -0.331442        -9.0190
  65   2.0000      -0.325041        -8.8448
  66   2.0000      -0.297746        -8.1021
  67   0.0000       0.030260         0.8234
  68   0.0000       0.056130         1.5274
  69   0.0000       0.112982         3.0744
  70   0.0000       0.122787         3.3412
  71   0.0000       0.126317         3.4372

MULLIKEN ATOMIC CHARGES
-----------------------
   0 S :    0.104889
   1 C :   -0.132357
   2 C :   -0.105790
   3 C :    0.045693
   4 C :   -0.184300
   5 H :    0.002649
   6 C :    0.098319
   7 H :    0.020312
   8 H :    0.038423
   9 C :   -0.098928
  10 H :    0.011141
  11 H :    0.017946
  12 C :   -0.005687
  13 H :    0.022438
  14 H :    0.038505
  15 H :    0.026873
  16 S :    0.099841
  17 C :   -0.073889
  18 C :   -0.044428
  19 C :   -0.043504
  20 C :   -0.172042
  21 H :    0.012448
  22 C :    0.123357
  23 H :    0.027864
  24 H :    0.021415
  25 C :   -0.112282
  26 H :    0.020884
  27 H :    0.033033
  28 C :   -0.040187
  29 H :    0.035261
  30 H :    0.052846
  31 H :    0.041826
  32 H :    0.068571
  33 H :    0.048859
Sum of atomic charges:    0.0000000

LOEWDIN ATOMIC CHARGES
----------------------
   0 S :    0.389830
   1 C :   -0.199598
   2 C :   -0.068952
   3 C :   -0.058728
   4 C :   -0.194431
   5 H :    0.023801
   6 C :   -0.030927
   7 H :    0.026143
   8 H :    0.039548
   9 C :   -0.044802
  10 H :    0.022553
  11 H :    0.020183
  12 C :   -0.059011
  13 H :    0.025423
  14 H :    0.027870
  15 H :    0.029002
  16 S :    0.381643
  17 C :   -0.164269
  18 C :   -0.066530
  19 C :   -0.046581
  20 C :   -0.193548
  21 H :    0.025320
  22 C :   -0.023053
  23 H :    0.028797
  24 H :    0.025590
  25 C :   -0.049972
  26 H :    0.021199
  27 H :    0.024624
  28 C :   -0.067965
  29 H :    0.025929
  30 H :    0.039481
  31 H :    0.029177
  32 H :    0.037932
  33 H :    0.024321

  Mayer bond orders larger than 0.100000
B(  0-S ,  1-C ) :   1.1522 B(  0-S ,  4-C ) :   1.1279 B(  1-C ,  2-C ) :   1.5754
B(  1-C ,  4-C ) :   0.1112 B(  1-C , 32-H ) :   0.9600 B(  2-C ,  3-C ) :   1.2737
B(  2-C ,  6-C ) :   1.0211 B(  3-C ,  4-C ) :   1.5664 B(  3-C ,  5-H ) :   0.9848
B(  4-C , 20-C ) :   1.0620 B(  6-C ,  7-H ) :   0.9141 B(  6-C ,  8-H ) :   0.9495
B(  6-C ,  9-C ) :   1.0716 B(  9-C , 10-H ) :   0.9527 B(  9-C , 11-H ) :   0.9544
B(  9-C , 12-C ) :   1.0828 B( 12-C , 13-H ) :   0.9727 B( 12-C , 14-H ) :   0.9754
B( 12-C , 15-H ) :   0.9736 B( 16-S , 17-C ) :   1.1388 B( 16-S , 20-C ) :   1.1235
B( 17-C , 18-C ) :   1.6318 B( 17-C , 33-H ) :   0.9737 B( 18-C , 19-C ) :   1.1974
B( 18-C , 21-H ) :   0.9931 B( 19-C , 20-C ) :   1.6377 B( 19-C , 22-C ) :   1.0317
B( 22-C , 23-H ) :   0.9340 B( 22-C , 24-H ) :   0.9297 B( 22-C , 25-C ) :   1.0754
B( 25-C , 26-H ) :   0.9524 B( 25-C , 27-H ) :   0.9596 B( 25-C , 28-C ) :   1.0663
B( 28-C , 29-H ) :   0.9772 B( 28-C , 30-H ) :   0.9636 B( 28-C , 31-H ) :   0.9722

Dispersion correction           -0.014621225
FINAL SINGLE POINT ENERGY     -1339.867095383117

DIPOLE MOMENT
-------------
                                X             Y             Z
Electronic contribution:    -18.13746       8.20814      10.04850
Nuclear contribution   :     18.46348      -8.72660     -10.46015
                        -----------------------------------------
Total Dipole Moment    :      0.32601      -0.51846      -0.41164
                        -----------------------------------------
Magnitude (a.u.)       :      0.73793
Magnitude (Debye)      :      1.87566

Rotational constants in cm-1:     0.023702     0.007070     0.006436
Rotational constants in MHz :   710.580734   211.942452   192.951847

                             ****ORCA TERMINATED NORMALLY****
TOTAL RUN TIME: 0 days 0 hours 0 minutes 33 seconds 65 msec
