                         Program Version 4.2.1 -  RELEASE  -
|  1> ! wB97X-D3 SP def2-SVP
|  2> %pal
|  3> nprocs 16
|  4> end
|  5>
|  6> * xyz 0 1
|  7> S 	 -30.1232 	 0.203643 	 105.064
|  8> C 	 -29.3825 	 -0.555901 	 106.479
|  9> C 	 -28.3997 	 -1.48019 	 106.095
| 10> C 	 -28.1575 	 -1.43693 	 104.696
| 11> C 	 -29.0572 	 -0.695052 	 103.983
| 12> H 	 -27.3519 	 -1.98279 	 104.166
| 13> C 	 -27.5731 	 -2.35425 	 107.058
| 14> H 	 -27.4599 	 -3.3456 	 106.581
| 15> H 	 -28.1488 	 -2.53612 	 107.945
| 16> C 	 -26.1959 	 -1.76765 	 107.388
| 17> H 	 -26.3211 	 -0.661938 	 107.605
| 18> H 	 -25.8972 	 -2.29994 	 108.317
| 19> C 	 -25.1351 	 -2.08744 	 106.325
| 20> H 	 -25.0876 	 -3.13372 	 106.112
| 21> H 	 -25.3397 	 -1.67371 	 105.365
| 22> H 	 -24.2507 	 -1.63001 	 106.703
| 23> S 	 -27.599 	 -0.384104 	 101.748
| 24> C 	 -28.3839 	 -0.119564 	 100.238
| 25> C 	 -29.75 	 -0.170628 	 100.34
| 26> C 	 -30.1685 	 -0.584285 	 101.649
| 27> C 	 -29.0819 	 -0.592594 	 102.568
| 28> H 	 -30.353 	 0.12473 	 99.5238
| 29> C 	 -31.6299 	 -0.668157 	 102.062
| 30> H 	 -31.7956 	 0.217265 	 102.686
| 31> H 	 -31.654 	 -1.54386 	 102.711
| 32> C 	 -32.6655 	 -0.810017 	 100.983
| 33> H 	 -32.4923 	 -1.49049 	 100.229
| 34> H 	 -32.728 	 0.128457 	 100.444
| 35> C 	 -33.9955 	 -1.19076 	 101.613
| 36> H 	 -34.1938 	 -0.406521 	 102.322
| 37> H 	 -34.0297 	 -2.21873 	 102.104
| 38> H 	 -34.6544 	 -1.19033 	 100.806
| 39> H 	 -29.6301 	 -0.373819 	 107.501
| 40> H 	 -27.9503 	 0.314653 	 99.2661
| 41> *
| 42>
| 43>                          ****END OF INPUT****

CARTESIAN COORDINATES (ANGSTROEM)
---------------------------------
  S    -30.123200    0.203643  105.064000
  C    -29.382500   -0.555901  106.479000
  C    -28.399700   -1.480190  106.095000
  C    -28.157500   -1.436930  104.696000
  C    -29.057200   -0.695052  103.983000
  H    -27.351900   -1.982790  104.166000
  C    -27.573100   -2.354250  107.058000
  H    -27.459900   -3.345600  106.581000
  H    -28.148800   -2.536120  107.945000
  C    -26.195900   -1.767650  107.388000
  H    -26.321100   -0.661938  107.605000
  H    -25.897200   -2.299940  108.317000
  C    -25.135100   -2.087440  106.325000
  H    -25.087600   -3.133720  106.112000
  H    -25.339700   -1.673710  105.365000
  H    -24.250700   -1.630010  106.703000
  S    -27.599000   -0.384104  101.748000
  C    -28.383900   -0.119564  100.238000
  C    -29.750000   -0.170628  100.340000
  C    -30.168500   -0.584285  101.649000
  C    -29.081900   -0.592594  102.568000
  H    -30.353000    0.124730   99.523800
  C    -31.629900   -0.668157  102.062000
  H    -31.795600    0.217265  102.686000
  H    -31.654000   -1.543860  102.711000
  C    -32.665500   -0.810017  100.983000
  H    -32.492300   -1.490490  100.229000
  H    -32.728000    0.128457  100.444000
  C    -33.995500   -1.190760  101.613000
  H    -34.193800   -0.406521  102.322000
  H    -34.029700   -2.218730  102.104000
  H    -34.654400   -1.190330  100.806000
  H    -29.630100   -0.373819  107.501000
  H    -27.950300    0.314653   99.266100

 Total Charge           Charge          ....    0
 Multiplicity           Mult            ....    1
 Number of Electrons    NEL             ....  134
 Basis Dimension        Dim             ....  322

ORBITAL ENERGIES
----------------

  NO   OCC          E(Eh)            E(eV)
   0   2.0000     -88.968549     -2420.9573
   1   2.0000     -88.966996     -2420.9150
   2   2.0000     -10.325772      -280.9785
   3   2.0000     -10.319210      -280.8000
   4   2.0000     -10.315008      -280.6856
   5   2.0000     -10.314563      -280.6735
   6   2.0000     -10.302106      -280.3345
   7   2.0000     -10.301936      -280.3299
   8   2.0000     -10.291956      -280.0583
   9   2.0000     -10.291594      -280.0485
  10   2.0000     -10.291091      -280.0348
  11   2.0000     -10.287893      -279.9478
  12   2.0000     -10.285542      -279.8838
  13   2.0000     -10.274837      -279.5925
  14   2.0000     -10.273160      -279.5469
  15   2.0000     -10.270933      -279.4863
  16   2.0000      -8.082460      -219.9349
  17   2.0000      -8.082188      -219.9275
  18   2.0000      -6.040936      -164.3822
  19   2.0000      -6.040854      -164.3800
  20   2.0000      -6.036848      -164.2710
  21   2.0000      -6.036798      -164.2696
  22   2.0000      -6.033296      -164.1743
  23   2.0000      -6.032869      -164.1627
  24   2.0000      -1.010151       -27.4876
  25   2.0000      -0.983000       -26.7488
  26   2.0000      -0.916627       -24.9427
  27   2.0000      -0.910265       -24.7696
  28   2.0000      -0.873520       -23.7697
  29   2.0000      -0.854692       -23.2574
  30   2.0000      -0.843077       -22.9413
  31   2.0000      -0.815239       -22.1838
  32   2.0000      -0.785100       -21.3637
  33   2.0000      -0.766866       -20.8675
  34   2.0000      -0.709815       -19.3151
  35   2.0000      -0.697852       -18.9895
  36   2.0000      -0.696350       -18.9486
  37   2.0000      -0.656366       -17.8606
  38   2.0000      -0.631277       -17.1779
  39   2.0000      -0.617637       -16.8067
  40   2.0000      -0.596489       -16.2313
  41   2.0000      -0.575756       -15.6671
  42   2.0000      -0.569957       -15.5093
  43   2.0000      -0.548894       -14.9362
  44   2.0000      -0.538654       -14.6575
  45   2.0000      -0.531193       -14.4545
  46   2.0000      -0.519258       -14.1297
  47   2.0000      -0.516292       -14.0490
  48   2.0000      -0.509132       -13.8542
  49   2.0000      -0.492463       -13.4006
  50   2.0000      -0.484969       -13.1967
  51   2.0000      -0.479994       -13.0613
  52   2.0000      -0.472408       -12.8549
  53   2.0000      -0.467785       -12.7291
  54   2.0000      -0.461226       -12.5506
  55   2.0000      -0.451903       -12.2969
  56   2.0000      -0.444241       -12.0884
  57   2.0000      -0.438348       -11.9281
  58   2.0000      -0.431571       -11.7436
  59   2.0000      -0.425245       -11.5715
  60   2.0000      -0.423511       -11.5243
  61   2.0000      -0.414322       -11.2743
  62   2.0000      -0.407744       -11.0953
  63   2.0000      -0.351318        -9.5598
  64   2.0000      -0.331482        -9.0201
  65   2.0000      -0.327302        -8.9063
  66   2.0000      -0.281375        -7.6566
  67   0.0000       0.026886         0.7316
  68   0.0000       0.074136         2.0173
  69   0.0000       0.113407         3.0860
  70   0.0000       0.115676         3.1477
  71   0.0000       0.131536         3.5793

MULLIKEN ATOMIC CHARGES
-----------------------
   0 S :    0.106114
   1 C :   -0.112560
   2 C :   -0.093336
   3 C :   -0.015150
   4 C :   -0.132097
   5 H :    0.026139
   6 C :    0.066884
   7 H :    0.026937
   8 H :    0.015186
   9 C :   -0.090772
  10 H :    0.045839
  11 H :    0.033957
  12 C :   -0.008889
  13 H :    0.022440
  14 H :    0.020350
  15 H :    0.033905
  16 S :    0.123199
  17 C :   -0.104626
  18 C :   -0.048017
  19 C :   -0.053119
  20 C :   -0.150241
  21 H :    0.008680
  22 C :    0.047930
  23 H :    0.044350
  24 H :    0.032004
  25 C :   -0.065673
  26 H :    0.008874
  27 H :    0.021883
  28 C :   -0.016206
  29 H :    0.028250
  30 H :    0.048513
  31 H :    0.015072
  32 H :    0.036833
  33 H :    0.077346
Sum of atomic charges:   -0.0000000

LOEWDIN ATOMIC CHARGES
----------------------
   0 S :    0.398772
   1 C :   -0.193162
   2 C :   -0.056945
   3 C :   -0.074097
   4 C :   -0.189471
   5 H :    0.031827
   6 C :   -0.033361
   7 H :    0.032116
   8 H :    0.025070
   9 C :   -0.040385
  10 H :    0.032777
  11 H :    0.027434
  12 C :   -0.058690
  13 H :    0.023376
  14 H :    0.019403
  15 H :    0.027094
  16 S :    0.444635
  17 C :   -0.216404
  18 C :   -0.072810
  19 C :   -0.052597
  20 C :   -0.219190
  21 H :    0.025779
  22 C :   -0.039766
  23 H :    0.031612
  24 H :    0.033498
  25 C :   -0.039305
  26 H :    0.013297
  27 H :    0.024053
  28 C :   -0.051930
  29 H :    0.023537
  30 H :    0.035350
  31 H :    0.016339
  32 H :    0.023180
  33 H :    0.048964

  Mayer bond orders larger than 0.100000
B(  0-S ,  1-C ) :   1.1282 B(  0-S ,  4-C ) :   1.1330 B(  1-C ,  2-C ) :   1.6098
B(  1-C , 32-H ) :   0.9712 B(  2-C ,  3-C ) :   1.2461 B(  2-C ,  6-C ) :   1.0295
B(  3-C ,  4-C ) :   1.5689 B(  3-C ,  5-H ) :   0.9830 B(  4-C , 20-C ) :   1.0804
B(  6-C ,  7-H ) :   0.9405 B(  6-C ,  8-H ) :   0.9396 B(  6-C ,  9-C ) :   1.0616
B(  9-C , 10-H ) :   0.9545 B(  9-C , 11-H ) :   0.9552 B(  9-C , 12-C ) :   1.0796
B( 12-C , 13-H ) :   0.9732 B( 12-C , 14-H ) :   0.9714 B( 12-C , 15-H ) :   0.9713
B( 16-S , 17-C ) :   1.1625 B( 16-S , 20-C ) :   1.1577 B( 17-C , 18-C ) :   1.6049
B( 17-C , 33-H ) :   0.9512 B( 18-C , 19-C ) :   1.2572 B( 18-C , 21-H ) :   0.9923
B( 19-C , 20-C ) :   1.5322 B( 19-C , 22-C ) :   1.0335 B( 22-C , 23-H ) :   0.9274
B( 22-C , 24-H ) :   0.9312 B( 22-C , 25-C ) :   1.0892 B( 25-C , 26-H ) :   0.9565
B( 25-C , 27-H ) :   0.9386 B( 25-C , 28-C ) :   1.0899 B( 28-C , 29-H ) :   0.9738
B( 28-C , 30-H ) :   0.9746 B( 28-C , 31-H ) :   0.9709

Dispersion correction           -0.014047354
FINAL SINGLE POINT ENERGY     -1339.872266644655

DIPOLE MOMENT
-------------
                                X             Y             Z
Electronic contribution:      4.02743       8.40988      -4.80198
Nuclear contribution   :     -4.10722      -8.52222       4.84089
                        -----------------------------------------
Total Dipole Moment    :     -0.07979      -0.11234       0.03890
                        -----------------------------------------
Magnitude (a.u.)       :      0.14318
Magnitude (Debye)      :      0.36395

Rotational constants in cm-1:     0.021952     0.008030     0.006345
Rotational constants in MHz :   658.115942   240.719371   190.203423

                             ****ORCA TERMINATED NORMALLY****
TOTAL RUN TIME: 0 days 0 hours 0 minutes 27 seconds 945 msec
