                         Program Version 4.2.1 -  RELEASE  -
|  1> ! wB97X-D3 SP def2-SVP
|  2> %pal
|  3> nprocs 16
|  4> end
|  5>
|  6> * xyz 0 1
|  7> S 	 -73.5047 	 52.6917 	 138.347
|  8> C 	 -72.601 	 54.1174 	 138.191
|  9> C 	 -73.2469 	 55.2306 	 138.664
| 10> C 	 -74.6382 	 54.9779 	 138.881
| 11> C 	 -74.9732 	 53.6266 	 138.724
| 12> H 	 -75.4337 	 55.692 	 139.182
| 13> C 	 -72.4535 	 56.5715 	 138.875
| 14> H 	 -71.6412 	 56.4767 	 138.186
| 15> H 	 -72.3309 	 56.5226 	 139.956
| 16> C 	 -73.2189 	 57.8215 	 138.445
| 17> H 	 -73.7577 	 57.5922 	 137.503
| 18> H 	 -73.9017 	 58.0762 	 139.204
| 19> C 	 -72.3397 	 58.9806 	 138.353
| 20> H 	 -71.8543 	 59.0629 	 139.338
| 21> H 	 -71.6669 	 58.8402 	 137.456
| 22> H 	 -72.9182 	 59.9789 	 138.193
| 23> S 	 -76.4922 	 51.9001 	 137.212
| 24> C 	 -78.1902 	 51.8707 	 137.427
| 25> C 	 -78.5632 	 52.6122 	 138.577
| 26> C 	 -77.4794 	 53.3553 	 139.11
| 27> C 	 -76.2588 	 53.0269 	 138.6
| 28> H 	 -79.613 	 52.465 	 138.895
| 29> C 	 -77.7107 	 54.1924 	 140.33
| 30> H 	 -78.7113 	 54.6266 	 140.254
| 31> H 	 -77.0593 	 55.0503 	 140.189
| 32> C 	 -77.5032 	 53.5033 	 141.777
| 33> H 	 -77.5901 	 54.2694 	 142.53
| 34> H 	 -76.4905 	 53.1652 	 141.832
| 35> C 	 -78.3688 	 52.3275 	 142.043
| 36> H 	 -78.2057 	 51.9891 	 143.036
| 37> H 	 -78.2232 	 51.5765 	 141.319
| 38> H 	 -79.3487 	 52.6237 	 141.786
| 39> H 	 -71.5817 	 54.1609 	 138.014
| 40> H 	 -78.8485 	 51.23 	 136.884
| 41> *
| 42>
| 43>                          ****END OF INPUT****

CARTESIAN COORDINATES (ANGSTROEM)
---------------------------------
  S    -73.504700   52.691700  138.347000
  C    -72.601000   54.117400  138.191000
  C    -73.246900   55.230600  138.664000
  C    -74.638200   54.977900  138.881000
  C    -74.973200   53.626600  138.724000
  H    -75.433700   55.692000  139.182000
  C    -72.453500   56.571500  138.875000
  H    -71.641200   56.476700  138.186000
  H    -72.330900   56.522600  139.956000
  C    -73.218900   57.821500  138.445000
  H    -73.757700   57.592200  137.503000
  H    -73.901700   58.076200  139.204000
  C    -72.339700   58.980600  138.353000
  H    -71.854300   59.062900  139.338000
  H    -71.666900   58.840200  137.456000
  H    -72.918200   59.978900  138.193000
  S    -76.492200   51.900100  137.212000
  C    -78.190200   51.870700  137.427000
  C    -78.563200   52.612200  138.577000
  C    -77.479400   53.355300  139.110000
  C    -76.258800   53.026900  138.600000
  H    -79.613000   52.465000  138.895000
  C    -77.710700   54.192400  140.330000
  H    -78.711300   54.626600  140.254000
  H    -77.059300   55.050300  140.189000
  C    -77.503200   53.503300  141.777000
  H    -77.590100   54.269400  142.530000
  H    -76.490500   53.165200  141.832000
  C    -78.368800   52.327500  142.043000
  H    -78.205700   51.989100  143.036000
  H    -78.223200   51.576500  141.319000
  H    -79.348700   52.623700  141.786000
  H    -71.581700   54.160900  138.014000
  H    -78.848500   51.230000  136.884000

 Total Charge           Charge          ....    0
 Multiplicity           Mult            ....    1
 Number of Electrons    NEL             ....  134
 Basis Dimension        Dim             ....  322

ORBITAL ENERGIES
----------------

  NO   OCC          E(Eh)            E(eV)
   0   2.0000     -88.965171     -2420.8654
   1   2.0000     -88.964173     -2420.8382
   2   2.0000     -10.330522      -281.1078
   3   2.0000     -10.325327      -280.9664
   4   2.0000     -10.316453      -280.7250
   5   2.0000     -10.300851      -280.3004
   6   2.0000     -10.300444      -280.2893
   7   2.0000     -10.299881      -280.2740
   8   2.0000     -10.299598      -280.2663
   9   2.0000     -10.297305      -280.2039
  10   2.0000     -10.294556      -280.1291
  11   2.0000     -10.291926      -280.0575
  12   2.0000     -10.286273      -279.9037
  13   2.0000     -10.282366      -279.7974
  14   2.0000     -10.277109      -279.6544
  15   2.0000     -10.261868      -279.2396
  16   2.0000      -8.080410      -219.8791
  17   2.0000      -8.078830      -219.8361
  18   2.0000      -6.038847      -164.3254
  19   2.0000      -6.037269      -164.2825
  20   2.0000      -6.034964      -164.2197
  21   2.0000      -6.033256      -164.1732
  22   2.0000      -6.031115      -164.1150
  23   2.0000      -6.029726      -164.0772
  24   2.0000      -1.008673       -27.4474
  25   2.0000      -0.985458       -26.8157
  26   2.0000      -0.920771       -25.0554
  27   2.0000      -0.907867       -24.7043
  28   2.0000      -0.876481       -23.8502
  29   2.0000      -0.859448       -23.3868
  30   2.0000      -0.847508       -23.0619
  31   2.0000      -0.813410       -22.1340
  32   2.0000      -0.784662       -21.3517
  33   2.0000      -0.768887       -20.9225
  34   2.0000      -0.713465       -19.4144
  35   2.0000      -0.698184       -18.9986
  36   2.0000      -0.685193       -18.6450
  37   2.0000      -0.664054       -18.0698
  38   2.0000      -0.640562       -17.4306
  39   2.0000      -0.615812       -16.7571
  40   2.0000      -0.592841       -16.1320
  41   2.0000      -0.586886       -15.9700
  42   2.0000      -0.564527       -15.3616
  43   2.0000      -0.556837       -15.1523
  44   2.0000      -0.550540       -14.9810
  45   2.0000      -0.531177       -14.4541
  46   2.0000      -0.522031       -14.2052
  47   2.0000      -0.511222       -13.9111
  48   2.0000      -0.507153       -13.8003
  49   2.0000      -0.497825       -13.5465
  50   2.0000      -0.488302       -13.2874
  51   2.0000      -0.481232       -13.0950
  52   2.0000      -0.475817       -12.9476
  53   2.0000      -0.471358       -12.8263
  54   2.0000      -0.458596       -12.4790
  55   2.0000      -0.448847       -12.2137
  56   2.0000      -0.436469       -11.8769
  57   2.0000      -0.433102       -11.7853
  58   2.0000      -0.427004       -11.6194
  59   2.0000      -0.425639       -11.5822
  60   2.0000      -0.416291       -11.3278
  61   2.0000      -0.415538       -11.3074
  62   2.0000      -0.412143       -11.2150
  63   2.0000      -0.357448        -9.7267
  64   2.0000      -0.330469        -8.9925
  65   2.0000      -0.329098        -8.9552
  66   2.0000      -0.280841        -7.6421
  67   0.0000       0.020762         0.5650
  68   0.0000       0.072154         1.9634
  69   0.0000       0.108667         2.9570
  70   0.0000       0.117389         3.1943
  71   0.0000       0.139911         3.8072

MULLIKEN ATOMIC CHARGES
-----------------------
   0 S :    0.109661
   1 C :   -0.087829
   2 C :   -0.135960
   3 C :    0.001806
   4 C :   -0.156438
   5 H :    0.033693
   6 C :    0.099189
   7 H :    0.016020
   8 H :    0.051625
   9 C :   -0.075948
  10 H :    0.040063
  11 H :    0.014290
  12 C :   -0.074590
  13 H :    0.034636
  14 H :    0.042476
  15 H :    0.045238
  16 S :    0.102145
  17 C :   -0.094813
  18 C :   -0.061587
  19 C :   -0.071979
  20 C :   -0.095363
  21 H :    0.034823
  22 C :    0.057101
  23 H :    0.020378
  24 H :    0.001088
  25 C :   -0.042172
  26 H :    0.024648
  27 H :    0.021148
  28 C :    0.016008
  29 H :    0.037500
  30 H :    0.022202
  31 H :   -0.000240
  32 H :    0.019068
  33 H :    0.052113
Sum of atomic charges:   -0.0000000

LOEWDIN ATOMIC CHARGES
----------------------
   0 S :    0.410702
   1 C :   -0.208200
   2 C :   -0.062525
   3 C :   -0.068078
   4 C :   -0.182275
   5 H :    0.035522
   6 C :   -0.017772
   7 H :    0.027530
   8 H :    0.039427
   9 C :   -0.054649
  10 H :    0.028588
  11 H :    0.017114
  12 C :   -0.071322
  13 H :    0.028341
  14 H :    0.028700
  15 H :    0.035006
  16 S :    0.405955
  17 C :   -0.190953
  18 C :   -0.079133
  19 C :   -0.063699
  20 C :   -0.186304
  21 H :    0.037908
  22 C :   -0.031331
  23 H :    0.028538
  24 H :    0.025101
  25 C :   -0.024168
  26 H :    0.020917
  27 H :    0.021197
  28 C :   -0.055324
  29 H :    0.027619
  30 H :    0.023339
  31 H :    0.017519
  32 H :    0.013007
  33 H :    0.023704

  Mayer bond orders larger than 0.100000
B(  0-S ,  1-C ) :   1.1440 B(  0-S ,  4-C ) :   1.1429 B(  1-C ,  2-C ) :   1.6262
B(  1-C , 32-H ) :   0.9675 B(  2-C ,  3-C ) :   1.2482 B(  2-C ,  6-C ) :   0.9974
B(  3-C ,  4-C ) :   1.5613 B(  3-C ,  5-H ) :   0.9766 B(  4-C , 20-C ) :   1.0782
B(  6-C ,  7-H ) :   0.9458 B(  6-C ,  8-H ) :   0.9274 B(  6-C ,  9-C ) :   1.0836
B(  9-C , 10-H ) :   0.9600 B(  9-C , 11-H ) :   0.9385 B(  9-C , 12-C ) :   1.1000
B( 12-C , 13-H ) :   0.9660 B( 12-C , 14-H ) :   0.9741 B( 12-C , 15-H ) :   0.9712
B( 16-S , 17-C ) :   1.1863 B( 16-S , 20-C ) :   1.1147 B( 17-C , 18-C ) :   1.5784
B( 17-C , 20-C ) :   0.1031 B( 17-C , 33-H ) :   0.9682 B( 18-C , 19-C ) :   1.2359
B( 18-C , 21-H ) :   0.9905 B( 19-C , 20-C ) :   1.5895 B( 19-C , 22-C ) :   1.0544
B( 22-C , 23-H ) :   0.9317 B( 22-C , 24-H ) :   0.9281 B( 22-C , 25-C ) :   1.0599
B( 25-C , 26-H ) :   0.9569 B( 25-C , 27-H ) :   0.9554 B( 25-C , 28-C ) :   1.0865
B( 28-C , 29-H ) :   0.9696 B( 28-C , 30-H ) :   0.9673 B( 28-C , 31-H ) :   0.9702

Dispersion correction           -0.014089988
FINAL SINGLE POINT ENERGY     -1339.853391831142

DIPOLE MOMENT
-------------
                                X             Y             Z
Electronic contribution:      1.72204     -20.58925     -13.60075
Nuclear contribution   :     -1.90353      21.05157      13.95173
                        -----------------------------------------
Total Dipole Moment    :     -0.18150       0.46233       0.35098
                        -----------------------------------------
Magnitude (a.u.)       :      0.60817
Magnitude (Debye)      :      1.54585

Rotational constants in cm-1:     0.020060     0.007820     0.006676
Rotational constants in MHz :   601.371146   234.422961   200.145265

                             ****ORCA TERMINATED NORMALLY****
TOTAL RUN TIME: 0 days 0 hours 0 minutes 33 seconds 189 msec
