                         Program Version 4.2.1 -  RELEASE  -
|  1> ! wB97X-D3 SP def2-SVP
|  2> %pal
|  3> nprocs 16
|  4> end
|  5>
|  6> * xyz 0 1
|  7> S 	 0.142199 	 77.4528 	 47.4273
|  8> C 	 0.123016 	 78.6449 	 48.7355
|  9> C 	 1.09616 	 78.3537 	 49.7247
| 10> C 	 1.75985 	 77.1294 	 49.4821
| 11> C 	 1.27608 	 76.4583 	 48.3646
| 12> H 	 2.62158 	 76.797 	 49.9226
| 13> C 	 1.4792 	 79.3861 	 50.8046
| 14> H 	 1.19104 	 80.2747 	 50.2134
| 15> H 	 2.57328 	 79.3527 	 50.997
| 16> C 	 0.650954 	 79.3361 	 52.1748
| 17> H 	 1.03413 	 80.1316 	 52.8429
| 18> H 	 -0.396267 	 79.5259 	 52.0413
| 19> C 	 0.751045 	 78.0048 	 52.8309
| 20> H 	 0.32015 	 77.9974 	 53.8279
| 21> H 	 0.275009 	 77.2049 	 52.3341
| 22> H 	 1.73236 	 77.5985 	 52.961
| 23> S 	 2.52333 	 75.0735 	 46.3529
| 24> C 	 2.61489 	 73.2907 	 46.4258
| 25> C 	 2.22277 	 72.8345 	 47.6121
| 26> C 	 1.65344 	 73.8267 	 48.4826
| 27> C 	 1.78492 	 75.1749 	 47.9599
| 28> H 	 2.22446 	 71.757 	 47.8764
| 29> C 	 0.906907 	 73.3349 	 49.7239
| 30> H 	 0.279693 	 72.4832 	 49.4362
| 31> H 	 0.28217 	 74.1245 	 50.1166
| 32> C 	 1.78465 	 72.6958 	 50.8837
| 33> H 	 2.35257 	 71.7428 	 50.5889
| 34> H 	 1.06659 	 72.3004 	 51.562
| 35> C 	 2.74096 	 73.7111 	 51.5619
| 36> H 	 3.25888 	 73.2255 	 52.4372
| 37> H 	 2.14413 	 74.4838 	 52.0653
| 38> H 	 3.51734 	 74.0976 	 50.877
| 39> H 	 -0.402804 	 79.5262 	 48.683
| 40> H 	 3.00025 	 72.7107 	 45.5479
| 41> *
| 42>
| 43>                          ****END OF INPUT****

CARTESIAN COORDINATES (ANGSTROEM)
---------------------------------
  S      0.142199   77.452800   47.427300
  C      0.123016   78.644900   48.735500
  C      1.096160   78.353700   49.724700
  C      1.759850   77.129400   49.482100
  C      1.276080   76.458300   48.364600
  H      2.621580   76.797000   49.922600
  C      1.479200   79.386100   50.804600
  H      1.191040   80.274700   50.213400
  H      2.573280   79.352700   50.997000
  C      0.650954   79.336100   52.174800
  H      1.034130   80.131600   52.842900
  H     -0.396267   79.525900   52.041300
  C      0.751045   78.004800   52.830900
  H      0.320150   77.997400   53.827900
  H      0.275009   77.204900   52.334100
  H      1.732360   77.598500   52.961000
  S      2.523330   75.073500   46.352900
  C      2.614890   73.290700   46.425800
  C      2.222770   72.834500   47.612100
  C      1.653440   73.826700   48.482600
  C      1.784920   75.174900   47.959900
  H      2.224460   71.757000   47.876400
  C      0.906907   73.334900   49.723900
  H      0.279693   72.483200   49.436200
  H      0.282170   74.124500   50.116600
  C      1.784650   72.695800   50.883700
  H      2.352570   71.742800   50.588900
  H      1.066590   72.300400   51.562000
  C      2.740960   73.711100   51.561900
  H      3.258880   73.225500   52.437200
  H      2.144130   74.483800   52.065300
  H      3.517340   74.097600   50.877000
  H     -0.402804   79.526200   48.683000
  H      3.000250   72.710700   45.547900

 Total Charge           Charge          ....    0
 Multiplicity           Mult            ....    1
 Number of Electrons    NEL             ....  134
 Basis Dimension        Dim             ....  322

ORBITAL ENERGIES
----------------

  NO   OCC          E(Eh)            E(eV)
   0   2.0000     -88.970853     -2421.0200
   1   2.0000     -88.960159     -2420.7290
   2   2.0000     -10.331917      -281.1457
   3   2.0000     -10.329180      -281.0713
   4   2.0000     -10.320216      -280.8274
   5   2.0000     -10.314009      -280.6585
   6   2.0000     -10.311851      -280.5997
   7   2.0000     -10.304831      -280.4087
   8   2.0000     -10.301266      -280.3117
   9   2.0000     -10.295418      -280.1526
  10   2.0000     -10.294643      -280.1315
  11   2.0000     -10.292886      -280.0837
  12   2.0000     -10.290114      -280.0082
  13   2.0000     -10.287944      -279.9492
  14   2.0000     -10.283184      -279.8197
  15   2.0000     -10.265553      -279.3399
  16   2.0000      -8.084507      -219.9906
  17   2.0000      -8.074495      -219.7182
  18   2.0000      -6.042978      -164.4378
  19   2.0000      -6.039203      -164.3351
  20   2.0000      -6.035334      -164.2298
  21   2.0000      -6.033110      -164.1693
  22   2.0000      -6.029054      -164.0589
  23   2.0000      -6.025166      -163.9531
  24   2.0000      -0.998898       -27.1814
  25   2.0000      -0.976617       -26.5751
  26   2.0000      -0.905790       -24.6478
  27   2.0000      -0.897661       -24.4266
  28   2.0000      -0.871551       -23.7161
  29   2.0000      -0.851222       -23.1629
  30   2.0000      -0.839408       -22.8414
  31   2.0000      -0.816551       -22.2195
  32   2.0000      -0.779337       -21.2068
  33   2.0000      -0.766134       -20.8476
  34   2.0000      -0.709203       -19.2984
  35   2.0000      -0.705357       -19.1937
  36   2.0000      -0.690013       -18.7762
  37   2.0000      -0.652487       -17.7551
  38   2.0000      -0.647570       -17.6213
  39   2.0000      -0.612255       -16.6603
  40   2.0000      -0.592365       -16.1191
  41   2.0000      -0.571363       -15.5476
  42   2.0000      -0.547105       -14.8875
  43   2.0000      -0.544492       -14.8164
  44   2.0000      -0.540951       -14.7200
  45   2.0000      -0.533625       -14.5207
  46   2.0000      -0.514938       -14.0122
  47   2.0000      -0.512068       -13.9341
  48   2.0000      -0.502278       -13.6677
  49   2.0000      -0.493972       -13.4417
  50   2.0000      -0.492117       -13.3912
  51   2.0000      -0.479535       -13.0488
  52   2.0000      -0.467292       -12.7157
  53   2.0000      -0.464234       -12.6324
  54   2.0000      -0.458114       -12.4659
  55   2.0000      -0.445961       -12.1352
  56   2.0000      -0.442573       -12.0430
  57   2.0000      -0.432985       -11.7821
  58   2.0000      -0.428404       -11.6575
  59   2.0000      -0.425085       -11.5672
  60   2.0000      -0.423551       -11.5254
  61   2.0000      -0.418531       -11.3888
  62   2.0000      -0.413224       -11.2444
  63   2.0000      -0.342246        -9.3130
  64   2.0000      -0.331320        -9.0157
  65   2.0000      -0.323198        -8.7947
  66   2.0000      -0.290838        -7.9141
  67   0.0000       0.024914         0.6779
  68   0.0000       0.060700         1.6517
  69   0.0000       0.105726         2.8770
  70   0.0000       0.121200         3.2980
  71   0.0000       0.124215         3.3800

MULLIKEN ATOMIC CHARGES
-----------------------
   0 S :    0.126429
   1 C :   -0.099951
   2 C :   -0.080512
   3 C :    0.061992
   4 C :   -0.150473
   5 H :   -0.016439
   6 C :    0.028211
   7 H :    0.030746
   8 H :    0.045059
   9 C :   -0.031090
  10 H :    0.037290
  11 H :    0.024640
  12 C :   -0.040029
  13 H :    0.025260
  14 H :    0.023910
  15 H :    0.011032
  16 S :    0.075210
  17 C :   -0.111833
  18 C :   -0.018876
  19 C :   -0.029866
  20 C :   -0.181324
  21 H :    0.033526
  22 C :    0.055098
  23 H :    0.033946
  24 H :    0.031662
  25 C :   -0.096724
  26 H :    0.035628
  27 H :    0.023205
  28 C :   -0.069917
  29 H :    0.033610
  30 H :    0.033200
  31 H :    0.058273
  32 H :    0.020348
  33 H :    0.078757
Sum of atomic charges:    0.0000000

LOEWDIN ATOMIC CHARGES
----------------------
   0 S :    0.399252
   1 C :   -0.182371
   2 C :   -0.057448
   3 C :   -0.046068
   4 C :   -0.194399
   5 H :    0.019037
   6 C :   -0.031635
   7 H :    0.034869
   8 H :    0.035296
   9 C :   -0.034908
  10 H :    0.028734
  11 H :    0.023637
  12 C :   -0.070140
  13 H :    0.027929
  14 H :    0.020829
  15 H :    0.018823
  16 S :    0.371484
  17 C :   -0.172975
  18 C :   -0.079568
  19 C :   -0.049100
  20 C :   -0.198653
  21 H :    0.039529
  22 C :   -0.029392
  23 H :    0.035464
  24 H :    0.029763
  25 C :   -0.044228
  26 H :    0.027833
  27 H :    0.019102
  28 C :   -0.075557
  29 H :    0.030544
  30 H :    0.025526
  31 H :    0.029834
  32 H :    0.008247
  33 H :    0.040713

  Mayer bond orders larger than 0.100000
B(  0-S ,  1-C ) :   1.1472 B(  0-S ,  4-C ) :   1.1439 B(  1-C ,  2-C ) :   1.5837
B(  1-C ,  4-C ) :   0.1041 B(  1-C , 32-H ) :   0.9757 B(  2-C ,  3-C ) :   1.2490
B(  2-C ,  6-C ) :   0.9977 B(  3-C ,  4-C ) :   1.5481 B(  3-C ,  5-H ) :   1.0095
B(  4-C , 20-C ) :   1.0722 B(  6-C ,  7-H ) :   0.9456 B(  6-C ,  8-H ) :   0.9516
B(  6-C ,  9-C ) :   1.0637 B(  9-C , 10-H ) :   0.9575 B(  9-C , 11-H ) :   0.9546
B(  9-C , 12-C ) :   1.0854 B( 12-C , 13-H ) :   0.9679 B( 12-C , 14-H ) :   0.9693
B( 12-C , 15-H ) :   0.9737 B( 16-S , 17-C ) :   1.1350 B( 16-S , 20-C ) :   1.1321
B( 17-C , 18-C ) :   1.6312 B( 17-C , 33-H ) :   0.9612 B( 18-C , 19-C ) :   1.2306
B( 18-C , 21-H ) :   0.9818 B( 19-C , 20-C ) :   1.5660 B( 19-C , 22-C ) :   1.0511
B( 22-C , 23-H ) :   0.9374 B( 22-C , 24-H ) :   0.9403 B( 22-C , 25-C ) :   1.0621
B( 25-C , 26-H ) :   0.9566 B( 25-C , 27-H ) :   0.9554 B( 25-C , 28-C ) :   1.0709
B( 28-C , 29-H ) :   0.9721 B( 28-C , 30-H ) :   0.9743 B( 28-C , 31-H ) :   0.9744

Dispersion correction           -0.015078889
FINAL SINGLE POINT ENERGY     -1339.865406194601

DIPOLE MOMENT
-------------
                                X             Y             Z
Electronic contribution:     -0.91790       1.81534     -29.70708
Nuclear contribution   :      0.92047      -2.00186      30.27905
                        -----------------------------------------
Total Dipole Moment    :      0.00258      -0.18652       0.57196
                        -----------------------------------------
Magnitude (a.u.)       :      0.60161
Magnitude (Debye)      :      1.52918

Rotational constants in cm-1:     0.018104     0.009727     0.006941
Rotational constants in MHz :   542.756641   291.619196   208.098043

                             ****ORCA TERMINATED NORMALLY****
TOTAL RUN TIME: 0 days 0 hours 0 minutes 34 seconds 873 msec
