                         Program Version 4.2.1 -  RELEASE  -
|  1> ! wB97X-D3 SP def2-SVP
|  2> %pal
|  3> nprocs 16
|  4> end
|  5>
|  6> * xyz 0 1
|  7> S 	 5.10854 	 -10.2229 	 76.3214
|  8> C 	 3.46941 	 -10.5882 	 76.8538
|  9> C 	 2.73378 	 -11.4319 	 76.0841
| 10> C 	 3.5596 	 -11.8794 	 74.9951
| 11> C 	 4.88164 	 -11.4691 	 75.0497
| 12> H 	 3.21966 	 -12.6056 	 74.2908
| 13> C 	 1.24021 	 -11.7457 	 76.3466
| 14> H 	 0.808474 	 -10.9156 	 76.8388
| 15> H 	 1.07676 	 -12.5893 	 77.0313
| 16> C 	 0.30244 	 -11.9045 	 75.2172
| 17> H 	 0.22822 	 -10.9177 	 74.7496
| 18> H 	 0.73156 	 -12.5558 	 74.4452
| 19> C 	 -1.10412 	 -12.4173 	 75.7143
| 20> H 	 -1.76309 	 -12.6457 	 74.8261
| 21> H 	 -0.880503 	 -13.4374 	 76.1051
| 22> H 	 -1.719 	 -11.8313 	 76.4167
| 23> S 	 6.74989 	 -10.5528 	 73.4573
| 24> C 	 7.70742 	 -11.4735 	 72.3418
| 25> C 	 7.28383 	 -12.7931 	 72.4212
| 26> C 	 6.22985 	 -13.058 	 73.3325
| 27> C 	 5.93974 	 -11.9032 	 74.0806
| 28> H 	 7.7935 	 -13.5407 	 71.7323
| 29> C 	 5.50411 	 -14.3735 	 73.3664
| 30> H 	 4.84553 	 -14.3695 	 72.5709
| 31> H 	 4.71195 	 -14.3948 	 74.1671
| 32> C 	 6.38255 	 -15.6212 	 73.4435
| 33> H 	 6.94845 	 -15.6427 	 74.3904
| 34> H 	 7.18543 	 -15.6219 	 72.7565
| 35> C 	 5.48544 	 -16.9164 	 73.6302
| 36> H 	 4.94189 	 -16.7992 	 74.5261
| 37> H 	 6.0433 	 -17.8088 	 73.678
| 38> H 	 4.79136 	 -17.0842 	 72.78
| 39> H 	 2.84459 	 -10.1243 	 77.7192
| 40> H 	 8.37607 	 -11.1134 	 71.6011
| 41> *
| 42>
| 43>                          ****END OF INPUT****

CARTESIAN COORDINATES (ANGSTROEM)
---------------------------------
  S      5.108540  -10.222900   76.321400
  C      3.469410  -10.588200   76.853800
  C      2.733780  -11.431900   76.084100
  C      3.559600  -11.879400   74.995100
  C      4.881640  -11.469100   75.049700
  H      3.219660  -12.605600   74.290800
  C      1.240210  -11.745700   76.346600
  H      0.808474  -10.915600   76.838800
  H      1.076760  -12.589300   77.031300
  C      0.302440  -11.904500   75.217200
  H      0.228220  -10.917700   74.749600
  H      0.731560  -12.555800   74.445200
  C     -1.104120  -12.417300   75.714300
  H     -1.763090  -12.645700   74.826100
  H     -0.880503  -13.437400   76.105100
  H     -1.719000  -11.831300   76.416700
  S      6.749890  -10.552800   73.457300
  C      7.707420  -11.473500   72.341800
  C      7.283830  -12.793100   72.421200
  C      6.229850  -13.058000   73.332500
  C      5.939740  -11.903200   74.080600
  H      7.793500  -13.540700   71.732300
  C      5.504110  -14.373500   73.366400
  H      4.845530  -14.369500   72.570900
  H      4.711950  -14.394800   74.167100
  C      6.382550  -15.621200   73.443500
  H      6.948450  -15.642700   74.390400
  H      7.185430  -15.621900   72.756500
  C      5.485440  -16.916400   73.630200
  H      4.941890  -16.799200   74.526100
  H      6.043300  -17.808800   73.678000
  H      4.791360  -17.084200   72.780000
  H      2.844590  -10.124300   77.719200
  H      8.376070  -11.113400   71.601100

 Total Charge           Charge          ....    0
 Multiplicity           Mult            ....    1
 Number of Electrons    NEL             ....  134
 Basis Dimension        Dim             ....  322

ORBITAL ENERGIES
----------------

  NO   OCC          E(Eh)            E(eV)
   0   2.0000     -88.974127     -2421.1091
   1   2.0000     -88.962287     -2420.7869
   2   2.0000     -10.337179      -281.2890
   3   2.0000     -10.327682      -281.0305
   4   2.0000     -10.317955      -280.7658
   5   2.0000     -10.313066      -280.6328
   6   2.0000     -10.305992      -280.4403
   7   2.0000     -10.301051      -280.3058
   8   2.0000     -10.297745      -280.2159
   9   2.0000     -10.294882      -280.1380
  10   2.0000     -10.294126      -280.1174
  11   2.0000     -10.291055      -280.0339
  12   2.0000     -10.290278      -280.0127
  13   2.0000     -10.290146      -280.0091
  14   2.0000     -10.288179      -279.9556
  15   2.0000     -10.277708      -279.6707
  16   2.0000      -8.087487      -220.0717
  17   2.0000      -8.078438      -219.8255
  18   2.0000      -6.046220      -164.5260
  19   2.0000      -6.042404      -164.4222
  20   2.0000      -6.037852      -164.2983
  21   2.0000      -6.036872      -164.2716
  22   2.0000      -6.032485      -164.1523
  23   2.0000      -6.029440      -164.0694
  24   2.0000      -1.009980       -27.4829
  25   2.0000      -0.985089       -26.8056
  26   2.0000      -0.918131       -24.9836
  27   2.0000      -0.910383       -24.7728
  28   2.0000      -0.868423       -23.6310
  29   2.0000      -0.850904       -23.1543
  30   2.0000      -0.844203       -22.9719
  31   2.0000      -0.813708       -22.1421
  32   2.0000      -0.782787       -21.3007
  33   2.0000      -0.775353       -21.0984
  34   2.0000      -0.716070       -19.4852
  35   2.0000      -0.706161       -19.2156
  36   2.0000      -0.687018       -18.6947
  37   2.0000      -0.657603       -17.8943
  38   2.0000      -0.633426       -17.2364
  39   2.0000      -0.623568       -16.9681
  40   2.0000      -0.602872       -16.4050
  41   2.0000      -0.576754       -15.6943
  42   2.0000      -0.565945       -15.4001
  43   2.0000      -0.558932       -15.2093
  44   2.0000      -0.529291       -14.4027
  45   2.0000      -0.518663       -14.1135
  46   2.0000      -0.513490       -13.9728
  47   2.0000      -0.508132       -13.8270
  48   2.0000      -0.501244       -13.6395
  49   2.0000      -0.494684       -13.4610
  50   2.0000      -0.489923       -13.3315
  51   2.0000      -0.482566       -13.1313
  52   2.0000      -0.473104       -12.8738
  53   2.0000      -0.465732       -12.6732
  54   2.0000      -0.458901       -12.4873
  55   2.0000      -0.456608       -12.4249
  56   2.0000      -0.444772       -12.1029
  57   2.0000      -0.441419       -12.0116
  58   2.0000      -0.432964       -11.7815
  59   2.0000      -0.429287       -11.6815
  60   2.0000      -0.424280       -11.5453
  61   2.0000      -0.419492       -11.4149
  62   2.0000      -0.407671       -11.0933
  63   2.0000      -0.352343        -9.5877
  64   2.0000      -0.335672        -9.1341
  65   2.0000      -0.326564        -8.8863
  66   2.0000      -0.290057        -7.8928
  67   0.0000       0.029289         0.7970
  68   0.0000       0.073525         2.0007
  69   0.0000       0.104043         2.8312
  70   0.0000       0.123105         3.3499
  71   0.0000       0.135770         3.6945

MULLIKEN ATOMIC CHARGES
-----------------------
   0 S :    0.127549
   1 C :   -0.138087
   2 C :   -0.071488
   3 C :    0.021152
   4 C :   -0.132826
   5 H :    0.000372
   6 C :    0.084259
   7 H :    0.006895
   8 H :    0.033445
   9 C :   -0.097722
  10 H :    0.033174
  11 H :    0.032025
  12 C :   -0.089878
  13 H :    0.042343
  14 H :    0.035633
  15 H :    0.053309
  16 S :    0.093272
  17 C :   -0.076751
  18 C :   -0.083838
  19 C :   -0.031580
  20 C :   -0.140327
  21 H :    0.043110
  22 C :    0.085499
  23 H :    0.015422
  24 H :    0.013482
  25 C :   -0.075188
  26 H :    0.031773
  27 H :    0.020150
  28 C :   -0.030301
  29 H :    0.029499
  30 H :    0.024450
  31 H :    0.029349
  32 H :    0.064290
  33 H :    0.047534
Sum of atomic charges:    0.0000000

LOEWDIN ATOMIC CHARGES
----------------------
   0 S :    0.384257
   1 C :   -0.203166
   2 C :   -0.067620
   3 C :   -0.059098
   4 C :   -0.182039
   5 H :    0.022416
   6 C :   -0.035874
   7 H :    0.027079
   8 H :    0.031044
   9 C :   -0.042493
  10 H :    0.025080
  11 H :    0.021818
  12 C :   -0.072917
  13 H :    0.034091
  14 H :    0.029420
  15 H :    0.029184
  16 S :    0.439705
  17 C :   -0.196400
  18 C :   -0.078287
  19 C :   -0.060836
  20 C :   -0.207072
  21 H :    0.040322
  22 C :   -0.033504
  23 H :    0.023415
  24 H :    0.035142
  25 C :   -0.035546
  26 H :    0.032688
  27 H :    0.014011
  28 C :   -0.055540
  29 H :    0.021599
  30 H :    0.020021
  31 H :    0.025067
  32 H :    0.047574
  33 H :    0.026458

  Mayer bond orders larger than 0.100000
B(  0-S ,  1-C ) :   1.1195 B(  0-S ,  4-C ) :   1.1221 B(  1-C ,  2-C ) :   1.6842
B(  1-C , 32-H ) :   0.9433 B(  2-C ,  3-C ) :   1.2242 B(  2-C ,  6-C ) :   0.9988
B(  3-C ,  4-C ) :   1.5987 B(  3-C ,  5-H ) :   0.9905 B(  4-C , 20-C ) :   1.0149
B(  6-C ,  7-H ) :   0.9422 B(  6-C ,  8-H ) :   0.9390 B(  6-C ,  9-C ) :   1.0624
B(  9-C , 10-H ) :   0.9583 B(  9-C , 11-H ) :   0.9548 B(  9-C , 12-C ) :   1.0718
B( 12-C , 13-H ) :   0.9746 B( 12-C , 14-H ) :   0.9733 B( 12-C , 15-H ) :   0.9780
B( 16-S , 17-C ) :   1.1642 B( 16-S , 20-C ) :   1.1825 B( 17-C , 18-C ) :   1.5859
B( 17-C , 20-C ) :   0.1023 B( 17-C , 33-H ) :   0.9753 B( 18-C , 19-C ) :   1.2689
B( 18-C , 21-H ) :   0.9766 B( 19-C , 20-C ) :   1.5567 B( 19-C , 22-C ) :   1.0392
B( 22-C , 23-H ) :   0.9255 B( 22-C , 24-H ) :   0.9300 B( 22-C , 25-C ) :   1.0481
B( 25-C , 26-H ) :   0.9557 B( 25-C , 27-H ) :   0.9636 B( 25-C , 28-C ) :   1.0696
B( 28-C , 29-H ) :   0.9766 B( 28-C , 30-H ) :   0.9764 B( 28-C , 31-H ) :   0.9786

Dispersion correction           -0.013092189
FINAL SINGLE POINT ENERGY     -1339.851225214601

DIPOLE MOMENT
-------------
                                X             Y             Z
Electronic contribution:     21.08365      23.16648       1.67802
Nuclear contribution   :    -21.62867     -23.68179      -1.92727
                        -----------------------------------------
Total Dipole Moment    :     -0.54501      -0.51530      -0.24925
                        -----------------------------------------
Magnitude (a.u.)       :      0.79038
Magnitude (Debye)      :      2.00899

Rotational constants in cm-1:     0.015909     0.008399     0.006151
Rotational constants in MHz :   476.940357   251.802343   184.413022

                             ****ORCA TERMINATED NORMALLY****
TOTAL RUN TIME: 0 days 0 hours 0 minutes 28 seconds 639 msec
