                         Program Version 4.2.1 -  RELEASE  -
|  1> ! wB97X-D3 SP def2-SVP
|  2> %pal
|  3> nprocs 16
|  4> end
|  5>
|  6> * xyz 0 1
|  7> S 	 -86.3804 	 49.9925 	 134.464
|  8> C 	 -85.7041 	 48.4232 	 134.165
|  9> C 	 -86.2639 	 47.8498 	 133.027
| 10> C 	 -87.0705 	 48.8 	 132.289
| 11> C 	 -87.2946 	 49.9771 	 132.926
| 12> H 	 -87.6214 	 48.6102 	 131.309
| 13> C 	 -85.8964 	 46.4496 	 132.47
| 14> H 	 -86.6721 	 46.2048 	 131.771
| 15> H 	 -85.9163 	 45.8732 	 133.384
| 16> C 	 -84.6276 	 46.3298 	 131.618
| 17> H 	 -83.7749 	 46.565 	 132.251
| 18> H 	 -84.4498 	 45.2222 	 131.329
| 19> C 	 -84.6532 	 47.2147 	 130.351
| 20> H 	 -85.634 	 47.1264 	 129.817
| 21> H 	 -84.6415 	 48.2832 	 130.64
| 22> H 	 -83.8078 	 47.0571 	 129.712
| 23> S 	 -86.9281 	 52.5353 	 132.274
| 24> C 	 -88.3052 	 53.4785 	 131.682
| 25> C 	 -89.3856 	 52.6703 	 131.451
| 26> C 	 -89.1761 	 51.3479 	 131.884
| 27> C 	 -87.9343 	 51.1619 	 132.443
| 28> H 	 -90.2787 	 53.1235 	 131.08
| 29> C 	 -90.3502 	 50.479 	 131.888
| 30> H 	 -90.1323 	 49.4327 	 131.816
| 31> H 	 -90.9742 	 50.7699 	 131.018
| 32> C 	 -91.2933 	 50.6839 	 133.12
| 33> H 	 -91.4303 	 51.7777 	 133.133
| 34> H 	 -90.8574 	 50.472 	 134.101
| 35> C 	 -92.7213 	 50.0514 	 133.005
| 36> H 	 -93.3017 	 50.4344 	 133.856
| 37> H 	 -92.6556 	 49.0071 	 133.278
| 38> H 	 -93.3581 	 50.2218 	 132.107
| 39> H 	 -85.2061 	 47.809 	 134.934
| 40> H 	 -88.2674 	 54.4614 	 131.409
| 41> *
| 42>
| 43>                          ****END OF INPUT****

CARTESIAN COORDINATES (ANGSTROEM)
---------------------------------
  S    -86.380400   49.992500  134.464000
  C    -85.704100   48.423200  134.165000
  C    -86.263900   47.849800  133.027000
  C    -87.070500   48.800000  132.289000
  C    -87.294600   49.977100  132.926000
  H    -87.621400   48.610200  131.309000
  C    -85.896400   46.449600  132.470000
  H    -86.672100   46.204800  131.771000
  H    -85.916300   45.873200  133.384000
  C    -84.627600   46.329800  131.618000
  H    -83.774900   46.565000  132.251000
  H    -84.449800   45.222200  131.329000
  C    -84.653200   47.214700  130.351000
  H    -85.634000   47.126400  129.817000
  H    -84.641500   48.283200  130.640000
  H    -83.807800   47.057100  129.712000
  S    -86.928100   52.535300  132.274000
  C    -88.305200   53.478500  131.682000
  C    -89.385600   52.670300  131.451000
  C    -89.176100   51.347900  131.884000
  C    -87.934300   51.161900  132.443000
  H    -90.278700   53.123500  131.080000
  C    -90.350200   50.479000  131.888000
  H    -90.132300   49.432700  131.816000
  H    -90.974200   50.769900  131.018000
  C    -91.293300   50.683900  133.120000
  H    -91.430300   51.777700  133.133000
  H    -90.857400   50.472000  134.101000
  C    -92.721300   50.051400  133.005000
  H    -93.301700   50.434400  133.856000
  H    -92.655600   49.007100  133.278000
  H    -93.358100   50.221800  132.107000
  H    -85.206100   47.809000  134.934000
  H    -88.267400   54.461400  131.409000

 Total Charge           Charge          ....    0
 Multiplicity           Mult            ....    1
 Number of Electrons    NEL             ....  134
 Basis Dimension        Dim             ....  322

ORBITAL ENERGIES
----------------

  NO   OCC          E(Eh)            E(eV)
   0   2.0000     -88.965235     -2420.8671
   1   2.0000     -88.964098     -2420.8362
   2   2.0000     -10.327283      -281.0197
   3   2.0000     -10.320477      -280.8345
   4   2.0000     -10.316150      -280.7167
   5   2.0000     -10.309362      -280.5320
   6   2.0000     -10.304778      -280.4073
   7   2.0000     -10.299192      -280.2553
   8   2.0000     -10.296045      -280.1696
   9   2.0000     -10.293648      -280.1044
  10   2.0000     -10.291768      -280.0533
  11   2.0000     -10.289819      -280.0002
  12   2.0000     -10.288376      -279.9609
  13   2.0000     -10.287545      -279.9383
  14   2.0000     -10.281576      -279.7759
  15   2.0000     -10.279964      -279.7321
  16   2.0000      -8.080474      -219.8809
  17   2.0000      -8.078613      -219.8302
  18   2.0000      -6.038968      -164.3287
  19   2.0000      -6.037182      -164.2801
  20   2.0000      -6.034906      -164.2181
  21   2.0000      -6.033102      -164.1691
  22   2.0000      -6.031209      -164.1175
  23   2.0000      -6.029360      -164.0672
  24   2.0000      -1.013373       -27.5753
  25   2.0000      -0.985457       -26.8156
  26   2.0000      -0.910214       -24.7682
  27   2.0000      -0.906327       -24.6624
  28   2.0000      -0.875023       -23.8106
  29   2.0000      -0.850485       -23.1429
  30   2.0000      -0.839617       -22.8471
  31   2.0000      -0.818291       -22.2668
  32   2.0000      -0.781552       -21.2671
  33   2.0000      -0.771156       -20.9842
  34   2.0000      -0.707733       -19.2584
  35   2.0000      -0.698465       -19.0062
  36   2.0000      -0.695020       -18.9125
  37   2.0000      -0.671661       -18.2768
  38   2.0000      -0.638350       -17.3704
  39   2.0000      -0.612979       -16.6800
  40   2.0000      -0.599190       -16.3048
  41   2.0000      -0.572456       -15.5773
  42   2.0000      -0.561923       -15.2907
  43   2.0000      -0.550380       -14.9766
  44   2.0000      -0.540440       -14.7061
  45   2.0000      -0.523923       -14.2567
  46   2.0000      -0.512326       -13.9411
  47   2.0000      -0.508357       -13.8331
  48   2.0000      -0.503966       -13.7136
  49   2.0000      -0.499141       -13.5823
  50   2.0000      -0.488856       -13.3025
  51   2.0000      -0.474534       -12.9127
  52   2.0000      -0.470039       -12.7904
  53   2.0000      -0.468046       -12.7362
  54   2.0000      -0.456425       -12.4200
  55   2.0000      -0.451309       -12.2807
  56   2.0000      -0.442743       -12.0476
  57   2.0000      -0.435975       -11.8635
  58   2.0000      -0.432245       -11.7620
  59   2.0000      -0.429026       -11.6744
  60   2.0000      -0.425781       -11.5861
  61   2.0000      -0.411578       -11.1996
  62   2.0000      -0.404638       -11.0108
  63   2.0000      -0.352098        -9.5811
  64   2.0000      -0.330809        -9.0018
  65   2.0000      -0.327140        -8.9019
  66   2.0000      -0.294481        -8.0132
  67   0.0000       0.031233         0.8499
  68   0.0000       0.067005         1.8233
  69   0.0000       0.110986         3.0201
  70   0.0000       0.113228         3.0811
  71   0.0000       0.136197         3.7061

MULLIKEN ATOMIC CHARGES
-----------------------
   0 S :    0.100206
   1 C :   -0.119845
   2 C :   -0.143717
   3 C :    0.023471
   4 C :   -0.178981
   5 H :    0.041639
   6 C :    0.088430
   7 H :    0.013499
   8 H :    0.032183
   9 C :   -0.073844
  10 H :    0.024125
  11 H :    0.042879
  12 C :   -0.067537
  13 H :    0.029323
  14 H :    0.047195
  15 H :    0.040512
  16 S :    0.117427
  17 C :   -0.054326
  18 C :   -0.044215
  19 C :   -0.002355
  20 C :   -0.147393
  21 H :    0.014700
  22 C :    0.084600
  23 H :    0.012184
  24 H :    0.019794
  25 C :   -0.085637
  26 H :    0.016975
  27 H :    0.036090
  28 C :   -0.056833
  29 H :    0.028633
  30 H :    0.031149
  31 H :    0.046717
  32 H :    0.065599
  33 H :    0.017352
Sum of atomic charges:   -0.0000000

LOEWDIN ATOMIC CHARGES
----------------------
   0 S :    0.390639
   1 C :   -0.208841
   2 C :   -0.065317
   3 C :   -0.069933
   4 C :   -0.187394
   5 H :    0.044089
   6 C :   -0.029406
   7 H :    0.025598
   8 H :    0.031848
   9 C :   -0.043590
  10 H :    0.019932
  11 H :    0.032235
  12 C :   -0.070198
  13 H :    0.026889
  14 H :    0.032435
  15 H :    0.024946
  16 S :    0.420902
  17 C :   -0.160930
  18 C :   -0.060599
  19 C :   -0.062062
  20 C :   -0.212131
  21 H :    0.030577
  22 C :   -0.032969
  23 H :    0.021133
  24 H :    0.035949
  25 C :   -0.036091
  26 H :    0.021127
  27 H :    0.027917
  28 C :   -0.076208
  29 H :    0.030847
  30 H :    0.023814
  31 H :    0.030127
  32 H :    0.035785
  33 H :    0.008878

  Mayer bond orders larger than 0.100000
B(  0-S ,  1-C ) :   1.1406 B(  0-S ,  4-C ) :   1.1326 B(  1-C ,  2-C ) :   1.6184
B(  1-C , 32-H ) :   0.9597 B(  2-C ,  3-C ) :   1.2198 B(  2-C ,  6-C ) :   1.0151
B(  3-C ,  4-C ) :   1.6262 B(  3-C ,  5-H ) :   0.9729 B(  4-C , 20-C ) :   1.0259
B(  6-C ,  7-H ) :   0.9402 B(  6-C ,  8-H ) :   0.9399 B(  6-C ,  9-C ) :   1.0695
B(  9-C , 10-H ) :   0.9542 B(  9-C , 11-H ) :   0.9555 B(  9-C , 12-C ) :   1.0708
B( 12-C , 13-H ) :   0.9747 B( 12-C , 14-H ) :   0.9707 B( 12-C , 15-H ) :   0.9737
B( 16-S , 17-C ) :   1.1451 B( 16-S , 20-C ) :   1.1595 B( 17-C , 18-C ) :   1.6181
B( 17-C , 33-H ) :   0.9779 B( 18-C , 19-C ) :   1.2261 B( 18-C , 21-H ) :   0.9942
B( 19-C , 20-C ) :   1.5828 B( 19-C , 22-C ) :   1.0823 B( 22-C , 23-H ) :   0.9254
B( 22-C , 24-H ) :   0.9266 B( 22-C , 25-C ) :   1.0570 B( 25-C , 26-H ) :   0.9581
B( 25-C , 27-H ) :   0.9550 B( 25-C , 28-C ) :   1.0784 B( 28-C , 29-H ) :   0.9712
B( 28-C , 30-H ) :   0.9751 B( 28-C , 31-H ) :   0.9753

Dispersion correction           -0.014255400
FINAL SINGLE POINT ENERGY     -1339.875713176617

DIPOLE MOMENT
-------------
                                X             Y             Z
Electronic contribution:     10.91352      16.40751       8.37255
Nuclear contribution   :    -11.27988     -16.69136      -8.64223
                        -----------------------------------------
Total Dipole Moment    :     -0.36636      -0.28386      -0.26968
                        -----------------------------------------
Magnitude (a.u.)       :      0.53621
Magnitude (Debye)      :      1.36294

Rotational constants in cm-1:     0.018732     0.008182     0.007177
Rotational constants in MHz :   561.568914   245.304231   215.175789

                             ****ORCA TERMINATED NORMALLY****
TOTAL RUN TIME: 0 days 0 hours 0 minutes 32 seconds 904 msec
