                         Program Version 4.2.1 -  RELEASE  -
|  1> ! wB97X-D3 SP def2-SVP
|  2> %pal
|  3> nprocs 16
|  4> end
|  5>
|  6> * xyz 0 1
|  7> S 	 -95.2114 	 50.4216 	 122.036
|  8> C 	 -93.7426 	 49.7359 	 122.713
|  9> C 	 -93.975 	 48.6403 	 123.469
| 10> C 	 -95.3622 	 48.3501 	 123.542
| 11> C 	 -96.2242 	 49.2778 	 122.918
| 12> H 	 -95.7172 	 47.5319 	 124.101
| 13> C 	 -92.7797 	 47.9686 	 124.268
| 14> H 	 -93.1283 	 47.7455 	 125.284
| 15> H 	 -91.9196 	 48.6625 	 124.368
| 16> C 	 -92.2868 	 46.6475 	 123.818
| 17> H 	 -91.6919 	 46.7441 	 122.913
| 18> H 	 -91.5532 	 46.1199 	 124.479
| 19> C 	 -93.4463 	 45.6621 	 123.363
| 20> H 	 -94.1945 	 46.154 	 122.652
| 21> H 	 -93.0938 	 44.8208 	 122.742
| 22> H 	 -93.9393 	 45.1606 	 124.243
| 23> S 	 -98.3289 	 50.4679 	 124.016
| 24> C 	 -99.8441 	 50.2289 	 123.217
| 25> C 	 -99.8576 	 49.1718 	 122.313
| 26> C 	 -98.5767 	 48.6055 	 122.133
| 27> C 	 -97.6277 	 49.2966 	 122.911
| 28> H 	 -100.873 	 48.9057 	 121.817
| 29> C 	 -98.1464 	 47.5398 	 121.094
| 30> H 	 -98.819 	 46.7301 	 120.926
| 31> H 	 -97.1672 	 47.1693 	 121.576
| 32> C 	 -97.7307 	 48.2196 	 119.735
| 33> H 	 -97.1499 	 49.1604 	 119.819
| 34> H 	 -98.6968 	 48.5621 	 119.426
| 35> C 	 -97.1088 	 47.2613 	 118.761
| 36> H 	 -97.7136 	 46.3906 	 118.721
| 37> H 	 -96.0994 	 46.9218 	 119.009
| 38> H 	 -97.0589 	 47.5644 	 117.72
| 39> H 	 -92.6887 	 50.0859 	 122.547
| 40> H 	 -100.635 	 50.9545 	 123.4
| 41> *
| 42>
| 43>                          ****END OF INPUT****

CARTESIAN COORDINATES (ANGSTROEM)
---------------------------------
  S    -95.211400   50.421600  122.036000
  C    -93.742600   49.735900  122.713000
  C    -93.975000   48.640300  123.469000
  C    -95.362200   48.350100  123.542000
  C    -96.224200   49.277800  122.918000
  H    -95.717200   47.531900  124.101000
  C    -92.779700   47.968600  124.268000
  H    -93.128300   47.745500  125.284000
  H    -91.919600   48.662500  124.368000
  C    -92.286800   46.647500  123.818000
  H    -91.691900   46.744100  122.913000
  H    -91.553200   46.119900  124.479000
  C    -93.446300   45.662100  123.363000
  H    -94.194500   46.154000  122.652000
  H    -93.093800   44.820800  122.742000
  H    -93.939300   45.160600  124.243000
  S    -98.328900   50.467900  124.016000
  C    -99.844100   50.228900  123.217000
  C    -99.857600   49.171800  122.313000
  C    -98.576700   48.605500  122.133000
  C    -97.627700   49.296600  122.911000
  H    -100.873000   48.905700  121.817000
  C    -98.146400   47.539800  121.094000
  H    -98.819000   46.730100  120.926000
  H    -97.167200   47.169300  121.576000
  C    -97.730700   48.219600  119.735000
  H    -97.149900   49.160400  119.819000
  H    -98.696800   48.562100  119.426000
  C    -97.108800   47.261300  118.761000
  H    -97.713600   46.390600  118.721000
  H    -96.099400   46.921800  119.009000
  H    -97.058900   47.564400  117.720000
  H    -92.688700   50.085900  122.547000
  H    -100.635000   50.954500  123.400000

 Total Charge           Charge          ....    0
 Multiplicity           Mult            ....    1
 Number of Electrons    NEL             ....  134
 Basis Dimension        Dim             ....  322

ORBITAL ENERGIES
----------------

  NO   OCC          E(Eh)            E(eV)
   0   2.0000     -88.966103     -2420.8907
   1   2.0000     -88.965695     -2420.8796
   2   2.0000     -10.327239      -281.0185
   3   2.0000     -10.319742      -280.8145
   4   2.0000     -10.316786      -280.7340
   5   2.0000     -10.314755      -280.6788
   6   2.0000     -10.310585      -280.5653
   7   2.0000     -10.302813      -280.3538
   8   2.0000     -10.300234      -280.2836
   9   2.0000     -10.299849      -280.2731
  10   2.0000     -10.299132      -280.2536
  11   2.0000     -10.293711      -280.1061
  12   2.0000     -10.289778      -279.9991
  13   2.0000     -10.287573      -279.9391
  14   2.0000     -10.282885      -279.8115
  15   2.0000     -10.270079      -279.4630
  16   2.0000      -8.081483      -219.9083
  17   2.0000      -8.079870      -219.8644
  18   2.0000      -6.039636      -164.3468
  19   2.0000      -6.038410      -164.3135
  20   2.0000      -6.036034      -164.2488
  21   2.0000      -6.034393      -164.2042
  22   2.0000      -6.032439      -164.1510
  23   2.0000      -6.030666      -164.1028
  24   2.0000      -1.007792       -27.4234
  25   2.0000      -0.983374       -26.7590
  26   2.0000      -0.909581       -24.7509
  27   2.0000      -0.904763       -24.6199
  28   2.0000      -0.871156       -23.7053
  29   2.0000      -0.853015       -23.2117
  30   2.0000      -0.838393       -22.8138
  31   2.0000      -0.808319       -21.9955
  32   2.0000      -0.784035       -21.3347
  33   2.0000      -0.770118       -20.9560
  34   2.0000      -0.707330       -19.2474
  35   2.0000      -0.695143       -18.9158
  36   2.0000      -0.691936       -18.8285
  37   2.0000      -0.657231       -17.8842
  38   2.0000      -0.636331       -17.3155
  39   2.0000      -0.615332       -16.7440
  40   2.0000      -0.593877       -16.1602
  41   2.0000      -0.570866       -15.5340
  42   2.0000      -0.562439       -15.3048
  43   2.0000      -0.544277       -14.8105
  44   2.0000      -0.541623       -14.7383
  45   2.0000      -0.518386       -14.1060
  46   2.0000      -0.513702       -13.9785
  47   2.0000      -0.510592       -13.8939
  48   2.0000      -0.502058       -13.6617
  49   2.0000      -0.492287       -13.3958
  50   2.0000      -0.490907       -13.3583
  51   2.0000      -0.476333       -12.9617
  52   2.0000      -0.469316       -12.7707
  53   2.0000      -0.463558       -12.6141
  54   2.0000      -0.456835       -12.4311
  55   2.0000      -0.445707       -12.1283
  56   2.0000      -0.439232       -11.9521
  57   2.0000      -0.435128       -11.8404
  58   2.0000      -0.432305       -11.7636
  59   2.0000      -0.431330       -11.7371
  60   2.0000      -0.422368       -11.4932
  61   2.0000      -0.409399       -11.1403
  62   2.0000      -0.404622       -11.0103
  63   2.0000      -0.338586        -9.2134
  64   2.0000      -0.329825        -8.9750
  65   2.0000      -0.318725        -8.6730
  66   2.0000      -0.303383        -8.2555
  67   0.0000       0.033523         0.9122
  68   0.0000       0.054354         1.4791
  69   0.0000       0.109171         2.9707
  70   0.0000       0.121505         3.3063
  71   0.0000       0.124565         3.3896

MULLIKEN ATOMIC CHARGES
-----------------------
   0 S :    0.121868
   1 C :   -0.143719
   2 C :   -0.081647
   3 C :    0.070088
   4 C :   -0.179106
   5 H :   -0.007765
   6 C :    0.087915
   7 H :    0.029418
   8 H :    0.032662
   9 C :   -0.074370
  10 H :    0.016419
  11 H :    0.039793
  12 C :   -0.127046
  13 H :    0.062901
  14 H :    0.033209
  15 H :    0.042392
  16 S :    0.129765
  17 C :   -0.109580
  18 C :   -0.077266
  19 C :    0.024190
  20 C :   -0.220631
  21 H :    0.054272
  22 C :    0.042182
  23 H :    0.028982
  24 H :    0.039581
  25 C :   -0.061543
  26 H :    0.033580
  27 H :    0.008975
  28 C :   -0.005420
  29 H :    0.006165
  30 H :    0.031691
  31 H :    0.028716
  32 H :    0.061223
  33 H :    0.062108
Sum of atomic charges:    0.0000000

LOEWDIN ATOMIC CHARGES
----------------------
   0 S :    0.400607
   1 C :   -0.195902
   2 C :   -0.071775
   3 C :   -0.048993
   4 C :   -0.205263
   5 H :    0.021669
   6 C :   -0.028317
   7 H :    0.032888
   8 H :    0.034607
   9 C :   -0.052143
  10 H :    0.019290
  11 H :    0.031326
  12 C :   -0.083563
  13 H :    0.037260
  14 H :    0.025861
  15 H :    0.025807
  16 S :    0.424655
  17 C :   -0.189557
  18 C :   -0.088497
  19 C :   -0.042653
  20 C :   -0.211658
  21 H :    0.050341
  22 C :   -0.026011
  23 H :    0.024610
  24 H :    0.038517
  25 C :   -0.040079
  26 H :    0.024641
  27 H :    0.018351
  28 C :   -0.066124
  29 H :    0.019072
  30 H :    0.027283
  31 H :    0.027723
  32 H :    0.039878
  33 H :    0.026151

  Mayer bond orders larger than 0.100000
B(  0-S ,  1-C ) :   1.1432 B(  0-S ,  4-C ) :   1.1334 B(  1-C ,  2-C ) :   1.6344
B(  1-C , 32-H ) :   0.9542 B(  2-C ,  3-C ) :   1.2522 B(  2-C ,  6-C ) :   0.9956
B(  3-C ,  4-C ) :   1.5599 B(  3-C ,  5-H ) :   1.0003 B(  4-C , 20-C ) :   1.0682
B(  6-C ,  7-H ) :   0.9423 B(  6-C ,  8-H ) :   0.9480 B(  6-C ,  9-C ) :   1.0702
B(  9-C , 10-H ) :   0.9518 B(  9-C , 11-H ) :   0.9569 B(  9-C , 12-C ) :   1.0734
B( 12-C , 13-H ) :   0.9653 B( 12-C , 14-H ) :   0.9754 B( 12-C , 15-H ) :   0.9762
B( 16-S , 17-C ) :   1.1744 B( 16-S , 20-C ) :   1.1628 B( 17-C , 18-C ) :   1.5934
B( 17-C , 20-C ) :   0.1120 B( 17-C , 33-H ) :   0.9676 B( 18-C , 19-C ) :   1.2442
B( 18-C , 21-H ) :   0.9780 B( 19-C , 20-C ) :   1.5679 B( 19-C , 22-C ) :   1.0388
B( 22-C , 23-H ) :   0.9419 B( 22-C , 24-H ) :   0.9326 B( 22-C , 25-C ) :   1.0445
B( 25-C , 26-H ) :   0.9570 B( 25-C , 27-H ) :   0.9532 B( 25-C , 28-C ) :   1.0844
B( 28-C , 29-H ) :   0.9673 B( 28-C , 30-H ) :   0.9744 B( 28-C , 31-H ) :   0.9713

Dispersion correction           -0.015153693
FINAL SINGLE POINT ENERGY     -1339.859280379252

DIPOLE MOMENT
-------------
                                X             Y             Z
Electronic contribution:    -10.54342      21.50827       9.63443
Nuclear contribution   :     10.65118     -21.89374      -9.75332
                        -----------------------------------------
Total Dipole Moment    :      0.10777      -0.38548      -0.11889
                        -----------------------------------------
Magnitude (a.u.)       :      0.41754
Magnitude (Debye)      :      1.06130

Rotational constants in cm-1:     0.018345     0.009221     0.007648
Rotational constants in MHz :   549.958110   276.442108   229.272624

                             ****ORCA TERMINATED NORMALLY****
TOTAL RUN TIME: 0 days 0 hours 0 minutes 36 seconds 494 msec
