                         Program Version 4.2.1 -  RELEASE  -
|  1> ! wB97X-D3 SP def2-SVP
|  2> %pal
|  3> nprocs 16
|  4> end
|  5>
|  6> * xyz 0 1
|  7> S 	 61.8801 	 20.3579 	 76.4962
|  8> C 	 62.0354 	 20.4288 	 74.7097
|  9> C 	 61.5585 	 19.2215 	 74.216
| 10> C 	 60.9504 	 18.3941 	 75.1715
| 11> C 	 60.8122 	 18.9836 	 76.3516
| 12> H 	 60.5561 	 17.4439 	 75.0649
| 13> C 	 61.7936 	 18.5958 	 72.8457
| 14> H 	 62.301 	 19.4255 	 72.4239
| 15> H 	 60.8671 	 18.5299 	 72.4002
| 16> C 	 62.4349 	 17.2305 	 72.7485
| 17> H 	 63.3362 	 17.2471 	 73.3877
| 18> H 	 61.8089 	 16.4486 	 73.1534
| 19> C 	 62.752 	 16.8059 	 71.2916
| 20> H 	 63.3412 	 15.8822 	 71.3766
| 21> H 	 61.7683 	 16.6716 	 70.7096
| 22> H 	 63.4214 	 17.514 	 70.7688
| 23> S 	 61.0073 	 18.4556 	 79.0631
| 24> C 	 59.5796 	 17.8274 	 79.9258
| 25> C 	 58.5257 	 17.668 	 79.1166
| 26> C 	 58.8298 	 17.8496 	 77.7262
| 27> C 	 60.0908 	 18.4627 	 77.5366
| 28> H 	 57.4591 	 17.419 	 79.4056
| 29> C 	 57.7335 	 17.668 	 76.7002
| 30> H 	 57.0004 	 16.9287 	 77.1139
| 31> H 	 58.1193 	 17.3101 	 75.7251
| 32> C 	 56.8556 	 18.9795 	 76.4855
| 33> H 	 56.621 	 19.5533 	 77.393
| 34> H 	 55.9867 	 18.629 	 75.983
| 35> C 	 57.4694 	 19.8967 	 75.3959
| 36> H 	 56.8904 	 20.7829 	 75.2328
| 37> H 	 57.4094 	 19.458 	 74.3988
| 38> H 	 58.3576 	 20.3589 	 75.7808
| 39> H 	 62.7133 	 21.0678 	 74.0803
| 40> H 	 59.5277 	 17.8493 	 81.0328
| 41> *
| 42>
| 43>                          ****END OF INPUT****

CARTESIAN COORDINATES (ANGSTROEM)
---------------------------------
  S     61.880100   20.357900   76.496200
  C     62.035400   20.428800   74.709700
  C     61.558500   19.221500   74.216000
  C     60.950400   18.394100   75.171500
  C     60.812200   18.983600   76.351600
  H     60.556100   17.443900   75.064900
  C     61.793600   18.595800   72.845700
  H     62.301000   19.425500   72.423900
  H     60.867100   18.529900   72.400200
  C     62.434900   17.230500   72.748500
  H     63.336200   17.247100   73.387700
  H     61.808900   16.448600   73.153400
  C     62.752000   16.805900   71.291600
  H     63.341200   15.882200   71.376600
  H     61.768300   16.671600   70.709600
  H     63.421400   17.514000   70.768800
  S     61.007300   18.455600   79.063100
  C     59.579600   17.827400   79.925800
  C     58.525700   17.668000   79.116600
  C     58.829800   17.849600   77.726200
  C     60.090800   18.462700   77.536600
  H     57.459100   17.419000   79.405600
  C     57.733500   17.668000   76.700200
  H     57.000400   16.928700   77.113900
  H     58.119300   17.310100   75.725100
  C     56.855600   18.979500   76.485500
  H     56.621000   19.553300   77.393000
  H     55.986700   18.629000   75.983000
  C     57.469400   19.896700   75.395900
  H     56.890400   20.782900   75.232800
  H     57.409400   19.458000   74.398800
  H     58.357600   20.358900   75.780800
  H     62.713300   21.067800   74.080300
  H     59.527700   17.849300   81.032800

 Total Charge           Charge          ....    0
 Multiplicity           Mult            ....    1
 Number of Electrons    NEL             ....  134
 Basis Dimension        Dim             ....  322

ORBITAL ENERGIES
----------------

  NO   OCC          E(Eh)            E(eV)
   0   2.0000     -88.964599     -2420.8498
   1   2.0000     -88.963629     -2420.8234
   2   2.0000     -10.333233      -281.1816
   3   2.0000     -10.325315      -280.9661
   4   2.0000     -10.319889      -280.8185
   5   2.0000     -10.318499      -280.7806
   6   2.0000     -10.307266      -280.4750
   7   2.0000     -10.300760      -280.2979
   8   2.0000     -10.297238      -280.2021
   9   2.0000     -10.297200      -280.2011
  10   2.0000     -10.290513      -280.0191
  11   2.0000     -10.289817      -280.0001
  12   2.0000     -10.287295      -279.9315
  13   2.0000     -10.278643      -279.6961
  14   2.0000     -10.276597      -279.6404
  15   2.0000     -10.267070      -279.3812
  16   2.0000      -8.078718      -219.8331
  17   2.0000      -8.077726      -219.8061
  18   2.0000      -6.037431      -164.2869
  19   2.0000      -6.036455      -164.2603
  20   2.0000      -6.033636      -164.1836
  21   2.0000      -6.032427      -164.1507
  22   2.0000      -6.028955      -164.0562
  23   2.0000      -6.028195      -164.0355
  24   2.0000      -1.007571       -27.4174
  25   2.0000      -0.983284       -26.7565
  26   2.0000      -0.914517       -24.8853
  27   2.0000      -0.901187       -24.5226
  28   2.0000      -0.868560       -23.6347
  29   2.0000      -0.849303       -23.1107
  30   2.0000      -0.843456       -22.9516
  31   2.0000      -0.818824       -22.2813
  32   2.0000      -0.780175       -21.2296
  33   2.0000      -0.769591       -20.9416
  34   2.0000      -0.708912       -19.2905
  35   2.0000      -0.697172       -18.9710
  36   2.0000      -0.689249       -18.7554
  37   2.0000      -0.657146       -17.8818
  38   2.0000      -0.640781       -17.4365
  39   2.0000      -0.622258       -16.9325
  40   2.0000      -0.598559       -16.2876
  41   2.0000      -0.578382       -15.7386
  42   2.0000      -0.554574       -15.0907
  43   2.0000      -0.552236       -15.0271
  44   2.0000      -0.537092       -14.6150
  45   2.0000      -0.523519       -14.2457
  46   2.0000      -0.516480       -14.0541
  47   2.0000      -0.507362       -13.8060
  48   2.0000      -0.503722       -13.7070
  49   2.0000      -0.491347       -13.3702
  50   2.0000      -0.489668       -13.3245
  51   2.0000      -0.483770       -13.1641
  52   2.0000      -0.472753       -12.8643
  53   2.0000      -0.463347       -12.6083
  54   2.0000      -0.457005       -12.4357
  55   2.0000      -0.449387       -12.2284
  56   2.0000      -0.445912       -12.1339
  57   2.0000      -0.436822       -11.8865
  58   2.0000      -0.426999       -11.6192
  59   2.0000      -0.426125       -11.5955
  60   2.0000      -0.419293       -11.4095
  61   2.0000      -0.410318       -11.1653
  62   2.0000      -0.408284       -11.1100
  63   2.0000      -0.350412        -9.5352
  64   2.0000      -0.331283        -9.0147
  65   2.0000      -0.324630        -8.8336
  66   2.0000      -0.290056        -7.8928
  67   0.0000       0.023088         0.6283
  68   0.0000       0.067638         1.8405
  69   0.0000       0.100271         2.7285
  70   0.0000       0.119636         3.2555
  71   0.0000       0.129597         3.5265

MULLIKEN ATOMIC CHARGES
-----------------------
   0 S :    0.090348
   1 C :   -0.122894
   2 C :   -0.125945
   3 C :    0.043176
   4 C :   -0.117565
   5 H :   -0.018550
   6 C :    0.148931
   7 H :   -0.007995
   8 H :    0.006009
   9 C :   -0.089641
  10 H :    0.035103
  11 H :    0.031549
  12 C :   -0.070460
  13 H :    0.041838
  14 H :    0.049676
  15 H :    0.037519
  16 S :    0.078600
  17 C :   -0.086910
  18 C :   -0.037246
  19 C :   -0.048868
  20 C :   -0.150414
  21 H :    0.041839
  22 C :    0.035047
  23 H :    0.029381
  24 H :    0.028754
  25 C :   -0.059993
  26 H :    0.041327
  27 H :    0.019655
  28 C :   -0.043391
  29 H :    0.010557
  30 H :    0.033259
  31 H :    0.041142
  32 H :    0.065276
  33 H :    0.070885
Sum of atomic charges:   -0.0000000

LOEWDIN ATOMIC CHARGES
----------------------
   0 S :    0.380797
   1 C :   -0.204786
   2 C :   -0.054999
   3 C :   -0.062060
   4 C :   -0.178517
   5 H :    0.020774
   6 C :   -0.027778
   7 H :    0.023530
   8 H :    0.021044
   9 C :   -0.040720
  10 H :    0.027807
  11 H :    0.023592
  12 C :   -0.068170
  13 H :    0.030102
  14 H :    0.035408
  15 H :    0.025549
  16 S :    0.369531
  17 C :   -0.178045
  18 C :   -0.075069
  19 C :   -0.060488
  20 C :   -0.182223
  21 H :    0.044031
  22 C :   -0.034260
  23 H :    0.034397
  24 H :    0.030923
  25 C :   -0.030370
  26 H :    0.028366
  27 H :    0.018469
  28 C :   -0.070669
  29 H :    0.022359
  30 H :    0.027283
  31 H :    0.026510
  32 H :    0.041183
  33 H :    0.036499

  Mayer bond orders larger than 0.100000
B(  0-S ,  1-C ) :   1.1002 B(  0-S ,  4-C ) :   1.1367 B(  1-C ,  2-C ) :   1.6398
B(  1-C , 32-H ) :   0.9563 B(  2-C ,  3-C ) :   1.2005 B(  2-C ,  6-C ) :   1.0139
B(  3-C ,  4-C ) :   1.6000 B(  3-C ,  5-H ) :   1.0154 B(  4-C , 20-C ) :   1.0291
B(  6-C ,  7-H ) :   0.9340 B(  6-C ,  8-H ) :   0.9219 B(  6-C ,  9-C ) :   1.0739
B(  9-C , 10-H ) :   0.9575 B(  9-C , 11-H ) :   0.9446 B(  9-C , 12-C ) :   1.0849
B( 12-C , 13-H ) :   0.9741 B( 12-C , 14-H ) :   0.9731 B( 12-C , 15-H ) :   0.9769
B( 16-S , 17-C ) :   1.1233 B( 16-S , 20-C ) :   1.1333 B( 17-C , 18-C ) :   1.6510
B( 17-C , 33-H ) :   0.9591 B( 18-C , 19-C ) :   1.2243 B( 18-C , 21-H ) :   0.9725
B( 19-C , 20-C ) :   1.6026 B( 19-C , 22-C ) :   1.0636 B( 22-C , 23-H ) :   0.9338
B( 22-C , 24-H ) :   0.9373 B( 22-C , 25-C ) :   1.0535 B( 25-C , 26-H ) :   0.9589
B( 25-C , 27-H ) :   0.9569 B( 25-C , 28-C ) :   1.0927 B( 28-C , 29-H ) :   0.9666
B( 28-C , 30-H ) :   0.9746 B( 28-C , 31-H ) :   0.9709

Dispersion correction           -0.015000937
FINAL SINGLE POINT ENERGY     -1339.844550368698

DIPOLE MOMENT
-------------
                                X             Y             Z
Electronic contribution:      9.21025       6.72593      23.89792
Nuclear contribution   :     -9.64114      -7.06213     -24.36643
                        -----------------------------------------
Total Dipole Moment    :     -0.43089      -0.33620      -0.46851
                        -----------------------------------------
Magnitude (a.u.)       :      0.71986
Magnitude (Debye)      :      1.82973

Rotational constants in cm-1:     0.019584     0.008466     0.007464
Rotational constants in MHz :   587.107448   253.815262   223.760835

                             ****ORCA TERMINATED NORMALLY****
TOTAL RUN TIME: 0 days 0 hours 0 minutes 29 seconds 934 msec
