                         Program Version 4.2.1 -  RELEASE  -
|  1> ! wB97X-D3 SP def2-SVP
|  2> %pal
|  3> nprocs 16
|  4> end
|  5>
|  6> * xyz 0 1
|  7> S 	 45.6431 	 23.8447 	 89.6641
|  8> C 	 45.7614 	 24.6373 	 91.2078
|  9> C 	 44.6108 	 25.4276 	 91.3811
| 10> C 	 43.7075 	 25.4738 	 90.2217
| 11> C 	 44.1272 	 24.6341 	 89.2254
| 12> H 	 42.8408 	 26.0719 	 90.0529
| 13> C 	 44.3916 	 26.3578 	 92.5742
| 14> H 	 45.107 	 26.1706 	 93.3332
| 15> H 	 43.3918 	 26.1567 	 93.0669
| 16> C 	 44.3749 	 27.9166 	 92.1727
| 17> H 	 45.2571 	 28.1117 	 91.6324
| 18> H 	 43.5445 	 27.9604 	 91.498
| 19> C 	 44.1311 	 28.9151 	 93.2852
| 20> H 	 43.3818 	 28.6003 	 94.0157
| 21> H 	 44.9842 	 28.9922 	 93.9479
| 22> H 	 43.9481 	 29.898 	 92.8316
| 23> S 	 44.7727 	 24.7272 	 86.538
| 24> C 	 43.4614 	 24.854 	 85.3351
| 25> C 	 42.2297 	 24.7637 	 85.9595
| 26> C 	 42.2855 	 24.6439 	 87.3663
| 27> C 	 43.5758 	 24.6354 	 87.854
| 28> H 	 41.2513 	 24.7495 	 85.4036
| 29> C 	 41.035 	 24.4292 	 88.2454
| 30> H 	 40.5068 	 25.3777 	 88.5272
| 31> H 	 41.3211 	 23.9567 	 89.2219
| 32> C 	 39.8841 	 23.576 	 87.6218
| 33> H 	 40.2935 	 22.601 	 87.2343
| 34> H 	 39.4762 	 24.1836 	 86.8217
| 35> C 	 38.8748 	 23.3796 	 88.6304
| 36> H 	 39.2917 	 22.6672 	 89.3176
| 37> H 	 37.934 	 23.0474 	 88.1574
| 38> H 	 38.8144 	 24.2754 	 89.1661
| 39> H 	 46.5203 	 24.3857 	 91.9497
| 40> H 	 43.6292 	 24.7784 	 84.2647
| 41> *
| 42>
| 43>                          ****END OF INPUT****

CARTESIAN COORDINATES (ANGSTROEM)
---------------------------------
  S     45.643100   23.844700   89.664100
  C     45.761400   24.637300   91.207800
  C     44.610800   25.427600   91.381100
  C     43.707500   25.473800   90.221700
  C     44.127200   24.634100   89.225400
  H     42.840800   26.071900   90.052900
  C     44.391600   26.357800   92.574200
  H     45.107000   26.170600   93.333200
  H     43.391800   26.156700   93.066900
  C     44.374900   27.916600   92.172700
  H     45.257100   28.111700   91.632400
  H     43.544500   27.960400   91.498000
  C     44.131100   28.915100   93.285200
  H     43.381800   28.600300   94.015700
  H     44.984200   28.992200   93.947900
  H     43.948100   29.898000   92.831600
  S     44.772700   24.727200   86.538000
  C     43.461400   24.854000   85.335100
  C     42.229700   24.763700   85.959500
  C     42.285500   24.643900   87.366300
  C     43.575800   24.635400   87.854000
  H     41.251300   24.749500   85.403600
  C     41.035000   24.429200   88.245400
  H     40.506800   25.377700   88.527200
  H     41.321100   23.956700   89.221900
  C     39.884100   23.576000   87.621800
  H     40.293500   22.601000   87.234300
  H     39.476200   24.183600   86.821700
  C     38.874800   23.379600   88.630400
  H     39.291700   22.667200   89.317600
  H     37.934000   23.047400   88.157400
  H     38.814400   24.275400   89.166100
  H     46.520300   24.385700   91.949700
  H     43.629200   24.778400   84.264700

 Total Charge           Charge          ....    0
 Multiplicity           Mult            ....    1
 Number of Electrons    NEL             ....  134
 Basis Dimension        Dim             ....  322

ORBITAL ENERGIES
----------------

  NO   OCC          E(Eh)            E(eV)
   0   2.0000     -88.965802     -2420.8825
   1   2.0000     -88.965448     -2420.8729
   2   2.0000     -10.332547      -281.1629
   3   2.0000     -10.331313      -281.1293
   4   2.0000     -10.321183      -280.8537
   5   2.0000     -10.320980      -280.8481
   6   2.0000     -10.311514      -280.5906
   7   2.0000     -10.304155      -280.3903
   8   2.0000     -10.300791      -280.2988
   9   2.0000     -10.298975      -280.2493
  10   2.0000     -10.297185      -280.2006
  11   2.0000     -10.294825      -280.1364
  12   2.0000     -10.283241      -279.8212
  13   2.0000     -10.282563      -279.8028
  14   2.0000     -10.278379      -279.6889
  15   2.0000     -10.267902      -279.4038
  16   2.0000      -8.080504      -219.8817
  17   2.0000      -8.079211      -219.8465
  18   2.0000      -6.039135      -164.3332
  19   2.0000      -6.037844      -164.2981
  20   2.0000      -6.034915      -164.2184
  21   2.0000      -6.033858      -164.1896
  22   2.0000      -6.031226      -164.1180
  23   2.0000      -6.029896      -164.0818
  24   2.0000      -1.003140       -27.2968
  25   2.0000      -0.980021       -26.6677
  26   2.0000      -0.921117       -25.0649
  27   2.0000      -0.902278       -24.5522
  28   2.0000      -0.870047       -23.6752
  29   2.0000      -0.856397       -23.3037
  30   2.0000      -0.845183       -22.9986
  31   2.0000      -0.815507       -22.1911
  32   2.0000      -0.775666       -21.1069
  33   2.0000      -0.766733       -20.8639
  34   2.0000      -0.705637       -19.2014
  35   2.0000      -0.697051       -18.9677
  36   2.0000      -0.692948       -18.8561
  37   2.0000      -0.655550       -17.8384
  38   2.0000      -0.646529       -17.5930
  39   2.0000      -0.616954       -16.7882
  40   2.0000      -0.599944       -16.3253
  41   2.0000      -0.581022       -15.8104
  42   2.0000      -0.564403       -15.3582
  43   2.0000      -0.554595       -15.0913
  44   2.0000      -0.535253       -14.5650
  45   2.0000      -0.527262       -14.3475
  46   2.0000      -0.519404       -14.1337
  47   2.0000      -0.510842       -13.9007
  48   2.0000      -0.505356       -13.7514
  49   2.0000      -0.498285       -13.5590
  50   2.0000      -0.492809       -13.4100
  51   2.0000      -0.477596       -12.9960
  52   2.0000      -0.471688       -12.8353
  53   2.0000      -0.462703       -12.5908
  54   2.0000      -0.457081       -12.4378
  55   2.0000      -0.452589       -12.3156
  56   2.0000      -0.450618       -12.2619
  57   2.0000      -0.430374       -11.7111
  58   2.0000      -0.428259       -11.6535
  59   2.0000      -0.422203       -11.4887
  60   2.0000      -0.421390       -11.4666
  61   2.0000      -0.417158       -11.3515
  62   2.0000      -0.412923       -11.2362
  63   2.0000      -0.355240        -9.6666
  64   2.0000      -0.333160        -9.0657
  65   2.0000      -0.324568        -8.8320
  66   2.0000      -0.292255        -7.9527
  67   0.0000       0.025676         0.6987
  68   0.0000       0.073110         1.9894
  69   0.0000       0.109565         2.9814
  70   0.0000       0.118280         3.2186
  71   0.0000       0.133848         3.6422

MULLIKEN ATOMIC CHARGES
-----------------------
   0 S :    0.095936
   1 C :   -0.121672
   2 C :   -0.083091
   3 C :    0.021377
   4 C :   -0.127678
   5 H :    0.017980
   6 C :    0.042848
   7 H :    0.005765
   8 H :    0.033443
   9 C :   -0.070121
  10 H :    0.029186
  11 H :    0.021074
  12 C :   -0.030900
  13 H :    0.024918
  14 H :    0.020624
  15 H :    0.045902
  16 S :    0.092623
  17 C :   -0.098373
  18 C :   -0.045300
  19 C :    0.000768
  20 C :   -0.153197
  21 H :    0.040099
  22 C :   -0.032205
  23 H :    0.040754
  24 H :    0.037616
  25 C :   -0.103429
  26 H :    0.043471
  27 H :    0.024843
  28 C :    0.026347
  29 H :    0.022546
  30 H :    0.041867
  31 H :    0.003156
  32 H :    0.067773
  33 H :    0.065049
Sum of atomic charges:   -0.0000000

LOEWDIN ATOMIC CHARGES
----------------------
   0 S :    0.397272
   1 C :   -0.202965
   2 C :   -0.057817
   3 C :   -0.056666
   4 C :   -0.186670
   5 H :    0.030649
   6 C :   -0.033852
   7 H :    0.016069
   8 H :    0.033350
   9 C :   -0.031829
  10 H :    0.019765
  11 H :    0.018380
  12 C :   -0.067745
  13 H :    0.026667
  14 H :    0.022866
  15 H :    0.033386
  16 S :    0.379602
  17 C :   -0.177453
  18 C :   -0.073579
  19 C :   -0.067750
  20 C :   -0.178577
  21 H :    0.041510
  22 C :   -0.037482
  23 H :    0.031581
  24 H :    0.032017
  25 C :   -0.044512
  26 H :    0.028877
  27 H :    0.017639
  28 C :   -0.057296
  29 H :    0.027157
  30 H :    0.032654
  31 H :    0.016682
  32 H :    0.036467
  33 H :    0.031603

  Mayer bond orders larger than 0.100000
B(  0-S ,  1-C ) :   1.1285 B(  0-S ,  4-C ) :   1.1461 B(  1-C ,  2-C ) :   1.6065
B(  1-C , 32-H ) :   0.9702 B(  2-C ,  3-C ) :   1.2048 B(  2-C ,  6-C ) :   1.0490
B(  3-C ,  4-C ) :   1.5874 B(  3-C ,  5-H ) :   0.9949 B(  4-C , 20-C ) :   1.0325
B(  6-C ,  7-H ) :   0.9482 B(  6-C ,  8-H ) :   0.9384 B(  6-C ,  9-C ) :   1.0442
B(  9-C , 10-H ) :   0.9593 B(  9-C , 11-H ) :   0.9577 B(  9-C , 12-C ) :   1.0881
B( 12-C , 13-H ) :   0.9713 B( 12-C , 14-H ) :   0.9734 B( 12-C , 15-H ) :   0.9729
B( 16-S , 17-C ) :   1.1421 B( 16-S , 20-C ) :   1.1333 B( 17-C , 18-C ) :   1.6050
B( 17-C , 33-H ) :   0.9671 B( 18-C , 19-C ) :   1.2591 B( 18-C , 21-H ) :   0.9750
B( 19-C , 20-C ) :   1.6138 B( 19-C , 22-C ) :   1.0210 B( 22-C , 23-H ) :   0.9278
B( 22-C , 24-H ) :   0.9476 B( 22-C , 25-C ) :   1.0699 B( 25-C , 26-H ) :   0.9561
B( 25-C , 27-H ) :   0.9415 B( 25-C , 28-C ) :   1.1011 B( 28-C , 29-H ) :   0.9687
B( 28-C , 30-H ) :   0.9677 B( 28-C , 31-H ) :   0.9610

Dispersion correction           -0.013265405
FINAL SINGLE POINT ENERGY     -1339.876996290896

DIPOLE MOMENT
-------------
                                X             Y             Z
Electronic contribution:     20.36069     -10.36383     -15.60555
Nuclear contribution   :    -20.89175      10.60843      15.87797
                        -----------------------------------------
Total Dipole Moment    :     -0.53107       0.24460       0.27243
                        -----------------------------------------
Magnitude (a.u.)       :      0.64504
Magnitude (Debye)      :      1.63956

Rotational constants in cm-1:     0.016535     0.008056     0.006524
Rotational constants in MHz :   495.717538   241.515347   195.580931

                             ****ORCA TERMINATED NORMALLY****
TOTAL RUN TIME: 0 days 0 hours 0 minutes 27 seconds 230 msec
