                         Program Version 4.2.1 -  RELEASE  -
|  1> ! wB97X-D3 SP def2-SVP
|  2> %pal
|  3> nprocs 16
|  4> end
|  5>
|  6> * xyz 0 1
|  7> S 	 -44.8453 	 17.2847 	 76.8733
|  8> C 	 -43.3922 	 18.281 	 76.6236
|  9> C 	 -42.2173 	 17.5675 	 76.6524
| 10> C 	 -42.5043 	 16.1573 	 76.6869
| 11> C 	 -43.8508 	 15.8402 	 76.8494
| 12> H 	 -41.7846 	 15.3371 	 76.712
| 13> C 	 -40.8201 	 18.1138 	 76.5884
| 14> H 	 -40.2191 	 17.2886 	 76.2126
| 15> H 	 -40.4764 	 18.1337 	 77.6448
| 16> C 	 -40.4096 	 19.3245 	 75.7157
| 17> H 	 -40.7084 	 19.0957 	 74.692
| 18> H 	 -40.9907 	 20.1266 	 75.9167
| 19> C 	 -38.8779 	 19.6284 	 75.7165
| 20> H 	 -38.3483 	 18.6787 	 75.6247
| 21> H 	 -38.7259 	 20.372 	 74.9436
| 22> H 	 -38.652 	 20.1469 	 76.7223
| 23> S 	 -45.8536 	 14.3003 	 75.9203
| 24> C 	 -46.0302 	 12.6329 	 76.5296
| 25> C 	 -44.9584 	 12.3004 	 77.2865
| 26> C 	 -43.9762 	 13.3229 	 77.3772
| 27> C 	 -44.4811 	 14.5208 	 76.9501
| 28> H 	 -44.9167 	 11.3005 	 77.7727
| 29> C 	 -42.7159 	 13.0623 	 78.2289
| 30> H 	 -42.8544 	 12.1932 	 78.8773
| 31> H 	 -42.5549 	 13.9468 	 78.8204
| 32> C 	 -41.4001 	 12.6979 	 77.4054
| 33> H 	 -41.4821 	 13.2812 	 76.5028
| 34> H 	 -41.2894 	 11.6496 	 77.1248
| 35> C 	 -40.1424 	 13.0841 	 78.2058
| 36> H 	 -40.2449 	 12.7733 	 79.209
| 37> H 	 -39.8904 	 14.1523 	 78.1629
| 38> H 	 -39.2643 	 12.654 	 77.757
| 39> H 	 -43.4684 	 19.3447 	 76.5615
| 40> H 	 -46.7384 	 11.8663 	 76.1571
| 41> *
| 42>
| 43>                          ****END OF INPUT****

CARTESIAN COORDINATES (ANGSTROEM)
---------------------------------
  S    -44.845300   17.284700   76.873300
  C    -43.392200   18.281000   76.623600
  C    -42.217300   17.567500   76.652400
  C    -42.504300   16.157300   76.686900
  C    -43.850800   15.840200   76.849400
  H    -41.784600   15.337100   76.712000
  C    -40.820100   18.113800   76.588400
  H    -40.219100   17.288600   76.212600
  H    -40.476400   18.133700   77.644800
  C    -40.409600   19.324500   75.715700
  H    -40.708400   19.095700   74.692000
  H    -40.990700   20.126600   75.916700
  C    -38.877900   19.628400   75.716500
  H    -38.348300   18.678700   75.624700
  H    -38.725900   20.372000   74.943600
  H    -38.652000   20.146900   76.722300
  S    -45.853600   14.300300   75.920300
  C    -46.030200   12.632900   76.529600
  C    -44.958400   12.300400   77.286500
  C    -43.976200   13.322900   77.377200
  C    -44.481100   14.520800   76.950100
  H    -44.916700   11.300500   77.772700
  C    -42.715900   13.062300   78.228900
  H    -42.854400   12.193200   78.877300
  H    -42.554900   13.946800   78.820400
  C    -41.400100   12.697900   77.405400
  H    -41.482100   13.281200   76.502800
  H    -41.289400   11.649600   77.124800
  C    -40.142400   13.084100   78.205800
  H    -40.244900   12.773300   79.209000
  H    -39.890400   14.152300   78.162900
  H    -39.264300   12.654000   77.757000
  H    -43.468400   19.344700   76.561500
  H    -46.738400   11.866300   76.157100

 Total Charge           Charge          ....    0
 Multiplicity           Mult            ....    1
 Number of Electrons    NEL             ....  134
 Basis Dimension        Dim             ....  322

ORBITAL ENERGIES
----------------

  NO   OCC          E(Eh)            E(eV)
   0   2.0000     -88.965604     -2420.8772
   1   2.0000     -88.963649     -2420.8240
   2   2.0000     -10.330403      -281.1046
   3   2.0000     -10.325163      -280.9620
   4   2.0000     -10.315657      -280.7033
   5   2.0000     -10.312123      -280.6071
   6   2.0000     -10.304556      -280.4012
   7   2.0000     -10.301382      -280.3148
   8   2.0000     -10.296179      -280.1733
   9   2.0000     -10.296013      -280.1688
  10   2.0000     -10.295254      -280.1481
  11   2.0000     -10.292508      -280.0734
  12   2.0000     -10.291331      -280.0414
  13   2.0000     -10.290143      -280.0090
  14   2.0000     -10.284200      -279.8473
  15   2.0000     -10.275948      -279.6228
  16   2.0000      -8.079869      -219.8644
  17   2.0000      -8.078435      -219.8254
  18   2.0000      -6.038410      -164.3135
  19   2.0000      -6.037013      -164.2755
  20   2.0000      -6.034554      -164.2086
  21   2.0000      -6.033091      -164.1688
  22   2.0000      -6.030524      -164.0989
  23   2.0000      -6.028932      -164.0556
  24   2.0000      -1.009119       -27.4595
  25   2.0000      -0.982779       -26.7428
  26   2.0000      -0.911264       -24.7967
  27   2.0000      -0.903124       -24.5753
  28   2.0000      -0.870736       -23.6939
  29   2.0000      -0.851769       -23.1778
  30   2.0000      -0.847230       -23.0543
  31   2.0000      -0.813302       -22.1311
  32   2.0000      -0.781089       -21.2545
  33   2.0000      -0.772518       -21.0213
  34   2.0000      -0.715386       -19.4666
  35   2.0000      -0.704558       -19.1720
  36   2.0000      -0.693084       -18.8598
  37   2.0000      -0.664065       -18.0701
  38   2.0000      -0.638716       -17.3804
  39   2.0000      -0.612251       -16.6602
  40   2.0000      -0.593677       -16.1548
  41   2.0000      -0.573341       -15.6014
  42   2.0000      -0.565842       -15.3974
  43   2.0000      -0.557253       -15.1636
  44   2.0000      -0.528185       -14.3726
  45   2.0000      -0.525666       -14.3041
  46   2.0000      -0.522776       -14.2255
  47   2.0000      -0.510848       -13.9009
  48   2.0000      -0.502637       -13.6774
  49   2.0000      -0.497637       -13.5414
  50   2.0000      -0.490007       -13.3338
  51   2.0000      -0.483868       -13.1667
  52   2.0000      -0.477863       -13.0033
  53   2.0000      -0.465798       -12.6750
  54   2.0000      -0.456730       -12.4282
  55   2.0000      -0.447002       -12.1635
  56   2.0000      -0.442302       -12.0356
  57   2.0000      -0.439594       -11.9620
  58   2.0000      -0.436112       -11.8672
  59   2.0000      -0.426536       -11.6066
  60   2.0000      -0.422669       -11.5014
  61   2.0000      -0.418582       -11.3902
  62   2.0000      -0.416520       -11.3341
  63   2.0000      -0.353215        -9.6115
  64   2.0000      -0.330896        -9.0041
  65   2.0000      -0.328298        -8.9334
  66   2.0000      -0.288893        -7.8612
  67   0.0000       0.025171         0.6849
  68   0.0000       0.078110         2.1255
  69   0.0000       0.103659         2.8207
  70   0.0000       0.116237         3.1630
  71   0.0000       0.127762         3.4766

MULLIKEN ATOMIC CHARGES
-----------------------
   0 S :    0.100917
   1 C :   -0.133820
   2 C :   -0.061353
   3 C :    0.024057
   4 C :   -0.147440
   5 H :   -0.017143
   6 C :    0.051556
   7 H :    0.009989
   8 H :    0.042524
   9 C :   -0.042010
  10 H :    0.024471
  11 H :    0.004117
  12 C :   -0.062292
  13 H :    0.044737
  14 H :    0.045061
  15 H :    0.044651
  16 S :    0.093102
  17 C :   -0.092007
  18 C :   -0.048192
  19 C :   -0.039798
  20 C :   -0.107557
  21 H :    0.033328
  22 C :    0.028097
  23 H :    0.028952
  24 H :    0.038674
  25 C :   -0.083604
  26 H :    0.033628
  27 H :    0.034976
  28 C :   -0.035519
  29 H :    0.029608
  30 H :    0.028653
  31 H :    0.024874
  32 H :    0.038375
  33 H :    0.066388
Sum of atomic charges:    0.0000000

LOEWDIN ATOMIC CHARGES
----------------------
   0 S :    0.388280
   1 C :   -0.185144
   2 C :   -0.058487
   3 C :   -0.067335
   4 C :   -0.188041
   5 H :    0.028865
   6 C :   -0.039823
   7 H :    0.028948
   8 H :    0.039267
   9 C :   -0.033607
  10 H :    0.027248
  11 H :    0.004827
  12 C :   -0.059889
  13 H :    0.027319
  14 H :    0.028763
  15 H :    0.035203
  16 S :    0.396568
  17 C :   -0.184281
  18 C :   -0.072468
  19 C :   -0.061421
  20 C :   -0.197597
  21 H :    0.039191
  22 C :   -0.026085
  23 H :    0.030441
  24 H :    0.029986
  25 C :   -0.037101
  26 H :    0.015914
  27 H :    0.026040
  28 C :   -0.062279
  29 H :    0.019671
  30 H :    0.024777
  31 H :    0.024429
  32 H :    0.019275
  33 H :    0.038546

  Mayer bond orders larger than 0.100000
B(  0-S ,  1-C ) :   1.1220 B(  0-S ,  4-C ) :   1.1476 B(  1-C ,  2-C ) :   1.6248
B(  1-C , 32-H ) :   0.9734 B(  2-C ,  3-C ) :   1.2313 B(  2-C ,  6-C ) :   1.0188
B(  3-C ,  4-C ) :   1.5932 B(  3-C ,  5-H ) :   0.9810 B(  4-C , 20-C ) :   1.0257
B(  6-C ,  7-H ) :   0.9386 B(  6-C ,  8-H ) :   0.9249 B(  6-C ,  9-C ) :   1.0558
B(  9-C , 10-H ) :   0.9553 B(  9-C , 11-H ) :   0.9544 B(  9-C , 12-C ) :   1.0793
B( 12-C , 13-H ) :   0.9761 B( 12-C , 14-H ) :   0.9749 B( 12-C , 15-H ) :   0.9769
B( 16-S , 17-C ) :   1.1234 B( 16-S , 20-C ) :   1.1455 B( 17-C , 18-C ) :   1.6494
B( 17-C , 33-H ) :   0.9613 B( 18-C , 19-C ) :   1.2240 B( 18-C , 21-H ) :   0.9805
B( 19-C , 20-C ) :   1.6087 B( 19-C , 22-C ) :   1.0449 B( 22-C , 23-H ) :   0.9421
B( 22-C , 24-H ) :   0.9505 B( 22-C , 25-C ) :   1.0366 B( 25-C , 26-H ) :   0.9610
B( 25-C , 27-H ) :   0.9550 B( 25-C , 28-C ) :   1.0811 B( 28-C , 29-H ) :   0.9739
B( 28-C , 30-H ) :   0.9743 B( 28-C , 31-H ) :   0.9729

Dispersion correction           -0.014015340
FINAL SINGLE POINT ENERGY     -1339.868586094152

DIPOLE MOMENT
-------------
                                X             Y             Z
Electronic contribution:    -31.80230      -2.21214      -2.99809
Nuclear contribution   :     32.56015       2.00708       3.07971
                        -----------------------------------------
Total Dipole Moment    :      0.75785      -0.20505       0.08162
                        -----------------------------------------
Magnitude (a.u.)       :      0.78934
Magnitude (Debye)      :      2.00633

Rotational constants in cm-1:     0.019004     0.008398     0.006152
Rotational constants in MHz :   569.725936   251.755454   184.433252

                             ****ORCA TERMINATED NORMALLY****
TOTAL RUN TIME: 0 days 0 hours 0 minutes 29 seconds 754 msec
