                         Program Version 4.2.1 -  RELEASE  -
|  1> ! wB97X-D3 SP def2-SVP
|  2> %pal
|  3> nprocs 16
|  4> end
|  5>
|  6> * xyz 0 1
|  7> S 	 54.6417 	 12.618 	 78.6561
|  8> C 	 56.2137 	 13.1449 	 79.0414
|  9> C 	 57.1385 	 12.5525 	 78.1853
| 10> C 	 56.4938 	 11.7604 	 77.201
| 11> C 	 55.1359 	 11.6463 	 77.2788
| 12> H 	 56.9417 	 11.125 	 76.417
| 13> C 	 58.6288 	 12.9685 	 78.1148
| 14> H 	 58.7982 	 13.7076 	 78.8771
| 15> H 	 58.8695 	 13.4562 	 77.0739
| 16> C 	 59.653 	 11.8504 	 78.3517
| 17> H 	 59.2878 	 11.3 	 79.2793
| 18> H 	 59.7878 	 11.2107 	 77.5305
| 19> C 	 60.9886 	 12.4717 	 78.8226
| 20> H 	 61.2686 	 13.3561 	 78.1918
| 21> H 	 60.7207 	 12.8488 	 79.7798
| 22> H 	 61.9118 	 11.8538 	 78.9849
| 23> S 	 52.8714 	 10.1542 	 76.9652
| 24> C 	 52.4513 	 9.58993 	 75.3181
| 25> C 	 53.2429 	 10.1307 	 74.2893
| 26> C 	 54.3011 	 10.9024 	 74.9311
| 27> C 	 54.2069 	 11.0497 	 76.2942
| 28> H 	 53.1132 	 9.88588 	 73.3124
| 29> C 	 55.3535 	 11.6201 	 74.0857
| 30> H 	 55.9984 	 12.2382 	 74.7087
| 31> H 	 54.8867 	 12.3092 	 73.4263
| 32> C 	 56.277 	 10.7888 	 73.272
| 33> H 	 55.7675 	 10.3499 	 72.4252
| 34> H 	 56.7547 	 9.94401 	 73.7896
| 35> C 	 57.3726 	 11.5497 	 72.4486
| 36> H 	 58.1413 	 10.8968 	 72.1532
| 37> H 	 57.8987 	 12.2149 	 73.113
| 38> H 	 56.9842 	 12.1874 	 71.5757
| 39> H 	 56.442 	 13.8631 	 79.8697
| 40> H 	 51.5162 	 9.0822 	 75.1065
| 41> *
| 42>
| 43>                          ****END OF INPUT****

CARTESIAN COORDINATES (ANGSTROEM)
---------------------------------
  S     54.641700   12.618000   78.656100
  C     56.213700   13.144900   79.041400
  C     57.138500   12.552500   78.185300
  C     56.493800   11.760400   77.201000
  C     55.135900   11.646300   77.278800
  H     56.941700   11.125000   76.417000
  C     58.628800   12.968500   78.114800
  H     58.798200   13.707600   78.877100
  H     58.869500   13.456200   77.073900
  C     59.653000   11.850400   78.351700
  H     59.287800   11.300000   79.279300
  H     59.787800   11.210700   77.530500
  C     60.988600   12.471700   78.822600
  H     61.268600   13.356100   78.191800
  H     60.720700   12.848800   79.779800
  H     61.911800   11.853800   78.984900
  S     52.871400   10.154200   76.965200
  C     52.451300    9.589930   75.318100
  C     53.242900   10.130700   74.289300
  C     54.301100   10.902400   74.931100
  C     54.206900   11.049700   76.294200
  H     53.113200    9.885880   73.312400
  C     55.353500   11.620100   74.085700
  H     55.998400   12.238200   74.708700
  H     54.886700   12.309200   73.426300
  C     56.277000   10.788800   73.272000
  H     55.767500   10.349900   72.425200
  H     56.754700    9.944010   73.789600
  C     57.372600   11.549700   72.448600
  H     58.141300   10.896800   72.153200
  H     57.898700   12.214900   73.113000
  H     56.984200   12.187400   71.575700
  H     56.442000   13.863100   79.869700
  H     51.516200    9.082200   75.106500

 Total Charge           Charge          ....    0
 Multiplicity           Mult            ....    1
 Number of Electrons    NEL             ....  134
 Basis Dimension        Dim             ....  322

ORBITAL ENERGIES
----------------

  NO   OCC          E(Eh)            E(eV)
   0   2.0000     -88.968598     -2420.9586
   1   2.0000     -88.964879     -2420.8574
   2   2.0000     -10.330555      -281.1087
   3   2.0000     -10.329458      -281.0788
   4   2.0000     -10.326059      -280.9864
   5   2.0000     -10.320242      -280.8281
   6   2.0000     -10.309431      -280.5339
   7   2.0000     -10.304853      -280.4093
   8   2.0000     -10.303042      -280.3600
   9   2.0000     -10.299793      -280.2716
  10   2.0000     -10.293229      -280.0930
  11   2.0000     -10.288302      -279.9589
  12   2.0000     -10.284834      -279.8645
  13   2.0000     -10.284669      -279.8601
  14   2.0000     -10.281701      -279.7793
  15   2.0000     -10.280753      -279.7535
  16   2.0000      -8.082990      -219.9493
  17   2.0000      -8.080489      -219.8813
  18   2.0000      -6.041536      -164.3986
  19   2.0000      -6.038888      -164.3265
  20   2.0000      -6.037645      -164.2927
  21   2.0000      -6.034716      -164.2130
  22   2.0000      -6.033631      -164.1835
  23   2.0000      -6.031456      -164.1243
  24   2.0000      -1.010161       -27.4879
  25   2.0000      -0.985911       -26.8280
  26   2.0000      -0.912333       -24.8258
  27   2.0000      -0.909594       -24.7513
  28   2.0000      -0.872481       -23.7414
  29   2.0000      -0.852655       -23.2019
  30   2.0000      -0.845050       -22.9950
  31   2.0000      -0.818846       -22.2819
  32   2.0000      -0.781758       -21.2727
  33   2.0000      -0.768614       -20.9151
  34   2.0000      -0.705561       -19.1993
  35   2.0000      -0.696143       -18.9430
  36   2.0000      -0.689731       -18.7685
  37   2.0000      -0.670780       -18.2529
  38   2.0000      -0.645845       -17.5743
  39   2.0000      -0.621049       -16.8996
  40   2.0000      -0.598319       -16.2811
  41   2.0000      -0.574183       -15.6243
  42   2.0000      -0.573079       -15.5943
  43   2.0000      -0.565764       -15.3952
  44   2.0000      -0.530877       -14.4459
  45   2.0000      -0.524190       -14.2639
  46   2.0000      -0.511876       -13.9289
  47   2.0000      -0.507036       -13.7971
  48   2.0000      -0.504936       -13.7400
  49   2.0000      -0.499436       -13.5904
  50   2.0000      -0.494315       -13.4510
  51   2.0000      -0.475658       -12.9433
  52   2.0000      -0.472542       -12.8585
  53   2.0000      -0.464380       -12.6364
  54   2.0000      -0.459223       -12.4961
  55   2.0000      -0.455981       -12.4079
  56   2.0000      -0.442791       -12.0490
  57   2.0000      -0.440916       -11.9979
  58   2.0000      -0.433132       -11.7861
  59   2.0000      -0.424865       -11.5612
  60   2.0000      -0.418914       -11.3992
  61   2.0000      -0.413043       -11.2395
  62   2.0000      -0.405867       -11.0442
  63   2.0000      -0.356003        -9.6873
  64   2.0000      -0.335000        -9.1158
  65   2.0000      -0.329880        -8.9765
  66   2.0000      -0.293467        -7.9857
  67   0.0000       0.028874         0.7857
  68   0.0000       0.070742         1.9250
  69   0.0000       0.106542         2.8992
  70   0.0000       0.110549         3.0082
  71   0.0000       0.121125         3.2960

MULLIKEN ATOMIC CHARGES
-----------------------
   0 S :    0.104519
   1 C :   -0.138162
   2 C :   -0.064878
   3 C :   -0.008235
   4 C :   -0.125132
   5 H :    0.025974
   6 C :    0.027725
   7 H :    0.004909
   8 H :    0.055417
   9 C :   -0.065211
  10 H :    0.042350
  11 H :    0.031013
  12 C :   -0.077812
  13 H :    0.033289
  14 H :    0.018566
  15 H :    0.048941
  16 S :    0.098442
  17 C :   -0.092293
  18 C :    0.025393
  19 C :   -0.059523
  20 C :   -0.116544
  21 H :   -0.009668
  22 C :    0.095549
  23 H :    0.010626
  24 H :    0.017652
  25 C :   -0.104132
  26 H :    0.020443
  27 H :    0.033160
  28 C :   -0.052668
  29 H :    0.025584
  30 H :    0.010316
  31 H :    0.048620
  32 H :    0.074296
  33 H :    0.061473
Sum of atomic charges:   -0.0000000

LOEWDIN ATOMIC CHARGES
----------------------
   0 S :    0.419389
   1 C :   -0.212095
   2 C :   -0.074418
   3 C :   -0.070368
   4 C :   -0.196545
   5 H :    0.036705
   6 C :   -0.030124
   7 H :    0.022417
   8 H :    0.042680
   9 C :   -0.040775
  10 H :    0.034480
  11 H :    0.012638
  12 C :   -0.073954
  13 H :    0.025622
  14 H :    0.018169
  15 H :    0.031525
  16 S :    0.392652
  17 C :   -0.161762
  18 C :   -0.045214
  19 C :   -0.047943
  20 C :   -0.197896
  21 H :    0.018053
  22 C :   -0.033972
  23 H :    0.026738
  24 H :    0.029758
  25 C :   -0.046996
  26 H :    0.020842
  27 H :    0.024934
  28 C :   -0.065400
  29 H :    0.021422
  30 H :    0.016051
  31 H :    0.034597
  32 H :    0.042795
  33 H :    0.025993

  Mayer bond orders larger than 0.100000
B(  0-S ,  1-C ) :   1.1699 B(  0-S ,  4-C ) :   1.1481 B(  1-C ,  2-C ) :   1.5764
B(  1-C , 32-H ) :   0.9614 B(  2-C ,  3-C ) :   1.2520 B(  2-C ,  6-C ) :   1.0284
B(  3-C ,  4-C ) :   1.5943 B(  3-C ,  5-H ) :   0.9888 B(  4-C , 20-C ) :   1.0076
B(  6-C ,  7-H ) :   0.9454 B(  6-C ,  8-H ) :   0.9401 B(  6-C ,  9-C ) :   1.0499
B(  9-C , 10-H ) :   0.9632 B(  9-C , 11-H ) :   0.9613 B(  9-C , 12-C ) :   1.0610
B( 12-C , 13-H ) :   0.9739 B( 12-C , 14-H ) :   0.9793 B( 12-C , 15-H ) :   0.9763
B( 16-S , 17-C ) :   1.1526 B( 16-S , 20-C ) :   1.1218 B( 17-C , 18-C ) :   1.6238
B( 17-C , 33-H ) :   0.9625 B( 18-C , 19-C ) :   1.2009 B( 18-C , 21-H ) :   1.0077
B( 19-C , 20-C ) :   1.6457 B( 19-C , 22-C ) :   1.0385 B( 22-C , 23-H ) :   0.9392
B( 22-C , 24-H ) :   0.9280 B( 22-C , 25-C ) :   1.0626 B( 25-C , 26-H ) :   0.9517
B( 25-C , 27-H ) :   0.9567 B( 25-C , 28-C ) :   1.0802 B( 28-C , 29-H ) :   0.9736
B( 28-C , 30-H ) :   0.9733 B( 28-C , 31-H ) :   0.9759

Dispersion correction           -0.013637298
FINAL SINGLE POINT ENERGY     -1339.862694733411

DIPOLE MOMENT
-------------
                                X             Y             Z
Electronic contribution:    -30.12476      -3.78589      12.46038
Nuclear contribution   :     30.58552       3.87322     -12.91740
                        -----------------------------------------
Total Dipole Moment    :      0.46076       0.08733      -0.45701
                        -----------------------------------------
Magnitude (a.u.)       :      0.65482
Magnitude (Debye)      :      1.66443

Rotational constants in cm-1:     0.017084     0.008798     0.006282
Rotational constants in MHz :   512.176315   263.767093   188.321597

                             ****ORCA TERMINATED NORMALLY****
TOTAL RUN TIME: 0 days 0 hours 0 minutes 29 seconds 525 msec
