                         Program Version 4.2.1 -  RELEASE  -
|  1> ! wB97X-D3 SP def2-SVP
|  2> %pal
|  3> nprocs 16
|  4> end
|  5>
|  6> * xyz 0 1
|  7> S 	 -66.3373 	 37.3224 	 138.955
|  8> C 	 -64.8944 	 36.3035 	 139.229
|  9> C 	 -64.585 	 35.7057 	 138.064
| 10> C 	 -65.3409 	 36.1618 	 136.94
| 11> C 	 -66.3959 	 36.9643 	 137.247
| 12> H 	 -65.1406 	 35.7894 	 136.001
| 13> C 	 -63.4742 	 34.7587 	 137.966
| 14> H 	 -62.7577 	 34.8962 	 138.858
| 15> H 	 -62.9249 	 34.9888 	 137.042
| 16> C 	 -63.9325 	 33.2928 	 137.857
| 17> H 	 -64.3943 	 33.0146 	 136.899
| 18> H 	 -63.0759 	 32.6328 	 137.971
| 19> C 	 -64.7792 	 32.9173 	 139.077
| 20> H 	 -64.4783 	 33.5516 	 139.899
| 21> H 	 -65.8207 	 33.0983 	 138.9
| 22> H 	 -64.6395 	 31.9153 	 139.5
| 23> S 	 -68.0005 	 36.3194 	 135.071
| 24> C 	 -69.1709 	 37.5817 	 134.559
| 25> C 	 -68.8956 	 38.7954 	 135.226
| 26> C 	 -67.8858 	 38.7295 	 136.193
| 27> C 	 -67.3194 	 37.4863 	 136.251
| 28> H 	 -69.5409 	 39.6516 	 135.034
| 29> C 	 -67.3343 	 39.969 	 136.944
| 30> H 	 -66.2615 	 39.9757 	 137.157
| 31> H 	 -67.7457 	 40.0539 	 137.947
| 32> C 	 -67.5818 	 41.3638 	 136.33
| 33> H 	 -67.4999 	 42.1631 	 137.003
| 34> H 	 -68.615 	 41.343 	 136.041
| 35> C 	 -66.7475 	 41.5888 	 135.015
| 36> H 	 -67.1064 	 42.4533 	 134.385
| 37> H 	 -66.8146 	 40.6982 	 134.354
| 38> H 	 -65.6671 	 41.7011 	 135.276
| 39> H 	 -64.3759 	 36.2265 	 140.121
| 40> H 	 -69.872 	 37.4846 	 133.698
| 41> *
| 42>
| 43>                          ****END OF INPUT****

CARTESIAN COORDINATES (ANGSTROEM)
---------------------------------
  S    -66.337300   37.322400  138.955000
  C    -64.894400   36.303500  139.229000
  C    -64.585000   35.705700  138.064000
  C    -65.340900   36.161800  136.940000
  C    -66.395900   36.964300  137.247000
  H    -65.140600   35.789400  136.001000
  C    -63.474200   34.758700  137.966000
  H    -62.757700   34.896200  138.858000
  H    -62.924900   34.988800  137.042000
  C    -63.932500   33.292800  137.857000
  H    -64.394300   33.014600  136.899000
  H    -63.075900   32.632800  137.971000
  C    -64.779200   32.917300  139.077000
  H    -64.478300   33.551600  139.899000
  H    -65.820700   33.098300  138.900000
  H    -64.639500   31.915300  139.500000
  S    -68.000500   36.319400  135.071000
  C    -69.170900   37.581700  134.559000
  C    -68.895600   38.795400  135.226000
  C    -67.885800   38.729500  136.193000
  C    -67.319400   37.486300  136.251000
  H    -69.540900   39.651600  135.034000
  C    -67.334300   39.969000  136.944000
  H    -66.261500   39.975700  137.157000
  H    -67.745700   40.053900  137.947000
  C    -67.581800   41.363800  136.330000
  H    -67.499900   42.163100  137.003000
  H    -68.615000   41.343000  136.041000
  C    -66.747500   41.588800  135.015000
  H    -67.106400   42.453300  134.385000
  H    -66.814600   40.698200  134.354000
  H    -65.667100   41.701100  135.276000
  H    -64.375900   36.226500  140.121000
  H    -69.872000   37.484600  133.698000

 Total Charge           Charge          ....    0
 Multiplicity           Mult            ....    1
 Number of Electrons    NEL             ....  134
 Basis Dimension        Dim             ....  322

ORBITAL ENERGIES
----------------

  NO   OCC          E(Eh)            E(eV)
   0   2.0000     -88.972093     -2421.0537
   1   2.0000     -88.962710     -2420.7984
   2   2.0000     -10.330347      -281.1030
   3   2.0000     -10.329820      -281.0887
   4   2.0000     -10.327891      -281.0362
   5   2.0000     -10.307925      -280.4929
   6   2.0000     -10.306448      -280.4527
   7   2.0000     -10.300583      -280.2931
   8   2.0000     -10.294687      -280.1327
   9   2.0000     -10.294043      -280.1152
  10   2.0000     -10.290655      -280.0229
  11   2.0000     -10.285631      -279.8862
  12   2.0000     -10.283838      -279.8374
  13   2.0000     -10.283492      -279.8281
  14   2.0000     -10.283153      -279.8188
  15   2.0000     -10.268388      -279.4170
  16   2.0000      -8.085253      -220.0109
  17   2.0000      -8.076825      -219.7816
  18   2.0000      -6.043819      -164.4607
  19   2.0000      -6.040087      -164.3591
  20   2.0000      -6.035936      -164.2462
  21   2.0000      -6.035546      -164.2356
  22   2.0000      -6.031390      -164.1225
  23   2.0000      -6.027412      -164.0142
  24   2.0000      -1.007468       -27.4146
  25   2.0000      -0.984054       -26.7775
  26   2.0000      -0.916264       -24.9328
  27   2.0000      -0.904106       -24.6020
  28   2.0000      -0.869927       -23.6719
  29   2.0000      -0.848646       -23.0928
  30   2.0000      -0.840979       -22.8842
  31   2.0000      -0.814448       -22.1622
  32   2.0000      -0.779844       -21.2206
  33   2.0000      -0.773433       -21.0462
  34   2.0000      -0.711658       -19.3652
  35   2.0000      -0.700812       -19.0701
  36   2.0000      -0.693695       -18.8764
  37   2.0000      -0.665359       -18.1053
  38   2.0000      -0.642569       -17.4852
  39   2.0000      -0.616780       -16.7834
  40   2.0000      -0.603460       -16.4210
  41   2.0000      -0.567848       -15.4519
  42   2.0000      -0.553883       -15.0719
  43   2.0000      -0.550401       -14.9772
  44   2.0000      -0.543184       -14.7808
  45   2.0000      -0.536676       -14.6037
  46   2.0000      -0.520829       -14.1725
  47   2.0000      -0.516587       -14.0570
  48   2.0000      -0.499859       -13.6019
  49   2.0000      -0.493175       -13.4200
  50   2.0000      -0.484394       -13.1810
  51   2.0000      -0.478571       -13.0226
  52   2.0000      -0.471676       -12.8350
  53   2.0000      -0.466277       -12.6880
  54   2.0000      -0.458995       -12.4899
  55   2.0000      -0.446578       -12.1520
  56   2.0000      -0.439199       -11.9512
  57   2.0000      -0.432411       -11.7665
  58   2.0000      -0.429366       -11.6836
  59   2.0000      -0.427173       -11.6240
  60   2.0000      -0.423307       -11.5188
  61   2.0000      -0.414595       -11.2817
  62   2.0000      -0.405817       -11.0429
  63   2.0000      -0.350120        -9.5273
  64   2.0000      -0.338329        -9.2064
  65   2.0000      -0.326498        -8.8845
  66   2.0000      -0.292587        -7.9617
  67   0.0000       0.020916         0.5692
  68   0.0000       0.073666         2.0046
  69   0.0000       0.100833         2.7438
  70   0.0000       0.120612         3.2820
  71   0.0000       0.129716         3.5297

MULLIKEN ATOMIC CHARGES
-----------------------
   0 S :    0.089931
   1 C :   -0.116828
   2 C :   -0.050714
   3 C :    0.031856
   4 C :   -0.090470
   5 H :   -0.026470
   6 C :    0.022768
   7 H :    0.038585
   8 H :    0.029191
   9 C :   -0.063067
  10 H :    0.036763
  11 H :    0.026507
  12 C :   -0.046532
  13 H :    0.004804
  14 H :    0.042149
  15 H :    0.032557
  16 S :    0.104145
  17 C :   -0.111627
  18 C :   -0.056454
  19 C :   -0.004499
  20 C :   -0.158984
  21 H :    0.029965
  22 C :    0.049474
  23 H :    0.035961
  24 H :    0.034418
  25 C :   -0.046657
  26 H :    0.022388
  27 H :    0.009380
  28 C :   -0.097111
  29 H :    0.045070
  30 H :    0.043354
  31 H :    0.039290
  32 H :    0.023976
  33 H :    0.076882
Sum of atomic charges:    0.0000000

LOEWDIN ATOMIC CHARGES
----------------------
   0 S :    0.388319
   1 C :   -0.169395
   2 C :   -0.066776
   3 C :   -0.059994
   4 C :   -0.183497
   5 H :    0.013192
   6 C :   -0.035987
   7 H :    0.038545
   8 H :    0.032177
   9 C :   -0.041386
  10 H :    0.025055
  11 H :    0.025761
  12 C :   -0.066984
  13 H :    0.020197
  14 H :    0.025222
  15 H :    0.025970
  16 S :    0.379538
  17 C :   -0.178403
  18 C :   -0.068702
  19 C :   -0.058941
  20 C :   -0.172092
  21 H :    0.033703
  22 C :   -0.033897
  23 H :    0.031342
  24 H :    0.033131
  25 C :   -0.035183
  26 H :    0.019352
  27 H :    0.015781
  28 C :   -0.076442
  29 H :    0.030052
  30 H :    0.028673
  31 H :    0.026803
  32 H :    0.015625
  33 H :    0.039240

  Mayer bond orders larger than 0.100000
B(  0-S ,  1-C ) :   1.1123 B(  0-S ,  4-C ) :   1.1328 B(  1-C ,  2-C ) :   1.6111
B(  1-C , 32-H ) :   0.9823 B(  2-C ,  3-C ) :   1.2296 B(  2-C ,  6-C ) :   1.0398
B(  3-C ,  4-C ) :   1.5493 B(  3-C ,  5-H ) :   1.0081 B(  4-C , 20-C ) :   1.0590
B(  6-C ,  7-H ) :   0.9452 B(  6-C ,  8-H ) :   0.9355 B(  6-C ,  9-C ) :   1.0759
B(  9-C , 10-H ) :   0.9599 B(  9-C , 11-H ) :   0.9577 B(  9-C , 12-C ) :   1.0644
B( 12-C , 13-H ) :   0.9728 B( 12-C , 14-H ) :   0.9725 B( 12-C , 15-H ) :   0.9765
B( 16-S , 17-C ) :   1.1423 B( 16-S , 20-C ) :   1.1331 B( 17-C , 18-C ) :   1.6077
B( 17-C , 20-C ) :   0.1092 B( 17-C , 33-H ) :   0.9602 B( 18-C , 19-C ) :   1.2468
B( 18-C , 21-H ) :   0.9801 B( 19-C , 20-C ) :   1.6019 B( 19-C , 22-C ) :   1.0119
B( 22-C , 23-H ) :   0.9480 B( 22-C , 24-H ) :   0.9247 B( 22-C , 25-C ) :   1.0837
B( 25-C , 26-H ) :   0.9550 B( 25-C , 27-H ) :   0.9502 B( 25-C , 28-C ) :   1.0661
B( 28-C , 29-H ) :   0.9768 B( 28-C , 30-H ) :   0.9765 B( 28-C , 31-H ) :   0.9761

Dispersion correction           -0.014725295
FINAL SINGLE POINT ENERGY     -1339.871850729991

DIPOLE MOMENT
-------------
                                X             Y             Z
Electronic contribution:     -9.49996      -2.65522      -1.00756
Nuclear contribution   :      9.71046       2.76873       0.90762
                        -----------------------------------------
Total Dipole Moment    :      0.21051       0.11350      -0.09994
                        -----------------------------------------
Magnitude (a.u.)       :      0.25920
Magnitude (Debye)      :      0.65884

Rotational constants in cm-1:     0.024508     0.007784     0.006649
Rotational constants in MHz :   734.719781   233.365705   199.340291

                             ****ORCA TERMINATED NORMALLY****
TOTAL RUN TIME: 0 days 0 hours 0 minutes 34 seconds 983 msec
