                         Program Version 4.2.1 -  RELEASE  -
|  1> ! wB97X-D3 SP def2-SVP
|  2> %pal
|  3> nprocs 16
|  4> end
|  5>
|  6> * xyz 0 1
|  7> S 	 -43.9082 	 55.2717 	 102.292
|  8> C 	 -44.0226 	 54.0467 	 103.507
|  9> C 	 -45.2183 	 53.3588 	 103.424
| 10> C 	 -45.9276 	 53.8104 	 102.291
| 11> C 	 -45.3665 	 54.8089 	 101.532
| 12> H 	 -46.8927 	 53.4181 	 101.907
| 13> C 	 -45.6717 	 52.2165 	 104.34
| 14> H 	 -46.6026 	 52.5944 	 104.77
| 15> H 	 -45.2101 	 52.1802 	 105.293
| 16> C 	 -46.0224 	 50.9154 	 103.698
| 17> H 	 -46.1401 	 50.1335 	 104.478
| 18> H 	 -47.02 	 51.0992 	 103.302
| 19> C 	 -45.0442 	 50.3935 	 102.612
| 20> H 	 -44.066 	 50.2873 	 103.093
| 21> H 	 -45.3484 	 49.4305 	 102.257
| 22> H 	 -45.1092 	 51.1022 	 101.768
| 23> S 	 -44.2388 	 55.3831 	 99.0839
| 24> C 	 -45.1686 	 55.7083 	 97.6841
| 25> C 	 -46.5022 	 55.8516 	 98.0977
| 26> C 	 -46.8357 	 55.5571 	 99.4736
| 27> C 	 -45.6863 	 55.2159 	 100.176
| 28> H 	 -47.2362 	 56.2192 	 97.4527
| 29> C 	 -48.1594 	 55.5739 	 100.163
| 30> H 	 -48.0706 	 54.9135 	 101.041
| 31> H 	 -48.9175 	 55.1744 	 99.5434
| 32> C 	 -48.5309 	 57.0478 	 100.58
| 33> H 	 -48.3309 	 57.6777 	 99.6902
| 34> H 	 -47.8752 	 57.4806 	 101.362
| 35> C 	 -50.0259 	 57.0573 	 101.014
| 36> H 	 -50.3395 	 58.0487 	 101.291
| 37> H 	 -50.2233 	 56.2699 	 101.83
| 38> H 	 -50.6802 	 56.6803 	 100.201
| 39> H 	 -43.2433 	 53.8583 	 104.258
| 40> H 	 -44.6884 	 55.942 	 96.7726
| 41> *
| 42>
| 43>                          ****END OF INPUT****

CARTESIAN COORDINATES (ANGSTROEM)
---------------------------------
  S    -43.908200   55.271700  102.292000
  C    -44.022600   54.046700  103.507000
  C    -45.218300   53.358800  103.424000
  C    -45.927600   53.810400  102.291000
  C    -45.366500   54.808900  101.532000
  H    -46.892700   53.418100  101.907000
  C    -45.671700   52.216500  104.340000
  H    -46.602600   52.594400  104.770000
  H    -45.210100   52.180200  105.293000
  C    -46.022400   50.915400  103.698000
  H    -46.140100   50.133500  104.478000
  H    -47.020000   51.099200  103.302000
  C    -45.044200   50.393500  102.612000
  H    -44.066000   50.287300  103.093000
  H    -45.348400   49.430500  102.257000
  H    -45.109200   51.102200  101.768000
  S    -44.238800   55.383100   99.083900
  C    -45.168600   55.708300   97.684100
  C    -46.502200   55.851600   98.097700
  C    -46.835700   55.557100   99.473600
  C    -45.686300   55.215900  100.176000
  H    -47.236200   56.219200   97.452700
  C    -48.159400   55.573900  100.163000
  H    -48.070600   54.913500  101.041000
  H    -48.917500   55.174400   99.543400
  C    -48.530900   57.047800  100.580000
  H    -48.330900   57.677700   99.690200
  H    -47.875200   57.480600  101.362000
  C    -50.025900   57.057300  101.014000
  H    -50.339500   58.048700  101.291000
  H    -50.223300   56.269900  101.830000
  H    -50.680200   56.680300  100.201000
  H    -43.243300   53.858300  104.258000
  H    -44.688400   55.942000   96.772600

 Total Charge           Charge          ....    0
 Multiplicity           Mult            ....    1
 Number of Electrons    NEL             ....  134
 Basis Dimension        Dim             ....  322

ORBITAL ENERGIES
----------------

  NO   OCC          E(Eh)            E(eV)
   0   2.0000     -88.964117     -2420.8367
   1   2.0000     -88.959580     -2420.7132
   2   2.0000     -10.331234      -281.1272
   3   2.0000     -10.325506      -280.9713
   4   2.0000     -10.318321      -280.7758
   5   2.0000     -10.313972      -280.6575
   6   2.0000     -10.305862      -280.4368
   7   2.0000     -10.303505      -280.3726
   8   2.0000     -10.295286      -280.1490
   9   2.0000     -10.294893      -280.1383
  10   2.0000     -10.293599      -280.1031
  11   2.0000     -10.293539      -280.1014
  12   2.0000     -10.287884      -279.9475
  13   2.0000     -10.287061      -279.9252
  14   2.0000     -10.286110      -279.8993
  15   2.0000     -10.274619      -279.5866
  16   2.0000      -8.080056      -219.8695
  17   2.0000      -8.074317      -219.7133
  18   2.0000      -6.038467      -164.3151
  19   2.0000      -6.034236      -164.1999
  20   2.0000      -6.032842      -164.1620
  21   2.0000      -6.030995      -164.1117
  22   2.0000      -6.028715      -164.0497
  23   2.0000      -6.025137      -163.9523
  24   2.0000      -1.012822       -27.5603
  25   2.0000      -0.984814       -26.7982
  26   2.0000      -0.916250       -24.9324
  27   2.0000      -0.909423       -24.7467
  28   2.0000      -0.870069       -23.6758
  29   2.0000      -0.850206       -23.1353
  30   2.0000      -0.840115       -22.8607
  31   2.0000      -0.811591       -22.0845
  32   2.0000      -0.788030       -21.4434
  33   2.0000      -0.774995       -21.0887
  34   2.0000      -0.706186       -19.2163
  35   2.0000      -0.700626       -19.0650
  36   2.0000      -0.692958       -18.8563
  37   2.0000      -0.664481       -18.0814
  38   2.0000      -0.643607       -17.5134
  39   2.0000      -0.623320       -16.9614
  40   2.0000      -0.601349       -16.3635
  41   2.0000      -0.567884       -15.4529
  42   2.0000      -0.559316       -15.2198
  43   2.0000      -0.552777       -15.0418
  44   2.0000      -0.543880       -14.7997
  45   2.0000      -0.530780       -14.4432
  46   2.0000      -0.521455       -14.1895
  47   2.0000      -0.509754       -13.8711
  48   2.0000      -0.503859       -13.7107
  49   2.0000      -0.501889       -13.6571
  50   2.0000      -0.489532       -13.3208
  51   2.0000      -0.476172       -12.9573
  52   2.0000      -0.472368       -12.8538
  53   2.0000      -0.467732       -12.7276
  54   2.0000      -0.457409       -12.4467
  55   2.0000      -0.452801       -12.3213
  56   2.0000      -0.444294       -12.0898
  57   2.0000      -0.437895       -11.9157
  58   2.0000      -0.435680       -11.8555
  59   2.0000      -0.420689       -11.4475
  60   2.0000      -0.418862       -11.3978
  61   2.0000      -0.410304       -11.1649
  62   2.0000      -0.403897       -10.9906
  63   2.0000      -0.353569        -9.6211
  64   2.0000      -0.331020        -9.0075
  65   2.0000      -0.325919        -8.8687
  66   2.0000      -0.287337        -7.8188
  67   0.0000       0.026050         0.7089
  68   0.0000       0.072190         1.9644
  69   0.0000       0.115934         3.1547
  70   0.0000       0.122335         3.3289
  71   0.0000       0.138390         3.7658

MULLIKEN ATOMIC CHARGES
-----------------------
   0 S :    0.112695
   1 C :   -0.145369
   2 C :   -0.072807
   3 C :   -0.004477
   4 C :   -0.144296
   5 H :    0.021147
   6 C :    0.107002
   7 H :    0.019815
   8 H :   -0.000472
   9 C :   -0.099894
  10 H :    0.030795
  11 H :    0.024561
  12 C :   -0.021304
  13 H :    0.035684
  14 H :    0.026022
  15 H :    0.048850
  16 S :    0.080481
  17 C :   -0.067684
  18 C :   -0.017894
  19 C :   -0.043269
  20 C :   -0.160416
  21 H :   -0.008038
  22 C :    0.089477
  23 H :    0.018615
  24 H :    0.014850
  25 C :   -0.093109
  26 H :    0.033990
  27 H :    0.046394
  28 C :   -0.051567
  29 H :    0.040279
  30 H :    0.038175
  31 H :    0.030024
  32 H :    0.055794
  33 H :    0.055947
Sum of atomic charges:    0.0000000

LOEWDIN ATOMIC CHARGES
----------------------
   0 S :    0.431256
   1 C :   -0.201314
   2 C :   -0.063251
   3 C :   -0.072933
   4 C :   -0.215014
   5 H :    0.029468
   6 C :   -0.041141
   7 H :    0.040701
   8 H :    0.024979
   9 C :   -0.045732
  10 H :    0.028626
  11 H :    0.020870
  12 C :   -0.060151
  13 H :    0.028383
  14 H :    0.021212
  15 H :    0.031805
  16 S :    0.389123
  17 C :   -0.186992
  18 C :   -0.068795
  19 C :   -0.054945
  20 C :   -0.170796
  21 H :    0.016013
  22 C :   -0.025903
  23 H :    0.032537
  24 H :    0.024539
  25 C :   -0.036133
  26 H :    0.025772
  27 H :    0.030822
  28 C :   -0.072744
  29 H :    0.021939
  30 H :    0.034020
  31 H :    0.025574
  32 H :    0.032896
  33 H :    0.025309

  Mayer bond orders larger than 0.100000
B(  0-S ,  1-C ) :   1.1587 B(  0-S ,  4-C ) :   1.1576 B(  1-C ,  2-C ) :   1.5778
B(  1-C , 32-H ) :   0.9673 B(  2-C ,  3-C ) :   1.2688 B(  2-C ,  6-C ) :   1.0137
B(  3-C ,  4-C ) :   1.5596 B(  3-C ,  5-H ) :   0.9752 B(  4-C , 20-C ) :   1.0507
B(  6-C ,  7-H ) :   0.9304 B(  6-C ,  8-H ) :   0.9360 B(  6-C ,  9-C ) :   1.0673
B(  9-C , 10-H ) :   0.9525 B(  9-C , 11-H ) :   0.9550 B(  9-C , 12-C ) :   1.0870
B( 12-C , 13-H ) :   0.9765 B( 12-C , 14-H ) :   0.9743 B( 12-C , 15-H ) :   0.9681
B( 16-S , 17-C ) :   1.1675 B( 16-S , 20-C ) :   1.1344 B( 17-C , 18-C ) :   1.5571
B( 17-C , 20-C ) :   0.1044 B( 17-C , 33-H ) :   0.9804 B( 18-C , 19-C ) :   1.2483
B( 18-C , 21-H ) :   0.9968 B( 19-C , 20-C ) :   1.5797 B( 19-C , 22-C ) :   1.0541
B( 22-C , 23-H ) :   0.9253 B( 22-C , 24-H ) :   0.9329 B( 22-C , 25-C ) :   1.0476
B( 25-C , 26-H ) :   0.9612 B( 25-C , 27-H ) :   0.9566 B( 25-C , 28-C ) :   1.0715
B( 28-C , 29-H ) :   0.9749 B( 28-C , 30-H ) :   0.9722 B( 28-C , 31-H ) :   0.9752

Dispersion correction           -0.014255731
FINAL SINGLE POINT ENERGY     -1339.872366179144

DIPOLE MOMENT
-------------
                                X             Y             Z
Electronic contribution:     20.14545       9.64049      -8.21236
Nuclear contribution   :    -20.69998      -9.84263       8.37073
                        -----------------------------------------
Total Dipole Moment    :     -0.55453      -0.20214       0.15838
                        -----------------------------------------
Magnitude (a.u.)       :      0.61110
Magnitude (Debye)      :      1.55330

Rotational constants in cm-1:     0.017363     0.008924     0.007369
Rotational constants in MHz :   520.516617   267.546428   220.920243

                             ****ORCA TERMINATED NORMALLY****
TOTAL RUN TIME: 0 days 0 hours 0 minutes 30 seconds 332 msec
