                         Program Version 4.2.1 -  RELEASE  -
|  1> ! wB97X-D3 SP def2-SVP
|  2> %pal
|  3> nprocs 16
|  4> end
|  5>
|  6> * xyz 0 1
|  7> S 	 47.3322 	 9.35493 	 81.6309
|  8> C 	 45.947 	 9.71331 	 82.6974
|  9> C 	 45.3242 	 10.8816 	 82.362
| 10> C 	 45.8507 	 11.437 	 81.1389
| 11> C 	 46.9603 	 10.8196 	 80.6773
| 12> H 	 45.413 	 12.1967 	 80.5688
| 13> C 	 44.0854 	 11.4809 	 82.9812
| 14> H 	 44.1061 	 12.5672 	 82.8145
| 15> H 	 44.1423 	 11.267 	 84.0403
| 16> C 	 42.7683 	 10.7198 	 82.7103
| 17> H 	 42.6486 	 10.8252 	 81.6528
| 18> H 	 42.8334 	 9.61297 	 83.0662
| 19> C 	 41.4966 	 11.3116 	 83.3277
| 20> H 	 40.6373 	 10.989 	 82.7779
| 21> H 	 41.5055 	 11.2848 	 84.3387
| 22> H 	 41.4685 	 12.3873 	 83.1811
| 23> S 	 48.0046 	 9.92705 	 78.2928
| 24> C 	 48.7952 	 11.0886 	 77.226
| 25> C 	 48.7807 	 12.3307 	 77.7779
| 26> C 	 48.3343 	 12.3854 	 79.1376
| 27> C 	 47.6581 	 11.1763 	 79.4906
| 28> H 	 48.9859 	 13.1735 	 77.1488
| 29> C 	 48.4679 	 13.6002 	 80.0671
| 30> H 	 49.4555 	 13.539 	 80.4847
| 31> H 	 47.802 	 13.4932 	 80.9549
| 32> C 	 48.4143 	 14.9788 	 79.3798
| 33> H 	 47.5587 	 15.0514 	 78.7096
| 34> H 	 49.1968 	 14.8758 	 78.7172
| 35> C 	 48.4626 	 16.1786 	 80.273
| 36> H 	 47.7154 	 16.2998 	 81.0431
| 37> H 	 48.4894 	 17.1 	 79.675
| 38> H 	 49.4624 	 16.0795 	 80.714
| 39> H 	 45.6698 	 9.11881 	 83.5204
| 40> H 	 49.0071 	 10.8139 	 76.2196
| 41> *
| 42>
| 43>                          ****END OF INPUT****

CARTESIAN COORDINATES (ANGSTROEM)
---------------------------------
  S     47.332200    9.354930   81.630900
  C     45.947000    9.713310   82.697400
  C     45.324200   10.881600   82.362000
  C     45.850700   11.437000   81.138900
  C     46.960300   10.819600   80.677300
  H     45.413000   12.196700   80.568800
  C     44.085400   11.480900   82.981200
  H     44.106100   12.567200   82.814500
  H     44.142300   11.267000   84.040300
  C     42.768300   10.719800   82.710300
  H     42.648600   10.825200   81.652800
  H     42.833400    9.612970   83.066200
  C     41.496600   11.311600   83.327700
  H     40.637300   10.989000   82.777900
  H     41.505500   11.284800   84.338700
  H     41.468500   12.387300   83.181100
  S     48.004600    9.927050   78.292800
  C     48.795200   11.088600   77.226000
  C     48.780700   12.330700   77.777900
  C     48.334300   12.385400   79.137600
  C     47.658100   11.176300   79.490600
  H     48.985900   13.173500   77.148800
  C     48.467900   13.600200   80.067100
  H     49.455500   13.539000   80.484700
  H     47.802000   13.493200   80.954900
  C     48.414300   14.978800   79.379800
  H     47.558700   15.051400   78.709600
  H     49.196800   14.875800   78.717200
  C     48.462600   16.178600   80.273000
  H     47.715400   16.299800   81.043100
  H     48.489400   17.100000   79.675000
  H     49.462400   16.079500   80.714000
  H     45.669800    9.118810   83.520400
  H     49.007100   10.813900   76.219600

 Total Charge           Charge          ....    0
 Multiplicity           Mult            ....    1
 Number of Electrons    NEL             ....  134
 Basis Dimension        Dim             ....  322

ORBITAL ENERGIES
----------------

  NO   OCC          E(Eh)            E(eV)
   0   2.0000     -88.964128     -2420.8370
   1   2.0000     -88.961890     -2420.7761
   2   2.0000     -10.327057      -281.0135
   3   2.0000     -10.323957      -280.9292
   4   2.0000     -10.315714      -280.7048
   5   2.0000     -10.312049      -280.6051
   6   2.0000     -10.311170      -280.5812
   7   2.0000     -10.299226      -280.2562
   8   2.0000     -10.293846      -280.1098
   9   2.0000     -10.292651      -280.0773
  10   2.0000     -10.292203      -280.0651
  11   2.0000     -10.291869      -280.0560
  12   2.0000     -10.286287      -279.9041
  13   2.0000     -10.279603      -279.7222
  14   2.0000     -10.279207      -279.7115
  15   2.0000     -10.268908      -279.4312
  16   2.0000      -8.077917      -219.8113
  17   2.0000      -8.076510      -219.7730
  18   2.0000      -6.036583      -164.2638
  19   2.0000      -6.034986      -164.2203
  20   2.0000      -6.032729      -164.1589
  21   2.0000      -6.031029      -164.1126
  22   2.0000      -6.028398      -164.0410
  23   2.0000      -6.027306      -164.0113
  24   2.0000      -1.003222       -27.2991
  25   2.0000      -0.979597       -26.6562
  26   2.0000      -0.913419       -24.8554
  27   2.0000      -0.911887       -24.8137
  28   2.0000      -0.874442       -23.7948
  29   2.0000      -0.852741       -23.2043
  30   2.0000      -0.846285       -23.0286
  31   2.0000      -0.818970       -22.2853
  32   2.0000      -0.785390       -21.3715
  33   2.0000      -0.773001       -21.0344
  34   2.0000      -0.709644       -19.3104
  35   2.0000      -0.705144       -19.1879
  36   2.0000      -0.699488       -19.0340
  37   2.0000      -0.653568       -17.7845
  38   2.0000      -0.643590       -17.5130
  39   2.0000      -0.622043       -16.9267
  40   2.0000      -0.600494       -16.3403
  41   2.0000      -0.572252       -15.5718
  42   2.0000      -0.570671       -15.5288
  43   2.0000      -0.561972       -15.2920
  44   2.0000      -0.531921       -14.4743
  45   2.0000      -0.529997       -14.4219
  46   2.0000      -0.520782       -14.1712
  47   2.0000      -0.514672       -14.0049
  48   2.0000      -0.506291       -13.7769
  49   2.0000      -0.501662       -13.6509
  50   2.0000      -0.493066       -13.4170
  51   2.0000      -0.487050       -13.2533
  52   2.0000      -0.475678       -12.9439
  53   2.0000      -0.467139       -12.7115
  54   2.0000      -0.458758       -12.4834
  55   2.0000      -0.456919       -12.4334
  56   2.0000      -0.442690       -12.0462
  57   2.0000      -0.429258       -11.6807
  58   2.0000      -0.428426       -11.6581
  59   2.0000      -0.426539       -11.6067
  60   2.0000      -0.421301       -11.4642
  61   2.0000      -0.412743       -11.2313
  62   2.0000      -0.409267       -11.1367
  63   2.0000      -0.346073        -9.4171
  64   2.0000      -0.328372        -8.9354
  65   2.0000      -0.327193        -8.9034
  66   2.0000      -0.290526        -7.9056
  67   0.0000       0.027511         0.7486
  68   0.0000       0.068243         1.8570
  69   0.0000       0.106169         2.8890
  70   0.0000       0.119565         3.2535
  71   0.0000       0.131339         3.5739

MULLIKEN ATOMIC CHARGES
-----------------------
   0 S :    0.099410
   1 C :   -0.114023
   2 C :   -0.061865
   3 C :    0.032957
   4 C :   -0.137333
   5 H :   -0.002704
   6 C :    0.063472
   7 H :    0.034783
   8 H :    0.013498
   9 C :   -0.108601
  10 H :    0.021607
  11 H :    0.050614
  12 C :    0.023690
  13 H :    0.037891
  14 H :    0.006917
  15 H :    0.002633
  16 S :    0.090217
  17 C :   -0.081159
  18 C :   -0.039985
  19 C :   -0.038957
  20 C :   -0.166974
  21 H :    0.026130
  22 C :    0.082227
  23 H :    0.027919
  24 H :    0.029871
  25 C :   -0.090554
  26 H :    0.019308
  27 H :    0.013440
  28 C :   -0.013874
  29 H :    0.040367
  30 H :    0.034127
  31 H :    0.022679
  32 H :    0.028713
  33 H :    0.053557
Sum of atomic charges:   -0.0000000

LOEWDIN ATOMIC CHARGES
----------------------
   0 S :    0.368119
   1 C :   -0.172440
   2 C :   -0.059684
   3 C :   -0.051419
   4 C :   -0.181961
   5 H :    0.024546
   6 C :   -0.039391
   7 H :    0.033071
   8 H :    0.029845
   9 C :   -0.038255
  10 H :    0.017578
  11 H :    0.036544
  12 C :   -0.058763
  13 H :    0.031044
  14 H :    0.009631
  15 H :    0.025980
  16 S :    0.388744
  17 C :   -0.170689
  18 C :   -0.075131
  19 C :   -0.043606
  20 C :   -0.195079
  21 H :    0.030908
  22 C :   -0.029752
  23 H :    0.032621
  24 H :    0.030923
  25 C :   -0.043076
  26 H :    0.018732
  27 H :    0.013868
  28 C :   -0.060836
  29 H :    0.025632
  30 H :    0.031227
  31 H :    0.028912
  32 H :    0.018380
  33 H :    0.023775

  Mayer bond orders larger than 0.100000
B(  0-S ,  1-C ) :   1.1151 B(  0-S ,  4-C ) :   1.1120 B(  1-C ,  2-C ) :   1.6473
B(  1-C , 32-H ) :   0.9729 B(  2-C ,  3-C ) :   1.1917 B(  2-C ,  6-C ) :   1.0399
B(  3-C ,  4-C ) :   1.6190 B(  3-C ,  5-H ) :   1.0020 B(  4-C , 20-C ) :   1.0763
B(  6-C ,  7-H ) :   0.9421 B(  6-C ,  8-H ) :   0.9304 B(  6-C ,  9-C ) :   1.0542
B(  9-C , 10-H ) :   0.9591 B(  9-C , 11-H ) :   0.9550 B(  9-C , 12-C ) :   1.0861
B( 12-C , 13-H ) :   0.9724 B( 12-C , 14-H ) :   0.9731 B( 12-C , 15-H ) :   0.9646
B( 16-S , 17-C ) :   1.1482 B( 16-S , 20-C ) :   1.1377 B( 17-C , 18-C ) :   1.6221
B( 17-C , 20-C ) :   0.1022 B( 17-C , 33-H ) :   0.9685 B( 18-C , 19-C ) :   1.2238
B( 18-C , 21-H ) :   0.9857 B( 19-C , 20-C ) :   1.5724 B( 19-C , 22-C ) :   1.0425
B( 22-C , 23-H ) :   0.9229 B( 22-C , 24-H ) :   0.9375 B( 22-C , 25-C ) :   1.0461
B( 25-C , 26-H ) :   0.9626 B( 25-C , 27-H ) :   0.9467 B( 25-C , 28-C ) :   1.0891
B( 28-C , 29-H ) :   0.9767 B( 28-C , 30-H ) :   0.9703 B( 28-C , 31-H ) :   0.9707

Dispersion correction           -0.013359657
FINAL SINGLE POINT ENERGY     -1339.855653285738

DIPOLE MOMENT
-------------
                                X             Y             Z
Electronic contribution:     14.51405     -22.29478      -9.73801
Nuclear contribution   :    -14.87118      22.99298       9.78715
                        -----------------------------------------
Total Dipole Moment    :     -0.35713       0.69819       0.04914
                        -----------------------------------------
Magnitude (a.u.)       :      0.78577
Magnitude (Debye)      :      1.99726

Rotational constants in cm-1:     0.017056     0.007927     0.006167
Rotational constants in MHz :   511.327561   237.638247   184.881679

                             ****ORCA TERMINATED NORMALLY****
TOTAL RUN TIME: 0 days 0 hours 0 minutes 28 seconds 785 msec
