                         Program Version 4.2.1 -  RELEASE  -
|  1> ! wB97X-D3 SP def2-SVP
|  2> %pal
|  3> nprocs 16
|  4> end
|  5>
|  6> * xyz 0 1
|  7> S 	 38.2273 	 8.93535 	 90.2997
|  8> C 	 39.2828 	 9.98261 	 89.2936
|  9> C 	 38.8322 	 10.0145 	 87.9842
| 10> C 	 37.6318 	 9.32135 	 87.7766
| 11> C 	 37.1059 	 8.80713 	 88.9017
| 12> H 	 37.1279 	 9.12765 	 86.8518
| 13> C 	 39.646 	 10.3542 	 86.7629
| 14> H 	 39.8508 	 9.4615 	 86.1804
| 15> H 	 40.5898 	 10.5753 	 87.1537
| 16> C 	 39.1754 	 11.5793 	 85.8447
| 17> H 	 39.0625 	 12.419 	 86.4896
| 18> H 	 39.9449 	 11.7948 	 85.1614
| 19> C 	 37.9131 	 11.2945 	 85.0475
| 20> H 	 37.0718 	 11.2283 	 85.6884
| 21> H 	 37.7519 	 12.0608 	 84.2519
| 22> H 	 37.8673 	 10.3423 	 84.5575
| 23> S 	 35.8377 	 6.71061 	 90.0669
| 24> C 	 34.2037 	 6.29116 	 89.6039
| 25> C 	 33.5868 	 7.30745 	 88.9035
| 26> C 	 34.5983 	 8.27178 	 88.5163
| 27> C 	 35.8452 	 8.07931 	 89.0715
| 28> H 	 32.55 	 7.17119 	 88.4571
| 29> C 	 34.2263 	 9.46086 	 87.6686
| 30> H 	 34.9049 	 10.2543 	 87.9585
| 31> H 	 33.1924 	 9.75037 	 87.9376
| 32> C 	 34.2897 	 9.24236 	 86.1497
| 33> H 	 34.6836 	 8.30197 	 85.8204
| 34> H 	 34.8798 	 10.0891 	 85.6933
| 35> C 	 32.9608 	 9.33756 	 85.4544
| 36> H 	 33.2163 	 9.34703 	 84.3497
| 37> H 	 32.4982 	 10.2589 	 85.8157
| 38> H 	 32.2866 	 8.48689 	 85.7107
| 39> H 	 40.2568 	 10.3296 	 89.6448
| 40> H 	 33.6416 	 5.40573 	 89.9547
| 41> *
| 42>
| 43>                          ****END OF INPUT****

CARTESIAN COORDINATES (ANGSTROEM)
---------------------------------
  S     38.227300    8.935350   90.299700
  C     39.282800    9.982610   89.293600
  C     38.832200   10.014500   87.984200
  C     37.631800    9.321350   87.776600
  C     37.105900    8.807130   88.901700
  H     37.127900    9.127650   86.851800
  C     39.646000   10.354200   86.762900
  H     39.850800    9.461500   86.180400
  H     40.589800   10.575300   87.153700
  C     39.175400   11.579300   85.844700
  H     39.062500   12.419000   86.489600
  H     39.944900   11.794800   85.161400
  C     37.913100   11.294500   85.047500
  H     37.071800   11.228300   85.688400
  H     37.751900   12.060800   84.251900
  H     37.867300   10.342300   84.557500
  S     35.837700    6.710610   90.066900
  C     34.203700    6.291160   89.603900
  C     33.586800    7.307450   88.903500
  C     34.598300    8.271780   88.516300
  C     35.845200    8.079310   89.071500
  H     32.550000    7.171190   88.457100
  C     34.226300    9.460860   87.668600
  H     34.904900   10.254300   87.958500
  H     33.192400    9.750370   87.937600
  C     34.289700    9.242360   86.149700
  H     34.683600    8.301970   85.820400
  H     34.879800   10.089100   85.693300
  C     32.960800    9.337560   85.454400
  H     33.216300    9.347030   84.349700
  H     32.498200   10.258900   85.815700
  H     32.286600    8.486890   85.710700
  H     40.256800   10.329600   89.644800
  H     33.641600    5.405730   89.954700

 Total Charge           Charge          ....    0
 Multiplicity           Mult            ....    1
 Number of Electrons    NEL             ....  134
 Basis Dimension        Dim             ....  322

ORBITAL ENERGIES
----------------

  NO   OCC          E(Eh)            E(eV)
   0   2.0000     -88.966244     -2420.8946
   1   2.0000     -88.964862     -2420.8570
   2   2.0000     -10.331028      -281.1216
   3   2.0000     -10.321031      -280.8495
   4   2.0000     -10.320921      -280.8465
   5   2.0000     -10.320720      -280.8411
   6   2.0000     -10.301770      -280.3254
   7   2.0000     -10.301495      -280.3179
   8   2.0000     -10.299798      -280.2717
   9   2.0000     -10.288037      -279.9517
  10   2.0000     -10.287326      -279.9324
  11   2.0000     -10.286282      -279.9040
  12   2.0000     -10.285130      -279.8726
  13   2.0000     -10.284144      -279.8458
  14   2.0000     -10.283160      -279.8190
  15   2.0000     -10.275219      -279.6029
  16   2.0000      -8.080905      -219.8926
  17   2.0000      -8.079857      -219.8641
  18   2.0000      -6.039376      -164.3398
  19   2.0000      -6.038512      -164.3163
  20   2.0000      -6.035210      -164.2264
  21   2.0000      -6.034766      -164.2143
  22   2.0000      -6.031644      -164.1294
  23   2.0000      -6.030292      -164.0926
  24   2.0000      -1.012415       -27.5492
  25   2.0000      -0.986133       -26.8340
  26   2.0000      -0.913440       -24.8560
  27   2.0000      -0.907279       -24.6883
  28   2.0000      -0.871416       -23.7124
  29   2.0000      -0.855920       -23.2908
  30   2.0000      -0.846798       -23.0426
  31   2.0000      -0.823015       -22.3954
  32   2.0000      -0.782187       -21.2844
  33   2.0000      -0.767543       -20.8859
  34   2.0000      -0.710215       -19.3259
  35   2.0000      -0.701875       -19.0990
  36   2.0000      -0.686673       -18.6853
  37   2.0000      -0.664306       -18.0767
  38   2.0000      -0.642993       -17.4967
  39   2.0000      -0.622491       -16.9388
  40   2.0000      -0.597491       -16.2586
  41   2.0000      -0.571628       -15.5548
  42   2.0000      -0.557364       -15.1666
  43   2.0000      -0.543315       -14.7844
  44   2.0000      -0.541301       -14.7295
  45   2.0000      -0.536950       -14.6111
  46   2.0000      -0.518912       -14.1203
  47   2.0000      -0.515388       -14.0244
  48   2.0000      -0.508518       -13.8375
  49   2.0000      -0.498880       -13.5752
  50   2.0000      -0.491416       -13.3721
  51   2.0000      -0.487721       -13.2716
  52   2.0000      -0.469534       -12.7767
  53   2.0000      -0.468031       -12.7358
  54   2.0000      -0.459599       -12.5063
  55   2.0000      -0.447712       -12.1829
  56   2.0000      -0.440264       -11.9802
  57   2.0000      -0.438746       -11.9389
  58   2.0000      -0.433122       -11.7858
  59   2.0000      -0.425056       -11.5664
  60   2.0000      -0.421152       -11.4601
  61   2.0000      -0.416975       -11.3465
  62   2.0000      -0.409947       -11.1552
  63   2.0000      -0.356474        -9.7001
  64   2.0000      -0.335319        -9.1245
  65   2.0000      -0.326695        -8.8898
  66   2.0000      -0.289418        -7.8755
  67   0.0000       0.027107         0.7376
  68   0.0000       0.066846         1.8190
  69   0.0000       0.097914         2.6644
  70   0.0000       0.117503         3.1974
  71   0.0000       0.129951         3.5362

MULLIKEN ATOMIC CHARGES
-----------------------
   0 S :    0.082932
   1 C :   -0.124488
   2 C :   -0.055692
   3 C :    0.005060
   4 C :   -0.108043
   5 H :    0.000629
   6 C :    0.052687
   7 H :    0.038402
   8 H :   -0.011779
   9 C :   -0.020490
  10 H :    0.025336
  11 H :    0.021099
  12 C :   -0.054230
  13 H :    0.023275
  14 H :    0.040670
  15 H :    0.019562
  16 S :    0.103865
  17 C :   -0.106425
  18 C :   -0.041425
  19 C :   -0.096912
  20 C :   -0.111330
  21 H :    0.054044
  22 C :    0.059097
  23 H :    0.034541
  24 H :    0.025591
  25 C :   -0.091826
  26 H :    0.035179
  27 H :    0.037559
  28 C :   -0.074709
  29 H :    0.048364
  30 H :    0.030976
  31 H :    0.037045
  32 H :    0.054332
  33 H :    0.067104
Sum of atomic charges:    0.0000000

LOEWDIN ATOMIC CHARGES
----------------------
   0 S :    0.356654
   1 C :   -0.179588
   2 C :   -0.063182
   3 C :   -0.064489
   4 C :   -0.159077
   5 H :    0.033397
   6 C :   -0.024929
   7 H :    0.034258
   8 H :    0.019030
   9 C :   -0.023966
  10 H :    0.023488
  11 H :    0.018706
  12 C :   -0.068910
  13 H :    0.015673
  14 H :    0.032814
  15 H :    0.020665
  16 S :    0.424679
  17 C :   -0.185127
  18 C :   -0.082228
  19 C :   -0.058123
  20 C :   -0.221849
  21 H :    0.047366
  22 C :   -0.034614
  23 H :    0.032008
  24 H :    0.032569
  25 C :   -0.052180
  26 H :    0.019872
  27 H :    0.030110
  28 C :   -0.067210
  29 H :    0.035454
  30 H :    0.020712
  31 H :    0.023161
  32 H :    0.029349
  33 H :    0.035507

  Mayer bond orders larger than 0.100000
B(  0-S ,  1-C ) :   1.1161 B(  0-S ,  4-C ) :   1.1214 B(  1-C ,  2-C ) :   1.6331
B(  1-C , 32-H ) :   0.9652 B(  2-C ,  3-C ) :   1.2002 B(  2-C ,  6-C ) :   1.0213
B(  3-C ,  4-C ) :   1.6160 B(  3-C ,  5-H ) :   1.0008 B(  4-C , 20-C ) :   1.0280
B(  6-C ,  7-H ) :   0.9483 B(  6-C ,  8-H ) :   0.9311 B(  6-C ,  9-C ) :   1.0674
B(  9-C , 10-H ) :   0.9543 B(  9-C , 11-H ) :   0.9574 B(  9-C , 12-C ) :   1.0873
B( 12-C , 13-H ) :   0.9682 B( 12-C , 14-H ) :   0.9700 B( 12-C , 15-H ) :   0.9719
B( 16-S , 17-C ) :   1.1676 B( 16-S , 20-C ) :   1.1309 B( 17-C , 18-C ) :   1.6153
B( 17-C , 33-H ) :   0.9619 B( 18-C , 19-C ) :   1.2376 B( 18-C , 21-H ) :   0.9747
B( 19-C , 20-C ) :   1.6068 B( 19-C , 22-C ) :   1.0563 B( 22-C , 23-H ) :   0.9352
B( 22-C , 24-H ) :   0.9440 B( 22-C , 25-C ) :   1.0333 B( 25-C , 26-H ) :   0.9604
B( 25-C , 27-H ) :   0.9531 B( 25-C , 28-C ) :   1.0831 B( 28-C , 29-H ) :   0.9729
B( 28-C , 30-H ) :   0.9758 B( 28-C , 31-H ) :   0.9744

Dispersion correction           -0.015280119
FINAL SINGLE POINT ENERGY     -1339.868032654783

DIPOLE MOMENT
-------------
                                X             Y             Z
Electronic contribution:      5.76088     -14.86907      27.72014
Nuclear contribution   :     -5.84598      14.97917     -28.39403
                        -----------------------------------------
Total Dipole Moment    :     -0.08510       0.11010      -0.67388
                        -----------------------------------------
Magnitude (a.u.)       :      0.68810
Magnitude (Debye)      :      1.74901

Rotational constants in cm-1:     0.016495     0.011046     0.006937
Rotational constants in MHz :   494.518683   331.144465   207.974103

                             ****ORCA TERMINATED NORMALLY****
TOTAL RUN TIME: 0 days 0 hours 0 minutes 32 seconds 82 msec
