                         Program Version 4.2.1 -  RELEASE  -
|  1> ! wB97X-D3 SP def2-SVP
|  2> %pal
|  3> nprocs 16
|  4> end
|  5>
|  6> * xyz 0 1
|  7> S 	 -18.4287 	 31.9087 	 33.5691
|  8> C 	 -16.9282 	 32.6841 	 32.907
|  9> C 	 -17.1969 	 34.0332 	 32.7456
| 10> C 	 -18.5253 	 34.4223 	 32.9064
| 11> C 	 -19.4124 	 33.3836 	 33.3074
| 12> H 	 -18.8986 	 35.4318 	 32.7477
| 13> C 	 -16.2703 	 35.1501 	 32.3057
| 14> H 	 -15.3646 	 35.2496 	 32.8957
| 15> H 	 -16.8604 	 36.0983 	 32.4793
| 16> C 	 -15.9366 	 35.0883 	 30.8253
| 17> H 	 -15.3062 	 34.2199 	 30.6153
| 18> H 	 -16.8236 	 34.8515 	 30.2772
| 19> C 	 -15.1598 	 36.3591 	 30.3213
| 20> H 	 -15.4906 	 37.2399 	 30.9163
| 21> H 	 -14.109 	 36.1613 	 30.4038
| 22> H 	 -15.2917 	 36.5072 	 29.2356
| 23> S 	 -21.6337 	 34.3899 	 34.5601
| 24> C 	 -23.1544 	 33.5481 	 34.3089
| 25> C 	 -23.0316 	 32.47 	 33.4706
| 26> C 	 -21.7154 	 32.3845 	 32.9457
| 27> C 	 -20.8274 	 33.3102 	 33.4366
| 28> H 	 -23.7875 	 31.7377 	 33.3851
| 29> C 	 -21.3094 	 31.3659 	 31.9452
| 30> H 	 -20.9352 	 30.5169 	 32.4912
| 31> H 	 -20.4119 	 31.8623 	 31.4771
| 32> C 	 -22.2326 	 31.0109 	 30.7791
| 33> H 	 -23.0465 	 30.4268 	 31.1838
| 34> H 	 -21.5962 	 30.2841 	 30.2768
| 35> C 	 -22.6845 	 32.2136 	 30.0126
| 36> H 	 -23.1918 	 32.8375 	 30.7179
| 37> H 	 -23.3499 	 32.1816 	 29.093
| 38> H 	 -21.8357 	 32.8258 	 29.5412
| 39> H 	 -16.027 	 32.1622 	 32.791
| 40> H 	 -24.0343 	 33.8287 	 34.7498
| 41> *
| 42>
| 43>                          ****END OF INPUT****

CARTESIAN COORDINATES (ANGSTROEM)
---------------------------------
  S    -18.428700   31.908700   33.569100
  C    -16.928200   32.684100   32.907000
  C    -17.196900   34.033200   32.745600
  C    -18.525300   34.422300   32.906400
  C    -19.412400   33.383600   33.307400
  H    -18.898600   35.431800   32.747700
  C    -16.270300   35.150100   32.305700
  H    -15.364600   35.249600   32.895700
  H    -16.860400   36.098300   32.479300
  C    -15.936600   35.088300   30.825300
  H    -15.306200   34.219900   30.615300
  H    -16.823600   34.851500   30.277200
  C    -15.159800   36.359100   30.321300
  H    -15.490600   37.239900   30.916300
  H    -14.109000   36.161300   30.403800
  H    -15.291700   36.507200   29.235600
  S    -21.633700   34.389900   34.560100
  C    -23.154400   33.548100   34.308900
  C    -23.031600   32.470000   33.470600
  C    -21.715400   32.384500   32.945700
  C    -20.827400   33.310200   33.436600
  H    -23.787500   31.737700   33.385100
  C    -21.309400   31.365900   31.945200
  H    -20.935200   30.516900   32.491200
  H    -20.411900   31.862300   31.477100
  C    -22.232600   31.010900   30.779100
  H    -23.046500   30.426800   31.183800
  H    -21.596200   30.284100   30.276800
  C    -22.684500   32.213600   30.012600
  H    -23.191800   32.837500   30.717900
  H    -23.349900   32.181600   29.093000
  H    -21.835700   32.825800   29.541200
  H    -16.027000   32.162200   32.791000
  H    -24.034300   33.828700   34.749800

 Total Charge           Charge          ....    0
 Multiplicity           Mult            ....    1
 Number of Electrons    NEL             ....  134
 Basis Dimension        Dim             ....  322

ORBITAL ENERGIES
----------------

  NO   OCC          E(Eh)            E(eV)
   0   2.0000     -88.965435     -2420.8725
   1   2.0000     -88.964777     -2420.8547
   2   2.0000     -10.334859      -281.2258
   3   2.0000     -10.320196      -280.8268
   4   2.0000     -10.319271      -280.8016
   5   2.0000     -10.314206      -280.6638
   6   2.0000     -10.300559      -280.2925
   7   2.0000     -10.297000      -280.1956
   8   2.0000     -10.296425      -280.1800
   9   2.0000     -10.292554      -280.0746
  10   2.0000     -10.290629      -280.0223
  11   2.0000     -10.284296      -279.8499
  12   2.0000     -10.283181      -279.8196
  13   2.0000     -10.282292      -279.7954
  14   2.0000     -10.282176      -279.7922
  15   2.0000     -10.280913      -279.7579
  16   2.0000      -8.079564      -219.8561
  17   2.0000      -8.078247      -219.8203
  18   2.0000      -6.038023      -164.3029
  19   2.0000      -6.036841      -164.2708
  20   2.0000      -6.034101      -164.1962
  21   2.0000      -6.032939      -164.1646
  22   2.0000      -6.030343      -164.0940
  23   2.0000      -6.029103      -164.0602
  24   2.0000      -1.006674       -27.3930
  25   2.0000      -0.980221       -26.6732
  26   2.0000      -0.914076       -24.8733
  27   2.0000      -0.910217       -24.7683
  28   2.0000      -0.872606       -23.7448
  29   2.0000      -0.850133       -23.1333
  30   2.0000      -0.842416       -22.9233
  31   2.0000      -0.813269       -22.1302
  32   2.0000      -0.780138       -21.2286
  33   2.0000      -0.771214       -20.9858
  34   2.0000      -0.714191       -19.4341
  35   2.0000      -0.701779       -19.0964
  36   2.0000      -0.701018       -19.0757
  37   2.0000      -0.665820       -18.1179
  38   2.0000      -0.642572       -17.4853
  39   2.0000      -0.619035       -16.8448
  40   2.0000      -0.597235       -16.2516
  41   2.0000      -0.569917       -15.5082
  42   2.0000      -0.560185       -15.2434
  43   2.0000      -0.558985       -15.2108
  44   2.0000      -0.543357       -14.7855
  45   2.0000      -0.524259       -14.2658
  46   2.0000      -0.517696       -14.0872
  47   2.0000      -0.515550       -14.0288
  48   2.0000      -0.505441       -13.7537
  49   2.0000      -0.501917       -13.6579
  50   2.0000      -0.487537       -13.2666
  51   2.0000      -0.481787       -13.1101
  52   2.0000      -0.470352       -12.7989
  53   2.0000      -0.461225       -12.5506
  54   2.0000      -0.455653       -12.3989
  55   2.0000      -0.448687       -12.2094
  56   2.0000      -0.443164       -12.0591
  57   2.0000      -0.439743       -11.9660
  58   2.0000      -0.434737       -11.8298
  59   2.0000      -0.420844       -11.4518
  60   2.0000      -0.413052       -11.2397
  61   2.0000      -0.408364       -11.1122
  62   2.0000      -0.406220       -11.0538
  63   2.0000      -0.342433        -9.3181
  64   2.0000      -0.332873        -9.0579
  65   2.0000      -0.327399        -8.9090
  66   2.0000      -0.292393        -7.9564
  67   0.0000       0.019003         0.5171
  68   0.0000       0.067702         1.8423
  69   0.0000       0.103538         2.8174
  70   0.0000       0.120401         3.2763
  71   0.0000       0.124551         3.3892

MULLIKEN ATOMIC CHARGES
-----------------------
   0 S :    0.090777
   1 C :   -0.125592
   2 C :   -0.046561
   3 C :    0.030731
   4 C :   -0.184561
   5 H :    0.017438
   6 C :    0.041068
   7 H :    0.032228
   8 H :    0.023950
   9 C :   -0.070564
  10 H :    0.020262
  11 H :    0.021383
  12 C :   -0.048365
  13 H :    0.041444
  14 H :    0.032598
  15 H :    0.038205
  16 S :    0.107336
  17 C :   -0.050786
  18 C :   -0.016235
  19 C :   -0.069689
  20 C :   -0.129816
  21 H :    0.010444
  22 C :    0.016299
  23 H :    0.041265
  24 H :    0.040096
  25 C :   -0.003815
  26 H :    0.019925
  27 H :    0.028801
  28 C :   -0.077829
  29 H :    0.033895
  30 H :    0.042575
  31 H :    0.035544
  32 H :    0.035623
  33 H :    0.021928
Sum of atomic charges:    0.0000000

LOEWDIN ATOMIC CHARGES
----------------------
   0 S :    0.380606
   1 C :   -0.168459
   2 C :   -0.064794
   3 C :   -0.062402
   4 C :   -0.176118
   5 H :    0.032820
   6 C :   -0.030670
   7 H :    0.027607
   8 H :    0.032288
   9 C :   -0.041544
  10 H :    0.021858
  11 H :    0.019116
  12 C :   -0.067047
  13 H :    0.028554
  14 H :    0.023834
  15 H :    0.030576
  16 S :    0.402763
  17 C :   -0.154360
  18 C :   -0.066627
  19 C :   -0.055018
  20 C :   -0.213916
  21 H :    0.028266
  22 C :   -0.042689
  23 H :    0.029605
  24 H :    0.036059
  25 C :   -0.041205
  26 H :    0.019770
  27 H :    0.029272
  28 C :   -0.079139
  29 H :    0.023971
  30 H :    0.033253
  31 H :    0.035112
  32 H :    0.018948
  33 H :    0.009710

  Mayer bond orders larger than 0.100000
B(  0-S ,  1-C ) :   1.1337 B(  0-S ,  4-C ) :   1.1532 B(  1-C ,  2-C ) :   1.5634
B(  1-C ,  4-C ) :   0.1172 B(  1-C , 32-H ) :   0.9884 B(  2-C ,  3-C ) :   1.2763
B(  2-C ,  6-C ) :   1.0179 B(  3-C ,  4-C ) :   1.5304 B(  3-C ,  5-H ) :   0.9894
B(  4-C , 20-C ) :   1.0589 B(  6-C ,  7-H ) :   0.9392 B(  6-C ,  8-H ) :   0.9432
B(  6-C ,  9-C ) :   1.0669 B(  9-C , 10-H ) :   0.9566 B(  9-C , 11-H ) :   0.9579
B(  9-C , 12-C ) :   1.0645 B( 12-C , 13-H ) :   0.9785 B( 12-C , 14-H ) :   0.9776
B( 12-C , 15-H ) :   0.9762 B( 16-S , 17-C ) :   1.1673 B( 16-S , 20-C ) :   1.1187
B( 17-C , 18-C ) :   1.5952 B( 17-C , 33-H ) :   0.9761 B( 18-C , 19-C ) :   1.2330
B( 18-C , 21-H ) :   0.9995 B( 19-C , 20-C ) :   1.5949 B( 19-C , 22-C ) :   1.0345
B( 22-C , 23-H ) :   0.9236 B( 22-C , 24-H ) :   0.9326 B( 22-C , 25-C ) :   1.0745
B( 25-C , 26-H ) :   0.9475 B( 25-C , 27-H ) :   0.9529 B( 25-C , 28-C ) :   1.0657
B( 28-C , 29-H ) :   0.9700 B( 28-C , 30-H ) :   0.9753 B( 28-C , 31-H ) :   0.9720

Dispersion correction           -0.014347430
FINAL SINGLE POINT ENERGY     -1339.865923053516

DIPOLE MOMENT
-------------
                                X             Y             Z
Electronic contribution:     -7.42013      -4.06174      21.39113
Nuclear contribution   :      7.47580       4.04247     -21.75348
                        -----------------------------------------
Total Dipole Moment    :      0.05566      -0.01927      -0.36236
                        -----------------------------------------
Magnitude (a.u.)       :      0.36711
Magnitude (Debye)      :      0.93313

Rotational constants in cm-1:     0.020673     0.007508     0.006927
Rotational constants in MHz :   619.746993   225.071162   207.654195

                             ****ORCA TERMINATED NORMALLY****
TOTAL RUN TIME: 0 days 0 hours 0 minutes 34 seconds 202 msec
