                         Program Version 4.2.1 -  RELEASE  -
|  1> ! wB97X-D3 SP def2-SVP
|  2> %pal
|  3> nprocs 16
|  4> end
|  5>
|  6> * xyz 0 1
|  7> S 	 9.99658 	 22.3702 	 52.7368
|  8> C 	 11.139 	 22.6723 	 54.0108
|  9> C 	 11.4239 	 24.0132 	 54.0391
| 10> C 	 10.9243 	 24.7953 	 52.9658
| 11> C 	 10.1838 	 24.0249 	 52.1094
| 12> H 	 11.1811 	 25.8115 	 52.6015
| 13> C 	 12.1852 	 24.7282 	 55.1291
| 14> H 	 11.6583 	 24.4442 	 56.0653
| 15> H 	 12.005 	 25.7941 	 54.9997
| 16> C 	 13.7289 	 24.3893 	 55.2859
| 17> H 	 13.9681 	 23.29 	 55.2067
| 18> H 	 14.1958 	 24.848 	 54.3628
| 19> C 	 14.4114 	 25.0093 	 56.5356
| 20> H 	 15.4727 	 25.0246 	 56.4652
| 21> H 	 14.1751 	 26.1037 	 56.5113
| 22> H 	 14.1603 	 24.4899 	 57.5053
| 23> S 	 10.1762 	 23.2475 	 49.5252
| 24> C 	 9.24475 	 24.1745 	 48.3525
| 25> C 	 8.72601 	 25.2945 	 48.9724
| 26> C 	 8.94214 	 25.4305 	 50.3602
| 27> C 	 9.71785 	 24.3919 	 50.806
| 28> H 	 8.15131 	 25.9391 	 48.2719
| 29> C 	 8.31408 	 26.4967 	 51.268
| 30> H 	 8.01159 	 27.2569 	 50.5096
| 31> H 	 9.0746 	 26.9442 	 51.9119
| 32> C 	 7.17535 	 26.261 	 52.2046
| 33> H 	 6.74171 	 27.21 	 52.6032
| 34> H 	 7.58325 	 25.7726 	 52.9921
| 35> C 	 6.03069 	 25.4226 	 51.6351
| 36> H 	 5.24482 	 25.4719 	 52.3176
| 37> H 	 6.44501 	 24.3954 	 51.5321
| 38> H 	 5.71788 	 25.9003 	 50.7815
| 39> H 	 11.3608 	 22.0092 	 54.791
| 40> H 	 9.12534 	 24.0104 	 47.2532
| 41> *
| 42>
| 43>                          ****END OF INPUT****

CARTESIAN COORDINATES (ANGSTROEM)
---------------------------------
  S      9.996580   22.370200   52.736800
  C     11.139000   22.672300   54.010800
  C     11.423900   24.013200   54.039100
  C     10.924300   24.795300   52.965800
  C     10.183800   24.024900   52.109400
  H     11.181100   25.811500   52.601500
  C     12.185200   24.728200   55.129100
  H     11.658300   24.444200   56.065300
  H     12.005000   25.794100   54.999700
  C     13.728900   24.389300   55.285900
  H     13.968100   23.290000   55.206700
  H     14.195800   24.848000   54.362800
  C     14.411400   25.009300   56.535600
  H     15.472700   25.024600   56.465200
  H     14.175100   26.103700   56.511300
  H     14.160300   24.489900   57.505300
  S     10.176200   23.247500   49.525200
  C      9.244750   24.174500   48.352500
  C      8.726010   25.294500   48.972400
  C      8.942140   25.430500   50.360200
  C      9.717850   24.391900   50.806000
  H      8.151310   25.939100   48.271900
  C      8.314080   26.496700   51.268000
  H      8.011590   27.256900   50.509600
  H      9.074600   26.944200   51.911900
  C      7.175350   26.261000   52.204600
  H      6.741710   27.210000   52.603200
  H      7.583250   25.772600   52.992100
  C      6.030690   25.422600   51.635100
  H      5.244820   25.471900   52.317600
  H      6.445010   24.395400   51.532100
  H      5.717880   25.900300   50.781500
  H     11.360800   22.009200   54.791000
  H      9.125340   24.010400   47.253200

 Total Charge           Charge          ....    0
 Multiplicity           Mult            ....    1
 Number of Electrons    NEL             ....  134
 Basis Dimension        Dim             ....  322

ORBITAL ENERGIES
----------------

  NO   OCC          E(Eh)            E(eV)
   0   2.0000     -88.965935     -2420.8862
   1   2.0000     -88.965774     -2420.8818
   2   2.0000     -10.327547      -281.0268
   3   2.0000     -10.324729      -280.9502
   4   2.0000     -10.320066      -280.8233
   5   2.0000     -10.309408      -280.5332
   6   2.0000     -10.305527      -280.4276
   7   2.0000     -10.299686      -280.2687
   8   2.0000     -10.299496      -280.2635
   9   2.0000     -10.295448      -280.1534
  10   2.0000     -10.294888      -280.1381
  11   2.0000     -10.294074      -280.1160
  12   2.0000     -10.292132      -280.0631
  13   2.0000     -10.285299      -279.8772
  14   2.0000     -10.272726      -279.5351
  15   2.0000     -10.261124      -279.2194
  16   2.0000      -8.080472      -219.8808
  17   2.0000      -8.079925      -219.8659
  18   2.0000      -6.038997      -164.3295
  19   2.0000      -6.038520      -164.3165
  20   2.0000      -6.035009      -164.2209
  21   2.0000      -6.034434      -164.2053
  22   2.0000      -6.031201      -164.1173
  23   2.0000      -6.030671      -164.1029
  24   2.0000      -1.010189       -27.4886
  25   2.0000      -0.985523       -26.8174
  26   2.0000      -0.913854       -24.8672
  27   2.0000      -0.901824       -24.5399
  28   2.0000      -0.871670       -23.7194
  29   2.0000      -0.854077       -23.2406
  30   2.0000      -0.847124       -23.0514
  31   2.0000      -0.815230       -22.1835
  32   2.0000      -0.787158       -21.4196
  33   2.0000      -0.769986       -20.9524
  34   2.0000      -0.713482       -19.4148
  35   2.0000      -0.698509       -19.0074
  36   2.0000      -0.689255       -18.7556
  37   2.0000      -0.660546       -17.9744
  38   2.0000      -0.644194       -17.5294
  39   2.0000      -0.612088       -16.6558
  40   2.0000      -0.585122       -15.9220
  41   2.0000      -0.566820       -15.4239
  42   2.0000      -0.562892       -15.3171
  43   2.0000      -0.554240       -15.0816
  44   2.0000      -0.547978       -14.9112
  45   2.0000      -0.522721       -14.2240
  46   2.0000      -0.519997       -14.1498
  47   2.0000      -0.510972       -13.9043
  48   2.0000      -0.503957       -13.7134
  49   2.0000      -0.500368       -13.6157
  50   2.0000      -0.489366       -13.3163
  51   2.0000      -0.481333       -13.0977
  52   2.0000      -0.478077       -13.0091
  53   2.0000      -0.469419       -12.7735
  54   2.0000      -0.456680       -12.4269
  55   2.0000      -0.444281       -12.0895
  56   2.0000      -0.439717       -11.9653
  57   2.0000      -0.433523       -11.7968
  58   2.0000      -0.427908       -11.6440
  59   2.0000      -0.421424       -11.4675
  60   2.0000      -0.418003       -11.3744
  61   2.0000      -0.417367       -11.3571
  62   2.0000      -0.408162       -11.1067
  63   2.0000      -0.352049        -9.5797
  64   2.0000      -0.335914        -9.1407
  65   2.0000      -0.325796        -8.8654
  66   2.0000      -0.291750        -7.9389
  67   0.0000       0.024477         0.6661
  68   0.0000       0.068340         1.8596
  69   0.0000       0.107859         2.9350
  70   0.0000       0.115396         3.1401
  71   0.0000       0.136863         3.7242

MULLIKEN ATOMIC CHARGES
-----------------------
   0 S :    0.109041
   1 C :   -0.091291
   2 C :   -0.087971
   3 C :    0.018449
   4 C :   -0.162918
   5 H :    0.039304
   6 C :    0.054870
   7 H :    0.032917
   8 H :    0.020982
   9 C :   -0.105495
  10 H :    0.041945
  11 H :    0.034405
  12 C :   -0.054379
  13 H :    0.028439
  14 H :    0.032582
  15 H :    0.049268
  16 S :    0.111643
  17 C :   -0.109751
  18 C :   -0.072282
  19 C :   -0.003290
  20 C :   -0.185423
  21 H :    0.025093
  22 C :    0.068964
  23 H :    0.018591
  24 H :    0.022797
  25 C :   -0.049389
  26 H :    0.027342
  27 H :    0.003116
  28 C :    0.008667
  29 H :    0.013612
  30 H :    0.051804
  31 H :    0.005466
  32 H :    0.031285
  33 H :    0.071606
Sum of atomic charges:    0.0000000

LOEWDIN ATOMIC CHARGES
----------------------
   0 S :    0.396822
   1 C :   -0.193429
   2 C :   -0.063761
   3 C :   -0.069709
   4 C :   -0.183300
   5 H :    0.043270
   6 C :   -0.036410
   7 H :    0.032626
   8 H :    0.027681
   9 C :   -0.047577
  10 H :    0.026982
  11 H :    0.029421
  12 C :   -0.075067
  13 H :    0.021756
  14 H :    0.031138
  15 H :    0.031860
  16 S :    0.394796
  17 C :   -0.195067
  18 C :   -0.078349
  19 C :   -0.061811
  20 C :   -0.185168
  21 H :    0.035479
  22 C :   -0.032068
  23 H :    0.031910
  24 H :    0.032578
  25 C :   -0.034268
  26 H :    0.030556
  27 H :    0.008065
  28 C :   -0.048784
  29 H :    0.017756
  30 H :    0.036765
  31 H :    0.011504
  32 H :    0.020601
  33 H :    0.043203

  Mayer bond orders larger than 0.100000
B(  0-S ,  1-C ) :   1.1194 B(  0-S ,  4-C ) :   1.1500 B(  1-C ,  2-C ) :   1.6189
B(  1-C , 32-H ) :   0.9772 B(  2-C ,  3-C ) :   1.2300 B(  2-C ,  6-C ) :   1.0179
B(  3-C ,  4-C ) :   1.5883 B(  3-C ,  5-H ) :   0.9805 B(  4-C , 20-C ) :   1.0597
B(  6-C ,  7-H ) :   0.9403 B(  6-C ,  8-H ) :   0.9460 B(  6-C ,  9-C ) :   1.0445
B(  9-C , 10-H ) :   0.9621 B(  9-C , 11-H ) :   0.9555 B(  9-C , 12-C ) :   1.0775
B( 12-C , 13-H ) :   0.9746 B( 12-C , 14-H ) :   0.9726 B( 12-C , 15-H ) :   0.9754
B( 16-S , 17-C ) :   1.1333 B( 16-S , 20-C ) :   1.1448 B( 17-C , 18-C ) :   1.6409
B( 17-C , 20-C ) :   0.1008 B( 17-C , 33-H ) :   0.9597 B( 18-C , 19-C ) :   1.2276
B( 18-C , 21-H ) :   0.9785 B( 19-C , 20-C ) :   1.5839 B( 19-C , 22-C ) :   1.0304
B( 22-C , 23-H ) :   0.9278 B( 22-C , 24-H ) :   0.9311 B( 22-C , 25-C ) :   1.0850
B( 25-C , 26-H ) :   0.9487 B( 25-C , 27-H ) :   0.9490 B( 25-C , 28-C ) :   1.0897
B( 28-C , 29-H ) :   0.9714 B( 28-C , 30-H ) :   0.9701 B( 28-C , 31-H ) :   0.9781

Dispersion correction           -0.014467452
FINAL SINGLE POINT ENERGY     -1339.862616760262

DIPOLE MOMENT
-------------
                                X             Y             Z
Electronic contribution:     -1.58183     -15.48827     -16.95933
Nuclear contribution   :      1.60849      16.01134      17.21678
                        -----------------------------------------
Total Dipole Moment    :      0.02666       0.52308       0.25745
                        -----------------------------------------
Magnitude (a.u.)       :      0.58361
Magnitude (Debye)      :      1.48341

Rotational constants in cm-1:     0.021731     0.007564     0.006740
Rotational constants in MHz :   651.482731   226.758665   202.049960

                             ****ORCA TERMINATED NORMALLY****
TOTAL RUN TIME: 0 days 0 hours 0 minutes 35 seconds 270 msec
