                         Program Version 4.2.1 -  RELEASE  -
|  1> ! wB97X-D3 SP def2-SVP
|  2> %pal
|  3> nprocs 16
|  4> end
|  5>
|  6> * xyz 0 1
|  7> S 	 -21.3587 	 35.6348 	 39.3219
|  8> C 	 -20.0288 	 34.6286 	 39.3876
|  9> C 	 -20.3543 	 33.3695 	 39.8938
| 10> C 	 -21.8152 	 33.2322 	 40.086
| 11> C 	 -22.4108 	 34.4938 	 40.0409
| 12> H 	 -22.3772 	 32.3955 	 40.2756
| 13> C 	 -19.4317 	 32.1657 	 40.0521
| 14> H 	 -19.0802 	 32.1668 	 41.0877
| 15> H 	 -18.4353 	 32.4072 	 39.6019
| 16> C 	 -19.9407 	 30.8322 	 39.5798
| 17> H 	 -20.6899 	 30.5475 	 40.2912
| 18> H 	 -20.3799 	 31.0553 	 38.5881
| 19> C 	 -18.8829 	 29.7458 	 39.2053
| 20> H 	 -18.1855 	 30.2013 	 38.5153
| 21> H 	 -18.2853 	 29.3474 	 40.0008
| 22> H 	 -19.3545 	 28.794 	 38.8455
| 23> S 	 -24.8351 	 35.4497 	 38.8858
| 24> C 	 -26.1911 	 35.5743 	 39.998
| 25> C 	 -25.8964 	 35.1768 	 41.2716
| 26> C 	 -24.5275 	 34.7928 	 41.4543
| 27> C 	 -23.8222 	 34.8978 	 40.2664
| 28> H 	 -26.6054 	 35.1727 	 42.0588
| 29> C 	 -23.9956 	 34.4113 	 42.8095
| 30> H 	 -24.3257 	 35.2924 	 43.5018
| 31> H 	 -22.8324 	 34.4501 	 42.8627
| 32> C 	 -24.4368 	 33.1038 	 43.3781
| 33> H 	 -24.2886 	 32.3688 	 42.6016
| 34> H 	 -25.48 	 33.1112 	 43.6561
| 35> C 	 -23.6777 	 32.6752 	 44.6903
| 36> H 	 -22.6481 	 32.4045 	 44.4276
| 37> H 	 -24.1554 	 31.8269 	 45.129
| 38> H 	 -23.6944 	 33.4528 	 45.4933
| 39> H 	 -18.9915 	 34.9379 	 39.0962
| 40> H 	 -27.0524 	 36.1372 	 39.7464
| 41> *
| 42>
| 43>                          ****END OF INPUT****

CARTESIAN COORDINATES (ANGSTROEM)
---------------------------------
  S    -21.358700   35.634800   39.321900
  C    -20.028800   34.628600   39.387600
  C    -20.354300   33.369500   39.893800
  C    -21.815200   33.232200   40.086000
  C    -22.410800   34.493800   40.040900
  H    -22.377200   32.395500   40.275600
  C    -19.431700   32.165700   40.052100
  H    -19.080200   32.166800   41.087700
  H    -18.435300   32.407200   39.601900
  C    -19.940700   30.832200   39.579800
  H    -20.689900   30.547500   40.291200
  H    -20.379900   31.055300   38.588100
  C    -18.882900   29.745800   39.205300
  H    -18.185500   30.201300   38.515300
  H    -18.285300   29.347400   40.000800
  H    -19.354500   28.794000   38.845500
  S    -24.835100   35.449700   38.885800
  C    -26.191100   35.574300   39.998000
  C    -25.896400   35.176800   41.271600
  C    -24.527500   34.792800   41.454300
  C    -23.822200   34.897800   40.266400
  H    -26.605400   35.172700   42.058800
  C    -23.995600   34.411300   42.809500
  H    -24.325700   35.292400   43.501800
  H    -22.832400   34.450100   42.862700
  C    -24.436800   33.103800   43.378100
  H    -24.288600   32.368800   42.601600
  H    -25.480000   33.111200   43.656100
  C    -23.677700   32.675200   44.690300
  H    -22.648100   32.404500   44.427600
  H    -24.155400   31.826900   45.129000
  H    -23.694400   33.452800   45.493300
  H    -18.991500   34.937900   39.096200
  H    -27.052400   36.137200   39.746400

 Total Charge           Charge          ....    0
 Multiplicity           Mult            ....    1
 Number of Electrons    NEL             ....  134
 Basis Dimension        Dim             ....  322

ORBITAL ENERGIES
----------------

  NO   OCC          E(Eh)            E(eV)
   0   2.0000     -88.965902     -2420.8853
   1   2.0000     -88.961940     -2420.7775
   2   2.0000     -10.328669      -281.0574
   3   2.0000     -10.325117      -280.9607
   4   2.0000     -10.314689      -280.6770
   5   2.0000     -10.312797      -280.6255
   6   2.0000     -10.306639      -280.4579
   7   2.0000     -10.302902      -280.3562
   8   2.0000     -10.301785      -280.3258
   9   2.0000     -10.294429      -280.1257
  10   2.0000     -10.291784      -280.0537
  11   2.0000     -10.291094      -280.0349
  12   2.0000     -10.289110      -279.9809
  13   2.0000     -10.285668      -279.8873
  14   2.0000     -10.283543      -279.8294
  15   2.0000     -10.282496      -279.8009
  16   2.0000      -8.079919      -219.8658
  17   2.0000      -8.079045      -219.8420
  18   2.0000      -6.038510      -164.3162
  19   2.0000      -6.037338      -164.2843
  20   2.0000      -6.034694      -164.2124
  21   2.0000      -6.033078      -164.1684
  22   2.0000      -6.030484      -164.0978
  23   2.0000      -6.030040      -164.0857
  24   2.0000      -1.008366       -27.4390
  25   2.0000      -0.984225       -26.7821
  26   2.0000      -0.911711       -24.8089
  27   2.0000      -0.908995       -24.7350
  28   2.0000      -0.866422       -23.5765
  29   2.0000      -0.850384       -23.1401
  30   2.0000      -0.845515       -23.0076
  31   2.0000      -0.813706       -22.1421
  32   2.0000      -0.782913       -21.3041
  33   2.0000      -0.771508       -20.9938
  34   2.0000      -0.710877       -19.3439
  35   2.0000      -0.696273       -18.9465
  36   2.0000      -0.686223       -18.6731
  37   2.0000      -0.659614       -17.9490
  38   2.0000      -0.647556       -17.6209
  39   2.0000      -0.617970       -16.8158
  40   2.0000      -0.598825       -16.2949
  41   2.0000      -0.572856       -15.5882
  42   2.0000      -0.568033       -15.4570
  43   2.0000      -0.559625       -15.2282
  44   2.0000      -0.520459       -14.1624
  45   2.0000      -0.519471       -14.1355
  46   2.0000      -0.517345       -14.0777
  47   2.0000      -0.514952       -14.0126
  48   2.0000      -0.504907       -13.7392
  49   2.0000      -0.499434       -13.5903
  50   2.0000      -0.490211       -13.3393
  51   2.0000      -0.473043       -12.8721
  52   2.0000      -0.468911       -12.7597
  53   2.0000      -0.462995       -12.5987
  54   2.0000      -0.461480       -12.5575
  55   2.0000      -0.456351       -12.4180
  56   2.0000      -0.450136       -12.2488
  57   2.0000      -0.437490       -11.9047
  58   2.0000      -0.427539       -11.6339
  59   2.0000      -0.424650       -11.5553
  60   2.0000      -0.421695       -11.4749
  61   2.0000      -0.413951       -11.2642
  62   2.0000      -0.413615       -11.2550
  63   2.0000      -0.338848        -9.2205
  64   2.0000      -0.331133        -9.0106
  65   2.0000      -0.322475        -8.7750
  66   2.0000      -0.299452        -8.1485
  67   0.0000       0.036538         0.9943
  68   0.0000       0.068879         1.8743
  69   0.0000       0.112333         3.0567
  70   0.0000       0.120955         3.2913
  71   0.0000       0.124105         3.3771

MULLIKEN ATOMIC CHARGES
-----------------------
   0 S :    0.125748
   1 C :   -0.122971
   2 C :   -0.116599
   3 C :    0.063823
   4 C :   -0.185542
   5 H :   -0.013719
   6 C :    0.065460
   7 H :    0.030911
   8 H :    0.000363
   9 C :   -0.087596
  10 H :    0.039256
  11 H :    0.043501
  12 C :   -0.041973
  13 H :    0.034939
  14 H :    0.020186
  15 H :    0.042603
  16 S :    0.103684
  17 C :   -0.077218
  18 C :   -0.006738
  19 C :   -0.000928
  20 C :   -0.163891
  21 H :    0.002670
  22 C :   -0.007895
  23 H :    0.042030
  24 H :    0.047815
  25 C :   -0.056006
  26 H :    0.026141
  27 H :    0.025177
  28 C :   -0.052765
  29 H :    0.037167
  30 H :    0.028726
  31 H :    0.036079
  32 H :    0.066108
  33 H :    0.051454
Sum of atomic charges:   -0.0000000

LOEWDIN ATOMIC CHARGES
----------------------
   0 S :    0.455975
   1 C :   -0.234365
   2 C :   -0.060809
   3 C :   -0.048631
   4 C :   -0.206648
   5 H :    0.015753
   6 C :   -0.045414
   7 H :    0.031837
   8 H :    0.027598
   9 C :   -0.043473
  10 H :    0.021466
  11 H :    0.034684
  12 C :   -0.065106
  13 H :    0.026312
  14 H :    0.018206
  15 H :    0.035452
  16 S :    0.375783
  17 C :   -0.171602
  18 C :   -0.060438
  19 C :   -0.055205
  20 C :   -0.190570
  21 H :    0.025106
  22 C :   -0.046646
  23 H :    0.040547
  24 H :    0.041270
  25 C :   -0.041123
  26 H :    0.022903
  27 H :    0.021014
  28 C :   -0.062494
  29 H :    0.025429
  30 H :    0.022092
  31 H :    0.029044
  32 H :    0.039382
  33 H :    0.022672

  Mayer bond orders larger than 0.100000
B(  0-S ,  1-C ) :   1.1651 B(  0-S ,  4-C ) :   1.1879 B(  1-C ,  2-C ) :   1.5984
B(  1-C , 32-H ) :   0.9612 B(  2-C ,  3-C ) :   1.2260 B(  2-C ,  6-C ) :   1.0277
B(  3-C ,  4-C ) :   1.5615 B(  3-C ,  5-H ) :   1.0093 B(  4-C , 20-C ) :   1.0042
B(  6-C ,  7-H ) :   0.9238 B(  6-C ,  8-H ) :   0.9385 B(  6-C ,  9-C ) :   1.0588
B(  9-C , 10-H ) :   0.9489 B(  9-C , 11-H ) :   0.9620 B(  9-C , 12-C ) :   1.0781
B( 12-C , 13-H ) :   0.9739 B( 12-C , 14-H ) :   0.9761 B( 12-C , 15-H ) :   0.9747
B( 16-S , 17-C ) :   1.1390 B( 16-S , 20-C ) :   1.1257 B( 17-C , 18-C ) :   1.6315
B( 17-C , 33-H ) :   0.9673 B( 18-C , 19-C ) :   1.2205 B( 18-C , 21-H ) :   0.9937
B( 19-C , 20-C ) :   1.6295 B( 19-C , 22-C ) :   1.0444 B( 22-C , 23-H ) :   0.9305
B( 22-C , 24-H ) :   0.9365 B( 22-C , 25-C ) :   1.0649 B( 25-C , 26-H ) :   0.9537
B( 25-C , 27-H ) :   0.9517 B( 25-C , 28-C ) :   1.0838 B( 28-C , 29-H ) :   0.9761
B( 28-C , 30-H ) :   0.9760 B( 28-C , 31-H ) :   0.9753

Dispersion correction           -0.013855787
FINAL SINGLE POINT ENERGY     -1339.872530431532

DIPOLE MOMENT
-------------
                                X             Y             Z
Electronic contribution:     -9.92923      23.29856     -16.12730
Nuclear contribution   :     10.02288     -23.73608      16.57486
                        -----------------------------------------
Total Dipole Moment    :      0.09365      -0.43752       0.44756
                        -----------------------------------------
Magnitude (a.u.)       :      0.63285
Magnitude (Debye)      :      1.60858

Rotational constants in cm-1:     0.016733     0.008611     0.006610
Rotational constants in MHz :   501.647559   258.142696   198.174361

                             ****ORCA TERMINATED NORMALLY****
TOTAL RUN TIME: 0 days 0 hours 0 minutes 32 seconds 255 msec
