                         Program Version 4.2.1 -  RELEASE  -
|  1> ! wB97X-D3 SP def2-SVP
|  2> %pal
|  3> nprocs 16
|  4> end
|  5>
|  6> * xyz 0 1
|  7> S 	 -62.0343 	 46.997 	 124.481
|  8> C 	 -62.3356 	 46.2797 	 122.89
|  9> C 	 -61.885 	 47.135 	 121.916
| 10> C 	 -61.573 	 48.4213 	 122.458
| 11> C 	 -61.3634 	 48.4505 	 123.812
| 12> H 	 -61.493 	 49.328 	 121.913
| 13> C 	 -62.0481 	 46.8707 	 120.399
| 14> H 	 -61.7733 	 47.7509 	 119.823
| 15> H 	 -63.1066 	 46.794 	 120.171
| 16> C 	 -61.3123 	 45.6464 	 119.741
| 17> H 	 -60.2602 	 45.7092 	 119.735
| 18> H 	 -61.5938 	 44.8077 	 120.363
| 19> C 	 -61.8161 	 45.3578 	 118.304
| 20> H 	 -61.8284 	 46.3106 	 117.728
| 21> H 	 -61.1204 	 44.6798 	 117.78
| 22> H 	 -62.8932 	 44.9442 	 118.255
| 23> S 	 -62.9045 	 50.0478 	 125.324
| 24> C 	 -62.3198 	 51.6433 	 125.678
| 25> C 	 -60.9822 	 51.8053 	 125.386
| 26> C 	 -60.3458 	 50.6083 	 124.869
| 27> C 	 -61.3423 	 49.6587 	 124.641
| 28> H 	 -60.4451 	 52.6873 	 125.549
| 29> C 	 -58.9051 	 50.5282 	 124.293
| 30> H 	 -58.5212 	 49.4599 	 124.312
| 31> H 	 -58.2605 	 51.0933 	 124.996
| 32> C 	 -58.7915 	 51.0014 	 122.815
| 33> H 	 -59.1495 	 52.0421 	 122.856
| 34> H 	 -59.5025 	 50.4931 	 122.136
| 35> C 	 -57.3797 	 51.0311 	 122.257
| 36> H 	 -57.1478 	 49.9984 	 122.166
| 37> H 	 -56.6597 	 51.5292 	 123.024
| 38> H 	 -57.294 	 51.6525 	 121.355
| 39> H 	 -62.8674 	 45.3326 	 122.727
| 40> H 	 -63.0485 	 52.4355 	 125.963
| 41> *
| 42>
| 43>                          ****END OF INPUT****

CARTESIAN COORDINATES (ANGSTROEM)
---------------------------------
  S    -62.034300   46.997000  124.481000
  C    -62.335600   46.279700  122.890000
  C    -61.885000   47.135000  121.916000
  C    -61.573000   48.421300  122.458000
  C    -61.363400   48.450500  123.812000
  H    -61.493000   49.328000  121.913000
  C    -62.048100   46.870700  120.399000
  H    -61.773300   47.750900  119.823000
  H    -63.106600   46.794000  120.171000
  C    -61.312300   45.646400  119.741000
  H    -60.260200   45.709200  119.735000
  H    -61.593800   44.807700  120.363000
  C    -61.816100   45.357800  118.304000
  H    -61.828400   46.310600  117.728000
  H    -61.120400   44.679800  117.780000
  H    -62.893200   44.944200  118.255000
  S    -62.904500   50.047800  125.324000
  C    -62.319800   51.643300  125.678000
  C    -60.982200   51.805300  125.386000
  C    -60.345800   50.608300  124.869000
  C    -61.342300   49.658700  124.641000
  H    -60.445100   52.687300  125.549000
  C    -58.905100   50.528200  124.293000
  H    -58.521200   49.459900  124.312000
  H    -58.260500   51.093300  124.996000
  C    -58.791500   51.001400  122.815000
  H    -59.149500   52.042100  122.856000
  H    -59.502500   50.493100  122.136000
  C    -57.379700   51.031100  122.257000
  H    -57.147800   49.998400  122.166000
  H    -56.659700   51.529200  123.024000
  H    -57.294000   51.652500  121.355000
  H    -62.867400   45.332600  122.727000
  H    -63.048500   52.435500  125.963000

 Total Charge           Charge          ....    0
 Multiplicity           Mult            ....    1
 Number of Electrons    NEL             ....  134
 Basis Dimension        Dim             ....  322

ORBITAL ENERGIES
----------------

  NO   OCC          E(Eh)            E(eV)
   0   2.0000     -88.963912     -2420.8311
   1   2.0000     -88.962016     -2420.7795
   2   2.0000     -10.324615      -280.9471
   3   2.0000     -10.323312      -280.9116
   4   2.0000     -10.318902      -280.7916
   5   2.0000     -10.317975      -280.7664
   6   2.0000     -10.307719      -280.4873
   7   2.0000     -10.304840      -280.4090
   8   2.0000     -10.303954      -280.3848
   9   2.0000     -10.295703      -280.1603
  10   2.0000     -10.293343      -280.0961
  11   2.0000     -10.292740      -280.0797
  12   2.0000     -10.291199      -280.0378
  13   2.0000     -10.288159      -279.9550
  14   2.0000     -10.287734      -279.9435
  15   2.0000     -10.283417      -279.8260
  16   2.0000      -8.079212      -219.8465
  17   2.0000      -8.076938      -219.7847
  18   2.0000      -6.037536      -164.2897
  19   2.0000      -6.035472      -164.2335
  20   2.0000      -6.033753      -164.1868
  21   2.0000      -6.031370      -164.1219
  22   2.0000      -6.029998      -164.0846
  23   2.0000      -6.027678      -164.0214
  24   2.0000      -1.009673       -27.4746
  25   2.0000      -0.983358       -26.7585
  26   2.0000      -0.905463       -24.6389
  27   2.0000      -0.904271       -24.6065
  28   2.0000      -0.868242       -23.6261
  29   2.0000      -0.851464       -23.1695
  30   2.0000      -0.843578       -22.9549
  31   2.0000      -0.811951       -22.0943
  32   2.0000      -0.779436       -21.2095
  33   2.0000      -0.768158       -20.9026
  34   2.0000      -0.703840       -19.1525
  35   2.0000      -0.696946       -18.9649
  36   2.0000      -0.686663       -18.6850
  37   2.0000      -0.663804       -18.0630
  38   2.0000      -0.646117       -17.5817
  39   2.0000      -0.614446       -16.7199
  40   2.0000      -0.596520       -16.2321
  41   2.0000      -0.568500       -15.4697
  42   2.0000      -0.565361       -15.3842
  43   2.0000      -0.556306       -15.1379
  44   2.0000      -0.526438       -14.3251
  45   2.0000      -0.519267       -14.1300
  46   2.0000      -0.516176       -14.0459
  47   2.0000      -0.514797       -14.0083
  48   2.0000      -0.502233       -13.6664
  49   2.0000      -0.499926       -13.6037
  50   2.0000      -0.491552       -13.3758
  51   2.0000      -0.473735       -12.8910
  52   2.0000      -0.469277       -12.7697
  53   2.0000      -0.466569       -12.6960
  54   2.0000      -0.453460       -12.3393
  55   2.0000      -0.452103       -12.3024
  56   2.0000      -0.442720       -12.0470
  57   2.0000      -0.439096       -11.9484
  58   2.0000      -0.432561       -11.7706
  59   2.0000      -0.427881       -11.6432
  60   2.0000      -0.420629       -11.4459
  61   2.0000      -0.415148       -11.2968
  62   2.0000      -0.410101       -11.1594
  63   2.0000      -0.341050        -9.2804
  64   2.0000      -0.328079        -8.9275
  65   2.0000      -0.325733        -8.8636
  66   2.0000      -0.299274        -8.1437
  67   0.0000       0.035030         0.9532
  68   0.0000       0.057875         1.5749
  69   0.0000       0.113370         3.0850
  70   0.0000       0.118428         3.2226
  71   0.0000       0.128968         3.5094

MULLIKEN ATOMIC CHARGES
-----------------------
   0 S :    0.081872
   1 C :   -0.138121
   2 C :   -0.047196
   3 C :    0.025657
   4 C :   -0.130952
   5 H :    0.020272
   6 C :    0.032548
   7 H :    0.012574
   8 H :    0.034053
   9 C :   -0.038769
  10 H :    0.029338
  11 H :    0.021806
  12 C :   -0.101564
  13 H :    0.033381
  14 H :    0.044441
  15 H :    0.049119
  16 S :    0.123036
  17 C :   -0.105033
  18 C :   -0.013620
  19 C :   -0.024719
  20 C :   -0.188886
  21 H :   -0.002186
  22 C :    0.034513
  23 H :    0.041773
  24 H :    0.030944
  25 C :   -0.087679
  26 H :    0.016634
  27 H :    0.029064
  28 C :   -0.040642
  29 H :    0.034105
  30 H :    0.035528
  31 H :    0.047185
  32 H :    0.066751
  33 H :    0.074772
Sum of atomic charges:   -0.0000000

LOEWDIN ATOMIC CHARGES
----------------------
   0 S :    0.396283
   1 C :   -0.183776
   2 C :   -0.067380
   3 C :   -0.049507
   4 C :   -0.209706
   5 H :    0.024904
   6 C :   -0.033254
   7 H :    0.024519
   8 H :    0.032219
   9 C :   -0.034135
  10 H :    0.019735
  11 H :    0.020907
  12 C :   -0.075463
  13 H :    0.025025
  14 H :    0.028934
  15 H :    0.034178
  16 S :    0.412344
  17 C :   -0.194823
  18 C :   -0.064043
  19 C :   -0.053047
  20 C :   -0.197054
  21 H :    0.020784
  22 C :   -0.032563
  23 H :    0.036767
  24 H :    0.031929
  25 C :   -0.048629
  26 H :    0.020208
  27 H :    0.024370
  28 C :   -0.066911
  29 H :    0.021438
  30 H :    0.034225
  31 H :    0.030712
  32 H :    0.034941
  33 H :    0.035868

  Mayer bond orders larger than 0.100000
B(  0-S ,  1-C ) :   1.1451 B(  0-S ,  4-C ) :   1.1407 B(  1-C ,  2-C ) :   1.5980
B(  1-C , 32-H ) :   0.9703 B(  2-C ,  3-C ) :   1.2440 B(  2-C ,  6-C ) :   1.0137
B(  3-C ,  4-C ) :   1.5912 B(  3-C ,  5-H ) :   0.9842 B(  4-C , 20-C ) :   1.0070
B(  6-C ,  7-H ) :   0.9453 B(  6-C ,  8-H ) :   0.9490 B(  6-C ,  9-C ) :   1.0508
B(  9-C , 10-H ) :   0.9603 B(  9-C , 11-H ) :   0.9590 B(  9-C , 12-C ) :   1.0767
B( 12-C , 13-H ) :   0.9758 B( 12-C , 14-H ) :   0.9755 B( 12-C , 15-H ) :   0.9744
B( 16-S , 17-C ) :   1.1458 B( 16-S , 20-C ) :   1.1607 B( 17-C , 18-C ) :   1.6186
B( 17-C , 33-H ) :   0.9642 B( 18-C , 19-C ) :   1.2232 B( 18-C , 21-H ) :   0.9978
B( 19-C , 20-C ) :   1.6126 B( 19-C , 22-C ) :   1.0545 B( 22-C , 23-H ) :   0.9367
B( 22-C , 24-H ) :   0.9332 B( 22-C , 25-C ) :   1.0565 B( 25-C , 26-H ) :   0.9544
B( 25-C , 27-H ) :   0.9504 B( 25-C , 28-C ) :   1.0771 B( 28-C , 29-H ) :   0.9768
B( 28-C , 30-H ) :   0.9727 B( 28-C , 31-H ) :   0.9724

Dispersion correction           -0.013821726
FINAL SINGLE POINT ENERGY     -1339.866787358150

DIPOLE MOMENT
-------------
                                X             Y             Z
Electronic contribution:    -14.66940       1.22455      25.72763
Nuclear contribution   :     14.73053      -0.96333     -26.40607
                        -----------------------------------------
Total Dipole Moment    :      0.06113       0.26121      -0.67844
                        -----------------------------------------
Magnitude (a.u.)       :      0.72955
Magnitude (Debye)      :      1.85438

Rotational constants in cm-1:     0.018226     0.008238     0.006300
Rotational constants in MHz :   546.404389   246.972590   188.858571

                             ****ORCA TERMINATED NORMALLY****
TOTAL RUN TIME: 0 days 0 hours 0 minutes 33 seconds 36 msec
