                         Program Version 4.2.1 -  RELEASE  -
|  1> ! wB97X-D3 SP def2-SVP
|  2> %pal
|  3> nprocs 16
|  4> end
|  5>
|  6> * xyz 0 1
|  7> S 	 4.15596 	 -23.5407 	 60.364
|  8> C 	 2.78488 	 -24.6019 	 60.0318
|  9> C 	 3.15154 	 -25.9007 	 60.152
| 10> C 	 4.52816 	 -26.1042 	 60.4388
| 11> C 	 5.20612 	 -24.9257 	 60.7868
| 12> H 	 5.01294 	 -27.0405 	 60.4455
| 13> C 	 2.22255 	 -26.971 	 59.8413
| 14> H 	 2.77575 	 -27.6789 	 59.1729
| 15> H 	 1.40157 	 -26.5127 	 59.267
| 16> C 	 1.51198 	 -27.6019 	 61.0916
| 17> H 	 2.31155 	 -27.7881 	 61.8385
| 18> H 	 0.89482 	 -26.8591 	 61.5708
| 19> C 	 0.865569 	 -28.9761 	 60.7586
| 20> H 	 0.538045 	 -29.403 	 61.6799
| 21> H 	 -0.0931598 	 -28.9063 	 60.2311
| 22> H 	 1.53489 	 -29.6253 	 60.2117
| 23> S 	 7.61781 	 -24.2211 	 59.6167
| 24> C 	 9.0945 	 -24.5496 	 60.472
| 25> C 	 8.88553 	 -25.1181 	 61.7543
| 26> C 	 7.50475 	 -25.2809 	 62.0435
| 27> C 	 6.67353 	 -24.8379 	 60.996
| 28> H 	 9.72787 	 -25.3942 	 62.3222
| 29> C 	 7.09558 	 -25.8404 	 63.3735
| 30> H 	 6.0141 	 -25.7341 	 63.4428
| 31> H 	 7.5123 	 -25.2618 	 64.1788
| 32> C 	 7.41838 	 -27.3417 	 63.6062
| 33> H 	 6.92778 	 -27.6633 	 64.4427
| 34> H 	 8.4771 	 -27.3467 	 63.8768
| 35> C 	 7.06184 	 -28.4042 	 62.5796
| 36> H 	 6.97328 	 -29.4151 	 63.007
| 37> H 	 7.7426 	 -28.4282 	 61.7333
| 38> H 	 6.11668 	 -28.2999 	 62.1124
| 39> H 	 1.84317 	 -24.2231 	 59.6198
| 40> H 	 10.0661 	 -24.3576 	 60.0001
| 41> *
| 42>
| 43>                          ****END OF INPUT****

CARTESIAN COORDINATES (ANGSTROEM)
---------------------------------
  S      4.155960  -23.540700   60.364000
  C      2.784880  -24.601900   60.031800
  C      3.151540  -25.900700   60.152000
  C      4.528160  -26.104200   60.438800
  C      5.206120  -24.925700   60.786800
  H      5.012940  -27.040500   60.445500
  C      2.222550  -26.971000   59.841300
  H      2.775750  -27.678900   59.172900
  H      1.401570  -26.512700   59.267000
  C      1.511980  -27.601900   61.091600
  H      2.311550  -27.788100   61.838500
  H      0.894820  -26.859100   61.570800
  C      0.865569  -28.976100   60.758600
  H      0.538045  -29.403000   61.679900
  H     -0.093160  -28.906300   60.231100
  H      1.534890  -29.625300   60.211700
  S      7.617810  -24.221100   59.616700
  C      9.094500  -24.549600   60.472000
  C      8.885530  -25.118100   61.754300
  C      7.504750  -25.280900   62.043500
  C      6.673530  -24.837900   60.996000
  H      9.727870  -25.394200   62.322200
  C      7.095580  -25.840400   63.373500
  H      6.014100  -25.734100   63.442800
  H      7.512300  -25.261800   64.178800
  C      7.418380  -27.341700   63.606200
  H      6.927780  -27.663300   64.442700
  H      8.477100  -27.346700   63.876800
  C      7.061840  -28.404200   62.579600
  H      6.973280  -29.415100   63.007000
  H      7.742600  -28.428200   61.733300
  H      6.116680  -28.299900   62.112400
  H      1.843170  -24.223100   59.619800
  H     10.066100  -24.357600   60.000100

 Total Charge           Charge          ....    0
 Multiplicity           Mult            ....    1
 Number of Electrons    NEL             ....  134
 Basis Dimension        Dim             ....  322

ORBITAL ENERGIES
----------------

  NO   OCC          E(Eh)            E(eV)
   0   2.0000     -88.967088     -2420.9175
   1   2.0000     -88.962940     -2420.8047
   2   2.0000     -10.334461      -281.2150
   3   2.0000     -10.330904      -281.1182
   4   2.0000     -10.321499      -280.8623
   5   2.0000     -10.313261      -280.6381
   6   2.0000     -10.306151      -280.4446
   7   2.0000     -10.293336      -280.0959
   8   2.0000     -10.293324      -280.0956
   9   2.0000     -10.291437      -280.0442
  10   2.0000     -10.291251      -280.0392
  11   2.0000     -10.289720      -279.9975
  12   2.0000     -10.288362      -279.9606
  13   2.0000     -10.279845      -279.7288
  14   2.0000     -10.278615      -279.6953
  15   2.0000     -10.273728      -279.5624
  16   2.0000      -8.081472      -219.9080
  17   2.0000      -8.076958      -219.7852
  18   2.0000      -6.039872      -164.3533
  19   2.0000      -6.035994      -164.2478
  20   2.0000      -6.035555      -164.2358
  21   2.0000      -6.032408      -164.1502
  22   2.0000      -6.031565      -164.1272
  23   2.0000      -6.027662      -164.0210
  24   2.0000      -0.999705       -27.2034
  25   2.0000      -0.981017       -26.6948
  26   2.0000      -0.910306       -24.7707
  27   2.0000      -0.908018       -24.7084
  28   2.0000      -0.863624       -23.5004
  29   2.0000      -0.852458       -23.1966
  30   2.0000      -0.845963       -23.0198
  31   2.0000      -0.813135       -22.1265
  32   2.0000      -0.786504       -21.4019
  33   2.0000      -0.768594       -20.9145
  34   2.0000      -0.711517       -19.3614
  35   2.0000      -0.702646       -19.1200
  36   2.0000      -0.693160       -18.8619
  37   2.0000      -0.660723       -17.9792
  38   2.0000      -0.642674       -17.4880
  39   2.0000      -0.618117       -16.8198
  40   2.0000      -0.592476       -16.1221
  41   2.0000      -0.569277       -15.4908
  42   2.0000      -0.558363       -15.1938
  43   2.0000      -0.551434       -15.0053
  44   2.0000      -0.546389       -14.8680
  45   2.0000      -0.524486       -14.2720
  46   2.0000      -0.518137       -14.0992
  47   2.0000      -0.511101       -13.9078
  48   2.0000      -0.504579       -13.7303
  49   2.0000      -0.494858       -13.4658
  50   2.0000      -0.492895       -13.4123
  51   2.0000      -0.477454       -12.9922
  52   2.0000      -0.466393       -12.6912
  53   2.0000      -0.465986       -12.6801
  54   2.0000      -0.459646       -12.5076
  55   2.0000      -0.452922       -12.3246
  56   2.0000      -0.448425       -12.2023
  57   2.0000      -0.442474       -12.0403
  58   2.0000      -0.437723       -11.9111
  59   2.0000      -0.422590       -11.4993
  60   2.0000      -0.418983       -11.4011
  61   2.0000      -0.411479       -11.1969
  62   2.0000      -0.409665       -11.1476
  63   2.0000      -0.337275        -9.1777
  64   2.0000      -0.329929        -8.9778
  65   2.0000      -0.323131        -8.7928
  66   2.0000      -0.299098        -8.1389
  67   0.0000       0.032384         0.8812
  68   0.0000       0.057978         1.5777
  69   0.0000       0.114930         3.1274
  70   0.0000       0.122268         3.3271
  71   0.0000       0.125012         3.4018

MULLIKEN ATOMIC CHARGES
-----------------------
   0 S :    0.088996
   1 C :   -0.131316
   2 C :   -0.071471
   3 C :    0.059478
   4 C :   -0.156400
   5 H :    0.000699
   6 C :    0.037034
   7 H :    0.035691
   8 H :    0.015954
   9 C :   -0.074289
  10 H :    0.025743
  11 H :    0.026857
  12 C :   -0.019913
  13 H :    0.023963
  14 H :    0.028577
  15 H :    0.036234
  16 S :    0.117041
  17 C :   -0.111256
  18 C :   -0.024247
  19 C :   -0.021159
  20 C :   -0.178123
  21 H :    0.006561
  22 C :    0.087606
  23 H :    0.018932
  24 H :    0.033063
  25 C :   -0.043821
  26 H :    0.007469
  27 H :    0.022118
  28 C :   -0.033687
  29 H :    0.030945
  30 H :    0.033144
  31 H :    0.003901
  32 H :    0.059292
  33 H :    0.066383
Sum of atomic charges:   -0.0000000

LOEWDIN ATOMIC CHARGES
----------------------
   0 S :    0.378572
   1 C :   -0.188231
   2 C :   -0.076712
   3 C :   -0.046453
   4 C :   -0.187896
   5 H :    0.023085
   6 C :   -0.037496
   7 H :    0.035148
   8 H :    0.029698
   9 C :   -0.035079
  10 H :    0.023588
  11 H :    0.023734
  12 C :   -0.063434
  13 H :    0.023706
  14 H :    0.026452
  15 H :    0.025644
  16 S :    0.407610
  17 C :   -0.185644
  18 C :   -0.068410
  19 C :   -0.050387
  20 C :   -0.197745
  21 H :    0.025285
  22 C :   -0.026003
  23 H :    0.029173
  24 H :    0.034422
  25 C :   -0.033944
  26 H :    0.015298
  27 H :    0.023337
  28 C :   -0.065942
  29 H :    0.032613
  30 H :    0.025780
  31 H :    0.017191
  32 H :    0.033411
  33 H :    0.029629

  Mayer bond orders larger than 0.100000
B(  0-S ,  1-C ) :   1.1299 B(  0-S ,  4-C ) :   1.1465 B(  1-C ,  2-C ) :   1.6109
B(  1-C , 32-H ) :   0.9643 B(  2-C ,  3-C ) :   1.2398 B(  2-C ,  6-C ) :   1.0401
B(  3-C ,  4-C ) :   1.5613 B(  3-C ,  5-H ) :   0.9968 B(  4-C , 20-C ) :   1.0204
B(  6-C ,  7-H ) :   0.9427 B(  6-C ,  8-H ) :   0.9383 B(  6-C ,  9-C ) :   1.0458
B(  9-C , 10-H ) :   0.9631 B(  9-C , 11-H ) :   0.9544 B(  9-C , 12-C ) :   1.0735
B( 12-C , 13-H ) :   0.9732 B( 12-C , 14-H ) :   0.9746 B( 12-C , 15-H ) :   0.9767
B( 16-S , 17-C ) :   1.1784 B( 16-S , 20-C ) :   1.1473 B( 17-C , 18-C ) :   1.5794
B( 17-C , 20-C ) :   0.1039 B( 17-C , 33-H ) :   0.9655 B( 18-C , 19-C ) :   1.2362
B( 18-C , 21-H ) :   1.0035 B( 19-C , 20-C ) :   1.5880 B( 19-C , 22-C ) :   1.0566
B( 22-C , 23-H ) :   0.9266 B( 22-C , 24-H ) :   0.9384 B( 22-C , 25-C ) :   1.0748
B( 25-C , 26-H ) :   0.9551 B( 25-C , 27-H ) :   0.9546 B( 25-C , 28-C ) :   1.0767
B( 28-C , 29-H ) :   0.9708 B( 28-C , 30-H ) :   0.9730 B( 28-C , 31-H ) :   0.9691

Dispersion correction           -0.014635279
FINAL SINGLE POINT ENERGY     -1339.875366849549

DIPOLE MOMENT
-------------
                                X             Y             Z
Electronic contribution:     10.70160      25.73189     -10.76930
Nuclear contribution   :    -10.78134     -26.36864      10.94837
                        -----------------------------------------
Total Dipole Moment    :     -0.07974      -0.63675       0.17906
                        -----------------------------------------
Magnitude (a.u.)       :      0.66624
Magnitude (Debye)      :      1.69345

Rotational constants in cm-1:     0.018670     0.008846     0.006701
Rotational constants in MHz :   559.726930   265.193503   200.899578

                             ****ORCA TERMINATED NORMALLY****
TOTAL RUN TIME: 0 days 0 hours 0 minutes 35 seconds 800 msec
