                         Program Version 4.2.1 -  RELEASE  -
|  1> ! wB97X-D3 SP def2-SVP
|  2> %pal
|  3> nprocs 16
|  4> end
|  5>
|  6> * xyz 0 1
|  7> S 	 2.10044 	 -14.9265 	 84.0193
|  8> C 	 0.684467 	 -15.9704 	 83.9187
|  9> C 	 -0.119086 	 -15.8407 	 85.0281
| 10> C 	 0.428467 	 -14.8967 	 85.9893
| 11> C 	 1.67943 	 -14.4624 	 85.6373
| 12> H 	 0.00869855 	 -14.4964 	 86.948
| 13> C 	 -1.39338 	 -16.4865 	 85.2271
| 14> H 	 -1.96851 	 -16.3686 	 84.2881
| 15> H 	 -1.89623 	 -15.9725 	 86.0038
| 16> C 	 -1.46177 	 -18.0537 	 85.2569
| 17> H 	 -2.5398 	 -18.3168 	 85.219
| 18> H 	 -0.927362 	 -18.4396 	 84.3703
| 19> C 	 -0.916031 	 -18.7194 	 86.5192
| 20> H 	 0.158482 	 -18.4116 	 86.647
| 21> H 	 -1.52638 	 -18.3254 	 87.3851
| 22> H 	 -0.979828 	 -19.8531 	 86.418
| 23> S 	 3.05603 	 -12.0564 	 85.3072
| 24> C 	 3.7209 	 -11.2712 	 86.7376
| 25> C 	 3.68422 	 -12.1083 	 87.8127
| 26> C 	 2.99381 	 -13.3847 	 87.5107
| 27> C 	 2.5281 	 -13.4541 	 86.2356
| 28> H 	 4.21995 	 -11.8052 	 88.67
| 29> C 	 2.89002 	 -14.5077 	 88.5104
| 30> H 	 3.94384 	 -14.5617 	 88.8109
| 31> H 	 2.69015 	 -15.5696 	 88.0717
| 32> C 	 2.01606 	 -14.1247 	 89.7799
| 33> H 	 1.56367 	 -13.135 	 89.5833
| 34> H 	 2.66777 	 -13.8411 	 90.6651
| 35> C 	 0.858278 	 -15.0338 	 90.1448
| 36> H 	 1.26388 	 -15.9425 	 90.567
| 37> H 	 0.371257 	 -15.4625 	 89.3317
| 38> H 	 0.156592 	 -14.5413 	 90.7353
| 39> H 	 0.442098 	 -16.7332 	 83.1713
| 40> H 	 4.20774 	 -10.327 	 86.716
| 41> *
| 42>
| 43>                          ****END OF INPUT****

CARTESIAN COORDINATES (ANGSTROEM)
---------------------------------
  S      2.100440  -14.926500   84.019300
  C      0.684467  -15.970400   83.918700
  C     -0.119086  -15.840700   85.028100
  C      0.428467  -14.896700   85.989300
  C      1.679430  -14.462400   85.637300
  H      0.008699  -14.496400   86.948000
  C     -1.393380  -16.486500   85.227100
  H     -1.968510  -16.368600   84.288100
  H     -1.896230  -15.972500   86.003800
  C     -1.461770  -18.053700   85.256900
  H     -2.539800  -18.316800   85.219000
  H     -0.927362  -18.439600   84.370300
  C     -0.916031  -18.719400   86.519200
  H      0.158482  -18.411600   86.647000
  H     -1.526380  -18.325400   87.385100
  H     -0.979828  -19.853100   86.418000
  S      3.056030  -12.056400   85.307200
  C      3.720900  -11.271200   86.737600
  C      3.684220  -12.108300   87.812700
  C      2.993810  -13.384700   87.510700
  C      2.528100  -13.454100   86.235600
  H      4.219950  -11.805200   88.670000
  C      2.890020  -14.507700   88.510400
  H      3.943840  -14.561700   88.810900
  H      2.690150  -15.569600   88.071700
  C      2.016060  -14.124700   89.779900
  H      1.563670  -13.135000   89.583300
  H      2.667770  -13.841100   90.665100
  C      0.858278  -15.033800   90.144800
  H      1.263880  -15.942500   90.567000
  H      0.371257  -15.462500   89.331700
  H      0.156592  -14.541300   90.735300
  H      0.442098  -16.733200   83.171300
  H      4.207740  -10.327000   86.716000

 Total Charge           Charge          ....    0
 Multiplicity           Mult            ....    1
 Number of Electrons    NEL             ....  134
 Basis Dimension        Dim             ....  322

ORBITAL ENERGIES
----------------

  NO   OCC          E(Eh)            E(eV)
   0   2.0000     -88.964838     -2420.8563
   1   2.0000     -88.959945     -2420.7232
   2   2.0000     -10.326220      -280.9907
   3   2.0000     -10.321102      -280.8515
   4   2.0000     -10.317128      -280.7433
   5   2.0000     -10.312601      -280.6201
   6   2.0000     -10.304889      -280.4103
   7   2.0000     -10.300500      -280.2909
   8   2.0000     -10.299191      -280.2552
   9   2.0000     -10.298989      -280.2497
  10   2.0000     -10.295678      -280.1597
  11   2.0000     -10.294823      -280.1364
  12   2.0000     -10.292673      -280.0779
  13   2.0000     -10.288123      -279.9541
  14   2.0000     -10.286788      -279.9177
  15   2.0000     -10.267361      -279.3891
  16   2.0000      -8.079722      -219.8604
  17   2.0000      -8.074852      -219.7279
  18   2.0000      -6.038295      -164.3103
  19   2.0000      -6.034209      -164.1992
  20   2.0000      -6.033590      -164.1823
  21   2.0000      -6.030406      -164.0957
  22   2.0000      -6.029435      -164.0693
  23   2.0000      -6.025241      -163.9551
  24   2.0000      -1.008818       -27.4513
  25   2.0000      -0.983372       -26.7589
  26   2.0000      -0.917008       -24.9531
  27   2.0000      -0.902061       -24.5463
  28   2.0000      -0.870969       -23.7003
  29   2.0000      -0.853098       -23.2140
  30   2.0000      -0.844596       -22.9826
  31   2.0000      -0.820360       -22.3231
  32   2.0000      -0.782758       -21.2999
  33   2.0000      -0.772408       -21.0183
  34   2.0000      -0.706094       -19.2138
  35   2.0000      -0.701997       -19.1023
  36   2.0000      -0.695179       -18.9168
  37   2.0000      -0.661859       -18.0101
  38   2.0000      -0.635285       -17.2870
  39   2.0000      -0.608351       -16.5541
  40   2.0000      -0.593020       -16.1369
  41   2.0000      -0.579367       -15.7654
  42   2.0000      -0.551120       -14.9967
  43   2.0000      -0.545190       -14.8354
  44   2.0000      -0.543519       -14.7899
  45   2.0000      -0.537335       -14.6216
  46   2.0000      -0.523600       -14.2479
  47   2.0000      -0.519344       -14.1321
  48   2.0000      -0.507871       -13.8199
  49   2.0000      -0.494536       -13.4570
  50   2.0000      -0.486571       -13.2403
  51   2.0000      -0.480397       -13.0723
  52   2.0000      -0.472299       -12.8519
  53   2.0000      -0.467092       -12.7102
  54   2.0000      -0.462891       -12.5959
  55   2.0000      -0.441936       -12.0257
  56   2.0000      -0.440830       -11.9956
  57   2.0000      -0.434145       -11.8137
  58   2.0000      -0.430733       -11.7208
  59   2.0000      -0.427942       -11.6449
  60   2.0000      -0.423264       -11.5176
  61   2.0000      -0.419787       -11.4230
  62   2.0000      -0.398471       -10.8430
  63   2.0000      -0.351100        -9.5539
  64   2.0000      -0.326829        -8.8935
  65   2.0000      -0.323179        -8.7942
  66   2.0000      -0.293899        -7.9974
  67   0.0000       0.033717         0.9175
  68   0.0000       0.068189         1.8555
  69   0.0000       0.105226         2.8633
  70   0.0000       0.116424         3.1681
  71   0.0000       0.129760         3.5309

MULLIKEN ATOMIC CHARGES
-----------------------
   0 S :    0.100453
   1 C :   -0.115327
   2 C :   -0.088291
   3 C :    0.023134
   4 C :   -0.168687
   5 H :    0.033399
   6 C :    0.070449
   7 H :    0.037124
   8 H :    0.011268
   9 C :   -0.092861
  10 H :    0.036278
  11 H :    0.030017
  12 C :   -0.085179
  13 H :    0.046514
  14 H :    0.037621
  15 H :    0.052185
  16 S :    0.090504
  17 C :   -0.083441
  18 C :   -0.006599
  19 C :   -0.061090
  20 C :   -0.129405
  21 H :    0.008232
  22 C :    0.031836
  23 H :    0.035734
  24 H :    0.061130
  25 C :   -0.107923
  26 H :    0.032066
  27 H :    0.034795
  28 C :    0.017869
  29 H :    0.021895
  30 H :   -0.000037
  31 H :    0.027356
  32 H :    0.047438
  33 H :    0.051544
Sum of atomic charges:    0.0000000

LOEWDIN ATOMIC CHARGES
----------------------
   0 S :    0.404655
   1 C :   -0.199683
   2 C :   -0.065768
   3 C :   -0.066184
   4 C :   -0.187663
   5 H :    0.041661
   6 C :   -0.039388
   7 H :    0.045163
   8 H :    0.025036
   9 C :   -0.039564
  10 H :    0.027368
  11 H :    0.022828
  12 C :   -0.080587
  13 H :    0.028913
  14 H :    0.028641
  15 H :    0.033477
  16 S :    0.377934
  17 C :   -0.165801
  18 C :   -0.066531
  19 C :   -0.056275
  20 C :   -0.204336
  21 H :    0.026517
  22 C :   -0.043409
  23 H :    0.037409
  24 H :    0.044782
  25 C :   -0.048632
  26 H :    0.024140
  27 H :    0.029737
  28 C :   -0.057085
  29 H :    0.027289
  30 H :    0.016051
  31 H :    0.021592
  32 H :    0.031490
  33 H :    0.026222

  Mayer bond orders larger than 0.100000
B(  0-S ,  1-C ) :   1.1210 B(  0-S ,  4-C ) :   1.1472 B(  1-C ,  2-C ) :   1.6301
B(  1-C , 32-H ) :   0.9643 B(  2-C ,  3-C ) :   1.1931 B(  2-C ,  6-C ) :   1.0467
B(  3-C ,  4-C ) :   1.6080 B(  3-C ,  5-H ) :   0.9822 B(  4-C , 20-C ) :   1.0265
B(  6-C ,  7-H ) :   0.9278 B(  6-C ,  8-H ) :   0.9419 B(  6-C ,  9-C ) :   1.0593
B(  9-C , 10-H ) :   0.9570 B(  9-C , 11-H ) :   0.9551 B(  9-C , 12-C ) :   1.0752
B( 12-C , 13-H ) :   0.9756 B( 12-C , 14-H ) :   0.9737 B( 12-C , 15-H ) :   0.9728
B( 16-S , 17-C ) :   1.1344 B( 16-S , 20-C ) :   1.1016 B( 17-C , 18-C ) :   1.6597
B( 17-C , 33-H ) :   0.9706 B( 18-C , 19-C ) :   1.1717 B( 18-C , 21-H ) :   0.9975
B( 19-C , 20-C ) :   1.6625 B( 19-C , 22-C ) :   1.0497 B( 22-C , 23-H ) :   0.9359
B( 22-C , 24-H ) :   0.9489 B( 22-C , 25-C ) :   1.0118 B( 25-C , 26-H ) :   0.9710
B( 25-C , 27-H ) :   0.9534 B( 25-C , 28-C ) :   1.0845 B( 28-C , 29-H ) :   0.9697
B( 28-C , 30-H ) :   0.9698 B( 28-C , 31-H ) :   0.9738

Dispersion correction           -0.014737319
FINAL SINGLE POINT ENERGY     -1339.862817097258

DIPOLE MOMENT
-------------
                                X             Y             Z
Electronic contribution:     14.86509      18.25340     -19.28053
Nuclear contribution   :    -15.14084     -18.48358      19.80136
                        -----------------------------------------
Total Dipole Moment    :     -0.27574      -0.23018       0.52083
                        -----------------------------------------
Magnitude (a.u.)       :      0.63268
Magnitude (Debye)      :      1.60813

Rotational constants in cm-1:     0.018990     0.009494     0.006764
Rotational constants in MHz :   569.316561   284.632176   202.772774

                             ****ORCA TERMINATED NORMALLY****
TOTAL RUN TIME: 0 days 0 hours 0 minutes 34 seconds 722 msec
