                         Program Version 4.2.1 -  RELEASE  -
|  1> ! wB97X-D3 SP def2-SVP
|  2> %pal
|  3> nprocs 16
|  4> end
|  5>
|  6> * xyz 0 1
|  7> S 	 -49.615 	 63.8241 	 135.528
|  8> C 	 -48.9852 	 62.2745 	 135.992
|  9> C 	 -47.9808 	 62.4365 	 136.891
| 10> C 	 -47.9 	 63.7539 	 137.422
| 11> C 	 -48.8129 	 64.6205 	 136.824
| 12> H 	 -47.3573 	 64.152 	 138.188
| 13> C 	 -47.0954 	 61.3467 	 137.433
| 14> H 	 -46.0224 	 61.6399 	 137.311
| 15> H 	 -47.3123 	 60.4474 	 136.876
| 16> C 	 -47.3481 	 60.9535 	 138.833
| 17> H 	 -47.3038 	 61.8089 	 139.527
| 18> H 	 -48.3344 	 60.5579 	 138.908
| 19> C 	 -46.4441 	 59.8451 	 139.347
| 20> H 	 -45.3869 	 60.1778 	 139.317
| 21> H 	 -46.7051 	 59.6156 	 140.473
| 22> H 	 -46.4186 	 58.9558 	 138.745
| 23> S 	 -49.1103 	 67.1311 	 135.643
| 24> C 	 -49.045 	 68.5179 	 136.672
| 25> C 	 -48.9867 	 68.1973 	 138.009
| 26> C 	 -49.0878 	 66.7897 	 138.271
| 27> C 	 -49.0101 	 66.087 	 137.073
| 28> H 	 -49.0919 	 68.9018 	 138.727
| 29> C 	 -49.2574 	 66.1673 	 139.641
| 30> H 	 -48.9247 	 66.8516 	 140.402
| 31> H 	 -48.614 	 65.28 	 139.564
| 32> C 	 -50.6939 	 65.6571 	 140.024
| 33> H 	 -50.6818 	 65.3718 	 141.088
| 34> H 	 -50.8872 	 64.6983 	 139.521
| 35> C 	 -51.7758 	 66.7478 	 139.79
| 36> H 	 -52.7793 	 66.4109 	 140.118
| 37> H 	 -51.7217 	 67.1058 	 138.812
| 38> H 	 -51.6124 	 67.5517 	 140.501
| 39> H 	 -49.0799 	 61.3431 	 135.365
| 40> H 	 -49.1457 	 69.5002 	 136.233
| 41> *
| 42>
| 43>                          ****END OF INPUT****

CARTESIAN COORDINATES (ANGSTROEM)
---------------------------------
  S    -49.615000   63.824100  135.528000
  C    -48.985200   62.274500  135.992000
  C    -47.980800   62.436500  136.891000
  C    -47.900000   63.753900  137.422000
  C    -48.812900   64.620500  136.824000
  H    -47.357300   64.152000  138.188000
  C    -47.095400   61.346700  137.433000
  H    -46.022400   61.639900  137.311000
  H    -47.312300   60.447400  136.876000
  C    -47.348100   60.953500  138.833000
  H    -47.303800   61.808900  139.527000
  H    -48.334400   60.557900  138.908000
  C    -46.444100   59.845100  139.347000
  H    -45.386900   60.177800  139.317000
  H    -46.705100   59.615600  140.473000
  H    -46.418600   58.955800  138.745000
  S    -49.110300   67.131100  135.643000
  C    -49.045000   68.517900  136.672000
  C    -48.986700   68.197300  138.009000
  C    -49.087800   66.789700  138.271000
  C    -49.010100   66.087000  137.073000
  H    -49.091900   68.901800  138.727000
  C    -49.257400   66.167300  139.641000
  H    -48.924700   66.851600  140.402000
  H    -48.614000   65.280000  139.564000
  C    -50.693900   65.657100  140.024000
  H    -50.681800   65.371800  141.088000
  H    -50.887200   64.698300  139.521000
  C    -51.775800   66.747800  139.790000
  H    -52.779300   66.410900  140.118000
  H    -51.721700   67.105800  138.812000
  H    -51.612400   67.551700  140.501000
  H    -49.079900   61.343100  135.365000
  H    -49.145700   69.500200  136.233000

 Total Charge           Charge          ....    0
 Multiplicity           Mult            ....    1
 Number of Electrons    NEL             ....  134
 Basis Dimension        Dim             ....  322

ORBITAL ENERGIES
----------------

  NO   OCC          E(Eh)            E(eV)
   0   2.0000     -88.967422     -2420.9266
   1   2.0000     -88.963459     -2420.8188
   2   2.0000     -10.330512      -281.1075
   3   2.0000     -10.330434      -281.1054
   4   2.0000     -10.317906      -280.7645
   5   2.0000     -10.313133      -280.6346
   6   2.0000     -10.305707      -280.4325
   7   2.0000     -10.298529      -280.2372
   8   2.0000     -10.294262      -280.1211
   9   2.0000     -10.289755      -279.9985
  10   2.0000     -10.288744      -279.9710
  11   2.0000     -10.288548      -279.9656
  12   2.0000     -10.286771      -279.9173
  13   2.0000     -10.285769      -279.8900
  14   2.0000     -10.279783      -279.7271
  15   2.0000     -10.272509      -279.5292
  16   2.0000      -8.082435      -219.9342
  17   2.0000      -8.079187      -219.8459
  18   2.0000      -6.040858      -164.3801
  19   2.0000      -6.037672      -164.2934
  20   2.0000      -6.036995      -164.2750
  21   2.0000      -6.033547      -164.1811
  22   2.0000      -6.033196      -164.1716
  23   2.0000      -6.029929      -164.0827
  24   2.0000      -1.010267       -27.4908
  25   2.0000      -0.989307       -26.9204
  26   2.0000      -0.921926       -25.0869
  27   2.0000      -0.905510       -24.6402
  28   2.0000      -0.868601       -23.6358
  29   2.0000      -0.852170       -23.1887
  30   2.0000      -0.845973       -23.0201
  31   2.0000      -0.816216       -22.2104
  32   2.0000      -0.785254       -21.3679
  33   2.0000      -0.773091       -21.0369
  34   2.0000      -0.708015       -19.2661
  35   2.0000      -0.696443       -18.9512
  36   2.0000      -0.687764       -18.7150
  37   2.0000      -0.669392       -18.2151
  38   2.0000      -0.646982       -17.6053
  39   2.0000      -0.622112       -16.9285
  40   2.0000      -0.592104       -16.1120
  41   2.0000      -0.576198       -15.6791
  42   2.0000      -0.566225       -15.4078
  43   2.0000      -0.556274       -15.1370
  44   2.0000      -0.548339       -14.9211
  45   2.0000      -0.523487       -14.2448
  46   2.0000      -0.514423       -13.9982
  47   2.0000      -0.510040       -13.8789
  48   2.0000      -0.501739       -13.6530
  49   2.0000      -0.495191       -13.4748
  50   2.0000      -0.489348       -13.3158
  51   2.0000      -0.484997       -13.1974
  52   2.0000      -0.471324       -12.8254
  53   2.0000      -0.468018       -12.7354
  54   2.0000      -0.462914       -12.5965
  55   2.0000      -0.451330       -12.2813
  56   2.0000      -0.441779       -12.0214
  57   2.0000      -0.435745       -11.8572
  58   2.0000      -0.431085       -11.7304
  59   2.0000      -0.428169       -11.6511
  60   2.0000      -0.422386       -11.4937
  61   2.0000      -0.417960       -11.3733
  62   2.0000      -0.414315       -11.2741
  63   2.0000      -0.350680        -9.5425
  64   2.0000      -0.334679        -9.1071
  65   2.0000      -0.328943        -8.9510
  66   2.0000      -0.290399        -7.9022
  67   0.0000       0.026948         0.7333
  68   0.0000       0.073244         1.9931
  69   0.0000       0.104174         2.8347
  70   0.0000       0.119253         3.2450
  71   0.0000       0.129082         3.5125

MULLIKEN ATOMIC CHARGES
-----------------------
   0 S :    0.100103
   1 C :   -0.129738
   2 C :   -0.076085
   3 C :    0.057667
   4 C :   -0.157382
   5 H :   -0.023323
   6 C :    0.075907
   7 H :    0.038092
   8 H :    0.002645
   9 C :   -0.059171
  10 H :    0.025149
  11 H :    0.018564
  12 C :   -0.072681
  13 H :    0.023747
  14 H :    0.053492
  15 H :    0.028097
  16 S :    0.106402
  17 C :   -0.088796
  18 C :    0.025335
  19 C :   -0.092851
  20 C :   -0.146038
  21 H :   -0.025589
  22 C :    0.094274
  23 H :    0.020296
  24 H :    0.017435
  25 C :   -0.074929
  26 H :    0.028341
  27 H :    0.038758
  28 C :   -0.034767
  29 H :    0.033443
  30 H :    0.048450
  31 H :    0.015325
  32 H :    0.069760
  33 H :    0.060068
Sum of atomic charges:   -0.0000000

LOEWDIN ATOMIC CHARGES
----------------------
   0 S :    0.415935
   1 C :   -0.215398
   2 C :   -0.061003
   3 C :   -0.059532
   4 C :   -0.190862
   5 H :    0.013137
   6 C :   -0.033140
   7 H :    0.036435
   8 H :    0.026862
   9 C :   -0.045666
  10 H :    0.022577
  11 H :    0.022224
  12 C :   -0.071059
  13 H :    0.023097
  14 H :    0.041049
  15 H :    0.019358
  16 S :    0.402824
  17 C :   -0.181006
  18 C :   -0.059932
  19 C :   -0.055392
  20 C :   -0.191103
  21 H :    0.012048
  22 C :   -0.030139
  23 H :    0.027053
  24 H :    0.034591
  25 C :   -0.034883
  26 H :    0.025236
  27 H :    0.025520
  28 C :   -0.061677
  29 H :    0.030454
  30 H :    0.019706
  31 H :    0.023193
  32 H :    0.041911
  33 H :    0.027580

  Mayer bond orders larger than 0.100000
B(  0-S ,  1-C ) :   1.1289 B(  0-S ,  4-C ) :   1.1753 B(  1-C ,  2-C ) :   1.6293
B(  1-C , 32-H ) :   0.9557 B(  2-C ,  3-C ) :   1.2176 B(  2-C ,  6-C ) :   1.0362
B(  3-C ,  4-C ) :   1.5647 B(  3-C ,  5-H ) :   1.0091 B(  4-C , 20-C ) :   1.0158
B(  6-C ,  7-H ) :   0.9345 B(  6-C ,  8-H ) :   0.9329 B(  6-C ,  9-C ) :   1.0810
B(  9-C , 10-H ) :   0.9514 B(  9-C , 11-H ) :   0.9476 B(  9-C , 12-C ) :   1.0855
B( 12-C , 13-H ) :   0.9725 B( 12-C , 14-H ) :   0.9727 B( 12-C , 15-H ) :   0.9732
B( 16-S , 17-C ) :   1.1597 B( 16-S , 20-C ) :   1.1449 B( 17-C , 18-C ) :   1.5971
B( 17-C , 33-H ) :   0.9695 B( 18-C , 19-C ) :   1.2388 B( 18-C , 21-H ) :   1.0029
B( 19-C , 20-C ) :   1.5935 B( 19-C , 22-C ) :   1.0422 B( 22-C , 23-H ) :   0.9348
B( 22-C , 24-H ) :   0.9251 B( 22-C , 25-C ) :   1.0724 B( 25-C , 26-H ) :   0.9571
B( 25-C , 27-H ) :   0.9580 B( 25-C , 28-C ) :   1.0705 B( 28-C , 29-H ) :   0.9735
B( 28-C , 30-H ) :   0.9772 B( 28-C , 31-H ) :   0.9739

Dispersion correction           -0.014486048
FINAL SINGLE POINT ENERGY     -1339.876420968534

DIPOLE MOMENT
-------------
                                X             Y             Z
Electronic contribution:     -2.58393      13.76001     -23.48220
Nuclear contribution   :      2.71847     -13.84020      24.01001
                        -----------------------------------------
Total Dipole Moment    :      0.13454      -0.08019       0.52781
                        -----------------------------------------
Magnitude (a.u.)       :      0.55056
Magnitude (Debye)      :      1.39941

Rotational constants in cm-1:     0.020266     0.008293     0.006858
Rotational constants in MHz :   607.544953   248.603350   205.583413

                             ****ORCA TERMINATED NORMALLY****
TOTAL RUN TIME: 0 days 0 hours 0 minutes 35 seconds 17 msec
