                         Program Version 4.2.1 -  RELEASE  -
|  1> ! wB97X-D3 SP def2-SVP
|  2> %pal
|  3> nprocs 16
|  4> end
|  5>
|  6> * xyz 0 1
|  7> S 	 46.0217 	 10.3245 	 50.7471
|  8> C 	 45.6657 	 9.46737 	 52.2508
|  9> C 	 44.7764 	 10.162 	 53.0746
| 10> C 	 44.6327 	 11.5184 	 52.5801
| 11> C 	 45.1884 	 11.758 	 51.34
| 12> H 	 44.1422 	 12.3141 	 53.1501
| 13> C 	 44.1815 	 9.51965 	 54.2989
| 14> H 	 44.6565 	 9.84553 	 55.1942
| 15> H 	 44.575 	 8.49698 	 54.1695
| 16> C 	 42.6187 	 9.56438 	 54.3648
| 17> H 	 42.3624 	 10.6196 	 54.1558
| 18> H 	 42.1707 	 9.0782 	 53.4713
| 19> C 	 41.9576 	 9.09756 	 55.634
| 20> H 	 42.3338 	 9.4702 	 56.5347
| 21> H 	 40.9019 	 9.24786 	 55.5911
| 22> H 	 42.1953 	 7.99186 	 55.7785
| 23> S 	 46.4579 	 13.2121 	 49.4044
| 24> C 	 46.1658 	 14.8786 	 49.1778
| 25> C 	 45.0507 	 15.3116 	 49.878
| 26> C 	 44.5181 	 14.2904 	 50.7307
| 27> C 	 45.2439 	 13.1255 	 50.731
| 28> H 	 44.6806 	 16.3189 	 49.8412
| 29> C 	 43.2786 	 14.4946 	 51.5442
| 30> H 	 43.6659 	 14.9582 	 52.4904
| 31> H 	 42.9805 	 13.4842 	 51.8282
| 32> C 	 42.189 	 15.3486 	 51.0045
| 33> H 	 42.3858 	 16.5152 	 50.9388
| 34> H 	 41.275 	 15.2064 	 51.6035
| 35> C 	 41.5625 	 14.9519 	 49.7064
| 36> H 	 42.2905 	 15.1199 	 48.921
| 37> H 	 40.653 	 15.4445 	 49.4049
| 38> H 	 41.3239 	 13.9373 	 49.7248
| 39> H 	 45.9587 	 8.51085 	 52.5149
| 40> H 	 46.7046 	 15.5217 	 48.4748
| 41> *
| 42>
| 43>                          ****END OF INPUT****

CARTESIAN COORDINATES (ANGSTROEM)
---------------------------------
  S     46.021700   10.324500   50.747100
  C     45.665700    9.467370   52.250800
  C     44.776400   10.162000   53.074600
  C     44.632700   11.518400   52.580100
  C     45.188400   11.758000   51.340000
  H     44.142200   12.314100   53.150100
  C     44.181500    9.519650   54.298900
  H     44.656500    9.845530   55.194200
  H     44.575000    8.496980   54.169500
  C     42.618700    9.564380   54.364800
  H     42.362400   10.619600   54.155800
  H     42.170700    9.078200   53.471300
  C     41.957600    9.097560   55.634000
  H     42.333800    9.470200   56.534700
  H     40.901900    9.247860   55.591100
  H     42.195300    7.991860   55.778500
  S     46.457900   13.212100   49.404400
  C     46.165800   14.878600   49.177800
  C     45.050700   15.311600   49.878000
  C     44.518100   14.290400   50.730700
  C     45.243900   13.125500   50.731000
  H     44.680600   16.318900   49.841200
  C     43.278600   14.494600   51.544200
  H     43.665900   14.958200   52.490400
  H     42.980500   13.484200   51.828200
  C     42.189000   15.348600   51.004500
  H     42.385800   16.515200   50.938800
  H     41.275000   15.206400   51.603500
  C     41.562500   14.951900   49.706400
  H     42.290500   15.119900   48.921000
  H     40.653000   15.444500   49.404900
  H     41.323900   13.937300   49.724800
  H     45.958700    8.510850   52.514900
  H     46.704600   15.521700   48.474800

 Total Charge           Charge          ....    0
 Multiplicity           Mult            ....    1
 Number of Electrons    NEL             ....  134
 Basis Dimension        Dim             ....  322

ORBITAL ENERGIES
----------------

  NO   OCC          E(Eh)            E(eV)
   0   2.0000     -88.971684     -2421.0426
   1   2.0000     -88.960403     -2420.7356
   2   2.0000     -10.336750      -281.2773
   3   2.0000     -10.331247      -281.1275
   4   2.0000     -10.318125      -280.7705
   5   2.0000     -10.312442      -280.6158
   6   2.0000     -10.304831      -280.4087
   7   2.0000     -10.303444      -280.3710
   8   2.0000     -10.296403      -280.1794
   9   2.0000     -10.295383      -280.1516
  10   2.0000     -10.294929      -280.1393
  11   2.0000     -10.294141      -280.1178
  12   2.0000     -10.293611      -280.1034
  13   2.0000     -10.292884      -280.0836
  14   2.0000     -10.278701      -279.6977
  15   2.0000     -10.264242      -279.3042
  16   2.0000      -8.085494      -220.0175
  17   2.0000      -8.075726      -219.7517
  18   2.0000      -6.044281      -164.4733
  19   2.0000      -6.040245      -164.3634
  20   2.0000      -6.035903      -164.2453
  21   2.0000      -6.034203      -164.1990
  22   2.0000      -6.030275      -164.0921
  23   2.0000      -6.026377      -163.9860
  24   2.0000      -1.004901       -27.3447
  25   2.0000      -0.983704       -26.7680
  26   2.0000      -0.920159       -25.0388
  27   2.0000      -0.911363       -24.7994
  28   2.0000      -0.869835       -23.6694
  29   2.0000      -0.858715       -23.3668
  30   2.0000      -0.845129       -22.9971
  31   2.0000      -0.818424       -22.2705
  32   2.0000      -0.788718       -21.4621
  33   2.0000      -0.776277       -21.1236
  34   2.0000      -0.712047       -19.3758
  35   2.0000      -0.697857       -18.9896
  36   2.0000      -0.694180       -18.8896
  37   2.0000      -0.659969       -17.9587
  38   2.0000      -0.639943       -17.4137
  39   2.0000      -0.620518       -16.8852
  40   2.0000      -0.594544       -16.1784
  41   2.0000      -0.570982       -15.5372
  42   2.0000      -0.559383       -15.2216
  43   2.0000      -0.555810       -15.1244
  44   2.0000      -0.547492       -14.8980
  45   2.0000      -0.534140       -14.5347
  46   2.0000      -0.527704       -14.3595
  47   2.0000      -0.517620       -14.0852
  48   2.0000      -0.505240       -13.7483
  49   2.0000      -0.497098       -13.5267
  50   2.0000      -0.492764       -13.4088
  51   2.0000      -0.481958       -13.1147
  52   2.0000      -0.472198       -12.8492
  53   2.0000      -0.467044       -12.7089
  54   2.0000      -0.458928       -12.4881
  55   2.0000      -0.454447       -12.3661
  56   2.0000      -0.447462       -12.1761
  57   2.0000      -0.444015       -12.0823
  58   2.0000      -0.436754       -11.8847
  59   2.0000      -0.422952       -11.5091
  60   2.0000      -0.419877       -11.4254
  61   2.0000      -0.408479       -11.1153
  62   2.0000      -0.398797       -10.8518
  63   2.0000      -0.359723        -9.7886
  64   2.0000      -0.332861        -9.0576
  65   2.0000      -0.325538        -8.8583
  66   2.0000      -0.283641        -7.7183
  67   0.0000       0.022881         0.6226
  68   0.0000       0.080353         2.1865
  69   0.0000       0.091918         2.5012
  70   0.0000       0.121079         3.2947
  71   0.0000       0.134337         3.6555

MULLIKEN ATOMIC CHARGES
-----------------------
   0 S :    0.112069
   1 C :   -0.087322
   2 C :   -0.116190
   3 C :   -0.032741
   4 C :   -0.083349
   5 H :    0.023631
   6 C :    0.110599
   7 H :    0.029263
   8 H :    0.006315
   9 C :   -0.102562
  10 H :    0.022993
  11 H :    0.036106
  12 C :   -0.007659
  13 H :    0.013695
  14 H :    0.038557
  15 H :    0.028393
  16 S :    0.075134
  17 C :   -0.071885
  18 C :   -0.029369
  19 C :   -0.085407
  20 C :   -0.141816
  21 H :    0.012923
  22 C :    0.089990
  23 H :    0.052193
  24 H :    0.019569
  25 C :   -0.119592
  26 H :    0.047872
  27 H :    0.032239
  28 C :   -0.016325
  29 H :    0.021626
  30 H :    0.028870
  31 H :    0.012564
  32 H :    0.017535
  33 H :    0.062080
Sum of atomic charges:    0.0000000

LOEWDIN ATOMIC CHARGES
----------------------
   0 S :    0.390652
   1 C :   -0.180288
   2 C :   -0.054969
   3 C :   -0.074528
   4 C :   -0.188155
   5 H :    0.030267
   6 C :   -0.029965
   7 H :    0.027346
   8 H :    0.031438
   9 C :   -0.044420
  10 H :    0.022360
  11 H :    0.032231
  12 C :   -0.063433
  13 H :    0.016266
  14 H :    0.027654
  15 H :    0.033954
  16 S :    0.391137
  17 C :   -0.187354
  18 C :   -0.076483
  19 C :   -0.059313
  20 C :   -0.171841
  21 H :    0.029199
  22 C :   -0.038202
  23 H :    0.046624
  24 H :    0.031291
  25 C :   -0.058179
  26 H :    0.035225
  27 H :    0.034119
  28 C :   -0.061715
  29 H :    0.020197
  30 H :    0.025829
  31 H :    0.017718
  32 H :    0.011743
  33 H :    0.033595

  Mayer bond orders larger than 0.100000
B(  0-S ,  1-C ) :   1.1237 B(  0-S ,  4-C ) :   1.1250 B(  1-C ,  2-C ) :   1.6388
B(  1-C , 32-H ) :   0.9664 B(  2-C ,  3-C ) :   1.2137 B(  2-C ,  6-C ) :   1.0292
B(  3-C ,  4-C ) :   1.5914 B(  3-C ,  5-H ) :   0.9824 B(  4-C , 20-C ) :   1.0573
B(  6-C ,  7-H ) :   0.9362 B(  6-C ,  8-H ) :   0.9318 B(  6-C ,  9-C ) :   1.0432
B(  9-C , 10-H ) :   0.9595 B(  9-C , 11-H ) :   0.9532 B(  9-C , 12-C ) :   1.0897
B( 12-C , 13-H ) :   0.9726 B( 12-C , 14-H ) :   0.9722 B( 12-C , 15-H ) :   0.9703
B( 16-S , 17-C ) :   1.1776 B( 16-S , 20-C ) :   1.1102 B( 17-C , 18-C ) :   1.5941
B( 17-C , 33-H ) :   0.9644 B( 18-C , 19-C ) :   1.2375 B( 18-C , 21-H ) :   0.9919
B( 19-C , 20-C ) :   1.6149 B( 19-C , 22-C ) :   1.0312 B( 22-C , 23-H ) :   0.9235
B( 22-C , 24-H ) :   0.9235 B( 22-C , 25-C ) :   1.0856 B( 25-C , 26-H ) :   0.9463
B( 25-C , 27-H ) :   0.9515 B( 25-C , 28-C ) :   1.0811 B( 28-C , 29-H ) :   0.9696
B( 28-C , 30-H ) :   0.9740 B( 28-C , 31-H ) :   0.9690

Dispersion correction           -0.013725710
FINAL SINGLE POINT ENERGY     -1339.861342889296

DIPOLE MOMENT
-------------
                                X             Y             Z
Electronic contribution:     24.63451      -1.70592     -16.04748
Nuclear contribution   :    -25.18673       1.87503      16.54149
                        -----------------------------------------
Total Dipole Moment    :     -0.55222       0.16911       0.49401
                        -----------------------------------------
Magnitude (a.u.)       :      0.75999
Magnitude (Debye)      :      1.93175

Rotational constants in cm-1:     0.018520     0.008429     0.006146
Rotational constants in MHz :   555.229466   252.686910   184.243982

                             ****ORCA TERMINATED NORMALLY****
TOTAL RUN TIME: 0 days 0 hours 0 minutes 33 seconds 701 msec
