                         Program Version 4.2.1 -  RELEASE  -
|  1> ! wB97X-D3 SP def2-SVP
|  2> %pal
|  3> nprocs 16
|  4> end
|  5>
|  6> * xyz 0 1
|  7> S 	 -97.9908 	 42.6255 	 118.495
|  8> C 	 -98.6608 	 44.177 	 118.812
|  9> C 	 -97.6579 	 45.0919 	 118.8
| 10> C 	 -96.4625 	 44.6492 	 118.279
| 11> C 	 -96.4709 	 43.3152 	 117.952
| 12> H 	 -95.529 	 45.2258 	 118.167
| 13> C 	 -97.8364 	 46.5115 	 119.508
| 14> H 	 -97.0013 	 46.5217 	 120.304
| 15> H 	 -98.775 	 46.5058 	 120.086
| 16> C 	 -97.5991 	 47.8529 	 118.807
| 17> H 	 -96.6162 	 47.8774 	 118.518
| 18> H 	 -98.3057 	 47.9563 	 118.049
| 19> C 	 -97.8456 	 49.0508 	 119.83
| 20> H 	 -98.7769 	 49.0198 	 120.352
| 21> H 	 -97.1429 	 49.1451 	 120.716
| 22> H 	 -97.7776 	 50.0387 	 119.384
| 23> S 	 -94.5096 	 41.6824 	 118.764
| 24> C 	 -93.3458 	 41.0853 	 117.557
| 25> C 	 -93.551 	 41.5899 	 116.325
| 26> C 	 -94.7139 	 42.412 	 116.236
| 27> C 	 -95.2913 	 42.5801 	 117.483
| 28> H 	 -92.8608 	 41.2926 	 115.506
| 29> C 	 -95.2236 	 43.1326 	 114.931
| 30> H 	 -96.2615 	 43.2779 	 115.128
| 31> H 	 -95.0333 	 42.5556 	 114.041
| 32> C 	 -94.7174 	 44.6235 	 114.645
| 33> H 	 -95.0876 	 45.2383 	 115.535
| 34> H 	 -95.2866 	 44.8973 	 113.753
| 35> C 	 -93.1858 	 44.9227 	 114.646
| 36> H 	 -93.0002 	 45.999 	 114.439
| 37> H 	 -92.5446 	 44.4541 	 113.88
| 38> H 	 -92.7797 	 44.6754 	 115.67
| 39> H 	 -99.6413 	 44.3315 	 119.314
| 40> H 	 -92.5789 	 40.226 	 117.734
| 41> *
| 42>
| 43>                          ****END OF INPUT****

CARTESIAN COORDINATES (ANGSTROEM)
---------------------------------
  S    -97.990800   42.625500  118.495000
  C    -98.660800   44.177000  118.812000
  C    -97.657900   45.091900  118.800000
  C    -96.462500   44.649200  118.279000
  C    -96.470900   43.315200  117.952000
  H    -95.529000   45.225800  118.167000
  C    -97.836400   46.511500  119.508000
  H    -97.001300   46.521700  120.304000
  H    -98.775000   46.505800  120.086000
  C    -97.599100   47.852900  118.807000
  H    -96.616200   47.877400  118.518000
  H    -98.305700   47.956300  118.049000
  C    -97.845600   49.050800  119.830000
  H    -98.776900   49.019800  120.352000
  H    -97.142900   49.145100  120.716000
  H    -97.777600   50.038700  119.384000
  S    -94.509600   41.682400  118.764000
  C    -93.345800   41.085300  117.557000
  C    -93.551000   41.589900  116.325000
  C    -94.713900   42.412000  116.236000
  C    -95.291300   42.580100  117.483000
  H    -92.860800   41.292600  115.506000
  C    -95.223600   43.132600  114.931000
  H    -96.261500   43.277900  115.128000
  H    -95.033300   42.555600  114.041000
  C    -94.717400   44.623500  114.645000
  H    -95.087600   45.238300  115.535000
  H    -95.286600   44.897300  113.753000
  C    -93.185800   44.922700  114.646000
  H    -93.000200   45.999000  114.439000
  H    -92.544600   44.454100  113.880000
  H    -92.779700   44.675400  115.670000
  H    -99.641300   44.331500  119.314000
  H    -92.578900   40.226000  117.734000

 Total Charge           Charge          ....    0
 Multiplicity           Mult            ....    1
 Number of Electrons    NEL             ....  134
 Basis Dimension        Dim             ....  322

ORBITAL ENERGIES
----------------

  NO   OCC          E(Eh)            E(eV)
   0   2.0000     -88.966244     -2420.8946
   1   2.0000     -88.965565     -2420.8761
   2   2.0000     -10.327722      -281.0316
   3   2.0000     -10.326121      -280.9880
   4   2.0000     -10.321341      -280.8580
   5   2.0000     -10.312853      -280.6270
   6   2.0000     -10.308028      -280.4957
   7   2.0000     -10.301744      -280.3247
   8   2.0000     -10.298985      -280.2496
   9   2.0000     -10.297990      -280.2225
  10   2.0000     -10.294959      -280.1401
  11   2.0000     -10.293780      -280.1080
  12   2.0000     -10.291098      -280.0350
  13   2.0000     -10.286115      -279.8994
  14   2.0000     -10.284229      -279.8481
  15   2.0000     -10.283293      -279.8226
  16   2.0000      -8.081398      -219.9060
  17   2.0000      -8.080135      -219.8716
  18   2.0000      -6.039784      -164.3509
  19   2.0000      -6.038629      -164.3195
  20   2.0000      -6.035893      -164.2450
  21   2.0000      -6.034806      -164.2154
  22   2.0000      -6.032192      -164.1443
  23   2.0000      -6.030764      -164.1054
  24   2.0000      -1.013209       -27.5708
  25   2.0000      -0.988704       -26.9040
  26   2.0000      -0.903345       -24.5813
  27   2.0000      -0.892391       -24.2832
  28   2.0000      -0.873075       -23.7576
  29   2.0000      -0.848984       -23.1020
  30   2.0000      -0.841283       -22.8925
  31   2.0000      -0.814761       -22.1708
  32   2.0000      -0.780712       -21.2442
  33   2.0000      -0.770999       -20.9800
  34   2.0000      -0.710919       -19.3451
  35   2.0000      -0.698640       -19.0110
  36   2.0000      -0.683171       -18.5900
  37   2.0000      -0.654189       -17.8014
  38   2.0000      -0.642906       -17.4944
  39   2.0000      -0.618808       -16.8386
  40   2.0000      -0.585384       -15.9291
  41   2.0000      -0.572984       -15.5917
  42   2.0000      -0.563188       -15.3251
  43   2.0000      -0.546151       -14.8615
  44   2.0000      -0.536478       -14.5983
  45   2.0000      -0.517993       -14.0953
  46   2.0000      -0.510851       -13.9010
  47   2.0000      -0.505962       -13.7679
  48   2.0000      -0.496985       -13.5237
  49   2.0000      -0.493565       -13.4306
  50   2.0000      -0.486310       -13.2332
  51   2.0000      -0.477573       -12.9954
  52   2.0000      -0.472281       -12.8514
  53   2.0000      -0.469736       -12.7822
  54   2.0000      -0.456460       -12.4209
  55   2.0000      -0.445714       -12.1285
  56   2.0000      -0.444691       -12.1007
  57   2.0000      -0.438871       -11.9423
  58   2.0000      -0.430133       -11.7045
  59   2.0000      -0.429510       -11.6876
  60   2.0000      -0.420243       -11.4354
  61   2.0000      -0.414388       -11.2761
  62   2.0000      -0.411302       -11.1921
  63   2.0000      -0.342232        -9.3126
  64   2.0000      -0.331504        -9.0207
  65   2.0000      -0.323627        -8.8063
  66   2.0000      -0.308818        -8.4034
  67   0.0000       0.039377         1.0715
  68   0.0000       0.057085         1.5533
  69   0.0000       0.111137         3.0242
  70   0.0000       0.116759         3.1772
  71   0.0000       0.130216         3.5434

MULLIKEN ATOMIC CHARGES
-----------------------
   0 S :    0.119300
   1 C :   -0.140616
   2 C :   -0.035834
   3 C :    0.029606
   4 C :   -0.169446
   5 H :    0.029727
   6 C :   -0.027002
   7 H :    0.039846
   8 H :    0.019199
   9 C :    0.036398
  10 H :    0.017760
  11 H :    0.026155
  12 C :   -0.095172
  13 H :    0.022731
  14 H :    0.028618
  15 H :    0.034241
  16 S :    0.109140
  17 C :   -0.120350
  18 C :   -0.051036
  19 C :   -0.018757
  20 C :   -0.212249
  21 H :    0.033031
  22 C :    0.092308
  23 H :    0.033723
  24 H :    0.029101
  25 C :   -0.099397
  26 H :    0.035524
  27 H :    0.041596
  28 C :   -0.081399
  29 H :    0.038121
  30 H :    0.031741
  31 H :    0.051755
  32 H :    0.067838
  33 H :    0.083802
Sum of atomic charges:   -0.0000000

LOEWDIN ATOMIC CHARGES
----------------------
   0 S :    0.418894
   1 C :   -0.211445
   2 C :   -0.073080
   3 C :   -0.065789
   4 C :   -0.204492
   5 H :    0.038122
   6 C :   -0.033835
   7 H :    0.038968
   8 H :    0.024488
   9 C :   -0.020106
  10 H :    0.015000
  11 H :    0.018460
  12 C :   -0.073243
  13 H :    0.019476
  14 H :    0.029750
  15 H :    0.025334
  16 S :    0.393302
  17 C :   -0.191186
  18 C :   -0.081997
  19 C :   -0.053817
  20 C :   -0.197338
  21 H :    0.041280
  22 C :   -0.022624
  23 H :    0.032207
  24 H :    0.026232
  25 C :   -0.041999
  26 H :    0.031375
  27 H :    0.025023
  28 C :   -0.082331
  29 H :    0.030531
  30 H :    0.021412
  31 H :    0.034571
  32 H :    0.039422
  33 H :    0.049434

  Mayer bond orders larger than 0.100000
B(  0-S ,  1-C ) :   1.1516 B(  0-S ,  4-C ) :   1.1628 B(  1-C ,  2-C ) :   1.5947
B(  1-C , 32-H ) :   0.9618 B(  2-C ,  3-C ) :   1.2773 B(  2-C ,  6-C ) :   0.9937
B(  3-C ,  4-C ) :   1.5542 B(  3-C ,  5-H ) :   0.9894 B(  4-C , 20-C ) :   1.0163
B(  6-C ,  7-H ) :   0.9500 B(  6-C ,  8-H ) :   0.9524 B(  6-C ,  9-C ) :   1.0603
B(  9-C , 10-H ) :   0.9544 B(  9-C , 11-H ) :   0.9579 B(  9-C , 12-C ) :   1.0679
B( 12-C , 13-H ) :   0.9783 B( 12-C , 14-H ) :   0.9764 B( 12-C , 15-H ) :   0.9775
B( 16-S , 17-C ) :   1.1269 B( 16-S , 20-C ) :   1.1522 B( 17-C , 18-C ) :   1.6688
B( 17-C , 33-H ) :   0.9497 B( 18-C , 19-C ) :   1.2062 B( 18-C , 21-H ) :   0.9818
B( 19-C , 20-C ) :   1.6312 B( 19-C , 22-C ) :   1.0342 B( 22-C , 23-H ) :   0.9293
B( 22-C , 24-H ) :   0.9430 B( 22-C , 25-C ) :   1.0664 B( 25-C , 26-H ) :   0.9541
B( 25-C , 27-H ) :   0.9586 B( 25-C , 28-C ) :   1.0665 B( 28-C , 29-H ) :   0.9740
B( 28-C , 30-H ) :   0.9777 B( 28-C , 31-H ) :   0.9717

Dispersion correction           -0.014266820
FINAL SINGLE POINT ENERGY     -1339.855017534258

DIPOLE MOMENT
-------------
                                X             Y             Z
Electronic contribution:     -2.40358     -27.28463       7.67587
Nuclear contribution   :      2.54398      27.73934      -7.82365
                        -----------------------------------------
Total Dipole Moment    :      0.14040       0.45472      -0.14778
                        -----------------------------------------
Magnitude (a.u.)       :      0.49831
Magnitude (Debye)      :      1.26662

Rotational constants in cm-1:     0.018024     0.008307     0.006702
Rotational constants in MHz :   540.350520   249.046478   200.918487

                             ****ORCA TERMINATED NORMALLY****
TOTAL RUN TIME: 0 days 0 hours 0 minutes 33 seconds 64 msec
