                         Program Version 4.2.1 -  RELEASE  -
|  1> ! wB97X-D3 SP def2-SVP
|  2> %pal
|  3> nprocs 16
|  4> end
|  5>
|  6> * xyz 0 1
|  7> S 	 -23.6626 	 50.2956 	 67.0341
|  8> C 	 -22.4042 	 50.0169 	 65.8905
|  9> C 	 -21.2349 	 49.7037 	 66.4691
| 10> C 	 -21.4144 	 49.3311 	 67.8274
| 11> C 	 -22.6352 	 49.7227 	 68.3166
| 12> H 	 -20.6576 	 48.9527 	 68.5558
| 13> C 	 -19.9394 	 49.7589 	 65.7199
| 14> H 	 -19.1395 	 49.968 	 66.4777
| 15> H 	 -19.9092 	 50.5289 	 64.9628
| 16> C 	 -19.5371 	 48.5054 	 64.9617
| 17> H 	 -18.4991 	 48.7641 	 64.7238
| 18> H 	 -19.6107 	 47.6351 	 65.6279
| 19> C 	 -20.3638 	 48.1149 	 63.7335
| 20> H 	 -20.2756 	 48.8402 	 62.9893
| 21> H 	 -20.0986 	 47.1895 	 63.1954
| 22> H 	 -21.4203 	 48.144 	 63.9893
| 23> S 	 -23.7326 	 50.7747 	 70.4866
| 24> C 	 -24.1674 	 49.7536 	 71.8556
| 25> C 	 -23.3984 	 48.6418 	 71.853
| 26> C 	 -22.7969 	 48.4106 	 70.5695
| 27> C 	 -23.0505 	 49.4486 	 69.6616
| 28> H 	 -23.4002 	 48.0219 	 72.6992
| 29> C 	 -22.0818 	 47.1487 	 70.2379
| 30> H 	 -22.2307 	 46.9874 	 69.1416
| 31> H 	 -22.74 	 46.3789 	 70.7248
| 32> C 	 -20.6054 	 47.0853 	 70.6139
| 33> H 	 -20.3693 	 47.53 	 71.6534
| 34> H 	 -19.9777 	 47.6679 	 69.9254
| 35> C 	 -20.0791 	 45.7364 	 70.6994
| 36> H 	 -19.9636 	 45.2688 	 69.6742
| 37> H 	 -20.5493 	 45.0054 	 71.3694
| 38> H 	 -19.0739 	 45.6557 	 71.0011
| 39> H 	 -22.4295 	 50.1956 	 64.7962
| 40> H 	 -24.7368 	 50.106 	 72.7075
| 41> *
| 42>
| 43>                          ****END OF INPUT****

CARTESIAN COORDINATES (ANGSTROEM)
---------------------------------
  S    -23.662600   50.295600   67.034100
  C    -22.404200   50.016900   65.890500
  C    -21.234900   49.703700   66.469100
  C    -21.414400   49.331100   67.827400
  C    -22.635200   49.722700   68.316600
  H    -20.657600   48.952700   68.555800
  C    -19.939400   49.758900   65.719900
  H    -19.139500   49.968000   66.477700
  H    -19.909200   50.528900   64.962800
  C    -19.537100   48.505400   64.961700
  H    -18.499100   48.764100   64.723800
  H    -19.610700   47.635100   65.627900
  C    -20.363800   48.114900   63.733500
  H    -20.275600   48.840200   62.989300
  H    -20.098600   47.189500   63.195400
  H    -21.420300   48.144000   63.989300
  S    -23.732600   50.774700   70.486600
  C    -24.167400   49.753600   71.855600
  C    -23.398400   48.641800   71.853000
  C    -22.796900   48.410600   70.569500
  C    -23.050500   49.448600   69.661600
  H    -23.400200   48.021900   72.699200
  C    -22.081800   47.148700   70.237900
  H    -22.230700   46.987400   69.141600
  H    -22.740000   46.378900   70.724800
  C    -20.605400   47.085300   70.613900
  H    -20.369300   47.530000   71.653400
  H    -19.977700   47.667900   69.925400
  C    -20.079100   45.736400   70.699400
  H    -19.963600   45.268800   69.674200
  H    -20.549300   45.005400   71.369400
  H    -19.073900   45.655700   71.001100
  H    -22.429500   50.195600   64.796200
  H    -24.736800   50.106000   72.707500

 Total Charge           Charge          ....    0
 Multiplicity           Mult            ....    1
 Number of Electrons    NEL             ....  134
 Basis Dimension        Dim             ....  322

ORBITAL ENERGIES
----------------

  NO   OCC          E(Eh)            E(eV)
   0   2.0000     -88.968125     -2420.9458
   1   2.0000     -88.956399     -2420.6267
   2   2.0000     -10.323769      -280.9240
   3   2.0000     -10.318756      -280.7876
   4   2.0000     -10.310745      -280.5696
   5   2.0000     -10.309783      -280.5434
   6   2.0000     -10.299418      -280.2614
   7   2.0000     -10.295277      -280.1487
   8   2.0000     -10.294055      -280.1155
   9   2.0000     -10.293553      -280.1018
  10   2.0000     -10.293414      -280.0980
  11   2.0000     -10.292875      -280.0834
  12   2.0000     -10.287699      -279.9425
  13   2.0000     -10.287252      -279.9304
  14   2.0000     -10.274482      -279.5829
  15   2.0000     -10.273478      -279.5555
  16   2.0000      -8.083424      -219.9611
  17   2.0000      -8.072472      -219.6631
  18   2.0000      -6.041963      -164.4102
  19   2.0000      -6.037921      -164.3002
  20   2.0000      -6.034020      -164.1940
  21   2.0000      -6.030960      -164.1108
  22   2.0000      -6.027008      -164.0032
  23   2.0000      -6.022957      -163.8930
  24   2.0000      -1.016783       -27.6681
  25   2.0000      -0.992726       -27.0134
  26   2.0000      -0.918984       -25.0068
  27   2.0000      -0.916251       -24.9325
  28   2.0000      -0.877323       -23.8732
  29   2.0000      -0.857871       -23.3439
  30   2.0000      -0.850170       -23.1343
  31   2.0000      -0.819618       -22.3029
  32   2.0000      -0.789750       -21.4902
  33   2.0000      -0.770564       -20.9681
  34   2.0000      -0.710314       -19.3286
  35   2.0000      -0.697240       -18.9729
  36   2.0000      -0.692939       -18.8558
  37   2.0000      -0.665649       -18.1132
  38   2.0000      -0.638363       -17.3707
  39   2.0000      -0.622194       -16.9308
  40   2.0000      -0.594700       -16.1826
  41   2.0000      -0.579615       -15.7721
  42   2.0000      -0.566617       -15.4184
  43   2.0000      -0.545430       -14.8419
  44   2.0000      -0.543161       -14.7802
  45   2.0000      -0.530558       -14.4372
  46   2.0000      -0.523859       -14.2549
  47   2.0000      -0.517390       -14.0789
  48   2.0000      -0.514049       -13.9880
  49   2.0000      -0.500027       -13.6064
  50   2.0000      -0.492297       -13.3961
  51   2.0000      -0.481287       -13.0965
  52   2.0000      -0.473691       -12.8898
  53   2.0000      -0.468472       -12.7478
  54   2.0000      -0.455781       -12.4024
  55   2.0000      -0.454266       -12.3612
  56   2.0000      -0.446117       -12.1394
  57   2.0000      -0.439066       -11.9476
  58   2.0000      -0.434700       -11.8288
  59   2.0000      -0.422943       -11.5089
  60   2.0000      -0.416881       -11.3439
  61   2.0000      -0.413859       -11.2617
  62   2.0000      -0.406237       -11.0543
  63   2.0000      -0.351259        -9.5582
  64   2.0000      -0.332209        -9.0399
  65   2.0000      -0.323130        -8.7928
  66   2.0000      -0.288672        -7.8552
  67   0.0000       0.028564         0.7773
  68   0.0000       0.074885         2.0377
  69   0.0000       0.104271         2.8373
  70   0.0000       0.121900         3.3171
  71   0.0000       0.129927         3.5355

MULLIKEN ATOMIC CHARGES
-----------------------
   0 S :    0.137285
   1 C :   -0.130773
   2 C :   -0.067284
   3 C :   -0.009292
   4 C :   -0.131829
   5 H :    0.009771
   6 C :    0.051128
   7 H :    0.035885
   8 H :    0.019923
   9 C :   -0.062138
  10 H :    0.032180
  11 H :    0.026769
  12 C :   -0.036559
  13 H :    0.000166
  14 H :    0.044548
  15 H :    0.028412
  16 S :    0.085005
  17 C :   -0.086022
  18 C :   -0.009025
  19 C :   -0.047418
  20 C :   -0.140889
  21 H :   -0.000541
  22 C :    0.027986
  23 H :    0.042853
  24 H :    0.033157
  25 C :   -0.059347
  26 H :    0.036961
  27 H :    0.034072
  28 C :   -0.039390
  29 H :    0.021361
  30 H :    0.032675
  31 H :    0.010761
  32 H :    0.055686
  33 H :    0.053924
Sum of atomic charges:    0.0000000

LOEWDIN ATOMIC CHARGES
----------------------
   0 S :    0.423694
   1 C :   -0.205058
   2 C :   -0.072738
   3 C :   -0.060099
   4 C :   -0.207709
   5 H :    0.037130
   6 C :   -0.030901
   7 H :    0.039713
   8 H :    0.028178
   9 C :   -0.038345
  10 H :    0.025613
  11 H :    0.023020
  12 C :   -0.069549
  13 H :    0.012269
  14 H :    0.034036
  15 H :    0.026065
  16 S :    0.405867
  17 C :   -0.175718
  18 C :   -0.062343
  19 C :   -0.062835
  20 C :   -0.206228
  21 H :    0.025027
  22 C :   -0.041568
  23 H :    0.039539
  24 H :    0.037987
  25 C :   -0.048591
  26 H :    0.034672
  27 H :    0.025374
  28 C :   -0.074655
  29 H :    0.029025
  30 H :    0.026808
  31 H :    0.020004
  32 H :    0.034980
  33 H :    0.027336

  Mayer bond orders larger than 0.100000
B(  0-S ,  1-C ) :   1.1365 B(  0-S ,  4-C ) :   1.1399 B(  1-C ,  2-C ) :   1.6289
B(  1-C , 32-H ) :   0.9525 B(  2-C ,  3-C ) :   1.2246 B(  2-C ,  6-C ) :   1.0267
B(  3-C ,  4-C ) :   1.5818 B(  3-C ,  5-H ) :   0.9843 B(  4-C , 20-C ) :   1.0466
B(  6-C ,  7-H ) :   0.9362 B(  6-C ,  8-H ) :   0.9410 B(  6-C ,  9-C ) :   1.0731
B(  9-C , 10-H ) :   0.9574 B(  9-C , 11-H ) :   0.9561 B(  9-C , 12-C ) :   1.0755
B( 12-C , 13-H ) :   0.9715 B( 12-C , 14-H ) :   0.9736 B( 12-C , 15-H ) :   0.9694
B( 16-S , 17-C ) :   1.1383 B( 16-S , 20-C ) :   1.1543 B( 17-C , 18-C ) :   1.6208
B( 17-C , 33-H ) :   0.9704 B( 18-C , 19-C ) :   1.2206 B( 18-C , 21-H ) :   1.0028
B( 19-C , 20-C ) :   1.5833 B( 19-C , 22-C ) :   1.0447 B( 22-C , 23-H ) :   0.9294
B( 22-C , 24-H ) :   0.9420 B( 22-C , 25-C ) :   1.0498 B( 25-C , 26-H ) :   0.9547
B( 25-C , 27-H ) :   0.9375 B( 25-C , 28-C ) :   1.1059 B( 28-C , 29-H ) :   0.9645
B( 28-C , 30-H ) :   0.9722 B( 28-C , 31-H ) :   0.9646

Dispersion correction           -0.014461459
FINAL SINGLE POINT ENERGY     -1339.858946329103

DIPOLE MOMENT
-------------
                                X             Y             Z
Electronic contribution:    -21.53425      19.26693       8.28371
Nuclear contribution   :     22.15754     -19.65116      -8.30733
                        -----------------------------------------
Total Dipole Moment    :      0.62329      -0.38423      -0.02362
                        -----------------------------------------
Magnitude (a.u.)       :      0.73258
Magnitude (Debye)      :      1.86208

Rotational constants in cm-1:     0.018612     0.009321     0.006646
Rotational constants in MHz :   557.966672   279.435986   199.242073

                             ****ORCA TERMINATED NORMALLY****
TOTAL RUN TIME: 0 days 0 hours 0 minutes 34 seconds 93 msec
