                         Program Version 4.2.1 -  RELEASE  -
|  1> ! wB97X-D3 SP def2-SVP
|  2> %pal
|  3> nprocs 16
|  4> end
|  5>
|  6> * xyz 0 1
|  7> S 	 -39.0315 	 19.8401 	 81.9824
|  8> C 	 -39.9288 	 18.6634 	 81.1351
|  9> C 	 -40.796 	 19.2968 	 80.2008
| 10> C 	 -40.647 	 20.7422 	 80.1672
| 11> C 	 -39.7111 	 21.1329 	 81.075
| 12> H 	 -41.1936 	 21.3897 	 79.5517
| 13> C 	 -41.9248 	 18.6343 	 79.5272
| 14> H 	 -41.6614 	 17.6081 	 79.5544
| 15> H 	 -41.7508 	 18.8815 	 78.4298
| 16> C 	 -43.2958 	 18.8845 	 80.1057
| 17> H 	 -44.002 	 18.1796 	 79.7418
| 18> H 	 -43.3636 	 18.6963 	 81.1958
| 19> C 	 -43.8688 	 20.2808 	 79.8372
| 20> H 	 -43.7546 	 20.6935 	 78.8516
| 21> H 	 -44.8881 	 20.3042 	 79.9911
| 22> H 	 -43.3604 	 20.9717 	 80.5262
| 23> S 	 -37.6265 	 22.9285 	 81.223
| 24> C 	 -37.9184 	 24.6499 	 81.3581
| 25> C 	 -39.2093 	 24.8566 	 81.681
| 26> C 	 -40.0365 	 23.6887 	 81.4404
| 27> C 	 -39.303 	 22.5349 	 81.2359
| 28> H 	 -39.5149 	 25.8442 	 81.9395
| 29> C 	 -41.5822 	 23.8139 	 81.5735
| 30> H 	 -41.7915 	 24.4048 	 82.4567
| 31> H 	 -41.9526 	 22.8671 	 81.8846
| 32> C 	 -42.2373 	 24.267 	 80.2268
| 33> H 	 -42.2987 	 23.4429 	 79.4657
| 34> H 	 -41.5978 	 25.073 	 79.834
| 35> C 	 -43.6027 	 24.8783 	 80.368
| 36> H 	 -43.7459 	 25.146 	 79.3058
| 37> H 	 -43.5418 	 25.7289 	 81.1175
| 38> H 	 -44.2689 	 24.0812 	 80.6022
| 39> H 	 -39.9644 	 17.5826 	 81.3883
| 40> H 	 -37.1415 	 25.4035 	 81.4138
| 41> *
| 42>
| 43>                          ****END OF INPUT****

CARTESIAN COORDINATES (ANGSTROEM)
---------------------------------
  S    -39.031500   19.840100   81.982400
  C    -39.928800   18.663400   81.135100
  C    -40.796000   19.296800   80.200800
  C    -40.647000   20.742200   80.167200
  C    -39.711100   21.132900   81.075000
  H    -41.193600   21.389700   79.551700
  C    -41.924800   18.634300   79.527200
  H    -41.661400   17.608100   79.554400
  H    -41.750800   18.881500   78.429800
  C    -43.295800   18.884500   80.105700
  H    -44.002000   18.179600   79.741800
  H    -43.363600   18.696300   81.195800
  C    -43.868800   20.280800   79.837200
  H    -43.754600   20.693500   78.851600
  H    -44.888100   20.304200   79.991100
  H    -43.360400   20.971700   80.526200
  S    -37.626500   22.928500   81.223000
  C    -37.918400   24.649900   81.358100
  C    -39.209300   24.856600   81.681000
  C    -40.036500   23.688700   81.440400
  C    -39.303000   22.534900   81.235900
  H    -39.514900   25.844200   81.939500
  C    -41.582200   23.813900   81.573500
  H    -41.791500   24.404800   82.456700
  H    -41.952600   22.867100   81.884600
  C    -42.237300   24.267000   80.226800
  H    -42.298700   23.442900   79.465700
  H    -41.597800   25.073000   79.834000
  C    -43.602700   24.878300   80.368000
  H    -43.745900   25.146000   79.305800
  H    -43.541800   25.728900   81.117500
  H    -44.268900   24.081200   80.602200
  H    -39.964400   17.582600   81.388300
  H    -37.141500   25.403500   81.413800

 Total Charge           Charge          ....    0
 Multiplicity           Mult            ....    1
 Number of Electrons    NEL             ....  134
 Basis Dimension        Dim             ....  322

ORBITAL ENERGIES
----------------

  NO   OCC          E(Eh)            E(eV)
   0   2.0000     -88.968609     -2420.9589
   1   2.0000     -88.958483     -2420.6834
   2   2.0000     -10.325814      -280.9797
   3   2.0000     -10.322945      -280.9016
   4   2.0000     -10.315369      -280.6955
   5   2.0000     -10.311829      -280.5991
   6   2.0000     -10.302628      -280.3488
   7   2.0000     -10.300159      -280.2816
   8   2.0000     -10.289786      -279.9993
   9   2.0000     -10.288936      -279.9762
  10   2.0000     -10.288355      -279.9604
  11   2.0000     -10.288197      -279.9561
  12   2.0000     -10.287351      -279.9331
  13   2.0000     -10.287201      -279.9290
  14   2.0000     -10.279741      -279.7260
  15   2.0000     -10.271961      -279.5143
  16   2.0000      -8.084348      -219.9863
  17   2.0000      -8.074073      -219.7067
  18   2.0000      -6.042866      -164.4348
  19   2.0000      -6.038587      -164.3183
  20   2.0000      -6.035185      -164.2257
  21   2.0000      -6.032656      -164.1569
  22   2.0000      -6.028469      -164.0430
  23   2.0000      -6.024681      -163.9399
  24   2.0000      -1.011407       -27.5218
  25   2.0000      -0.988614       -26.9016
  26   2.0000      -0.918149       -24.9841
  27   2.0000      -0.906574       -24.6691
  28   2.0000      -0.872829       -23.7509
  29   2.0000      -0.854104       -23.2413
  30   2.0000      -0.847325       -23.0569
  31   2.0000      -0.823489       -22.4083
  32   2.0000      -0.783263       -21.3137
  33   2.0000      -0.768887       -20.9225
  34   2.0000      -0.710780       -19.3413
  35   2.0000      -0.696439       -18.9511
  36   2.0000      -0.686706       -18.6862
  37   2.0000      -0.662231       -18.0202
  38   2.0000      -0.642573       -17.4853
  39   2.0000      -0.620701       -16.8901
  40   2.0000      -0.592168       -16.1137
  41   2.0000      -0.571306       -15.5460
  42   2.0000      -0.568571       -15.4716
  43   2.0000      -0.557155       -15.1610
  44   2.0000      -0.541501       -14.7350
  45   2.0000      -0.532250       -14.4833
  46   2.0000      -0.520479       -14.1630
  47   2.0000      -0.514994       -14.0137
  48   2.0000      -0.512204       -13.9378
  49   2.0000      -0.498726       -13.5710
  50   2.0000      -0.497815       -13.5462
  51   2.0000      -0.481472       -13.1015
  52   2.0000      -0.469025       -12.7628
  53   2.0000      -0.462815       -12.5938
  54   2.0000      -0.462232       -12.5780
  55   2.0000      -0.450685       -12.2638
  56   2.0000      -0.445449       -12.1213
  57   2.0000      -0.439470       -11.9586
  58   2.0000      -0.433668       -11.8007
  59   2.0000      -0.419831       -11.4242
  60   2.0000      -0.416982       -11.3466
  61   2.0000      -0.412260       -11.2182
  62   2.0000      -0.407173       -11.0798
  63   2.0000      -0.352928        -9.6037
  64   2.0000      -0.327491        -8.9115
  65   2.0000      -0.323469        -8.8021
  66   2.0000      -0.292959        -7.9718
  67   0.0000       0.039744         1.0815
  68   0.0000       0.073899         2.0109
  69   0.0000       0.117656         3.2016
  70   0.0000       0.120497         3.2789
  71   0.0000       0.127615         3.4726

MULLIKEN ATOMIC CHARGES
-----------------------
   0 S :    0.132955
   1 C :   -0.132110
   2 C :   -0.133867
   3 C :    0.046591
   4 C :   -0.125663
   5 H :   -0.023878
   6 C :    0.076316
   7 H :   -0.001688
   8 H :    0.039812
   9 C :   -0.028069
  10 H :    0.018561
  11 H :    0.030547
  12 C :   -0.040862
  13 H :    0.020983
  14 H :    0.015238
  15 H :    0.037976
  16 S :    0.093531
  17 C :   -0.090980
  18 C :   -0.012380
  19 C :   -0.076739
  20 C :   -0.139960
  21 H :    0.008979
  22 C :    0.098319
  23 H :    0.018869
  24 H :    0.006913
  25 C :   -0.122829
  26 H :    0.038158
  27 H :    0.031177
  28 C :   -0.023392
  29 H :    0.037546
  30 H :    0.049746
  31 H :    0.027495
  32 H :    0.066003
  33 H :    0.056702
Sum of atomic charges:   -0.0000000

LOEWDIN ATOMIC CHARGES
----------------------
   0 S :    0.440835
   1 C :   -0.229763
   2 C :   -0.058011
   3 C :   -0.054111
   4 C :   -0.199028
   5 H :    0.021139
   6 C :   -0.043130
   7 H :    0.024485
   8 H :    0.042277
   9 C :   -0.033815
  10 H :    0.020705
  11 H :    0.033867
  12 C :   -0.062083
  13 H :    0.020690
  14 H :    0.017203
  15 H :    0.026905
  16 S :    0.405159
  17 C :   -0.181205
  18 C :   -0.069005
  19 C :   -0.056359
  20 C :   -0.206564
  21 H :    0.026909
  22 C :   -0.032076
  23 H :    0.030012
  24 H :    0.020396
  25 C :   -0.044467
  26 H :    0.025421
  27 H :    0.023554
  28 C :   -0.065070
  29 H :    0.034234
  30 H :    0.033859
  31 H :    0.018853
  32 H :    0.037854
  33 H :    0.030330

  Mayer bond orders larger than 0.100000
B(  0-S ,  1-C ) :   1.1429 B(  0-S ,  4-C ) :   1.1763 B(  1-C ,  2-C ) :   1.5861
B(  1-C , 32-H ) :   0.9636 B(  2-C ,  3-C ) :   1.2418 B(  2-C ,  6-C ) :   1.0436
B(  3-C ,  4-C ) :   1.5483 B(  3-C ,  5-H ) :   1.0075 B(  4-C , 20-C ) :   1.0140
B(  6-C ,  7-H ) :   0.9268 B(  6-C ,  8-H ) :   0.9331 B(  6-C ,  9-C ) :   1.0646
B(  9-C , 10-H ) :   0.9546 B(  9-C , 11-H ) :   0.9500 B(  9-C , 12-C ) :   1.0849
B( 12-C , 13-H ) :   0.9730 B( 12-C , 14-H ) :   0.9674 B( 12-C , 15-H ) :   0.9704
B( 16-S , 17-C ) :   1.1456 B( 16-S , 20-C ) :   1.1406 B( 17-C , 18-C ) :   1.6326
B( 17-C , 33-H ) :   0.9672 B( 18-C , 19-C ) :   1.2194 B( 18-C , 21-H ) :   0.9931
B( 19-C , 20-C ) :   1.6183 B( 19-C , 22-C ) :   1.0376 B( 22-C , 23-H ) :   0.9423
B( 22-C , 24-H ) :   0.9285 B( 22-C , 25-C ) :   1.0436 B( 25-C , 26-H ) :   0.9491
B( 25-C , 27-H ) :   0.9643 B( 25-C , 28-C ) :   1.0780 B( 28-C , 29-H ) :   0.9741
B( 28-C , 30-H ) :   0.9744 B( 28-C , 31-H ) :   0.9738

Dispersion correction           -0.015812323
FINAL SINGLE POINT ENERGY     -1339.868125247433

DIPOLE MOMENT
-------------
                                X             Y             Z
Electronic contribution:     29.86326      -4.19900       8.64016
Nuclear contribution   :    -30.58356       4.30159      -8.70501
                        -----------------------------------------
Total Dipole Moment    :     -0.72031       0.10259      -0.06485
                        -----------------------------------------
Magnitude (a.u.)       :      0.73046
Magnitude (Debye)      :      1.85669

Rotational constants in cm-1:     0.016563     0.011336     0.007145
Rotational constants in MHz :   496.550160   339.857309   214.194337

                             ****ORCA TERMINATED NORMALLY****
TOTAL RUN TIME: 0 days 0 hours 0 minutes 30 seconds 707 msec
