                         Program Version 4.2.1 -  RELEASE  -
|  1> ! wB97X-D3 SP def2-SVP
|  2> %pal
|  3> nprocs 16
|  4> end
|  5>
|  6> * xyz 0 1
|  7> S 	 4.50895 	 -9.33 	 74.6211
|  8> C 	 2.91644 	 -8.6056 	 74.339
|  9> C 	 2.26004 	 -9.1442 	 73.2598
| 10> C 	 3.02938 	 -10.1733 	 72.5831
| 11> C 	 4.26296 	 -10.3732 	 73.1472
| 12> H 	 2.74248 	 -10.7371 	 71.6778
| 13> C 	 0.730853 	 -8.93283 	 72.9984
| 14> H 	 0.353239 	 -8.3769 	 73.8461
| 15> H 	 0.285157 	 -9.9643 	 73.0737
| 16> C 	 0.41375 	 -8.15451 	 71.72
| 17> H 	 1.00437 	 -7.26715 	 71.7417
| 18> H 	 0.871215 	 -8.70877 	 70.81
| 19> C 	 -1.07731 	 -7.9535 	 71.617
| 20> H 	 -1.27019 	 -7.14757 	 70.8855
| 21> H 	 -1.59584 	 -8.87735 	 71.4505
| 22> H 	 -1.47425 	 -7.54696 	 72.5307
| 23> S 	 6.86611 	 -10.423 	 72.3092
| 24> C 	 7.59653 	 -11.8518 	 71.7859
| 25> C 	 6.68986 	 -12.8205 	 71.8089
| 26> C 	 5.41906 	 -12.4683 	 72.2124
| 27> C 	 5.30715 	 -11.1849 	 72.6314
| 28> H 	 7.06043 	 -13.8212 	 71.5135
| 29> C 	 4.27628 	 -13.4756 	 72.0246
| 30> H 	 4.0834 	 -13.6334 	 70.9418
| 31> H 	 3.43598 	 -12.9831 	 72.3983
| 32> C 	 4.30459 	 -14.8322 	 72.877
| 33> H 	 3.70474 	 -14.682 	 73.7855
| 34> H 	 5.33369 	 -14.988 	 73.2849
| 35> C 	 3.70927 	 -16.0381 	 72.0528
| 36> H 	 2.85519 	 -15.7188 	 71.5091
| 37> H 	 3.55242 	 -16.9999 	 72.6358
| 38> H 	 4.45509 	 -16.3472 	 71.3287
| 39> H 	 2.48611 	 -8.01181 	 75.0957
| 40> H 	 8.62971 	 -11.9072 	 71.432
| 41> *
| 42>
| 43>                          ****END OF INPUT****

CARTESIAN COORDINATES (ANGSTROEM)
---------------------------------
  S      4.508950   -9.330000   74.621100
  C      2.916440   -8.605600   74.339000
  C      2.260040   -9.144200   73.259800
  C      3.029380  -10.173300   72.583100
  C      4.262960  -10.373200   73.147200
  H      2.742480  -10.737100   71.677800
  C      0.730853   -8.932830   72.998400
  H      0.353239   -8.376900   73.846100
  H      0.285157   -9.964300   73.073700
  C      0.413750   -8.154510   71.720000
  H      1.004370   -7.267150   71.741700
  H      0.871215   -8.708770   70.810000
  C     -1.077310   -7.953500   71.617000
  H     -1.270190   -7.147570   70.885500
  H     -1.595840   -8.877350   71.450500
  H     -1.474250   -7.546960   72.530700
  S      6.866110  -10.423000   72.309200
  C      7.596530  -11.851800   71.785900
  C      6.689860  -12.820500   71.808900
  C      5.419060  -12.468300   72.212400
  C      5.307150  -11.184900   72.631400
  H      7.060430  -13.821200   71.513500
  C      4.276280  -13.475600   72.024600
  H      4.083400  -13.633400   70.941800
  H      3.435980  -12.983100   72.398300
  C      4.304590  -14.832200   72.877000
  H      3.704740  -14.682000   73.785500
  H      5.333690  -14.988000   73.284900
  C      3.709270  -16.038100   72.052800
  H      2.855190  -15.718800   71.509100
  H      3.552420  -16.999900   72.635800
  H      4.455090  -16.347200   71.328700
  H      2.486110   -8.011810   75.095700
  H      8.629710  -11.907200   71.432000

 Total Charge           Charge          ....    0
 Multiplicity           Mult            ....    1
 Number of Electrons    NEL             ....  134
 Basis Dimension        Dim             ....  322

ORBITAL ENERGIES
----------------

  NO   OCC          E(Eh)            E(eV)
   0   2.0000     -88.965644     -2420.8782
   1   2.0000     -88.956150     -2420.6199
   2   2.0000     -10.332834      -281.1707
   3   2.0000     -10.320721      -280.8411
   4   2.0000     -10.314149      -280.6622
   5   2.0000     -10.306907      -280.4652
   6   2.0000     -10.305498      -280.4269
   7   2.0000     -10.300804      -280.2991
   8   2.0000     -10.297516      -280.2097
   9   2.0000     -10.295781      -280.1625
  10   2.0000     -10.295060      -280.1428
  11   2.0000     -10.290504      -280.0188
  12   2.0000     -10.289355      -279.9876
  13   2.0000     -10.282829      -279.8100
  14   2.0000     -10.280541      -279.7477
  15   2.0000     -10.277336      -279.6605
  16   2.0000      -8.079187      -219.8459
  17   2.0000      -8.072580      -219.6661
  18   2.0000      -6.037808      -164.2971
  19   2.0000      -6.034046      -164.1947
  20   2.0000      -6.030984      -164.1114
  21   2.0000      -6.029715      -164.0769
  22   2.0000      -6.026762      -163.9965
  23   2.0000      -6.023399      -163.9050
  24   2.0000      -1.016869       -27.6704
  25   2.0000      -0.982877       -26.7454
  26   2.0000      -0.911636       -24.8069
  27   2.0000      -0.898544       -24.4506
  28   2.0000      -0.877932       -23.8897
  29   2.0000      -0.849113       -23.1056
  30   2.0000      -0.843007       -22.9394
  31   2.0000      -0.817495       -22.2452
  32   2.0000      -0.780425       -21.2364
  33   2.0000      -0.770682       -20.9713
  34   2.0000      -0.711966       -19.3736
  35   2.0000      -0.699765       -19.0416
  36   2.0000      -0.697586       -18.9823
  37   2.0000      -0.658945       -17.9308
  38   2.0000      -0.644730       -17.5440
  39   2.0000      -0.619452       -16.8561
  40   2.0000      -0.600662       -16.3448
  41   2.0000      -0.568811       -15.4781
  42   2.0000      -0.560211       -15.2441
  43   2.0000      -0.544765       -14.8238
  44   2.0000      -0.530853       -14.4452
  45   2.0000      -0.527245       -14.3471
  46   2.0000      -0.521534       -14.1917
  47   2.0000      -0.510476       -13.8908
  48   2.0000      -0.507441       -13.8082
  49   2.0000      -0.501973       -13.6594
  50   2.0000      -0.493417       -13.4266
  51   2.0000      -0.478722       -13.0267
  52   2.0000      -0.469024       -12.7628
  53   2.0000      -0.464518       -12.6402
  54   2.0000      -0.462999       -12.5988
  55   2.0000      -0.450605       -12.2616
  56   2.0000      -0.444299       -12.0900
  57   2.0000      -0.438420       -11.9300
  58   2.0000      -0.432750       -11.7757
  59   2.0000      -0.420891       -11.4530
  60   2.0000      -0.413950       -11.2641
  61   2.0000      -0.411299       -11.1920
  62   2.0000      -0.410341       -11.1659
  63   2.0000      -0.353974        -9.6321
  64   2.0000      -0.332079        -9.0363
  65   2.0000      -0.326890        -8.8951
  66   2.0000      -0.295825        -8.0498
  67   0.0000       0.032539         0.8854
  68   0.0000       0.068916         1.8753
  69   0.0000       0.105249         2.8640
  70   0.0000       0.124757         3.3948
  71   0.0000       0.138493         3.7686

MULLIKEN ATOMIC CHARGES
-----------------------
   0 S :    0.096739
   1 C :   -0.108967
   2 C :   -0.073691
   3 C :    0.027146
   4 C :   -0.162997
   5 H :    0.033389
   6 C :    0.023057
   7 H :    0.011327
   8 H :    0.046142
   9 C :   -0.088524
  10 H :    0.024505
  11 H :    0.036423
  12 C :    0.001070
  13 H :    0.038240
  14 H :    0.033000
  15 H :    0.014132
  16 S :    0.094212
  17 C :   -0.092213
  18 C :   -0.044929
  19 C :   -0.029746
  20 C :   -0.158952
  21 H :    0.019502
  22 C :    0.079735
  23 H :    0.048243
  24 H :   -0.003235
  25 C :   -0.085426
  26 H :    0.037092
  27 H :    0.037403
  28 C :   -0.070417
  29 H :    0.036219
  30 H :    0.046592
  31 H :    0.029977
  32 H :    0.040823
  33 H :    0.064131
Sum of atomic charges:    0.0000000

LOEWDIN ATOMIC CHARGES
----------------------
   0 S :    0.362140
   1 C :   -0.178095
   2 C :   -0.062269
   3 C :   -0.057794
   4 C :   -0.168771
   5 H :    0.038803
   6 C :   -0.029494
   7 H :    0.023725
   8 H :    0.036370
   9 C :   -0.047316
  10 H :    0.021932
  11 H :    0.030851
  12 C :   -0.062128
  13 H :    0.032286
  14 H :    0.025919
  15 H :    0.021961
  16 S :    0.418337
  17 C :   -0.198451
  18 C :   -0.086237
  19 C :   -0.064239
  20 C :   -0.194989
  21 H :    0.035727
  22 C :   -0.028672
  23 H :    0.036066
  24 H :    0.018854
  25 C :   -0.038840
  26 H :    0.025243
  27 H :    0.024633
  28 C :   -0.070152
  29 H :    0.019829
  30 H :    0.034752
  31 H :    0.024102
  32 H :    0.018411
  33 H :    0.037506

  Mayer bond orders larger than 0.100000
B(  0-S ,  1-C ) :   1.1172 B(  0-S ,  4-C ) :   1.1172 B(  1-C ,  2-C ) :   1.6551
B(  1-C , 32-H ) :   0.9695 B(  2-C ,  3-C ) :   1.1984 B(  2-C ,  6-C ) :   1.0113
B(  3-C ,  4-C ) :   1.6182 B(  3-C ,  5-H ) :   0.9834 B(  4-C , 20-C ) :   1.0593
B(  6-C ,  7-H ) :   0.9456 B(  6-C ,  8-H ) :   0.9485 B(  6-C ,  9-C ) :   1.0527
B(  9-C , 10-H ) :   0.9533 B(  9-C , 11-H ) :   0.9558 B(  9-C , 12-C ) :   1.0820
B( 12-C , 13-H ) :   0.9725 B( 12-C , 14-H ) :   0.9729 B( 12-C , 15-H ) :   0.9699
B( 16-S , 17-C ) :   1.1655 B( 16-S , 20-C ) :   1.1421 B( 17-C , 18-C ) :   1.5995
B( 17-C , 33-H ) :   0.9667 B( 18-C , 19-C ) :   1.2439 B( 18-C , 21-H ) :   0.9937
B( 19-C , 20-C ) :   1.5999 B( 19-C , 22-C ) :   1.0420 B( 22-C , 23-H ) :   0.9514
B( 22-C , 24-H ) :   0.9192 B( 22-C , 25-C ) :   1.0292 B( 25-C , 26-H ) :   0.9645
B( 25-C , 27-H ) :   0.9716 B( 25-C , 28-C ) :   1.0567 B( 28-C , 29-H ) :   0.9783
B( 28-C , 30-H ) :   0.9750 B( 28-C , 31-H ) :   0.9796

Dispersion correction           -0.013275436
FINAL SINGLE POINT ENERGY     -1339.869296003243

DIPOLE MOMENT
-------------
                                X             Y             Z
Electronic contribution:     24.05161      11.43494       8.39816
Nuclear contribution   :    -24.58111     -11.74461      -8.66455
                        -----------------------------------------
Total Dipole Moment    :     -0.52950      -0.30967      -0.26640
                        -----------------------------------------
Magnitude (a.u.)       :      0.66875
Magnitude (Debye)      :      1.69984

Rotational constants in cm-1:     0.017282     0.007714     0.006136
Rotational constants in MHz :   518.115522   231.254691   183.950953

                             ****ORCA TERMINATED NORMALLY****
TOTAL RUN TIME: 0 days 0 hours 0 minutes 27 seconds 496 msec
