                         Program Version 4.2.1 -  RELEASE  -
|  1> ! wB97X-D3 SP def2-SVP
|  2> %pal
|  3> nprocs 16
|  4> end
|  5>
|  6> * xyz 0 1
|  7> S 	 -5.17476 	 8.23966 	 84.0862
|  8> C 	 -5.51489 	 6.89724 	 85.2016
|  9> C 	 -6.72593 	 7.07162 	 85.8571
| 10> C 	 -7.431 	 8.24394 	 85.4091
| 11> C 	 -6.74627 	 9.00495 	 84.4899
| 12> H 	 -8.2828 	 8.72618 	 85.7321
| 13> C 	 -7.38251 	 6.10189 	 86.812
| 14> H 	 -7.41027 	 6.5889 	 87.7985
| 15> H 	 -6.61918 	 5.32828 	 86.9004
| 16> C 	 -8.53341 	 5.27053 	 86.2588
| 17> H 	 -9.17305 	 5.83104 	 85.5582
| 18> H 	 -8.04175 	 4.47416 	 85.5718
| 19> C 	 -9.35235 	 4.59095 	 87.3289
| 20> H 	 -9.73973 	 5.35571 	 88.0878
| 21> H 	 -10.2684 	 4.0837 	 86.9487
| 22> H 	 -8.87362 	 3.76802 	 87.7961
| 23> S 	 -7.27927 	 11.8001 	 84.3431
| 24> C 	 -8.01295 	 12.4018 	 82.9085
| 25> C 	 -8.33698 	 11.3232 	 82.0711
| 26> C 	 -7.90158 	 10.0076 	 82.4928
| 27> C 	 -7.30051 	 10.1274 	 83.7317
| 28> H 	 -8.99635 	 11.4656 	 81.2217
| 29> C 	 -8.1449 	 8.75941 	 81.6607
| 30> H 	 -9.18304 	 8.64228 	 81.5715
| 31> H 	 -7.7963 	 7.83187 	 82.0893
| 32> C 	 -7.51574 	 8.76895 	 80.3146
| 33> H 	 -7.91305 	 9.57015 	 79.6247
| 34> H 	 -7.86709 	 7.92437 	 79.7143
| 35> C 	 -5.91385 	 8.72434 	 80.2924
| 36> H 	 -5.61637 	 8.75693 	 79.1816
| 37> H 	 -5.50277 	 7.8992 	 80.7503
| 38> H 	 -5.51694 	 9.57717 	 80.7126
| 39> H 	 -4.90138 	 5.96974 	 85.2368
| 40> H 	 -8.44502 	 13.3953 	 82.7825
| 41> *
| 42>
| 43>                          ****END OF INPUT****

CARTESIAN COORDINATES (ANGSTROEM)
---------------------------------
  S     -5.174760    8.239660   84.086200
  C     -5.514890    6.897240   85.201600
  C     -6.725930    7.071620   85.857100
  C     -7.431000    8.243940   85.409100
  C     -6.746270    9.004950   84.489900
  H     -8.282800    8.726180   85.732100
  C     -7.382510    6.101890   86.812000
  H     -7.410270    6.588900   87.798500
  H     -6.619180    5.328280   86.900400
  C     -8.533410    5.270530   86.258800
  H     -9.173050    5.831040   85.558200
  H     -8.041750    4.474160   85.571800
  C     -9.352350    4.590950   87.328900
  H     -9.739730    5.355710   88.087800
  H    -10.268400    4.083700   86.948700
  H     -8.873620    3.768020   87.796100
  S     -7.279270   11.800100   84.343100
  C     -8.012950   12.401800   82.908500
  C     -8.336980   11.323200   82.071100
  C     -7.901580   10.007600   82.492800
  C     -7.300510   10.127400   83.731700
  H     -8.996350   11.465600   81.221700
  C     -8.144900    8.759410   81.660700
  H     -9.183040    8.642280   81.571500
  H     -7.796300    7.831870   82.089300
  C     -7.515740    8.768950   80.314600
  H     -7.913050    9.570150   79.624700
  H     -7.867090    7.924370   79.714300
  C     -5.913850    8.724340   80.292400
  H     -5.616370    8.756930   79.181600
  H     -5.502770    7.899200   80.750300
  H     -5.516940    9.577170   80.712600
  H     -4.901380    5.969740   85.236800
  H     -8.445020   13.395300   82.782500

 Total Charge           Charge          ....    0
 Multiplicity           Mult            ....    1
 Number of Electrons    NEL             ....  134
 Basis Dimension        Dim             ....  322

ORBITAL ENERGIES
----------------

  NO   OCC          E(Eh)            E(eV)
   0   2.0000     -88.967272     -2420.9226
   1   2.0000     -88.964797     -2420.8552
   2   2.0000     -10.327988      -281.0388
   3   2.0000     -10.326897      -281.0091
   4   2.0000     -10.321741      -280.8688
   5   2.0000     -10.320003      -280.8215
   6   2.0000     -10.306285      -280.4483
   7   2.0000     -10.304580      -280.4019
   8   2.0000     -10.296829      -280.1910
   9   2.0000     -10.296301      -280.1766
  10   2.0000     -10.291601      -280.0487
  11   2.0000     -10.288276      -279.9582
  12   2.0000     -10.288253      -279.9576
  13   2.0000     -10.286024      -279.8970
  14   2.0000     -10.283512      -279.8286
  15   2.0000     -10.268970      -279.4329
  16   2.0000      -8.081865      -219.9187
  17   2.0000      -8.078243      -219.8202
  18   2.0000      -6.040431      -164.3685
  19   2.0000      -6.036839      -164.2707
  20   2.0000      -6.036345      -164.2573
  21   2.0000      -6.032900      -164.1635
  22   2.0000      -6.032623      -164.1560
  23   2.0000      -6.029010      -164.0577
  24   2.0000      -1.000858       -27.2347
  25   2.0000      -0.978678       -26.6312
  26   2.0000      -0.912893       -24.8411
  27   2.0000      -0.910347       -24.7718
  28   2.0000      -0.867672       -23.6106
  29   2.0000      -0.846581       -23.0366
  30   2.0000      -0.841867       -22.9084
  31   2.0000      -0.811762       -22.0892
  32   2.0000      -0.789656       -21.4876
  33   2.0000      -0.771299       -20.9881
  34   2.0000      -0.705071       -19.1859
  35   2.0000      -0.698074       -18.9956
  36   2.0000      -0.692247       -18.8370
  37   2.0000      -0.656910       -17.8754
  38   2.0000      -0.644359       -17.5339
  39   2.0000      -0.615702       -16.7541
  40   2.0000      -0.600042       -16.3280
  41   2.0000      -0.565861       -15.3979
  42   2.0000      -0.557801       -15.1785
  43   2.0000      -0.554768       -15.0960
  44   2.0000      -0.538956       -14.6658
  45   2.0000      -0.523809       -14.2536
  46   2.0000      -0.515184       -14.0189
  47   2.0000      -0.512455       -13.9446
  48   2.0000      -0.510081       -13.8800
  49   2.0000      -0.494153       -13.4466
  50   2.0000      -0.489603       -13.3228
  51   2.0000      -0.477949       -13.0056
  52   2.0000      -0.473639       -12.8884
  53   2.0000      -0.462068       -12.5735
  54   2.0000      -0.455491       -12.3945
  55   2.0000      -0.447293       -12.1715
  56   2.0000      -0.441732       -12.0201
  57   2.0000      -0.432892       -11.7796
  58   2.0000      -0.432601       -11.7717
  59   2.0000      -0.422591       -11.4993
  60   2.0000      -0.420024       -11.4294
  61   2.0000      -0.410983       -11.1834
  62   2.0000      -0.404505       -11.0071
  63   2.0000      -0.336109        -9.1460
  64   2.0000      -0.328439        -8.9373
  65   2.0000      -0.320094        -8.7102
  66   2.0000      -0.313262        -8.5243
  67   0.0000       0.041477         1.1286
  68   0.0000       0.054631         1.4866
  69   0.0000       0.111944         3.0462
  70   0.0000       0.117125         3.1871
  71   0.0000       0.128122         3.4864

MULLIKEN ATOMIC CHARGES
-----------------------
   0 S :    0.097605
   1 C :   -0.140665
   2 C :   -0.091891
   3 C :    0.083224
   4 C :   -0.184012
   5 H :   -0.016206
   6 C :    0.077549
   7 H :    0.048861
   8 H :    0.005693
   9 C :   -0.086982
  10 H :    0.034958
  11 H :    0.036206
  12 C :   -0.052117
  13 H :    0.044355
  14 H :    0.031564
  15 H :    0.027625
  16 S :    0.117500
  17 C :   -0.093980
  18 C :   -0.049111
  19 C :   -0.012156
  20 C :   -0.212915
  21 H :    0.018831
  22 C :    0.154943
  23 H :    0.017754
  24 H :    0.022956
  25 C :   -0.126169
  26 H :    0.024922
  27 H :    0.021526
  28 C :   -0.016289
  29 H :    0.034678
  30 H :    0.020708
  31 H :    0.024236
  32 H :    0.066338
  33 H :    0.070462
Sum of atomic charges:   -0.0000000

LOEWDIN ATOMIC CHARGES
----------------------
   0 S :    0.374220
   1 C :   -0.194426
   2 C :   -0.063378
   3 C :   -0.048670
   4 C :   -0.176036
   5 H :    0.021652
   6 C :   -0.041001
   7 H :    0.036972
   8 H :    0.031351
   9 C :   -0.046012
  10 H :    0.021524
  11 H :    0.035054
  12 C :   -0.072941
  13 H :    0.034679
  14 H :    0.030880
  15 H :    0.019787
  16 S :    0.406908
  17 C :   -0.201904
  18 C :   -0.069263
  19 C :   -0.043239
  20 C :   -0.202718
  21 H :    0.026484
  22 C :   -0.028215
  23 H :    0.030601
  24 H :    0.034156
  25 C :   -0.045181
  26 H :    0.023410
  27 H :    0.023596
  28 C :   -0.051952
  29 H :    0.037053
  30 H :    0.009688
  31 H :    0.013286
  32 H :    0.037256
  33 H :    0.036378

  Mayer bond orders larger than 0.100000
B(  0-S ,  1-C ) :   1.1310 B(  0-S ,  4-C ) :   1.1223 B(  1-C ,  2-C ) :   1.6386
B(  1-C , 32-H ) :   0.9579 B(  2-C ,  3-C ) :   1.1888 B(  2-C ,  6-C ) :   1.0333
B(  3-C ,  4-C ) :   1.6402 B(  3-C ,  5-H ) :   0.9980 B(  4-C , 20-C ) :   1.0152
B(  6-C ,  7-H ) :   0.9418 B(  6-C ,  8-H ) :   0.9375 B(  6-C ,  9-C ) :   1.0331
B(  9-C , 10-H ) :   0.9650 B(  9-C , 11-H ) :   0.9549 B(  9-C , 12-C ) :   1.0803
B( 12-C , 13-H ) :   0.9751 B( 12-C , 14-H ) :   0.9710 B( 12-C , 15-H ) :   0.9748
B( 16-S , 17-C ) :   1.1550 B( 16-S , 20-C ) :   1.1425 B( 17-C , 18-C ) :   1.6083
B( 17-C , 33-H ) :   0.9649 B( 18-C , 19-C ) :   1.2365 B( 18-C , 21-H ) :   0.9827
B( 19-C , 20-C ) :   1.5964 B( 19-C , 22-C ) :   1.0404 B( 22-C , 23-H ) :   0.9215
B( 22-C , 24-H ) :   0.9278 B( 22-C , 25-C ) :   1.0870 B( 25-C , 26-H ) :   0.9541
B( 25-C , 27-H ) :   0.9526 B( 25-C , 28-C ) :   1.0598 B( 28-C , 29-H ) :   0.9743
B( 28-C , 30-H ) :   0.9765 B( 28-C , 31-H ) :   0.9801

Dispersion correction           -0.015117901
FINAL SINGLE POINT ENERGY     -1339.863205575748

DIPOLE MOMENT
-------------
                                X             Y             Z
Electronic contribution:      9.60085      20.26511       3.99866
Nuclear contribution   :    -10.19048     -20.76384      -4.10173
                        -----------------------------------------
Total Dipole Moment    :     -0.58963      -0.49873      -0.10307
                        -----------------------------------------
Magnitude (a.u.)       :      0.77912
Magnitude (Debye)      :      1.98036

Rotational constants in cm-1:     0.019346     0.007991     0.007331
Rotational constants in MHz :   579.969560   239.552629   219.776422

                             ****ORCA TERMINATED NORMALLY****
TOTAL RUN TIME: 0 days 0 hours 0 minutes 36 seconds 640 msec
