                         Program Version 4.2.1 -  RELEASE  -
|  1> ! wB97X-D3 SP def2-SVP
|  2> %pal
|  3> nprocs 16
|  4> end
|  5>
|  6> * xyz 0 1
|  7> S 	 -36.1893 	 74.6336 	 154.434
|  8> C 	 -35.133 	 75.5727 	 153.343
|  9> C 	 -34.7256 	 74.779 	 152.265
| 10> C 	 -35.1813 	 73.5032 	 152.362
| 11> C 	 -36.1081 	 73.2762 	 153.365
| 12> H 	 -34.903 	 72.7693 	 151.666
| 13> C 	 -33.7162 	 75.0898 	 151.15
| 14> H 	 -32.8643 	 74.4134 	 151.272
| 15> H 	 -33.4033 	 76.0905 	 151.227
| 16> C 	 -34.2364 	 74.8966 	 149.763
| 17> H 	 -34.499 	 73.8904 	 149.528
| 18> H 	 -35.1062 	 75.4907 	 149.631
| 19> C 	 -33.1218 	 75.241 	 148.663
| 20> H 	 -32.7795 	 76.2913 	 148.898
| 21> H 	 -32.3768 	 74.4343 	 148.684
| 22> H 	 -33.6202 	 75.1821 	 147.708
| 23> S 	 -38.5513 	 72.1314 	 153.368
| 24> C 	 -38.6834 	 70.449 	 153.658
| 25> C 	 -37.4729 	 69.7706 	 153.844
| 26> C 	 -36.3886 	 70.7348 	 153.761
| 27> C 	 -36.8299 	 72.0604 	 153.636
| 28> H 	 -37.3664 	 68.746 	 153.917
| 29> C 	 -34.9468 	 70.3389 	 154.016
| 30> H 	 -34.2251 	 71.0567 	 153.632
| 31> H 	 -34.8398 	 69.4463 	 153.551
| 32> C 	 -34.5495 	 70.0981 	 155.506
| 33> H 	 -33.6279 	 69.6412 	 155.659
| 34> H 	 -35.2121 	 69.3435 	 155.916
| 35> C 	 -34.5792 	 71.3772 	 156.372
| 36> H 	 -34.5544 	 71.2006 	 157.437
| 37> H 	 -35.4911 	 71.9954 	 156.146
| 38> H 	 -33.7394 	 72.0582 	 156.071
| 39> H 	 -34.892 	 76.6068 	 153.527
| 40> H 	 -39.5205 	 69.7848 	 153.385
| 41> *
| 42>
| 43>                          ****END OF INPUT****

CARTESIAN COORDINATES (ANGSTROEM)
---------------------------------
  S    -36.189300   74.633600  154.434000
  C    -35.133000   75.572700  153.343000
  C    -34.725600   74.779000  152.265000
  C    -35.181300   73.503200  152.362000
  C    -36.108100   73.276200  153.365000
  H    -34.903000   72.769300  151.666000
  C    -33.716200   75.089800  151.150000
  H    -32.864300   74.413400  151.272000
  H    -33.403300   76.090500  151.227000
  C    -34.236400   74.896600  149.763000
  H    -34.499000   73.890400  149.528000
  H    -35.106200   75.490700  149.631000
  C    -33.121800   75.241000  148.663000
  H    -32.779500   76.291300  148.898000
  H    -32.376800   74.434300  148.684000
  H    -33.620200   75.182100  147.708000
  S    -38.551300   72.131400  153.368000
  C    -38.683400   70.449000  153.658000
  C    -37.472900   69.770600  153.844000
  C    -36.388600   70.734800  153.761000
  C    -36.829900   72.060400  153.636000
  H    -37.366400   68.746000  153.917000
  C    -34.946800   70.338900  154.016000
  H    -34.225100   71.056700  153.632000
  H    -34.839800   69.446300  153.551000
  C    -34.549500   70.098100  155.506000
  H    -33.627900   69.641200  155.659000
  H    -35.212100   69.343500  155.916000
  C    -34.579200   71.377200  156.372000
  H    -34.554400   71.200600  157.437000
  H    -35.491100   71.995400  156.146000
  H    -33.739400   72.058200  156.071000
  H    -34.892000   76.606800  153.527000
  H    -39.520500   69.784800  153.385000

 Total Charge           Charge          ....    0
 Multiplicity           Mult            ....    1
 Number of Electrons    NEL             ....  134
 Basis Dimension        Dim             ....  322

ORBITAL ENERGIES
----------------

  NO   OCC          E(Eh)            E(eV)
   0   2.0000     -88.968879     -2420.9663
   1   2.0000     -88.968117     -2420.9455
   2   2.0000     -10.324752      -280.9508
   3   2.0000     -10.322780      -280.8971
   4   2.0000     -10.317534      -280.7544
   5   2.0000     -10.316642      -280.7301
   6   2.0000     -10.306710      -280.4598
   7   2.0000     -10.295722      -280.1608
   8   2.0000     -10.294098      -280.1167
   9   2.0000     -10.287868      -279.9471
  10   2.0000     -10.287251      -279.9303
  11   2.0000     -10.282911      -279.8122
  12   2.0000     -10.280783      -279.7543
  13   2.0000     -10.280164      -279.7375
  14   2.0000     -10.278375      -279.6888
  15   2.0000     -10.273079      -279.5447
  16   2.0000      -8.084234      -219.9832
  17   2.0000      -8.082333      -219.9315
  18   2.0000      -6.042600      -164.4275
  19   2.0000      -6.040680      -164.3753
  20   2.0000      -6.038673      -164.3207
  21   2.0000      -6.036869      -164.2716
  22   2.0000      -6.035075      -164.2228
  23   2.0000      -6.033348      -164.1757
  24   2.0000      -1.009927       -27.4815
  25   2.0000      -0.986087       -26.8328
  26   2.0000      -0.915946       -24.9241
  27   2.0000      -0.905902       -24.6508
  28   2.0000      -0.868961       -23.6456
  29   2.0000      -0.850182       -23.1346
  30   2.0000      -0.845596       -23.0098
  31   2.0000      -0.808965       -22.0131
  32   2.0000      -0.784529       -21.3481
  33   2.0000      -0.770601       -20.9691
  34   2.0000      -0.708129       -19.2692
  35   2.0000      -0.697689       -18.9851
  36   2.0000      -0.691765       -18.8239
  37   2.0000      -0.665222       -18.1016
  38   2.0000      -0.642958       -17.4958
  39   2.0000      -0.632060       -17.1992
  40   2.0000      -0.591608       -16.0985
  41   2.0000      -0.575995       -15.6736
  42   2.0000      -0.567557       -15.4440
  43   2.0000      -0.554236       -15.0815
  44   2.0000      -0.542879       -14.7725
  45   2.0000      -0.521174       -14.1819
  46   2.0000      -0.513224       -13.9655
  47   2.0000      -0.506482       -13.7821
  48   2.0000      -0.502318       -13.6688
  49   2.0000      -0.495284       -13.4774
  50   2.0000      -0.492924       -13.4131
  51   2.0000      -0.478493       -13.0204
  52   2.0000      -0.469383       -12.7726
  53   2.0000      -0.464448       -12.6383
  54   2.0000      -0.454840       -12.3768
  55   2.0000      -0.449694       -12.2368
  56   2.0000      -0.448023       -12.1913
  57   2.0000      -0.437238       -11.8978
  58   2.0000      -0.434152       -11.8139
  59   2.0000      -0.431066       -11.7299
  60   2.0000      -0.425118       -11.5680
  61   2.0000      -0.412077       -11.2132
  62   2.0000      -0.409605       -11.1459
  63   2.0000      -0.339513        -9.2386
  64   2.0000      -0.335275        -9.1233
  65   2.0000      -0.329406        -8.9636
  66   2.0000      -0.292731        -7.9656
  67   0.0000       0.034220         0.9312
  68   0.0000       0.058993         1.6053
  69   0.0000       0.108946         2.9646
  70   0.0000       0.115013         3.1297
  71   0.0000       0.130896         3.5619

MULLIKEN ATOMIC CHARGES
-----------------------
   0 S :    0.115825
   1 C :   -0.146648
   2 C :   -0.050448
   3 C :    0.044243
   4 C :   -0.162055
   5 H :   -0.009577
   6 C :    0.118011
   7 H :    0.030507
   8 H :   -0.003799
   9 C :   -0.106228
  10 H :    0.020315
  11 H :    0.025667
  12 C :   -0.059285
  13 H :    0.045417
  14 H :    0.039452
  15 H :    0.036762
  16 S :    0.132152
  17 C :   -0.079106
  18 C :   -0.024819
  19 C :   -0.055221
  20 C :   -0.163637
  21 H :   -0.004765
  22 C :    0.123404
  23 H :    0.021265
  24 H :   -0.008691
  25 C :   -0.039302
  26 H :    0.012517
  27 H :    0.009670
  28 C :   -0.076579
  29 H :    0.036625
  30 H :    0.034758
  31 H :    0.033411
  32 H :    0.043519
  33 H :    0.066639
Sum of atomic charges:    0.0000000

LOEWDIN ATOMIC CHARGES
----------------------
   0 S :    0.413353
   1 C :   -0.190817
   2 C :   -0.061547
   3 C :   -0.057812
   4 C :   -0.203631
   5 H :    0.023002
   6 C :   -0.022467
   7 H :    0.034471
   8 H :    0.020235
   9 C :   -0.036165
  10 H :    0.015545
  11 H :    0.019108
  12 C :   -0.061074
  13 H :    0.030450
  14 H :    0.025938
  15 H :    0.024582
  16 S :    0.437028
  17 C :   -0.202919
  18 C :   -0.059409
  19 C :   -0.042333
  20 C :   -0.215321
  21 H :    0.019289
  22 C :   -0.020881
  23 H :    0.029482
  24 H :    0.016005
  25 C :   -0.033184
  26 H :    0.015124
  27 H :    0.019237
  28 C :   -0.072609
  29 H :    0.022989
  30 H :    0.025946
  31 H :    0.028235
  32 H :    0.023412
  33 H :    0.036741

  Mayer bond orders larger than 0.100000
B(  0-S ,  1-C ) :   1.1436 B(  0-S ,  4-C ) :   1.1773 B(  1-C ,  2-C ) :   1.5622
B(  1-C ,  4-C ) :   0.1179 B(  1-C , 32-H ) :   0.9750 B(  2-C ,  3-C ) :   1.2929
B(  2-C ,  6-C ) :   1.0204 B(  3-C ,  4-C ) :   1.5311 B(  3-C ,  5-H ) :   1.0070
B(  4-C , 20-C ) :   1.0249 B(  6-C ,  7-H ) :   0.9399 B(  6-C ,  8-H ) :   0.9337
B(  6-C ,  9-C ) :   1.0712 B(  9-C , 10-H ) :   0.9547 B(  9-C , 11-H ) :   0.9569
B(  9-C , 12-C ) :   1.0783 B( 12-C , 13-H ) :   0.9765 B( 12-C , 14-H ) :   0.9772
B( 12-C , 15-H ) :   0.9772 B( 16-S , 17-C ) :   1.1763 B( 16-S , 20-C ) :   1.1480
B( 17-C , 18-C ) :   1.5941 B( 17-C , 33-H ) :   0.9567 B( 18-C , 19-C ) :   1.2440
B( 18-C , 21-H ) :   0.9996 B( 19-C , 20-C ) :   1.5803 B( 19-C , 22-C ) :   1.0581
B( 22-C , 23-H ) :   0.9389 B( 22-C , 24-H ) :   0.9145 B( 22-C , 25-C ) :   1.0769
B( 25-C , 26-H ) :   0.9549 B( 25-C , 27-H ) :   0.9524 B( 25-C , 28-C ) :   1.0725
B( 28-C , 29-H ) :   0.9748 B( 28-C , 30-H ) :   0.9750 B( 28-C , 31-H ) :   0.9748

Dispersion correction           -0.014957007
FINAL SINGLE POINT ENERGY     -1339.866161195284

DIPOLE MOMENT
-------------
                                X             Y             Z
Electronic contribution:    -20.55812       2.28489       8.59585
Nuclear contribution   :     21.00500      -2.62408      -9.04461
                        -----------------------------------------
Total Dipole Moment    :      0.44688      -0.33919      -0.44876
                        -----------------------------------------
Magnitude (a.u.)       :      0.71843
Magnitude (Debye)      :      1.82610

Rotational constants in cm-1:     0.019260     0.008034     0.007705
Rotational constants in MHz :   577.392738   240.853317   230.998256

                             ****ORCA TERMINATED NORMALLY****
TOTAL RUN TIME: 0 days 0 hours 0 minutes 35 seconds 545 msec
