                         Program Version 4.2.1 -  RELEASE  -
|  1> ! wB97X-D3 SP def2-SVP
|  2> %pal
|  3> nprocs 16
|  4> end
|  5>
|  6> * xyz 0 1
|  7> S 	 -45.0142 	 36.1974 	 78.2038
|  8> C 	 -44.2392 	 37.6761 	 78.4961
|  9> C 	 -43.6191 	 37.7369 	 79.7507
| 10> C 	 -43.8747 	 36.4944 	 80.4598
| 11> C 	 -44.5599 	 35.5495 	 79.7543
| 12> H 	 -43.5889 	 36.2782 	 81.4439
| 13> C 	 -42.9833 	 38.9439 	 80.4438
| 14> H 	 -43.8079 	 39.2162 	 81.1567
| 15> H 	 -42.8452 	 39.6978 	 79.6929
| 16> C 	 -41.6274 	 38.6109 	 81.1397
| 17> H 	 -41.5725 	 37.6004 	 81.4674
| 18> H 	 -40.8715 	 38.6671 	 80.3183
| 19> C 	 -41.1446 	 39.6564 	 82.0947
| 20> H 	 -40.2139 	 39.332 	 82.5675
| 21> H 	 -41.0086 	 40.6223 	 81.6437
| 22> H 	 -41.9146 	 39.6099 	 82.861
| 23> S 	 -45.0149 	 32.9751 	 78.8963
| 24> C 	 -45.314 	 31.6791 	 80.1148
| 25> C 	 -45.4627 	 32.224 	 81.3638
| 26> C 	 -45.3098 	 33.6757 	 81.3987
| 27> C 	 -44.8431 	 34.1737 	 80.1689
| 28> H 	 -45.7901 	 31.5603 	 82.1214
| 29> C 	 -45.3505 	 34.496 	 82.6313
| 30> H 	 -46.2903 	 34.218 	 83.2455
| 31> H 	 -45.4982 	 35.5451 	 82.4433
| 32> C 	 -44.1377 	 34.2966 	 83.6057
| 33> H 	 -43.3146 	 34.904 	 83.366
| 34> H 	 -43.7864 	 33.2639 	 83.5893
| 35> C 	 -44.3285 	 34.5418 	 85.0604
| 36> H 	 -45.0217 	 33.7947 	 85.4853
| 37> H 	 -44.8104 	 35.5154 	 85.2253
| 38> H 	 -43.4356 	 34.3903 	 85.6964
| 39> H 	 -44.1044 	 38.5145 	 77.7664
| 40> H 	 -45.2264 	 30.6089 	 79.8969
| 41> *
| 42>
| 43>                          ****END OF INPUT****

CARTESIAN COORDINATES (ANGSTROEM)
---------------------------------
  S    -45.014200   36.197400   78.203800
  C    -44.239200   37.676100   78.496100
  C    -43.619100   37.736900   79.750700
  C    -43.874700   36.494400   80.459800
  C    -44.559900   35.549500   79.754300
  H    -43.588900   36.278200   81.443900
  C    -42.983300   38.943900   80.443800
  H    -43.807900   39.216200   81.156700
  H    -42.845200   39.697800   79.692900
  C    -41.627400   38.610900   81.139700
  H    -41.572500   37.600400   81.467400
  H    -40.871500   38.667100   80.318300
  C    -41.144600   39.656400   82.094700
  H    -40.213900   39.332000   82.567500
  H    -41.008600   40.622300   81.643700
  H    -41.914600   39.609900   82.861000
  S    -45.014900   32.975100   78.896300
  C    -45.314000   31.679100   80.114800
  C    -45.462700   32.224000   81.363800
  C    -45.309800   33.675700   81.398700
  C    -44.843100   34.173700   80.168900
  H    -45.790100   31.560300   82.121400
  C    -45.350500   34.496000   82.631300
  H    -46.290300   34.218000   83.245500
  H    -45.498200   35.545100   82.443300
  C    -44.137700   34.296600   83.605700
  H    -43.314600   34.904000   83.366000
  H    -43.786400   33.263900   83.589300
  C    -44.328500   34.541800   85.060400
  H    -45.021700   33.794700   85.485300
  H    -44.810400   35.515400   85.225300
  H    -43.435600   34.390300   85.696400
  H    -44.104400   38.514500   77.766400
  H    -45.226400   30.608900   79.896900

 Total Charge           Charge          ....    0
 Multiplicity           Mult            ....    1
 Number of Electrons    NEL             ....  134
 Basis Dimension        Dim             ....  322

ORBITAL ENERGIES
----------------

  NO   OCC          E(Eh)            E(eV)
   0   2.0000     -88.966609     -2420.9045
   1   2.0000     -88.963661     -2420.8243
   2   2.0000     -10.332258      -281.1550
   3   2.0000     -10.326971      -281.0112
   4   2.0000     -10.322607      -280.8924
   5   2.0000     -10.314050      -280.6596
   6   2.0000     -10.309617      -280.5390
   7   2.0000     -10.303691      -280.3777
   8   2.0000     -10.299182      -280.2550
   9   2.0000     -10.298963      -280.2490
  10   2.0000     -10.298098      -280.2255
  11   2.0000     -10.287996      -279.9506
  12   2.0000     -10.285831      -279.8917
  13   2.0000     -10.281819      -279.7825
  14   2.0000     -10.279185      -279.7108
  15   2.0000     -10.276813      -279.6463
  16   2.0000      -8.082286      -219.9302
  17   2.0000      -8.077796      -219.8080
  18   2.0000      -6.040856      -164.3800
  19   2.0000      -6.036581      -164.2637
  20   2.0000      -6.036501      -164.2616
  21   2.0000      -6.033022      -164.1669
  22   2.0000      -6.032484      -164.1522
  23   2.0000      -6.028289      -164.0381
  24   2.0000      -1.008426       -27.4407
  25   2.0000      -0.981759       -26.7150
  26   2.0000      -0.913545       -24.8588
  27   2.0000      -0.910615       -24.7791
  28   2.0000      -0.873321       -23.7643
  29   2.0000      -0.857762       -23.3409
  30   2.0000      -0.849464       -23.1151
  31   2.0000      -0.821008       -22.3408
  32   2.0000      -0.780759       -21.2455
  33   2.0000      -0.767839       -20.8940
  34   2.0000      -0.706582       -19.2271
  35   2.0000      -0.697614       -18.9831
  36   2.0000      -0.690730       -18.7957
  37   2.0000      -0.663511       -18.0551
  38   2.0000      -0.639603       -17.4045
  39   2.0000      -0.626404       -17.0453
  40   2.0000      -0.599070       -16.3015
  41   2.0000      -0.570101       -15.5132
  42   2.0000      -0.565966       -15.4007
  43   2.0000      -0.561987       -15.2924
  44   2.0000      -0.534276       -14.5384
  45   2.0000      -0.529524       -14.4091
  46   2.0000      -0.518651       -14.1132
  47   2.0000      -0.511250       -13.9118
  48   2.0000      -0.508330       -13.8323
  49   2.0000      -0.505706       -13.7610
  50   2.0000      -0.498515       -13.5653
  51   2.0000      -0.479840       -13.0571
  52   2.0000      -0.473006       -12.8711
  53   2.0000      -0.466785       -12.7019
  54   2.0000      -0.461626       -12.5615
  55   2.0000      -0.450293       -12.2531
  56   2.0000      -0.444981       -12.1085
  57   2.0000      -0.434714       -11.8292
  58   2.0000      -0.432407       -11.7664
  59   2.0000      -0.424065       -11.5394
  60   2.0000      -0.419273       -11.4090
  61   2.0000      -0.414466       -11.2782
  62   2.0000      -0.409623       -11.1464
  63   2.0000      -0.358464        -9.7543
  64   2.0000      -0.331661        -9.0250
  65   2.0000      -0.323684        -8.8079
  66   2.0000      -0.286631        -7.7996
  67   0.0000       0.025724         0.7000
  68   0.0000       0.076199         2.0735
  69   0.0000       0.103992         2.8298
  70   0.0000       0.117277         3.1913
  71   0.0000       0.127911         3.4806

MULLIKEN ATOMIC CHARGES
-----------------------
   0 S :    0.123219
   1 C :   -0.133726
   2 C :   -0.103234
   3 C :    0.014569
   4 C :   -0.116698
   5 H :   -0.031050
   6 C :    0.071269
   7 H :    0.054327
   8 H :    0.015950
   9 C :   -0.103404
  10 H :    0.029841
  11 H :    0.024625
  12 C :   -0.011395
  13 H :    0.033652
  14 H :    0.036735
  15 H :    0.021736
  16 S :    0.076894
  17 C :   -0.103898
  18 C :   -0.005491
  19 C :   -0.029362
  20 C :   -0.127414
  21 H :    0.015320
  22 C :    0.024138
  23 H :    0.033128
  24 H :    0.031674
  25 C :   -0.036725
  26 H :    0.021456
  27 H :    0.024117
  28 C :   -0.075516
  29 H :    0.021174
  30 H :    0.029435
  31 H :    0.042160
  32 H :    0.061257
  33 H :    0.071237
Sum of atomic charges:   -0.0000000

LOEWDIN ATOMIC CHARGES
----------------------
   0 S :    0.428115
   1 C :   -0.228292
   2 C :   -0.061974
   3 C :   -0.063455
   4 C :   -0.195264
   5 H :    0.016508
   6 C :   -0.027748
   7 H :    0.040656
   8 H :    0.025765
   9 C :   -0.044756
  10 H :    0.018831
  11 H :    0.029037
  12 C :   -0.059391
  13 H :    0.029560
  14 H :    0.025355
  15 H :    0.022759
  16 S :    0.369749
  17 C :   -0.167883
  18 C :   -0.061551
  19 C :   -0.055655
  20 C :   -0.181589
  21 H :    0.029402
  22 C :   -0.038436
  23 H :    0.041196
  24 H :    0.028376
  25 C :   -0.042827
  26 H :    0.014626
  27 H :    0.027652
  28 C :   -0.070702
  29 H :    0.021893
  30 H :    0.022475
  31 H :    0.032572
  32 H :    0.038971
  33 H :    0.036026

  Mayer bond orders larger than 0.100000
B(  0-S ,  1-C ) :   1.1506 B(  0-S ,  4-C ) :   1.1412 B(  1-C ,  2-C ) :   1.6100
B(  1-C , 32-H ) :   0.9569 B(  2-C ,  3-C ) :   1.2323 B(  2-C ,  6-C ) :   1.0192
B(  3-C ,  4-C ) :   1.5811 B(  3-C ,  5-H ) :   1.0010 B(  4-C , 20-C ) :   1.0633
B(  6-C ,  7-H ) :   0.9458 B(  6-C ,  8-H ) :   0.9390 B(  6-C ,  9-C ) :   1.0454
B(  9-C , 10-H ) :   0.9674 B(  9-C , 11-H ) :   0.9502 B(  9-C , 12-C ) :   1.0832
B( 12-C , 13-H ) :   0.9707 B( 12-C , 14-H ) :   0.9726 B( 12-C , 15-H ) :   0.9779
B( 16-S , 17-C ) :   1.1256 B( 16-S , 20-C ) :   1.1290 B( 17-C , 18-C ) :   1.6544
B( 17-C , 33-H ) :   0.9648 B( 18-C , 19-C ) :   1.1906 B( 18-C , 21-H ) :   0.9924
B( 19-C , 20-C ) :   1.5811 B( 19-C , 22-C ) :   1.0879 B( 22-C , 23-H ) :   0.9326
B( 22-C , 24-H ) :   0.9252 B( 22-C , 25-C ) :   1.0394 B( 25-C , 26-H ) :   0.9516
B( 25-C , 27-H ) :   0.9549 B( 25-C , 28-C ) :   1.0931 B( 28-C , 29-H ) :   0.9726
B( 28-C , 30-H ) :   0.9730 B( 28-C , 31-H ) :   0.9709

Dispersion correction           -0.013821465
FINAL SINGLE POINT ENERGY     -1339.871020278992

DIPOLE MOMENT
-------------
                                X             Y             Z
Electronic contribution:    -12.55783     -14.07127     -27.16501
Nuclear contribution   :     12.81774      14.24774      27.83348
                        -----------------------------------------
Total Dipole Moment    :      0.25991       0.17646       0.66846
                        -----------------------------------------
Magnitude (a.u.)       :      0.73860
Magnitude (Debye)      :      1.87738

Rotational constants in cm-1:     0.016312     0.009628     0.006466
Rotational constants in MHz :   489.024679   288.629329   193.838259

                             ****ORCA TERMINATED NORMALLY****
TOTAL RUN TIME: 0 days 0 hours 0 minutes 28 seconds 619 msec
