                         Program Version 4.2.1 -  RELEASE  -
|  1> ! wB97X-D3 SP def2-SVP
|  2> %pal
|  3> nprocs 16
|  4> end
|  5>
|  6> * xyz 0 1
|  7> S 	 36.9327 	 10.9548 	 80.0836
|  8> C 	 38.61 	 10.8597 	 80.517
|  9> C 	 39.4119 	 10.7268 	 79.4533
| 10> C 	 38.7249 	 10.844 	 78.2032
| 11> C 	 37.3886 	 11.1531 	 78.3324
| 12> H 	 39.1675 	 10.8034 	 77.2224
| 13> C 	 40.8765 	 10.2911 	 79.4282
| 14> H 	 41.196 	 10.4578 	 80.4557
| 15> H 	 41.4042 	 10.9977 	 78.7714
| 16> C 	 41.1603 	 8.8819 	 78.9501
| 17> H 	 40.8885 	 8.67872 	 77.8854
| 18> H 	 42.2818 	 8.62239 	 78.9393
| 19> C 	 40.533 	 7.70729 	 79.7199
| 20> H 	 40.8256 	 7.78378 	 80.7899
| 21> H 	 39.4035 	 7.83844 	 79.7626
| 22> H 	 40.8336 	 6.72028 	 79.4277
| 23> S 	 35.1465 	 9.85353 	 77.393
| 24> C 	 34.2568 	 10.4957 	 76.0532
| 25> C 	 34.9715 	 11.5158 	 75.4139
| 26> C 	 36.1684 	 11.8888 	 76.1392
| 27> C 	 36.373 	 11.1288 	 77.3224
| 28> H 	 34.7085 	 11.8682 	 74.4642
| 29> C 	 37.0643 	 13.0874 	 75.8022
| 30> H 	 37.4618 	 13.4415 	 76.7115
| 31> H 	 36.3659 	 13.8559 	 75.5032
| 32> C 	 38.2252 	 12.7027 	 74.7963
| 33> H 	 38.8984 	 12.0225 	 75.4156
| 34> H 	 38.7948 	 13.6139 	 74.5322
| 35> C 	 37.7254 	 12.1015 	 73.5151
| 36> H 	 38.573 	 12.0323 	 72.8413
| 37> H 	 37.0225 	 12.6551 	 73.0066
| 38> H 	 37.3426 	 11.1084 	 73.6638
| 39> H 	 39.005 	 10.65 	 81.4945
| 40> H 	 33.4122 	 10.1033 	 75.5567
| 41> *
| 42>
| 43>                          ****END OF INPUT****

CARTESIAN COORDINATES (ANGSTROEM)
---------------------------------
  S     36.932700   10.954800   80.083600
  C     38.610000   10.859700   80.517000
  C     39.411900   10.726800   79.453300
  C     38.724900   10.844000   78.203200
  C     37.388600   11.153100   78.332400
  H     39.167500   10.803400   77.222400
  C     40.876500   10.291100   79.428200
  H     41.196000   10.457800   80.455700
  H     41.404200   10.997700   78.771400
  C     41.160300    8.881900   78.950100
  H     40.888500    8.678720   77.885400
  H     42.281800    8.622390   78.939300
  C     40.533000    7.707290   79.719900
  H     40.825600    7.783780   80.789900
  H     39.403500    7.838440   79.762600
  H     40.833600    6.720280   79.427700
  S     35.146500    9.853530   77.393000
  C     34.256800   10.495700   76.053200
  C     34.971500   11.515800   75.413900
  C     36.168400   11.888800   76.139200
  C     36.373000   11.128800   77.322400
  H     34.708500   11.868200   74.464200
  C     37.064300   13.087400   75.802200
  H     37.461800   13.441500   76.711500
  H     36.365900   13.855900   75.503200
  C     38.225200   12.702700   74.796300
  H     38.898400   12.022500   75.415600
  H     38.794800   13.613900   74.532200
  C     37.725400   12.101500   73.515100
  H     38.573000   12.032300   72.841300
  H     37.022500   12.655100   73.006600
  H     37.342600   11.108400   73.663800
  H     39.005000   10.650000   81.494500
  H     33.412200   10.103300   75.556700

 Total Charge           Charge          ....    0
 Multiplicity           Mult            ....    1
 Number of Electrons    NEL             ....  134
 Basis Dimension        Dim             ....  322

ORBITAL ENERGIES
----------------

  NO   OCC          E(Eh)            E(eV)
   0   2.0000     -88.966095     -2420.8905
   1   2.0000     -88.965726     -2420.8805
   2   2.0000     -10.333753      -281.1957
   3   2.0000     -10.327513      -281.0259
   4   2.0000     -10.315544      -280.7002
   5   2.0000     -10.312125      -280.6072
   6   2.0000     -10.306682      -280.4591
   7   2.0000     -10.298198      -280.2282
   8   2.0000     -10.297542      -280.2104
   9   2.0000     -10.297246      -280.2023
  10   2.0000     -10.296974      -280.1949
  11   2.0000     -10.296165      -280.1729
  12   2.0000     -10.293343      -280.0961
  13   2.0000     -10.286232      -279.9026
  14   2.0000     -10.280642      -279.7505
  15   2.0000     -10.267700      -279.3983
  16   2.0000      -8.080525      -219.8823
  17   2.0000      -8.079930      -219.8661
  18   2.0000      -6.039096      -164.3322
  19   2.0000      -6.038586      -164.3183
  20   2.0000      -6.034955      -164.2195
  21   2.0000      -6.034738      -164.2136
  22   2.0000      -6.031342      -164.1212
  23   2.0000      -6.030301      -164.0928
  24   2.0000      -1.005350       -27.3570
  25   2.0000      -0.982246       -26.7283
  26   2.0000      -0.910657       -24.7802
  27   2.0000      -0.906057       -24.6551
  28   2.0000      -0.874018       -23.7832
  29   2.0000      -0.849285       -23.1102
  30   2.0000      -0.844223       -22.9725
  31   2.0000      -0.817868       -22.2553
  32   2.0000      -0.785816       -21.3831
  33   2.0000      -0.774517       -21.0757
  34   2.0000      -0.714279       -19.4365
  35   2.0000      -0.694737       -18.9047
  36   2.0000      -0.691631       -18.8202
  37   2.0000      -0.662065       -18.0157
  38   2.0000      -0.642991       -17.4967
  39   2.0000      -0.620987       -16.8979
  40   2.0000      -0.587331       -15.9821
  41   2.0000      -0.566961       -15.4278
  42   2.0000      -0.557110       -15.1597
  43   2.0000      -0.553783       -15.0692
  44   2.0000      -0.543445       -14.7879
  45   2.0000      -0.539427       -14.6786
  46   2.0000      -0.523892       -14.2558
  47   2.0000      -0.514476       -13.9996
  48   2.0000      -0.505576       -13.7574
  49   2.0000      -0.494310       -13.4509
  50   2.0000      -0.491685       -13.3794
  51   2.0000      -0.480095       -13.0641
  52   2.0000      -0.472528       -12.8581
  53   2.0000      -0.471757       -12.8372
  54   2.0000      -0.453315       -12.3353
  55   2.0000      -0.451149       -12.2764
  56   2.0000      -0.442704       -12.0466
  57   2.0000      -0.436996       -11.8913
  58   2.0000      -0.431763       -11.7489
  59   2.0000      -0.426347       -11.6015
  60   2.0000      -0.422433       -11.4950
  61   2.0000      -0.410983       -11.1834
  62   2.0000      -0.404253       -11.0003
  63   2.0000      -0.349925        -9.5219
  64   2.0000      -0.330487        -8.9930
  65   2.0000      -0.326149        -8.8750
  66   2.0000      -0.294631        -8.0173
  67   0.0000       0.024557         0.6682
  68   0.0000       0.061882         1.6839
  69   0.0000       0.107498         2.9252
  70   0.0000       0.122838         3.3426
  71   0.0000       0.124918         3.3992

MULLIKEN ATOMIC CHARGES
-----------------------
   0 S :    0.093523
   1 C :   -0.090787
   2 C :   -0.116837
   3 C :    0.040684
   4 C :   -0.152555
   5 H :    0.014102
   6 C :    0.117166
   7 H :    0.014778
   8 H :    0.036280
   9 C :   -0.111201
  10 H :    0.035415
  11 H :    0.040970
  12 C :   -0.071336
  13 H :    0.017974
  14 H :    0.050173
  15 H :    0.037349
  16 S :    0.114787
  17 C :   -0.065371
  18 C :   -0.029836
  19 C :   -0.070007
  20 C :   -0.163631
  21 H :   -0.000796
  22 C :    0.087927
  23 H :    0.016899
  24 H :    0.024630
  25 C :   -0.088222
  26 H :    0.030452
  27 H :    0.035906
  28 C :   -0.006858
  29 H :    0.025236
  30 H :    0.013165
  31 H :    0.038554
  32 H :    0.037443
  33 H :    0.044021
Sum of atomic charges:    0.0000000

LOEWDIN ATOMIC CHARGES
----------------------
   0 S :    0.379660
   1 C :   -0.190862
   2 C :   -0.074425
   3 C :   -0.044096
   4 C :   -0.173606
   5 H :    0.028190
   6 C :   -0.027523
   7 H :    0.028763
   8 H :    0.037188
   9 C :   -0.054839
  10 H :    0.026421
  11 H :    0.034327
  12 C :   -0.074099
  13 H :    0.022015
  14 H :    0.032725
  15 H :    0.023425
  16 S :    0.409500
  17 C :   -0.186964
  18 C :   -0.066547
  19 C :   -0.049994
  20 C :   -0.203133
  21 H :    0.020356
  22 C :   -0.029251
  23 H :    0.024145
  24 H :    0.028309
  25 C :   -0.035553
  26 H :    0.027555
  27 H :    0.025983
  28 C :   -0.060649
  29 H :    0.029232
  30 H :    0.014259
  31 H :    0.026539
  32 H :    0.028368
  33 H :    0.024582

  Mayer bond orders larger than 0.100000
B(  0-S ,  1-C ) :   1.1278 B(  0-S ,  4-C ) :   1.1152 B(  1-C ,  2-C ) :   1.6601
B(  1-C , 32-H ) :   0.9576 B(  2-C ,  3-C ) :   1.2121 B(  2-C ,  6-C ) :   1.0195
B(  3-C ,  4-C ) :   1.5930 B(  3-C ,  5-H ) :   0.9897 B(  4-C , 20-C ) :   1.0690
B(  6-C ,  7-H ) :   0.9387 B(  6-C ,  8-H ) :   0.9339 B(  6-C ,  9-C ) :   1.0711
B(  9-C , 10-H ) :   0.9538 B(  9-C , 11-H ) :   0.9546 B(  9-C , 12-C ) :   1.0718
B( 12-C , 13-H ) :   0.9737 B( 12-C , 14-H ) :   0.9739 B( 12-C , 15-H ) :   0.9750
B( 16-S , 17-C ) :   1.1603 B( 16-S , 20-C ) :   1.1384 B( 17-C , 18-C ) :   1.5956
B( 17-C , 20-C ) :   0.1009 B( 17-C , 33-H ) :   0.9697 B( 18-C , 19-C ) :   1.2526
B( 18-C , 21-H ) :   0.9951 B( 19-C , 20-C ) :   1.5702 B( 19-C , 22-C ) :   1.0297
B( 22-C , 23-H ) :   0.9357 B( 22-C , 24-H ) :   0.9449 B( 22-C , 25-C ) :   1.0567
B( 25-C , 26-H ) :   0.9520 B( 25-C , 27-H ) :   0.9564 B( 25-C , 28-C ) :   1.0877
B( 28-C , 29-H ) :   0.9688 B( 28-C , 30-H ) :   0.9726 B( 28-C , 31-H ) :   0.9676

Dispersion correction           -0.015279510
FINAL SINGLE POINT ENERGY     -1339.871923526652

DIPOLE MOMENT
-------------
                                X             Y             Z
Electronic contribution:    -20.26586       0.99875      11.28995
Nuclear contribution   :     20.79822      -1.03261     -11.76255
                        -----------------------------------------
Total Dipole Moment    :      0.53237      -0.03386      -0.47260
                        -----------------------------------------
Magnitude (a.u.)       :      0.71268
Magnitude (Debye)      :      1.81149

Rotational constants in cm-1:     0.019437     0.008892     0.007414
Rotational constants in MHz :   582.717431   266.585773   222.272212

                             ****ORCA TERMINATED NORMALLY****
TOTAL RUN TIME: 0 days 0 hours 0 minutes 31 seconds 264 msec
