                         Program Version 4.2.1 -  RELEASE  -
|  1> ! wB97X-D3 SP def2-SVP
|  2> %pal
|  3> nprocs 16
|  4> end
|  5>
|  6> * xyz 0 1
|  7> S 	 46.2069 	 11.3092 	 52.1542
|  8> C 	 44.8798 	 10.4868 	 51.3919
|  9> C 	 45.2432 	 9.9809 	 50.1585
| 10> C 	 46.6449 	 10.0393 	 49.9354
| 11> C 	 47.3202 	 10.6894 	 50.9318
| 12> H 	 47.2618 	 9.80168 	 49.1322
| 13> C 	 44.258 	 9.47326 	 49.1353
| 14> H 	 43.2547 	 9.42867 	 49.5204
| 15> H 	 44.4986 	 8.46693 	 48.894
| 16> C 	 44.2049 	 10.1989 	 47.8487
| 17> H 	 45.1909 	 10.3236 	 47.3658
| 18> H 	 43.685 	 9.48612 	 47.155
| 19> C 	 43.4613 	 11.5863 	 47.8706
| 20> H 	 43.628 	 12.0269 	 48.8683
| 21> H 	 43.8531 	 12.3049 	 47.1343
| 22> H 	 42.3817 	 11.4663 	 47.7625
| 23> S 	 49.5875 	 10.3171 	 52.4409
| 24> C 	 51.1732 	 10.6076 	 51.7857
| 25> C 	 51.0481 	 11.2297 	 50.5454
| 26> C 	 49.7331 	 11.4299 	 50.0616
| 27> C 	 48.7991 	 10.8787 	 50.9174
| 28> H 	 51.9653 	 11.4528 	 50.0304
| 29> C 	 49.4641 	 12.0894 	 48.7441
| 30> H 	 49.1567 	 11.3233 	 48.0266
| 31> H 	 50.4151 	 12.4549 	 48.3068
| 32> C 	 48.4297 	 13.2121 	 48.8042
| 33> H 	 48.8111 	 14.0486 	 49.3451
| 34> H 	 47.5702 	 12.9833 	 49.4073
| 35> C 	 47.875 	 13.7398 	 47.4772
| 36> H 	 48.4924 	 14.4485 	 46.8599
| 37> H 	 46.934 	 14.295 	 47.598
| 38> H 	 47.6488 	 12.9225 	 46.7994
| 39> H 	 43.879 	 10.614 	 51.7375
| 40> H 	 52.135 	 10.2795 	 52.2532
| 41> *
| 42>
| 43>                          ****END OF INPUT****

CARTESIAN COORDINATES (ANGSTROEM)
---------------------------------
  S     46.206900   11.309200   52.154200
  C     44.879800   10.486800   51.391900
  C     45.243200    9.980900   50.158500
  C     46.644900   10.039300   49.935400
  C     47.320200   10.689400   50.931800
  H     47.261800    9.801680   49.132200
  C     44.258000    9.473260   49.135300
  H     43.254700    9.428670   49.520400
  H     44.498600    8.466930   48.894000
  C     44.204900   10.198900   47.848700
  H     45.190900   10.323600   47.365800
  H     43.685000    9.486120   47.155000
  C     43.461300   11.586300   47.870600
  H     43.628000   12.026900   48.868300
  H     43.853100   12.304900   47.134300
  H     42.381700   11.466300   47.762500
  S     49.587500   10.317100   52.440900
  C     51.173200   10.607600   51.785700
  C     51.048100   11.229700   50.545400
  C     49.733100   11.429900   50.061600
  C     48.799100   10.878700   50.917400
  H     51.965300   11.452800   50.030400
  C     49.464100   12.089400   48.744100
  H     49.156700   11.323300   48.026600
  H     50.415100   12.454900   48.306800
  C     48.429700   13.212100   48.804200
  H     48.811100   14.048600   49.345100
  H     47.570200   12.983300   49.407300
  C     47.875000   13.739800   47.477200
  H     48.492400   14.448500   46.859900
  H     46.934000   14.295000   47.598000
  H     47.648800   12.922500   46.799400
  H     43.879000   10.614000   51.737500
  H     52.135000   10.279500   52.253200

 Total Charge           Charge          ....    0
 Multiplicity           Mult            ....    1
 Number of Electrons    NEL             ....  134
 Basis Dimension        Dim             ....  322

ORBITAL ENERGIES
----------------

  NO   OCC          E(Eh)            E(eV)
   0   2.0000     -88.967421     -2420.9266
   1   2.0000     -88.963218     -2420.8122
   2   2.0000     -10.332754      -281.1685
   3   2.0000     -10.330937      -281.1191
   4   2.0000     -10.321622      -280.8656
   5   2.0000     -10.312081      -280.6060
   6   2.0000     -10.306877      -280.4644
   7   2.0000     -10.302131      -280.3352
   8   2.0000     -10.296889      -280.1926
   9   2.0000     -10.292772      -280.0806
  10   2.0000     -10.289695      -279.9968
  11   2.0000     -10.288012      -279.9510
  12   2.0000     -10.284237      -279.8483
  13   2.0000     -10.280762      -279.7538
  14   2.0000     -10.279966      -279.7321
  15   2.0000     -10.279592      -279.7219
  16   2.0000      -8.081999      -219.9224
  17   2.0000      -8.077484      -219.7995
  18   2.0000      -6.040509      -164.3706
  19   2.0000      -6.036616      -164.2647
  20   2.0000      -6.036020      -164.2485
  21   2.0000      -6.032683      -164.1576
  22   2.0000      -6.031961      -164.1380
  23   2.0000      -6.028332      -164.0393
  24   2.0000      -1.005929       -27.3727
  25   2.0000      -0.985276       -26.8107
  26   2.0000      -0.916282       -24.9333
  27   2.0000      -0.910008       -24.7626
  28   2.0000      -0.867000       -23.5923
  29   2.0000      -0.852742       -23.2043
  30   2.0000      -0.845587       -23.0096
  31   2.0000      -0.813155       -22.1271
  32   2.0000      -0.784923       -21.3588
  33   2.0000      -0.776367       -21.1260
  34   2.0000      -0.711274       -19.3547
  35   2.0000      -0.698351       -19.0031
  36   2.0000      -0.690162       -18.7803
  37   2.0000      -0.661793       -18.0083
  38   2.0000      -0.649798       -17.6819
  39   2.0000      -0.621983       -16.9250
  40   2.0000      -0.597412       -16.2564
  41   2.0000      -0.569388       -15.4938
  42   2.0000      -0.560454       -15.2507
  43   2.0000      -0.552554       -15.0358
  44   2.0000      -0.533416       -14.5150
  45   2.0000      -0.526787       -14.3346
  46   2.0000      -0.520616       -14.1667
  47   2.0000      -0.517512       -14.0822
  48   2.0000      -0.500513       -13.6196
  49   2.0000      -0.497915       -13.5490
  50   2.0000      -0.492271       -13.3954
  51   2.0000      -0.482089       -13.1183
  52   2.0000      -0.471009       -12.8168
  53   2.0000      -0.467332       -12.7167
  54   2.0000      -0.457851       -12.4587
  55   2.0000      -0.446667       -12.1544
  56   2.0000      -0.443802       -12.0765
  57   2.0000      -0.441035       -12.0012
  58   2.0000      -0.436618       -11.8810
  59   2.0000      -0.426037       -11.5930
  60   2.0000      -0.420940       -11.4544
  61   2.0000      -0.412012       -11.2114
  62   2.0000      -0.410295       -11.1647
  63   2.0000      -0.344663        -9.3788
  64   2.0000      -0.333157        -9.0657
  65   2.0000      -0.328657        -8.9432
  66   2.0000      -0.296107        -8.0575
  67   0.0000       0.031506         0.8573
  68   0.0000       0.062492         1.7005
  69   0.0000       0.110556         3.0084
  70   0.0000       0.117357         3.1935
  71   0.0000       0.125675         3.4198

MULLIKEN ATOMIC CHARGES
-----------------------
   0 S :    0.112879
   1 C :   -0.114172
   2 C :   -0.065569
   3 C :    0.054634
   4 C :   -0.154821
   5 H :   -0.017022
   6 C :    0.120291
   7 H :    0.005600
   8 H :    0.018951
   9 C :   -0.108684
  10 H :    0.029528
  11 H :    0.030032
  12 C :   -0.058876
  13 H :    0.032218
  14 H :    0.041723
  15 H :    0.036236
  16 S :    0.095861
  17 C :   -0.106370
  18 C :   -0.054417
  19 C :    0.004414
  20 C :   -0.197161
  21 H :    0.012374
  22 C :    0.094421
  23 H :    0.031667
  24 H :    0.019832
  25 C :   -0.056889
  26 H :    0.020152
  27 H :    0.036574
  28 C :   -0.070832
  29 H :    0.032888
  30 H :    0.034126
  31 H :    0.019347
  32 H :    0.042988
  33 H :    0.078075
Sum of atomic charges:   -0.0000000

LOEWDIN ATOMIC CHARGES
----------------------
   0 S :    0.399447
   1 C :   -0.195947
   2 C :   -0.057316
   3 C :   -0.056114
   4 C :   -0.189144
   5 H :    0.023660
   6 C :   -0.031864
   7 H :    0.028223
   8 H :    0.031035
   9 C :   -0.045628
  10 H :    0.022687
  11 H :    0.028727
  12 C :   -0.071170
  13 H :    0.026774
  14 H :    0.029336
  15 H :    0.025167
  16 S :    0.391034
  17 C :   -0.193476
  18 C :   -0.076176
  19 C :   -0.057715
  20 C :   -0.174992
  21 H :    0.028106
  22 C :   -0.029121
  23 H :    0.032101
  24 H :    0.034554
  25 C :   -0.042778
  26 H :    0.025012
  27 H :    0.027752
  28 C :   -0.073252
  29 H :    0.026204
  30 H :    0.030036
  31 H :    0.019615
  32 H :    0.022810
  33 H :    0.042412

  Mayer bond orders larger than 0.100000
B(  0-S ,  1-C ) :   1.1333 B(  0-S ,  4-C ) :   1.1453 B(  1-C ,  2-C ) :   1.6074
B(  1-C , 32-H ) :   0.9713 B(  2-C ,  3-C ) :   1.1999 B(  2-C ,  6-C ) :   1.0368
B(  3-C ,  4-C ) :   1.5970 B(  3-C ,  5-H ) :   1.0084 B(  4-C , 20-C ) :   1.0216
B(  6-C ,  7-H ) :   0.9371 B(  6-C ,  8-H ) :   0.9257 B(  6-C ,  9-C ) :   1.0849
B(  9-C , 10-H ) :   0.9581 B(  9-C , 11-H ) :   0.9560 B(  9-C , 12-C ) :   1.0546
B( 12-C , 13-H ) :   0.9808 B( 12-C , 14-H ) :   0.9775 B( 12-C , 15-H ) :   0.9760
B( 16-S , 17-C ) :   1.1601 B( 16-S , 20-C ) :   1.1407 B( 17-C , 18-C ) :   1.6024
B( 17-C , 20-C ) :   0.1064 B( 17-C , 33-H ) :   0.9620 B( 18-C , 19-C ) :   1.2380
B( 18-C , 21-H ) :   0.9921 B( 19-C , 20-C ) :   1.5864 B( 19-C , 22-C ) :   1.0433
B( 22-C , 23-H ) :   0.9300 B( 22-C , 24-H ) :   0.9300 B( 22-C , 25-C ) :   1.0531
B( 25-C , 26-H ) :   0.9494 B( 25-C , 27-H ) :   0.9584 B( 25-C , 28-C ) :   1.0807
B( 28-C , 29-H ) :   0.9760 B( 28-C , 30-H ) :   0.9747 B( 28-C , 31-H ) :   0.9745

Dispersion correction           -0.015334819
FINAL SINGLE POINT ENERGY     -1339.884790471215

DIPOLE MOMENT
-------------
                                X             Y             Z
Electronic contribution:     12.08788      -8.25567      26.53899
Nuclear contribution   :    -12.13830       8.30584     -27.20739
                        -----------------------------------------
Total Dipole Moment    :     -0.05042       0.05017      -0.66840
                        -----------------------------------------
Magnitude (a.u.)       :      0.67218
Magnitude (Debye)      :      1.70854

Rotational constants in cm-1:     0.019348     0.009694     0.007401
Rotational constants in MHz :   580.049788   290.626929   221.868164

                             ****ORCA TERMINATED NORMALLY****
TOTAL RUN TIME: 0 days 0 hours 0 minutes 34 seconds 41 msec
