                         Program Version 4.2.1 -  RELEASE  -
|  1> ! wB97X-D3 SP def2-SVP
|  2> %pal
|  3> nprocs 16
|  4> end
|  5>
|  6> * xyz 0 1
|  7> S 	 -33.9235 	 74.2726 	 152.742
|  8> C 	 -32.2363 	 74.6075 	 153.14
|  9> C 	 -31.398 	 74.1093 	 152.151
| 10> C 	 -32.0564 	 73.1669 	 151.291
| 11> C 	 -33.4492 	 73.071 	 151.493
| 12> H 	 -31.5943 	 72.6628 	 150.459
| 13> C 	 -29.8881 	 74.4653 	 152.041
| 14> H 	 -29.6517 	 75.0853 	 151.203
| 15> H 	 -29.253 	 73.6509 	 151.835
| 16> C 	 -29.1988 	 74.9955 	 153.347
| 17> H 	 -29.5228 	 75.9716 	 153.356
| 18> H 	 -29.5299 	 74.4586 	 154.22
| 19> C 	 -27.6865 	 74.7365 	 153.369
| 20> H 	 -27.2599 	 74.7692 	 154.373
| 21> H 	 -27.5307 	 73.7328 	 153
| 22> H 	 -27.1417 	 75.4573 	 152.725
| 23> S 	 -35.7192 	 73.4606 	 150.052
| 24> C 	 -36.2407 	 72.3382 	 148.837
| 25> C 	 -35.5252 	 71.1699 	 148.964
| 26> C 	 -34.319 	 71.2776 	 149.72
| 27> C 	 -34.3606 	 72.4534 	 150.54
| 28> H 	 -35.8245 	 70.3986 	 148.293
| 29> C 	 -33.2998 	 70.2092 	 149.893
| 30> H 	 -32.3112 	 70.6399 	 149.679
| 31> H 	 -33.425 	 69.3909 	 149.195
| 32> C 	 -33.2152 	 69.6592 	 151.337
| 33> H 	 -34.0875 	 69.075 	 151.618
| 34> H 	 -33.1512 	 70.4632 	 152.012
| 35> C 	 -32.1459 	 68.6326 	 151.361
| 36> H 	 -31.8983 	 68.2189 	 152.331
| 37> H 	 -31.2411 	 69.0678 	 151.209
| 38> H 	 -32.3907 	 67.7411 	 150.688
| 39> H 	 -31.9972 	 75.3298 	 153.968
| 40> H 	 -37.0163 	 72.5253 	 148.093
| 41> *
| 42>
| 43>                          ****END OF INPUT****

CARTESIAN COORDINATES (ANGSTROEM)
---------------------------------
  S    -33.923500   74.272600  152.742000
  C    -32.236300   74.607500  153.140000
  C    -31.398000   74.109300  152.151000
  C    -32.056400   73.166900  151.291000
  C    -33.449200   73.071000  151.493000
  H    -31.594300   72.662800  150.459000
  C    -29.888100   74.465300  152.041000
  H    -29.651700   75.085300  151.203000
  H    -29.253000   73.650900  151.835000
  C    -29.198800   74.995500  153.347000
  H    -29.522800   75.971600  153.356000
  H    -29.529900   74.458600  154.220000
  C    -27.686500   74.736500  153.369000
  H    -27.259900   74.769200  154.373000
  H    -27.530700   73.732800  153.000000
  H    -27.141700   75.457300  152.725000
  S    -35.719200   73.460600  150.052000
  C    -36.240700   72.338200  148.837000
  C    -35.525200   71.169900  148.964000
  C    -34.319000   71.277600  149.720000
  C    -34.360600   72.453400  150.540000
  H    -35.824500   70.398600  148.293000
  C    -33.299800   70.209200  149.893000
  H    -32.311200   70.639900  149.679000
  H    -33.425000   69.390900  149.195000
  C    -33.215200   69.659200  151.337000
  H    -34.087500   69.075000  151.618000
  H    -33.151200   70.463200  152.012000
  C    -32.145900   68.632600  151.361000
  H    -31.898300   68.218900  152.331000
  H    -31.241100   69.067800  151.209000
  H    -32.390700   67.741100  150.688000
  H    -31.997200   75.329800  153.968000
  H    -37.016300   72.525300  148.093000

 Total Charge           Charge          ....    0
 Multiplicity           Mult            ....    1
 Number of Electrons    NEL             ....  134
 Basis Dimension        Dim             ....  322

ORBITAL ENERGIES
----------------

  NO   OCC          E(Eh)            E(eV)
   0   2.0000     -88.968517     -2420.9564
   1   2.0000     -88.963415     -2420.8176
   2   2.0000     -10.339152      -281.3426
   3   2.0000     -10.331629      -281.1379
   4   2.0000     -10.322798      -280.8976
   5   2.0000     -10.315237      -280.6919
   6   2.0000     -10.311338      -280.5858
   7   2.0000     -10.307908      -280.4924
   8   2.0000     -10.299500      -280.2636
   9   2.0000     -10.291417      -280.0437
  10   2.0000     -10.290072      -280.0071
  11   2.0000     -10.290029      -280.0059
  12   2.0000     -10.282732      -279.8074
  13   2.0000     -10.280888      -279.7572
  14   2.0000     -10.273741      -279.5627
  15   2.0000     -10.267778      -279.4004
  16   2.0000      -8.082192      -219.9276
  17   2.0000      -8.078365      -219.8235
  18   2.0000      -6.040830      -164.3793
  19   2.0000      -6.036999      -164.2751
  20   2.0000      -6.036862      -164.2714
  21   2.0000      -6.032722      -164.1587
  22   2.0000      -6.032704      -164.1582
  23   2.0000      -6.029237      -164.0639
  24   2.0000      -1.002930       -27.2911
  25   2.0000      -0.979588       -26.6559
  26   2.0000      -0.916613       -24.9423
  27   2.0000      -0.910615       -24.7791
  28   2.0000      -0.870030       -23.6747
  29   2.0000      -0.855168       -23.2703
  30   2.0000      -0.845461       -23.0062
  31   2.0000      -0.812706       -22.1149
  32   2.0000      -0.781649       -21.2698
  33   2.0000      -0.768473       -20.9112
  34   2.0000      -0.713957       -19.4278
  35   2.0000      -0.705877       -19.2079
  36   2.0000      -0.690336       -18.7850
  37   2.0000      -0.663462       -18.0537
  38   2.0000      -0.637371       -17.3438
  39   2.0000      -0.616415       -16.7735
  40   2.0000      -0.596845       -16.2410
  41   2.0000      -0.577893       -15.7253
  42   2.0000      -0.576895       -15.6981
  43   2.0000      -0.567206       -15.4345
  44   2.0000      -0.524254       -14.2657
  45   2.0000      -0.520224       -14.1560
  46   2.0000      -0.519346       -14.1321
  47   2.0000      -0.517891       -14.0925
  48   2.0000      -0.502106       -13.6630
  49   2.0000      -0.496786       -13.5182
  50   2.0000      -0.489506       -13.3201
  51   2.0000      -0.483979       -13.1697
  52   2.0000      -0.478206       -13.0127
  53   2.0000      -0.467114       -12.7108
  54   2.0000      -0.457016       -12.4360
  55   2.0000      -0.453012       -12.3271
  56   2.0000      -0.442521       -12.0416
  57   2.0000      -0.438178       -11.9234
  58   2.0000      -0.427158       -11.6236
  59   2.0000      -0.422548       -11.4981
  60   2.0000      -0.419628       -11.4186
  61   2.0000      -0.415796       -11.3144
  62   2.0000      -0.412766       -11.2319
  63   2.0000      -0.356388        -9.6978
  64   2.0000      -0.331889        -9.0312
  65   2.0000      -0.325639        -8.8611
  66   2.0000      -0.278967        -7.5911
  67   0.0000       0.018898         0.5142
  68   0.0000       0.064948         1.7673
  69   0.0000       0.106943         2.9101
  70   0.0000       0.121906         3.3172
  71   0.0000       0.135165         3.6780

MULLIKEN ATOMIC CHARGES
-----------------------
   0 S :    0.096918
   1 C :   -0.154305
   2 C :   -0.058714
   3 C :    0.014375
   4 C :   -0.114148
   5 H :    0.012476
   6 C :    0.069705
   7 H :    0.031851
   8 H :   -0.006850
   9 C :   -0.078849
  10 H :    0.022976
  11 H :    0.033360
  12 C :   -0.054840
  13 H :    0.039421
  14 H :    0.028405
  15 H :    0.037629
  16 S :    0.097433
  17 C :   -0.110318
  18 C :   -0.014665
  19 C :   -0.019410
  20 C :   -0.155697
  21 H :    0.010024
  22 C :    0.039849
  23 H :    0.022183
  24 H :    0.011888
  25 C :   -0.040820
  26 H :    0.025018
  27 H :    0.031870
  28 C :   -0.014631
  29 H :    0.014434
  30 H :   -0.006461
  31 H :    0.043000
  32 H :    0.080513
  33 H :    0.066382
Sum of atomic charges:    0.0000000

LOEWDIN ATOMIC CHARGES
----------------------
   0 S :    0.380367
   1 C :   -0.201009
   2 C :   -0.056843
   3 C :   -0.059995
   4 C :   -0.182927
   5 H :    0.028679
   6 C :   -0.027585
   7 H :    0.030979
   8 H :    0.018044
   9 C :   -0.034288
  10 H :    0.011140
  11 H :    0.025623
  12 C :   -0.061710
  13 H :    0.028722
  14 H :    0.023324
  15 H :    0.027018
  16 S :    0.410212
  17 C :   -0.193339
  18 C :   -0.071313
  19 C :   -0.053888
  20 C :   -0.192409
  21 H :    0.027121
  22 C :   -0.031329
  23 H :    0.030931
  24 H :    0.028104
  25 C :   -0.031328
  26 H :    0.026637
  27 H :    0.019557
  28 C :   -0.064663
  29 H :    0.025898
  30 H :    0.008076
  31 H :    0.036428
  32 H :    0.040873
  33 H :    0.034894

  Mayer bond orders larger than 0.100000
B(  0-S ,  1-C ) :   1.1272 B(  0-S ,  4-C ) :   1.1392 B(  1-C ,  2-C ) :   1.6046
B(  1-C , 32-H ) :   0.9587 B(  2-C ,  3-C ) :   1.2696 B(  2-C ,  6-C ) :   1.0082
B(  3-C ,  4-C ) :   1.5322 B(  3-C ,  5-H ) :   0.9911 B(  4-C , 20-C ) :   1.0893
B(  6-C ,  7-H ) :   0.9340 B(  6-C ,  8-H ) :   0.9497 B(  6-C ,  9-C ) :   1.0614
B(  9-C , 10-H ) :   0.9569 B(  9-C , 11-H ) :   0.9605 B(  9-C , 12-C ) :   1.0826
B( 12-C , 13-H ) :   0.9775 B( 12-C , 14-H ) :   0.9722 B( 12-C , 15-H ) :   0.9770
B( 16-S , 17-C ) :   1.1647 B( 16-S , 20-C ) :   1.1517 B( 17-C , 18-C ) :   1.5926
B( 17-C , 20-C ) :   0.1058 B( 17-C , 33-H ) :   0.9672 B( 18-C , 19-C ) :   1.2639
B( 18-C , 21-H ) :   0.9879 B( 19-C , 20-C ) :   1.5181 B( 19-C , 22-C ) :   1.0595
B( 22-C , 23-H ) :   0.9285 B( 22-C , 24-H ) :   0.9347 B( 22-C , 25-C ) :   1.0619
B( 25-C , 26-H ) :   0.9531 B( 25-C , 27-H ) :   0.9524 B( 25-C , 28-C ) :   1.0926
B( 28-C , 29-H ) :   0.9638 B( 28-C , 30-H ) :   0.9673 B( 28-C , 31-H ) :   0.9716

Dispersion correction           -0.013787241
FINAL SINGLE POINT ENERGY     -1339.846076635030

DIPOLE MOMENT
-------------
                                X             Y             Z
Electronic contribution:    -27.09153      11.23013      -4.61259
Nuclear contribution   :     27.71266     -11.41777       4.38205
                        -----------------------------------------
Total Dipole Moment    :      0.62113      -0.18764      -0.23054
                        -----------------------------------------
Magnitude (a.u.)       :      0.68859
Magnitude (Debye)      :      1.75026

Rotational constants in cm-1:     0.019856     0.007990     0.006317
Rotational constants in MHz :   595.255587   239.544786   189.367350

                             ****ORCA TERMINATED NORMALLY****
TOTAL RUN TIME: 0 days 0 hours 0 minutes 34 seconds 944 msec
