                         Program Version 4.2.1 -  RELEASE  -
|  1> ! wB97X-D3 SP def2-SVP
|  2> %pal
|  3> nprocs 16
|  4> end
|  5>
|  6> * xyz 0 1
|  7> S 	 -44.3661 	 27.6346 	 86.0867
|  8> C 	 -45.4638 	 28.9626 	 86.4088
|  9> C 	 -44.9902 	 30.1689 	 85.9048
| 10> C 	 -43.663 	 30.0428 	 85.4243
| 11> C 	 -43.2052 	 28.7383 	 85.433
| 12> H 	 -43.0075 	 30.8133 	 85.0516
| 13> C 	 -45.6524 	 31.5375 	 85.8612
| 14> H 	 -46.6647 	 31.3327 	 85.7195
| 15> H 	 -45.276 	 31.9844 	 84.8771
| 16> C 	 -45.2162 	 32.4175 	 87.0623
| 17> H 	 -45.0513 	 31.9277 	 88.0091
| 18> H 	 -44.2526 	 32.9115 	 86.8881
| 19> C 	 -46.306 	 33.4746 	 87.3181
| 20> H 	 -47.221 	 33.0326 	 87.7129
| 21> H 	 -45.8938 	 34.1411 	 88.0962
| 22> H 	 -46.4286 	 34.132 	 86.4308
| 23> S 	 -42.0623 	 26.3933 	 84.4662
| 24> C 	 -40.3438 	 26.3445 	 84.1261
| 25> C 	 -39.8262 	 27.6201 	 84.0606
| 26> C 	 -40.7758 	 28.6342 	 84.3981
| 27> C 	 -42.0373 	 28.1204 	 84.8264
| 28> H 	 -38.8188 	 27.7771 	 83.5906
| 29> C 	 -40.4505 	 30.149 	 84.3309
| 30> H 	 -39.4148 	 30.3387 	 84.6085
| 31> H 	 -40.9502 	 30.6272 	 85.2121
| 32> C 	 -40.7899 	 30.8484 	 83.0185
| 33> H 	 -40.6895 	 31.8866 	 83.0967
| 34> H 	 -41.7685 	 30.7306 	 82.747
| 35> C 	 -39.8302 	 30.3524 	 81.9001
| 36> H 	 -40.3701 	 30.1478 	 81.0224
| 37> H 	 -39.2472 	 29.4181 	 82.0644
| 38> H 	 -39.1517 	 31.1684 	 81.5703
| 39> H 	 -46.4637 	 28.9349 	 86.8032
| 40> H 	 -39.7933 	 25.5159 	 83.9517
| 41> *
| 42>
| 43>                          ****END OF INPUT****

CARTESIAN COORDINATES (ANGSTROEM)
---------------------------------
  S    -44.366100   27.634600   86.086700
  C    -45.463800   28.962600   86.408800
  C    -44.990200   30.168900   85.904800
  C    -43.663000   30.042800   85.424300
  C    -43.205200   28.738300   85.433000
  H    -43.007500   30.813300   85.051600
  C    -45.652400   31.537500   85.861200
  H    -46.664700   31.332700   85.719500
  H    -45.276000   31.984400   84.877100
  C    -45.216200   32.417500   87.062300
  H    -45.051300   31.927700   88.009100
  H    -44.252600   32.911500   86.888100
  C    -46.306000   33.474600   87.318100
  H    -47.221000   33.032600   87.712900
  H    -45.893800   34.141100   88.096200
  H    -46.428600   34.132000   86.430800
  S    -42.062300   26.393300   84.466200
  C    -40.343800   26.344500   84.126100
  C    -39.826200   27.620100   84.060600
  C    -40.775800   28.634200   84.398100
  C    -42.037300   28.120400   84.826400
  H    -38.818800   27.777100   83.590600
  C    -40.450500   30.149000   84.330900
  H    -39.414800   30.338700   84.608500
  H    -40.950200   30.627200   85.212100
  C    -40.789900   30.848400   83.018500
  H    -40.689500   31.886600   83.096700
  H    -41.768500   30.730600   82.747000
  C    -39.830200   30.352400   81.900100
  H    -40.370100   30.147800   81.022400
  H    -39.247200   29.418100   82.064400
  H    -39.151700   31.168400   81.570300
  H    -46.463700   28.934900   86.803200
  H    -39.793300   25.515900   83.951700

 Total Charge           Charge          ....    0
 Multiplicity           Mult            ....    1
 Number of Electrons    NEL             ....  134
 Basis Dimension        Dim             ....  322

ORBITAL ENERGIES
----------------

  NO   OCC          E(Eh)            E(eV)
   0   2.0000     -88.967780     -2420.9364
   1   2.0000     -88.966220     -2420.8939
   2   2.0000     -10.332558      -281.1632
   3   2.0000     -10.328950      -281.0650
   4   2.0000     -10.311333      -280.5856
   5   2.0000     -10.310759      -280.5700
   6   2.0000     -10.307530      -280.4822
   7   2.0000     -10.299146      -280.2540
   8   2.0000     -10.297793      -280.2172
   9   2.0000     -10.296358      -280.1781
  10   2.0000     -10.294937      -280.1395
  11   2.0000     -10.290212      -280.0109
  12   2.0000     -10.290067      -280.0070
  13   2.0000     -10.281912      -279.7851
  14   2.0000     -10.278062      -279.6803
  15   2.0000     -10.275137      -279.6007
  16   2.0000      -8.082670      -219.9406
  17   2.0000      -8.080642      -219.8854
  18   2.0000      -6.041226      -164.3901
  19   2.0000      -6.039233      -164.3359
  20   2.0000      -6.037214      -164.2809
  21   2.0000      -6.035231      -164.2270
  22   2.0000      -6.033299      -164.1744
  23   2.0000      -6.031298      -164.1200
  24   2.0000      -1.008122       -27.4324
  25   2.0000      -0.981941       -26.7200
  26   2.0000      -0.913078       -24.8461
  27   2.0000      -0.907545       -24.6956
  28   2.0000      -0.870326       -23.6828
  29   2.0000      -0.851934       -23.1823
  30   2.0000      -0.840704       -22.8767
  31   2.0000      -0.814674       -22.1684
  32   2.0000      -0.782549       -21.2942
  33   2.0000      -0.771954       -21.0059
  34   2.0000      -0.714711       -19.4483
  35   2.0000      -0.704115       -19.1600
  36   2.0000      -0.699059       -19.0224
  37   2.0000      -0.662048       -18.0153
  38   2.0000      -0.639090       -17.3905
  39   2.0000      -0.621454       -16.9106
  40   2.0000      -0.593839       -16.1592
  41   2.0000      -0.569684       -15.5019
  42   2.0000      -0.558307       -15.1923
  43   2.0000      -0.550345       -14.9756
  44   2.0000      -0.547658       -14.9025
  45   2.0000      -0.532316       -14.4850
  46   2.0000      -0.514047       -13.9879
  47   2.0000      -0.511941       -13.9306
  48   2.0000      -0.501688       -13.6516
  49   2.0000      -0.498872       -13.5750
  50   2.0000      -0.488279       -13.2868
  51   2.0000      -0.483796       -13.1648
  52   2.0000      -0.474031       -12.8990
  53   2.0000      -0.464743       -12.6463
  54   2.0000      -0.460107       -12.5202
  55   2.0000      -0.449662       -12.2359
  56   2.0000      -0.444944       -12.1075
  57   2.0000      -0.440943       -11.9987
  58   2.0000      -0.432302       -11.7635
  59   2.0000      -0.424945       -11.5633
  60   2.0000      -0.418892       -11.3986
  61   2.0000      -0.415470       -11.3055
  62   2.0000      -0.410569       -11.1722
  63   2.0000      -0.358616        -9.7584
  64   2.0000      -0.334373        -9.0988
  65   2.0000      -0.328200        -8.9308
  66   2.0000      -0.277588        -7.5536
  67   0.0000       0.015588         0.4242
  68   0.0000       0.080311         2.1854
  69   0.0000       0.098644         2.6842
  70   0.0000       0.124432         3.3860
  71   0.0000       0.133025         3.6198

MULLIKEN ATOMIC CHARGES
-----------------------
   0 S :    0.104837
   1 C :   -0.101798
   2 C :   -0.110330
   3 C :   -0.004535
   4 C :   -0.106548
   5 H :   -0.001385
   6 C :    0.083601
   7 H :    0.012451
   8 H :    0.040543
   9 C :   -0.058899
  10 H :    0.034968
  11 H :    0.028616
  12 C :   -0.068219
  13 H :    0.044374
  14 H :    0.028549
  15 H :    0.037426
  16 S :    0.093619
  17 C :   -0.049129
  18 C :   -0.045448
  19 C :   -0.056278
  20 C :   -0.117572
  21 H :    0.046565
  22 C :   -0.000393
  23 H :    0.021176
  24 H :    0.027401
  25 C :    0.029824
  26 H :    0.013952
  27 H :    0.008542
  28 C :   -0.065039
  29 H :    0.014108
  30 H :    0.033495
  31 H :    0.033083
  32 H :    0.033718
  33 H :    0.014724
Sum of atomic charges:   -0.0000000

LOEWDIN ATOMIC CHARGES
----------------------
   0 S :    0.415026
   1 C :   -0.206599
   2 C :   -0.056400
   3 C :   -0.069780
   4 C :   -0.186588
   5 H :    0.027096
   6 C :   -0.026602
   7 H :    0.020176
   8 H :    0.043796
   9 C :   -0.037827
  10 H :    0.025296
  11 H :    0.026735
  12 C :   -0.067744
  13 H :    0.025037
  14 H :    0.026248
  15 H :    0.027212
  16 S :    0.395409
  17 C :   -0.169196
  18 C :   -0.077151
  19 C :   -0.058477
  20 C :   -0.190316
  21 H :    0.041189
  22 C :   -0.035708
  23 H :    0.028622
  24 H :    0.030308
  25 C :   -0.027654
  26 H :    0.021294
  27 H :    0.012678
  28 C :   -0.068569
  29 H :    0.020009
  30 H :    0.028803
  31 H :    0.030046
  32 H :    0.025672
  33 H :    0.007956

  Mayer bond orders larger than 0.100000
B(  0-S ,  1-C ) :   1.1253 B(  0-S ,  4-C ) :   1.1488 B(  1-C ,  2-C ) :   1.6209
B(  1-C , 32-H ) :   0.9658 B(  2-C ,  3-C ) :   1.2409 B(  2-C ,  6-C ) :   1.0163
B(  3-C ,  4-C ) :   1.5532 B(  3-C ,  5-H ) :   0.9876 B(  4-C , 20-C ) :   1.0910
B(  6-C ,  7-H ) :   0.9480 B(  6-C ,  8-H ) :   0.9377 B(  6-C ,  9-C ) :   1.0387
B(  9-C , 10-H ) :   0.9644 B(  9-C , 11-H ) :   0.9520 B(  9-C , 12-C ) :   1.0891
B( 12-C , 13-H ) :   0.9792 B( 12-C , 14-H ) :   0.9744 B( 12-C , 15-H ) :   0.9732
B( 16-S , 17-C ) :   1.1478 B( 16-S , 20-C ) :   1.1386 B( 17-C , 18-C ) :   1.5950
B( 17-C , 20-C ) :   0.1041 B( 17-C , 33-H ) :   0.9812 B( 18-C , 19-C ) :   1.2758
B( 18-C , 21-H ) :   0.9739 B( 19-C , 20-C ) :   1.5480 B( 19-C , 22-C ) :   1.0360
B( 22-C , 23-H ) :   0.9415 B( 22-C , 24-H ) :   0.9357 B( 22-C , 25-C ) :   1.0708
B( 25-C , 26-H ) :   0.9554 B( 25-C , 27-H ) :   0.9573 B( 25-C , 28-C ) :   1.0574
B( 28-C , 29-H ) :   0.9741 B( 28-C , 30-H ) :   0.9807 B( 28-C , 31-H ) :   0.9773

Dispersion correction           -0.014175771
FINAL SINGLE POINT ENERGY     -1339.859784106210

DIPOLE MOMENT
-------------
                                X             Y             Z
Electronic contribution:     -1.13696     -29.05405       3.29686
Nuclear contribution   :      1.22947      29.77117      -3.48405
                        -----------------------------------------
Total Dipole Moment    :      0.09251       0.71712      -0.18719
                        -----------------------------------------
Magnitude (a.u.)       :      0.74690
Magnitude (Debye)      :      1.89846

Rotational constants in cm-1:     0.020303     0.008396     0.006240
Rotational constants in MHz :   608.682898   251.697234   187.065370

                             ****ORCA TERMINATED NORMALLY****
TOTAL RUN TIME: 0 days 0 hours 0 minutes 30 seconds 379 msec
