                         Program Version 4.2.1 -  RELEASE  -
|  1> ! wB97X-D3 SP def2-SVP
|  2> %pal
|  3> nprocs 16
|  4> end
|  5>
|  6> * xyz 0 1
|  7> S 	 -94.7498 	 59.4525 	 126.529
|  8> C 	 -93.2809 	 58.5024 	 126.623
|  9> C 	 -93.043 	 58.0271 	 127.912
| 10> C 	 -94.0537 	 58.4977 	 128.794
| 11> C 	 -94.9938 	 59.3344 	 128.239
| 12> H 	 -94.1584 	 58.3129 	 129.84
| 13> C 	 -91.9891 	 56.9688 	 128.286
| 14> H 	 -91.0433 	 57.2563 	 127.973
| 15> H 	 -92.1713 	 56.0091 	 127.817
| 16> C 	 -91.7791 	 56.7584 	 129.731
| 17> H 	 -91.856 	 57.6767 	 130.282
| 18> H 	 -92.5496 	 56.1603 	 130.221
| 19> C 	 -90.39 	 56.0693 	 129.953
| 20> H 	 -90.4224 	 55.5817 	 130.948
| 21> H 	 -90.0376 	 55.3048 	 129.256
| 22> H 	 -89.5601 	 56.7543 	 130.234
| 23> S 	 -97.7389 	 59.1642 	 128.583
| 24> C 	 -98.4777 	 60.3155 	 129.686
| 25> C 	 -97.5123 	 60.9998 	 130.46
| 26> C 	 -96.2008 	 60.5412 	 130.112
| 27> C 	 -96.1641 	 59.8186 	 128.944
| 28> H 	 -97.7423 	 61.7185 	 131.252
| 29> C 	 -94.9936 	 61.2461 	 130.703
| 30> H 	 -95.0393 	 62.3025 	 130.39
| 31> H 	 -94.1573 	 60.7741 	 130.33
| 32> C 	 -94.9064 	 61.1358 	 132.169
| 33> H 	 -94.8994 	 60.0953 	 132.465
| 34> H 	 -95.8327 	 61.5 	 132.583
| 35> C 	 -93.6689 	 61.7423 	 132.84
| 36> H 	 -93.6907 	 61.6815 	 133.915
| 37> H 	 -93.5241 	 62.7615 	 132.592
| 38> H 	 -92.7265 	 61.4449 	 132.511
| 39> H 	 -92.6413 	 58.2392 	 125.741
| 40> H 	 -99.5487 	 60.4985 	 129.768
| 41> *
| 42>
| 43>                          ****END OF INPUT****

CARTESIAN COORDINATES (ANGSTROEM)
---------------------------------
  S    -94.749800   59.452500  126.529000
  C    -93.280900   58.502400  126.623000
  C    -93.043000   58.027100  127.912000
  C    -94.053700   58.497700  128.794000
  C    -94.993800   59.334400  128.239000
  H    -94.158400   58.312900  129.840000
  C    -91.989100   56.968800  128.286000
  H    -91.043300   57.256300  127.973000
  H    -92.171300   56.009100  127.817000
  C    -91.779100   56.758400  129.731000
  H    -91.856000   57.676700  130.282000
  H    -92.549600   56.160300  130.221000
  C    -90.390000   56.069300  129.953000
  H    -90.422400   55.581700  130.948000
  H    -90.037600   55.304800  129.256000
  H    -89.560100   56.754300  130.234000
  S    -97.738900   59.164200  128.583000
  C    -98.477700   60.315500  129.686000
  C    -97.512300   60.999800  130.460000
  C    -96.200800   60.541200  130.112000
  C    -96.164100   59.818600  128.944000
  H    -97.742300   61.718500  131.252000
  C    -94.993600   61.246100  130.703000
  H    -95.039300   62.302500  130.390000
  H    -94.157300   60.774100  130.330000
  C    -94.906400   61.135800  132.169000
  H    -94.899400   60.095300  132.465000
  H    -95.832700   61.500000  132.583000
  C    -93.668900   61.742300  132.840000
  H    -93.690700   61.681500  133.915000
  H    -93.524100   62.761500  132.592000
  H    -92.726500   61.444900  132.511000
  H    -92.641300   58.239200  125.741000
  H    -99.548700   60.498500  129.768000

 Total Charge           Charge          ....    0
 Multiplicity           Mult            ....    1
 Number of Electrons    NEL             ....  134
 Basis Dimension        Dim             ....  322

ORBITAL ENERGIES
----------------

  NO   OCC          E(Eh)            E(eV)
   0   2.0000     -88.969109     -2420.9725
   1   2.0000     -88.966081     -2420.8901
   2   2.0000     -10.323367      -280.9131
   3   2.0000     -10.321912      -280.8735
   4   2.0000     -10.320853      -280.8447
   5   2.0000     -10.318777      -280.7882
   6   2.0000     -10.303651      -280.3766
   7   2.0000     -10.298483      -280.2360
   8   2.0000     -10.297632      -280.2128
   9   2.0000     -10.290486      -280.0184
  10   2.0000     -10.284977      -279.8685
  11   2.0000     -10.284806      -279.8638
  12   2.0000     -10.284454      -279.8542
  13   2.0000     -10.278480      -279.6917
  14   2.0000     -10.276791      -279.6457
  15   2.0000     -10.267243      -279.3859
  16   2.0000      -8.083847      -219.9726
  17   2.0000      -8.080801      -219.8898
  18   2.0000      -6.042252      -164.4180
  19   2.0000      -6.039305      -164.3379
  20   2.0000      -6.038296      -164.3104
  21   2.0000      -6.035431      -164.2324
  22   2.0000      -6.034770      -164.2145
  23   2.0000      -6.031457      -164.1243
  24   2.0000      -1.009387       -27.4668
  25   2.0000      -0.984845       -26.7990
  26   2.0000      -0.920011       -25.0348
  27   2.0000      -0.917349       -24.9623
  28   2.0000      -0.869158       -23.6510
  29   2.0000      -0.852233       -23.1904
  30   2.0000      -0.845426       -23.0052
  31   2.0000      -0.811118       -22.0717
  32   2.0000      -0.787601       -21.4317
  33   2.0000      -0.776169       -21.1206
  34   2.0000      -0.713529       -19.4161
  35   2.0000      -0.704966       -19.1831
  36   2.0000      -0.689810       -18.7707
  37   2.0000      -0.658816       -17.9273
  38   2.0000      -0.646475       -17.5915
  39   2.0000      -0.620986       -16.8979
  40   2.0000      -0.598779       -16.2936
  41   2.0000      -0.572659       -15.5828
  42   2.0000      -0.570713       -15.5299
  43   2.0000      -0.566404       -15.4126
  44   2.0000      -0.530426       -14.4336
  45   2.0000      -0.526310       -14.3216
  46   2.0000      -0.515260       -14.0209
  47   2.0000      -0.507656       -13.8140
  48   2.0000      -0.505614       -13.7584
  49   2.0000      -0.493188       -13.4203
  50   2.0000      -0.489778       -13.3275
  51   2.0000      -0.483382       -13.1535
  52   2.0000      -0.474936       -12.9237
  53   2.0000      -0.469065       -12.7639
  54   2.0000      -0.461023       -12.5451
  55   2.0000      -0.454750       -12.3744
  56   2.0000      -0.446714       -12.1557
  57   2.0000      -0.442427       -12.0391
  58   2.0000      -0.433165       -11.7870
  59   2.0000      -0.425149       -11.5689
  60   2.0000      -0.421448       -11.4682
  61   2.0000      -0.412165       -11.2156
  62   2.0000      -0.410975       -11.1832
  63   2.0000      -0.340122        -9.2552
  64   2.0000      -0.332281        -9.0418
  65   2.0000      -0.329252        -8.9594
  66   2.0000      -0.295071        -8.0293
  67   0.0000       0.030586         0.8323
  68   0.0000       0.065420         1.7802
  69   0.0000       0.108555         2.9539
  70   0.0000       0.123235         3.3534
  71   0.0000       0.128984         3.5098

MULLIKEN ATOMIC CHARGES
-----------------------
   0 S :    0.126650
   1 C :   -0.148335
   2 C :   -0.081544
   3 C :    0.030622
   4 C :   -0.185029
   5 H :    0.004902
   6 C :    0.132222
   7 H :    0.007181
   8 H :    0.040432
   9 C :   -0.089132
  10 H :    0.022721
  11 H :    0.029448
  12 C :   -0.078394
  13 H :    0.019598
  14 H :    0.046853
  15 H :    0.037399
  16 S :    0.117829
  17 C :   -0.099686
  18 C :   -0.037062
  19 C :   -0.055268
  20 C :   -0.143605
  21 H :    0.035806
  22 C :    0.115455
  23 H :    0.041016
  24 H :   -0.010523
  25 C :   -0.082383
  26 H :    0.015833
  27 H :    0.008801
  28 C :    0.019399
  29 H :    0.031816
  30 H :   -0.000811
  31 H :    0.001965
  32 H :    0.064581
  33 H :    0.061241
Sum of atomic charges:    0.0000000

LOEWDIN ATOMIC CHARGES
----------------------
   0 S :    0.422945
   1 C :   -0.202012
   2 C :   -0.062797
   3 C :   -0.059023
   4 C :   -0.209399
   5 H :    0.026606
   6 C :   -0.026991
   7 H :    0.024498
   8 H :    0.036007
   9 C :   -0.041555
  10 H :    0.023063
  11 H :    0.022516
  12 C :   -0.079697
  13 H :    0.030236
  14 H :    0.027666
  15 H :    0.032275
  16 S :    0.406161
  17 C :   -0.182849
  18 C :   -0.067661
  19 C :   -0.055521
  20 C :   -0.202217
  21 H :    0.035026
  22 C :   -0.024431
  23 H :    0.036969
  24 H :    0.014877
  25 C :   -0.038742
  26 H :    0.023539
  27 H :    0.017305
  28 C :   -0.061707
  29 H :    0.028164
  30 H :    0.020665
  31 H :    0.018387
  32 H :    0.038698
  33 H :    0.029001

  Mayer bond orders larger than 0.100000
B(  0-S ,  1-C ) :   1.1574 B(  0-S ,  4-C ) :   1.1566 B(  1-C ,  2-C ) :   1.5971
B(  1-C , 32-H ) :   0.9660 B(  2-C ,  3-C ) :   1.2645 B(  2-C ,  6-C ) :   1.0042
B(  3-C ,  4-C ) :   1.5541 B(  3-C ,  5-H ) :   0.9931 B(  4-C , 20-C ) :   1.0337
B(  6-C ,  7-H ) :   0.9361 B(  6-C ,  8-H ) :   0.9311 B(  6-C ,  9-C ) :   1.0904
B(  9-C , 10-H ) :   0.9502 B(  9-C , 11-H ) :   0.9506 B(  9-C , 12-C ) :   1.0747
B( 12-C , 13-H ) :   0.9696 B( 12-C , 14-H ) :   0.9778 B( 12-C , 15-H ) :   0.9722
B( 16-S , 17-C ) :   1.1545 B( 16-S , 20-C ) :   1.1442 B( 17-C , 18-C ) :   1.6050
B( 17-C , 20-C ) :   0.1006 B( 17-C , 33-H ) :   0.9681 B( 18-C , 19-C ) :   1.2235
B( 18-C , 21-H ) :   0.9864 B( 19-C , 20-C ) :   1.5971 B( 19-C , 22-C ) :   1.0627
B( 22-C , 23-H ) :   0.9381 B( 22-C , 24-H ) :   0.9212 B( 22-C , 25-C ) :   1.0641
B( 25-C , 26-H ) :   0.9512 B( 25-C , 27-H ) :   0.9544 B( 25-C , 28-C ) :   1.0865
B( 28-C , 29-H ) :   0.9740 B( 28-C , 30-H ) :   0.9639 B( 28-C , 31-H ) :   0.9669

Dispersion correction           -0.013789054
FINAL SINGLE POINT ENERGY     -1339.859251472984

DIPOLE MOMENT
-------------
                                X             Y             Z
Electronic contribution:    -22.81360       2.63662     -21.76322
Nuclear contribution   :     23.25483      -2.73736      22.21762
                        -----------------------------------------
Total Dipole Moment    :      0.44123      -0.10074       0.45440
                        -----------------------------------------
Magnitude (a.u.)       :      0.64133
Magnitude (Debye)      :      1.63014

Rotational constants in cm-1:     0.015893     0.009283     0.006743
Rotational constants in MHz :   476.460238   278.291865   202.140088

                             ****ORCA TERMINATED NORMALLY****
TOTAL RUN TIME: 0 days 0 hours 0 minutes 32 seconds 653 msec
