                         Program Version 4.2.1 -  RELEASE  -
|  1> ! wB97X-D3 SP def2-SVP
|  2> %pal
|  3> nprocs 16
|  4> end
|  5>
|  6> * xyz 0 1
|  7> S 	 -62.218 	 53.6946 	 126.479
|  8> C 	 -63.1132 	 52.3655 	 125.781
|  9> C 	 -63.5365 	 51.383 	 126.669
| 10> C 	 -63.0448 	 51.6511 	 127.965
| 11> C 	 -62.3432 	 52.844 	 128.052
| 12> H 	 -63.2091 	 51.0594 	 128.841
| 13> C 	 -64.3914 	 50.1701 	 126.328
| 14> H 	 -64.7876 	 49.7981 	 127.291
| 15> H 	 -63.7647 	 49.3521 	 126.132
| 16> C 	 -65.3847 	 50.3991 	 125.198
| 17> H 	 -66.0776 	 51.2059 	 125.351
| 18> H 	 -64.7043 	 50.5799 	 124.353
| 19> C 	 -66.2724 	 49.12 	 125.04
| 20> H 	 -66.7019 	 48.8659 	 126.034
| 21> H 	 -67.1342 	 49.3692 	 124.358
| 22> H 	 -65.7533 	 48.3454 	 124.508
| 23> S 	 -59.8547 	 53.776 	 128.851
| 24> C 	 -59.6054 	 54.1501 	 130.541
| 25> C 	 -60.6949 	 53.8397 	 131.294
| 26> C 	 -61.7639 	 53.2691 	 130.564
| 27> C 	 -61.496 	 53.2548 	 129.176
| 28> H 	 -60.5542 	 54.1131 	 132.295
| 29> C 	 -63.0132 	 52.7068 	 131.196
| 30> H 	 -62.8706 	 52.5562 	 132.289
| 31> H 	 -63.32 	 51.7133 	 130.898
| 32> C 	 -64.3756 	 53.5321 	 130.979
| 33> H 	 -65.2538 	 53.0108 	 131.335
| 34> H 	 -64.4882 	 53.6251 	 129.893
| 35> C 	 -64.3843 	 54.924 	 131.742
| 36> H 	 -63.5389 	 55.4847 	 131.407
| 37> H 	 -64.3387 	 54.8522 	 132.812
| 38> H 	 -65.2446 	 55.4941 	 131.479
| 39> H 	 -63.4514 	 52.4884 	 124.822
| 40> H 	 -58.735 	 54.5612 	 130.975
| 41> *
| 42>
| 43>                          ****END OF INPUT****

CARTESIAN COORDINATES (ANGSTROEM)
---------------------------------
  S    -62.218000   53.694600  126.479000
  C    -63.113200   52.365500  125.781000
  C    -63.536500   51.383000  126.669000
  C    -63.044800   51.651100  127.965000
  C    -62.343200   52.844000  128.052000
  H    -63.209100   51.059400  128.841000
  C    -64.391400   50.170100  126.328000
  H    -64.787600   49.798100  127.291000
  H    -63.764700   49.352100  126.132000
  C    -65.384700   50.399100  125.198000
  H    -66.077600   51.205900  125.351000
  H    -64.704300   50.579900  124.353000
  C    -66.272400   49.120000  125.040000
  H    -66.701900   48.865900  126.034000
  H    -67.134200   49.369200  124.358000
  H    -65.753300   48.345400  124.508000
  S    -59.854700   53.776000  128.851000
  C    -59.605400   54.150100  130.541000
  C    -60.694900   53.839700  131.294000
  C    -61.763900   53.269100  130.564000
  C    -61.496000   53.254800  129.176000
  H    -60.554200   54.113100  132.295000
  C    -63.013200   52.706800  131.196000
  H    -62.870600   52.556200  132.289000
  H    -63.320000   51.713300  130.898000
  C    -64.375600   53.532100  130.979000
  H    -65.253800   53.010800  131.335000
  H    -64.488200   53.625100  129.893000
  C    -64.384300   54.924000  131.742000
  H    -63.538900   55.484700  131.407000
  H    -64.338700   54.852200  132.812000
  H    -65.244600   55.494100  131.479000
  H    -63.451400   52.488400  124.822000
  H    -58.735000   54.561200  130.975000

 Total Charge           Charge          ....    0
 Multiplicity           Mult            ....    1
 Number of Electrons    NEL             ....  134
 Basis Dimension        Dim             ....  322

ORBITAL ENERGIES
----------------

  NO   OCC          E(Eh)            E(eV)
   0   2.0000     -88.969583     -2420.9854
   1   2.0000     -88.965435     -2420.8726
   2   2.0000     -10.332286      -281.1558
   3   2.0000     -10.328327      -281.0481
   4   2.0000     -10.307976      -280.4943
   5   2.0000     -10.307911      -280.4925
   6   2.0000     -10.305373      -280.4235
   7   2.0000     -10.302282      -280.3394
   8   2.0000     -10.294971      -280.1404
   9   2.0000     -10.293913      -280.1116
  10   2.0000     -10.291417      -280.0437
  11   2.0000     -10.291014      -280.0327
  12   2.0000     -10.287936      -279.9490
  13   2.0000     -10.286882      -279.9203
  14   2.0000     -10.286332      -279.9053
  15   2.0000     -10.267007      -279.3795
  16   2.0000      -8.083700      -219.9687
  17   2.0000      -8.080022      -219.8686
  18   2.0000      -6.042102      -164.4139
  19   2.0000      -6.038468      -164.3151
  20   2.0000      -6.038463      -164.3149
  21   2.0000      -6.034533      -164.2080
  22   2.0000      -6.034450      -164.2057
  23   2.0000      -6.030882      -164.1087
  24   2.0000      -1.004459       -27.3327
  25   2.0000      -0.983022       -26.7494
  26   2.0000      -0.914429       -24.8829
  27   2.0000      -0.894801       -24.3488
  28   2.0000      -0.868228       -23.6257
  29   2.0000      -0.854595       -23.2547
  30   2.0000      -0.841647       -22.9024
  31   2.0000      -0.814791       -22.1716
  32   2.0000      -0.782902       -21.3038
  33   2.0000      -0.770621       -20.9697
  34   2.0000      -0.716740       -19.5035
  35   2.0000      -0.703361       -19.1394
  36   2.0000      -0.687311       -18.7027
  37   2.0000      -0.663438       -18.0531
  38   2.0000      -0.644701       -17.5432
  39   2.0000      -0.620531       -16.8855
  40   2.0000      -0.593788       -16.1578
  41   2.0000      -0.575486       -15.6598
  42   2.0000      -0.569277       -15.4908
  43   2.0000      -0.544280       -14.8106
  44   2.0000      -0.536874       -14.6091
  45   2.0000      -0.522885       -14.2284
  46   2.0000      -0.516591       -14.0571
  47   2.0000      -0.511051       -13.9064
  48   2.0000      -0.501524       -13.6472
  49   2.0000      -0.493982       -13.4419
  50   2.0000      -0.486298       -13.2329
  51   2.0000      -0.481460       -13.1012
  52   2.0000      -0.473995       -12.8981
  53   2.0000      -0.466754       -12.7010
  54   2.0000      -0.460585       -12.5332
  55   2.0000      -0.450706       -12.2643
  56   2.0000      -0.439778       -11.9670
  57   2.0000      -0.436587       -11.8801
  58   2.0000      -0.430006       -11.7010
  59   2.0000      -0.428565       -11.6619
  60   2.0000      -0.421152       -11.4601
  61   2.0000      -0.418455       -11.3867
  62   2.0000      -0.415024       -11.2934
  63   2.0000      -0.353031        -9.6065
  64   2.0000      -0.333482        -9.0745
  65   2.0000      -0.330176        -8.9845
  66   2.0000      -0.282903        -7.6982
  67   0.0000       0.023840         0.6487
  68   0.0000       0.071069         1.9339
  69   0.0000       0.105138         2.8609
  70   0.0000       0.120601         3.2817
  71   0.0000       0.137153         3.7321

MULLIKEN ATOMIC CHARGES
-----------------------
   0 S :    0.106478
   1 C :   -0.115733
   2 C :   -0.059195
   3 C :    0.023346
   4 C :   -0.143463
   5 H :   -0.000988
   6 C :    0.096226
   7 H :    0.004049
   8 H :    0.023334
   9 C :   -0.095899
  10 H :    0.039687
  11 H :    0.043906
  12 C :   -0.057522
  13 H :    0.044200
  14 H :    0.036153
  15 H :    0.036122
  16 S :    0.110028
  17 C :   -0.091309
  18 C :   -0.020399
  19 C :    0.019759
  20 C :   -0.148844
  21 H :   -0.002105
  22 C :    0.026895
  23 H :    0.021946
  24 H :    0.023520
  25 C :   -0.089053
  26 H :    0.024958
  27 H :    0.043687
  28 C :   -0.036239
  29 H :    0.028441
  30 H :    0.025160
  31 H :    0.026694
  32 H :    0.019237
  33 H :    0.036923
Sum of atomic charges:   -0.0000000

LOEWDIN ATOMIC CHARGES
----------------------
   0 S :    0.391616
   1 C :   -0.184540
   2 C :   -0.054481
   3 C :   -0.052830
   4 C :   -0.177081
   5 H :    0.027815
   6 C :   -0.032547
   7 H :    0.027768
   8 H :    0.029789
   9 C :   -0.036600
  10 H :    0.024555
  11 H :    0.029223
  12 C :   -0.066043
  13 H :    0.030650
  14 H :    0.030646
  15 H :    0.022341
  16 S :    0.405520
  17 C :   -0.183300
  18 C :   -0.064926
  19 C :   -0.061465
  20 C :   -0.191711
  21 H :    0.027587
  22 C :   -0.037129
  23 H :    0.032145
  24 H :    0.025265
  25 C :   -0.031520
  26 H :    0.018902
  27 H :    0.025019
  28 C :   -0.063730
  29 H :    0.022179
  30 H :    0.020496
  31 H :    0.021848
  32 H :    0.002332
  33 H :    0.022207

  Mayer bond orders larger than 0.100000
B(  0-S ,  1-C ) :   1.1412 B(  0-S ,  4-C ) :   1.1428 B(  1-C ,  2-C ) :   1.5971
B(  1-C , 32-H ) :   0.9718 B(  2-C ,  3-C ) :   1.2566 B(  2-C ,  6-C ) :   1.0116
B(  3-C ,  4-C ) :   1.5616 B(  3-C ,  5-H ) :   0.9918 B(  4-C , 20-C ) :   1.0567
B(  6-C ,  7-H ) :   0.9363 B(  6-C ,  8-H ) :   0.9268 B(  6-C ,  9-C ) :   1.0537
B(  9-C , 10-H ) :   0.9676 B(  9-C , 11-H ) :   0.9485 B(  9-C , 12-C ) :   1.0820
B( 12-C , 13-H ) :   0.9744 B( 12-C , 14-H ) :   0.9770 B( 12-C , 15-H ) :   0.9757
B( 16-S , 17-C ) :   1.1402 B( 16-S , 20-C ) :   1.1566 B( 17-C , 18-C ) :   1.6313
B( 17-C , 33-H ) :   0.9689 B( 18-C , 19-C ) :   1.2272 B( 18-C , 21-H ) :   1.0028
B( 19-C , 20-C ) :   1.5585 B( 19-C , 22-C ) :   1.0414 B( 22-C , 23-H ) :   0.9400
B( 22-C , 24-H ) :   0.9409 B( 22-C , 25-C ) :   1.0571 B( 25-C , 26-H ) :   0.9602
B( 25-C , 27-H ) :   0.9597 B( 25-C , 28-C ) :   1.0682 B( 28-C , 29-H ) :   0.9795
B( 28-C , 30-H ) :   0.9777 B( 28-C , 31-H ) :   0.9760

Dispersion correction           -0.014237068
FINAL SINGLE POINT ENERGY     -1339.871928755365

DIPOLE MOMENT
-------------
                                X             Y             Z
Electronic contribution:     24.33137      11.26963      -4.06229
Nuclear contribution   :    -24.77567     -11.69260       4.21994
                        -----------------------------------------
Total Dipole Moment    :     -0.44430      -0.42297       0.15765
                        -----------------------------------------
Magnitude (a.u.)       :      0.63337
Magnitude (Debye)      :      1.60989

Rotational constants in cm-1:     0.021312     0.007761     0.006398
Rotational constants in MHz :   638.929804   232.679754   191.815810

                             ****ORCA TERMINATED NORMALLY****
TOTAL RUN TIME: 0 days 0 hours 0 minutes 33 seconds 576 msec
