                         Program Version 4.2.1 -  RELEASE  -
|  1> ! wB97X-D3 SP def2-SVP
|  2> %pal
|  3> nprocs 16
|  4> end
|  5>
|  6> * xyz 0 1
|  7> S 	 -36.7663 	 63.7875 	 105.984
|  8> C 	 -36.809 	 64.241 	 107.674
|  9> C 	 -37.6604 	 63.5121 	 108.415
| 10> C 	 -38.2732 	 62.4426 	 107.688
| 11> C 	 -37.9275 	 62.483 	 106.327
| 12> H 	 -39.0582 	 61.8537 	 108.122
| 13> C 	 -38.0409 	 63.7038 	 109.898
| 14> H 	 -39.1353 	 63.6343 	 110.046
| 15> H 	 -37.7394 	 64.6837 	 110.136
| 16> C 	 -37.4105 	 62.8015 	 110.903
| 17> H 	 -36.3283 	 62.929 	 110.828
| 18> H 	 -37.6564 	 63.051 	 111.934
| 19> C 	 -37.5521 	 61.2739 	 110.635
| 20> H 	 -37.075 	 60.7162 	 111.377
| 21> H 	 -38.591 	 60.9576 	 110.495
| 22> H 	 -37.1793 	 60.9957 	 109.671
| 23> S 	 -37.8661 	 60.1394 	 104.878
| 24> C 	 -39.1578 	 59.7101 	 103.787
| 25> C 	 -40.0876 	 60.7086 	 103.684
| 26> C 	 -39.6939 	 61.8677 	 104.528
| 27> C 	 -38.4838 	 61.7322 	 105.202
| 28> H 	 -40.9371 	 60.6332 	 102.941
| 29> C 	 -40.5042 	 63.1101 	 104.719
| 30> H 	 -41.0363 	 63.4267 	 103.745
| 31> H 	 -39.8067 	 63.9412 	 104.889
| 32> C 	 -41.4858 	 62.9907 	 105.897
| 33> H 	 -41.0622 	 62.8497 	 106.906
| 34> H 	 -42.1331 	 62.1587 	 105.722
| 35> C 	 -42.4592 	 64.2578 	 106.007
| 36> H 	 -42.9531 	 64.1403 	 107.005
| 37> H 	 -43.2678 	 64.3567 	 105.311
| 38> H 	 -41.9158 	 65.1949 	 106.012
| 39> H 	 -36.1886 	 65.1279 	 108.039
| 40> H 	 -39.322 	 58.852 	 103.163
| 41> *
| 42>
| 43>                          ****END OF INPUT****

CARTESIAN COORDINATES (ANGSTROEM)
---------------------------------
  S    -36.766300   63.787500  105.984000
  C    -36.809000   64.241000  107.674000
  C    -37.660400   63.512100  108.415000
  C    -38.273200   62.442600  107.688000
  C    -37.927500   62.483000  106.327000
  H    -39.058200   61.853700  108.122000
  C    -38.040900   63.703800  109.898000
  H    -39.135300   63.634300  110.046000
  H    -37.739400   64.683700  110.136000
  C    -37.410500   62.801500  110.903000
  H    -36.328300   62.929000  110.828000
  H    -37.656400   63.051000  111.934000
  C    -37.552100   61.273900  110.635000
  H    -37.075000   60.716200  111.377000
  H    -38.591000   60.957600  110.495000
  H    -37.179300   60.995700  109.671000
  S    -37.866100   60.139400  104.878000
  C    -39.157800   59.710100  103.787000
  C    -40.087600   60.708600  103.684000
  C    -39.693900   61.867700  104.528000
  C    -38.483800   61.732200  105.202000
  H    -40.937100   60.633200  102.941000
  C    -40.504200   63.110100  104.719000
  H    -41.036300   63.426700  103.745000
  H    -39.806700   63.941200  104.889000
  C    -41.485800   62.990700  105.897000
  H    -41.062200   62.849700  106.906000
  H    -42.133100   62.158700  105.722000
  C    -42.459200   64.257800  106.007000
  H    -42.953100   64.140300  107.005000
  H    -43.267800   64.356700  105.311000
  H    -41.915800   65.194900  106.012000
  H    -36.188600   65.127900  108.039000
  H    -39.322000   58.852000  103.163000

 Total Charge           Charge          ....    0
 Multiplicity           Mult            ....    1
 Number of Electrons    NEL             ....  134
 Basis Dimension        Dim             ....  322

ORBITAL ENERGIES
----------------

  NO   OCC          E(Eh)            E(eV)
   0   2.0000     -88.969727     -2420.9894
   1   2.0000     -88.962180     -2420.7840
   2   2.0000     -10.337758      -281.3047
   3   2.0000     -10.322946      -280.9016
   4   2.0000     -10.320098      -280.8241
   5   2.0000     -10.316385      -280.7231
   6   2.0000     -10.306589      -280.4565
   7   2.0000     -10.301758      -280.3251
   8   2.0000     -10.301153      -280.3086
   9   2.0000     -10.300872      -280.3010
  10   2.0000     -10.291998      -280.0595
  11   2.0000     -10.291398      -280.0432
  12   2.0000     -10.287833      -279.9462
  13   2.0000     -10.284987      -279.8687
  14   2.0000     -10.277024      -279.6520
  15   2.0000     -10.269496      -279.4472
  16   2.0000      -8.083986      -219.9764
  17   2.0000      -8.077180      -219.7912
  18   2.0000      -6.042436      -164.4230
  19   2.0000      -6.038621      -164.3192
  20   2.0000      -6.035825      -164.2431
  21   2.0000      -6.034759      -164.2141
  22   2.0000      -6.031490      -164.1252
  23   2.0000      -6.027908      -164.0277
  24   2.0000      -1.005449       -27.3597
  25   2.0000      -0.984383       -26.7864
  26   2.0000      -0.914985       -24.8980
  27   2.0000      -0.900642       -24.5077
  28   2.0000      -0.870511       -23.6878
  29   2.0000      -0.847153       -23.0522
  30   2.0000      -0.838170       -22.8078
  31   2.0000      -0.818323       -22.2677
  32   2.0000      -0.789443       -21.4818
  33   2.0000      -0.764961       -20.8156
  34   2.0000      -0.706073       -19.2132
  35   2.0000      -0.700959       -19.0741
  36   2.0000      -0.694482       -18.8978
  37   2.0000      -0.654261       -17.8034
  38   2.0000      -0.641482       -17.4556
  39   2.0000      -0.619895       -16.8682
  40   2.0000      -0.587706       -15.9923
  41   2.0000      -0.574842       -15.6423
  42   2.0000      -0.557081       -15.1589
  43   2.0000      -0.551143       -14.9974
  44   2.0000      -0.548919       -14.9368
  45   2.0000      -0.521106       -14.1800
  46   2.0000      -0.516768       -14.0620
  47   2.0000      -0.510113       -13.8809
  48   2.0000      -0.504916       -13.7395
  49   2.0000      -0.492972       -13.4144
  50   2.0000      -0.487147       -13.2559
  51   2.0000      -0.479037       -13.0353
  52   2.0000      -0.472040       -12.8449
  53   2.0000      -0.461090       -12.5469
  54   2.0000      -0.455842       -12.4041
  55   2.0000      -0.450180       -12.2500
  56   2.0000      -0.443222       -12.0607
  57   2.0000      -0.440696       -11.9919
  58   2.0000      -0.439155       -11.9500
  59   2.0000      -0.422072       -11.4852
  60   2.0000      -0.416091       -11.3224
  61   2.0000      -0.411002       -11.1839
  62   2.0000      -0.407603       -11.0914
  63   2.0000      -0.337952        -9.1961
  64   2.0000      -0.331293        -9.0149
  65   2.0000      -0.323159        -8.7936
  66   2.0000      -0.312246        -8.4966
  67   0.0000       0.043941         1.1957
  68   0.0000       0.053344         1.4516
  69   0.0000       0.105340         2.8665
  70   0.0000       0.122400         3.3307
  71   0.0000       0.125248         3.4082

MULLIKEN ATOMIC CHARGES
-----------------------
   0 S :    0.114043
   1 C :   -0.151272
   2 C :   -0.110064
   3 C :    0.077638
   4 C :   -0.189092
   5 H :    0.020095
   6 C :    0.101891
   7 H :    0.033653
   8 H :    0.002362
   9 C :   -0.063581
  10 H :    0.019270
  11 H :    0.032794
  12 C :   -0.040502
  13 H :    0.029624
  14 H :    0.012738
  15 H :    0.031253
  16 S :    0.106116
  17 C :   -0.074117
  18 C :   -0.051267
  19 C :   -0.055526
  20 C :   -0.140030
  21 H :    0.046082
  22 C :    0.049312
  23 H :    0.035771
  24 H :    0.024592
  25 C :   -0.065741
  26 H :    0.034234
  27 H :    0.020834
  28 C :   -0.064685
  29 H :    0.029590
  30 H :    0.030714
  31 H :    0.031884
  32 H :    0.072001
  33 H :    0.049386
Sum of atomic charges:    0.0000000

LOEWDIN ATOMIC CHARGES
----------------------
   0 S :    0.400054
   1 C :   -0.200216
   2 C :   -0.069217
   3 C :   -0.045444
   4 C :   -0.184100
   5 H :    0.030447
   6 C :   -0.025605
   7 H :    0.033264
   8 H :    0.023827
   9 C :   -0.039075
  10 H :    0.025411
  11 H :    0.024891
  12 C :   -0.062657
  13 H :    0.019716
  14 H :    0.019267
  15 H :    0.024220
  16 S :    0.412081
  17 C :   -0.186603
  18 C :   -0.083440
  19 C :   -0.049290
  20 C :   -0.223457
  21 H :    0.043929
  22 C :   -0.043987
  23 H :    0.038602
  24 H :    0.028356
  25 C :   -0.032732
  26 H :    0.026774
  27 H :    0.019780
  28 C :   -0.069621
  29 H :    0.029831
  30 H :    0.018042
  31 H :    0.021685
  32 H :    0.042267
  33 H :    0.033002

  Mayer bond orders larger than 0.100000
B(  0-S ,  1-C ) :   1.1325 B(  0-S ,  4-C ) :   1.1582 B(  1-C ,  2-C ) :   1.6619
B(  1-C , 32-H ) :   0.9524 B(  2-C ,  3-C ) :   1.2282 B(  2-C ,  6-C ) :   1.0101
B(  3-C ,  4-C ) :   1.5811 B(  3-C ,  5-H ) :   0.9904 B(  4-C , 20-C ) :   0.9908
B(  6-C ,  7-H ) :   0.9428 B(  6-C ,  8-H ) :   0.9312 B(  6-C ,  9-C ) :   1.0886
B(  9-C , 10-H ) :   0.9478 B(  9-C , 11-H ) :   0.9567 B(  9-C , 12-C ) :   1.0841
B( 12-C , 13-H ) :   0.9736 B( 12-C , 14-H ) :   0.9733 B( 12-C , 15-H ) :   0.9652
B( 16-S , 17-C ) :   1.1596 B( 16-S , 20-C ) :   1.1230 B( 17-C , 18-C ) :   1.6334
B( 17-C , 33-H ) :   0.9630 B( 18-C , 19-C ) :   1.2195 B( 18-C , 21-H ) :   0.9800
B( 19-C , 20-C ) :   1.6229 B( 19-C , 22-C ) :   1.0593 B( 22-C , 23-H ) :   0.9415
B( 22-C , 24-H ) :   0.9267 B( 22-C , 25-C ) :   1.0575 B( 25-C , 26-H ) :   0.9563
B( 25-C , 27-H ) :   0.9568 B( 25-C , 28-C ) :   1.0720 B( 28-C , 29-H ) :   0.9772
B( 28-C , 30-H ) :   0.9799 B( 28-C , 31-H ) :   0.9778

Dispersion correction           -0.015333786
FINAL SINGLE POINT ENERGY     -1339.874953382209

DIPOLE MOMENT
-------------
                                X             Y             Z
Electronic contribution:     15.42169      -6.21286     -17.65210
Nuclear contribution   :    -15.88936       6.39539      17.98173
                        -----------------------------------------
Total Dipole Moment    :     -0.46767       0.18252       0.32962
                        -----------------------------------------
Magnitude (a.u.)       :      0.60057
Magnitude (Debye)      :      1.52652

Rotational constants in cm-1:     0.017284     0.009250     0.008008
Rotational constants in MHz :   518.162581   277.315711   240.069308

                             ****ORCA TERMINATED NORMALLY****
TOTAL RUN TIME: 0 days 0 hours 0 minutes 30 seconds 958 msec
