                         Program Version 4.2.1 -  RELEASE  -
|  1> ! wB97X-D3 SP def2-SVP
|  2> %pal
|  3> nprocs 16
|  4> end
|  5>
|  6> * xyz 0 1
|  7> S 	 -110.069 	 55.0547 	 115.318
|  8> C 	 -110.498 	 55.4188 	 113.641
|  9> C 	 -110.29 	 54.3349 	 112.847
| 10> C 	 -109.756 	 53.2407 	 113.523
| 11> C 	 -109.484 	 53.4929 	 114.852
| 12> H 	 -109.437 	 52.2697 	 113.134
| 13> C 	 -110.627 	 54.2869 	 111.392
| 14> H 	 -111.706 	 54.1787 	 111.214
| 15> H 	 -110.206 	 53.3224 	 111.079
| 16> C 	 -110.048 	 55.3875 	 110.468
| 17> H 	 -110.612 	 56.2229 	 110.636
| 18> H 	 -109.121 	 55.5941 	 110.896
| 19> C 	 -110.036 	 55.143 	 108.887
| 20> H 	 -109.888 	 55.9954 	 108.25
| 21> H 	 -109.318 	 54.3583 	 108.725
| 22> H 	 -111.069 	 54.791 	 108.539
| 23> S 	 -107.5 	 53.088 	 116.653
| 24> C 	 -107.545 	 51.8033 	 117.823
| 25> C 	 -108.355 	 50.7938 	 117.269
| 26> C 	 -109.188 	 51.2671 	 116.158
| 27> C 	 -108.867 	 52.5656 	 115.789
| 28> H 	 -108.395 	 49.8407 	 117.72
| 29> C 	 -110.341 	 50.4489 	 115.611
| 30> H 	 -109.95 	 49.4346 	 115.771
| 31> H 	 -110.442 	 50.6049 	 114.546
| 32> C 	 -111.697 	 50.5244 	 116.208
| 33> H 	 -111.659 	 50.1874 	 117.236
| 34> H 	 -112.424 	 49.8648 	 115.722
| 35> C 	 -112.354 	 51.906 	 116.236
| 36> H 	 -112.838 	 52.1367 	 115.261
| 37> H 	 -111.642 	 52.6263 	 116.465
| 38> H 	 -113.113 	 51.9487 	 116.927
| 39> H 	 -111.062 	 56.3448 	 113.314
| 40> H 	 -106.945 	 51.7844 	 118.712
| 41> *
| 42>
| 43>                          ****END OF INPUT****

CARTESIAN COORDINATES (ANGSTROEM)
---------------------------------
  S    -110.069000   55.054700  115.318000
  C    -110.498000   55.418800  113.641000
  C    -110.290000   54.334900  112.847000
  C    -109.756000   53.240700  113.523000
  C    -109.484000   53.492900  114.852000
  H    -109.437000   52.269700  113.134000
  C    -110.627000   54.286900  111.392000
  H    -111.706000   54.178700  111.214000
  H    -110.206000   53.322400  111.079000
  C    -110.048000   55.387500  110.468000
  H    -110.612000   56.222900  110.636000
  H    -109.121000   55.594100  110.896000
  C    -110.036000   55.143000  108.887000
  H    -109.888000   55.995400  108.250000
  H    -109.318000   54.358300  108.725000
  H    -111.069000   54.791000  108.539000
  S    -107.500000   53.088000  116.653000
  C    -107.545000   51.803300  117.823000
  C    -108.355000   50.793800  117.269000
  C    -109.188000   51.267100  116.158000
  C    -108.867000   52.565600  115.789000
  H    -108.395000   49.840700  117.720000
  C    -110.341000   50.448900  115.611000
  H    -109.950000   49.434600  115.771000
  H    -110.442000   50.604900  114.546000
  C    -111.697000   50.524400  116.208000
  H    -111.659000   50.187400  117.236000
  H    -112.424000   49.864800  115.722000
  C    -112.354000   51.906000  116.236000
  H    -112.838000   52.136700  115.261000
  H    -111.642000   52.626300  116.465000
  H    -113.113000   51.948700  116.927000
  H    -111.062000   56.344800  113.314000
  H    -106.945000   51.784400  118.712000

 Total Charge           Charge          ....    0
 Multiplicity           Mult            ....    1
 Number of Electrons    NEL             ....  134
 Basis Dimension        Dim             ....  322

ORBITAL ENERGIES
----------------

  NO   OCC          E(Eh)            E(eV)
   0   2.0000     -88.969699     -2420.9886
   1   2.0000     -88.960651     -2420.7424
   2   2.0000     -10.328306      -281.0475
   3   2.0000     -10.322227      -280.8821
   4   2.0000     -10.319878      -280.8181
   5   2.0000     -10.317438      -280.7518
   6   2.0000     -10.306158      -280.4448
   7   2.0000     -10.299136      -280.2537
   8   2.0000     -10.296923      -280.1935
   9   2.0000     -10.292505      -280.0733
  10   2.0000     -10.290798      -280.0269
  11   2.0000     -10.288209      -279.9564
  12   2.0000     -10.286528      -279.9107
  13   2.0000     -10.279226      -279.7119
  14   2.0000     -10.276660      -279.6421
  15   2.0000     -10.256456      -279.0924
  16   2.0000      -8.083983      -219.9764
  17   2.0000      -8.076776      -219.7803
  18   2.0000      -6.042404      -164.4222
  19   2.0000      -6.038483      -164.3155
  20   2.0000      -6.035232      -164.2270
  21   2.0000      -6.034908      -164.2182
  22   2.0000      -6.030910      -164.1094
  23   2.0000      -6.027679      -164.0215
  24   2.0000      -1.013842       -27.5881
  25   2.0000      -0.990415       -26.9506
  26   2.0000      -0.912512       -24.8307
  27   2.0000      -0.910789       -24.7838
  28   2.0000      -0.868372       -23.6296
  29   2.0000      -0.851978       -23.1835
  30   2.0000      -0.844707       -22.9857
  31   2.0000      -0.814832       -22.1727
  32   2.0000      -0.785290       -21.3688
  33   2.0000      -0.775680       -21.1073
  34   2.0000      -0.715562       -19.4714
  35   2.0000      -0.703553       -19.1447
  36   2.0000      -0.691996       -18.8302
  37   2.0000      -0.665056       -18.0971
  38   2.0000      -0.640988       -17.4422
  39   2.0000      -0.616184       -16.7672
  40   2.0000      -0.594966       -16.1898
  41   2.0000      -0.570985       -15.5373
  42   2.0000      -0.567213       -15.4346
  43   2.0000      -0.556597       -15.1458
  44   2.0000      -0.548218       -14.9178
  45   2.0000      -0.521621       -14.1940
  46   2.0000      -0.515541       -14.0286
  47   2.0000      -0.513072       -13.9614
  48   2.0000      -0.507123       -13.7995
  49   2.0000      -0.497381       -13.5344
  50   2.0000      -0.491983       -13.3875
  51   2.0000      -0.482468       -13.1286
  52   2.0000      -0.475621       -12.9423
  53   2.0000      -0.463175       -12.6036
  54   2.0000      -0.462347       -12.5811
  55   2.0000      -0.451868       -12.2959
  56   2.0000      -0.443439       -12.0666
  57   2.0000      -0.438144       -11.9225
  58   2.0000      -0.434576       -11.8254
  59   2.0000      -0.428128       -11.6500
  60   2.0000      -0.413408       -11.2494
  61   2.0000      -0.410783       -11.1780
  62   2.0000      -0.405159       -11.0249
  63   2.0000      -0.342749        -9.3267
  64   2.0000      -0.337093        -9.1728
  65   2.0000      -0.324470        -8.8293
  66   2.0000      -0.297170        -8.0864
  67   0.0000       0.026367         0.7175
  68   0.0000       0.069159         1.8819
  69   0.0000       0.106444         2.8965
  70   0.0000       0.113560         3.0901
  71   0.0000       0.142435         3.8758

MULLIKEN ATOMIC CHARGES
-----------------------
   0 S :    0.129158
   1 C :   -0.155369
   2 C :   -0.073506
   3 C :    0.030530
   4 C :   -0.165028
   5 H :    0.022442
   6 C :    0.067385
   7 H :    0.039811
   8 H :    0.004336
   9 C :   -0.032241
  10 H :    0.004835
  11 H :    0.019038
  12 C :   -0.063157
  13 H :    0.040781
  14 H :    0.040590
  15 H :    0.031548
  16 S :    0.110815
  17 C :   -0.104275
  18 C :   -0.022380
  19 C :   -0.057386
  20 C :   -0.172856
  21 H :    0.009365
  22 C :    0.092068
  23 H :    0.020306
  24 H :    0.012026
  25 C :   -0.052475
  26 H :    0.011457
  27 H :    0.026413
  28 C :    0.003604
  29 H :    0.025193
  30 H :    0.013316
  31 H :    0.007281
  32 H :    0.073609
  33 H :    0.062766
Sum of atomic charges:   -0.0000000

LOEWDIN ATOMIC CHARGES
----------------------
   0 S :    0.418995
   1 C :   -0.198158
   2 C :   -0.073156
   3 C :   -0.061302
   4 C :   -0.198687
   5 H :    0.035512
   6 C :   -0.030064
   7 H :    0.032791
   8 H :    0.026145
   9 C :   -0.029399
  10 H :    0.008815
  11 H :    0.017682
  12 C :   -0.063065
  13 H :    0.026047
  14 H :    0.023344
  15 H :    0.032437
  16 S :    0.430238
  17 C :   -0.185753
  18 C :   -0.063810
  19 C :   -0.058706
  20 C :   -0.220783
  21 H :    0.022333
  22 C :   -0.035849
  23 H :    0.036817
  24 H :    0.025993
  25 C :   -0.038919
  26 H :    0.019886
  27 H :    0.027024
  28 C :   -0.052557
  29 H :    0.028391
  30 H :    0.011240
  31 H :    0.014258
  32 H :    0.043661
  33 H :    0.028600

  Mayer bond orders larger than 0.100000
B(  0-S ,  1-C ) :   1.1344 B(  0-S ,  4-C ) :   1.1695 B(  1-C ,  2-C ) :   1.5952
B(  1-C , 32-H ) :   0.9642 B(  2-C ,  3-C ) :   1.2616 B(  2-C ,  6-C ) :   1.0185
B(  3-C ,  4-C ) :   1.5595 B(  3-C ,  5-H ) :   0.9895 B(  4-C , 20-C ) :   1.0344
B(  6-C ,  7-H ) :   0.9296 B(  6-C ,  8-H ) :   0.9419 B(  6-C ,  9-C ) :   1.0571
B(  9-C , 10-H ) :   0.9520 B(  9-C , 11-H ) :   0.9634 B(  9-C , 12-C ) :   1.0714
B( 12-C , 13-H ) :   0.9780 B( 12-C , 14-H ) :   0.9807 B( 12-C , 15-H ) :   0.9757
B( 16-S , 17-C ) :   1.1670 B( 16-S , 20-C ) :   1.1689 B( 17-C , 18-C ) :   1.5698
B( 17-C , 33-H ) :   0.9770 B( 18-C , 19-C ) :   1.2433 B( 18-C , 21-H ) :   0.9959
B( 19-C , 20-C ) :   1.5653 B( 19-C , 22-C ) :   1.0425 B( 22-C , 23-H ) :   0.9217
B( 22-C , 24-H ) :   0.9301 B( 22-C , 25-C ) :   1.0935 B( 25-C , 26-H ) :   0.9501
B( 25-C , 27-H ) :   0.9512 B( 25-C , 28-C ) :   1.0868 B( 28-C , 29-H ) :   0.9741
B( 28-C , 30-H ) :   0.9722 B( 28-C , 31-H ) :   0.9701

Dispersion correction           -0.015107775
FINAL SINGLE POINT ENERGY     -1339.862649744085

DIPOLE MOMENT
-------------
                                X             Y             Z
Electronic contribution:     14.28880       5.43880      19.00326
Nuclear contribution   :    -14.59970      -5.73076     -19.30338
                        -----------------------------------------
Total Dipole Moment    :     -0.31090      -0.29196      -0.30012
                        -----------------------------------------
Magnitude (a.u.)       :      0.52151
Magnitude (Debye)      :      1.32558

Rotational constants in cm-1:     0.022559     0.007676     0.006932
Rotational constants in MHz :   676.306472   230.127866   207.828151

                             ****ORCA TERMINATED NORMALLY****
TOTAL RUN TIME: 0 days 0 hours 0 minutes 32 seconds 383 msec
