                         Program Version 4.2.1 -  RELEASE  -
|  1> ! wB97X-D3 SP def2-SVP
|  2> %pal
|  3> nprocs 16
|  4> end
|  5>
|  6> * xyz 0 1
|  7> S 	 -3.25908 	 -15.1544 	 84.8164
|  8> C 	 -3.53913 	 -16.4234 	 85.9913
|  9> C 	 -3.46977 	 -16.014 	 87.2963
| 10> C 	 -3.23767 	 -14.5929 	 87.3366
| 11> C 	 -3.11066 	 -13.9516 	 86.1027
| 12> H 	 -3.33831 	 -13.9707 	 88.1629
| 13> C 	 -3.76999 	 -16.9041 	 88.528
| 14> H 	 -3.27818 	 -16.4109 	 89.3983
| 15> H 	 -3.20455 	 -17.8222 	 88.3046
| 16> C 	 -5.16967 	 -17.367 	 88.807
| 17> H 	 -5.82062 	 -16.6498 	 89.221
| 18> H 	 -5.65757 	 -17.5523 	 87.8626
| 19> C 	 -5.13565 	 -18.6815 	 89.5323
| 20> H 	 -5.49479 	 -18.4445 	 90.5578
| 21> H 	 -5.93836 	 -19.421 	 89.2349
| 22> H 	 -4.15801 	 -19.1834 	 89.6351
| 23> S 	 -1.51417 	 -11.9224 	 85.406
| 24> C 	 -2.12071 	 -10.3064 	 85.4419
| 25> C 	 -3.43198 	 -10.2131 	 85.7682
| 26> C 	 -3.95279 	 -11.5182 	 86.0841
| 27> C 	 -3.08268 	 -12.5085 	 85.8743
| 28> H 	 -3.91592 	 -9.25493 	 85.785
| 29> C 	 -5.42461 	 -11.7448 	 86.5417
| 30> H 	 -5.75471 	 -10.8299 	 86.9146
| 31> H 	 -5.2722 	 -12.3398 	 87.4291
| 32> C 	 -6.40526 	 -12.4499 	 85.5449
| 33> H 	 -6.00731 	 -13.3373 	 85.1467
| 34> H 	 -6.53526 	 -11.6749 	 84.7284
| 35> C 	 -7.74325 	 -12.6995 	 86.2792
| 36> H 	 -8.50042 	 -12.9933 	 85.5137
| 37> H 	 -8.20285 	 -11.8404 	 86.7459
| 38> H 	 -7.71053 	 -13.481 	 87.0612
| 39> H 	 -3.92138 	 -17.3872 	 85.6431
| 40> H 	 -1.51266 	 -9.44706 	 85.1709
| 41> *
| 42>
| 43>                          ****END OF INPUT****

CARTESIAN COORDINATES (ANGSTROEM)
---------------------------------
  S     -3.259080  -15.154400   84.816400
  C     -3.539130  -16.423400   85.991300
  C     -3.469770  -16.014000   87.296300
  C     -3.237670  -14.592900   87.336600
  C     -3.110660  -13.951600   86.102700
  H     -3.338310  -13.970700   88.162900
  C     -3.769990  -16.904100   88.528000
  H     -3.278180  -16.410900   89.398300
  H     -3.204550  -17.822200   88.304600
  C     -5.169670  -17.367000   88.807000
  H     -5.820620  -16.649800   89.221000
  H     -5.657570  -17.552300   87.862600
  C     -5.135650  -18.681500   89.532300
  H     -5.494790  -18.444500   90.557800
  H     -5.938360  -19.421000   89.234900
  H     -4.158010  -19.183400   89.635100
  S     -1.514170  -11.922400   85.406000
  C     -2.120710  -10.306400   85.441900
  C     -3.431980  -10.213100   85.768200
  C     -3.952790  -11.518200   86.084100
  C     -3.082680  -12.508500   85.874300
  H     -3.915920   -9.254930   85.785000
  C     -5.424610  -11.744800   86.541700
  H     -5.754710  -10.829900   86.914600
  H     -5.272200  -12.339800   87.429100
  C     -6.405260  -12.449900   85.544900
  H     -6.007310  -13.337300   85.146700
  H     -6.535260  -11.674900   84.728400
  C     -7.743250  -12.699500   86.279200
  H     -8.500420  -12.993300   85.513700
  H     -8.202850  -11.840400   86.745900
  H     -7.710530  -13.481000   87.061200
  H     -3.921380  -17.387200   85.643100
  H     -1.512660   -9.447060   85.170900

 Total Charge           Charge          ....    0
 Multiplicity           Mult            ....    1
 Number of Electrons    NEL             ....  134
 Basis Dimension        Dim             ....  322

ORBITAL ENERGIES
----------------

  NO   OCC          E(Eh)            E(eV)
   0   2.0000     -88.965761     -2420.8814
   1   2.0000     -88.958570     -2420.6858
   2   2.0000     -10.328134      -281.0428
   3   2.0000     -10.315650      -280.7031
   4   2.0000     -10.314716      -280.6777
   5   2.0000     -10.310521      -280.5635
   6   2.0000     -10.303768      -280.3798
   7   2.0000     -10.298532      -280.2373
   8   2.0000     -10.298162      -280.2272
   9   2.0000     -10.291509      -280.0462
  10   2.0000     -10.289580      -279.9937
  11   2.0000     -10.289222      -279.9840
  12   2.0000     -10.284617      -279.8587
  13   2.0000     -10.284330      -279.8508
  14   2.0000     -10.281110      -279.7632
  15   2.0000     -10.280100      -279.7357
  16   2.0000      -8.080089      -219.8704
  17   2.0000      -8.074610      -219.7213
  18   2.0000      -6.038591      -164.3184
  19   2.0000      -6.034582      -164.2093
  20   2.0000      -6.033052      -164.1677
  21   2.0000      -6.030950      -164.1105
  22   2.0000      -6.029000      -164.0574
  23   2.0000      -6.025294      -163.9566
  24   2.0000      -1.009161       -27.4607
  25   2.0000      -0.984513       -26.7900
  26   2.0000      -0.918583       -24.9959
  27   2.0000      -0.900751       -24.5107
  28   2.0000      -0.871981       -23.7278
  29   2.0000      -0.849382       -23.1129
  30   2.0000      -0.846818       -23.0431
  31   2.0000      -0.814090       -22.1525
  32   2.0000      -0.779911       -21.2224
  33   2.0000      -0.770156       -20.9570
  34   2.0000      -0.708362       -19.2755
  35   2.0000      -0.705394       -19.1948
  36   2.0000      -0.693002       -18.8576
  37   2.0000      -0.664817       -18.0906
  38   2.0000      -0.646981       -17.6052
  39   2.0000      -0.617020       -16.7900
  40   2.0000      -0.589724       -16.0472
  41   2.0000      -0.572924       -15.5901
  42   2.0000      -0.565954       -15.4004
  43   2.0000      -0.559295       -15.2192
  44   2.0000      -0.527053       -14.3418
  45   2.0000      -0.522031       -14.2052
  46   2.0000      -0.512921       -13.9573
  47   2.0000      -0.509403       -13.8616
  48   2.0000      -0.503661       -13.7053
  49   2.0000      -0.494557       -13.4576
  50   2.0000      -0.489640       -13.3238
  51   2.0000      -0.482118       -13.1191
  52   2.0000      -0.472828       -12.8663
  53   2.0000      -0.467811       -12.7298
  54   2.0000      -0.460947       -12.5430
  55   2.0000      -0.453079       -12.3289
  56   2.0000      -0.447883       -12.1875
  57   2.0000      -0.437171       -11.8960
  58   2.0000      -0.433121       -11.7858
  59   2.0000      -0.426800       -11.6138
  60   2.0000      -0.421679       -11.4745
  61   2.0000      -0.410727       -11.1765
  62   2.0000      -0.404189       -10.9985
  63   2.0000      -0.336453        -9.1554
  64   2.0000      -0.331722        -9.0266
  65   2.0000      -0.326767        -8.8918
  66   2.0000      -0.305465        -8.3121
  67   0.0000       0.044926         1.2225
  68   0.0000       0.061035         1.6609
  69   0.0000       0.121864         3.3161
  70   0.0000       0.123171         3.3517
  71   0.0000       0.126478         3.4416

MULLIKEN ATOMIC CHARGES
-----------------------
   0 S :    0.110264
   1 C :   -0.145218
   2 C :   -0.070935
   3 C :    0.073347
   4 C :   -0.179685
   5 H :   -0.012623
   6 C :    0.041520
   7 H :    0.036352
   8 H :    0.032637
   9 C :    0.001656
  10 H :    0.019638
  11 H :    0.011597
  12 C :   -0.097023
  13 H :    0.028604
  14 H :    0.041784
  15 H :    0.049221
  16 S :    0.106286
  17 C :   -0.085920
  18 C :   -0.034575
  19 C :   -0.053027
  20 C :   -0.176941
  21 H :    0.013333
  22 C :    0.116451
  23 H :   -0.010985
  24 H :    0.006488
  25 C :   -0.029015
  26 H :    0.028753
  27 H :    0.038971
  28 C :   -0.065531
  29 H :    0.035079
  30 H :    0.023575
  31 H :    0.037125
  32 H :    0.055926
  33 H :    0.052870
Sum of atomic charges:    0.0000000

LOEWDIN ATOMIC CHARGES
----------------------
   0 S :    0.397349
   1 C :   -0.191807
   2 C :   -0.066347
   3 C :   -0.049771
   4 C :   -0.198855
   5 H :    0.018549
   6 C :   -0.029949
   7 H :    0.034549
   8 H :    0.036694
   9 C :   -0.045020
  10 H :    0.020379
  11 H :    0.024572
  12 C :   -0.076794
  13 H :    0.030622
  14 H :    0.034024
  15 H :    0.029283
  16 S :    0.413803
  17 C :   -0.182722
  18 C :   -0.075796
  19 C :   -0.052403
  20 C :   -0.208405
  21 H :    0.032446
  22 C :   -0.023501
  23 H :    0.016180
  24 H :    0.026452
  25 C :   -0.026133
  26 H :    0.017181
  27 H :    0.032924
  28 C :   -0.071077
  29 H :    0.030257
  30 H :    0.021453
  31 H :    0.026554
  32 H :    0.027600
  33 H :    0.027710

  Mayer bond orders larger than 0.100000
B(  0-S ,  1-C ) :   1.1495 B(  0-S ,  4-C ) :   1.1414 B(  1-C ,  2-C ) :   1.6180
B(  1-C , 32-H ) :   0.9654 B(  2-C ,  3-C ) :   1.2301 B(  2-C ,  6-C ) :   1.0134
B(  3-C ,  4-C ) :   1.6027 B(  3-C ,  5-H ) :   1.0014 B(  4-C , 20-C ) :   0.9907
B(  6-C ,  7-H ) :   0.9396 B(  6-C ,  8-H ) :   0.9430 B(  6-C ,  9-C ) :   1.0673
B(  9-C , 10-H ) :   0.9550 B(  9-C , 11-H ) :   0.9538 B(  9-C , 12-C ) :   1.0606
B( 12-C , 13-H ) :   0.9760 B( 12-C , 14-H ) :   0.9753 B( 12-C , 15-H ) :   0.9787
B( 16-S , 17-C ) :   1.1607 B( 16-S , 20-C ) :   1.1366 B( 17-C , 18-C ) :   1.6372
B( 17-C , 33-H ) :   0.9632 B( 18-C , 19-C ) :   1.2004 B( 18-C , 21-H ) :   0.9998
B( 19-C , 20-C ) :   1.6790 B( 19-C , 22-C ) :   1.0186 B( 22-C , 23-H ) :   0.9290
B( 22-C , 24-H ) :   0.9298 B( 22-C , 25-C ) :   1.0601 B( 25-C , 26-H ) :   0.9559
B( 25-C , 27-H ) :   0.9562 B( 25-C , 28-C ) :   1.0771 B( 28-C , 29-H ) :   0.9742
B( 28-C , 30-H ) :   0.9751 B( 28-C , 31-H ) :   0.9766

Dispersion correction           -0.014394874
FINAL SINGLE POINT ENERGY     -1339.870618974338

DIPOLE MOMENT
-------------
                                X             Y             Z
Electronic contribution:     22.85665      11.23923     -15.76703
Nuclear contribution   :    -23.48900     -11.26009      16.23795
                        -----------------------------------------
Total Dipole Moment    :     -0.63235      -0.02085       0.47093
                        -----------------------------------------
Magnitude (a.u.)       :      0.78872
Magnitude (Debye)      :      2.00476

Rotational constants in cm-1:     0.019802     0.008199     0.006787
Rotational constants in MHz :   593.640194   245.785701   203.458357

                             ****ORCA TERMINATED NORMALLY****
TOTAL RUN TIME: 0 days 0 hours 0 minutes 33 seconds 823 msec
