                         Program Version 4.2.1 -  RELEASE  -
|  1> ! wB97X-D3 SP def2-SVP
|  2> %pal
|  3> nprocs 16
|  4> end
|  5>
|  6> * xyz 0 1
|  7> S 	 56.9379 	 27.0927 	 39.6881
|  8> C 	 58.0625 	 26.3677 	 40.8945
|  9> C 	 57.3569 	 26.1055 	 42.0262
| 10> C 	 55.9731 	 26.2756 	 41.8514
| 11> C 	 55.5873 	 26.7412 	 40.6508
| 12> H 	 55.235 	 26.1838 	 42.6637
| 13> C 	 58.1352 	 25.8367 	 43.3452
| 14> H 	 58.8668 	 25.0205 	 43.1281
| 15> H 	 57.4911 	 25.4609 	 44.1097
| 16> C 	 58.9875 	 26.9883 	 43.9127
| 17> H 	 59.583 	 26.7297 	 44.7207
| 18> H 	 59.6267 	 27.1481 	 43.0702
| 19> C 	 58.1038 	 28.1987 	 44.3151
| 20> H 	 57.6226 	 28.512 	 43.3661
| 21> H 	 57.4238 	 27.963 	 45.1162
| 22> H 	 58.7025 	 28.949 	 44.7367
| 23> S 	 54.374 	 28.742 	 39.3489
| 24> C 	 52.6322 	 28.8004 	 39.2292
| 25> C 	 52.0463 	 27.7619 	 39.9128
| 26> C 	 52.9651 	 26.8122 	 40.4322
| 27> C 	 54.2747 	 27.2039 	 40.2389
| 28> H 	 51.0331 	 27.6718 	 39.9681
| 29> C 	 52.5922 	 25.662 	 41.2954
| 30> H 	 52.4441 	 26.0112 	 42.3196
| 31> H 	 53.444 	 25.0051 	 41.489
| 32> C 	 51.4602 	 24.8575 	 40.7639
| 33> H 	 51.5602 	 24.6535 	 39.7203
| 34> H 	 50.5472 	 25.5007 	 40.6703
| 35> C 	 51.1073 	 23.637 	 41.606
| 36> H 	 51.8315 	 22.9711 	 41.8374
| 37> H 	 50.3656 	 23.039 	 41.0812
| 38> H 	 50.5684 	 23.8198 	 42.5577
| 39> H 	 59.176 	 26.4084 	 40.8013
| 40> H 	 52.085 	 29.6183 	 38.8156
| 41> *
| 42>
| 43>                          ****END OF INPUT****

CARTESIAN COORDINATES (ANGSTROEM)
---------------------------------
  S     56.937900   27.092700   39.688100
  C     58.062500   26.367700   40.894500
  C     57.356900   26.105500   42.026200
  C     55.973100   26.275600   41.851400
  C     55.587300   26.741200   40.650800
  H     55.235000   26.183800   42.663700
  C     58.135200   25.836700   43.345200
  H     58.866800   25.020500   43.128100
  H     57.491100   25.460900   44.109700
  C     58.987500   26.988300   43.912700
  H     59.583000   26.729700   44.720700
  H     59.626700   27.148100   43.070200
  C     58.103800   28.198700   44.315100
  H     57.622600   28.512000   43.366100
  H     57.423800   27.963000   45.116200
  H     58.702500   28.949000   44.736700
  S     54.374000   28.742000   39.348900
  C     52.632200   28.800400   39.229200
  C     52.046300   27.761900   39.912800
  C     52.965100   26.812200   40.432200
  C     54.274700   27.203900   40.238900
  H     51.033100   27.671800   39.968100
  C     52.592200   25.662000   41.295400
  H     52.444100   26.011200   42.319600
  H     53.444000   25.005100   41.489000
  C     51.460200   24.857500   40.763900
  H     51.560200   24.653500   39.720300
  H     50.547200   25.500700   40.670300
  C     51.107300   23.637000   41.606000
  H     51.831500   22.971100   41.837400
  H     50.365600   23.039000   41.081200
  H     50.568400   23.819800   42.557700
  H     59.176000   26.408400   40.801300
  H     52.085000   29.618300   38.815600

 Total Charge           Charge          ....    0
 Multiplicity           Mult            ....    1
 Number of Electrons    NEL             ....  134
 Basis Dimension        Dim             ....  322

ORBITAL ENERGIES
----------------

  NO   OCC          E(Eh)            E(eV)
   0   2.0000     -88.963779     -2420.8275
   1   2.0000     -88.963504     -2420.8200
   2   2.0000     -10.326842      -281.0076
   3   2.0000     -10.324020      -280.9309
   4   2.0000     -10.317123      -280.7432
   5   2.0000     -10.315617      -280.7022
   6   2.0000     -10.301507      -280.3183
   7   2.0000     -10.300902      -280.3018
   8   2.0000     -10.293221      -280.0928
   9   2.0000     -10.289722      -279.9976
  10   2.0000     -10.287700      -279.9425
  11   2.0000     -10.287207      -279.9291
  12   2.0000     -10.285584      -279.8850
  13   2.0000     -10.279418      -279.7172
  14   2.0000     -10.271512      -279.5020
  15   2.0000     -10.271382      -279.4985
  16   2.0000      -8.078844      -219.8365
  17   2.0000      -8.078468      -219.8263
  18   2.0000      -6.037427      -164.2867
  19   2.0000      -6.036969      -164.2743
  20   2.0000      -6.033322      -164.1750
  21   2.0000      -6.033043      -164.1674
  22   2.0000      -6.029393      -164.0681
  23   2.0000      -6.029163      -164.0619
  24   2.0000      -1.016476       -27.6597
  25   2.0000      -0.988197       -26.8902
  26   2.0000      -0.918723       -24.9997
  27   2.0000      -0.912571       -24.8323
  28   2.0000      -0.872454       -23.7407
  29   2.0000      -0.856560       -23.3082
  30   2.0000      -0.840986       -22.8844
  31   2.0000      -0.818924       -22.2841
  32   2.0000      -0.787972       -21.4418
  33   2.0000      -0.777536       -21.1578
  34   2.0000      -0.715818       -19.4784
  35   2.0000      -0.704998       -19.1840
  36   2.0000      -0.701987       -19.1020
  37   2.0000      -0.664987       -18.0952
  38   2.0000      -0.638051       -17.3622
  39   2.0000      -0.619456       -16.8563
  40   2.0000      -0.605818       -16.4852
  41   2.0000      -0.580073       -15.7846
  42   2.0000      -0.561966       -15.2919
  43   2.0000      -0.554940       -15.1007
  44   2.0000      -0.544603       -14.8194
  45   2.0000      -0.528436       -14.3795
  46   2.0000      -0.516983       -14.0678
  47   2.0000      -0.511944       -13.9307
  48   2.0000      -0.507526       -13.8105
  49   2.0000      -0.501337       -13.6421
  50   2.0000      -0.492345       -13.3974
  51   2.0000      -0.482145       -13.1198
  52   2.0000      -0.477467       -12.9925
  53   2.0000      -0.466375       -12.6907
  54   2.0000      -0.461689       -12.5632
  55   2.0000      -0.457620       -12.4525
  56   2.0000      -0.449404       -12.2289
  57   2.0000      -0.443126       -12.0581
  58   2.0000      -0.428325       -11.6553
  59   2.0000      -0.426475       -11.6050
  60   2.0000      -0.416039       -11.3210
  61   2.0000      -0.412078       -11.2132
  62   2.0000      -0.406832       -11.0705
  63   2.0000      -0.355560        -9.6753
  64   2.0000      -0.333441        -9.0734
  65   2.0000      -0.330854        -9.0030
  66   2.0000      -0.289558        -7.8793
  67   0.0000       0.025246         0.6870
  68   0.0000       0.072098         1.9619
  69   0.0000       0.101497         2.7619
  70   0.0000       0.124424         3.3857
  71   0.0000       0.136701         3.7198

MULLIKEN ATOMIC CHARGES
-----------------------
   0 S :    0.087783
   1 C :   -0.154873
   2 C :   -0.072051
   3 C :   -0.009154
   4 C :   -0.097317
   5 H :    0.014649
   6 C :    0.047750
   7 H :    0.037112
   8 H :    0.008427
   9 C :   -0.035087
  10 H :    0.016964
  11 H :    0.007864
  12 C :   -0.038274
  13 H :    0.056652
  14 H :    0.025044
  15 H :    0.020309
  16 S :    0.082324
  17 C :   -0.068806
  18 C :   -0.005029
  19 C :   -0.025346
  20 C :   -0.139854
  21 H :   -0.019692
  22 C :    0.071544
  23 H :    0.034715
  24 H :    0.018319
  25 C :   -0.087842
  26 H :    0.024868
  27 H :    0.022008
  28 C :   -0.000655
  29 H :    0.009081
  30 H :    0.018368
  31 H :    0.027720
  32 H :    0.072076
  33 H :    0.050401
Sum of atomic charges:   -0.0000000

LOEWDIN ATOMIC CHARGES
----------------------
   0 S :    0.402451
   1 C :   -0.187398
   2 C :   -0.064997
   3 C :   -0.078728
   4 C :   -0.204435
   5 H :    0.033952
   6 C :   -0.026749
   7 H :    0.037219
   8 H :    0.017333
   9 C :   -0.029969
  10 H :    0.014386
  11 H :    0.016896
  12 C :   -0.059588
  13 H :    0.035909
  14 H :    0.023397
  15 H :    0.017767
  16 S :    0.388771
  17 C :   -0.174505
  18 C :   -0.057794
  19 C :   -0.055050
  20 C :   -0.174117
  21 H :    0.014084
  22 C :   -0.038076
  23 H :    0.034848
  24 H :    0.031495
  25 C :   -0.043152
  26 H :    0.025417
  27 H :    0.027776
  28 C :   -0.061432
  29 H :    0.009222
  30 H :    0.030256
  31 H :    0.031327
  32 H :    0.037474
  33 H :    0.026007

  Mayer bond orders larger than 0.100000
B(  0-S ,  1-C ) :   1.1189 B(  0-S ,  4-C ) :   1.1582 B(  1-C ,  2-C ) :   1.6063
B(  1-C , 32-H ) :   0.9663 B(  2-C ,  3-C ) :   1.2564 B(  2-C ,  6-C ) :   1.0090
B(  3-C ,  4-C ) :   1.5607 B(  3-C ,  5-H ) :   0.9958 B(  4-C , 20-C ) :   1.0383
B(  6-C ,  7-H ) :   0.9434 B(  6-C ,  8-H ) :   0.9454 B(  6-C ,  9-C ) :   1.0689
B(  9-C , 10-H ) :   0.9551 B(  9-C , 11-H ) :   0.9552 B(  9-C , 12-C ) :   1.0780
B( 12-C , 13-H ) :   0.9765 B( 12-C , 14-H ) :   0.9747 B( 12-C , 15-H ) :   0.9743
B( 16-S , 17-C ) :   1.1465 B( 16-S , 20-C ) :   1.1295 B( 17-C , 18-C ) :   1.6154
B( 17-C , 33-H ) :   0.9702 B( 18-C , 19-C ) :   1.2215 B( 18-C , 21-H ) :   1.0040
B( 19-C , 20-C ) :   1.6105 B( 19-C , 22-C ) :   1.0587 B( 22-C , 23-H ) :   0.9259
B( 22-C , 24-H ) :   0.9277 B( 22-C , 25-C ) :   1.0563 B( 25-C , 26-H ) :   0.9595
B( 25-C , 27-H ) :   0.9460 B( 25-C , 28-C ) :   1.0852 B( 28-C , 29-H ) :   0.9752
B( 28-C , 30-H ) :   0.9687 B( 28-C , 31-H ) :   0.9709

Dispersion correction           -0.013990327
FINAL SINGLE POINT ENERGY     -1339.863579750218

DIPOLE MOMENT
-------------
                                X             Y             Z
Electronic contribution:      4.16127      11.76203     -19.90094
Nuclear contribution   :     -4.37016     -11.90375      20.54296
                        -----------------------------------------
Total Dipole Moment    :     -0.20889      -0.14171       0.64201
                        -----------------------------------------
Magnitude (a.u.)       :      0.68985
Magnitude (Debye)      :      1.75347

Rotational constants in cm-1:     0.018929     0.008327     0.006747
Rotational constants in MHz :   567.466565   249.623476   202.262425

                             ****ORCA TERMINATED NORMALLY****
TOTAL RUN TIME: 0 days 0 hours 0 minutes 29 seconds 990 msec
