                         Program Version 4.2.1 -  RELEASE  -
|  1> ! wB97X-D3 SP def2-SVP
|  2> %pal
|  3> nprocs 16
|  4> end
|  5>
|  6> * xyz 0 1
|  7> S 	 35.2301 	 32.9271 	 55.9509
|  8> C 	 35.8702 	 33.3389 	 54.4189
|  9> C 	 36.9304 	 34.2759 	 54.5095
| 10> C 	 37.095 	 34.6917 	 55.8859
| 11> C 	 36.2639 	 34.062 	 56.793
| 12> H 	 37.9058 	 35.3625 	 56.1677
| 13> C 	 37.7103 	 34.8963 	 53.3496
| 14> H 	 37.5075 	 34.3261 	 52.4701
| 15> H 	 38.7806 	 34.8161 	 53.55
| 16> C 	 37.3995 	 36.4024 	 53.214
| 17> H 	 36.3821 	 36.6962 	 53.0766
| 18> H 	 37.6747 	 36.8027 	 54.1895
| 19> C 	 38.2628 	 37.0571 	 52.1721
| 20> H 	 39.0357 	 37.7115 	 52.6874
| 21> H 	 38.783 	 36.3206 	 51.611
| 22> H 	 37.7082 	 37.7087 	 51.5131
| 23> S 	 37.09 	 32.6356 	 58.945
| 24> C 	 36.8613 	 33.2804 	 60.5025
| 25> C 	 36.4342 	 34.5618 	 60.4966
| 26> C 	 36.0066 	 34.9669 	 59.196
| 27> C 	 36.2151 	 33.9465 	 58.2299
| 28> H 	 36.2613 	 35.2077 	 61.3307
| 29> C 	 35.5052 	 36.3912 	 58.915
| 30> H 	 35.11 	 36.8429 	 59.8097
| 31> H 	 34.6504 	 36.3069 	 58.2711
| 32> C 	 36.4166 	 37.3023 	 58.2213
| 33> H 	 36.8721 	 36.8445 	 57.357
| 34> H 	 37.2293 	 37.6674 	 58.7738
| 35> C 	 35.7536 	 38.6211 	 57.7284
| 36> H 	 36.5492 	 39.3241 	 57.5042
| 37> H 	 35.123 	 39.0753 	 58.5177
| 38> H 	 35.0366 	 38.4579 	 56.9249
| 39> H 	 35.4867 	 33.106 	 53.4709
| 40> H 	 37.2695 	 32.8025 	 61.4224
| 41> *
| 42>
| 43>                          ****END OF INPUT****

CARTESIAN COORDINATES (ANGSTROEM)
---------------------------------
  S     35.230100   32.927100   55.950900
  C     35.870200   33.338900   54.418900
  C     36.930400   34.275900   54.509500
  C     37.095000   34.691700   55.885900
  C     36.263900   34.062000   56.793000
  H     37.905800   35.362500   56.167700
  C     37.710300   34.896300   53.349600
  H     37.507500   34.326100   52.470100
  H     38.780600   34.816100   53.550000
  C     37.399500   36.402400   53.214000
  H     36.382100   36.696200   53.076600
  H     37.674700   36.802700   54.189500
  C     38.262800   37.057100   52.172100
  H     39.035700   37.711500   52.687400
  H     38.783000   36.320600   51.611000
  H     37.708200   37.708700   51.513100
  S     37.090000   32.635600   58.945000
  C     36.861300   33.280400   60.502500
  C     36.434200   34.561800   60.496600
  C     36.006600   34.966900   59.196000
  C     36.215100   33.946500   58.229900
  H     36.261300   35.207700   61.330700
  C     35.505200   36.391200   58.915000
  H     35.110000   36.842900   59.809700
  H     34.650400   36.306900   58.271100
  C     36.416600   37.302300   58.221300
  H     36.872100   36.844500   57.357000
  H     37.229300   37.667400   58.773800
  C     35.753600   38.621100   57.728400
  H     36.549200   39.324100   57.504200
  H     35.123000   39.075300   58.517700
  H     35.036600   38.457900   56.924900
  H     35.486700   33.106000   53.470900
  H     37.269500   32.802500   61.422400

 Total Charge           Charge          ....    0
 Multiplicity           Mult            ....    1
 Number of Electrons    NEL             ....  134
 Basis Dimension        Dim             ....  322

ORBITAL ENERGIES
----------------

  NO   OCC          E(Eh)            E(eV)
   0   2.0000     -88.965808     -2420.8827
   1   2.0000     -88.963071     -2420.8082
   2   2.0000     -10.327002      -281.0120
   3   2.0000     -10.321462      -280.8613
   4   2.0000     -10.313991      -280.6580
   5   2.0000     -10.309792      -280.5437
   6   2.0000     -10.304330      -280.3951
   7   2.0000     -10.303277      -280.3664
   8   2.0000     -10.297685      -280.2143
   9   2.0000     -10.294921      -280.1390
  10   2.0000     -10.287784      -279.9448
  11   2.0000     -10.284328      -279.8508
  12   2.0000     -10.281496      -279.7737
  13   2.0000     -10.277109      -279.6543
  14   2.0000     -10.275697      -279.6159
  15   2.0000     -10.272930      -279.5406
  16   2.0000      -8.081781      -219.9164
  17   2.0000      -8.078456      -219.8260
  18   2.0000      -6.040134      -164.3604
  19   2.0000      -6.036835      -164.2706
  20   2.0000      -6.036162      -164.2523
  21   2.0000      -6.032676      -164.1575
  22   2.0000      -6.032568      -164.1545
  23   2.0000      -6.029508      -164.0713
  24   2.0000      -1.011402       -27.5216
  25   2.0000      -0.986498       -26.8440
  26   2.0000      -0.916176       -24.9304
  27   2.0000      -0.915913       -24.9232
  28   2.0000      -0.872439       -23.7403
  29   2.0000      -0.850727       -23.1495
  30   2.0000      -0.847964       -23.0743
  31   2.0000      -0.814894       -22.1744
  32   2.0000      -0.784641       -21.3512
  33   2.0000      -0.768735       -20.9184
  34   2.0000      -0.708478       -19.2787
  35   2.0000      -0.701372       -19.0853
  36   2.0000      -0.690045       -18.7771
  37   2.0000      -0.661515       -18.0007
  38   2.0000      -0.644917       -17.5491
  39   2.0000      -0.622634       -16.9427
  40   2.0000      -0.603766       -16.4293
  41   2.0000      -0.573730       -15.6120
  42   2.0000      -0.569553       -15.4983
  43   2.0000      -0.558674       -15.2023
  44   2.0000      -0.532622       -14.4934
  45   2.0000      -0.526527       -14.3275
  46   2.0000      -0.517883       -14.0923
  47   2.0000      -0.510933       -13.9032
  48   2.0000      -0.502194       -13.6654
  49   2.0000      -0.497797       -13.5457
  50   2.0000      -0.495747       -13.4900
  51   2.0000      -0.478896       -13.0314
  52   2.0000      -0.471470       -12.8293
  53   2.0000      -0.461426       -12.5560
  54   2.0000      -0.458956       -12.4888
  55   2.0000      -0.456520       -12.4226
  56   2.0000      -0.449004       -12.2180
  57   2.0000      -0.442040       -12.0285
  58   2.0000      -0.438485       -11.9318
  59   2.0000      -0.423395       -11.5212
  60   2.0000      -0.417233       -11.3535
  61   2.0000      -0.412392       -11.2218
  62   2.0000      -0.411311       -11.1923
  63   2.0000      -0.344524        -9.3750
  64   2.0000      -0.326629        -8.8880
  65   2.0000      -0.322593        -8.7782
  66   2.0000      -0.300630        -8.1806
  67   0.0000       0.039039         1.0623
  68   0.0000       0.057956         1.5771
  69   0.0000       0.118193         3.2162
  70   0.0000       0.119977         3.2647
  71   0.0000       0.125275         3.4089

MULLIKEN ATOMIC CHARGES
-----------------------
   0 S :    0.116909
   1 C :   -0.071932
   2 C :   -0.143014
   3 C :    0.042327
   4 C :   -0.192833
   5 H :    0.027977
   6 C :    0.081467
   7 H :    0.015625
   8 H :    0.033413
   9 C :   -0.082171
  10 H :    0.028166
  11 H :    0.019020
  12 C :   -0.027586
  13 H :    0.035482
  14 H :    0.023358
  15 H :    0.031218
  16 S :    0.133797
  17 C :   -0.087697
  18 C :   -0.017486
  19 C :   -0.064160
  20 C :   -0.145987
  21 H :    0.009463
  22 C :    0.119749
  23 H :    0.005472
  24 H :    0.016356
  25 C :   -0.033983
  26 H :    0.003240
  27 H :    0.006019
  28 C :   -0.066616
  29 H :    0.035821
  30 H :    0.021356
  31 H :    0.034457
  32 H :    0.023345
  33 H :    0.069432
Sum of atomic charges:    0.0000000

LOEWDIN ATOMIC CHARGES
----------------------
   0 S :    0.430057
   1 C :   -0.205552
   2 C :   -0.059991
   3 C :   -0.062314
   4 C :   -0.202710
   5 H :    0.029828
   6 C :   -0.025978
   7 H :    0.023060
   8 H :    0.034699
   9 C :   -0.041015
  10 H :    0.022020
  11 H :    0.022725
  12 C :   -0.064798
  13 H :    0.034586
  14 H :    0.018965
  15 H :    0.024980
  16 S :    0.446212
  17 C :   -0.201246
  18 C :   -0.074507
  19 C :   -0.039290
  20 C :   -0.232290
  21 H :    0.028929
  22 C :   -0.030288
  23 H :    0.026808
  24 H :    0.033999
  25 C :   -0.039125
  26 H :    0.021881
  27 H :    0.015038
  28 C :   -0.061777
  29 H :    0.026481
  30 H :    0.023347
  31 H :    0.022568
  32 H :    0.017081
  33 H :    0.037618

  Mayer bond orders larger than 0.100000
B(  0-S ,  1-C ) :   1.1632 B(  0-S ,  4-C ) :   1.1638 B(  1-C ,  2-C ) :   1.5950
B(  1-C ,  4-C ) :   0.1032 B(  1-C , 32-H ) :   0.9693 B(  2-C ,  3-C ) :   1.2556
B(  2-C ,  6-C ) :   1.0328 B(  3-C ,  4-C ) :   1.5751 B(  3-C ,  5-H ) :   0.9794
B(  4-C , 20-C ) :   0.9987 B(  6-C ,  7-H ) :   0.9391 B(  6-C ,  8-H ) :   0.9372
B(  6-C ,  9-C ) :   1.0605 B(  9-C , 10-H ) :   0.9640 B(  9-C , 11-H ) :   0.9616
B(  9-C , 12-C ) :   1.0684 B( 12-C , 13-H ) :   0.9768 B( 12-C , 14-H ) :   0.9767
B( 12-C , 15-H ) :   0.9775 B( 16-S , 17-C ) :   1.1836 B( 16-S , 20-C ) :   1.1617
B( 17-C , 18-C ) :   1.5691 B( 17-C , 33-H ) :   0.9593 B( 18-C , 19-C ) :   1.2932
B( 18-C , 21-H ) :   0.9944 B( 19-C , 20-C ) :   1.5601 B( 19-C , 22-C ) :   1.0421
B( 22-C , 23-H ) :   0.9292 B( 22-C , 24-H ) :   0.9267 B( 22-C , 25-C ) :   1.0785
B( 25-C , 26-H ) :   0.9439 B( 25-C , 27-H ) :   0.9499 B( 25-C , 28-C ) :   1.0841
B( 28-C , 29-H ) :   0.9761 B( 28-C , 30-H ) :   0.9743 B( 28-C , 31-H ) :   0.9756

Dispersion correction           -0.014388818
FINAL SINGLE POINT ENERGY     -1339.872880491501

DIPOLE MOMENT
-------------
                                X             Y             Z
Electronic contribution:     -5.32382     -28.08577      13.42164
Nuclear contribution   :      5.63334      28.71735     -13.53491
                        -----------------------------------------
Total Dipole Moment    :      0.30952       0.63158      -0.11327
                        -----------------------------------------
Magnitude (a.u.)       :      0.71241
Magnitude (Debye)      :      1.81081

Rotational constants in cm-1:     0.018281     0.009208     0.006980
Rotational constants in MHz :   548.059071   276.050510   209.266331

                             ****ORCA TERMINATED NORMALLY****
TOTAL RUN TIME: 0 days 0 hours 0 minutes 35 seconds 498 msec
