                         Program Version 4.2.1 -  RELEASE  -
|  1> ! wB97X-D3 SP def2-SVP
|  2> %pal
|  3> nprocs 16
|  4> end
|  5>
|  6> * xyz 0 1
|  7> S 	 27.4789 	 8.11918 	 62.9652
|  8> C 	 29.1901 	 8.26508 	 62.9355
|  9> C 	 29.7452 	 8.34238 	 64.2033
| 10> C 	 28.7537 	 8.22946 	 65.2013
| 11> C 	 27.4318 	 8.16579 	 64.7766
| 12> H 	 28.9911 	 8.18423 	 66.1684
| 13> C 	 31.1838 	 8.49457 	 64.4738
| 14> H 	 31.7509 	 7.79008 	 63.8331
| 15> H 	 31.1606 	 8.05221 	 65.4394
| 16> C 	 31.8047 	 9.97223 	 64.5509
| 17> H 	 31.1665 	 10.5685 	 65.2411
| 18> H 	 32.7713 	 9.95166 	 65.0388
| 19> C 	 31.9616 	 10.6759 	 63.2048
| 20> H 	 32.5613 	 9.97621 	 62.6254
| 21> H 	 31.094 	 10.8932 	 62.6544
| 22> H 	 32.5673 	 11.5599 	 63.2771
| 23> S 	 24.651 	 7.69708 	 64.7088
| 24> C 	 23.8197 	 7.65263 	 66.2476
| 25> C 	 24.7379 	 7.38827 	 67.2526
| 26> C 	 26.1181 	 7.48114 	 66.9269
| 27> C 	 26.2376 	 7.83324 	 65.5701
| 28> H 	 24.2586 	 7.32549 	 68.2755
| 29> C 	 27.1989 	 7.24903 	 67.9948
| 30> H 	 26.8405 	 7.47471 	 68.9701
| 31> H 	 27.8659 	 8.08575 	 67.8709
| 32> C 	 27.9438 	 5.89254 	 67.9307
| 33> H 	 28.2911 	 5.89327 	 66.9323
| 34> H 	 27.3132 	 5.04721 	 68.1344
| 35> C 	 29.268 	 6.06973 	 68.6956
| 36> H 	 29.8289 	 6.94086 	 68.4061
| 37> H 	 29.9964 	 5.28109 	 68.4899
| 38> H 	 29.0937 	 6.10967 	 69.7693
| 39> H 	 29.7913 	 8.4695 	 62.085
| 40> H 	 22.7558 	 7.60842 	 66.3691
| 41> *
| 42>
| 43>                          ****END OF INPUT****

CARTESIAN COORDINATES (ANGSTROEM)
---------------------------------
  S     27.478900    8.119180   62.965200
  C     29.190100    8.265080   62.935500
  C     29.745200    8.342380   64.203300
  C     28.753700    8.229460   65.201300
  C     27.431800    8.165790   64.776600
  H     28.991100    8.184230   66.168400
  C     31.183800    8.494570   64.473800
  H     31.750900    7.790080   63.833100
  H     31.160600    8.052210   65.439400
  C     31.804700    9.972230   64.550900
  H     31.166500   10.568500   65.241100
  H     32.771300    9.951660   65.038800
  C     31.961600   10.675900   63.204800
  H     32.561300    9.976210   62.625400
  H     31.094000   10.893200   62.654400
  H     32.567300   11.559900   63.277100
  S     24.651000    7.697080   64.708800
  C     23.819700    7.652630   66.247600
  C     24.737900    7.388270   67.252600
  C     26.118100    7.481140   66.926900
  C     26.237600    7.833240   65.570100
  H     24.258600    7.325490   68.275500
  C     27.198900    7.249030   67.994800
  H     26.840500    7.474710   68.970100
  H     27.865900    8.085750   67.870900
  C     27.943800    5.892540   67.930700
  H     28.291100    5.893270   66.932300
  H     27.313200    5.047210   68.134400
  C     29.268000    6.069730   68.695600
  H     29.828900    6.940860   68.406100
  H     29.996400    5.281090   68.489900
  H     29.093700    6.109670   69.769300
  H     29.791300    8.469500   62.085000
  H     22.755800    7.608420   66.369100

 Total Charge           Charge          ....    0
 Multiplicity           Mult            ....    1
 Number of Electrons    NEL             ....  134
 Basis Dimension        Dim             ....  322

ORBITAL ENERGIES
----------------

  NO   OCC          E(Eh)            E(eV)
   0   2.0000     -88.967102     -2420.9179
   1   2.0000     -88.965973     -2420.8872
   2   2.0000     -10.338771      -281.3323
   3   2.0000     -10.337011      -281.2844
   4   2.0000     -10.316386      -280.7231
   5   2.0000     -10.309806      -280.5441
   6   2.0000     -10.308587      -280.5109
   7   2.0000     -10.296676      -280.1868
   8   2.0000     -10.296167      -280.1730
   9   2.0000     -10.294588      -280.1300
  10   2.0000     -10.293725      -280.1065
  11   2.0000     -10.292991      -280.0865
  12   2.0000     -10.286735      -279.9163
  13   2.0000     -10.285803      -279.8909
  14   2.0000     -10.280698      -279.7520
  15   2.0000     -10.273449      -279.5548
  16   2.0000      -8.081256      -219.9022
  17   2.0000      -8.079937      -219.8663
  18   2.0000      -6.039903      -164.3541
  19   2.0000      -6.038588      -164.3183
  20   2.0000      -6.035808      -164.2427
  21   2.0000      -6.034798      -164.2152
  22   2.0000      -6.031960      -164.1380
  23   2.0000      -6.030358      -164.0944
  24   2.0000      -1.002034       -27.2667
  25   2.0000      -0.982195       -26.7269
  26   2.0000      -0.913581       -24.8598
  27   2.0000      -0.908490       -24.7213
  28   2.0000      -0.867161       -23.5967
  29   2.0000      -0.858187       -23.3525
  30   2.0000      -0.849683       -23.1211
  31   2.0000      -0.814659       -22.1680
  32   2.0000      -0.785032       -21.3618
  33   2.0000      -0.773584       -21.0503
  34   2.0000      -0.715685       -19.4748
  35   2.0000      -0.706861       -19.2347
  36   2.0000      -0.701544       -19.0900
  37   2.0000      -0.662732       -18.0339
  38   2.0000      -0.639054       -17.3896
  39   2.0000      -0.625093       -17.0096
  40   2.0000      -0.594558       -16.1787
  41   2.0000      -0.574983       -15.6461
  42   2.0000      -0.565838       -15.3972
  43   2.0000      -0.546174       -14.8622
  44   2.0000      -0.543449       -14.7880
  45   2.0000      -0.522436       -14.2162
  46   2.0000      -0.519472       -14.1355
  47   2.0000      -0.515347       -14.0233
  48   2.0000      -0.506538       -13.7836
  49   2.0000      -0.501085       -13.6352
  50   2.0000      -0.490063       -13.3353
  51   2.0000      -0.488271       -13.2865
  52   2.0000      -0.476135       -12.9563
  53   2.0000      -0.468753       -12.7554
  54   2.0000      -0.460885       -12.5413
  55   2.0000      -0.450439       -12.2571
  56   2.0000      -0.440952       -11.9989
  57   2.0000      -0.439093       -11.9483
  58   2.0000      -0.433915       -11.8074
  59   2.0000      -0.424896       -11.5620
  60   2.0000      -0.422276       -11.4907
  61   2.0000      -0.420971       -11.4552
  62   2.0000      -0.411551       -11.1989
  63   2.0000      -0.362931        -9.8759
  64   2.0000      -0.334395        -9.0993
  65   2.0000      -0.328698        -8.9443
  66   2.0000      -0.276861        -7.5338
  67   0.0000       0.011250         0.3061
  68   0.0000       0.081037         2.2051
  69   0.0000       0.089414         2.4331
  70   0.0000       0.117677         3.2022
  71   0.0000       0.132087         3.5943

MULLIKEN ATOMIC CHARGES
-----------------------
   0 S :    0.096377
   1 C :   -0.091907
   2 C :   -0.112437
   3 C :    0.050873
   4 C :   -0.070864
   5 H :   -0.092491
   6 C :    0.062872
   7 H :    0.036392
   8 H :    0.004831
   9 C :   -0.053090
  10 H :    0.028476
  11 H :    0.031340
  12 C :   -0.026110
  13 H :    0.014050
  14 H :    0.034287
  15 H :    0.030924
  16 S :    0.089715
  17 C :   -0.087828
  18 C :   -0.062007
  19 C :   -0.043022
  20 C :   -0.136410
  21 H :    0.037210
  22 C :    0.056681
  23 H :    0.003928
  24 H :    0.018596
  25 C :   -0.000894
  26 H :    0.018494
  27 H :    0.042102
  28 C :   -0.057590
  29 H :    0.021986
  30 H :    0.033892
  31 H :    0.032320
  32 H :    0.035112
  33 H :    0.054192
Sum of atomic charges:   -0.0000000

LOEWDIN ATOMIC CHARGES
----------------------
   0 S :    0.394426
   1 C :   -0.196900
   2 C :   -0.068559
   3 C :   -0.055650
   4 C :   -0.166463
   5 H :    0.000656
   6 C :   -0.035747
   7 H :    0.035095
   8 H :    0.028831
   9 C :   -0.031451
  10 H :    0.025308
  11 H :    0.024943
  12 C :   -0.062827
  13 H :    0.024486
  14 H :    0.018622
  15 H :    0.027523
  16 S :    0.374120
  17 C :   -0.183837
  18 C :   -0.079198
  19 C :   -0.055538
  20 C :   -0.168818
  21 H :    0.039810
  22 C :   -0.025442
  23 H :    0.023351
  24 H :    0.027782
  25 C :   -0.026378
  26 H :    0.023920
  27 H :    0.028307
  28 C :   -0.063040
  29 H :    0.021650
  30 H :    0.027272
  31 H :    0.022999
  32 H :    0.023191
  33 H :    0.027557

  Mayer bond orders larger than 0.100000
B(  0-S ,  1-C ) :   1.1540 B(  0-S ,  4-C ) :   1.1289 B(  1-C ,  2-C ) :   1.5802
B(  1-C , 32-H ) :   0.9639 B(  2-C ,  3-C ) :   1.2953 B(  2-C ,  6-C ) :   1.0100
B(  3-C ,  4-C ) :   1.5340 B(  3-C ,  5-H ) :   1.0010 B(  4-C , 20-C ) :   1.1023
B(  6-C ,  7-H ) :   0.9431 B(  6-C ,  8-H ) :   0.9314 B(  6-C ,  9-C ) :   1.0578
B(  9-C , 10-H ) :   0.9560 B(  9-C , 11-H ) :   0.9568 B(  9-C , 12-C ) :   1.0774
B( 12-C , 13-H ) :   0.9735 B( 12-C , 14-H ) :   0.9773 B( 12-C , 15-H ) :   0.9714
B( 16-S , 17-C ) :   1.1355 B( 16-S , 20-C ) :   1.1294 B( 17-C , 18-C ) :   1.6285
B( 17-C , 20-C ) :   0.1029 B( 17-C , 33-H ) :   0.9700 B( 18-C , 19-C ) :   1.2435
B( 18-C , 21-H ) :   0.9769 B( 19-C , 20-C ) :   1.5727 B( 19-C , 22-C ) :   1.0212
B( 22-C , 23-H ) :   0.9279 B( 22-C , 24-H ) :   0.9356 B( 22-C , 25-C ) :   1.0546
B( 25-C , 26-H ) :   0.9519 B( 25-C , 27-H ) :   0.9594 B( 25-C , 28-C ) :   1.0739
B( 28-C , 29-H ) :   0.9734 B( 28-C , 30-H ) :   0.9737 B( 28-C , 31-H ) :   0.9758

Dispersion correction           -0.014611934
FINAL SINGLE POINT ENERGY     -1339.854723325022

DIPOLE MOMENT
-------------
                                X             Y             Z
Electronic contribution:    -26.13166      -1.72553     -13.51090
Nuclear contribution   :     26.68621       1.68861      14.07895
                        -----------------------------------------
Total Dipole Moment    :      0.55455      -0.03692       0.56805
                        -----------------------------------------
Magnitude (a.u.)       :      0.79471
Magnitude (Debye)      :      2.01999

Rotational constants in cm-1:     0.018912     0.008895     0.006546
Rotational constants in MHz :   566.981897   266.658407   196.236366

                             ****ORCA TERMINATED NORMALLY****
TOTAL RUN TIME: 0 days 0 hours 0 minutes 31 seconds 275 msec
