                         Program Version 4.2.1 -  RELEASE  -
|  1> ! wB97X-D3 SP def2-SVP
|  2> %pal
|  3> nprocs 16
|  4> end
|  5>
|  6> * xyz 0 1
|  7> S 	 -113.321 	 54.5224 	 107.792
|  8> C 	 -112.663 	 53.1435 	 106.996
|  9> C 	 -111.744 	 52.4544 	 107.742
| 10> C 	 -111.568 	 52.9715 	 109.032
| 11> C 	 -112.331 	 54.0911 	 109.255
| 12> H 	 -110.891 	 52.6682 	 109.804
| 13> C 	 -110.982 	 51.2686 	 107.302
| 14> H 	 -111.503 	 50.3471 	 107.725
| 15> H 	 -109.996 	 51.1681 	 107.727
| 16> C 	 -110.719 	 51.0956 	 105.789
| 17> H 	 -109.968 	 50.2951 	 105.567
| 18> H 	 -111.617 	 50.8263 	 105.276
| 19> C 	 -110.132 	 52.3515 	 104.998
| 20> H 	 -109.247 	 52.8636 	 105.445
| 21> H 	 -109.736 	 52.03 	 104.022
| 22> H 	 -110.851 	 53.1258 	 104.756
| 23> S 	 -110.731 	 55.9531 	 110.698
| 24> C 	 -111.365 	 56.6545 	 112.149
| 25> C 	 -112.668 	 56.3542 	 112.317
| 26> C 	 -113.195 	 55.4667 	 111.345
| 27> C 	 -112.284 	 55.06 	 110.347
| 28> H 	 -113.291 	 56.6121 	 113.176
| 29> C 	 -114.522 	 54.7429 	 111.503
| 30> H 	 -115.088 	 54.9136 	 110.536
| 31> H 	 -115.062 	 55.1562 	 112.258
| 32> C 	 -114.398 	 53.2865 	 112.032
| 33> H 	 -113.904 	 52.6954 	 111.293
| 34> H 	 -115.425 	 52.8927 	 112.06
| 35> C 	 -113.783 	 53.2533 	 113.45
| 36> H 	 -112.746 	 53.7227 	 113.423
| 37> H 	 -113.76 	 52.272 	 113.819
| 38> H 	 -114.334 	 53.8789 	 114.126
| 39> H 	 -112.951 	 52.844 	 105.977
| 40> H 	 -110.814 	 57.277 	 112.812
| 41> *
| 42>
| 43>                          ****END OF INPUT****

CARTESIAN COORDINATES (ANGSTROEM)
---------------------------------
  S    -113.321000   54.522400  107.792000
  C    -112.663000   53.143500  106.996000
  C    -111.744000   52.454400  107.742000
  C    -111.568000   52.971500  109.032000
  C    -112.331000   54.091100  109.255000
  H    -110.891000   52.668200  109.804000
  C    -110.982000   51.268600  107.302000
  H    -111.503000   50.347100  107.725000
  H    -109.996000   51.168100  107.727000
  C    -110.719000   51.095600  105.789000
  H    -109.968000   50.295100  105.567000
  H    -111.617000   50.826300  105.276000
  C    -110.132000   52.351500  104.998000
  H    -109.247000   52.863600  105.445000
  H    -109.736000   52.030000  104.022000
  H    -110.851000   53.125800  104.756000
  S    -110.731000   55.953100  110.698000
  C    -111.365000   56.654500  112.149000
  C    -112.668000   56.354200  112.317000
  C    -113.195000   55.466700  111.345000
  C    -112.284000   55.060000  110.347000
  H    -113.291000   56.612100  113.176000
  C    -114.522000   54.742900  111.503000
  H    -115.088000   54.913600  110.536000
  H    -115.062000   55.156200  112.258000
  C    -114.398000   53.286500  112.032000
  H    -113.904000   52.695400  111.293000
  H    -115.425000   52.892700  112.060000
  C    -113.783000   53.253300  113.450000
  H    -112.746000   53.722700  113.423000
  H    -113.760000   52.272000  113.819000
  H    -114.334000   53.878900  114.126000
  H    -112.951000   52.844000  105.977000
  H    -110.814000   57.277000  112.812000

 Total Charge           Charge          ....    0
 Multiplicity           Mult            ....    1
 Number of Electrons    NEL             ....  134
 Basis Dimension        Dim             ....  322

ORBITAL ENERGIES
----------------

  NO   OCC          E(Eh)            E(eV)
   0   2.0000     -88.966419     -2420.8993
   1   2.0000     -88.961596     -2420.7681
   2   2.0000     -10.333267      -281.1825
   3   2.0000     -10.329464      -281.0790
   4   2.0000     -10.314716      -280.6777
   5   2.0000     -10.314130      -280.6618
   6   2.0000     -10.301283      -280.3122
   7   2.0000     -10.297155      -280.1998
   8   2.0000     -10.294929      -280.1393
   9   2.0000     -10.294848      -280.1371
  10   2.0000     -10.294675      -280.1323
  11   2.0000     -10.289645      -279.9955
  12   2.0000     -10.282923      -279.8126
  13   2.0000     -10.282037      -279.7884
  14   2.0000     -10.281558      -279.7754
  15   2.0000     -10.275038      -279.5980
  16   2.0000      -8.080722      -219.8876
  17   2.0000      -8.075742      -219.7521
  18   2.0000      -6.039183      -164.3345
  19   2.0000      -6.035365      -164.2306
  20   2.0000      -6.034261      -164.2006
  21   2.0000      -6.031474      -164.1248
  22   2.0000      -6.030221      -164.0906
  23   2.0000      -6.026626      -163.9928
  24   2.0000      -1.003333       -27.3021
  25   2.0000      -0.984620       -26.7929
  26   2.0000      -0.908148       -24.7120
  27   2.0000      -0.905352       -24.6359
  28   2.0000      -0.866338       -23.5743
  29   2.0000      -0.851794       -23.1785
  30   2.0000      -0.841179       -22.8896
  31   2.0000      -0.811966       -22.0947
  32   2.0000      -0.783777       -21.3277
  33   2.0000      -0.771446       -20.9921
  34   2.0000      -0.710378       -19.3304
  35   2.0000      -0.705166       -19.1885
  36   2.0000      -0.689772       -18.7697
  37   2.0000      -0.660612       -17.9762
  38   2.0000      -0.644809       -17.5462
  39   2.0000      -0.608844       -16.5675
  40   2.0000      -0.593985       -16.1631
  41   2.0000      -0.578358       -15.7379
  42   2.0000      -0.554543       -15.0899
  43   2.0000      -0.548774       -14.9329
  44   2.0000      -0.544461       -14.8155
  45   2.0000      -0.534949       -14.5567
  46   2.0000      -0.514434       -13.9985
  47   2.0000      -0.509249       -13.8574
  48   2.0000      -0.495135       -13.4733
  49   2.0000      -0.490775       -13.3547
  50   2.0000      -0.484312       -13.1788
  51   2.0000      -0.478644       -13.0246
  52   2.0000      -0.474049       -12.8995
  53   2.0000      -0.466889       -12.7047
  54   2.0000      -0.459108       -12.4930
  55   2.0000      -0.446025       -12.1370
  56   2.0000      -0.441618       -12.0170
  57   2.0000      -0.435991       -11.8639
  58   2.0000      -0.429934       -11.6991
  59   2.0000      -0.423492       -11.5238
  60   2.0000      -0.421734       -11.4760
  61   2.0000      -0.420691       -11.4476
  62   2.0000      -0.407295       -11.0830
  63   2.0000      -0.341624        -9.2961
  64   2.0000      -0.331173        -9.0117
  65   2.0000      -0.326168        -8.8755
  66   2.0000      -0.297362        -8.0916
  67   0.0000       0.030047         0.8176
  68   0.0000       0.059619         1.6223
  69   0.0000       0.105858         2.8806
  70   0.0000       0.115918         3.1543
  71   0.0000       0.133110         3.6221

MULLIKEN ATOMIC CHARGES
-----------------------
   0 S :    0.110651
   1 C :   -0.121976
   2 C :   -0.064089
   3 C :    0.044049
   4 C :   -0.164529
   5 H :    0.011702
   6 C :    0.065890
   7 H :    0.050267
   8 H :    0.023805
   9 C :   -0.093185
  10 H :    0.040650
  11 H :    0.025937
  12 C :   -0.081389
  13 H :    0.037875
  14 H :    0.027757
  15 H :    0.031299
  16 S :    0.094641
  17 C :   -0.068375
  18 C :   -0.023678
  19 C :   -0.064560
  20 C :   -0.170628
  21 H :    0.018731
  22 C :    0.087623
  23 H :    0.043681
  24 H :   -0.020937
  25 C :   -0.052364
  26 H :    0.028912
  27 H :    0.027866
  28 C :   -0.050161
  29 H :    0.054564
  30 H :    0.032078
  31 H :    0.016688
  32 H :    0.053340
  33 H :    0.047865
Sum of atomic charges:    0.0000000

LOEWDIN ATOMIC CHARGES
----------------------
   0 S :    0.393083
   1 C :   -0.197740
   2 C :   -0.073193
   3 C :   -0.045396
   4 C :   -0.171626
   5 H :    0.035711
   6 C :   -0.039387
   7 H :    0.045510
   8 H :    0.030360
   9 C :   -0.042035
  10 H :    0.033573
  11 H :    0.016859
  12 C :   -0.076370
  13 H :    0.029060
  14 H :    0.026414
  15 H :    0.019472
  16 S :    0.381285
  17 C :   -0.176707
  18 C :   -0.082645
  19 C :   -0.053044
  20 C :   -0.189933
  21 H :    0.033809
  22 C :   -0.031135
  23 H :    0.038726
  24 H :    0.009281
  25 C :   -0.029638
  26 H :    0.017182
  27 H :    0.025457
  28 C :   -0.061229
  29 H :    0.037940
  30 H :    0.020033
  31 H :    0.019078
  32 H :    0.030649
  33 H :    0.026595

  Mayer bond orders larger than 0.100000
B(  0-S ,  1-C ) :   1.1424 B(  0-S ,  4-C ) :   1.1333 B(  1-C ,  2-C ) :   1.6227
B(  1-C , 32-H ) :   0.9573 B(  2-C ,  3-C ) :   1.2218 B(  2-C ,  6-C ) :   1.0245
B(  3-C ,  4-C ) :   1.5921 B(  3-C ,  5-H ) :   1.0053 B(  4-C , 20-C ) :   1.0488
B(  6-C ,  7-H ) :   0.9292 B(  6-C ,  8-H ) :   0.9440 B(  6-C ,  9-C ) :   1.0719
B(  9-C , 10-H ) :   0.9621 B(  9-C , 11-H ) :   0.9523 B(  9-C , 12-C ) :   1.0669
B( 12-C , 13-H ) :   0.9776 B( 12-C , 14-H ) :   0.9762 B( 12-C , 15-H ) :   0.9763
B( 16-S , 17-C ) :   1.1665 B( 16-S , 20-C ) :   1.1164 B( 17-C , 18-C ) :   1.5844
B( 17-C , 33-H ) :   0.9684 B( 18-C , 19-C ) :   1.2751 B( 18-C , 21-H ) :   0.9851
B( 19-C , 20-C ) :   1.5657 B( 19-C , 22-C ) :   1.0527 B( 22-C , 23-H ) :   0.9285
B( 22-C , 24-H ) :   0.9310 B( 22-C , 25-C ) :   1.0597 B( 25-C , 26-H ) :   0.9599
B( 25-C , 27-H ) :   0.9551 B( 25-C , 28-C ) :   1.0680 B( 28-C , 29-H ) :   0.9730
B( 28-C , 30-H ) :   0.9740 B( 28-C , 31-H ) :   0.9738

Dispersion correction           -0.015519937
FINAL SINGLE POINT ENERGY     -1339.877221954634

DIPOLE MOMENT
-------------
                                X             Y             Z
Electronic contribution:      0.88835      16.15502       1.12386
Nuclear contribution   :     -0.88425     -16.61826      -0.94382
                        -----------------------------------------
Total Dipole Moment    :      0.00409      -0.46324       0.18004
                        -----------------------------------------
Magnitude (a.u.)       :      0.49701
Magnitude (Debye)      :      1.26330

Rotational constants in cm-1:     0.024173     0.007726     0.007020
Rotational constants in MHz :   724.700102   231.605061   210.466593

                             ****ORCA TERMINATED NORMALLY****
TOTAL RUN TIME: 0 days 0 hours 0 minutes 35 seconds 644 msec
