                         Program Version 4.2.1 -  RELEASE  -
|  1> ! wB97X-D3 SP def2-SVP
|  2> %pal
|  3> nprocs 16
|  4> end
|  5>
|  6> * xyz 0 1
|  7> S 	 -34.7967 	 31.305 	 42.567
|  8> C 	 -36.0302 	 30.2466 	 43.2563
|  9> C 	 -35.7971 	 29.8957 	 44.5766
| 10> C 	 -34.6549 	 30.5251 	 45.0966
| 11> C 	 -34.0167 	 31.3842 	 44.1892
| 12> H 	 -34.2327 	 30.4641 	 46.071
| 13> C 	 -36.6056 	 29.0172 	 45.4475
| 14> H 	 -36.1696 	 29.0036 	 46.4076
| 15> H 	 -36.5559 	 28.0202 	 45.0424
| 16> C 	 -38.1152 	 29.2816 	 45.6676
| 17> H 	 -38.1383 	 30.2824 	 46.1077
| 18> H 	 -38.6533 	 29.3334 	 44.754
| 19> C 	 -38.8398 	 28.2747 	 46.517
| 20> H 	 -38.7509 	 27.285 	 46.0896
| 21> H 	 -38.5521 	 28.3047 	 47.5426
| 22> H 	 -39.9026 	 28.5472 	 46.6309
| 23> S 	 -32.686 	 32.8356 	 45.9674
| 24> C 	 -30.9397 	 32.9785 	 45.814
| 25> C 	 -30.6187 	 32.9408 	 44.4569
| 26> C 	 -31.6351 	 32.2556 	 43.6735
| 27> C 	 -32.7953 	 32.0817 	 44.4496
| 28> H 	 -29.7649 	 33.2497 	 43.9418
| 29> C 	 -31.3797 	 31.7681 	 42.2559
| 30> H 	 -30.7363 	 32.4425 	 41.6969
| 31> H 	 -32.3498 	 31.8263 	 41.7578
| 32> C 	 -30.6268 	 30.3801 	 42.1532
| 33> H 	 -29.6044 	 30.4505 	 42.5006
| 34> H 	 -30.508 	 30.1356 	 41.0855
| 35> C 	 -31.4232 	 29.2312 	 42.883
| 36> H 	 -32.4016 	 29.2121 	 42.3908
| 37> H 	 -31.4349 	 29.4125 	 43.9869
| 38> H 	 -30.9426 	 28.2525 	 42.6963
| 39> H 	 -36.9336 	 30.0384 	 42.7028
| 40> H 	 -30.278 	 33.3098 	 46.5738
| 41> *
| 42>
| 43>                          ****END OF INPUT****

CARTESIAN COORDINATES (ANGSTROEM)
---------------------------------
  S    -34.796700   31.305000   42.567000
  C    -36.030200   30.246600   43.256300
  C    -35.797100   29.895700   44.576600
  C    -34.654900   30.525100   45.096600
  C    -34.016700   31.384200   44.189200
  H    -34.232700   30.464100   46.071000
  C    -36.605600   29.017200   45.447500
  H    -36.169600   29.003600   46.407600
  H    -36.555900   28.020200   45.042400
  C    -38.115200   29.281600   45.667600
  H    -38.138300   30.282400   46.107700
  H    -38.653300   29.333400   44.754000
  C    -38.839800   28.274700   46.517000
  H    -38.750900   27.285000   46.089600
  H    -38.552100   28.304700   47.542600
  H    -39.902600   28.547200   46.630900
  S    -32.686000   32.835600   45.967400
  C    -30.939700   32.978500   45.814000
  C    -30.618700   32.940800   44.456900
  C    -31.635100   32.255600   43.673500
  C    -32.795300   32.081700   44.449600
  H    -29.764900   33.249700   43.941800
  C    -31.379700   31.768100   42.255900
  H    -30.736300   32.442500   41.696900
  H    -32.349800   31.826300   41.757800
  C    -30.626800   30.380100   42.153200
  H    -29.604400   30.450500   42.500600
  H    -30.508000   30.135600   41.085500
  C    -31.423200   29.231200   42.883000
  H    -32.401600   29.212100   42.390800
  H    -31.434900   29.412500   43.986900
  H    -30.942600   28.252500   42.696300
  H    -36.933600   30.038400   42.702800
  H    -30.278000   33.309800   46.573800

 Total Charge           Charge          ....    0
 Multiplicity           Mult            ....    1
 Number of Electrons    NEL             ....  134
 Basis Dimension        Dim             ....  322

ORBITAL ENERGIES
----------------

  NO   OCC          E(Eh)            E(eV)
   0   2.0000     -88.970123     -2421.0001
   1   2.0000     -88.964847     -2420.8566
   2   2.0000     -10.330327      -281.1025
   3   2.0000     -10.320193      -280.8267
   4   2.0000     -10.316048      -280.7139
   5   2.0000     -10.315634      -280.7027
   6   2.0000     -10.300481      -280.2903
   7   2.0000     -10.299544      -280.2648
   8   2.0000     -10.293840      -280.1096
   9   2.0000     -10.293166      -280.0913
  10   2.0000     -10.292089      -280.0620
  11   2.0000     -10.288229      -279.9570
  12   2.0000     -10.283566      -279.8301
  13   2.0000     -10.282008      -279.7877
  14   2.0000     -10.276156      -279.6284
  15   2.0000     -10.275252      -279.6038
  16   2.0000      -8.083192      -219.9548
  17   2.0000      -8.080356      -219.8777
  18   2.0000      -6.041687      -164.4027
  19   2.0000      -6.038891      -164.3266
  20   2.0000      -6.038022      -164.3029
  21   2.0000      -6.034969      -164.2198
  22   2.0000      -6.034001      -164.1935
  23   2.0000      -6.030812      -164.1067
  24   2.0000      -1.007467       -27.4146
  25   2.0000      -0.981555       -26.7095
  26   2.0000      -0.914869       -24.8948
  27   2.0000      -0.898231       -24.4421
  28   2.0000      -0.872064       -23.7301
  29   2.0000      -0.857526       -23.3345
  30   2.0000      -0.837378       -22.7862
  31   2.0000      -0.810639       -22.0586
  32   2.0000      -0.781975       -21.2786
  33   2.0000      -0.768087       -20.9007
  34   2.0000      -0.709570       -19.3084
  35   2.0000      -0.700396       -19.0588
  36   2.0000      -0.692008       -18.8305
  37   2.0000      -0.669381       -18.2148
  38   2.0000      -0.641967       -17.4688
  39   2.0000      -0.613333       -16.6896
  40   2.0000      -0.592082       -16.1114
  41   2.0000      -0.578641       -15.7456
  42   2.0000      -0.562731       -15.3127
  43   2.0000      -0.544729       -14.8228
  44   2.0000      -0.538778       -14.6609
  45   2.0000      -0.524470       -14.2715
  46   2.0000      -0.518194       -14.1008
  47   2.0000      -0.513888       -13.9836
  48   2.0000      -0.508259       -13.8304
  49   2.0000      -0.493969       -13.4416
  50   2.0000      -0.489493       -13.3198
  51   2.0000      -0.478337       -13.0162
  52   2.0000      -0.473618       -12.8878
  53   2.0000      -0.460639       -12.5346
  54   2.0000      -0.458732       -12.4827
  55   2.0000      -0.447362       -12.1733
  56   2.0000      -0.443763       -12.0754
  57   2.0000      -0.438780       -11.9398
  58   2.0000      -0.429322       -11.6824
  59   2.0000      -0.424469       -11.5504
  60   2.0000      -0.420611       -11.4454
  61   2.0000      -0.416569       -11.3354
  62   2.0000      -0.411476       -11.1968
  63   2.0000      -0.347070        -9.4443
  64   2.0000      -0.332946        -9.0599
  65   2.0000      -0.325170        -8.8483
  66   2.0000      -0.279337        -7.6012
  67   0.0000       0.017169         0.4672
  68   0.0000       0.070926         1.9300
  69   0.0000       0.097523         2.6537
  70   0.0000       0.110235         2.9997
  71   0.0000       0.130320         3.5462

MULLIKEN ATOMIC CHARGES
-----------------------
   0 S :    0.090735
   1 C :   -0.132018
   2 C :   -0.034790
   3 C :    0.004222
   4 C :   -0.134932
   5 H :    0.007843
   6 C :    0.100091
   7 H :    0.004223
   8 H :    0.024992
   9 C :   -0.075885
  10 H :    0.026794
  11 H :    0.017642
  12 C :   -0.035026
  13 H :    0.033656
  14 H :    0.020951
  15 H :    0.032811
  16 S :    0.114565
  17 C :   -0.093246
  18 C :    0.018023
  19 C :   -0.093276
  20 C :   -0.147587
  21 H :   -0.005056
  22 C :    0.065133
  23 H :    0.020024
  24 H :    0.025631
  25 C :   -0.072648
  26 H :    0.024931
  27 H :    0.030473
  28 C :   -0.070198
  29 H :    0.039151
  30 H :    0.060588
  31 H :    0.033294
  32 H :    0.048656
  33 H :    0.050234
Sum of atomic charges:   -0.0000000

LOEWDIN ATOMIC CHARGES
----------------------
   0 S :    0.389250
   1 C :   -0.186339
   2 C :   -0.061455
   3 C :   -0.053745
   4 C :   -0.175309
   5 H :    0.023855
   6 C :   -0.028920
   7 H :    0.024717
   8 H :    0.032280
   9 C :   -0.037491
  10 H :    0.025264
  11 H :    0.016404
  12 C :   -0.063265
  13 H :    0.025216
  14 H :    0.020790
  15 H :    0.033567
  16 S :    0.430799
  17 C :   -0.184620
  18 C :   -0.048694
  19 C :   -0.063468
  20 C :   -0.213845
  21 H :    0.019228
  22 C :   -0.036976
  23 H :    0.031270
  24 H :    0.018003
  25 C :   -0.035891
  26 H :    0.018528
  27 H :    0.024131
  28 C :   -0.071155
  29 H :    0.024588
  30 H :    0.033230
  31 H :    0.024766
  32 H :    0.024276
  33 H :    0.021007

  Mayer bond orders larger than 0.100000
B(  0-S ,  1-C ) :   1.1354 B(  0-S ,  4-C ) :   1.1305 B(  1-C ,  2-C ) :   1.5902
B(  1-C , 32-H ) :   0.9698 B(  2-C ,  3-C ) :   1.2465 B(  2-C ,  6-C ) :   1.0324
B(  3-C ,  4-C ) :   1.5488 B(  3-C ,  5-H ) :   0.9911 B(  4-C , 20-C ) :   1.0813
B(  6-C ,  7-H ) :   0.9404 B(  6-C ,  8-H ) :   0.9223 B(  6-C ,  9-C ) :   1.0654
B(  9-C , 10-H ) :   0.9550 B(  9-C , 11-H ) :   0.9536 B(  9-C , 12-C ) :   1.0972
B( 12-C , 13-H ) :   0.9728 B( 12-C , 14-H ) :   0.9729 B( 12-C , 15-H ) :   0.9695
B( 16-S , 17-C ) :   1.1409 B( 16-S , 20-C ) :   1.1596 B( 17-C , 18-C ) :   1.5760
B( 17-C , 33-H ) :   0.9780 B( 18-C , 19-C ) :   1.2561 B( 18-C , 21-H ) :   0.9905
B( 19-C , 20-C ) :   1.5442 B( 19-C , 22-C ) :   1.0461 B( 22-C , 23-H ) :   0.9304
B( 22-C , 24-H ) :   0.9362 B( 22-C , 25-C ) :   1.0600 B( 25-C , 26-H ) :   0.9575
B( 25-C , 27-H ) :   0.9578 B( 25-C , 28-C ) :   1.0698 B( 28-C , 29-H ) :   0.9750
B( 28-C , 30-H ) :   0.9744 B( 28-C , 31-H ) :   0.9755

Dispersion correction           -0.015172996
FINAL SINGLE POINT ENERGY     -1339.869183653126

DIPOLE MOMENT
-------------
                                X             Y             Z
Electronic contribution:      6.54430      17.40805      -0.41379
Nuclear contribution   :     -6.56825     -17.69771       0.45600
                        -----------------------------------------
Total Dipole Moment    :     -0.02396      -0.28966       0.04221
                        -----------------------------------------
Magnitude (a.u.)       :      0.29370
Magnitude (Debye)      :      0.74652

Rotational constants in cm-1:     0.023310     0.007834     0.006728
Rotational constants in MHz :   698.815522   234.863243   201.705847

                             ****ORCA TERMINATED NORMALLY****
TOTAL RUN TIME: 0 days 0 hours 0 minutes 37 seconds 614 msec
