                         Program Version 4.2.1 -  RELEASE  -
|  1> ! wB97X-D3 SP def2-SVP
|  2> %pal
|  3> nprocs 16
|  4> end
|  5>
|  6> * xyz 0 1
|  7> S 	 56.5438 	 6.99524 	 62.1896
|  8> C 	 57.3555 	 8.27446 	 63.1644
|  9> C 	 56.4159 	 9.29782 	 63.3347
| 10> C 	 55.0977 	 8.92291 	 62.846
| 11> C 	 55.0865 	 7.84515 	 62.0074
| 12> H 	 54.226 	 9.53811 	 62.8759
| 13> C 	 56.6711 	 10.473 	 64.2306
| 14> H 	 56.7279 	 11.346 	 63.5778
| 15> H 	 57.7392 	 10.3737 	 64.5983
| 16> C 	 55.7908 	 10.6777 	 65.381
| 17> H 	 54.7611 	 10.9307 	 65.0266
| 18> H 	 55.7016 	 9.78031 	 66.0149
| 19> C 	 56.24 	 11.8107 	 66.2957
| 20> H 	 57.0472 	 11.5081 	 66.976
| 21> H 	 56.7429 	 12.6829 	 65.7419
| 22> H 	 55.3595 	 12.2298 	 66.903
| 23> S 	 53.6799 	 5.5565 	 61.4174
| 24> C 	 52.2949 	 5.62777 	 60.4058
| 25> C 	 52.2443 	 6.95076 	 59.8355
| 26> C 	 53.2925 	 7.80266 	 60.2846
| 27> C 	 54.0225 	 7.26312 	 61.2896
| 28> H 	 51.514 	 7.12917 	 59.1
| 29> C 	 53.5147 	 9.12828 	 59.5077
| 30> H 	 53.5268 	 9.96458 	 60.2614
| 31> H 	 52.6976 	 9.29292 	 58.8117
| 32> C 	 54.8194 	 9.02598 	 58.7375
| 33> H 	 55.6718 	 8.73743 	 59.3968
| 34> H 	 55.0798 	 9.95884 	 58.3642
| 35> C 	 54.8048 	 8.02402 	 57.5259
| 36> H 	 54.5263 	 6.97144 	 57.7608
| 37> H 	 55.8007 	 7.938 	 57.0352
| 38> H 	 53.97 	 8.30774 	 56.8507
| 39> H 	 58.3488 	 8.20083 	 63.4336
| 40> H 	 51.6289 	 4.79279 	 60.066
| 41> *
| 42>
| 43>                          ****END OF INPUT****

CARTESIAN COORDINATES (ANGSTROEM)
---------------------------------
  S     56.543800    6.995240   62.189600
  C     57.355500    8.274460   63.164400
  C     56.415900    9.297820   63.334700
  C     55.097700    8.922910   62.846000
  C     55.086500    7.845150   62.007400
  H     54.226000    9.538110   62.875900
  C     56.671100   10.473000   64.230600
  H     56.727900   11.346000   63.577800
  H     57.739200   10.373700   64.598300
  C     55.790800   10.677700   65.381000
  H     54.761100   10.930700   65.026600
  H     55.701600    9.780310   66.014900
  C     56.240000   11.810700   66.295700
  H     57.047200   11.508100   66.976000
  H     56.742900   12.682900   65.741900
  H     55.359500   12.229800   66.903000
  S     53.679900    5.556500   61.417400
  C     52.294900    5.627770   60.405800
  C     52.244300    6.950760   59.835500
  C     53.292500    7.802660   60.284600
  C     54.022500    7.263120   61.289600
  H     51.514000    7.129170   59.100000
  C     53.514700    9.128280   59.507700
  H     53.526800    9.964580   60.261400
  H     52.697600    9.292920   58.811700
  C     54.819400    9.025980   58.737500
  H     55.671800    8.737430   59.396800
  H     55.079800    9.958840   58.364200
  C     54.804800    8.024020   57.525900
  H     54.526300    6.971440   57.760800
  H     55.800700    7.938000   57.035200
  H     53.970000    8.307740   56.850700
  H     58.348800    8.200830   63.433600
  H     51.628900    4.792790   60.066000

 Total Charge           Charge          ....    0
 Multiplicity           Mult            ....    1
 Number of Electrons    NEL             ....  134
 Basis Dimension        Dim             ....  322

ORBITAL ENERGIES
----------------

  NO   OCC          E(Eh)            E(eV)
   0   2.0000     -88.967925     -2420.9403
   1   2.0000     -88.959132     -2420.7011
   2   2.0000     -10.325594      -280.9737
   3   2.0000     -10.322994      -280.9029
   4   2.0000     -10.319439      -280.8062
   5   2.0000     -10.316311      -280.7211
   6   2.0000     -10.307210      -280.4734
   7   2.0000     -10.301556      -280.3196
   8   2.0000     -10.298451      -280.2351
   9   2.0000     -10.293616      -280.1035
  10   2.0000     -10.291680      -280.0508
  11   2.0000     -10.291509      -280.0462
  12   2.0000     -10.290005      -280.0053
  13   2.0000     -10.287906      -279.9482
  14   2.0000     -10.281758      -279.7808
  15   2.0000     -10.281371      -279.7703
  16   2.0000      -8.083006      -219.9498
  17   2.0000      -8.074588      -219.7207
  18   2.0000      -6.041491      -164.3973
  19   2.0000      -6.037346      -164.2845
  20   2.0000      -6.033865      -164.1898
  21   2.0000      -6.033094      -164.1688
  22   2.0000      -6.028880      -164.0542
  23   2.0000      -6.025392      -163.9592
  24   2.0000      -1.015567       -27.6350
  25   2.0000      -0.985977       -26.8298
  26   2.0000      -0.922131       -25.0925
  27   2.0000      -0.907016       -24.6812
  28   2.0000      -0.874466       -23.7954
  29   2.0000      -0.846844       -23.0438
  30   2.0000      -0.838077       -22.8052
  31   2.0000      -0.814679       -22.1686
  32   2.0000      -0.780386       -21.2354
  33   2.0000      -0.772711       -21.0265
  34   2.0000      -0.712189       -19.3796
  35   2.0000      -0.697156       -18.9706
  36   2.0000      -0.689689       -18.7674
  37   2.0000      -0.665490       -18.1089
  38   2.0000      -0.650119       -17.6906
  39   2.0000      -0.619142       -16.8477
  40   2.0000      -0.589605       -16.0440
  41   2.0000      -0.572044       -15.5661
  42   2.0000      -0.565352       -15.3840
  43   2.0000      -0.549850       -14.9622
  44   2.0000      -0.544942       -14.8286
  45   2.0000      -0.529593       -14.4110
  46   2.0000      -0.519652       -14.1404
  47   2.0000      -0.516173       -14.0458
  48   2.0000      -0.511300       -13.9132
  49   2.0000      -0.501532       -13.6474
  50   2.0000      -0.487473       -13.2648
  51   2.0000      -0.474450       -12.9104
  52   2.0000      -0.470620       -12.8062
  53   2.0000      -0.466097       -12.6831
  54   2.0000      -0.457384       -12.4460
  55   2.0000      -0.449668       -12.2361
  56   2.0000      -0.442472       -12.0403
  57   2.0000      -0.435629       -11.8541
  58   2.0000      -0.429530       -11.6881
  59   2.0000      -0.419388       -11.4121
  60   2.0000      -0.413674       -11.2566
  61   2.0000      -0.410879       -11.1806
  62   2.0000      -0.406712       -11.0672
  63   2.0000      -0.346779        -9.4363
  64   2.0000      -0.329850        -8.9757
  65   2.0000      -0.326368        -8.8809
  66   2.0000      -0.293771        -7.9939
  67   0.0000       0.026762         0.7282
  68   0.0000       0.067216         1.8290
  69   0.0000       0.109307         2.9744
  70   0.0000       0.119720         3.2578
  71   0.0000       0.138035         3.7561

MULLIKEN ATOMIC CHARGES
-----------------------
   0 S :    0.078248
   1 C :   -0.103686
   2 C :   -0.075666
   3 C :    0.035140
   4 C :   -0.156592
   5 H :    0.004777
   6 C :    0.052544
   7 H :    0.030992
   8 H :    0.016111
   9 C :   -0.058310
  10 H :    0.033308
  11 H :    0.042160
  12 C :   -0.101290
  13 H :    0.037792
  14 H :    0.033672
  15 H :    0.052732
  16 S :    0.126507
  17 C :   -0.120469
  18 C :   -0.040339
  19 C :   -0.040109
  20 C :   -0.149908
  21 H :    0.002145
  22 C :    0.096500
  23 H :    0.037047
  24 H :    0.017741
  25 C :   -0.045079
  26 H :    0.044838
  27 H :    0.012106
  28 C :   -0.092781
  29 H :    0.040079
  30 H :    0.049676
  31 H :    0.025863
  32 H :    0.031247
  33 H :    0.083003
Sum of atomic charges:   -0.0000000

LOEWDIN ATOMIC CHARGES
----------------------
   0 S :    0.398012
   1 C :   -0.169397
   2 C :   -0.053773
   3 C :   -0.067370
   4 C :   -0.200364
   5 H :    0.024469
   6 C :   -0.042324
   7 H :    0.032545
   8 H :    0.033689
   9 C :   -0.050074
  10 H :    0.027283
  11 H :    0.032402
  12 C :   -0.077745
  13 H :    0.024287
  14 H :    0.029651
  15 H :    0.036891
  16 S :    0.431087
  17 C :   -0.208218
  18 C :   -0.070698
  19 C :   -0.051386
  20 C :   -0.213977
  21 H :    0.019682
  22 C :   -0.021868
  23 H :    0.035806
  24 H :    0.026901
  25 C :   -0.036755
  26 H :    0.031277
  27 H :    0.013457
  28 C :   -0.075604
  29 H :    0.027496
  30 H :    0.032590
  31 H :    0.023414
  32 H :    0.013207
  33 H :    0.045411

  Mayer bond orders larger than 0.100000
B(  0-S ,  1-C ) :   1.1225 B(  0-S ,  4-C ) :   1.1500 B(  1-C ,  2-C ) :   1.5916
B(  1-C , 32-H ) :   0.9874 B(  2-C ,  3-C ) :   1.2185 B(  2-C ,  6-C ) :   1.0354
B(  3-C ,  4-C ) :   1.5953 B(  3-C ,  5-H ) :   0.9889 B(  4-C , 20-C ) :   1.0594
B(  6-C ,  7-H ) :   0.9173 B(  6-C ,  8-H ) :   0.9452 B(  6-C ,  9-C ) :   1.0827
B(  9-C , 10-H ) :   0.9447 B(  9-C , 11-H ) :   0.9541 B(  9-C , 12-C ) :   1.0754
B( 12-C , 13-H ) :   0.9746 B( 12-C , 14-H ) :   0.9734 B( 12-C , 15-H ) :   0.9744
B( 16-S , 17-C ) :   1.1842 B( 16-S , 20-C ) :   1.1365 B( 17-C , 18-C ) :   1.5549
B( 17-C , 20-C ) :   0.1083 B( 17-C , 33-H ) :   0.9637 B( 18-C , 19-C ) :   1.2747
B( 18-C , 21-H ) :   0.9980 B( 19-C , 20-C ) :   1.5726 B( 19-C , 22-C ) :   1.0310
B( 22-C , 23-H ) :   0.9302 B( 22-C , 24-H ) :   0.9400 B( 22-C , 25-C ) :   1.0739
B( 25-C , 26-H ) :   0.9563 B( 25-C , 27-H ) :   0.9543 B( 25-C , 28-C ) :   1.0613
B( 28-C , 29-H ) :   0.9767 B( 28-C , 30-H ) :   0.9752 B( 28-C , 31-H ) :   0.9745

Dispersion correction           -0.014868388
FINAL SINGLE POINT ENERGY     -1339.866417880970

DIPOLE MOMENT
-------------
                                X             Y             Z
Electronic contribution:     -2.43617     -21.99597      -0.73040
Nuclear contribution   :      2.33942      22.51994       0.61379
                        -----------------------------------------
Total Dipole Moment    :     -0.09674       0.52397      -0.11661
                        -----------------------------------------
Magnitude (a.u.)       :      0.54544
Magnitude (Debye)      :      1.38640

Rotational constants in cm-1:     0.022657     0.007623     0.007130
Rotational constants in MHz :   679.243922   228.523234   213.766336

                             ****ORCA TERMINATED NORMALLY****
TOTAL RUN TIME: 0 days 0 hours 0 minutes 30 seconds 622 msec
