                         Program Version 4.2.1 -  RELEASE  -
|  1> ! wB97X-D3 SP def2-SVP
|  2> %pal
|  3> nprocs 16
|  4> end
|  5>
|  6> * xyz 0 1
|  7> S 	 60.9504 	 15.1197 	 79.2549
|  8> C 	 62.4915 	 15.8093 	 79.4701
|  9> C 	 63.1827 	 15.9616 	 78.2384
| 10> C 	 62.2861 	 15.682 	 77.145
| 11> C 	 61.0175 	 15.3474 	 77.5636
| 12> H 	 62.324 	 15.7907 	 76.0369
| 13> C 	 64.5865 	 16.4631 	 78.0359
| 14> H 	 65.1577 	 15.9443 	 78.7712
| 15> H 	 64.5835 	 17.5984 	 78.1127
| 16> C 	 65.223 	 16.0734 	 76.6794
| 17> H 	 64.7012 	 16.6262 	 75.9284
| 18> H 	 66.2514 	 16.4421 	 76.6763
| 19> C 	 65.207 	 14.594 	 76.422
| 20> H 	 64.2641 	 14.1127 	 76.6373
| 21> H 	 65.5557 	 14.2511 	 75.4931
| 22> H 	 65.871 	 14.1123 	 77.1326
| 23> S 	 59.3012 	 13.5649 	 76.4016
| 24> C 	 58.0079 	 14.1542 	 75.4165
| 25> C 	 58.0452 	 15.5005 	 75.1213
| 26> C 	 59.0655 	 16.1631 	 75.8899
| 27> C 	 59.8068 	 15.2224 	 76.6568
| 28> H 	 57.3136 	 15.9521 	 74.4394
| 29> C 	 59.3834 	 17.6106 	 75.7481
| 30> H 	 59.0384 	 17.8187 	 74.7323
| 31> H 	 60.4791 	 17.7881 	 75.7241
| 32> C 	 58.5296 	 18.4144 	 76.7137
| 33> H 	 57.4734 	 18.1235 	 76.6465
| 34> H 	 58.6004 	 19.3936 	 76.4014
| 35> C 	 58.8966 	 18.2787 	 78.2414
| 36> H 	 59.9451 	 18.0618 	 78.4755
| 37> H 	 58.3704 	 17.4811 	 78.7815
| 38> H 	 58.5926 	 19.2542 	 78.6986
| 39> H 	 62.9513 	 16.1214 	 80.3554
| 40> H 	 57.1393 	 13.4908 	 75.1351
| 41> *
| 42>
| 43>                          ****END OF INPUT****

CARTESIAN COORDINATES (ANGSTROEM)
---------------------------------
  S     60.950400   15.119700   79.254900
  C     62.491500   15.809300   79.470100
  C     63.182700   15.961600   78.238400
  C     62.286100   15.682000   77.145000
  C     61.017500   15.347400   77.563600
  H     62.324000   15.790700   76.036900
  C     64.586500   16.463100   78.035900
  H     65.157700   15.944300   78.771200
  H     64.583500   17.598400   78.112700
  C     65.223000   16.073400   76.679400
  H     64.701200   16.626200   75.928400
  H     66.251400   16.442100   76.676300
  C     65.207000   14.594000   76.422000
  H     64.264100   14.112700   76.637300
  H     65.555700   14.251100   75.493100
  H     65.871000   14.112300   77.132600
  S     59.301200   13.564900   76.401600
  C     58.007900   14.154200   75.416500
  C     58.045200   15.500500   75.121300
  C     59.065500   16.163100   75.889900
  C     59.806800   15.222400   76.656800
  H     57.313600   15.952100   74.439400
  C     59.383400   17.610600   75.748100
  H     59.038400   17.818700   74.732300
  H     60.479100   17.788100   75.724100
  C     58.529600   18.414400   76.713700
  H     57.473400   18.123500   76.646500
  H     58.600400   19.393600   76.401400
  C     58.896600   18.278700   78.241400
  H     59.945100   18.061800   78.475500
  H     58.370400   17.481100   78.781500
  H     58.592600   19.254200   78.698600
  H     62.951300   16.121400   80.355400
  H     57.139300   13.490800   75.135100

 Total Charge           Charge          ....    0
 Multiplicity           Mult            ....    1
 Number of Electrons    NEL             ....  134
 Basis Dimension        Dim             ....  322

ORBITAL ENERGIES
----------------

  NO   OCC          E(Eh)            E(eV)
   0   2.0000     -88.967248     -2420.9219
   1   2.0000     -88.964718     -2420.8531
   2   2.0000     -10.327289      -281.0198
   3   2.0000     -10.322630      -280.8930
   4   2.0000     -10.316404      -280.7236
   5   2.0000     -10.309147      -280.5262
   6   2.0000     -10.305676      -280.4317
   7   2.0000     -10.304819      -280.4084
   8   2.0000     -10.295554      -280.1563
   9   2.0000     -10.294210      -280.1197
  10   2.0000     -10.293778      -280.1080
  11   2.0000     -10.289271      -279.9853
  12   2.0000     -10.283689      -279.8334
  13   2.0000     -10.280972      -279.7595
  14   2.0000     -10.274661      -279.5877
  15   2.0000     -10.265926      -279.3501
  16   2.0000      -8.083058      -219.9512
  17   2.0000      -8.079880      -219.8647
  18   2.0000      -6.041347      -164.3934
  19   2.0000      -6.038143      -164.3062
  20   2.0000      -6.037376      -164.2854
  21   2.0000      -6.034437      -164.2054
  22   2.0000      -6.034017      -164.1939
  23   2.0000      -6.030787      -164.1061
  24   2.0000      -1.006903       -27.3992
  25   2.0000      -0.985348       -26.8127
  26   2.0000      -0.916196       -24.9309
  27   2.0000      -0.910101       -24.7651
  28   2.0000      -0.862741       -23.4764
  29   2.0000      -0.846547       -23.0357
  30   2.0000      -0.842485       -22.9252
  31   2.0000      -0.811690       -22.0872
  32   2.0000      -0.784185       -21.3387
  33   2.0000      -0.769827       -20.9481
  34   2.0000      -0.707481       -19.2515
  35   2.0000      -0.699646       -19.0383
  36   2.0000      -0.683633       -18.6026
  37   2.0000      -0.654653       -17.8140
  38   2.0000      -0.640384       -17.4257
  39   2.0000      -0.616598       -16.7785
  40   2.0000      -0.594758       -16.1842
  41   2.0000      -0.568148       -15.4601
  42   2.0000      -0.559938       -15.2367
  43   2.0000      -0.543566       -14.7912
  44   2.0000      -0.536370       -14.5954
  45   2.0000      -0.533983       -14.5304
  46   2.0000      -0.518898       -14.1199
  47   2.0000      -0.509387       -13.8611
  48   2.0000      -0.500045       -13.6069
  49   2.0000      -0.491526       -13.3751
  50   2.0000      -0.485429       -13.2092
  51   2.0000      -0.474989       -12.9251
  52   2.0000      -0.470690       -12.8081
  53   2.0000      -0.463971       -12.6253
  54   2.0000      -0.459588       -12.5060
  55   2.0000      -0.452249       -12.3063
  56   2.0000      -0.441485       -12.0134
  57   2.0000      -0.438692       -11.9374
  58   2.0000      -0.433215       -11.7884
  59   2.0000      -0.422899       -11.5077
  60   2.0000      -0.419464       -11.4142
  61   2.0000      -0.414611       -11.2821
  62   2.0000      -0.410858       -11.1800
  63   2.0000      -0.335772        -9.1368
  64   2.0000      -0.329024        -8.9532
  65   2.0000      -0.319755        -8.7010
  66   2.0000      -0.298339        -8.1182
  67   0.0000       0.043306         1.1784
  68   0.0000       0.056999         1.5510
  69   0.0000       0.108304         2.9471
  70   0.0000       0.120811         3.2874
  71   0.0000       0.133794         3.6407

MULLIKEN ATOMIC CHARGES
-----------------------
   0 S :    0.146669
   1 C :   -0.093477
   2 C :   -0.140155
   3 C :    0.041460
   4 C :   -0.197639
   5 H :    0.032029
   6 C :    0.079792
   7 H :    0.018640
   8 H :    0.062227
   9 C :   -0.063214
  10 H :    0.020502
  11 H :    0.031440
  12 C :   -0.028052
  13 H :    0.038702
  14 H :    0.021914
  15 H :    0.011292
  16 S :    0.118074
  17 C :   -0.113225
  18 C :   -0.045004
  19 C :   -0.038969
  20 C :   -0.202498
  21 H :    0.029781
  22 C :    0.074810
  23 H :    0.011514
  24 H :    0.038765
  25 C :   -0.027553
  26 H :    0.029706
  27 H :    0.011094
  28 C :   -0.076434
  29 H :    0.039057
  30 H :    0.039580
  31 H :    0.036682
  32 H :    0.019445
  33 H :    0.073048
Sum of atomic charges:    0.0000000

LOEWDIN ATOMIC CHARGES
----------------------
   0 S :    0.450198
   1 C :   -0.210507
   2 C :   -0.063129
   3 C :   -0.073261
   4 C :   -0.224100
   5 H :    0.041764
   6 C :   -0.032203
   7 H :    0.026179
   8 H :    0.045979
   9 C :   -0.038831
  10 H :    0.015730
  11 H :    0.028738
  12 C :   -0.064330
  13 H :    0.027668
  14 H :    0.019878
  15 H :    0.026137
  16 S :    0.414054
  17 C :   -0.199816
  18 C :   -0.078484
  19 C :   -0.048921
  20 C :   -0.206413
  21 H :    0.037221
  22 C :   -0.034213
  23 H :    0.032234
  24 H :    0.034731
  25 C :   -0.030180
  26 H :    0.030855
  27 H :    0.011206
  28 C :   -0.073266
  29 H :    0.023746
  30 H :    0.025909
  31 H :    0.031067
  32 H :    0.017502
  33 H :    0.036856

  Mayer bond orders larger than 0.100000
B(  0-S ,  1-C ) :   1.1613 B(  0-S ,  4-C ) :   1.1758 B(  1-C ,  2-C ) :   1.5906
B(  1-C , 32-H ) :   0.9805 B(  2-C ,  3-C ) :   1.2204 B(  2-C ,  6-C ) :   1.0081
B(  3-C ,  4-C ) :   1.5888 B(  3-C ,  5-H ) :   0.9829 B(  4-C , 20-C ) :   0.9790
B(  6-C ,  7-H ) :   0.9358 B(  6-C ,  8-H ) :   0.9355 B(  6-C ,  9-C ) :   1.0939
B(  9-C , 10-H ) :   0.9459 B(  9-C , 11-H ) :   0.9547 B(  9-C , 12-C ) :   1.0795
B( 12-C , 13-H ) :   0.9725 B( 12-C , 14-H ) :   0.9727 B( 12-C , 15-H ) :   0.9673
B( 16-S , 17-C ) :   1.1660 B( 16-S , 20-C ) :   1.1633 B( 17-C , 18-C ) :   1.6163
B( 17-C , 33-H ) :   0.9560 B( 18-C , 19-C ) :   1.2452 B( 18-C , 21-H ) :   0.9841
B( 19-C , 20-C ) :   1.5920 B( 19-C , 22-C ) :   1.0302 B( 22-C , 23-H ) :   0.9258
B( 22-C , 24-H ) :   0.9413 B( 22-C , 25-C ) :   1.0797 B( 25-C , 26-H ) :   0.9541
B( 25-C , 27-H ) :   0.9596 B( 25-C , 28-C ) :   1.0553 B( 28-C , 29-H ) :   0.9795
B( 28-C , 30-H ) :   0.9774 B( 28-C , 31-H ) :   0.9768

Dispersion correction           -0.015993437
FINAL SINGLE POINT ENERGY     -1339.866067451176

DIPOLE MOMENT
-------------
                                X             Y             Z
Electronic contribution:    -11.46464     -14.77558       4.39322
Nuclear contribution   :     11.65903      15.23075      -4.67164
                        -----------------------------------------
Total Dipole Moment    :      0.19438       0.45517      -0.27842
                        -----------------------------------------
Magnitude (a.u.)       :      0.56787
Magnitude (Debye)      :      1.44342

Rotational constants in cm-1:     0.019336     0.009217     0.008374
Rotational constants in MHz :   579.684615   276.314593   251.058852

                             ****ORCA TERMINATED NORMALLY****
TOTAL RUN TIME: 0 days 0 hours 0 minutes 32 seconds 757 msec
