                         Program Version 4.2.1 -  RELEASE  -
|  1> ! wB97X-D3 SP def2-SVP
|  2> %pal
|  3> nprocs 16
|  4> end
|  5>
|  6> * xyz 0 1
|  7> S 	 -29.2469 	 66.7558 	 104.439
|  8> C 	 -27.7031 	 67.5066 	 104.291
|  9> C 	 -26.8298 	 67.129 	 105.317
| 10> C 	 -27.4385 	 66.2476 	 106.236
| 11> C 	 -28.7395 	 65.9496 	 105.838
| 12> H 	 -27.0824 	 65.8415 	 107.158
| 13> C 	 -25.4196 	 67.7336 	 105.513
| 14> H 	 -25.257 	 67.9361 	 106.569
| 15> H 	 -25.367 	 68.7916 	 105.19
| 16> C 	 -24.2051 	 66.9248 	 104.94
| 17> H 	 -23.3351 	 67.3537 	 105.361
| 18> H 	 -24.1738 	 65.9232 	 105.413
| 19> C 	 -24.0916 	 66.6684 	 103.411
| 20> H 	 -24.8881 	 66.1508 	 102.986
| 21> H 	 -24.2339 	 67.5867 	 102.901
| 22> H 	 -23.1928 	 66.1796 	 103.043
| 23> S 	 -30.5592 	 65.5411 	 107.972
| 24> C 	 -31.4484 	 64.1471 	 107.965
| 25> C 	 -31.1927 	 63.3481 	 106.917
| 26> C 	 -30.2033 	 63.8309 	 106.023
| 27> C 	 -29.7119 	 65.062 	 106.483
| 28> H 	 -31.7167 	 62.3646 	 106.941
| 29> C 	 -29.4295 	 62.9609 	 104.98
| 30> H 	 -28.3677 	 62.8712 	 105.227
| 31> H 	 -29.5146 	 63.4246 	 103.978
| 32> C 	 -29.971 	 61.5299 	 104.693
| 33> H 	 -29.458 	 61.1971 	 103.797
| 34> H 	 -31.0314 	 61.5013 	 104.516
| 35> C 	 -29.7974 	 60.5016 	 105.85
| 36> H 	 -30.4578 	 60.7467 	 106.688
| 37> H 	 -28.7502 	 60.3834 	 105.965
| 38> H 	 -30.0391 	 59.4714 	 105.485
| 39> H 	 -27.3165 	 68.1713 	 103.541
| 40> H 	 -32.2207 	 63.8765 	 108.776
| 41> *
| 42>
| 43>                          ****END OF INPUT****

CARTESIAN COORDINATES (ANGSTROEM)
---------------------------------
  S    -29.246900   66.755800  104.439000
  C    -27.703100   67.506600  104.291000
  C    -26.829800   67.129000  105.317000
  C    -27.438500   66.247600  106.236000
  C    -28.739500   65.949600  105.838000
  H    -27.082400   65.841500  107.158000
  C    -25.419600   67.733600  105.513000
  H    -25.257000   67.936100  106.569000
  H    -25.367000   68.791600  105.190000
  C    -24.205100   66.924800  104.940000
  H    -23.335100   67.353700  105.361000
  H    -24.173800   65.923200  105.413000
  C    -24.091600   66.668400  103.411000
  H    -24.888100   66.150800  102.986000
  H    -24.233900   67.586700  102.901000
  H    -23.192800   66.179600  103.043000
  S    -30.559200   65.541100  107.972000
  C    -31.448400   64.147100  107.965000
  C    -31.192700   63.348100  106.917000
  C    -30.203300   63.830900  106.023000
  C    -29.711900   65.062000  106.483000
  H    -31.716700   62.364600  106.941000
  C    -29.429500   62.960900  104.980000
  H    -28.367700   62.871200  105.227000
  H    -29.514600   63.424600  103.978000
  C    -29.971000   61.529900  104.693000
  H    -29.458000   61.197100  103.797000
  H    -31.031400   61.501300  104.516000
  C    -29.797400   60.501600  105.850000
  H    -30.457800   60.746700  106.688000
  H    -28.750200   60.383400  105.965000
  H    -30.039100   59.471400  105.485000
  H    -27.316500   68.171300  103.541000
  H    -32.220700   63.876500  108.776000

 Total Charge           Charge          ....    0
 Multiplicity           Mult            ....    1
 Number of Electrons    NEL             ....  134
 Basis Dimension        Dim             ....  322

ORBITAL ENERGIES
----------------

  NO   OCC          E(Eh)            E(eV)
   0   2.0000     -88.970466     -2421.0095
   1   2.0000     -88.963706     -2420.8255
   2   2.0000     -10.323750      -280.9235
   3   2.0000     -10.321967      -280.8750
   4   2.0000     -10.311002      -280.5766
   5   2.0000     -10.309029      -280.5229
   6   2.0000     -10.306311      -280.4490
   7   2.0000     -10.301553      -280.3195
   8   2.0000     -10.298119      -280.2261
   9   2.0000     -10.296600      -280.1847
  10   2.0000     -10.291838      -280.0552
  11   2.0000     -10.288314      -279.9592
  12   2.0000     -10.288294      -279.9587
  13   2.0000     -10.283943      -279.8403
  14   2.0000     -10.275429      -279.6086
  15   2.0000     -10.268926      -279.4317
  16   2.0000      -8.086083      -220.0335
  17   2.0000      -8.080079      -219.8701
  18   2.0000      -6.044354      -164.4752
  19   2.0000      -6.040327      -164.3657
  20   2.0000      -6.038247      -164.3091
  21   2.0000      -6.037173      -164.2798
  22   2.0000      -6.034312      -164.2020
  23   2.0000      -6.031139      -164.1156
  24   2.0000      -1.013534       -27.5797
  25   2.0000      -0.993590       -27.0370
  26   2.0000      -0.904194       -24.6044
  27   2.0000      -0.901237       -24.5239
  28   2.0000      -0.866190       -23.5702
  29   2.0000      -0.851202       -23.1624
  30   2.0000      -0.846572       -23.0364
  31   2.0000      -0.812402       -22.1066
  32   2.0000      -0.790033       -21.4979
  33   2.0000      -0.775517       -21.1029
  34   2.0000      -0.709638       -19.3102
  35   2.0000      -0.697282       -18.9740
  36   2.0000      -0.687793       -18.7158
  37   2.0000      -0.649335       -17.6693
  38   2.0000      -0.638524       -17.3751
  39   2.0000      -0.617446       -16.8016
  40   2.0000      -0.603476       -16.4214
  41   2.0000      -0.570483       -15.5236
  42   2.0000      -0.546505       -14.8712
  43   2.0000      -0.543958       -14.8019
  44   2.0000      -0.538809       -14.6617
  45   2.0000      -0.533444       -14.5157
  46   2.0000      -0.512243       -13.9388
  47   2.0000      -0.510266       -13.8850
  48   2.0000      -0.496625       -13.5138
  49   2.0000      -0.492182       -13.3930
  50   2.0000      -0.487258       -13.2590
  51   2.0000      -0.483047       -13.1444
  52   2.0000      -0.476419       -12.9640
  53   2.0000      -0.471392       -12.8272
  54   2.0000      -0.460461       -12.5298
  55   2.0000      -0.454314       -12.3625
  56   2.0000      -0.446967       -12.1626
  57   2.0000      -0.440077       -11.9751
  58   2.0000      -0.424462       -11.5502
  59   2.0000      -0.422720       -11.5028
  60   2.0000      -0.419648       -11.4192
  61   2.0000      -0.412296       -11.2192
  62   2.0000      -0.408340       -11.1115
  63   2.0000      -0.338248        -9.2042
  64   2.0000      -0.332268        -9.0415
  65   2.0000      -0.326992        -8.8979
  66   2.0000      -0.302398        -8.2287
  67   0.0000       0.042128         1.1464
  68   0.0000       0.064084         1.7438
  69   0.0000       0.114901         3.1266
  70   0.0000       0.124872         3.3979
  71   0.0000       0.138163         3.7596

MULLIKEN ATOMIC CHARGES
-----------------------
   0 S :    0.155929
   1 C :   -0.106085
   2 C :   -0.077651
   3 C :    0.056713
   4 C :   -0.186024
   5 H :    0.001785
   6 C :    0.033856
   7 H :    0.022635
   8 H :    0.025095
   9 C :   -0.049300
  10 H :    0.016581
  11 H :    0.022482
  12 C :   -0.010964
  13 H :    0.014506
  14 H :    0.003493
  15 H :    0.038639
  16 S :    0.130399
  17 C :   -0.114078
  18 C :   -0.077697
  19 C :    0.021512
  20 C :   -0.211418
  21 H :    0.029916
  22 C :    0.060196
  23 H :    0.046580
  24 H :    0.036389
  25 C :   -0.092433
  26 H :    0.027602
  27 H :    0.024127
  28 C :   -0.044120
  29 H :    0.042904
  30 H :    0.019439
  31 H :    0.024982
  32 H :    0.033521
  33 H :    0.080491
Sum of atomic charges:   -0.0000000

LOEWDIN ATOMIC CHARGES
----------------------
   0 S :    0.463085
   1 C :   -0.213429
   2 C :   -0.062466
   3 C :   -0.056417
   4 C :   -0.215293
   5 H :    0.030655
   6 C :   -0.035417
   7 H :    0.033741
   8 H :    0.031784
   9 C :   -0.037519
  10 H :    0.018556
  11 H :    0.025679
  12 C :   -0.065652
  13 H :    0.019341
  14 H :    0.018723
  15 H :    0.031007
  16 S :    0.435234
  17 C :   -0.227858
  18 C :   -0.094622
  19 C :   -0.053339
  20 C :   -0.206746
  21 H :    0.037144
  22 C :   -0.029533
  23 H :    0.035373
  24 H :    0.036606
  25 C :   -0.041640
  26 H :    0.025780
  27 H :    0.019273
  28 C :   -0.068851
  29 H :    0.024573
  30 H :    0.018690
  31 H :    0.029198
  32 H :    0.025323
  33 H :    0.049018

  Mayer bond orders larger than 0.100000
B(  0-S ,  1-C ) :   1.1561 B(  0-S ,  4-C ) :   1.1938 B(  1-C ,  2-C ) :   1.5911
B(  1-C , 32-H ) :   0.9679 B(  2-C ,  3-C ) :   1.2595 B(  2-C ,  6-C ) :   1.0112
B(  3-C ,  4-C ) :   1.5527 B(  3-C ,  5-H ) :   1.0035 B(  4-C , 20-C ) :   1.0129
B(  6-C ,  7-H ) :   0.9421 B(  6-C ,  8-H ) :   0.9466 B(  6-C ,  9-C ) :   1.0721
B(  9-C , 10-H ) :   0.9563 B(  9-C , 11-H ) :   0.9565 B(  9-C , 12-C ) :   1.0668
B( 12-C , 13-H ) :   0.9716 B( 12-C , 14-H ) :   0.9718 B( 12-C , 15-H ) :   0.9759
B( 16-S , 17-C ) :   1.1820 B( 16-S , 20-C ) :   1.1592 B( 17-C , 18-C ) :   1.6191
B( 17-C , 33-H ) :   0.9468 B( 18-C , 19-C ) :   1.2546 B( 18-C , 21-H ) :   0.9754
B( 19-C , 20-C ) :   1.5776 B( 19-C , 22-C ) :   1.0208 B( 22-C , 23-H ) :   0.9464
B( 22-C , 24-H ) :   0.9264 B( 22-C , 25-C ) :   1.0815 B( 25-C , 26-H ) :   0.9557
B( 25-C , 27-H ) :   0.9567 B( 25-C , 28-C ) :   1.0779 B( 28-C , 29-H ) :   0.9742
B( 28-C , 30-H ) :   0.9742 B( 28-C , 31-H ) :   0.9709

Dispersion correction           -0.014360408
FINAL SINGLE POINT ENERGY     -1339.866463187224

DIPOLE MOMENT
-------------
                                X             Y             Z
Electronic contribution:    -17.96629      13.28628       8.97075
Nuclear contribution   :     18.29882     -13.54754      -9.01397
                        -----------------------------------------
Total Dipole Moment    :      0.33252      -0.26126      -0.04322
                        -----------------------------------------
Magnitude (a.u.)       :      0.42508
Magnitude (Debye)      :      1.08048

Rotational constants in cm-1:     0.020555     0.007694     0.006536
Rotational constants in MHz :   616.230229   230.664013   195.953366

                             ****ORCA TERMINATED NORMALLY****
TOTAL RUN TIME: 0 days 0 hours 0 minutes 26 seconds 837 msec
