                         Program Version 4.2.1 -  RELEASE  -
|  1> ! wB97X-D3 SP def2-SVP
|  2> %pal
|  3> nprocs 16
|  4> end
|  5>
|  6> * xyz 0 1
|  7> S 	 47.0198 	 7.23678 	 88.977
|  8> C 	 48.2759 	 8.31671 	 89.4583
|  9> C 	 49.5052 	 7.64289 	 89.5346
| 10> C 	 49.3351 	 6.23537 	 89.3765
| 11> C 	 48.0485 	 5.80598 	 89.1885
| 12> H 	 50.1381 	 5.49289 	 89.3375
| 13> C 	 50.8082 	 8.35892 	 89.7736
| 14> H 	 51.1325 	 8.38083 	 90.8017
| 15> H 	 50.6677 	 9.45489 	 89.4485
| 16> C 	 52.1066 	 7.83627 	 89.2141
| 17> H 	 53.018 	 8.3937 	 89.5336
| 18> H 	 52.3503 	 6.84931 	 89.7108
| 19> C 	 52.0664 	 7.83775 	 87.617
| 20> H 	 51.2269 	 7.21921 	 87.2538
| 21> H 	 51.8037 	 8.79371 	 87.211
| 22> H 	 52.9404 	 7.56323 	 87.0694
| 23> S 	 48.2968 	 3.31927 	 90.1126
| 24> C 	 47.2163 	 2.04245 	 89.6002
| 25> C 	 46.4518 	 2.39524 	 88.5506
| 26> C 	 46.4744 	 3.83321 	 88.4718
| 27> C 	 47.5366 	 4.47198 	 89.1316
| 28> H 	 45.8441 	 1.63496 	 88.0909
| 29> C 	 45.6117 	 4.58874 	 87.528
| 30> H 	 45.1634 	 5.46523 	 87.9938
| 31> H 	 44.7613 	 3.89201 	 87.342
| 32> C 	 46.3739 	 4.88436 	 86.2
| 33> H 	 46.5286 	 3.89997 	 85.766
| 34> H 	 47.3296 	 5.35512 	 86.3779
| 35> C 	 45.5353 	 5.6815 	 85.1998
| 36> H 	 44.642 	 5.19092 	 84.8969
| 37> H 	 46.1212 	 5.8161 	 84.2993
| 38> H 	 45.2564 	 6.66943 	 85.6164
| 39> H 	 48.0476 	 9.39153 	 89.5419
| 40> H 	 47.3012 	 1.05086 	 89.9656
| 41> *
| 42>
| 43>                          ****END OF INPUT****

CARTESIAN COORDINATES (ANGSTROEM)
---------------------------------
  S     47.019800    7.236780   88.977000
  C     48.275900    8.316710   89.458300
  C     49.505200    7.642890   89.534600
  C     49.335100    6.235370   89.376500
  C     48.048500    5.805980   89.188500
  H     50.138100    5.492890   89.337500
  C     50.808200    8.358920   89.773600
  H     51.132500    8.380830   90.801700
  H     50.667700    9.454890   89.448500
  C     52.106600    7.836270   89.214100
  H     53.018000    8.393700   89.533600
  H     52.350300    6.849310   89.710800
  C     52.066400    7.837750   87.617000
  H     51.226900    7.219210   87.253800
  H     51.803700    8.793710   87.211000
  H     52.940400    7.563230   87.069400
  S     48.296800    3.319270   90.112600
  C     47.216300    2.042450   89.600200
  C     46.451800    2.395240   88.550600
  C     46.474400    3.833210   88.471800
  C     47.536600    4.471980   89.131600
  H     45.844100    1.634960   88.090900
  C     45.611700    4.588740   87.528000
  H     45.163400    5.465230   87.993800
  H     44.761300    3.892010   87.342000
  C     46.373900    4.884360   86.200000
  H     46.528600    3.899970   85.766000
  H     47.329600    5.355120   86.377900
  C     45.535300    5.681500   85.199800
  H     44.642000    5.190920   84.896900
  H     46.121200    5.816100   84.299300
  H     45.256400    6.669430   85.616400
  H     48.047600    9.391530   89.541900
  H     47.301200    1.050860   89.965600

 Total Charge           Charge          ....    0
 Multiplicity           Mult            ....    1
 Number of Electrons    NEL             ....  134
 Basis Dimension        Dim             ....  322

ORBITAL ENERGIES
----------------

  NO   OCC          E(Eh)            E(eV)
   0   2.0000     -88.965379     -2420.8710
   1   2.0000     -88.962101     -2420.7818
   2   2.0000     -10.332662      -281.1660
   3   2.0000     -10.321569      -280.8642
   4   2.0000     -10.317903      -280.7644
   5   2.0000     -10.310960      -280.5755
   6   2.0000     -10.308049      -280.4963
   7   2.0000     -10.302231      -280.3380
   8   2.0000     -10.299164      -280.2545
   9   2.0000     -10.296350      -280.1779
  10   2.0000     -10.295636      -280.1585
  11   2.0000     -10.294929      -280.1393
  12   2.0000     -10.285378      -279.8794
  13   2.0000     -10.281026      -279.7609
  14   2.0000     -10.273666      -279.5607
  15   2.0000     -10.269750      -279.4541
  16   2.0000      -8.079961      -219.8669
  17   2.0000      -8.078084      -219.8159
  18   2.0000      -6.038509      -164.3162
  19   2.0000      -6.036599      -164.2642
  20   2.0000      -6.034484      -164.2067
  21   2.0000      -6.032357      -164.1488
  22   2.0000      -6.030707      -164.1039
  23   2.0000      -6.028824      -164.0526
  24   2.0000      -1.015672       -27.6378
  25   2.0000      -0.990168       -26.9438
  26   2.0000      -0.911436       -24.8014
  27   2.0000      -0.906710       -24.6728
  28   2.0000      -0.881032       -23.9741
  29   2.0000      -0.848117       -23.0784
  30   2.0000      -0.840578       -22.8733
  31   2.0000      -0.821535       -22.3551
  32   2.0000      -0.783636       -21.3238
  33   2.0000      -0.765939       -20.8423
  34   2.0000      -0.714349       -19.4384
  35   2.0000      -0.697688       -18.9850
  36   2.0000      -0.688753       -18.7419
  37   2.0000      -0.670280       -18.2393
  38   2.0000      -0.637544       -17.3485
  39   2.0000      -0.624388       -16.9905
  40   2.0000      -0.593649       -16.1540
  41   2.0000      -0.571369       -15.5477
  42   2.0000      -0.563962       -15.3462
  43   2.0000      -0.553931       -15.0732
  44   2.0000      -0.534495       -14.5443
  45   2.0000      -0.526904       -14.3378
  46   2.0000      -0.519728       -14.1425
  47   2.0000      -0.513986       -13.9863
  48   2.0000      -0.509115       -13.8537
  49   2.0000      -0.494743       -13.4626
  50   2.0000      -0.489971       -13.3328
  51   2.0000      -0.475335       -12.9345
  52   2.0000      -0.470331       -12.7984
  53   2.0000      -0.468151       -12.7390
  54   2.0000      -0.459578       -12.5057
  55   2.0000      -0.450083       -12.2474
  56   2.0000      -0.445492       -12.1225
  57   2.0000      -0.432650       -11.7730
  58   2.0000      -0.431501       -11.7417
  59   2.0000      -0.428382       -11.6569
  60   2.0000      -0.417820       -11.3694
  61   2.0000      -0.407699       -11.0941
  62   2.0000      -0.407137       -11.0788
  63   2.0000      -0.364416        -9.9163
  64   2.0000      -0.331563        -9.0223
  65   2.0000      -0.324778        -8.8377
  66   2.0000      -0.280139        -7.6230
  67   0.0000       0.023026         0.6266
  68   0.0000       0.077875         2.1191
  69   0.0000       0.102283         2.7833
  70   0.0000       0.127112         3.4589
  71   0.0000       0.129278         3.5178

MULLIKEN ATOMIC CHARGES
-----------------------
   0 S :    0.093557
   1 C :   -0.139070
   2 C :   -0.046544
   3 C :   -0.002532
   4 C :   -0.124775
   5 H :    0.020408
   6 C :    0.044879
   7 H :    0.041518
   8 H :    0.035760
   9 C :   -0.112140
  10 H :    0.037054
  11 H :    0.034910
  12 C :   -0.041734
  13 H :    0.033974
  14 H :    0.013698
  15 H :    0.029967
  16 S :    0.097858
  17 C :   -0.078334
  18 C :   -0.013082
  19 C :   -0.083038
  20 C :   -0.107530
  21 H :    0.026520
  22 C :    0.025820
  23 H :    0.034331
  24 H :    0.015411
  25 C :   -0.071038
  26 H :    0.019333
  27 H :    0.041451
  28 C :   -0.007970
  29 H :    0.016459
  30 H :    0.028242
  31 H :    0.029047
  32 H :    0.066689
  33 H :    0.040900
Sum of atomic charges:    0.0000000

LOEWDIN ATOMIC CHARGES
----------------------
   0 S :    0.411752
   1 C :   -0.201954
   2 C :   -0.063463
   3 C :   -0.073843
   4 C :   -0.179663
   5 H :    0.031329
   6 C :   -0.043385
   7 H :    0.036443
   8 H :    0.038325
   9 C :   -0.046878
  10 H :    0.031046
  11 H :    0.027692
  12 C :   -0.073373
  13 H :    0.028948
  14 H :    0.021776
  15 H :    0.019717
  16 S :    0.431155
  17 C :   -0.172817
  18 C :   -0.066310
  19 C :   -0.056773
  20 C :   -0.217786
  21 H :    0.037751
  22 C :   -0.045635
  23 H :    0.019001
  24 H :    0.031755
  25 C :   -0.033506
  26 H :    0.024428
  27 H :    0.022475
  28 C :   -0.062294
  29 H :    0.017996
  30 H :    0.025621
  31 H :    0.025892
  32 H :    0.034283
  33 H :    0.020295

  Mayer bond orders larger than 0.100000
B(  0-S ,  1-C ) :   1.1528 B(  0-S ,  4-C ) :   1.1383 B(  1-C ,  2-C ) :   1.5766
B(  1-C ,  4-C ) :   0.1004 B(  1-C , 32-H ) :   0.9699 B(  2-C ,  3-C ) :   1.2463
B(  2-C ,  6-C ) :   1.0226 B(  3-C ,  4-C ) :   1.5601 B(  3-C ,  5-H ) :   0.9875
B(  4-C , 20-C ) :   1.0834 B(  6-C ,  7-H ) :   0.9322 B(  6-C ,  8-H ) :   0.9447
B(  6-C ,  9-C ) :   1.0808 B(  9-C , 10-H ) :   0.9561 B(  9-C , 11-H ) :   0.9481
B(  9-C , 12-C ) :   1.0528 B( 12-C , 13-H ) :   0.9771 B( 12-C , 14-H ) :   0.9741
B( 12-C , 15-H ) :   0.9804 B( 16-S , 17-C ) :   1.1653 B( 16-S , 20-C ) :   1.1434
B( 17-C , 18-C ) :   1.6171 B( 17-C , 33-H ) :   0.9693 B( 18-C , 19-C ) :   1.2350
B( 18-C , 21-H ) :   0.9899 B( 19-C , 20-C ) :   1.5396 B( 19-C , 22-C ) :   1.0700
B( 22-C , 23-H ) :   0.9356 B( 22-C , 24-H ) :   0.9261 B( 22-C , 25-C ) :   1.0495
B( 25-C , 26-H ) :   0.9505 B( 25-C , 27-H ) :   0.9617 B( 25-C , 28-C ) :   1.0899
B( 28-C , 29-H ) :   0.9727 B( 28-C , 30-H ) :   0.9722 B( 28-C , 31-H ) :   0.9733

Dispersion correction           -0.014824246
FINAL SINGLE POINT ENERGY     -1339.871147766350

DIPOLE MOMENT
-------------
                                X             Y             Z
Electronic contribution:     -7.58024      -8.67667      15.28553
Nuclear contribution   :      7.73340       8.62528     -15.52921
                        -----------------------------------------
Total Dipole Moment    :      0.15316      -0.05139      -0.24369
                        -----------------------------------------
Magnitude (a.u.)       :      0.29237
Magnitude (Debye)      :      0.74315

Rotational constants in cm-1:     0.018917     0.009136     0.007495
Rotational constants in MHz :   567.120169   273.889884   224.698226

                             ****ORCA TERMINATED NORMALLY****
TOTAL RUN TIME: 0 days 0 hours 0 minutes 28 seconds 906 msec
