                         Program Version 4.2.1 -  RELEASE  -
|  1> ! wB97X-D3 SP def2-SVP
|  2> %pal
|  3> nprocs 16
|  4> end
|  5>
|  6> * xyz 0 1
|  7> S 	 7.68516 	 1.8668 	 88.0875
|  8> C 	 8.46787 	 3.395 	 88.4279
|  9> C 	 9.04241 	 3.92126 	 87.2587
| 10> C 	 8.8511 	 3.08695 	 86.1373
| 11> C 	 8.11211 	 1.98031 	 86.3936
| 12> H 	 9.25315 	 3.16037 	 85.1698
| 13> C 	 9.81366 	 5.25596 	 87.1829
| 14> H 	 9.54407 	 5.8431 	 88.0422
| 15> H 	 9.30475 	 5.76258 	 86.3036
| 16> C 	 11.3642 	 5.02567 	 87.058
| 17> H 	 11.5459 	 4.43801 	 86.1309
| 18> H 	 11.8628 	 5.96729 	 87.1006
| 19> C 	 12.01 	 4.16536 	 88.0855
| 20> H 	 11.9974 	 4.66318 	 89.0624
| 21> H 	 11.6501 	 3.16532 	 88.217
| 22> H 	 13.0888 	 4.02985 	 87.8823
| 23> S 	 6.17099 	 0.844345 	 84.8392
| 24> C 	 6.66139 	 -0.346101 	 83.6731
| 25> C 	 8.0285 	 -0.626181 	 83.7528
| 26> C 	 8.72442 	 0.171152 	 84.6889
| 27> C 	 7.84446 	 0.950869 	 85.4107
| 28> H 	 8.37402 	 -1.39646 	 83.0828
| 29> C 	 10.1322 	 0.021777 	 84.9751
| 30> H 	 10.2714 	 -0.995871 	 85.245
| 31> H 	 10.4535 	 0.444892 	 85.8777
| 32> C 	 11.1833 	 0.310001 	 83.8425
| 33> H 	 11.0308 	 1.27597 	 83.3224
| 34> H 	 10.8768 	 -0.391317 	 83.0377
| 35> C 	 12.6882 	 -0.0234041 	 84.1822
| 36> H 	 13.0356 	 0.592556 	 84.9443
| 37> H 	 13.2924 	 -0.0710591 	 83.251
| 38> H 	 12.6737 	 -0.986551 	 84.7332
| 39> H 	 8.55435 	 3.92982 	 89.3977
| 40> H 	 6.07197 	 -0.724227 	 82.8426
| 41> *
| 42>
| 43>                          ****END OF INPUT****

CARTESIAN COORDINATES (ANGSTROEM)
---------------------------------
  S      7.685160    1.866800   88.087500
  C      8.467870    3.395000   88.427900
  C      9.042410    3.921260   87.258700
  C      8.851100    3.086950   86.137300
  C      8.112110    1.980310   86.393600
  H      9.253150    3.160370   85.169800
  C      9.813660    5.255960   87.182900
  H      9.544070    5.843100   88.042200
  H      9.304750    5.762580   86.303600
  C     11.364200    5.025670   87.058000
  H     11.545900    4.438010   86.130900
  H     11.862800    5.967290   87.100600
  C     12.010000    4.165360   88.085500
  H     11.997400    4.663180   89.062400
  H     11.650100    3.165320   88.217000
  H     13.088800    4.029850   87.882300
  S      6.170990    0.844345   84.839200
  C      6.661390   -0.346101   83.673100
  C      8.028500   -0.626181   83.752800
  C      8.724420    0.171152   84.688900
  C      7.844460    0.950869   85.410700
  H      8.374020   -1.396460   83.082800
  C     10.132200    0.021777   84.975100
  H     10.271400   -0.995871   85.245000
  H     10.453500    0.444892   85.877700
  C     11.183300    0.310001   83.842500
  H     11.030800    1.275970   83.322400
  H     10.876800   -0.391317   83.037700
  C     12.688200   -0.023404   84.182200
  H     13.035600    0.592556   84.944300
  H     13.292400   -0.071059   83.251000
  H     12.673700   -0.986551   84.733200
  H      8.554350    3.929820   89.397700
  H      6.071970   -0.724227   82.842600

 Total Charge           Charge          ....    0
 Multiplicity           Mult            ....    1
 Number of Electrons    NEL             ....  134
 Basis Dimension        Dim             ....  322

ORBITAL ENERGIES
----------------

  NO   OCC          E(Eh)            E(eV)
   0   2.0000     -88.966324     -2420.8967
   1   2.0000     -88.966201     -2420.8934
   2   2.0000     -10.322957      -280.9019
   3   2.0000     -10.320551      -280.8365
   4   2.0000     -10.316496      -280.7261
   5   2.0000     -10.315932      -280.7108
   6   2.0000     -10.301227      -280.3106
   7   2.0000     -10.299389      -280.2606
   8   2.0000     -10.297856      -280.2189
   9   2.0000     -10.295072      -280.1431
  10   2.0000     -10.292070      -280.0615
  11   2.0000     -10.288275      -279.9582
  12   2.0000     -10.284534      -279.8564
  13   2.0000     -10.283359      -279.8244
  14   2.0000     -10.281963      -279.7864
  15   2.0000     -10.272119      -279.5186
  16   2.0000      -8.080966      -219.8943
  17   2.0000      -8.080649      -219.8856
  18   2.0000      -6.039291      -164.3375
  19   2.0000      -6.039143      -164.3334
  20   2.0000      -6.035565      -164.2361
  21   2.0000      -6.035188      -164.2258
  22   2.0000      -6.031846      -164.1349
  23   2.0000      -6.031463      -164.1244
  24   2.0000      -1.008286       -27.4369
  25   2.0000      -0.984152       -26.7801
  26   2.0000      -0.910666       -24.7805
  27   2.0000      -0.908300       -24.7161
  28   2.0000      -0.868638       -23.6368
  29   2.0000      -0.853636       -23.2286
  30   2.0000      -0.849183       -23.1074
  31   2.0000      -0.814011       -22.1504
  32   2.0000      -0.786204       -21.3937
  33   2.0000      -0.770832       -20.9754
  34   2.0000      -0.709444       -19.3050
  35   2.0000      -0.701231       -19.0815
  36   2.0000      -0.691651       -18.8208
  37   2.0000      -0.659470       -17.9451
  38   2.0000      -0.641818       -17.4648
  39   2.0000      -0.621320       -16.9070
  40   2.0000      -0.602815       -16.4034
  41   2.0000      -0.568610       -15.4727
  42   2.0000      -0.556093       -15.1321
  43   2.0000      -0.547575       -14.9003
  44   2.0000      -0.541848       -14.7444
  45   2.0000      -0.534835       -14.5536
  46   2.0000      -0.515009       -14.0141
  47   2.0000      -0.513270       -13.9668
  48   2.0000      -0.502688       -13.6788
  49   2.0000      -0.495782       -13.4909
  50   2.0000      -0.487459       -13.2644
  51   2.0000      -0.483380       -13.1534
  52   2.0000      -0.469374       -12.7723
  53   2.0000      -0.463044       -12.6001
  54   2.0000      -0.457202       -12.4411
  55   2.0000      -0.452603       -12.3160
  56   2.0000      -0.445208       -12.1147
  57   2.0000      -0.441813       -12.0223
  58   2.0000      -0.437270       -11.8987
  59   2.0000      -0.429679       -11.6922
  60   2.0000      -0.421832       -11.4786
  61   2.0000      -0.409778       -11.1506
  62   2.0000      -0.406816       -11.0700
  63   2.0000      -0.339183        -9.2296
  64   2.0000      -0.330479        -8.9928
  65   2.0000      -0.327837        -8.9209
  66   2.0000      -0.297696        -8.1007
  67   0.0000       0.040714         1.1079
  68   0.0000       0.060694         1.6516
  69   0.0000       0.115842         3.1522
  70   0.0000       0.122654         3.3376
  71   0.0000       0.125418         3.4128

MULLIKEN ATOMIC CHARGES
-----------------------
   0 S :    0.117959
   1 C :   -0.129359
   2 C :   -0.117547
   3 C :    0.061071
   4 C :   -0.174844
   5 H :   -0.008783
   6 C :    0.069331
   7 H :    0.012803
   8 H :    0.048935
   9 C :   -0.044857
  10 H :    0.034098
  11 H :    0.033511
  12 C :   -0.067274
  13 H :    0.018568
  14 H :    0.039085
  15 H :    0.031012
  16 S :    0.118307
  17 C :   -0.096812
  18 C :   -0.054784
  19 C :    0.039387
  20 C :   -0.189984
  21 H :    0.017600
  22 C :    0.096651
  23 H :    0.012936
  24 H :    0.001001
  25 C :   -0.120909
  26 H :    0.033612
  27 H :    0.021847
  28 C :   -0.024008
  29 H :    0.021889
  30 H :    0.059487
  31 H :    0.021961
  32 H :    0.058699
  33 H :    0.059412
Sum of atomic charges:   -0.0000000

LOEWDIN ATOMIC CHARGES
----------------------
   0 S :    0.405247
   1 C :   -0.210872
   2 C :   -0.063688
   3 C :   -0.057702
   4 C :   -0.200620
   5 H :    0.026281
   6 C :   -0.031430
   7 H :    0.022428
   8 H :    0.042128
   9 C :   -0.039399
  10 H :    0.030202
  11 H :    0.024220
  12 C :   -0.070048
  13 H :    0.021423
  14 H :    0.021924
  15 H :    0.031003
  16 S :    0.408049
  17 C :   -0.190669
  18 C :   -0.069405
  19 C :   -0.052421
  20 C :   -0.190873
  21 H :    0.030627
  22 C :   -0.034928
  23 H :    0.035177
  24 H :    0.022041
  25 C :   -0.041812
  26 H :    0.022038
  27 H :    0.022223
  28 C :   -0.063075
  29 H :    0.015536
  30 H :    0.037298
  31 H :    0.030368
  32 H :    0.037278
  33 H :    0.031449

  Mayer bond orders larger than 0.100000
B(  0-S ,  1-C ) :   1.1377 B(  0-S ,  4-C ) :   1.1497 B(  1-C ,  2-C ) :   1.6035
B(  1-C , 32-H ) :   0.9633 B(  2-C ,  3-C ) :   1.2298 B(  2-C ,  6-C ) :   1.0120
B(  3-C ,  4-C ) :   1.5925 B(  3-C ,  5-H ) :   1.0080 B(  4-C , 20-C ) :   1.0113
B(  6-C ,  7-H ) :   0.9425 B(  6-C ,  8-H ) :   0.9485 B(  6-C ,  9-C ) :   1.0539
B(  9-C , 10-H ) :   0.9584 B(  9-C , 11-H ) :   0.9571 B(  9-C , 12-C ) :   1.0870
B( 12-C , 13-H ) :   0.9726 B( 12-C , 14-H ) :   0.9710 B( 12-C , 15-H ) :   0.9699
B( 16-S , 17-C ) :   1.1580 B( 16-S , 20-C ) :   1.1478 B( 17-C , 18-C ) :   1.6204
B( 17-C , 20-C ) :   0.1007 B( 17-C , 33-H ) :   0.9638 B( 18-C , 19-C ) :   1.2128
B( 18-C , 21-H ) :   0.9928 B( 19-C , 20-C ) :   1.5910 B( 19-C , 22-C ) :   1.0676
B( 22-C , 23-H ) :   0.9181 B( 22-C , 24-H ) :   0.9260 B( 22-C , 25-C ) :   1.0364
B( 25-C , 26-H ) :   0.9610 B( 25-C , 27-H ) :   0.9581 B( 25-C , 28-C ) :   1.0710
B( 28-C , 29-H ) :   0.9771 B( 28-C , 30-H ) :   0.9751 B( 28-C , 31-H ) :   0.9703

Dispersion correction           -0.014947497
FINAL SINGLE POINT ENERGY     -1339.871729484275

DIPOLE MOMENT
-------------
                                X             Y             Z
Electronic contribution:    -29.66181      -5.68023       3.18543
Nuclear contribution   :     30.33967       5.74514      -3.45006
                        -----------------------------------------
Total Dipole Moment    :      0.67787       0.06491      -0.26463
                        -----------------------------------------
Magnitude (a.u.)       :      0.73058
Magnitude (Debye)      :      1.85698

Rotational constants in cm-1:     0.016600     0.010193     0.007134
Rotational constants in MHz :   497.657639   305.564047   213.870789

                             ****ORCA TERMINATED NORMALLY****
TOTAL RUN TIME: 0 days 0 hours 0 minutes 34 seconds 193 msec
