                         Program Version 4.2.1 -  RELEASE  -
|  1> ! wB97X-D3 SP def2-SVP
|  2> %pal
|  3> nprocs 16
|  4> end
|  5>
|  6> * xyz 0 1
|  7> S 	 57.3181 	 11.7744 	 58.1367
|  8> C 	 56.1399 	 12.9473 	 58.5453
|  9> C 	 56.7227 	 14.1728 	 58.8682
| 10> C 	 58.1384 	 14.203 	 58.7549
| 11> C 	 58.6516 	 12.9548 	 58.4817
| 12> H 	 58.816 	 15.0615 	 59.0215
| 13> C 	 55.9273 	 15.4623 	 59.1382
| 14> H 	 55.9204 	 15.5382 	 60.1955
| 15> H 	 54.944 	 15.2732 	 58.8268
| 16> C 	 56.4701 	 16.7331 	 58.4938
| 17> H 	 57.3606 	 16.912 	 58.9846
| 18> H 	 56.6296 	 16.576 	 57.4118
| 19> C 	 55.6932 	 17.9657 	 58.566
| 20> H 	 56.0337 	 18.8256 	 57.902
| 21> H 	 54.6503 	 17.8112 	 58.2341
| 22> H 	 55.6499 	 18.3432 	 59.6338
| 23> S 	 60.6092 	 11.1992 	 59.231
| 24> C 	 62.3302 	 11.5164 	 59.134
| 25> C 	 62.4459 	 12.6391 	 58.324
| 26> C 	 61.2209 	 13.3101 	 57.9068
| 27> C 	 60.0838 	 12.6264 	 58.3581
| 28> H 	 63.386 	 12.8253 	 57.9038
| 29> C 	 61.2768 	 14.5098 	 57.0731
| 30> H 	 62.3759 	 14.7291 	 57.0873
| 31> H 	 60.753 	 15.3667 	 57.5189
| 32> C 	 60.9162 	 14.3684 	 55.6207
| 33> H 	 61.5492 	 13.519 	 55.2879
| 34> H 	 61.3209 	 15.1825 	 55.0926
| 35> C 	 59.4786 	 14.0237 	 55.3952
| 36> H 	 58.8462 	 14.5344 	 56.0774
| 37> H 	 59.3151 	 12.9905 	 55.4914
| 38> H 	 59.0851 	 14.3102 	 54.4551
| 39> H 	 55.0826 	 12.7723 	 58.7175
| 40> H 	 63.1321 	 10.8748 	 59.4816
| 41> *
| 42>
| 43>                          ****END OF INPUT****

CARTESIAN COORDINATES (ANGSTROEM)
---------------------------------
  S     57.318100   11.774400   58.136700
  C     56.139900   12.947300   58.545300
  C     56.722700   14.172800   58.868200
  C     58.138400   14.203000   58.754900
  C     58.651600   12.954800   58.481700
  H     58.816000   15.061500   59.021500
  C     55.927300   15.462300   59.138200
  H     55.920400   15.538200   60.195500
  H     54.944000   15.273200   58.826800
  C     56.470100   16.733100   58.493800
  H     57.360600   16.912000   58.984600
  H     56.629600   16.576000   57.411800
  C     55.693200   17.965700   58.566000
  H     56.033700   18.825600   57.902000
  H     54.650300   17.811200   58.234100
  H     55.649900   18.343200   59.633800
  S     60.609200   11.199200   59.231000
  C     62.330200   11.516400   59.134000
  C     62.445900   12.639100   58.324000
  C     61.220900   13.310100   57.906800
  C     60.083800   12.626400   58.358100
  H     63.386000   12.825300   57.903800
  C     61.276800   14.509800   57.073100
  H     62.375900   14.729100   57.087300
  H     60.753000   15.366700   57.518900
  C     60.916200   14.368400   55.620700
  H     61.549200   13.519000   55.287900
  H     61.320900   15.182500   55.092600
  C     59.478600   14.023700   55.395200
  H     58.846200   14.534400   56.077400
  H     59.315100   12.990500   55.491400
  H     59.085100   14.310200   54.455100
  H     55.082600   12.772300   58.717500
  H     63.132100   10.874800   59.481600

 Total Charge           Charge          ....    0
 Multiplicity           Mult            ....    1
 Number of Electrons    NEL             ....  134
 Basis Dimension        Dim             ....  322

ORBITAL ENERGIES
----------------

  NO   OCC          E(Eh)            E(eV)
   0   2.0000     -88.970411     -2421.0080
   1   2.0000     -88.960653     -2420.7424
   2   2.0000     -10.337233      -281.2904
   3   2.0000     -10.331134      -281.1244
   4   2.0000     -10.321297      -280.8568
   5   2.0000     -10.313659      -280.6489
   6   2.0000     -10.305150      -280.4174
   7   2.0000     -10.302037      -280.3327
   8   2.0000     -10.299026      -280.2507
   9   2.0000     -10.293010      -280.0870
  10   2.0000     -10.286708      -279.9156
  11   2.0000     -10.285403      -279.8800
  12   2.0000     -10.285362      -279.8789
  13   2.0000     -10.279159      -279.7101
  14   2.0000     -10.275338      -279.6062
  15   2.0000     -10.255338      -279.0619
  16   2.0000      -8.084474      -219.9897
  17   2.0000      -8.075475      -219.7448
  18   2.0000      -6.043129      -164.4419
  19   2.0000      -6.039062      -164.3312
  20   2.0000      -6.035121      -164.2240
  21   2.0000      -6.034064      -164.1952
  22   2.0000      -6.029701      -164.0765
  23   2.0000      -6.026373      -163.9860
  24   2.0000      -1.004120       -27.3235
  25   2.0000      -0.983882       -26.7728
  26   2.0000      -0.919510       -25.0211
  27   2.0000      -0.918436       -24.9919
  28   2.0000      -0.871956       -23.7271
  29   2.0000      -0.855208       -23.2714
  30   2.0000      -0.847437       -23.0599
  31   2.0000      -0.819074       -22.2881
  32   2.0000      -0.782867       -21.3029
  33   2.0000      -0.772079       -21.0093
  34   2.0000      -0.712838       -19.3973
  35   2.0000      -0.698358       -19.0033
  36   2.0000      -0.689602       -18.7650
  37   2.0000      -0.663818       -18.0634
  38   2.0000      -0.638838       -17.3837
  39   2.0000      -0.621644       -16.9158
  40   2.0000      -0.597508       -16.2590
  41   2.0000      -0.583427       -15.8759
  42   2.0000      -0.564542       -15.3620
  43   2.0000      -0.557596       -15.1730
  44   2.0000      -0.541316       -14.7299
  45   2.0000      -0.522525       -14.2186
  46   2.0000      -0.517632       -14.0855
  47   2.0000      -0.514484       -13.9998
  48   2.0000      -0.511800       -13.9268
  49   2.0000      -0.501230       -13.6392
  50   2.0000      -0.496421       -13.5083
  51   2.0000      -0.483577       -13.1588
  52   2.0000      -0.478412       -13.0183
  53   2.0000      -0.472557       -12.8589
  54   2.0000      -0.458954       -12.4888
  55   2.0000      -0.451277       -12.2799
  56   2.0000      -0.437925       -11.9165
  57   2.0000      -0.431018       -11.7286
  58   2.0000      -0.427916       -11.6442
  59   2.0000      -0.419776       -11.4227
  60   2.0000      -0.415350       -11.3022
  61   2.0000      -0.414436       -11.2774
  62   2.0000      -0.406581       -11.0636
  63   2.0000      -0.353717        -9.6251
  64   2.0000      -0.332160        -9.0385
  65   2.0000      -0.322627        -8.7791
  66   2.0000      -0.290055        -7.8928
  67   0.0000       0.023713         0.6453
  68   0.0000       0.069632         1.8948
  69   0.0000       0.110534         3.0078
  70   0.0000       0.120300         3.2735
  71   0.0000       0.126160         3.4330

MULLIKEN ATOMIC CHARGES
-----------------------
   0 S :    0.117151
   1 C :   -0.113520
   2 C :   -0.127065
   3 C :   -0.008441
   4 C :   -0.127259
   5 H :    0.048254
   6 C :    0.133152
   7 H :    0.025398
   8 H :   -0.006080
   9 C :   -0.062979
  10 H :    0.012500
  11 H :    0.037909
  12 C :   -0.076261
  13 H :    0.048018
  14 H :    0.025736
  15 H :    0.032543
  16 S :    0.086373
  17 C :   -0.093551
  18 C :   -0.024265
  19 C :   -0.063497
  20 C :   -0.140161
  21 H :    0.004589
  22 C :    0.030730
  23 H :    0.013425
  24 H :    0.030647
  25 C :   -0.033018
  26 H :    0.014097
  27 H :    0.016385
  28 C :    0.029939
  29 H :    0.009963
  30 H :    0.025857
  31 H :    0.011126
  32 H :    0.053359
  33 H :    0.068946
Sum of atomic charges:    0.0000000

LOEWDIN ATOMIC CHARGES
----------------------
   0 S :    0.399803
   1 C :   -0.215590
   2 C :   -0.059811
   3 C :   -0.068151
   4 C :   -0.170893
   5 H :    0.045172
   6 C :   -0.018951
   7 H :    0.028937
   8 H :    0.018425
   9 C :   -0.047595
  10 H :    0.014233
  11 H :    0.032135
  12 C :   -0.072548
  13 H :    0.036739
  14 H :    0.023275
  15 H :    0.027785
  16 S :    0.406277
  17 C :   -0.185743
  18 C :   -0.070015
  19 C :   -0.061136
  20 C :   -0.196773
  21 H :    0.019385
  22 C :   -0.039894
  23 H :    0.037309
  24 H :    0.027704
  25 C :   -0.035553
  26 H :    0.028277
  27 H :    0.017496
  28 C :   -0.057086
  29 H :    0.020733
  30 H :    0.023721
  31 H :    0.022534
  32 H :    0.032728
  33 H :    0.037070

  Mayer bond orders larger than 0.100000
B(  0-S ,  1-C ) :   1.1360 B(  0-S ,  4-C ) :   1.1436 B(  1-C ,  2-C ) :   1.6237
B(  1-C , 32-H ) :   0.9614 B(  2-C ,  3-C ) :   1.2470 B(  2-C ,  6-C ) :   1.0120
B(  3-C ,  4-C ) :   1.5882 B(  3-C ,  5-H ) :   0.9799 B(  4-C , 20-C ) :   1.0279
B(  6-C ,  7-H ) :   0.9243 B(  6-C ,  8-H ) :   0.9394 B(  6-C ,  9-C ) :   1.0764
B(  9-C , 10-H ) :   0.9390 B(  9-C , 11-H ) :   0.9550 B(  9-C , 12-C ) :   1.1085
B( 12-C , 13-H ) :   0.9709 B( 12-C , 14-H ) :   0.9696 B( 12-C , 15-H ) :   0.9702
B( 16-S , 17-C ) :   1.1596 B( 16-S , 20-C ) :   1.1468 B( 17-C , 18-C ) :   1.5857
B( 17-C , 20-C ) :   0.1017 B( 17-C , 33-H ) :   0.9697 B( 18-C , 19-C ) :   1.2692
B( 18-C , 21-H ) :   0.9854 B( 19-C , 20-C ) :   1.5542 B( 19-C , 22-C ) :   1.0554
B( 22-C , 23-H ) :   0.9204 B( 22-C , 24-H ) :   0.9302 B( 22-C , 25-C ) :   1.0894
B( 25-C , 26-H ) :   0.9464 B( 25-C , 27-H ) :   0.9541 B( 25-C , 28-C ) :   1.0799
B( 28-C , 29-H ) :   0.9723 B( 28-C , 30-H ) :   0.9644 B( 28-C , 31-H ) :   0.9648

Dispersion correction           -0.015520666
FINAL SINGLE POINT ENERGY     -1339.862472890134

DIPOLE MOMENT
-------------
                                X             Y             Z
Electronic contribution:      5.72716     -26.12250       9.20158
Nuclear contribution   :     -5.65719      26.74488      -9.33053
                        -----------------------------------------
Total Dipole Moment    :      0.06997       0.62238      -0.12896
                        -----------------------------------------
Magnitude (a.u.)       :      0.63944
Magnitude (Debye)      :      1.62532

Rotational constants in cm-1:     0.020127     0.008931     0.007420
Rotational constants in MHz :   603.398245   267.758541   222.438273

                             ****ORCA TERMINATED NORMALLY****
TOTAL RUN TIME: 0 days 0 hours 0 minutes 30 seconds 934 msec
