                         Program Version 4.2.1 -  RELEASE  -
|  1> ! wB97X-D3 SP def2-SVP
|  2> %pal
|  3> nprocs 16
|  4> end
|  5>
|  6> * xyz 0 1
|  7> S 	 -26.4354 	 59.4545 	 105.981
|  8> C 	 -26.7312 	 61.0658 	 105.466
|  9> C 	 -28.0774 	 61.3279 	 105.34
| 10> C 	 -28.8427 	 60.2627 	 105.746
| 11> C 	 -28.1416 	 59.2167 	 106.208
| 12> H 	 -29.9125 	 60.2437 	 105.56
| 13> C 	 -28.6819 	 62.6969 	 105.159
| 14> H 	 -27.9143 	 63.4183 	 105.317
| 15> H 	 -29.4836 	 62.7884 	 105.808
| 16> C 	 -29.1053 	 63.0539 	 103.747
| 17> H 	 -29.6396 	 62.186 	 103.292
| 18> H 	 -29.824 	 63.8818 	 103.687
| 19> C 	 -27.8905 	 63.5069 	 102.876
| 20> H 	 -27.9979 	 63.6177 	 101.803
| 21> H 	 -27.437 	 64.4442 	 103.203
| 22> H 	 -27.0861 	 62.8335 	 102.946
| 23> S 	 -29.0452 	 56.7166 	 105.255
| 24> C 	 -29.97 	 55.6283 	 106.285
| 25> C 	 -29.9426 	 56.1423 	 107.57
| 26> C 	 -29.1892 	 57.3676 	 107.726
| 27> C 	 -28.7309 	 57.8819 	 106.481
| 28> H 	 -30.4422 	 55.5221 	 108.338
| 29> C 	 -29.1522 	 58.1258 	 109.129
| 30> H 	 -28.3919 	 58.9237 	 109.047
| 31> H 	 -28.7878 	 57.464 	 109.94
| 32> C 	 -30.5126 	 58.8072 	 109.509
| 33> H 	 -31.2228 	 58.0558 	 109.883
| 34> H 	 -30.8762 	 59.341 	 108.612
| 35> C 	 -30.3273 	 59.8668 	 110.656
| 36> H 	 -30.0148 	 59.4285 	 111.59
| 37> H 	 -31.3085 	 60.4276 	 110.905
| 38> H 	 -29.6238 	 60.6306 	 110.387
| 39> H 	 -25.9275 	 61.8077 	 105.381
| 40> H 	 -30.4977 	 54.7334 	 106.032
| 41> *
| 42>
| 43>                          ****END OF INPUT****

CARTESIAN COORDINATES (ANGSTROEM)
---------------------------------
  S    -26.435400   59.454500  105.981000
  C    -26.731200   61.065800  105.466000
  C    -28.077400   61.327900  105.340000
  C    -28.842700   60.262700  105.746000
  C    -28.141600   59.216700  106.208000
  H    -29.912500   60.243700  105.560000
  C    -28.681900   62.696900  105.159000
  H    -27.914300   63.418300  105.317000
  H    -29.483600   62.788400  105.808000
  C    -29.105300   63.053900  103.747000
  H    -29.639600   62.186000  103.292000
  H    -29.824000   63.881800  103.687000
  C    -27.890500   63.506900  102.876000
  H    -27.997900   63.617700  101.803000
  H    -27.437000   64.444200  103.203000
  H    -27.086100   62.833500  102.946000
  S    -29.045200   56.716600  105.255000
  C    -29.970000   55.628300  106.285000
  C    -29.942600   56.142300  107.570000
  C    -29.189200   57.367600  107.726000
  C    -28.730900   57.881900  106.481000
  H    -30.442200   55.522100  108.338000
  C    -29.152200   58.125800  109.129000
  H    -28.391900   58.923700  109.047000
  H    -28.787800   57.464000  109.940000
  C    -30.512600   58.807200  109.509000
  H    -31.222800   58.055800  109.883000
  H    -30.876200   59.341000  108.612000
  C    -30.327300   59.866800  110.656000
  H    -30.014800   59.428500  111.590000
  H    -31.308500   60.427600  110.905000
  H    -29.623800   60.630600  110.387000
  H    -25.927500   61.807700  105.381000
  H    -30.497700   54.733400  106.032000

 Total Charge           Charge          ....    0
 Multiplicity           Mult            ....    1
 Number of Electrons    NEL             ....  134
 Basis Dimension        Dim             ....  322

ORBITAL ENERGIES
----------------

  NO   OCC          E(Eh)            E(eV)
   0   2.0000     -88.968542     -2420.9571
   1   2.0000     -88.964624     -2420.8505
   2   2.0000     -10.329242      -281.0730
   3   2.0000     -10.326318      -280.9934
   4   2.0000     -10.316918      -280.7376
   5   2.0000     -10.315267      -280.6927
   6   2.0000     -10.310500      -280.5630
   7   2.0000     -10.298675      -280.2412
   8   2.0000     -10.295834      -280.1639
   9   2.0000     -10.293220      -280.0928
  10   2.0000     -10.292010      -280.0598
  11   2.0000     -10.291260      -280.0394
  12   2.0000     -10.287060      -279.9251
  13   2.0000     -10.283578      -279.8304
  14   2.0000     -10.280924      -279.7582
  15   2.0000     -10.273183      -279.5475
  16   2.0000      -8.084203      -219.9823
  17   2.0000      -8.079401      -219.8517
  18   2.0000      -6.042509      -164.4250
  19   2.0000      -6.038610      -164.3189
  20   2.0000      -6.037935      -164.3006
  21   2.0000      -6.035081      -164.2229
  22   2.0000      -6.033651      -164.1840
  23   2.0000      -6.030361      -164.0945
  24   2.0000      -1.016265       -27.6540
  25   2.0000      -0.986696       -26.8494
  26   2.0000      -0.917597       -24.9691
  27   2.0000      -0.892224       -24.2786
  28   2.0000      -0.868173       -23.6242
  29   2.0000      -0.856349       -23.3025
  30   2.0000      -0.836954       -22.7747
  31   2.0000      -0.815967       -22.2036
  32   2.0000      -0.785738       -21.3810
  33   2.0000      -0.766287       -20.8517
  34   2.0000      -0.708190       -19.2708
  35   2.0000      -0.698885       -19.0176
  36   2.0000      -0.690862       -18.7993
  37   2.0000      -0.651643       -17.7321
  38   2.0000      -0.646319       -17.5872
  39   2.0000      -0.630135       -17.1469
  40   2.0000      -0.587052       -15.9745
  41   2.0000      -0.573782       -15.6134
  42   2.0000      -0.562389       -15.3034
  43   2.0000      -0.561520       -15.2797
  44   2.0000      -0.541765       -14.7422
  45   2.0000      -0.518206       -14.1011
  46   2.0000      -0.511573       -13.9206
  47   2.0000      -0.509096       -13.8532
  48   2.0000      -0.502834       -13.6828
  49   2.0000      -0.491666       -13.3789
  50   2.0000      -0.485294       -13.2055
  51   2.0000      -0.477483       -12.9930
  52   2.0000      -0.471411       -12.8277
  53   2.0000      -0.465297       -12.6614
  54   2.0000      -0.460519       -12.5313
  55   2.0000      -0.450349       -12.2546
  56   2.0000      -0.443517       -12.0687
  57   2.0000      -0.436486       -11.8774
  58   2.0000      -0.428726       -11.6662
  59   2.0000      -0.426186       -11.5971
  60   2.0000      -0.422934       -11.5086
  61   2.0000      -0.416594       -11.3361
  62   2.0000      -0.412916       -11.2360
  63   2.0000      -0.343683        -9.3521
  64   2.0000      -0.329331        -8.9616
  65   2.0000      -0.320110        -8.7106
  66   2.0000      -0.313561        -8.5324
  67   0.0000       0.046154         1.2559
  68   0.0000       0.051976         1.4143
  69   0.0000       0.119763         3.2589
  70   0.0000       0.124079         3.3764
  71   0.0000       0.128093         3.4856

MULLIKEN ATOMIC CHARGES
-----------------------
   0 S :    0.127844
   1 C :   -0.131974
   2 C :   -0.076440
   3 C :    0.024625
   4 C :   -0.153985
   5 H :    0.020147
   6 C :    0.120267
   7 H :    0.005414
   8 H :    0.013073
   9 C :   -0.068275
  10 H :    0.029941
  11 H :    0.033414
  12 C :   -0.057216
  13 H :    0.032454
  14 H :    0.021191
  15 H :    0.008671
  16 S :    0.116579
  17 C :   -0.099818
  18 C :   -0.046287
  19 C :   -0.033248
  20 C :   -0.165767
  21 H :    0.031958
  22 C :    0.043260
  23 H :    0.024799
  24 H :    0.037205
  25 C :   -0.070712
  26 H :    0.038713
  27 H :    0.040538
  28 C :   -0.076985
  29 H :    0.028102
  30 H :    0.041294
  31 H :    0.031688
  32 H :    0.055778
  33 H :    0.053753
Sum of atomic charges:    0.0000000

LOEWDIN ATOMIC CHARGES
----------------------
   0 S :    0.430923
   1 C :   -0.197954
   2 C :   -0.069518
   3 C :   -0.055461
   4 C :   -0.202070
   5 H :    0.037075
   6 C :   -0.017427
   7 H :    0.028359
   8 H :    0.023472
   9 C :   -0.036853
  10 H :    0.024905
  11 H :    0.024455
  12 C :   -0.071829
  13 H :    0.027422
  14 H :    0.023839
  15 H :    0.015299
  16 S :    0.417247
  17 C :   -0.188419
  18 C :   -0.078859
  19 C :   -0.055825
  20 C :   -0.217711
  21 H :    0.036002
  22 C :   -0.033138
  23 H :    0.027609
  24 H :    0.031758
  25 C :   -0.038537
  26 H :    0.024754
  27 H :    0.028274
  28 C :   -0.072281
  29 H :    0.019597
  30 H :    0.034647
  31 H :    0.019866
  32 H :    0.029535
  33 H :    0.030844

  Mayer bond orders larger than 0.100000
B(  0-S ,  1-C ) :   1.1675 B(  0-S ,  4-C ) :   1.1585 B(  1-C ,  2-C ) :   1.5822
B(  1-C , 32-H ) :   0.9604 B(  2-C ,  3-C ) :   1.2845 B(  2-C ,  6-C ) :   1.0222
B(  3-C ,  4-C ) :   1.5788 B(  3-C ,  5-H ) :   0.9926 B(  4-C , 20-C ) :   0.9938
B(  6-C ,  7-H ) :   0.9429 B(  6-C ,  8-H ) :   0.9420 B(  6-C ,  9-C ) :   1.0586
B(  9-C , 10-H ) :   0.9580 B(  9-C , 11-H ) :   0.9590 B(  9-C , 12-C ) :   1.0664
B( 12-C , 13-H ) :   0.9756 B( 12-C , 14-H ) :   0.9724 B( 12-C , 15-H ) :   0.9772
B( 16-S , 17-C ) :   1.1548 B( 16-S , 20-C ) :   1.1654 B( 17-C , 18-C ) :   1.6081
B( 17-C , 33-H ) :   0.9717 B( 18-C , 19-C ) :   1.2539 B( 18-C , 21-H ) :   0.9842
B( 19-C , 20-C ) :   1.5698 B( 19-C , 22-C ) :   1.0435 B( 22-C , 23-H ) :   0.9389
B( 22-C , 24-H ) :   0.9423 B( 22-C , 25-C ) :   1.0539 B( 25-C , 26-H ) :   0.9570
B( 25-C , 27-H ) :   0.9577 B( 25-C , 28-C ) :   1.0771 B( 28-C , 29-H ) :   0.9769
B( 28-C , 30-H ) :   0.9756 B( 28-C , 31-H ) :   0.9774

Dispersion correction           -0.014178511
FINAL SINGLE POINT ENERGY     -1339.873578383750

DIPOLE MOMENT
-------------
                                X             Y             Z
Electronic contribution:      9.57160     -20.54351      -7.02693
Nuclear contribution   :     -9.88958      20.92130       7.24491
                        -----------------------------------------
Total Dipole Moment    :     -0.31799       0.37779       0.21799
                        -----------------------------------------
Magnitude (a.u.)       :      0.53978
Magnitude (Debye)      :      1.37201

Rotational constants in cm-1:     0.018462     0.008155     0.006827
Rotational constants in MHz :   553.474725   244.491675   204.671018

                             ****ORCA TERMINATED NORMALLY****
TOTAL RUN TIME: 0 days 0 hours 0 minutes 29 seconds 743 msec
