                         Program Version 4.2.1 -  RELEASE  -
|  1> ! wB97X-D3 SP def2-SVP
|  2> %pal
|  3> nprocs 16
|  4> end
|  5>
|  6> * xyz 0 1
|  7> S 	 -35.8446 	 52.1114 	 100.851
|  8> C 	 -34.7498 	 50.7895 	 101.013
|  9> C 	 -34.2919 	 50.3844 	 99.76
| 10> C 	 -35.045 	 51.0139 	 98.7092
| 11> C 	 -35.8662 	 52.0335 	 99.064
| 12> H 	 -35.033 	 50.7926 	 97.6549
| 13> C 	 -33.29 	 49.2503 	 99.5969
| 14> H 	 -32.341 	 49.4054 	 100.093
| 15> H 	 -33.0015 	 49.1852 	 98.4978
| 16> C 	 -33.8245 	 47.8162 	 99.933
| 17> H 	 -33.1581 	 46.9796 	 99.8035
| 18> H 	 -34.1189 	 47.7988 	 100.96
| 19> C 	 -34.9809 	 47.5491 	 98.9944
| 20> H 	 -34.8011 	 47.7087 	 97.9562
| 21> H 	 -35.2819 	 46.4939 	 99.0932
| 22> H 	 -35.9167 	 48.03 	 99.311
| 23> S 	 -36.187 	 53.3631 	 96.7319
| 24> C 	 -37.8231 	 53.7091 	 96.2363
| 25> C 	 -38.7504 	 53.0562 	 96.9896
| 26> C 	 -38.156 	 52.3893 	 98.0542
| 27> C 	 -36.8033 	 52.6048 	 98.1374
| 28> H 	 -39.8175 	 53.1114 	 96.7305
| 29> C 	 -39.0511 	 51.6041 	 98.972
| 30> H 	 -40.06 	 51.5175 	 98.5771
| 31> H 	 -39.1505 	 52.1632 	 99.9214
| 32> C 	 -38.7108 	 50.1156 	 99.2336
| 33> H 	 -39.5481 	 49.6495 	 99.8523
| 34> H 	 -37.7616 	 50.1121 	 99.8162
| 35> C 	 -38.6076 	 49.2288 	 98.0551
| 36> H 	 -39.501 	 49.3489 	 97.4273
| 37> H 	 -38.4672 	 48.1372 	 98.3207
| 38> H 	 -37.7515 	 49.5384 	 97.4077
| 39> H 	 -34.3025 	 50.3193 	 101.91
| 40> H 	 -38.0173 	 54.2943 	 95.2982
| 41> *
| 42>
| 43>                          ****END OF INPUT****

CARTESIAN COORDINATES (ANGSTROEM)
---------------------------------
  S    -35.844600   52.111400  100.851000
  C    -34.749800   50.789500  101.013000
  C    -34.291900   50.384400   99.760000
  C    -35.045000   51.013900   98.709200
  C    -35.866200   52.033500   99.064000
  H    -35.033000   50.792600   97.654900
  C    -33.290000   49.250300   99.596900
  H    -32.341000   49.405400  100.093000
  H    -33.001500   49.185200   98.497800
  C    -33.824500   47.816200   99.933000
  H    -33.158100   46.979600   99.803500
  H    -34.118900   47.798800  100.960000
  C    -34.980900   47.549100   98.994400
  H    -34.801100   47.708700   97.956200
  H    -35.281900   46.493900   99.093200
  H    -35.916700   48.030000   99.311000
  S    -36.187000   53.363100   96.731900
  C    -37.823100   53.709100   96.236300
  C    -38.750400   53.056200   96.989600
  C    -38.156000   52.389300   98.054200
  C    -36.803300   52.604800   98.137400
  H    -39.817500   53.111400   96.730500
  C    -39.051100   51.604100   98.972000
  H    -40.060000   51.517500   98.577100
  H    -39.150500   52.163200   99.921400
  C    -38.710800   50.115600   99.233600
  H    -39.548100   49.649500   99.852300
  H    -37.761600   50.112100   99.816200
  C    -38.607600   49.228800   98.055100
  H    -39.501000   49.348900   97.427300
  H    -38.467200   48.137200   98.320700
  H    -37.751500   49.538400   97.407700
  H    -34.302500   50.319300  101.910000
  H    -38.017300   54.294300   95.298200

 Total Charge           Charge          ....    0
 Multiplicity           Mult            ....    1
 Number of Electrons    NEL             ....  134
 Basis Dimension        Dim             ....  322

ORBITAL ENERGIES
----------------

  NO   OCC          E(Eh)            E(eV)
   0   2.0000     -88.969212     -2420.9753
   1   2.0000     -88.967719     -2420.9347
   2   2.0000     -10.325331      -280.9666
   3   2.0000     -10.320345      -280.8309
   4   2.0000     -10.319034      -280.7952
   5   2.0000     -10.317699      -280.7589
   6   2.0000     -10.304188      -280.3912
   7   2.0000     -10.296925      -280.1936
   8   2.0000     -10.296707      -280.1876
   9   2.0000     -10.292144      -280.0635
  10   2.0000     -10.290456      -280.0175
  11   2.0000     -10.289026      -279.9786
  12   2.0000     -10.284514      -279.8558
  13   2.0000     -10.283142      -279.8185
  14   2.0000     -10.276605      -279.6406
  15   2.0000     -10.270290      -279.4688
  16   2.0000      -8.083407      -219.9607
  17   2.0000      -8.082857      -219.9457
  18   2.0000      -6.041698      -164.4030
  19   2.0000      -6.041509      -164.3978
  20   2.0000      -6.037920      -164.3002
  21   2.0000      -6.037354      -164.2848
  22   2.0000      -6.034203      -164.1990
  23   2.0000      -6.033656      -164.1841
  24   2.0000      -1.017260       -27.6811
  25   2.0000      -0.990301       -26.9475
  26   2.0000      -0.910699       -24.7814
  27   2.0000      -0.909145       -24.7391
  28   2.0000      -0.879275       -23.9263
  29   2.0000      -0.854150       -23.2426
  30   2.0000      -0.843781       -22.9605
  31   2.0000      -0.815835       -22.2000
  32   2.0000      -0.780964       -21.2511
  33   2.0000      -0.769216       -20.9314
  34   2.0000      -0.705578       -19.1998
  35   2.0000      -0.703224       -19.1357
  36   2.0000      -0.680017       -18.5042
  37   2.0000      -0.665524       -18.1098
  38   2.0000      -0.639654       -17.4059
  39   2.0000      -0.611056       -16.6277
  40   2.0000      -0.594193       -16.1688
  41   2.0000      -0.575979       -15.6732
  42   2.0000      -0.556866       -15.1531
  43   2.0000      -0.549840       -14.9619
  44   2.0000      -0.549678       -14.9575
  45   2.0000      -0.541656       -14.7392
  46   2.0000      -0.515220       -14.0198
  47   2.0000      -0.507450       -13.8084
  48   2.0000      -0.499827       -13.6010
  49   2.0000      -0.496279       -13.5045
  50   2.0000      -0.488789       -13.3006
  51   2.0000      -0.479461       -13.0468
  52   2.0000      -0.471488       -12.8298
  53   2.0000      -0.467159       -12.7120
  54   2.0000      -0.464485       -12.6393
  55   2.0000      -0.445457       -12.1215
  56   2.0000      -0.443606       -12.0711
  57   2.0000      -0.435446       -11.8491
  58   2.0000      -0.429829       -11.6962
  59   2.0000      -0.423482       -11.5235
  60   2.0000      -0.413268       -11.2456
  61   2.0000      -0.408540       -11.1169
  62   2.0000      -0.402205       -10.9445
  63   2.0000      -0.348800        -9.4913
  64   2.0000      -0.338370        -9.2075
  65   2.0000      -0.324257        -8.8235
  66   2.0000      -0.296816        -8.0768
  67   0.0000       0.031599         0.8598
  68   0.0000       0.064475         1.7545
  69   0.0000       0.105758         2.8778
  70   0.0000       0.124106         3.3771
  71   0.0000       0.124764         3.3950

MULLIKEN ATOMIC CHARGES
-----------------------
   0 S :    0.112906
   1 C :   -0.129401
   2 C :   -0.061156
   3 C :    0.008698
   4 C :   -0.148106
   5 H :    0.010602
   6 C :    0.026405
   7 H :    0.034401
   8 H :    0.028054
   9 C :   -0.033257
  10 H :    0.029860
  11 H :    0.015853
  12 C :   -0.066862
  13 H :    0.028538
  14 H :    0.017569
  15 H :    0.039396
  16 S :    0.116622
  17 C :   -0.112407
  18 C :   -0.036159
  19 C :   -0.011542
  20 C :   -0.178978
  21 H :    0.028941
  22 C :    0.067850
  23 H :    0.008266
  24 H :    0.047999
  25 C :   -0.101225
  26 H :    0.034912
  27 H :    0.044056
  28 C :   -0.062309
  29 H :    0.020078
  30 H :    0.050912
  31 H :    0.035101
  32 H :    0.063899
  33 H :    0.070482
Sum of atomic charges:    0.0000000

LOEWDIN ATOMIC CHARGES
----------------------
   0 S :    0.404774
   1 C :   -0.204520
   2 C :   -0.067461
   3 C :   -0.058100
   4 C :   -0.193699
   5 H :    0.025824
   6 C :   -0.037040
   7 H :    0.027128
   8 H :    0.034463
   9 C :   -0.034799
  10 H :    0.024208
  11 H :    0.017800
  12 C :   -0.068679
  13 H :    0.019369
  14 H :    0.025558
  15 H :    0.028581
  16 S :    0.431015
  17 C :   -0.187707
  18 C :   -0.072939
  19 C :   -0.058752
  20 C :   -0.211148
  21 H :    0.039852
  22 C :   -0.033414
  23 H :    0.026824
  24 H :    0.039250
  25 C :   -0.052074
  26 H :    0.031066
  27 H :    0.020677
  28 C :   -0.075442
  29 H :    0.021873
  30 H :    0.034092
  31 H :    0.026276
  32 H :    0.041272
  33 H :    0.035870

  Mayer bond orders larger than 0.100000
B(  0-S ,  1-C ) :   1.1564 B(  0-S ,  4-C ) :   1.1087 B(  1-C ,  2-C ) :   1.5905
B(  1-C , 32-H ) :   0.9622 B(  2-C ,  3-C ) :   1.2301 B(  2-C ,  6-C ) :   1.0269
B(  3-C ,  4-C ) :   1.6185 B(  3-C ,  5-H ) :   0.9865 B(  4-C , 20-C ) :   1.0251
B(  6-C ,  7-H ) :   0.9435 B(  6-C ,  8-H ) :   0.9496 B(  6-C ,  9-C ) :   1.0667
B(  9-C , 10-H ) :   0.9602 B(  9-C , 11-H ) :   0.9539 B(  9-C , 12-C ) :   1.0779
B( 12-C , 13-H ) :   0.9771 B( 12-C , 14-H ) :   0.9695 B( 12-C , 15-H ) :   0.9699
B( 16-S , 17-C ) :   1.1664 B( 16-S , 20-C ) :   1.1557 B( 17-C , 18-C ) :   1.5900
B( 17-C , 33-H ) :   0.9613 B( 18-C , 19-C ) :   1.2645 B( 18-C , 21-H ) :   0.9936
B( 19-C , 20-C ) :   1.5647 B( 19-C , 22-C ) :   1.0332 B( 22-C , 23-H ) :   0.9364
B( 22-C , 24-H ) :   0.9341 B( 22-C , 25-C ) :   1.0693 B( 25-C , 26-H ) :   0.9544
B( 25-C , 27-H ) :   0.9483 B( 25-C , 28-C ) :   1.0873 B( 28-C , 29-H ) :   0.9688
B( 28-C , 30-H ) :   0.9694 B( 28-C , 31-H ) :   0.9667

Dispersion correction           -0.017450783
FINAL SINGLE POINT ENERGY     -1339.877190556077

DIPOLE MOMENT
-------------
                                X             Y             Z
Electronic contribution:      3.69790      25.44012      -0.73889
Nuclear contribution   :     -3.85763     -25.98520       0.60270
                        -----------------------------------------
Total Dipole Moment    :     -0.15973      -0.54508      -0.13620
                        -----------------------------------------
Magnitude (a.u.)       :      0.58410
Magnitude (Debye)      :      1.48468

Rotational constants in cm-1:     0.020766     0.009767     0.008853
Rotational constants in MHz :   622.558725   292.814148   265.400058

                             ****ORCA TERMINATED NORMALLY****
TOTAL RUN TIME: 0 days 0 hours 0 minutes 34 seconds 174 msec
