                         Program Version 4.2.1 -  RELEASE  -
|  1> ! wB97X-D3 SP def2-SVP
|  2> %pal
|  3> nprocs 16
|  4> end
|  5>
|  6> * xyz 0 1
|  7> S 	 -34.5502 	 49.0482 	 94.8156
|  8> C 	 -32.8386 	 49.0949 	 95.1453
|  9> C 	 -32.4798 	 50.2533 	 95.8425
| 10> C 	 -33.5902 	 51.105 	 96.1525
| 11> C 	 -34.8072 	 50.5602 	 95.6848
| 12> H 	 -33.499 	 52.0628 	 96.6301
| 13> C 	 -31.0229 	 50.6941 	 96.1886
| 14> H 	 -31.014 	 51.7533 	 96.0027
| 15> H 	 -30.3619 	 50.1381 	 95.5121
| 16> C 	 -30.6537 	 50.2171 	 97.5807
| 17> H 	 -30.9648 	 49.1654 	 97.7066
| 18> H 	 -29.5846 	 50.4389 	 97.8463
| 19> C 	 -31.3435 	 51.0269 	 98.695
| 20> H 	 -31.1073 	 52.0689 	 98.6918
| 21> H 	 -32.3891 	 51.0128 	 98.4315
| 22> H 	 -31.1193 	 50.4949 	 99.6168
| 23> S 	 -36.9897 	 51.4727 	 94.3196
| 24> C 	 -38.3058 	 52.2756 	 95.1556
| 25> C 	 -38.0069 	 52.4355 	 96.5446
| 26> C 	 -36.7205 	 51.7976 	 96.8564
| 27> C 	 -36.1546 	 51.0849 	 95.7903
| 28> H 	 -38.625 	 53.103 	 97.127
| 29> C 	 -36.1151 	 51.864 	 98.3008
| 30> H 	 -35.2324 	 52.3884 	 98.3205
| 31> H 	 -35.7571 	 50.8465 	 98.5587
| 32> C 	 -37.099 	 52.4025 	 99.3884
| 33> H 	 -38.0408 	 51.9369 	 99.3278
| 34> H 	 -37.3336 	 53.4511 	 99.2297
| 35> C 	 -36.529 	 52.1677 	 100.798
| 36> H 	 -37.1004 	 52.7136 	 101.517
| 37> H 	 -35.5048 	 52.447 	 100.955
| 38> H 	 -36.5694 	 51.1562 	 101.146
| 39> H 	 -32.2647 	 48.195 	 94.8437
| 40> H 	 -39.2613 	 52.682 	 94.8131
| 41> *
| 42>
| 43>                          ****END OF INPUT****

CARTESIAN COORDINATES (ANGSTROEM)
---------------------------------
  S    -34.550200   49.048200   94.815600
  C    -32.838600   49.094900   95.145300
  C    -32.479800   50.253300   95.842500
  C    -33.590200   51.105000   96.152500
  C    -34.807200   50.560200   95.684800
  H    -33.499000   52.062800   96.630100
  C    -31.022900   50.694100   96.188600
  H    -31.014000   51.753300   96.002700
  H    -30.361900   50.138100   95.512100
  C    -30.653700   50.217100   97.580700
  H    -30.964800   49.165400   97.706600
  H    -29.584600   50.438900   97.846300
  C    -31.343500   51.026900   98.695000
  H    -31.107300   52.068900   98.691800
  H    -32.389100   51.012800   98.431500
  H    -31.119300   50.494900   99.616800
  S    -36.989700   51.472700   94.319600
  C    -38.305800   52.275600   95.155600
  C    -38.006900   52.435500   96.544600
  C    -36.720500   51.797600   96.856400
  C    -36.154600   51.084900   95.790300
  H    -38.625000   53.103000   97.127000
  C    -36.115100   51.864000   98.300800
  H    -35.232400   52.388400   98.320500
  H    -35.757100   50.846500   98.558700
  C    -37.099000   52.402500   99.388400
  H    -38.040800   51.936900   99.327800
  H    -37.333600   53.451100   99.229700
  C    -36.529000   52.167700  100.798000
  H    -37.100400   52.713600  101.517000
  H    -35.504800   52.447000  100.955000
  H    -36.569400   51.156200  101.146000
  H    -32.264700   48.195000   94.843700
  H    -39.261300   52.682000   94.813100

 Total Charge           Charge          ....    0
 Multiplicity           Mult            ....    1
 Number of Electrons    NEL             ....  134
 Basis Dimension        Dim             ....  322

ORBITAL ENERGIES
----------------

  NO   OCC          E(Eh)            E(eV)
   0   2.0000     -88.968791     -2420.9639
   1   2.0000     -88.967290     -2420.9230
   2   2.0000     -10.334758      -281.2231
   3   2.0000     -10.323738      -280.9232
   4   2.0000     -10.323357      -280.9128
   5   2.0000     -10.320339      -280.8307
   6   2.0000     -10.311685      -280.5952
   7   2.0000     -10.307821      -280.4901
   8   2.0000     -10.301687      -280.3231
   9   2.0000     -10.301258      -280.3115
  10   2.0000     -10.294507      -280.1278
  11   2.0000     -10.290337      -280.0143
  12   2.0000     -10.288998      -279.9779
  13   2.0000     -10.285455      -279.8815
  14   2.0000     -10.271216      -279.4940
  15   2.0000     -10.270159      -279.4652
  16   2.0000      -8.083162      -219.9540
  17   2.0000      -8.082117      -219.9256
  18   2.0000      -6.041778      -164.4051
  19   2.0000      -6.040451      -164.3690
  20   2.0000      -6.037640      -164.2925
  21   2.0000      -6.036533      -164.2624
  22   2.0000      -6.033893      -164.1906
  23   2.0000      -6.033140      -164.1701
  24   2.0000      -1.003086       -27.2954
  25   2.0000      -0.978128       -26.6162
  26   2.0000      -0.913545       -24.8588
  27   2.0000      -0.903131       -24.5754
  28   2.0000      -0.866753       -23.5855
  29   2.0000      -0.849671       -23.1207
  30   2.0000      -0.841963       -22.9110
  31   2.0000      -0.812024       -22.0963
  32   2.0000      -0.783922       -21.3316
  33   2.0000      -0.769537       -20.9402
  34   2.0000      -0.713899       -19.4262
  35   2.0000      -0.697053       -18.9678
  36   2.0000      -0.692324       -18.8391
  37   2.0000      -0.655825       -17.8459
  38   2.0000      -0.642019       -17.4702
  39   2.0000      -0.618405       -16.8277
  40   2.0000      -0.590209       -16.0604
  41   2.0000      -0.574118       -15.6225
  42   2.0000      -0.560942       -15.2640
  43   2.0000      -0.549622       -14.9560
  44   2.0000      -0.545827       -14.8527
  45   2.0000      -0.528199       -14.3730
  46   2.0000      -0.523359       -14.2413
  47   2.0000      -0.511404       -13.9160
  48   2.0000      -0.505548       -13.7567
  49   2.0000      -0.491996       -13.3879
  50   2.0000      -0.486696       -13.2437
  51   2.0000      -0.481630       -13.1058
  52   2.0000      -0.475369       -12.9355
  53   2.0000      -0.464407       -12.6371
  54   2.0000      -0.456298       -12.4165
  55   2.0000      -0.446358       -12.1460
  56   2.0000      -0.444171       -12.0865
  57   2.0000      -0.441410       -12.0114
  58   2.0000      -0.438693       -11.9374
  59   2.0000      -0.426589       -11.6081
  60   2.0000      -0.422441       -11.4952
  61   2.0000      -0.414893       -11.2898
  62   2.0000      -0.401689       -10.9305
  63   2.0000      -0.345749        -9.4083
  64   2.0000      -0.333954        -9.0874
  65   2.0000      -0.326085        -8.8732
  66   2.0000      -0.289778        -7.8853
  67   0.0000       0.024027         0.6538
  68   0.0000       0.065932         1.7941
  69   0.0000       0.107515         2.9256
  70   0.0000       0.118577         3.2266
  71   0.0000       0.127426         3.4674

MULLIKEN ATOMIC CHARGES
-----------------------
   0 S :    0.110035
   1 C :   -0.145777
   2 C :   -0.126213
   3 C :    0.044456
   4 C :   -0.184744
   5 H :    0.018563
   6 C :    0.093908
   7 H :    0.031710
   8 H :    0.027594
   9 C :   -0.091633
  10 H :    0.040901
  11 H :    0.040789
  12 C :   -0.041912
  13 H :    0.020897
  14 H :    0.010338
  15 H :    0.041673
  16 S :    0.118168
  17 C :   -0.085964
  18 C :   -0.062916
  19 C :   -0.068664
  20 C :   -0.098888
  21 H :    0.026177
  22 C :    0.071637
  23 H :    0.007864
  24 H :    0.038598
  25 C :   -0.066656
  26 H :    0.024064
  27 H :    0.029653
  28 C :   -0.016863
  29 H :    0.017552
  30 H :    0.020760
  31 H :    0.025723
  32 H :    0.070144
  33 H :    0.059029
Sum of atomic charges:    0.0000000

LOEWDIN ATOMIC CHARGES
----------------------
   0 S :    0.411138
   1 C :   -0.207600
   2 C :   -0.061368
   3 C :   -0.061571
   4 C :   -0.189683
   5 H :    0.030289
   6 C :   -0.025304
   7 H :    0.028586
   8 H :    0.033303
   9 C :   -0.043801
  10 H :    0.030548
  11 H :    0.027928
  12 C :   -0.065698
  13 H :    0.017937
  14 H :    0.017400
  15 H :    0.028477
  16 S :    0.422381
  17 C :   -0.192853
  18 C :   -0.075288
  19 C :   -0.045311
  20 C :   -0.224921
  21 H :    0.031005
  22 C :   -0.026054
  23 H :    0.014896
  24 H :    0.038448
  25 C :   -0.034234
  26 H :    0.019949
  27 H :    0.022927
  28 C :   -0.060298
  29 H :    0.023189
  30 H :    0.021957
  31 H :    0.024143
  32 H :    0.034304
  33 H :    0.035182

  Mayer bond orders larger than 0.100000
B(  0-S ,  1-C ) :   1.1520 B(  0-S ,  4-C ) :   1.1744 B(  1-C ,  2-C ) :   1.5910
B(  1-C ,  4-C ) :   0.1045 B(  1-C , 32-H ) :   0.9677 B(  2-C ,  3-C ) :   1.2606
B(  2-C ,  6-C ) :   1.0035 B(  3-C ,  4-C ) :   1.5399 B(  3-C ,  5-H ) :   0.9882
B(  4-C , 20-C ) :   1.0314 B(  6-C ,  7-H ) :   0.9491 B(  6-C ,  8-H ) :   0.9408
B(  6-C ,  9-C ) :   1.0688 B(  9-C , 10-H ) :   0.9532 B(  9-C , 11-H ) :   0.9592
B(  9-C , 12-C ) :   1.0742 B( 12-C , 13-H ) :   0.9750 B( 12-C , 14-H ) :   0.9722
B( 12-C , 15-H ) :   0.9736 B( 16-S , 17-C ) :   1.1707 B( 16-S , 20-C ) :   1.1394
B( 17-C , 18-C ) :   1.5876 B( 17-C , 20-C ) :   0.1016 B( 17-C , 33-H ) :   0.9610
B( 18-C , 19-C ) :   1.2568 B( 18-C , 21-H ) :   0.9862 B( 19-C , 20-C ) :   1.5855
B( 19-C , 22-C ) :   1.0171 B( 22-C , 23-H ) :   0.9277 B( 22-C , 24-H ) :   0.9447
B( 22-C , 25-C ) :   1.0778 B( 25-C , 26-H ) :   0.9534 B( 25-C , 27-H ) :   0.9500
B( 25-C , 28-C ) :   1.0843 B( 28-C , 29-H ) :   0.9705 B( 28-C , 30-H ) :   0.9753
B( 28-C , 31-H ) :   0.9752

Dispersion correction           -0.014384550
FINAL SINGLE POINT ENERGY     -1339.866784774074

DIPOLE MOMENT
-------------
                                X             Y             Z
Electronic contribution:    -12.01358      -7.49165     -27.65093
Nuclear contribution   :     12.28621       7.83596      28.17203
                        -----------------------------------------
Total Dipole Moment    :      0.27263       0.34431       0.52110
                        -----------------------------------------
Magnitude (a.u.)       :      0.68149
Magnitude (Debye)      :      1.73220

Rotational constants in cm-1:     0.016028     0.010013     0.006680
Rotational constants in MHz :   480.500316   300.177025   200.260424

                             ****ORCA TERMINATED NORMALLY****
TOTAL RUN TIME: 0 days 0 hours 0 minutes 30 seconds 581 msec
