                         Program Version 4.2.1 -  RELEASE  -
|  1> ! wB97X-D3 SP def2-SVP
|  2> %pal
|  3> nprocs 16
|  4> end
|  5>
|  6> * xyz 0 1
|  7> S 	 5.04089 	 22.3525 	 40.6429
|  8> C 	 4.06044 	 21.7931 	 41.9154
|  9> C 	 3.50052 	 22.9004 	 42.5327
| 10> C 	 3.7983 	 24.1419 	 41.8566
| 11> C 	 4.61318 	 23.9571 	 40.7485
| 12> H 	 3.56452 	 25.1095 	 42.1618
| 13> C 	 2.68973 	 22.9263 	 43.7767
| 14> H 	 3.11457 	 22.1946 	 44.5005
| 15> H 	 1.74175 	 22.5461 	 43.5959
| 16> C 	 2.51069 	 24.2752 	 44.4764
| 17> H 	 3.41577 	 24.6536 	 44.8832
| 18> H 	 2.08974 	 24.953 	 43.8059
| 19> C 	 1.48591 	 24.1993 	 45.6637
| 20> H 	 1.72805 	 23.4751 	 46.4433
| 21> H 	 1.47726 	 25.1632 	 46.2133
| 22> H 	 0.473308 	 24.1122 	 45.3312
| 23> S 	 6.85232 	 25.6576 	 40.2764
| 24> C 	 6.74965 	 26.9331 	 39.144
| 25> C 	 5.43293 	 27.0515 	 38.6317
| 26> C 	 4.5226 	 25.9675 	 38.982
| 27> C 	 5.16064 	 25.0668 	 39.9281
| 28> H 	 5.09212 	 27.9185 	 37.9834
| 29> C 	 3.08015 	 26.0453 	 38.5845
| 30> H 	 2.7626 	 25.2153 	 39.2706
| 31> H 	 2.73753 	 25.5175 	 37.6489
| 32> C 	 2.39688 	 27.313 	 38.8856
| 33> H 	 2.42039 	 28.0936 	 38.1098
| 34> H 	 2.72955 	 27.6467 	 39.8587
| 35> C 	 0.881907 	 26.945 	 39.1681
| 36> H 	 0.509742 	 27.7857 	 39.7464
| 37> H 	 0.927602 	 26.0193 	 39.7667
| 38> H 	 0.322844 	 26.7474 	 38.2444
| 39> H 	 3.96103 	 20.765 	 42.3079
| 40> H 	 7.49921 	 27.6942 	 38.9728
| 41> *
| 42>
| 43>                          ****END OF INPUT****

CARTESIAN COORDINATES (ANGSTROEM)
---------------------------------
  S      5.040890   22.352500   40.642900
  C      4.060440   21.793100   41.915400
  C      3.500520   22.900400   42.532700
  C      3.798300   24.141900   41.856600
  C      4.613180   23.957100   40.748500
  H      3.564520   25.109500   42.161800
  C      2.689730   22.926300   43.776700
  H      3.114570   22.194600   44.500500
  H      1.741750   22.546100   43.595900
  C      2.510690   24.275200   44.476400
  H      3.415770   24.653600   44.883200
  H      2.089740   24.953000   43.805900
  C      1.485910   24.199300   45.663700
  H      1.728050   23.475100   46.443300
  H      1.477260   25.163200   46.213300
  H      0.473308   24.112200   45.331200
  S      6.852320   25.657600   40.276400
  C      6.749650   26.933100   39.144000
  C      5.432930   27.051500   38.631700
  C      4.522600   25.967500   38.982000
  C      5.160640   25.066800   39.928100
  H      5.092120   27.918500   37.983400
  C      3.080150   26.045300   38.584500
  H      2.762600   25.215300   39.270600
  H      2.737530   25.517500   37.648900
  C      2.396880   27.313000   38.885600
  H      2.420390   28.093600   38.109800
  H      2.729550   27.646700   39.858700
  C      0.881907   26.945000   39.168100
  H      0.509742   27.785700   39.746400
  H      0.927602   26.019300   39.766700
  H      0.322844   26.747400   38.244400
  H      3.961030   20.765000   42.307900
  H      7.499210   27.694200   38.972800

 Total Charge           Charge          ....    0
 Multiplicity           Mult            ....    1
 Number of Electrons    NEL             ....  134
 Basis Dimension        Dim             ....  322

ORBITAL ENERGIES
----------------

  NO   OCC          E(Eh)            E(eV)
   0   2.0000     -88.967569     -2420.9306
   1   2.0000     -88.965880     -2420.8847
   2   2.0000     -10.339153      -281.3427
   3   2.0000     -10.324353      -280.9399
   4   2.0000     -10.319338      -280.8035
   5   2.0000     -10.313352      -280.6406
   6   2.0000     -10.313263      -280.6381
   7   2.0000     -10.299853      -280.2732
   8   2.0000     -10.299157      -280.2543
   9   2.0000     -10.291355      -280.0420
  10   2.0000     -10.287974      -279.9500
  11   2.0000     -10.287904      -279.9481
  12   2.0000     -10.284481      -279.8550
  13   2.0000     -10.282904      -279.8120
  14   2.0000     -10.280668      -279.7512
  15   2.0000     -10.280043      -279.7342
  16   2.0000      -8.082719      -219.9420
  17   2.0000      -8.081524      -219.9095
  18   2.0000      -6.041005      -164.3841
  19   2.0000      -6.040025      -164.3574
  20   2.0000      -6.036630      -164.2650
  21   2.0000      -6.035999      -164.2479
  22   2.0000      -6.033850      -164.1894
  23   2.0000      -6.032488      -164.1523
  24   2.0000      -1.013647       -27.5827
  25   2.0000      -0.977822       -26.6079
  26   2.0000      -0.918630       -24.9972
  27   2.0000      -0.915979       -24.9251
  28   2.0000      -0.867795       -23.6139
  29   2.0000      -0.849122       -23.1058
  30   2.0000      -0.844140       -22.9702
  31   2.0000      -0.807217       -21.9655
  32   2.0000      -0.781000       -21.2521
  33   2.0000      -0.768810       -20.9204
  34   2.0000      -0.714857       -19.4522
  35   2.0000      -0.702826       -19.1249
  36   2.0000      -0.690060       -18.7775
  37   2.0000      -0.647381       -17.6161
  38   2.0000      -0.643130       -17.5005
  39   2.0000      -0.620728       -16.8909
  40   2.0000      -0.598685       -16.2910
  41   2.0000      -0.578051       -15.7296
  42   2.0000      -0.572639       -15.5823
  43   2.0000      -0.567111       -15.4319
  44   2.0000      -0.533281       -14.5113
  45   2.0000      -0.520365       -14.1599
  46   2.0000      -0.517334       -14.0774
  47   2.0000      -0.507221       -13.8022
  48   2.0000      -0.506847       -13.7920
  49   2.0000      -0.500155       -13.6099
  50   2.0000      -0.492967       -13.4143
  51   2.0000      -0.475158       -12.9297
  52   2.0000      -0.468977       -12.7615
  53   2.0000      -0.464413       -12.6373
  54   2.0000      -0.453097       -12.3294
  55   2.0000      -0.452329       -12.3085
  56   2.0000      -0.447388       -12.1741
  57   2.0000      -0.439413       -11.9570
  58   2.0000      -0.437877       -11.9152
  59   2.0000      -0.425813       -11.5870
  60   2.0000      -0.421559       -11.4712
  61   2.0000      -0.416262       -11.3271
  62   2.0000      -0.402113       -10.9421
  63   2.0000      -0.332413        -9.0454
  64   2.0000      -0.326585        -8.8868
  65   2.0000      -0.322209        -8.7678
  66   2.0000      -0.302915        -8.2427
  67   0.0000       0.039095         1.0638
  68   0.0000       0.055797         1.5183
  69   0.0000       0.111955         3.0464
  70   0.0000       0.123138         3.3507
  71   0.0000       0.131323         3.5735

MULLIKEN ATOMIC CHARGES
-----------------------
   0 S :    0.138924
   1 C :   -0.130844
   2 C :   -0.090498
   3 C :    0.042864
   4 C :   -0.167033
   5 H :   -0.012648
   6 C :    0.084928
   7 H :    0.023192
   8 H :    0.014199
   9 C :   -0.069156
  10 H :    0.032033
  11 H :    0.027019
  12 C :   -0.059427
  13 H :    0.033901
  14 H :    0.027299
  15 H :    0.029275
  16 S :    0.114209
  17 C :   -0.084315
  18 C :   -0.073019
  19 C :   -0.020974
  20 C :   -0.177134
  21 H :    0.042968
  22 C :    0.023290
  23 H :    0.023618
  24 H :    0.047237
  25 C :   -0.061185
  26 H :    0.046437
  27 H :    0.030092
  28 C :   -0.071183
  29 H :    0.037672
  30 H :    0.033203
  31 H :    0.041953
  32 H :    0.059503
  33 H :    0.063600
Sum of atomic charges:    0.0000000

LOEWDIN ATOMIC CHARGES
----------------------
   0 S :    0.477306
   1 C :   -0.225894
   2 C :   -0.063189
   3 C :   -0.059875
   4 C :   -0.239684
   5 H :    0.018848
   6 C :   -0.034617
   7 H :    0.034870
   8 H :    0.024130
   9 C :   -0.027704
  10 H :    0.021888
  11 H :    0.016761
  12 C :   -0.064577
  13 H :    0.023981
  14 H :    0.030053
  15 H :    0.020117
  16 S :    0.404075
  17 C :   -0.203737
  18 C :   -0.083894
  19 C :   -0.045185
  20 C :   -0.192423
  21 H :    0.038820
  22 C :   -0.058144
  23 H :    0.039792
  24 H :    0.042295
  25 C :   -0.038372
  26 H :    0.027485
  27 H :    0.027530
  28 C :   -0.058199
  29 H :    0.024216
  30 H :    0.025856
  31 H :    0.024756
  32 H :    0.040752
  33 H :    0.031961

  Mayer bond orders larger than 0.100000
B(  0-S ,  1-C ) :   1.1655 B(  0-S ,  4-C ) :   1.2098 B(  1-C ,  2-C ) :   1.5578
B(  1-C , 32-H ) :   0.9750 B(  2-C ,  3-C ) :   1.2872 B(  2-C ,  6-C ) :   1.0183
B(  3-C ,  4-C ) :   1.5023 B(  3-C ,  5-H ) :   1.0036 B(  4-C , 20-C ) :   1.0096
B(  6-C ,  7-H ) :   0.9351 B(  6-C ,  8-H ) :   0.9278 B(  6-C ,  9-C ) :   1.0899
B(  9-C , 10-H ) :   0.9589 B(  9-C , 11-H ) :   0.9403 B(  9-C , 12-C ) :   1.0882
B( 12-C , 13-H ) :   0.9767 B( 12-C , 14-H ) :   0.9732 B( 12-C , 15-H ) :   0.9769
B( 16-S , 17-C ) :   1.1734 B( 16-S , 20-C ) :   1.1471 B( 17-C , 18-C ) :   1.5802
B( 17-C , 20-C ) :   0.1073 B( 17-C , 33-H ) :   0.9665 B( 18-C , 19-C ) :   1.2641
B( 18-C , 21-H ) :   0.9742 B( 19-C , 20-C ) :   1.5585 B( 19-C , 22-C ) :   1.0386
B( 22-C , 23-H ) :   0.9342 B( 22-C , 24-H ) :   0.9206 B( 22-C , 25-C ) :   1.0735
B( 25-C , 26-H ) :   0.9484 B( 25-C , 27-H ) :   0.9554 B( 25-C , 28-C ) :   1.0730
B( 28-C , 29-H ) :   0.9786 B( 28-C , 30-H ) :   0.9801 B( 28-C , 31-H ) :   0.9774

Dispersion correction           -0.013841693
FINAL SINGLE POINT ENERGY     -1339.850073859709

DIPOLE MOMENT
-------------
                                X             Y             Z
Electronic contribution:     25.92719      -9.29248     -11.21127
Nuclear contribution   :    -26.50820       9.61967      11.56202
                        -----------------------------------------
Total Dipole Moment    :     -0.58101       0.32719       0.35076
                        -----------------------------------------
Magnitude (a.u.)       :      0.75343
Magnitude (Debye)      :      1.91506

Rotational constants in cm-1:     0.015981     0.008876     0.007055
Rotational constants in MHz :   479.098613   266.082192   211.501643

                             ****ORCA TERMINATED NORMALLY****
TOTAL RUN TIME: 0 days 0 hours 0 minutes 34 seconds 284 msec
