                         Program Version 4.2.1 -  RELEASE  -
|  1> ! wB97X-D3 SP def2-SVP
|  2> %pal
|  3> nprocs 16
|  4> end
|  5>
|  6> * xyz 0 1
|  7> S 	 -103.228 	 48.9438 	 121.391
|  8> C 	 -104.24 	 49.727 	 122.631
|  9> C 	 -104.605 	 48.8131 	 123.547
| 10> C 	 -104.114 	 47.5449 	 123.249
| 11> C 	 -103.225 	 47.4499 	 122.198
| 12> H 	 -104.299 	 46.6403 	 123.815
| 13> C 	 -105.357 	 49.0528 	 124.838
| 14> H 	 -106.114 	 48.3669 	 125.029
| 15> H 	 -105.815 	 50.0673 	 124.742
| 16> C 	 -104.531 	 49.2465 	 126.135
| 17> H 	 -105.23 	 49.3288 	 126.963
| 18> H 	 -104.131 	 48.2933 	 126.354
| 19> C 	 -103.637 	 50.4428 	 126.111
| 20> H 	 -102.96 	 50.3962 	 125.246
| 21> H 	 -104.332 	 51.2841 	 126.243
| 22> H 	 -102.933 	 50.4074 	 126.922
| 23> S 	 -103.078 	 45.907 	 119.993
| 24> C 	 -102.095 	 44.3424 	 120.066
| 25> C 	 -101.746 	 43.9932 	 121.369
| 26> C 	 -102.15 	 45.0684 	 122.305
| 27> C 	 -102.669 	 46.1971 	 121.685
| 28> H 	 -101.205 	 43.1104 	 121.57
| 29> C 	 -101.872 	 44.8923 	 123.835
| 30> H 	 -102.137 	 45.7881 	 124.436
| 31> H 	 -100.794 	 44.9066 	 123.946
| 32> C 	 -102.463 	 43.5717 	 124.423
| 33> H 	 -102.116 	 43.4035 	 125.496
| 34> H 	 -102.018 	 42.7095 	 123.883
| 35> C 	 -104.018 	 43.418 	 124.312
| 36> H 	 -104.507 	 44.1048 	 125.024
| 37> H 	 -104.167 	 42.4277 	 124.67
| 38> H 	 -104.406 	 43.4014 	 123.273
| 39> H 	 -104.488 	 50.7741 	 122.601
| 40> H 	 -101.945 	 43.6806 	 119.216
| 41> *
| 42>
| 43>                          ****END OF INPUT****

CARTESIAN COORDINATES (ANGSTROEM)
---------------------------------
  S    -103.228000   48.943800  121.391000
  C    -104.240000   49.727000  122.631000
  C    -104.605000   48.813100  123.547000
  C    -104.114000   47.544900  123.249000
  C    -103.225000   47.449900  122.198000
  H    -104.299000   46.640300  123.815000
  C    -105.357000   49.052800  124.838000
  H    -106.114000   48.366900  125.029000
  H    -105.815000   50.067300  124.742000
  C    -104.531000   49.246500  126.135000
  H    -105.230000   49.328800  126.963000
  H    -104.131000   48.293300  126.354000
  C    -103.637000   50.442800  126.111000
  H    -102.960000   50.396200  125.246000
  H    -104.332000   51.284100  126.243000
  H    -102.933000   50.407400  126.922000
  S    -103.078000   45.907000  119.993000
  C    -102.095000   44.342400  120.066000
  C    -101.746000   43.993200  121.369000
  C    -102.150000   45.068400  122.305000
  C    -102.669000   46.197100  121.685000
  H    -101.205000   43.110400  121.570000
  C    -101.872000   44.892300  123.835000
  H    -102.137000   45.788100  124.436000
  H    -100.794000   44.906600  123.946000
  C    -102.463000   43.571700  124.423000
  H    -102.116000   43.403500  125.496000
  H    -102.018000   42.709500  123.883000
  C    -104.018000   43.418000  124.312000
  H    -104.507000   44.104800  125.024000
  H    -104.167000   42.427700  124.670000
  H    -104.406000   43.401400  123.273000
  H    -104.488000   50.774100  122.601000
  H    -101.945000   43.680600  119.216000

 Total Charge           Charge          ....    0
 Multiplicity           Mult            ....    1
 Number of Electrons    NEL             ....  134
 Basis Dimension        Dim             ....  322

ORBITAL ENERGIES
----------------

  NO   OCC          E(Eh)            E(eV)
   0   2.0000     -88.964513     -2420.8475
   1   2.0000     -88.964279     -2420.8411
   2   2.0000     -10.331126      -281.1242
   3   2.0000     -10.327432      -281.0237
   4   2.0000     -10.324575      -280.9460
   5   2.0000     -10.314111      -280.6612
   6   2.0000     -10.313555      -280.6461
   7   2.0000     -10.303407      -280.3699
   8   2.0000     -10.300415      -280.2886
   9   2.0000     -10.297735      -280.2156
  10   2.0000     -10.294486      -280.1272
  11   2.0000     -10.287561      -279.9388
  12   2.0000     -10.284166      -279.8464
  13   2.0000     -10.281017      -279.7607
  14   2.0000     -10.278998      -279.7058
  15   2.0000     -10.275868      -279.6206
  16   2.0000      -8.079613      -219.8574
  17   2.0000      -8.077835      -219.8091
  18   2.0000      -6.038101      -164.3051
  19   2.0000      -6.036586      -164.2639
  20   2.0000      -6.033972      -164.1927
  21   2.0000      -6.032832      -164.1617
  22   2.0000      -6.030400      -164.0955
  23   2.0000      -6.028096      -164.0328
  24   2.0000      -1.011372       -27.5208
  25   2.0000      -0.976057       -26.5598
  26   2.0000      -0.916976       -24.9522
  27   2.0000      -0.896752       -24.4019
  28   2.0000      -0.872985       -23.7551
  29   2.0000      -0.848448       -23.0874
  30   2.0000      -0.838487       -22.8164
  31   2.0000      -0.814281       -22.1577
  32   2.0000      -0.786942       -21.4138
  33   2.0000      -0.775352       -21.0984
  34   2.0000      -0.707928       -19.2637
  35   2.0000      -0.697725       -18.9861
  36   2.0000      -0.689885       -18.7727
  37   2.0000      -0.661292       -17.9947
  38   2.0000      -0.642077       -17.4718
  39   2.0000      -0.620591       -16.8871
  40   2.0000      -0.590265       -16.0619
  41   2.0000      -0.573662       -15.6101
  42   2.0000      -0.562473       -15.3057
  43   2.0000      -0.552957       -15.0467
  44   2.0000      -0.546034       -14.8583
  45   2.0000      -0.538210       -14.6454
  46   2.0000      -0.517658       -14.0862
  47   2.0000      -0.512469       -13.9450
  48   2.0000      -0.503160       -13.6917
  49   2.0000      -0.493782       -13.4365
  50   2.0000      -0.486522       -13.2389
  51   2.0000      -0.474841       -12.9211
  52   2.0000      -0.467909       -12.7325
  53   2.0000      -0.463916       -12.6238
  54   2.0000      -0.458210       -12.4685
  55   2.0000      -0.448605       -12.2072
  56   2.0000      -0.446278       -12.1438
  57   2.0000      -0.433859       -11.8059
  58   2.0000      -0.431852       -11.7513
  59   2.0000      -0.421038       -11.4570
  60   2.0000      -0.417903       -11.3717
  61   2.0000      -0.415286       -11.3005
  62   2.0000      -0.410769       -11.1776
  63   2.0000      -0.348864        -9.4931
  64   2.0000      -0.332877        -9.0580
  65   2.0000      -0.326303        -8.8792
  66   2.0000      -0.293089        -7.9754
  67   0.0000       0.027427         0.7463
  68   0.0000       0.072875         1.9830
  69   0.0000       0.092917         2.5284
  70   0.0000       0.121046         3.2938
  71   0.0000       0.127832         3.4785

MULLIKEN ATOMIC CHARGES
-----------------------
   0 S :    0.098199
   1 C :   -0.138898
   2 C :   -0.038220
   3 C :    0.016773
   4 C :   -0.143991
   5 H :   -0.000968
   6 C :    0.076449
   7 H :    0.016701
   8 H :    0.005222
   9 C :   -0.053663
  10 H :    0.015998
  11 H :    0.001214
  12 C :   -0.028721
  13 H :    0.047303
  14 H :    0.039318
  15 H :    0.023106
  16 S :    0.078848
  17 C :   -0.095154
  18 C :   -0.015429
  19 C :   -0.057815
  20 C :   -0.118584
  21 H :    0.019419
  22 C :    0.066220
  23 H :    0.027170
  24 H :    0.032961
  25 C :   -0.131063
  26 H :    0.041171
  27 H :    0.028638
  28 C :   -0.043362
  29 H :    0.043892
  30 H :    0.021440
  31 H :    0.059228
  32 H :    0.045577
  33 H :    0.061022
Sum of atomic charges:    0.0000000

LOEWDIN ATOMIC CHARGES
----------------------
   0 S :    0.413610
   1 C :   -0.178169
   2 C :   -0.070885
   3 C :   -0.063928
   4 C :   -0.214888
   5 H :    0.026862
   6 C :   -0.022496
   7 H :    0.021915
   8 H :    0.028830
   9 C :   -0.039416
  10 H :    0.023770
  11 H :    0.010224
  12 C :   -0.064223
  13 H :    0.032512
  14 H :    0.032483
  15 H :    0.025540
  16 S :    0.354151
  17 C :   -0.151477
  18 C :   -0.058079
  19 C :   -0.051324
  20 C :   -0.184740
  21 H :    0.028142
  22 C :   -0.040204
  23 H :    0.030158
  24 H :    0.031627
  25 C :   -0.046308
  26 H :    0.031903
  27 H :    0.021633
  28 C :   -0.069098
  29 H :    0.026446
  30 H :    0.023310
  31 H :    0.035577
  32 H :    0.028253
  33 H :    0.028289

  Mayer bond orders larger than 0.100000
B(  0-S ,  1-C ) :   1.1345 B(  0-S ,  4-C ) :   1.1647 B(  1-C ,  2-C ) :   1.5877
B(  1-C , 32-H ) :   0.9744 B(  2-C ,  3-C ) :   1.2579 B(  2-C ,  6-C ) :   1.0296
B(  3-C ,  4-C ) :   1.5436 B(  3-C ,  5-H ) :   0.9965 B(  4-C , 20-C ) :   1.0299
B(  6-C ,  7-H ) :   0.9387 B(  6-C ,  8-H ) :   0.9369 B(  6-C ,  9-C ) :   1.0749
B(  9-C , 10-H ) :   0.9527 B(  9-C , 11-H ) :   0.9525 B(  9-C , 12-C ) :   1.0731
B( 12-C , 13-H ) :   0.9742 B( 12-C , 14-H ) :   0.9743 B( 12-C , 15-H ) :   0.9690
B( 16-S , 17-C ) :   1.1146 B( 16-S , 20-C ) :   1.1198 B( 17-C , 18-C ) :   1.6683
B( 17-C , 33-H ) :   0.9667 B( 18-C , 19-C ) :   1.1686 B( 18-C , 21-H ) :   0.9941
B( 19-C , 20-C ) :   1.6646 B( 19-C , 22-C ) :   1.0261 B( 22-C , 23-H ) :   0.9429
B( 22-C , 24-H ) :   0.9391 B( 22-C , 25-C ) :   1.0604 B( 25-C , 26-H ) :   0.9572
B( 25-C , 27-H ) :   0.9567 B( 25-C , 28-C ) :   1.0739 B( 28-C , 29-H ) :   0.9730
B( 28-C , 30-H ) :   0.9714 B( 28-C , 31-H ) :   0.9717

Dispersion correction           -0.014978337
FINAL SINGLE POINT ENERGY     -1339.862976034143

DIPOLE MOMENT
-------------
                                X             Y             Z
Electronic contribution:      3.81876       4.04126     -27.65794
Nuclear contribution   :     -3.87381      -4.44915      28.41641
                        -----------------------------------------
Total Dipole Moment    :     -0.05505      -0.40789       0.75847
                        -----------------------------------------
Magnitude (a.u.)       :      0.86295
Magnitude (Debye)      :      2.19343

Rotational constants in cm-1:     0.019262     0.009444     0.006967
Rotational constants in MHz :   577.473815   283.130288   208.872723

                             ****ORCA TERMINATED NORMALLY****
TOTAL RUN TIME: 0 days 0 hours 0 minutes 34 seconds 465 msec
