                         Program Version 4.2.1 -  RELEASE  -
|  1> ! wB97X-D3 SP def2-SVP
|  2> %pal
|  3> nprocs 16
|  4> end
|  5>
|  6> * xyz 0 1
|  7> S 	 -101.093 	 42.9868 	 119.465
|  8> C 	 -100.234 	 41.5388 	 118.92
|  9> C 	 -99.3988 	 41.0515 	 119.894
| 10> C 	 -99.6734 	 41.6187 	 121.164
| 11> C 	 -100.541 	 42.7231 	 121.111
| 12> H 	 -99.2805 	 41.3307 	 122.113
| 13> C 	 -98.3201 	 39.9919 	 119.752
| 14> H 	 -97.4159 	 40.4465 	 119.888
| 15> H 	 -98.3938 	 39.6057 	 118.75
| 16> C 	 -98.5062 	 38.7356 	 120.689
| 17> H 	 -98.2435 	 39.0409 	 121.673
| 18> H 	 -99.5312 	 38.5126 	 120.879
| 19> C 	 -97.7681 	 37.4696 	 120.335
| 20> H 	 -97.8385 	 36.7583 	 121.158
| 21> H 	 -98.2108 	 36.994 	 119.501
| 22> H 	 -96.68 	 37.5936 	 120.24
| 23> S 	 -100.919 	 45.4505 	 121.663
| 24> C 	 -101.082 	 45.9575 	 123.323
| 25> C 	 -100.94 	 44.9132 	 124.176
| 26> C 	 -100.794 	 43.6543 	 123.534
| 27> C 	 -100.779 	 43.7361 	 122.173
| 28> H 	 -101.062 	 45.1526 	 125.167
| 29> C 	 -100.622 	 42.4233 	 124.352
| 30> H 	 -100.926 	 41.6201 	 123.738
| 31> H 	 -101.445 	 42.4335 	 125.122
| 32> C 	 -99.1946 	 42.1239 	 124.972
| 33> H 	 -98.771 	 42.8565 	 125.576
| 34> H 	 -98.5082 	 42.0672 	 124.116
| 35> C 	 -99.3017 	 40.8945 	 125.822
| 36> H 	 -99.1946 	 40.0569 	 125.184
| 37> H 	 -100.271 	 40.8223 	 126.251
| 38> H 	 -98.5497 	 40.958 	 126.647
| 39> H 	 -100.221 	 41.259 	 117.88
| 40> H 	 -101.266 	 46.9816 	 123.628
| 41> *
| 42>
| 43>                          ****END OF INPUT****

CARTESIAN COORDINATES (ANGSTROEM)
---------------------------------
  S    -101.093000   42.986800  119.465000
  C    -100.234000   41.538800  118.920000
  C    -99.398800   41.051500  119.894000
  C    -99.673400   41.618700  121.164000
  C    -100.541000   42.723100  121.111000
  H    -99.280500   41.330700  122.113000
  C    -98.320100   39.991900  119.752000
  H    -97.415900   40.446500  119.888000
  H    -98.393800   39.605700  118.750000
  C    -98.506200   38.735600  120.689000
  H    -98.243500   39.040900  121.673000
  H    -99.531200   38.512600  120.879000
  C    -97.768100   37.469600  120.335000
  H    -97.838500   36.758300  121.158000
  H    -98.210800   36.994000  119.501000
  H    -96.680000   37.593600  120.240000
  S    -100.919000   45.450500  121.663000
  C    -101.082000   45.957500  123.323000
  C    -100.940000   44.913200  124.176000
  C    -100.794000   43.654300  123.534000
  C    -100.779000   43.736100  122.173000
  H    -101.062000   45.152600  125.167000
  C    -100.622000   42.423300  124.352000
  H    -100.926000   41.620100  123.738000
  H    -101.445000   42.433500  125.122000
  C    -99.194600   42.123900  124.972000
  H    -98.771000   42.856500  125.576000
  H    -98.508200   42.067200  124.116000
  C    -99.301700   40.894500  125.822000
  H    -99.194600   40.056900  125.184000
  H    -100.271000   40.822300  126.251000
  H    -98.549700   40.958000  126.647000
  H    -100.221000   41.259000  117.880000
  H    -101.266000   46.981600  123.628000

 Total Charge           Charge          ....    0
 Multiplicity           Mult            ....    1
 Number of Electrons    NEL             ....  134
 Basis Dimension        Dim             ....  322

ORBITAL ENERGIES
----------------

  NO   OCC          E(Eh)            E(eV)
   0   2.0000     -88.966888     -2420.9121
   1   2.0000     -88.961424     -2420.7634
   2   2.0000     -10.335123      -281.2330
   3   2.0000     -10.329584      -281.0823
   4   2.0000     -10.314199      -280.6636
   5   2.0000     -10.312923      -280.6289
   6   2.0000     -10.301997      -280.3316
   7   2.0000     -10.297174      -280.2003
   8   2.0000     -10.293400      -280.0977
   9   2.0000     -10.292004      -280.0597
  10   2.0000     -10.288326      -279.9596
  11   2.0000     -10.285420      -279.8805
  12   2.0000     -10.282449      -279.7997
  13   2.0000     -10.282277      -279.7950
  14   2.0000     -10.277227      -279.6576
  15   2.0000     -10.274303      -279.5780
  16   2.0000      -8.081141      -219.8990
  17   2.0000      -8.075944      -219.7576
  18   2.0000      -6.039687      -164.3482
  19   2.0000      -6.035790      -164.2422
  20   2.0000      -6.034590      -164.2095
  21   2.0000      -6.031834      -164.1346
  22   2.0000      -6.030581      -164.1004
  23   2.0000      -6.026482      -163.9889
  24   2.0000      -1.004741       -27.3404
  25   2.0000      -0.984496       -26.7895
  26   2.0000      -0.912941       -24.8424
  27   2.0000      -0.911057       -24.7911
  28   2.0000      -0.870533       -23.6884
  29   2.0000      -0.859803       -23.3964
  30   2.0000      -0.847752       -23.0685
  31   2.0000      -0.817494       -22.2451
  32   2.0000      -0.785621       -21.3778
  33   2.0000      -0.772738       -21.0273
  34   2.0000      -0.713731       -19.4216
  35   2.0000      -0.708835       -19.2884
  36   2.0000      -0.696678       -18.9576
  37   2.0000      -0.664961       -18.0945
  38   2.0000      -0.642177       -17.4745
  39   2.0000      -0.623535       -16.9673
  40   2.0000      -0.597688       -16.2639
  41   2.0000      -0.575364       -15.6564
  42   2.0000      -0.569812       -15.5054
  43   2.0000      -0.561851       -15.2887
  44   2.0000      -0.535251       -14.5649
  45   2.0000      -0.527306       -14.3487
  46   2.0000      -0.521075       -14.1792
  47   2.0000      -0.514722       -14.0063
  48   2.0000      -0.508581       -13.8392
  49   2.0000      -0.496158       -13.5012
  50   2.0000      -0.492083       -13.3902
  51   2.0000      -0.483897       -13.1675
  52   2.0000      -0.478367       -13.0170
  53   2.0000      -0.466972       -12.7070
  54   2.0000      -0.460015       -12.5176
  55   2.0000      -0.452623       -12.3165
  56   2.0000      -0.444759       -12.1025
  57   2.0000      -0.442014       -12.0278
  58   2.0000      -0.433093       -11.7851
  59   2.0000      -0.429173       -11.6784
  60   2.0000      -0.421009       -11.4563
  61   2.0000      -0.417693       -11.3660
  62   2.0000      -0.412877       -11.2350
  63   2.0000      -0.356701        -9.7063
  64   2.0000      -0.332945        -9.0599
  65   2.0000      -0.328474        -8.9382
  66   2.0000      -0.285927        -7.7805
  67   0.0000       0.024382         0.6635
  68   0.0000       0.078634         2.1397
  69   0.0000       0.107045         2.9128
  70   0.0000       0.122869         3.3434
  71   0.0000       0.126939         3.4542

MULLIKEN ATOMIC CHARGES
-----------------------
   0 S :    0.096386
   1 C :   -0.120703
   2 C :   -0.092714
   3 C :    0.024411
   4 C :   -0.131023
   5 H :   -0.019449
   6 C :    0.145405
   7 H :    0.023690
   8 H :    0.005993
   9 C :   -0.085205
  10 H :    0.007823
  11 H :    0.020897
  12 C :   -0.026023
  13 H :    0.024905
  14 H :    0.030724
  15 H :    0.031735
  16 S :    0.079815
  17 C :   -0.091162
  18 C :    0.007983
  19 C :   -0.048471
  20 C :   -0.108687
  21 H :   -0.016976
  22 C :    0.019517
  23 H :    0.012267
  24 H :    0.028742
  25 C :   -0.037347
  26 H :    0.009825
  27 H :    0.025766
  28 C :   -0.001356
  29 H :    0.021429
  30 H :    0.019766
  31 H :    0.039682
  32 H :    0.046485
  33 H :    0.055875
Sum of atomic charges:   -0.0000000

LOEWDIN ATOMIC CHARGES
----------------------
   0 S :    0.394112
   1 C :   -0.190158
   2 C :   -0.056765
   3 C :   -0.062414
   4 C :   -0.180827
   5 H :    0.021727
   6 C :   -0.012769
   7 H :    0.022112
   8 H :    0.026632
   9 C :   -0.040636
  10 H :    0.015127
  11 H :    0.024022
  12 C :   -0.061554
  13 H :    0.030488
  14 H :    0.020461
  15 H :    0.027950
  16 S :    0.375151
  17 C :   -0.175361
  18 C :   -0.062944
  19 C :   -0.065154
  20 C :   -0.176404
  21 H :    0.019755
  22 C :   -0.033516
  23 H :    0.022421
  24 H :    0.035462
  25 C :   -0.031250
  26 H :    0.015088
  27 H :    0.023498
  28 C :   -0.055852
  29 H :    0.021123
  30 H :    0.021572
  31 H :    0.032848
  32 H :    0.025371
  33 H :    0.030683

  Mayer bond orders larger than 0.100000
B(  0-S ,  1-C ) :   1.1252 B(  0-S ,  4-C ) :   1.1579 B(  1-C ,  2-C ) :   1.6231
B(  1-C , 32-H ) :   0.9679 B(  2-C ,  3-C ) :   1.2370 B(  2-C ,  6-C ) :   1.0255
B(  3-C ,  4-C ) :   1.5539 B(  3-C ,  5-H ) :   0.9939 B(  4-C , 20-C ) :   1.0458
B(  6-C ,  7-H ) :   0.9319 B(  6-C ,  8-H ) :   0.9424 B(  6-C ,  9-C ) :   1.0490
B(  9-C , 10-H ) :   0.9477 B(  9-C , 11-H ) :   0.9586 B(  9-C , 12-C ) :   1.1042
B( 12-C , 13-H ) :   0.9692 B( 12-C , 14-H ) :   0.9750 B( 12-C , 15-H ) :   0.9726
B( 16-S , 17-C ) :   1.1411 B( 16-S , 20-C ) :   1.1137 B( 17-C , 18-C ) :   1.6370
B( 17-C , 33-H ) :   0.9658 B( 18-C , 19-C ) :   1.2030 B( 18-C , 21-H ) :   1.0101
B( 19-C , 20-C ) :   1.6322 B( 19-C , 22-C ) :   1.0612 B( 22-C , 23-H ) :   0.9288
B( 22-C , 24-H ) :   0.9282 B( 22-C , 25-C ) :   1.0506 B( 25-C , 26-H ) :   0.9590
B( 25-C , 27-H ) :   0.9527 B( 25-C , 28-C ) :   1.0717 B( 28-C , 29-H ) :   0.9746
B( 28-C , 30-H ) :   0.9705 B( 28-C , 31-H ) :   0.9772

Dispersion correction           -0.013977343
FINAL SINGLE POINT ENERGY     -1339.868912371214

DIPOLE MOMENT
-------------
                                X             Y             Z
Electronic contribution:    -14.04117      26.99499     -13.99924
Nuclear contribution   :     14.44931     -27.46922      14.50112
                        -----------------------------------------
Total Dipole Moment    :      0.40814      -0.47423       0.50187
                        -----------------------------------------
Magnitude (a.u.)       :      0.80209
Magnitude (Debye)      :      2.03875

Rotational constants in cm-1:     0.017105     0.009436     0.006320
Rotational constants in MHz :   512.784766   282.879264   189.461636

                             ****ORCA TERMINATED NORMALLY****
TOTAL RUN TIME: 0 days 0 hours 0 minutes 34 seconds 363 msec
