                         Program Version 4.2.1 -  RELEASE  -
|  1> ! wB97X-D3 SP def2-SVP
|  2> %pal
|  3> nprocs 16
|  4> end
|  5>
|  6> * xyz 0 1
|  7> S 	 14.1623 	 -2.27175 	 63.7849
|  8> C 	 14.497 	 -3.55249 	 62.6757
|  9> C 	 15.1105 	 -3.10401 	 61.4907
| 10> C 	 15.2085 	 -1.69783 	 61.5273
| 11> C 	 14.7816 	 -1.07138 	 62.7024
| 12> H 	 15.4257 	 -1.12796 	 60.6643
| 13> C 	 15.5587 	 -3.94274 	 60.3076
| 14> H 	 16.3813 	 -3.5074 	 59.708
| 15> H 	 14.8062 	 -4.08885 	 59.5918
| 16> C 	 15.8503 	 -5.42755 	 60.6358
| 17> H 	 16.6721 	 -5.57743 	 61.3865
| 18> H 	 14.983 	 -5.69255 	 61.1156
| 19> C 	 16.3085 	 -6.19725 	 59.3941
| 20> H 	 17.2754 	 -5.78693 	 58.9978
| 21> H 	 16.4001 	 -7.27279 	 59.6504
| 22> H 	 15.6141 	 -6.23697 	 58.4758
| 23> S 	 16.2779 	 1.04768 	 63.4851
| 24> C 	 15.5134 	 2.63648 	 63.5808
| 25> C 	 14.1922 	 2.6375 	 63.2495
| 26> C 	 13.7497 	 1.28685 	 62.805
| 27> C 	 14.7428 	 0.309635 	 62.9042
| 28> H 	 13.5712 	 3.4864 	 63.3904
| 29> C 	 12.337 	 1.04237 	 62.4844
| 30> H 	 12.0554 	 0.0699006 	 62.9144
| 31> H 	 12.2284 	 1.18096 	 61.3748
| 32> C 	 11.3045 	 1.9641 	 63.0962
| 33> H 	 10.2611 	 1.69344 	 62.7508
| 34> H 	 11.4033 	 2.9549 	 62.7636
| 35> C 	 11.1195 	 1.81086 	 64.6121
| 36> H 	 11.0479 	 0.762317 	 64.8965
| 37> H 	 10.2041 	 2.29564 	 64.9416
| 38> H 	 11.9724 	 2.2011 	 65.1997
| 39> H 	 14.2924 	 -4.48798 	 62.989
| 40> H 	 16.0138 	 3.6257 	 63.9245
| 41> *
| 42>
| 43>                          ****END OF INPUT****

CARTESIAN COORDINATES (ANGSTROEM)
---------------------------------
  S     14.162300   -2.271750   63.784900
  C     14.497000   -3.552490   62.675700
  C     15.110500   -3.104010   61.490700
  C     15.208500   -1.697830   61.527300
  C     14.781600   -1.071380   62.702400
  H     15.425700   -1.127960   60.664300
  C     15.558700   -3.942740   60.307600
  H     16.381300   -3.507400   59.708000
  H     14.806200   -4.088850   59.591800
  C     15.850300   -5.427550   60.635800
  H     16.672100   -5.577430   61.386500
  H     14.983000   -5.692550   61.115600
  C     16.308500   -6.197250   59.394100
  H     17.275400   -5.786930   58.997800
  H     16.400100   -7.272790   59.650400
  H     15.614100   -6.236970   58.475800
  S     16.277900    1.047680   63.485100
  C     15.513400    2.636480   63.580800
  C     14.192200    2.637500   63.249500
  C     13.749700    1.286850   62.805000
  C     14.742800    0.309635   62.904200
  H     13.571200    3.486400   63.390400
  C     12.337000    1.042370   62.484400
  H     12.055400    0.069901   62.914400
  H     12.228400    1.180960   61.374800
  C     11.304500    1.964100   63.096200
  H     10.261100    1.693440   62.750800
  H     11.403300    2.954900   62.763600
  C     11.119500    1.810860   64.612100
  H     11.047900    0.762317   64.896500
  H     10.204100    2.295640   64.941600
  H     11.972400    2.201100   65.199700
  H     14.292400   -4.487980   62.989000
  H     16.013800    3.625700   63.924500

 Total Charge           Charge          ....    0
 Multiplicity           Mult            ....    1
 Number of Electrons    NEL             ....  134
 Basis Dimension        Dim             ....  322

ORBITAL ENERGIES
----------------

  NO   OCC          E(Eh)            E(eV)
   0   2.0000     -88.968272     -2420.9498
   1   2.0000     -88.960501     -2420.7383
   2   2.0000     -10.323399      -280.9140
   3   2.0000     -10.322621      -280.8928
   4   2.0000     -10.321380      -280.8590
   5   2.0000     -10.310846      -280.5724
   6   2.0000     -10.306926      -280.4657
   7   2.0000     -10.305038      -280.4143
   8   2.0000     -10.292838      -280.0824
   9   2.0000     -10.292607      -280.0761
  10   2.0000     -10.290958      -280.0312
  11   2.0000     -10.289469      -279.9907
  12   2.0000     -10.288983      -279.9775
  13   2.0000     -10.286345      -279.9057
  14   2.0000     -10.284605      -279.8583
  15   2.0000     -10.275845      -279.6200
  16   2.0000      -8.083485      -219.9628
  17   2.0000      -8.074551      -219.7197
  18   2.0000      -6.041826      -164.4064
  19   2.0000      -6.037725      -164.2949
  20   2.0000      -6.034604      -164.2099
  21   2.0000      -6.033341      -164.1756
  22   2.0000      -6.029170      -164.0621
  23   2.0000      -6.025021      -163.9492
  24   2.0000      -1.006689       -27.3934
  25   2.0000      -0.978281       -26.6204
  26   2.0000      -0.915582       -24.9143
  27   2.0000      -0.912866       -24.8403
  28   2.0000      -0.874256       -23.7897
  29   2.0000      -0.853158       -23.2156
  30   2.0000      -0.842407       -22.9231
  31   2.0000      -0.812208       -22.1013
  32   2.0000      -0.783462       -21.3191
  33   2.0000      -0.768915       -20.9232
  34   2.0000      -0.716305       -19.4917
  35   2.0000      -0.702782       -19.1237
  36   2.0000      -0.687844       -18.7172
  37   2.0000      -0.658378       -17.9154
  38   2.0000      -0.651555       -17.7297
  39   2.0000      -0.616755       -16.7828
  40   2.0000      -0.594553       -16.1786
  41   2.0000      -0.574784       -15.6407
  42   2.0000      -0.566406       -15.4127
  43   2.0000      -0.562085       -15.2951
  44   2.0000      -0.537607       -14.6290
  45   2.0000      -0.519314       -14.1312
  46   2.0000      -0.517130       -14.0718
  47   2.0000      -0.513578       -13.9752
  48   2.0000      -0.508854       -13.8466
  49   2.0000      -0.501214       -13.6387
  50   2.0000      -0.485322       -13.2063
  51   2.0000      -0.479229       -13.0405
  52   2.0000      -0.469456       -12.7745
  53   2.0000      -0.462578       -12.5874
  54   2.0000      -0.457676       -12.4540
  55   2.0000      -0.452346       -12.3090
  56   2.0000      -0.442922       -12.0525
  57   2.0000      -0.437949       -11.9172
  58   2.0000      -0.433065       -11.7843
  59   2.0000      -0.424939       -11.5632
  60   2.0000      -0.421071       -11.4579
  61   2.0000      -0.419841       -11.4245
  62   2.0000      -0.401405       -10.9228
  63   2.0000      -0.334611        -9.1052
  64   2.0000      -0.327248        -8.9049
  65   2.0000      -0.317786        -8.6474
  66   2.0000      -0.307280        -8.3615
  67   0.0000       0.041660         1.1336
  68   0.0000       0.054300         1.4776
  69   0.0000       0.112150         3.0518
  70   0.0000       0.117418         3.1951
  71   0.0000       0.129528         3.5246

MULLIKEN ATOMIC CHARGES
-----------------------
   0 S :    0.132260
   1 C :   -0.113500
   2 C :   -0.025929
   3 C :    0.046213
   4 C :   -0.185273
   5 H :    0.000588
   6 C :    0.071150
   7 H :    0.026367
   8 H :    0.021347
   9 C :   -0.081203
  10 H :    0.040183
  11 H :    0.015339
  12 C :   -0.089563
  13 H :    0.045449
  14 H :    0.043256
  15 H :    0.037471
  16 S :    0.099251
  17 C :   -0.104000
  18 C :   -0.024938
  19 C :   -0.038862
  20 C :   -0.180088
  21 H :    0.014348
  22 C :    0.094411
  23 H :    0.025796
  24 H :    0.052042
  25 C :   -0.101049
  26 H :    0.029682
  27 H :    0.015948
  28 C :   -0.055650
  29 H :    0.025936
  30 H :    0.034768
  31 H :    0.037011
  32 H :    0.008614
  33 H :    0.082622
Sum of atomic charges:    0.0000000

LOEWDIN ATOMIC CHARGES
----------------------
   0 S :    0.438038
   1 C :   -0.184872
   2 C :   -0.056488
   3 C :   -0.044855
   4 C :   -0.222896
   5 H :    0.026248
   6 C :   -0.029895
   7 H :    0.031262
   8 H :    0.028260
   9 C :   -0.037480
  10 H :    0.030592
  11 H :    0.009945
  12 C :   -0.077157
  13 H :    0.032177
  14 H :    0.030931
  15 H :    0.029053
  16 S :    0.375726
  17 C :   -0.187391
  18 C :   -0.076136
  19 C :   -0.044207
  20 C :   -0.194300
  21 H :    0.027184
  22 C :   -0.039167
  23 H :    0.032729
  24 H :    0.047361
  25 C :   -0.046370
  26 H :    0.034497
  27 H :    0.010653
  28 C :   -0.067412
  29 H :    0.025280
  30 H :    0.025870
  31 H :    0.024585
  32 H :   -0.001662
  33 H :    0.049894

  Mayer bond orders larger than 0.100000
B(  0-S ,  1-C ) :   1.1769 B(  0-S ,  4-C ) :   1.1540 B(  1-C ,  2-C ) :   1.5351
B(  1-C ,  4-C ) :   0.1078 B(  1-C , 32-H ) :   0.9853 B(  2-C ,  3-C ) :   1.2964
B(  2-C ,  6-C ) :   1.0200 B(  3-C ,  4-C ) :   1.5389 B(  3-C ,  5-H ) :   0.9993
B(  4-C , 20-C ) :   1.0707 B(  6-C ,  7-H ) :   0.9492 B(  6-C ,  8-H ) :   0.9325
B(  6-C ,  9-C ) :   1.0475 B(  9-C , 10-H ) :   0.9597 B(  9-C , 11-H ) :   0.9534
B(  9-C , 12-C ) :   1.0793 B( 12-C , 13-H ) :   0.9730 B( 12-C , 14-H ) :   0.9729
B( 12-C , 15-H ) :   0.9737 B( 16-S , 17-C ) :   1.1399 B( 16-S , 20-C ) :   1.1043
B( 17-C , 18-C ) :   1.6629 B( 17-C , 33-H ) :   0.9471 B( 18-C , 19-C ) :   1.1889
B( 18-C , 21-H ) :   0.9871 B( 19-C , 20-C ) :   1.6384 B( 19-C , 22-C ) :   1.0541
B( 22-C , 23-H ) :   0.9359 B( 22-C , 24-H ) :   0.9131 B( 22-C , 25-C ) :   1.0978
B( 25-C , 26-H ) :   0.9529 B( 25-C , 27-H ) :   0.9438 B( 25-C , 28-C ) :   1.0737
B( 28-C , 29-H ) :   0.9713 B( 28-C , 30-H ) :   0.9767 B( 28-C , 31-H ) :   0.9743

Dispersion correction           -0.013931038
FINAL SINGLE POINT ENERGY     -1339.860059637029

DIPOLE MOMENT
-------------
                                X             Y             Z
Electronic contribution:      9.58951       8.72360      10.68109
Nuclear contribution   :     -9.99011      -8.79056     -11.03840
                        -----------------------------------------
Total Dipole Moment    :     -0.40059      -0.06696      -0.35731
                        -----------------------------------------
Magnitude (a.u.)       :      0.54095
Magnitude (Debye)      :      1.37499

Rotational constants in cm-1:     0.025980     0.006620     0.005964
Rotational constants in MHz :   778.850580   198.466608   178.787646

                             ****ORCA TERMINATED NORMALLY****
TOTAL RUN TIME: 0 days 0 hours 0 minutes 34 seconds 760 msec
