                         Program Version 4.2.1 -  RELEASE  -
|  1> ! wB97X-D3 SP def2-SVP
|  2> %pal
|  3> nprocs 16
|  4> end
|  5>
|  6> * xyz 0 1
|  7> S 	 60.4164 	 3.85975 	 74.592
|  8> C 	 59.8961 	 4.69556 	 76.0723
|  9> C 	 58.5308 	 4.89265 	 75.9832
| 10> C 	 57.9238 	 4.41898 	 74.8361
| 11> C 	 58.8094 	 3.84916 	 73.9097
| 12> H 	 56.8231 	 4.39149 	 74.7842
| 13> C 	 57.7808 	 5.58692 	 77.1053
| 14> H 	 58.332 	 5.64413 	 78.0551
| 15> H 	 56.9374 	 4.98894 	 77.2654
| 16> C 	 57.476 	 7.01723 	 76.781
| 17> H 	 58.4509 	 7.44402 	 76.6417
| 18> H 	 57.0257 	 7.04347 	 75.7521
| 19> C 	 56.5121 	 7.7088 	 77.7283
| 20> H 	 55.5796 	 7.20499 	 77.9298
| 21> H 	 57.0598 	 7.91268 	 78.5868
| 22> H 	 56.0838 	 8.6302 	 77.3151
| 23> S 	 59.0081 	 2.05221 	 71.86
| 24> C 	 58.853 	 2.57547 	 70.1765
| 25> C 	 58.4116 	 3.87479 	 70.1278
| 26> C 	 58.3295 	 4.46268 	 71.4452
| 27> C 	 58.5615 	 3.62452 	 72.476
| 28> H 	 58.2386 	 4.40956 	 69.1937
| 29> C 	 57.9451 	 5.89205 	 71.5241
| 30> H 	 58.3255 	 6.38426 	 70.5646
| 31> H 	 58.4498 	 6.42509 	 72.3473
| 32> C 	 56.4035 	 6.19054 	 71.7091
| 33> H 	 56.0867 	 5.55181 	 72.4816
| 34> H 	 55.9316 	 5.90153 	 70.7707
| 35> C 	 55.9354 	 7.59367 	 72.0923
| 36> H 	 56.2021 	 7.73962 	 73.1466
| 37> H 	 54.8317 	 7.55393 	 72.1505
| 38> H 	 56.3589 	 8.39428 	 71.5404
| 39> H 	 60.5439 	 5.01917 	 76.8505
| 40> H 	 59.1088 	 2.00897 	 69.2826
| 41> *
| 42>
| 43>                          ****END OF INPUT****

CARTESIAN COORDINATES (ANGSTROEM)
---------------------------------
  S     60.416400    3.859750   74.592000
  C     59.896100    4.695560   76.072300
  C     58.530800    4.892650   75.983200
  C     57.923800    4.418980   74.836100
  C     58.809400    3.849160   73.909700
  H     56.823100    4.391490   74.784200
  C     57.780800    5.586920   77.105300
  H     58.332000    5.644130   78.055100
  H     56.937400    4.988940   77.265400
  C     57.476000    7.017230   76.781000
  H     58.450900    7.444020   76.641700
  H     57.025700    7.043470   75.752100
  C     56.512100    7.708800   77.728300
  H     55.579600    7.204990   77.929800
  H     57.059800    7.912680   78.586800
  H     56.083800    8.630200   77.315100
  S     59.008100    2.052210   71.860000
  C     58.853000    2.575470   70.176500
  C     58.411600    3.874790   70.127800
  C     58.329500    4.462680   71.445200
  C     58.561500    3.624520   72.476000
  H     58.238600    4.409560   69.193700
  C     57.945100    5.892050   71.524100
  H     58.325500    6.384260   70.564600
  H     58.449800    6.425090   72.347300
  C     56.403500    6.190540   71.709100
  H     56.086700    5.551810   72.481600
  H     55.931600    5.901530   70.770700
  C     55.935400    7.593670   72.092300
  H     56.202100    7.739620   73.146600
  H     54.831700    7.553930   72.150500
  H     56.358900    8.394280   71.540400
  H     60.543900    5.019170   76.850500
  H     59.108800    2.008970   69.282600

 Total Charge           Charge          ....    0
 Multiplicity           Mult            ....    1
 Number of Electrons    NEL             ....  134
 Basis Dimension        Dim             ....  322

ORBITAL ENERGIES
----------------

  NO   OCC          E(Eh)            E(eV)
   0   2.0000     -88.967810     -2420.9372
   1   2.0000     -88.961457     -2420.7643
   2   2.0000     -10.335205      -281.2352
   3   2.0000     -10.324547      -280.9452
   4   2.0000     -10.320552      -280.8365
   5   2.0000     -10.316262      -280.7198
   6   2.0000     -10.299470      -280.2628
   7   2.0000     -10.296990      -280.1953
   8   2.0000     -10.296329      -280.1774
   9   2.0000     -10.295028      -280.1419
  10   2.0000     -10.292356      -280.0692
  11   2.0000     -10.284283      -279.8496
  12   2.0000     -10.283901      -279.8392
  13   2.0000     -10.281913      -279.7851
  14   2.0000     -10.277862      -279.6749
  15   2.0000     -10.274326      -279.5786
  16   2.0000      -8.082018      -219.9229
  17   2.0000      -8.076286      -219.7669
  18   2.0000      -6.040466      -164.3694
  19   2.0000      -6.036403      -164.2589
  20   2.0000      -6.034982      -164.2202
  21   2.0000      -6.033026      -164.1670
  22   2.0000      -6.030669      -164.1028
  23   2.0000      -6.026951      -164.0017
  24   2.0000      -1.008882       -27.4531
  25   2.0000      -0.987460       -26.8702
  26   2.0000      -0.920109       -25.0374
  27   2.0000      -0.903140       -24.5757
  28   2.0000      -0.871218       -23.7070
  29   2.0000      -0.852466       -23.1968
  30   2.0000      -0.848888       -23.0994
  31   2.0000      -0.819062       -22.2878
  32   2.0000      -0.785012       -21.3613
  33   2.0000      -0.771162       -20.9844
  34   2.0000      -0.708178       -19.2705
  35   2.0000      -0.701534       -19.0897
  36   2.0000      -0.692194       -18.8356
  37   2.0000      -0.667126       -18.1534
  38   2.0000      -0.642622       -17.4866
  39   2.0000      -0.626683       -17.0529
  40   2.0000      -0.592498       -16.1227
  41   2.0000      -0.571650       -15.5554
  42   2.0000      -0.571036       -15.5387
  43   2.0000      -0.563319       -15.3287
  44   2.0000      -0.532653       -14.4942
  45   2.0000      -0.523633       -14.2488
  46   2.0000      -0.519605       -14.1392
  47   2.0000      -0.515141       -14.0177
  48   2.0000      -0.510160       -13.8822
  49   2.0000      -0.504119       -13.7178
  50   2.0000      -0.497277       -13.5316
  51   2.0000      -0.486238       -13.2312
  52   2.0000      -0.474123       -12.9015
  53   2.0000      -0.465828       -12.6758
  54   2.0000      -0.459706       -12.5092
  55   2.0000      -0.451420       -12.2838
  56   2.0000      -0.443969       -12.0810
  57   2.0000      -0.432871       -11.7790
  58   2.0000      -0.430113       -11.7040
  59   2.0000      -0.417412       -11.3584
  60   2.0000      -0.416318       -11.3286
  61   2.0000      -0.413269       -11.2456
  62   2.0000      -0.410439       -11.1686
  63   2.0000      -0.339256        -9.2316
  64   2.0000      -0.336157        -9.1473
  65   2.0000      -0.326860        -8.8943
  66   2.0000      -0.302746        -8.2381
  67   0.0000       0.030566         0.8317
  68   0.0000       0.061116         1.6630
  69   0.0000       0.113509         3.0887
  70   0.0000       0.119547         3.2530
  71   0.0000       0.126125         3.4320

MULLIKEN ATOMIC CHARGES
-----------------------
   0 S :    0.118730
   1 C :   -0.118995
   2 C :   -0.101949
   3 C :    0.016865
   4 C :   -0.116685
   5 H :    0.029986
   6 C :    0.091972
   7 H :    0.014672
   8 H :    0.006205
   9 C :   -0.098954
  10 H :    0.018913
  11 H :    0.022654
  12 C :    0.016545
  13 H :    0.023351
  14 H :    0.021113
  15 H :    0.026620
  16 S :    0.085493
  17 C :   -0.088259
  18 C :   -0.027237
  19 C :   -0.025726
  20 C :   -0.165879
  21 H :    0.026491
  22 C :    0.024780
  23 H :    0.025982
  24 H :    0.027046
  25 C :   -0.057418
  26 H :    0.009813
  27 H :    0.021125
  28 C :   -0.024123
  29 H :    0.019564
  30 H :    0.038148
  31 H :    0.034408
  32 H :    0.042187
  33 H :    0.062559
Sum of atomic charges:   -0.0000000

LOEWDIN ATOMIC CHARGES
----------------------
   0 S :    0.411495
   1 C :   -0.183803
   2 C :   -0.065512
   3 C :   -0.067084
   4 C :   -0.196682
   5 H :    0.037782
   6 C :   -0.025413
   7 H :    0.028846
   8 H :    0.018964
   9 C :   -0.044315
  10 H :    0.023212
  11 H :    0.021880
  12 C :   -0.059751
  13 H :    0.027266
  14 H :    0.017356
  15 H :    0.031310
  16 S :    0.392353
  17 C :   -0.173253
  18 C :   -0.070792
  19 C :   -0.056374
  20 C :   -0.203351
  21 H :    0.034734
  22 C :   -0.038189
  23 H :    0.032924
  24 H :    0.029744
  25 C :   -0.034863
  26 H :    0.015460
  27 H :    0.019735
  28 C :   -0.063038
  29 H :    0.024849
  30 H :    0.034896
  31 H :    0.019886
  32 H :    0.025303
  33 H :    0.034424

  Mayer bond orders larger than 0.100000
B(  0-S ,  1-C ) :   1.1441 B(  0-S ,  4-C ) :   1.1799 B(  1-C ,  2-C ) :   1.5655
B(  1-C ,  4-C ) :   0.1092 B(  1-C , 32-H ) :   0.9781 B(  2-C ,  3-C ) :   1.3028
B(  2-C ,  6-C ) :   1.0237 B(  3-C ,  4-C ) :   1.5171 B(  3-C ,  5-H ) :   0.9875
B(  4-C , 20-C ) :   1.0086 B(  6-C ,  7-H ) :   0.9449 B(  6-C ,  8-H ) :   0.9330
B(  6-C ,  9-C ) :   1.0610 B(  9-C , 10-H ) :   0.9524 B(  9-C , 11-H ) :   0.9575
B(  9-C , 12-C ) :   1.0768 B( 12-C , 13-H ) :   0.9711 B( 12-C , 14-H ) :   0.9742
B( 12-C , 15-H ) :   0.9709 B( 16-S , 17-C ) :   1.1527 B( 16-S , 20-C ) :   1.1117
B( 17-C , 18-C ) :   1.6198 B( 17-C , 33-H ) :   0.9660 B( 18-C , 19-C ) :   1.2237
B( 18-C , 21-H ) :   0.9881 B( 19-C , 20-C ) :   1.6351 B( 19-C , 22-C ) :   1.0641
B( 22-C , 23-H ) :   0.9327 B( 22-C , 24-H ) :   0.9318 B( 22-C , 25-C ) :   1.0542
B( 25-C , 26-H ) :   0.9546 B( 25-C , 27-H ) :   0.9559 B( 25-C , 28-C ) :   1.0912
B( 28-C , 29-H ) :   0.9720 B( 28-C , 30-H ) :   0.9691 B( 28-C , 31-H ) :   0.9751

Dispersion correction           -0.014768262
FINAL SINGLE POINT ENERGY     -1339.873106301337

DIPOLE MOMENT
-------------
                                X             Y             Z
Electronic contribution:     18.48193     -26.07808      -8.85356
Nuclear contribution   :    -18.83195      26.71652       8.94984
                        -----------------------------------------
Total Dipole Moment    :     -0.35002       0.63844       0.09628
                        -----------------------------------------
Magnitude (a.u.)       :      0.73443
Magnitude (Debye)      :      1.86678

Rotational constants in cm-1:     0.018790     0.009398     0.006734
Rotational constants in MHz :   563.304101   281.757344   201.883430

                             ****ORCA TERMINATED NORMALLY****
TOTAL RUN TIME: 0 days 0 hours 0 minutes 31 seconds 373 msec
