                         Program Version 4.2.1 -  RELEASE  -
|  1> ! wB97X-D3 SP def2-SVP
|  2> %pal
|  3> nprocs 16
|  4> end
|  5>
|  6> * xyz 0 1
|  7> S 	 36.2935 	 -3.13541 	 67.2286
|  8> C 	 36.0807 	 -1.41031 	 67.247
|  9> C 	 34.8672 	 -1.00136 	 67.7058
| 10> C 	 33.9791 	 -2.09767 	 67.7703
| 11> C 	 34.5892 	 -3.30713 	 67.6412
| 12> H 	 32.9518 	 -2.05367 	 68.0271
| 13> C 	 34.2668 	 0.482542 	 67.747
| 14> H 	 33.1781 	 0.55766 	 67.8942
| 15> H 	 34.4347 	 0.83782 	 66.7367
| 16> C 	 34.9603 	 1.48947 	 68.7367
| 17> H 	 35.9974 	 1.18272 	 68.7923
| 18> H 	 35.0022 	 2.46716 	 68.3737
| 19> C 	 34.4206 	 1.50092 	 70.205
| 20> H 	 35.0798 	 2.03673 	 70.9412
| 21> H 	 33.4089 	 1.8521 	 70.3602
| 22> H 	 34.4158 	 0.432264 	 70.5067
| 23> S 	 34.1609 	 -5.54699 	 66.0532
| 24> C 	 32.9521 	 -6.66701 	 66.4748
| 25> C 	 32.2729 	 -6.31366 	 67.6125
| 26> C 	 32.85 	 -5.12831 	 68.2561
| 27> C 	 33.8169 	 -4.54315 	 67.4417
| 28> H 	 31.6032 	 -7.01363 	 67.9969
| 29> C 	 32.4577 	 -4.58539 	 69.6166
| 30> H 	 31.5875 	 -5.16491 	 70.0176
| 31> H 	 32.2155 	 -3.50181 	 69.71
| 32> C 	 33.4675 	 -4.78374 	 70.7241
| 33> H 	 34.4472 	 -4.2984 	 70.5054
| 34> H 	 33.7223 	 -5.85254 	 70.6791
| 35> C 	 33.0212 	 -4.53341 	 72.1423
| 36> H 	 33.8582 	 -4.76752 	 72.8615
| 37> H 	 32.1161 	 -5.11818 	 72.552
| 38> H 	 32.8262 	 -3.41758 	 72.2328
| 39> H 	 36.9797 	 -0.71157 	 67.0679
| 40> H 	 32.7902 	 -7.6363 	 65.9998
| 41> *
| 42>
| 43>                          ****END OF INPUT****

CARTESIAN COORDINATES (ANGSTROEM)
---------------------------------
  S     36.293500   -3.135410   67.228600
  C     36.080700   -1.410310   67.247000
  C     34.867200   -1.001360   67.705800
  C     33.979100   -2.097670   67.770300
  C     34.589200   -3.307130   67.641200
  H     32.951800   -2.053670   68.027100
  C     34.266800    0.482542   67.747000
  H     33.178100    0.557660   67.894200
  H     34.434700    0.837820   66.736700
  C     34.960300    1.489470   68.736700
  H     35.997400    1.182720   68.792300
  H     35.002200    2.467160   68.373700
  C     34.420600    1.500920   70.205000
  H     35.079800    2.036730   70.941200
  H     33.408900    1.852100   70.360200
  H     34.415800    0.432264   70.506700
  S     34.160900   -5.546990   66.053200
  C     32.952100   -6.667010   66.474800
  C     32.272900   -6.313660   67.612500
  C     32.850000   -5.128310   68.256100
  C     33.816900   -4.543150   67.441700
  H     31.603200   -7.013630   67.996900
  C     32.457700   -4.585390   69.616600
  H     31.587500   -5.164910   70.017600
  H     32.215500   -3.501810   69.710000
  C     33.467500   -4.783740   70.724100
  H     34.447200   -4.298400   70.505400
  H     33.722300   -5.852540   70.679100
  C     33.021200   -4.533410   72.142300
  H     33.858200   -4.767520   72.861500
  H     32.116100   -5.118180   72.552000
  H     32.826200   -3.417580   72.232800
  H     36.979700   -0.711570   67.067900
  H     32.790200   -7.636300   65.999800

 Total Charge           Charge          ....    0
 Multiplicity           Mult            ....    1
 Number of Electrons    NEL             ....  134
 Basis Dimension        Dim             ....  322

ORBITAL ENERGIES
----------------

  NO   OCC          E(Eh)            E(eV)
   0   2.0000     -88.971524     -2421.0382
   1   2.0000     -88.964375     -2420.8437
   2   2.0000     -10.326628      -281.0018
   3   2.0000     -10.325727      -280.9773
   4   2.0000     -10.321492      -280.8621
   5   2.0000     -10.312071      -280.6057
   6   2.0000     -10.307813      -280.4898
   7   2.0000     -10.305733      -280.4332
   8   2.0000     -10.304067      -280.3879
   9   2.0000     -10.294403      -280.1249
  10   2.0000     -10.291239      -280.0389
  11   2.0000     -10.289980      -280.0046
  12   2.0000     -10.288648      -279.9683
  13   2.0000     -10.286400      -279.9072
  14   2.0000     -10.283040      -279.8158
  15   2.0000     -10.280274      -279.7405
  16   2.0000      -8.086250      -220.0380
  17   2.0000      -8.080089      -219.8704
  18   2.0000      -6.044699      -164.4846
  19   2.0000      -6.040937      -164.3822
  20   2.0000      -6.038465      -164.3150
  21   2.0000      -6.036894      -164.2722
  22   2.0000      -6.034451      -164.2058
  23   2.0000      -6.030936      -164.1101
  24   2.0000      -1.011373       -27.5208
  25   2.0000      -0.989088       -26.9144
  26   2.0000      -0.910839       -24.7852
  27   2.0000      -0.900253       -24.4971
  28   2.0000      -0.869218       -23.6526
  29   2.0000      -0.853928       -23.2366
  30   2.0000      -0.845639       -23.0110
  31   2.0000      -0.813266       -22.1301
  32   2.0000      -0.781999       -21.2793
  33   2.0000      -0.770809       -20.9748
  34   2.0000      -0.705279       -19.1916
  35   2.0000      -0.698018       -18.9940
  36   2.0000      -0.679250       -18.4833
  37   2.0000      -0.663586       -18.0571
  38   2.0000      -0.640316       -17.4239
  39   2.0000      -0.618512       -16.8306
  40   2.0000      -0.599076       -16.3017
  41   2.0000      -0.572227       -15.5711
  42   2.0000      -0.563339       -15.3292
  43   2.0000      -0.550539       -14.9809
  44   2.0000      -0.532201       -14.4819
  45   2.0000      -0.515915       -14.0388
  46   2.0000      -0.514466       -13.9993
  47   2.0000      -0.509685       -13.8692
  48   2.0000      -0.499319       -13.5872
  49   2.0000      -0.493096       -13.4178
  50   2.0000      -0.487372       -13.2621
  51   2.0000      -0.482579       -13.1316
  52   2.0000      -0.471176       -12.8213
  53   2.0000      -0.463344       -12.6082
  54   2.0000      -0.459806       -12.5120
  55   2.0000      -0.452228       -12.3057
  56   2.0000      -0.449465       -12.2306
  57   2.0000      -0.438020       -11.9191
  58   2.0000      -0.428415       -11.6578
  59   2.0000      -0.425481       -11.5779
  60   2.0000      -0.418672       -11.3927
  61   2.0000      -0.417604       -11.3636
  62   2.0000      -0.402379       -10.9493
  63   2.0000      -0.351402        -9.5621
  64   2.0000      -0.335780        -9.1370
  65   2.0000      -0.329707        -8.9718
  66   2.0000      -0.293561        -7.9882
  67   0.0000       0.028430         0.7736
  68   0.0000       0.075585         2.0568
  69   0.0000       0.108480         2.9519
  70   0.0000       0.122228         3.3260
  71   0.0000       0.129061         3.5119

MULLIKEN ATOMIC CHARGES
-----------------------
   0 S :    0.118703
   1 C :   -0.170612
   2 C :   -0.031961
   3 C :    0.014475
   4 C :   -0.138763
   5 H :    0.009618
   6 C :    0.026483
   7 H :    0.034411
   8 H :    0.041856
   9 C :   -0.039639
  10 H :    0.019992
  11 H :    0.017880
  12 C :   -0.085433
  13 H :    0.044655
  14 H :    0.033225
  15 H :    0.031861
  16 S :    0.117652
  17 C :   -0.103349
  18 C :   -0.004190
  19 C :   -0.034825
  20 C :   -0.152368
  21 H :   -0.001092
  22 C :    0.059776
  23 H :    0.016443
  24 H :    0.030014
  25 C :   -0.094028
  26 H :    0.042085
  27 H :    0.017158
  28 C :   -0.094779
  29 H :    0.047638
  30 H :    0.048002
  31 H :    0.035882
  32 H :    0.080524
  33 H :    0.062707
Sum of atomic charges:   -0.0000000

LOEWDIN ATOMIC CHARGES
----------------------
   0 S :    0.403901
   1 C :   -0.204529
   2 C :   -0.067637
   3 C :   -0.048525
   4 C :   -0.194423
   5 H :    0.027832
   6 C :   -0.023866
   7 H :    0.030840
   8 H :    0.035802
   9 C :   -0.038853
  10 H :    0.024322
  11 H :    0.013947
  12 C :   -0.073881
  13 H :    0.032183
  14 H :    0.019618
  15 H :    0.028336
  16 S :    0.423382
  17 C :   -0.202451
  18 C :   -0.066532
  19 C :   -0.055125
  20 C :   -0.195298
  21 H :    0.021793
  22 C :   -0.040968
  23 H :    0.034607
  24 H :    0.029627
  25 C :   -0.056319
  26 H :    0.028625
  27 H :    0.021788
  28 C :   -0.081083
  29 H :    0.035379
  30 H :    0.032760
  31 H :    0.027303
  32 H :    0.042594
  33 H :    0.034849

  Mayer bond orders larger than 0.100000
B(  0-S ,  1-C ) :   1.1490 B(  0-S ,  4-C ) :   1.1312 B(  1-C ,  2-C ) :   1.6255
B(  1-C , 32-H ) :   0.9476 B(  2-C ,  3-C ) :   1.2316 B(  2-C ,  6-C ) :   0.9977
B(  3-C ,  4-C ) :   1.5927 B(  3-C ,  5-H ) :   0.9940 B(  4-C , 20-C ) :   1.0403
B(  6-C ,  7-H ) :   0.9602 B(  6-C ,  8-H ) :   0.9476 B(  6-C ,  9-C ) :   1.0545
B(  9-C , 10-H ) :   0.9595 B(  9-C , 11-H ) :   0.9597 B(  9-C , 12-C ) :   1.0688
B( 12-C , 13-H ) :   0.9763 B( 12-C , 14-H ) :   0.9785 B( 12-C , 15-H ) :   0.9785
B( 16-S , 17-C ) :   1.1625 B( 16-S , 20-C ) :   1.1438 B( 17-C , 18-C ) :   1.6251
B( 17-C , 33-H ) :   0.9617 B( 18-C , 19-C ) :   1.2341 B( 18-C , 21-H ) :   0.9957
B( 19-C , 20-C ) :   1.5951 B( 19-C , 22-C ) :   1.0526 B( 22-C , 23-H ) :   0.9318
B( 22-C , 24-H ) :   0.9353 B( 22-C , 25-C ) :   1.0584 B( 25-C , 26-H ) :   0.9486
B( 25-C , 27-H ) :   0.9482 B( 25-C , 28-C ) :   1.0918 B( 28-C , 29-H ) :   0.9709
B( 28-C , 30-H ) :   0.9703 B( 28-C , 31-H ) :   0.9713

Dispersion correction           -0.014085826
FINAL SINGLE POINT ENERGY     -1339.869870142381

DIPOLE MOMENT
-------------
                                X             Y             Z
Electronic contribution:      8.22577     -16.73382     -23.46517
Nuclear contribution   :     -8.43411      17.00615      23.74948
                        -----------------------------------------
Total Dipole Moment    :     -0.20834       0.27233       0.28432
                        -----------------------------------------
Magnitude (a.u.)       :      0.44543
Magnitude (Debye)      :      1.13219

Rotational constants in cm-1:     0.018102     0.008848     0.006767
Rotational constants in MHz :   542.672518   265.243267   202.861437

                             ****ORCA TERMINATED NORMALLY****
TOTAL RUN TIME: 0 days 0 hours 0 minutes 28 seconds 593 msec
