                         Program Version 4.2.1 -  RELEASE  -
|  1> ! wB97X-D3 SP def2-SVP
|  2> %pal
|  3> nprocs 16
|  4> end
|  5>
|  6> * xyz 0 1
|  7> S 	 38.4858 	 29.4771 	 94.2932
|  8> C 	 38.2351 	 30.4035 	 92.7921
|  9> C 	 37.5649 	 29.6827 	 91.8135
| 10> C 	 37.3305 	 28.3533 	 92.2123
| 11> C 	 37.9157 	 28.0192 	 93.4253
| 12> H 	 36.7572 	 27.6993 	 91.6948
| 13> C 	 36.9758 	 30.2759 	 90.5019
| 14> H 	 37.6036 	 31.111 	 90.1465
| 15> H 	 35.991 	 30.6893 	 90.8176
| 16> C 	 36.7649 	 29.2806 	 89.3422
| 17> H 	 36.2033 	 28.3746 	 89.6261
| 18> H 	 36.1227 	 29.8128 	 88.5229
| 19> C 	 38.0761 	 28.7592 	 88.8055
| 20> H 	 38.8574 	 29.5347 	 88.7282
| 21> H 	 38.4034 	 28.013 	 89.5251
| 22> H 	 37.9407 	 28.3463 	 87.7802
| 23> S 	 36.9275 	 26.6345 	 95.6627
| 24> C 	 37.0859 	 24.9329 	 95.7743
| 25> C 	 37.8637 	 24.5297 	 94.6442
| 26> C 	 38.2253 	 25.5172 	 93.7469
| 27> C 	 37.7463 	 26.739 	 94.1399
| 28> H 	 38.0409 	 23.4498 	 94.4934
| 29> C 	 39.0649 	 25.264 	 92.5702
| 30> H 	 39.683 	 24.4459 	 92.7033
| 31> H 	 39.7957 	 26.0468 	 92.4021
| 32> C 	 38.3566 	 24.9781 	 91.1795
| 33> H 	 37.903 	 25.9214 	 90.8713
| 34> H 	 37.5475 	 24.3163 	 91.1977
| 35> C 	 39.3477 	 24.5549 	 90.0676
| 36> H 	 39.7695 	 23.5586 	 90.1766
| 37> H 	 40.1168 	 25.2688 	 89.9368
| 38> H 	 38.8122 	 24.4598 	 89.0892
| 39> H 	 38.5481 	 31.4717 	 92.6339
| 40> H 	 36.6747 	 24.2442 	 96.4822
| 41> *
| 42>
| 43>                          ****END OF INPUT****

CARTESIAN COORDINATES (ANGSTROEM)
---------------------------------
  S     38.485800   29.477100   94.293200
  C     38.235100   30.403500   92.792100
  C     37.564900   29.682700   91.813500
  C     37.330500   28.353300   92.212300
  C     37.915700   28.019200   93.425300
  H     36.757200   27.699300   91.694800
  C     36.975800   30.275900   90.501900
  H     37.603600   31.111000   90.146500
  H     35.991000   30.689300   90.817600
  C     36.764900   29.280600   89.342200
  H     36.203300   28.374600   89.626100
  H     36.122700   29.812800   88.522900
  C     38.076100   28.759200   88.805500
  H     38.857400   29.534700   88.728200
  H     38.403400   28.013000   89.525100
  H     37.940700   28.346300   87.780200
  S     36.927500   26.634500   95.662700
  C     37.085900   24.932900   95.774300
  C     37.863700   24.529700   94.644200
  C     38.225300   25.517200   93.746900
  C     37.746300   26.739000   94.139900
  H     38.040900   23.449800   94.493400
  C     39.064900   25.264000   92.570200
  H     39.683000   24.445900   92.703300
  H     39.795700   26.046800   92.402100
  C     38.356600   24.978100   91.179500
  H     37.903000   25.921400   90.871300
  H     37.547500   24.316300   91.197700
  C     39.347700   24.554900   90.067600
  H     39.769500   23.558600   90.176600
  H     40.116800   25.268800   89.936800
  H     38.812200   24.459800   89.089200
  H     38.548100   31.471700   92.633900
  H     36.674700   24.244200   96.482200

 Total Charge           Charge          ....    0
 Multiplicity           Mult            ....    1
 Number of Electrons    NEL             ....  134
 Basis Dimension        Dim             ....  322

ORBITAL ENERGIES
----------------

  NO   OCC          E(Eh)            E(eV)
   0   2.0000     -88.970235     -2421.0032
   1   2.0000     -88.968376     -2420.9526
   2   2.0000     -10.333938      -281.2007
   3   2.0000     -10.321824      -280.8711
   4   2.0000     -10.320371      -280.8316
   5   2.0000     -10.317266      -280.7471
   6   2.0000     -10.303394      -280.3696
   7   2.0000     -10.302657      -280.3495
   8   2.0000     -10.297496      -280.2091
   9   2.0000     -10.292642      -280.0770
  10   2.0000     -10.291980      -280.0590
  11   2.0000     -10.289606      -279.9944
  12   2.0000     -10.284944      -279.8676
  13   2.0000     -10.282342      -279.7967
  14   2.0000     -10.279539      -279.7205
  15   2.0000     -10.278007      -279.6788
  16   2.0000      -8.083672      -219.9679
  17   2.0000      -8.083557      -219.9648
  18   2.0000      -6.042215      -164.4170
  19   2.0000      -6.041934      -164.4094
  20   2.0000      -6.038600      -164.3187
  21   2.0000      -6.037765      -164.2959
  22   2.0000      -6.034662      -164.2115
  23   2.0000      -6.034239      -164.2000
  24   2.0000      -1.009967       -27.4826
  25   2.0000      -0.984211       -26.7817
  26   2.0000      -0.910651       -24.7801
  27   2.0000      -0.908676       -24.7263
  28   2.0000      -0.864940       -23.5362
  29   2.0000      -0.856289       -23.3008
  30   2.0000      -0.846569       -23.0363
  31   2.0000      -0.811648       -22.0861
  32   2.0000      -0.783977       -21.3331
  33   2.0000      -0.772233       -21.0135
  34   2.0000      -0.709616       -19.3096
  35   2.0000      -0.703099       -19.1323
  36   2.0000      -0.687104       -18.6970
  37   2.0000      -0.661998       -18.0139
  38   2.0000      -0.639573       -17.4037
  39   2.0000      -0.628866       -17.1123
  40   2.0000      -0.602797       -16.4029
  41   2.0000      -0.564137       -15.3510
  42   2.0000      -0.560654       -15.2562
  43   2.0000      -0.553526       -15.0622
  44   2.0000      -0.538228       -14.6459
  45   2.0000      -0.527282       -14.3481
  46   2.0000      -0.517983       -14.0950
  47   2.0000      -0.512394       -13.9429
  48   2.0000      -0.504667       -13.7327
  49   2.0000      -0.494723       -13.4621
  50   2.0000      -0.488679       -13.2976
  51   2.0000      -0.481526       -13.1030
  52   2.0000      -0.471898       -12.8410
  53   2.0000      -0.463991       -12.6258
  54   2.0000      -0.458695       -12.4817
  55   2.0000      -0.449903       -12.2425
  56   2.0000      -0.446197       -12.1416
  57   2.0000      -0.439629       -11.9629
  58   2.0000      -0.434190       -11.8149
  59   2.0000      -0.429488       -11.6870
  60   2.0000      -0.425059       -11.5664
  61   2.0000      -0.415249       -11.2995
  62   2.0000      -0.412901       -11.2356
  63   2.0000      -0.342240        -9.3128
  64   2.0000      -0.333891        -9.0856
  65   2.0000      -0.330383        -8.9902
  66   2.0000      -0.291623        -7.9355
  67   0.0000       0.028991         0.7889
  68   0.0000       0.060287         1.6405
  69   0.0000       0.105637         2.8745
  70   0.0000       0.124664         3.3923
  71   0.0000       0.129810         3.5323

MULLIKEN ATOMIC CHARGES
-----------------------
   0 S :    0.108419
   1 C :   -0.147792
   2 C :   -0.083747
   3 C :    0.062882
   4 C :   -0.151061
   5 H :   -0.023854
   6 C :    0.066675
   7 H :    0.032892
   8 H :    0.053752
   9 C :   -0.128610
  10 H :    0.037707
  11 H :    0.046304
  12 C :   -0.053827
  13 H :    0.029485
  14 H :    0.041727
  15 H :    0.043686
  16 S :    0.130740
  17 C :   -0.099479
  18 C :   -0.067993
  19 C :    0.009466
  20 C :   -0.174424
  21 H :    0.021959
  22 C :    0.106819
  23 H :   -0.009778
  24 H :    0.022947
  25 C :   -0.045705
  26 H :    0.000382
  27 H :    0.013050
  28 C :   -0.051395
  29 H :    0.030578
  30 H :    0.027617
  31 H :    0.031934
  32 H :    0.063230
  33 H :    0.055414
Sum of atomic charges:   -0.0000000

LOEWDIN ATOMIC CHARGES
----------------------
   0 S :    0.380509
   1 C :   -0.195908
   2 C :   -0.065238
   3 C :   -0.045908
   4 C :   -0.170811
   5 H :    0.010683
   6 C :   -0.030418
   7 H :    0.032355
   8 H :    0.040254
   9 C :   -0.055079
  10 H :    0.023809
  11 H :    0.034172
  12 C :   -0.069038
  13 H :    0.024243
  14 H :    0.025765
  15 H :    0.031890
  16 S :    0.440190
  17 C :   -0.207684
  18 C :   -0.070532
  19 C :   -0.067985
  20 C :   -0.208846
  21 H :    0.031318
  22 C :   -0.024642
  23 H :    0.020245
  24 H :    0.035086
  25 C :   -0.027896
  26 H :    0.016788
  27 H :    0.014331
  28 C :   -0.064454
  29 H :    0.023123
  30 H :    0.018381
  31 H :    0.032977
  32 H :    0.037512
  33 H :    0.030808

  Mayer bond orders larger than 0.100000
B(  0-S ,  1-C ) :   1.1335 B(  0-S ,  4-C ) :   1.1396 B(  1-C ,  2-C ) :   1.6257
B(  1-C ,  4-C ) :   0.1026 B(  1-C , 32-H ) :   0.9590 B(  2-C ,  3-C ) :   1.2495
B(  2-C ,  6-C ) :   0.9969 B(  3-C ,  4-C ) :   1.5711 B(  3-C ,  5-H ) :   0.9982
B(  4-C , 20-C ) :   1.0308 B(  6-C ,  7-H ) :   0.9457 B(  6-C ,  8-H ) :   0.9387
B(  6-C ,  9-C ) :   1.0784 B(  9-C , 10-H ) :   0.9515 B(  9-C , 11-H ) :   0.9545
B(  9-C , 12-C ) :   1.0679 B( 12-C , 13-H ) :   0.9750 B( 12-C , 14-H ) :   0.9722
B( 12-C , 15-H ) :   0.9730 B( 16-S , 17-C ) :   1.1796 B( 16-S , 20-C ) :   1.1681
B( 17-C , 18-C ) :   1.5392 B( 17-C , 20-C ) :   0.1094 B( 17-C , 33-H ) :   0.9752
B( 18-C , 19-C ) :   1.3098 B( 18-C , 21-H ) :   0.9831 B( 19-C , 20-C ) :   1.5399
B( 19-C , 22-C ) :   1.0644 B( 22-C , 23-H ) :   0.9287 B( 22-C , 24-H ) :   0.9180
B( 22-C , 25-C ) :   1.0504 B( 25-C , 26-H ) :   0.9471 B( 25-C , 27-H ) :   0.9557
B( 25-C , 28-C ) :   1.0909 B( 28-C , 29-H ) :   0.9749 B( 28-C , 30-H ) :   0.9751
B( 28-C , 31-H ) :   0.9721

Dispersion correction           -0.015509811
FINAL SINGLE POINT ENERGY     -1339.874450320556

DIPOLE MOMENT
-------------
                                X             Y             Z
Electronic contribution:     -3.25447       6.43184      31.48509
Nuclear contribution   :      3.11961      -6.60131     -32.12697
                        -----------------------------------------
Total Dipole Moment    :     -0.13485      -0.16947      -0.64189
                        -----------------------------------------
Magnitude (a.u.)       :      0.67744
Magnitude (Debye)      :      1.72191

Rotational constants in cm-1:     0.016819     0.010728     0.007319
Rotational constants in MHz :   504.213088   321.629016   219.408133

                             ****ORCA TERMINATED NORMALLY****
TOTAL RUN TIME: 0 days 0 hours 0 minutes 32 seconds 565 msec
