                         Program Version 4.2.1 -  RELEASE  -
|  1> ! wB97X-D3 SP def2-SVP
|  2> %pal
|  3> nprocs 16
|  4> end
|  5>
|  6> * xyz 0 1
|  7> S 	 -106.591 	 42.37 	 132.135
|  8> C 	 -106.145 	 43.3329 	 133.532
|  9> C 	 -105.738 	 44.6093 	 133.135
| 10> C 	 -105.618 	 44.7022 	 131.747
| 11> C 	 -106.035 	 43.5762 	 131.036
| 12> H 	 -105.214 	 45.5909 	 131.193
| 13> C 	 -105.568 	 45.7969 	 134.091
| 14> H 	 -106.564 	 45.9461 	 134.629
| 15> H 	 -105.58 	 46.7252 	 133.407
| 16> C 	 -104.343 	 45.9627 	 135.002
| 17> H 	 -104.623 	 46.7823 	 135.69
| 18> H 	 -104.328 	 45.1095 	 135.7
| 19> C 	 -103.112 	 46.3886 	 134.171
| 20> H 	 -102.235 	 46.6331 	 134.843
| 21> H 	 -102.795 	 45.7133 	 133.449
| 22> H 	 -103.229 	 47.4156 	 133.683
| 23> S 	 -107.085 	 44.3268 	 128.621
| 24> C 	 -106.485 	 43.5731 	 127.144
| 25> C 	 -105.585 	 42.5905 	 127.45
| 26> C 	 -105.411 	 42.3751 	 128.857
| 27> C 	 -106.075 	 43.3175 	 129.623
| 28> H 	 -105.154 	 42.0421 	 126.603
| 29> C 	 -104.405 	 41.3517 	 129.434
| 30> H 	 -103.944 	 40.8392 	 128.582
| 31> H 	 -104.904 	 40.5384 	 129.969
| 32> C 	 -103.256 	 41.8838 	 130.247
| 33> H 	 -102.59 	 41.0579 	 130.428
| 34> H 	 -103.609 	 42.0789 	 131.207
| 35> C 	 -102.5 	 42.9774 	 129.452
| 36> H 	 -102.02 	 42.4749 	 128.578
| 37> H 	 -101.712 	 43.4208 	 130.112
| 38> H 	 -103.197 	 43.7947 	 129.022
| 39> H 	 -106.161 	 42.9469 	 134.511
| 40> H 	 -106.881 	 43.7401 	 126.108
| 41> *
| 42>
| 43>                          ****END OF INPUT****

CARTESIAN COORDINATES (ANGSTROEM)
---------------------------------
  S    -106.591000   42.370000  132.135000
  C    -106.145000   43.332900  133.532000
  C    -105.738000   44.609300  133.135000
  C    -105.618000   44.702200  131.747000
  C    -106.035000   43.576200  131.036000
  H    -105.214000   45.590900  131.193000
  C    -105.568000   45.796900  134.091000
  H    -106.564000   45.946100  134.629000
  H    -105.580000   46.725200  133.407000
  C    -104.343000   45.962700  135.002000
  H    -104.623000   46.782300  135.690000
  H    -104.328000   45.109500  135.700000
  C    -103.112000   46.388600  134.171000
  H    -102.235000   46.633100  134.843000
  H    -102.795000   45.713300  133.449000
  H    -103.229000   47.415600  133.683000
  S    -107.085000   44.326800  128.621000
  C    -106.485000   43.573100  127.144000
  C    -105.585000   42.590500  127.450000
  C    -105.411000   42.375100  128.857000
  C    -106.075000   43.317500  129.623000
  H    -105.154000   42.042100  126.603000
  C    -104.405000   41.351700  129.434000
  H    -103.944000   40.839200  128.582000
  H    -104.904000   40.538400  129.969000
  C    -103.256000   41.883800  130.247000
  H    -102.590000   41.057900  130.428000
  H    -103.609000   42.078900  131.207000
  C    -102.500000   42.977400  129.452000
  H    -102.020000   42.474900  128.578000
  H    -101.712000   43.420800  130.112000
  H    -103.197000   43.794700  129.022000
  H    -106.161000   42.946900  134.511000
  H    -106.881000   43.740100  126.108000

 Total Charge           Charge          ....    0
 Multiplicity           Mult            ....    1
 Number of Electrons    NEL             ....  134
 Basis Dimension        Dim             ....  322

ORBITAL ENERGIES
----------------

  NO   OCC          E(Eh)            E(eV)
   0   2.0000     -88.967524     -2420.9294
   1   2.0000     -88.963885     -2420.8304
   2   2.0000     -10.326078      -280.9869
   3   2.0000     -10.323882      -280.9271
   4   2.0000     -10.319845      -280.8172
   5   2.0000     -10.312237      -280.6102
   6   2.0000     -10.304995      -280.4132
   7   2.0000     -10.301972      -280.3309
   8   2.0000     -10.301897      -280.3289
   9   2.0000     -10.296145      -280.1723
  10   2.0000     -10.295710      -280.1605
  11   2.0000     -10.294736      -280.1340
  12   2.0000     -10.286220      -279.9023
  13   2.0000     -10.285896      -279.8935
  14   2.0000     -10.283790      -279.8361
  15   2.0000     -10.271943      -279.5138
  16   2.0000      -8.082175      -219.9272
  17   2.0000      -8.078556      -219.8287
  18   2.0000      -6.040535      -164.3713
  19   2.0000      -6.037079      -164.2773
  20   2.0000      -6.036523      -164.2621
  21   2.0000      -6.033272      -164.1737
  22   2.0000      -6.032955      -164.1650
  23   2.0000      -6.029404      -164.0684
  24   2.0000      -1.009266       -27.4635
  25   2.0000      -0.985078       -26.8053
  26   2.0000      -0.908561       -24.7232
  27   2.0000      -0.905928       -24.6515
  28   2.0000      -0.870482       -23.6870
  29   2.0000      -0.848338       -23.0845
  30   2.0000      -0.837745       -22.7962
  31   2.0000      -0.810998       -22.0684
  32   2.0000      -0.779298       -21.2058
  33   2.0000      -0.769266       -20.9328
  34   2.0000      -0.709265       -19.3001
  35   2.0000      -0.706132       -19.2148
  36   2.0000      -0.686350       -18.6765
  37   2.0000      -0.659304       -17.9406
  38   2.0000      -0.639300       -17.3962
  39   2.0000      -0.609853       -16.5950
  40   2.0000      -0.585818       -15.9409
  41   2.0000      -0.570353       -15.5201
  42   2.0000      -0.552764       -15.0415
  43   2.0000      -0.548379       -14.9221
  44   2.0000      -0.545560       -14.8454
  45   2.0000      -0.539788       -14.6884
  46   2.0000      -0.512422       -13.9437
  47   2.0000      -0.505046       -13.7430
  48   2.0000      -0.496935       -13.5223
  49   2.0000      -0.493755       -13.4358
  50   2.0000      -0.484648       -13.1880
  51   2.0000      -0.480321       -13.0702
  52   2.0000      -0.468967       -12.7612
  53   2.0000      -0.467373       -12.7179
  54   2.0000      -0.456392       -12.4191
  55   2.0000      -0.443020       -12.0552
  56   2.0000      -0.432799       -11.7771
  57   2.0000      -0.432161       -11.7597
  58   2.0000      -0.429356       -11.6834
  59   2.0000      -0.426508       -11.6059
  60   2.0000      -0.421589       -11.4720
  61   2.0000      -0.412303       -11.2193
  62   2.0000      -0.404982       -11.0201
  63   2.0000      -0.338031        -9.1983
  64   2.0000      -0.336194        -9.1483
  65   2.0000      -0.328066        -8.9271
  66   2.0000      -0.296936        -8.0800
  67   0.0000       0.030681         0.8349
  68   0.0000       0.066112         1.7990
  69   0.0000       0.109414         2.9773
  70   0.0000       0.123710         3.3663
  71   0.0000       0.127717         3.4754

MULLIKEN ATOMIC CHARGES
-----------------------
   0 S :    0.121676
   1 C :   -0.125034
   2 C :   -0.051568
   3 C :    0.020402
   4 C :   -0.187490
   5 H :    0.027704
   6 C :   -0.028418
   7 H :    0.051916
   8 H :    0.022328
   9 C :   -0.023732
  10 H :    0.029427
  11 H :    0.031874
  12 C :   -0.068747
  13 H :    0.038005
  14 H :    0.040168
  15 H :    0.037836
  16 S :    0.114452
  17 C :   -0.116147
  18 C :   -0.047484
  19 C :   -0.026721
  20 C :   -0.160115
  21 H :    0.027798
  22 C :    0.056145
  23 H :    0.003324
  24 H :    0.033171
  25 C :   -0.011536
  26 H :    0.017093
  27 H :    0.015947
  28 C :   -0.094537
  29 H :    0.032300
  30 H :    0.044617
  31 H :    0.064538
  32 H :    0.035335
  33 H :    0.075474
Sum of atomic charges:    0.0000000

LOEWDIN ATOMIC CHARGES
----------------------
   0 S :    0.430853
   1 C :   -0.189157
   2 C :   -0.070716
   3 C :   -0.069599
   4 C :   -0.209287
   5 H :    0.040187
   6 C :   -0.045666
   7 H :    0.040251
   8 H :    0.034064
   9 C :   -0.045876
  10 H :    0.031674
  11 H :    0.025557
  12 C :   -0.068876
  13 H :    0.033114
  14 H :    0.016249
  15 H :    0.036609
  16 S :    0.405738
  17 C :   -0.191237
  18 C :   -0.078167
  19 C :   -0.054554
  20 C :   -0.208314
  21 H :    0.036619
  22 C :   -0.034071
  23 H :    0.025986
  24 H :    0.030430
  25 C :   -0.040142
  26 H :    0.025702
  27 H :    0.011694
  28 C :   -0.072881
  29 H :    0.027195
  30 H :    0.028884
  31 H :    0.037352
  32 H :    0.017361
  33 H :    0.043023

  Mayer bond orders larger than 0.100000
B(  0-S ,  1-C ) :   1.1624 B(  0-S ,  4-C ) :   1.1745 B(  1-C ,  2-C ) :   1.5525
B(  1-C ,  4-C ) :   0.1149 B(  1-C , 32-H ) :   0.9827 B(  2-C ,  3-C ) :   1.2925
B(  2-C ,  6-C ) :   0.9965 B(  3-C ,  4-C ) :   1.5464 B(  3-C ,  5-H ) :   0.9851
B(  4-C , 20-C ) :   1.0289 B(  6-C ,  7-H ) :   0.9457 B(  6-C ,  8-H ) :   0.9460
B(  6-C ,  9-C ) :   1.0719 B(  9-C , 10-H ) :   0.9486 B(  9-C , 11-H ) :   0.9588
B(  9-C , 12-C ) :   1.0615 B( 12-C , 13-H ) :   0.9737 B( 12-C , 14-H ) :   0.9837
B( 12-C , 15-H ) :   0.9708 B( 16-S , 17-C ) :   1.1492 B( 16-S , 20-C ) :   1.1478
B( 17-C , 18-C ) :   1.6254 B( 17-C , 33-H ) :   0.9593 B( 18-C , 19-C ) :   1.2400
B( 18-C , 21-H ) :   0.9845 B( 19-C , 20-C ) :   1.5780 B( 19-C , 22-C ) :   1.0354
B( 22-C , 23-H ) :   0.9354 B( 22-C , 24-H ) :   0.9306 B( 22-C , 25-C ) :   1.0846
B( 25-C , 26-H ) :   0.9475 B( 25-C , 27-H ) :   0.9491 B( 25-C , 28-C ) :   1.0624
B( 28-C , 29-H ) :   0.9744 B( 28-C , 30-H ) :   0.9751 B( 28-C , 31-H ) :   0.9724

Dispersion correction           -0.015838622
FINAL SINGLE POINT ENERGY     -1339.878596604999

DIPOLE MOMENT
-------------
                                X             Y             Z
Electronic contribution:    -21.14458      -6.40737     -10.26369
Nuclear contribution   :     21.53228       6.46068      10.42828
                        -----------------------------------------
Total Dipole Moment    :      0.38770       0.05330       0.16459
                        -----------------------------------------
Magnitude (a.u.)       :      0.42455
Magnitude (Debye)      :      1.07911

Rotational constants in cm-1:     0.021123     0.008562     0.007937
Rotational constants in MHz :   633.236685   256.687868   237.938227

                             ****ORCA TERMINATED NORMALLY****
TOTAL RUN TIME: 0 days 0 hours 0 minutes 33 seconds 455 msec
