                         Program Version 4.2.1 -  RELEASE  -
|  1> ! wB97X-D3 SP def2-SVP
|  2> %pal
|  3> nprocs 16
|  4> end
|  5>
|  6> * xyz 0 1
|  7> S 	 -49.0568 	 60.5577 	 141.149
|  8> C 	 -47.8261 	 59.7614 	 142.1
|  9> C 	 -48.0273 	 59.9761 	 143.476
| 10> C 	 -49.2169 	 60.6823 	 143.747
| 11> C 	 -50.0433 	 60.915 	 142.634
| 12> H 	 -49.6098 	 60.9018 	 144.725
| 13> C 	 -47.0511 	 59.6798 	 144.642
| 14> H 	 -47.4094 	 58.8557 	 145.269
| 15> H 	 -47.1823 	 60.5664 	 145.214
| 16> C 	 -45.5472 	 59.6018 	 144.217
| 17> H 	 -45.4067 	 58.7331 	 143.641
| 18> H 	 -45.1865 	 60.451 	 143.684
| 19> C 	 -44.697 	 59.4746 	 145.443
| 20> H 	 -44.2971 	 60.4346 	 145.79
| 21> H 	 -45.2996 	 58.874 	 146.155
| 22> H 	 -43.7264 	 59.0827 	 145.419
| 23> S 	 -51.6923 	 62.6461 	 144.05
| 24> C 	 -53.1158 	 63.1721 	 143.341
| 25> C 	 -53.4009 	 62.4547 	 142.181
| 26> C 	 -52.3814 	 61.5459 	 141.775
| 27> C 	 -51.3309 	 61.6201 	 142.619
| 28> H 	 -54.3912 	 62.4842 	 141.739
| 29> C 	 -52.3253 	 60.865 	 140.452
| 30> H 	 -53.3502 	 60.5178 	 140.177
| 31> H 	 -51.6553 	 59.9843 	 140.416
| 32> C 	 -51.9736 	 61.8726 	 139.42
| 33> H 	 -51.0381 	 62.3894 	 139.786
| 34> H 	 -52.798 	 62.6307 	 139.3
| 35> C 	 -51.59 	 61.1369 	 138.108
| 36> H 	 -52.452 	 60.8303 	 137.5
| 37> H 	 -51.0799 	 60.2459 	 138.245
| 38> H 	 -51.0772 	 61.7622 	 137.387
| 39> H 	 -47.0862 	 59.2021 	 141.65
| 40> H 	 -53.7897 	 63.932 	 143.725
| 41> *
| 42>
| 43>                          ****END OF INPUT****

CARTESIAN COORDINATES (ANGSTROEM)
---------------------------------
  S    -49.056800   60.557700  141.149000
  C    -47.826100   59.761400  142.100000
  C    -48.027300   59.976100  143.476000
  C    -49.216900   60.682300  143.747000
  C    -50.043300   60.915000  142.634000
  H    -49.609800   60.901800  144.725000
  C    -47.051100   59.679800  144.642000
  H    -47.409400   58.855700  145.269000
  H    -47.182300   60.566400  145.214000
  C    -45.547200   59.601800  144.217000
  H    -45.406700   58.733100  143.641000
  H    -45.186500   60.451000  143.684000
  C    -44.697000   59.474600  145.443000
  H    -44.297100   60.434600  145.790000
  H    -45.299600   58.874000  146.155000
  H    -43.726400   59.082700  145.419000
  S    -51.692300   62.646100  144.050000
  C    -53.115800   63.172100  143.341000
  C    -53.400900   62.454700  142.181000
  C    -52.381400   61.545900  141.775000
  C    -51.330900   61.620100  142.619000
  H    -54.391200   62.484200  141.739000
  C    -52.325300   60.865000  140.452000
  H    -53.350200   60.517800  140.177000
  H    -51.655300   59.984300  140.416000
  C    -51.973600   61.872600  139.420000
  H    -51.038100   62.389400  139.786000
  H    -52.798000   62.630700  139.300000
  C    -51.590000   61.136900  138.108000
  H    -52.452000   60.830300  137.500000
  H    -51.079900   60.245900  138.245000
  H    -51.077200   61.762200  137.387000
  H    -47.086200   59.202100  141.650000
  H    -53.789700   63.932000  143.725000

 Total Charge           Charge          ....    0
 Multiplicity           Mult            ....    1
 Number of Electrons    NEL             ....  134
 Basis Dimension        Dim             ....  322

ORBITAL ENERGIES
----------------

  NO   OCC          E(Eh)            E(eV)
   0   2.0000     -88.967677     -2420.9336
   1   2.0000     -88.965757     -2420.8813
   2   2.0000     -10.336433      -281.2687
   3   2.0000     -10.325117      -280.9607
   4   2.0000     -10.316796      -280.7343
   5   2.0000     -10.309943      -280.5478
   6   2.0000     -10.303696      -280.3778
   7   2.0000     -10.298475      -280.2358
   8   2.0000     -10.294899      -280.1384
   9   2.0000     -10.292761      -280.0803
  10   2.0000     -10.291661      -280.0503
  11   2.0000     -10.289930      -280.0032
  12   2.0000     -10.289617      -279.9947
  13   2.0000     -10.280539      -279.7477
  14   2.0000     -10.270800      -279.4827
  15   2.0000     -10.268783      -279.4278
  16   2.0000      -8.081276      -219.9027
  17   2.0000      -8.080648      -219.8856
  18   2.0000      -6.039660      -164.3475
  19   2.0000      -6.039292      -164.3375
  20   2.0000      -6.035828      -164.2432
  21   2.0000      -6.035398      -164.2315
  22   2.0000      -6.031975      -164.1384
  23   2.0000      -6.031419      -164.1233
  24   2.0000      -1.008859       -27.4524
  25   2.0000      -0.981028       -26.6951
  26   2.0000      -0.921700       -25.0807
  27   2.0000      -0.910559       -24.7776
  28   2.0000      -0.867878       -23.6162
  29   2.0000      -0.854235       -23.2449
  30   2.0000      -0.850430       -23.1414
  31   2.0000      -0.806776       -21.9535
  32   2.0000      -0.784704       -21.3529
  33   2.0000      -0.770259       -20.9598
  34   2.0000      -0.714272       -19.4363
  35   2.0000      -0.698506       -19.0073
  36   2.0000      -0.693181       -18.8624
  37   2.0000      -0.670159       -18.2360
  38   2.0000      -0.638710       -17.3802
  39   2.0000      -0.613447       -16.6927
  40   2.0000      -0.601899       -16.3785
  41   2.0000      -0.575784       -15.6679
  42   2.0000      -0.567715       -15.4483
  43   2.0000      -0.563196       -15.3253
  44   2.0000      -0.529361       -14.4047
  45   2.0000      -0.527319       -14.3491
  46   2.0000      -0.520001       -14.1499
  47   2.0000      -0.518410       -14.1067
  48   2.0000      -0.503131       -13.6909
  49   2.0000      -0.498884       -13.5753
  50   2.0000      -0.491124       -13.3642
  51   2.0000      -0.480050       -13.0628
  52   2.0000      -0.466060       -12.6821
  53   2.0000      -0.461533       -12.5590
  54   2.0000      -0.456908       -12.4331
  55   2.0000      -0.449303       -12.2262
  56   2.0000      -0.446531       -12.1507
  57   2.0000      -0.441094       -12.0028
  58   2.0000      -0.436824       -11.8866
  59   2.0000      -0.425323       -11.5736
  60   2.0000      -0.418030       -11.3752
  61   2.0000      -0.409095       -11.1320
  62   2.0000      -0.406650       -11.0655
  63   2.0000      -0.357513        -9.7284
  64   2.0000      -0.333398        -9.0722
  65   2.0000      -0.327606        -8.9146
  66   2.0000      -0.279649        -7.6096
  67   0.0000       0.020548         0.5591
  68   0.0000       0.076236         2.0745
  69   0.0000       0.099811         2.7160
  70   0.0000       0.111802         3.0423
  71   0.0000       0.132927         3.6171

MULLIKEN ATOMIC CHARGES
-----------------------
   0 S :    0.077032
   1 C :   -0.105635
   2 C :   -0.065247
   3 C :   -0.025000
   4 C :   -0.104325
   5 H :    0.015865
   6 C :    0.046669
   7 H :    0.049204
   8 H :    0.026317
   9 C :   -0.033881
  10 H :    0.024217
  11 H :    0.030085
  12 C :   -0.043293
  13 H :    0.021882
  14 H :    0.032354
  15 H :    0.006818
  16 S :    0.100001
  17 C :   -0.070485
  18 C :   -0.053734
  19 C :   -0.024542
  20 C :   -0.145273
  21 H :    0.017887
  22 C :    0.035320
  23 H :    0.022251
  24 H :    0.041054
  25 C :   -0.098087
  26 H :    0.039781
  27 H :    0.045511
  28 C :   -0.006831
  29 H :    0.015938
  30 H :    0.014170
  31 H :    0.028661
  32 H :    0.024302
  33 H :    0.061016
Sum of atomic charges:    0.0000000

LOEWDIN ATOMIC CHARGES
----------------------
   0 S :    0.389180
   1 C :   -0.192650
   2 C :   -0.055920
   3 C :   -0.075981
   4 C :   -0.159753
   5 H :    0.023478
   6 C :   -0.024064
   7 H :    0.035177
   8 H :    0.030679
   9 C :   -0.033773
  10 H :    0.017385
  11 H :    0.025801
  12 C :   -0.073860
  13 H :    0.029770
  14 H :    0.029645
  15 H :    0.018886
  16 S :    0.416606
  17 C :   -0.200123
  18 C :   -0.076207
  19 C :   -0.052649
  20 C :   -0.181860
  21 H :    0.029219
  22 C :   -0.040933
  23 H :    0.033810
  24 H :    0.025596
  25 C :   -0.040848
  26 H :    0.024833
  27 H :    0.032077
  28 C :   -0.065260
  29 H :    0.026243
  30 H :    0.014578
  31 H :    0.025989
  32 H :    0.010485
  33 H :    0.034443

  Mayer bond orders larger than 0.100000
B(  0-S ,  1-C ) :   1.1376 B(  0-S ,  4-C ) :   1.1306 B(  1-C ,  2-C ) :   1.5815
B(  1-C ,  4-C ) :   0.1067 B(  1-C , 32-H ) :   0.9807 B(  2-C ,  3-C ) :   1.2835
B(  2-C ,  6-C ) :   0.9951 B(  3-C ,  4-C ) :   1.5545 B(  3-C ,  5-H ) :   0.9843
B(  4-C , 20-C ) :   1.0884 B(  6-C ,  7-H ) :   0.9331 B(  6-C ,  8-H ) :   0.9503
B(  6-C ,  9-C ) :   1.0765 B(  9-C , 10-H ) :   0.9505 B(  9-C , 11-H ) :   0.9605
B(  9-C , 12-C ) :   1.0852 B( 12-C , 13-H ) :   0.9708 B( 12-C , 14-H ) :   0.9738
B( 12-C , 15-H ) :   0.9666 B( 16-S , 17-C ) :   1.1730 B( 16-S , 20-C ) :   1.1205
B( 17-C , 18-C ) :   1.5990 B( 17-C , 33-H ) :   0.9668 B( 18-C , 19-C ) :   1.2309
B( 18-C , 21-H ) :   0.9868 B( 19-C , 20-C ) :   1.5909 B( 19-C , 22-C ) :   1.0720
B( 22-C , 23-H ) :   0.9184 B( 22-C , 24-H ) :   0.9322 B( 22-C , 25-C ) :   1.0603
B( 25-C , 26-H ) :   0.9561 B( 25-C , 27-H ) :   0.9518 B( 25-C , 28-C ) :   1.0749
B( 28-C , 29-H ) :   0.9694 B( 28-C , 30-H ) :   0.9742 B( 28-C , 31-H ) :   0.9743

Dispersion correction           -0.014032946
FINAL SINGLE POINT ENERGY     -1339.856171539294

DIPOLE MOMENT
-------------
                                X             Y             Z
Electronic contribution:    -11.88402       6.88151       4.29548
Nuclear contribution   :     11.90527      -6.95486      -4.25955
                        -----------------------------------------
Total Dipole Moment    :      0.02125      -0.07335       0.03593
                        -----------------------------------------
Magnitude (a.u.)       :      0.08440
Magnitude (Debye)      :      0.21452

Rotational constants in cm-1:     0.023053     0.007651     0.005910
Rotational constants in MHz :   691.108702   229.383242   177.172192

                             ****ORCA TERMINATED NORMALLY****
TOTAL RUN TIME: 0 days 0 hours 0 minutes 32 seconds 68 msec
