                         Program Version 4.2.1 -  RELEASE  -
|  1> ! wB97X-D3 SP def2-SVP
|  2> %pal
|  3> nprocs 16
|  4> end
|  5>
|  6> * xyz 0 1
|  7> S 	 -6.19834 	 -8.63156 	 86.1008
|  8> C 	 -5.1304 	 -8.87486 	 84.7118
|  9> C 	 -3.86276 	 -9.06799 	 85.1784
| 10> C 	 -3.74263 	 -9.02039 	 86.623
| 11> C 	 -4.92883 	 -8.81589 	 87.2968
| 12> H 	 -2.87132 	 -9.27039 	 87.2446
| 13> C 	 -2.70103 	 -9.45346 	 84.3212
| 14> H 	 -3.07485 	 -9.95906 	 83.4003
| 15> H 	 -2.16786 	 -10.2702 	 84.8808
| 16> C 	 -1.81062 	 -8.24062 	 83.9445
| 17> H 	 -2.5123 	 -7.51813 	 83.4588
| 18> H 	 -1.50062 	 -7.67877 	 84.8572
| 19> C 	 -0.629395 	 -8.45617 	 83.0053
| 20> H 	 -0.124277 	 -9.27967 	 83.5197
| 21> H 	 -0.936519 	 -8.81578 	 81.9879
| 22> H 	 0.0631617 	 -7.54599 	 82.8678
| 23> S 	 -6.3532 	 -10.4131 	 88.993
| 24> C 	 -6.17988 	 -10.2039 	 90.7729
| 25> C 	 -5.12601 	 -9.35352 	 91.0833
| 26> C 	 -4.62633 	 -8.69093 	 89.8912
| 27> C 	 -5.27716 	 -9.06297 	 88.6985
| 28> H 	 -4.78434 	 -9.20069 	 92.0505
| 29> C 	 -3.47386 	 -7.69778 	 89.8658
| 30> H 	 -3.61944 	 -7.11052 	 88.9851
| 31> H 	 -2.57767 	 -8.20584 	 89.5672
| 32> C 	 -3.21954 	 -6.84563 	 91.1264
| 33> H 	 -3.08687 	 -7.53804 	 91.8884
| 34> H 	 -4.18485 	 -6.35743 	 91.304
| 35> C 	 -2.03918 	 -5.90013 	 91.0394
| 36> H 	 -1.96643 	 -5.47543 	 90.0622
| 37> H 	 -1.0991 	 -6.44354 	 91.2326
| 38> H 	 -2.02306 	 -5.16724 	 91.8697
| 39> H 	 -5.46913 	 -8.94382 	 83.6489
| 40> H 	 -6.67606 	 -10.6929 	 91.5747
| 41> *
| 42>
| 43>                          ****END OF INPUT****

CARTESIAN COORDINATES (ANGSTROEM)
---------------------------------
  S     -6.198340   -8.631560   86.100800
  C     -5.130400   -8.874860   84.711800
  C     -3.862760   -9.067990   85.178400
  C     -3.742630   -9.020390   86.623000
  C     -4.928830   -8.815890   87.296800
  H     -2.871320   -9.270390   87.244600
  C     -2.701030   -9.453460   84.321200
  H     -3.074850   -9.959060   83.400300
  H     -2.167860  -10.270200   84.880800
  C     -1.810620   -8.240620   83.944500
  H     -2.512300   -7.518130   83.458800
  H     -1.500620   -7.678770   84.857200
  C     -0.629395   -8.456170   83.005300
  H     -0.124277   -9.279670   83.519700
  H     -0.936519   -8.815780   81.987900
  H      0.063162   -7.545990   82.867800
  S     -6.353200  -10.413100   88.993000
  C     -6.179880  -10.203900   90.772900
  C     -5.126010   -9.353520   91.083300
  C     -4.626330   -8.690930   89.891200
  C     -5.277160   -9.062970   88.698500
  H     -4.784340   -9.200690   92.050500
  C     -3.473860   -7.697780   89.865800
  H     -3.619440   -7.110520   88.985100
  H     -2.577670   -8.205840   89.567200
  C     -3.219540   -6.845630   91.126400
  H     -3.086870   -7.538040   91.888400
  H     -4.184850   -6.357430   91.304000
  C     -2.039180   -5.900130   91.039400
  H     -1.966430   -5.475430   90.062200
  H     -1.099100   -6.443540   91.232600
  H     -2.023060   -5.167240   91.869700
  H     -5.469130   -8.943820   83.648900
  H     -6.676060  -10.692900   91.574700

 Total Charge           Charge          ....    0
 Multiplicity           Mult            ....    1
 Number of Electrons    NEL             ....  134
 Basis Dimension        Dim             ....  322

ORBITAL ENERGIES
----------------

  NO   OCC          E(Eh)            E(eV)
   0   2.0000     -88.968408     -2420.9535
   1   2.0000     -88.962023     -2420.7797
   2   2.0000     -10.332910      -281.1728
   3   2.0000     -10.329175      -281.0711
   4   2.0000     -10.321587      -280.8647
   5   2.0000     -10.321196      -280.8540
   6   2.0000     -10.309156      -280.5264
   7   2.0000     -10.303847      -280.3819
   8   2.0000     -10.300180      -280.2821
   9   2.0000     -10.299472      -280.2629
  10   2.0000     -10.295869      -280.1648
  11   2.0000     -10.292327      -280.0685
  12   2.0000     -10.289469      -279.9907
  13   2.0000     -10.284750      -279.8623
  14   2.0000     -10.281686      -279.7789
  15   2.0000     -10.280674      -279.7514
  16   2.0000      -8.082013      -219.9228
  17   2.0000      -8.076701      -219.7782
  18   2.0000      -6.040744      -164.3770
  19   2.0000      -6.036747      -164.2682
  20   2.0000      -6.035359      -164.2305
  21   2.0000      -6.032492      -164.1525
  22   2.0000      -6.031029      -164.1127
  23   2.0000      -6.027460      -164.0155
  24   2.0000      -1.004882       -27.3442
  25   2.0000      -0.979960       -26.6661
  26   2.0000      -0.911333       -24.7986
  27   2.0000      -0.908887       -24.7321
  28   2.0000      -0.871604       -23.7175
  29   2.0000      -0.850102       -23.1324
  30   2.0000      -0.843115       -22.9423
  31   2.0000      -0.820605       -22.3298
  32   2.0000      -0.779589       -21.2137
  33   2.0000      -0.768727       -20.9181
  34   2.0000      -0.710763       -19.3408
  35   2.0000      -0.703072       -19.1316
  36   2.0000      -0.692800       -18.8520
  37   2.0000      -0.658041       -17.9062
  38   2.0000      -0.644393       -17.5348
  39   2.0000      -0.617632       -16.8066
  40   2.0000      -0.594492       -16.1770
  41   2.0000      -0.570295       -15.5185
  42   2.0000      -0.568547       -15.4709
  43   2.0000      -0.555457       -15.1148
  44   2.0000      -0.530755       -14.4426
  45   2.0000      -0.524147       -14.2628
  46   2.0000      -0.521092       -14.1796
  47   2.0000      -0.514847       -14.0097
  48   2.0000      -0.504876       -13.7384
  49   2.0000      -0.501794       -13.6545
  50   2.0000      -0.494584       -13.4583
  51   2.0000      -0.479409       -13.0454
  52   2.0000      -0.474787       -12.9196
  53   2.0000      -0.462981       -12.5984
  54   2.0000      -0.458789       -12.4843
  55   2.0000      -0.452651       -12.3173
  56   2.0000      -0.445667       -12.1272
  57   2.0000      -0.431131       -11.7317
  58   2.0000      -0.429082       -11.6759
  59   2.0000      -0.424353       -11.5472
  60   2.0000      -0.419295       -11.4096
  61   2.0000      -0.418064       -11.3761
  62   2.0000      -0.406173       -11.0525
  63   2.0000      -0.350012        -9.5243
  64   2.0000      -0.328788        -8.9468
  65   2.0000      -0.325580        -8.8595
  66   2.0000      -0.296932        -8.0799
  67   0.0000       0.024207         0.6587
  68   0.0000       0.068649         1.8680
  69   0.0000       0.106161         2.8888
  70   0.0000       0.120093         3.2679
  71   0.0000       0.128639         3.5004

MULLIKEN ATOMIC CHARGES
-----------------------
   0 S :    0.087112
   1 C :   -0.126313
   2 C :   -0.091407
   3 C :    0.036970
   4 C :   -0.173333
   5 H :    0.022659
   6 C :    0.038001
   7 H :    0.024222
   8 H :    0.035941
   9 C :   -0.095395
  10 H :    0.024930
  11 H :    0.033257
  12 C :   -0.056726
  13 H :    0.030276
  14 H :    0.038773
  15 H :    0.058766
  16 S :    0.112198
  17 C :   -0.067779
  18 C :   -0.017759
  19 C :   -0.065292
  20 C :   -0.123102
  21 H :   -0.001281
  22 C :    0.061927
  23 H :    0.015965
  24 H :    0.018825
  25 C :   -0.060652
  26 H :    0.014874
  27 H :    0.034289
  28 C :   -0.023673
  29 H :    0.033155
  30 H :    0.024523
  31 H :    0.038889
  32 H :    0.072805
  33 H :    0.044353
Sum of atomic charges:   -0.0000000

LOEWDIN ATOMIC CHARGES
----------------------
   0 S :    0.391359
   1 C :   -0.191715
   2 C :   -0.069477
   3 C :   -0.062925
   4 C :   -0.196571
   5 H :    0.035258
   6 C :   -0.037240
   7 H :    0.031630
   8 H :    0.033405
   9 C :   -0.052998
  10 H :    0.024297
  11 H :    0.027506
  12 C :   -0.077364
  13 H :    0.025280
  14 H :    0.027670
  15 H :    0.039735
  16 S :    0.396812
  17 C :   -0.162887
  18 C :   -0.060524
  19 C :   -0.045321
  20 C :   -0.207696
  21 H :    0.020438
  22 C :   -0.036432
  23 H :    0.027202
  24 H :    0.025328
  25 C :   -0.038021
  26 H :    0.012539
  27 H :    0.027786
  28 C :   -0.061809
  29 H :    0.023358
  30 H :    0.028816
  31 H :    0.032745
  32 H :    0.044175
  33 H :    0.025643

  Mayer bond orders larger than 0.100000
B(  0-S ,  1-C ) :   1.1260 B(  0-S ,  4-C ) :   1.1493 B(  1-C ,  2-C ) :   1.6222
B(  1-C , 32-H ) :   0.9662 B(  2-C ,  3-C ) :   1.2254 B(  2-C ,  6-C ) :   1.0296
B(  3-C ,  4-C ) :   1.5792 B(  3-C ,  5-H ) :   0.9873 B(  4-C , 20-C ) :   1.0248
B(  6-C ,  7-H ) :   0.9440 B(  6-C ,  8-H ) :   0.9396 B(  6-C ,  9-C ) :   1.0481
B(  9-C , 10-H ) :   0.9545 B(  9-C , 11-H ) :   0.9569 B(  9-C , 12-C ) :   1.0714
B( 12-C , 13-H ) :   0.9745 B( 12-C , 14-H ) :   0.9738 B( 12-C , 15-H ) :   0.9728
B( 16-S , 17-C ) :   1.1438 B( 16-S , 20-C ) :   1.1331 B( 17-C , 18-C ) :   1.6148
B( 17-C , 33-H ) :   0.9672 B( 18-C , 19-C ) :   1.2349 B( 18-C , 21-H ) :   0.9989
B( 19-C , 20-C ) :   1.5955 B( 19-C , 22-C ) :   1.0460 B( 22-C , 23-H ) :   0.9251
B( 22-C , 24-H ) :   0.9223 B( 22-C , 25-C ) :   1.0588 B( 25-C , 26-H ) :   0.9491
B( 25-C , 27-H ) :   0.9611 B( 25-C , 28-C ) :   1.0893 B( 28-C , 29-H ) :   0.9773
B( 28-C , 30-H ) :   0.9706 B( 28-C , 31-H ) :   0.9721

Dispersion correction           -0.013444166
FINAL SINGLE POINT ENERGY     -1339.872752711187

DIPOLE MOMENT
-------------
                                X             Y             Z
Electronic contribution:    -26.95366     -11.61462       2.90245
Nuclear contribution   :     27.67125      11.56827      -2.79194
                        -----------------------------------------
Total Dipole Moment    :      0.71760      -0.04635       0.11051
                        -----------------------------------------
Magnitude (a.u.)       :      0.72753
Magnitude (Debye)      :      1.84924

Rotational constants in cm-1:     0.016936     0.008138     0.006037
Rotational constants in MHz :   507.719879   243.964627   180.983198

                             ****ORCA TERMINATED NORMALLY****
TOTAL RUN TIME: 0 days 0 hours 0 minutes 33 seconds 632 msec
