                         Program Version 4.2.1 -  RELEASE  -
|  1> ! wB97X-D3 SP def2-SVP
|  2> %pal
|  3> nprocs 16
|  4> end
|  5>
|  6> * xyz 0 1
|  7> S 	 2.13909 	 -20.847 	 87.9134
|  8> C 	 1.56449 	 -20.2868 	 86.3075
|  9> C 	 2.59102 	 -19.7182 	 85.6001
| 10> C 	 3.75739 	 -19.6077 	 86.3457
| 11> C 	 3.81516 	 -20.3157 	 87.538
| 12> H 	 4.7006 	 -19.1068 	 86.0489
| 13> C 	 2.47459 	 -19.1462 	 84.237
| 14> H 	 2.62804 	 -18.0706 	 84.3464
| 15> H 	 1.36243 	 -19.1622 	 84.0129
| 16> C 	 3.31168 	 -19.9018 	 83.1759
| 17> H 	 2.96744 	 -19.5298 	 82.2224
| 18> H 	 4.35555 	 -19.5816 	 83.3291
| 19> C 	 3.21806 	 -21.3536 	 83.2474
| 20> H 	 3.77554 	 -21.6836 	 84.1178
| 21> H 	 2.24835 	 -21.6572 	 83.2355
| 22> H 	 3.71761 	 -21.8362 	 82.3251
| 23> S 	 4.88456 	 -19.3528 	 89.9616
| 24> C 	 6.6312 	 -19.6034 	 90.2378
| 25> C 	 7.17875 	 -20.3267 	 89.1631
| 26> C 	 6.18993 	 -20.8338 	 88.2501
| 27> C 	 4.89273 	 -20.3562 	 88.4959
| 28> H 	 8.25594 	 -20.3548 	 88.9528
| 29> C 	 6.46304 	 -21.7015 	 87.0073
| 30> H 	 5.52141 	 -22.0526 	 86.5862
| 31> H 	 6.99322 	 -22.5524 	 87.3809
| 32> C 	 7.3338 	 -21.0391 	 85.8967
| 33> H 	 8.38235 	 -20.7079 	 86.2974
| 34> H 	 6.77471 	 -20.2569 	 85.4017
| 35> C 	 7.60077 	 -22.0447 	 84.7823
| 36> H 	 6.68309 	 -22.0958 	 84.0913
| 37> H 	 7.63391 	 -23.0625 	 85.3119
| 38> H 	 8.50615 	 -21.9087 	 84.1408
| 39> H 	 0.564982 	 -20.3487 	 85.982
| 40> H 	 7.26298 	 -19.0704 	 90.9312
| 41> *
| 42>
| 43>                          ****END OF INPUT****

CARTESIAN COORDINATES (ANGSTROEM)
---------------------------------
  S      2.139090  -20.847000   87.913400
  C      1.564490  -20.286800   86.307500
  C      2.591020  -19.718200   85.600100
  C      3.757390  -19.607700   86.345700
  C      3.815160  -20.315700   87.538000
  H      4.700600  -19.106800   86.048900
  C      2.474590  -19.146200   84.237000
  H      2.628040  -18.070600   84.346400
  H      1.362430  -19.162200   84.012900
  C      3.311680  -19.901800   83.175900
  H      2.967440  -19.529800   82.222400
  H      4.355550  -19.581600   83.329100
  C      3.218060  -21.353600   83.247400
  H      3.775540  -21.683600   84.117800
  H      2.248350  -21.657200   83.235500
  H      3.717610  -21.836200   82.325100
  S      4.884560  -19.352800   89.961600
  C      6.631200  -19.603400   90.237800
  C      7.178750  -20.326700   89.163100
  C      6.189930  -20.833800   88.250100
  C      4.892730  -20.356200   88.495900
  H      8.255940  -20.354800   88.952800
  C      6.463040  -21.701500   87.007300
  H      5.521410  -22.052600   86.586200
  H      6.993220  -22.552400   87.380900
  C      7.333800  -21.039100   85.896700
  H      8.382350  -20.707900   86.297400
  H      6.774710  -20.256900   85.401700
  C      7.600770  -22.044700   84.782300
  H      6.683090  -22.095800   84.091300
  H      7.633910  -23.062500   85.311900
  H      8.506150  -21.908700   84.140800
  H      0.564982  -20.348700   85.982000
  H      7.262980  -19.070400   90.931200

 Total Charge           Charge          ....    0
 Multiplicity           Mult            ....    1
 Number of Electrons    NEL             ....  134
 Basis Dimension        Dim             ....  322

ORBITAL ENERGIES
----------------

  NO   OCC          E(Eh)            E(eV)
   0   2.0000     -88.968387     -2420.9529
   1   2.0000     -88.964022     -2420.8341
   2   2.0000     -10.333108      -281.1782
   3   2.0000     -10.328391      -281.0498
   4   2.0000     -10.326749      -281.0051
   5   2.0000     -10.315995      -280.7125
   6   2.0000     -10.308383      -280.5054
   7   2.0000     -10.302872      -280.3554
   8   2.0000     -10.297686      -280.2143
   9   2.0000     -10.295842      -280.1641
  10   2.0000     -10.295405      -280.1522
  11   2.0000     -10.294803      -280.1358
  12   2.0000     -10.293901      -280.1113
  13   2.0000     -10.291283      -280.0400
  14   2.0000     -10.286018      -279.8968
  15   2.0000     -10.272078      -279.5174
  16   2.0000      -8.081898      -219.9196
  17   2.0000      -8.077466      -219.7990
  18   2.0000      -6.040537      -164.3714
  19   2.0000      -6.036537      -164.2625
  20   2.0000      -6.036023      -164.2485
  21   2.0000      -6.032587      -164.1550
  22   2.0000      -6.032163      -164.1435
  23   2.0000      -6.028239      -164.0367
  24   2.0000      -1.001790       -27.2601
  25   2.0000      -0.979289       -26.6478
  26   2.0000      -0.920588       -25.0505
  27   2.0000      -0.906957       -24.6795
  28   2.0000      -0.873349       -23.7650
  29   2.0000      -0.849970       -23.1289
  30   2.0000      -0.844706       -22.9856
  31   2.0000      -0.815565       -22.1926
  32   2.0000      -0.782946       -21.3050
  33   2.0000      -0.767221       -20.8771
  34   2.0000      -0.710352       -19.3297
  35   2.0000      -0.697545       -18.9812
  36   2.0000      -0.690866       -18.7994
  37   2.0000      -0.657794       -17.8995
  38   2.0000      -0.642765       -17.4905
  39   2.0000      -0.618634       -16.8339
  40   2.0000      -0.592690       -16.1279
  41   2.0000      -0.573525       -15.6064
  42   2.0000      -0.570577       -15.5262
  43   2.0000      -0.560276       -15.2459
  44   2.0000      -0.546581       -14.8732
  45   2.0000      -0.525155       -14.2902
  46   2.0000      -0.520248       -14.1567
  47   2.0000      -0.514101       -13.9894
  48   2.0000      -0.508405       -13.8344
  49   2.0000      -0.496947       -13.5226
  50   2.0000      -0.483340       -13.1524
  51   2.0000      -0.478876       -13.0309
  52   2.0000      -0.470915       -12.8142
  53   2.0000      -0.466765       -12.7013
  54   2.0000      -0.459428       -12.5017
  55   2.0000      -0.452490       -12.3129
  56   2.0000      -0.441977       -12.0268
  57   2.0000      -0.432490       -11.7686
  58   2.0000      -0.424606       -11.5541
  59   2.0000      -0.423567       -11.5258
  60   2.0000      -0.420329       -11.4377
  61   2.0000      -0.417423       -11.3587
  62   2.0000      -0.412202       -11.2166
  63   2.0000      -0.339059        -9.2263
  64   2.0000      -0.330081        -8.9820
  65   2.0000      -0.327608        -8.9147
  66   2.0000      -0.300694        -8.1823
  67   0.0000       0.026424         0.7190
  68   0.0000       0.052398         1.4258
  69   0.0000       0.109592         2.9821
  70   0.0000       0.113301         3.0831
  71   0.0000       0.119323         3.2469

MULLIKEN ATOMIC CHARGES
-----------------------
   0 S :    0.088452
   1 C :   -0.101170
   2 C :   -0.101393
   3 C :    0.028746
   4 C :   -0.197427
   5 H :    0.027060
   6 C :    0.051239
   7 H :    0.041337
   8 H :    0.012973
   9 C :   -0.054686
  10 H :    0.026113
  11 H :    0.026768
  12 C :   -0.011755
  13 H :    0.044004
  14 H :    0.007921
  15 H :    0.040794
  16 S :    0.107749
  17 C :   -0.091771
  18 C :   -0.044626
  19 C :   -0.048380
  20 C :   -0.127832
  21 H :    0.035547
  22 C :    0.064952
  23 H :    0.038308
  24 H :    0.025044
  25 C :   -0.084611
  26 H :    0.047554
  27 H :    0.026857
  28 C :   -0.099767
  29 H :    0.040296
  30 H :    0.032815
  31 H :    0.053128
  32 H :    0.031608
  33 H :    0.064152
Sum of atomic charges:    0.0000000

LOEWDIN ATOMIC CHARGES
----------------------
   0 S :    0.364907
   1 C :   -0.167119
   2 C :   -0.076542
   3 C :   -0.056817
   4 C :   -0.183213
   5 H :    0.035882
   6 C :   -0.036020
   7 H :    0.036293
   8 H :    0.030922
   9 C :   -0.038842
  10 H :    0.023195
  11 H :    0.024139
  12 C :   -0.057119
  13 H :    0.028142
  14 H :    0.011223
  15 H :    0.038987
  16 S :    0.389551
  17 C :   -0.175217
  18 C :   -0.072323
  19 C :   -0.047424
  20 C :   -0.204533
  21 H :    0.035395
  22 C :   -0.027879
  23 H :    0.032464
  24 H :    0.028359
  25 C :   -0.047465
  26 H :    0.033772
  27 H :    0.019041
  28 C :   -0.082386
  29 H :    0.030282
  30 H :    0.029267
  31 H :    0.029786
  32 H :    0.019423
  33 H :    0.031869

  Mayer bond orders larger than 0.100000
B(  0-S ,  1-C ) :   1.1376 B(  0-S ,  4-C ) :   1.1243 B(  1-C ,  2-C ) :   1.6008
B(  1-C ,  4-C ) :   0.1045 B(  1-C , 32-H ) :   0.9710 B(  2-C ,  3-C ) :   1.2370
B(  2-C ,  6-C ) :   1.0202 B(  3-C ,  4-C ) :   1.5811 B(  3-C ,  5-H ) :   0.9847
B(  4-C , 20-C ) :   1.0526 B(  6-C ,  7-H ) :   0.9420 B(  6-C ,  8-H ) :   0.9378
B(  6-C ,  9-C ) :   1.0522 B(  9-C , 10-H ) :   0.9544 B(  9-C , 11-H ) :   0.9541
B(  9-C , 12-C ) :   1.0991 B( 12-C , 13-H ) :   0.9595 B( 12-C , 14-H ) :   0.9722
B( 12-C , 15-H ) :   0.9674 B( 16-S , 17-C ) :   1.1540 B( 16-S , 20-C ) :   1.1278
B( 17-C , 18-C ) :   1.6053 B( 17-C , 33-H ) :   0.9665 B( 18-C , 19-C ) :   1.2561
B( 18-C , 21-H ) :   0.9811 B( 19-C , 20-C ) :   1.5807 B( 19-C , 22-C ) :   1.0439
B( 22-C , 23-H ) :   0.9349 B( 22-C , 24-H ) :   0.9254 B( 22-C , 25-C ) :   1.0672
B( 25-C , 26-H ) :   0.9536 B( 25-C , 27-H ) :   0.9551 B( 25-C , 28-C ) :   1.0683
B( 28-C , 29-H ) :   0.9749 B( 28-C , 30-H ) :   0.9725 B( 28-C , 31-H ) :   0.9739

Dispersion correction           -0.016109562
FINAL SINGLE POINT ENERGY     -1339.864050409937

DIPOLE MOMENT
-------------
                                X             Y             Z
Electronic contribution:    -10.52655       6.09447      28.71465
Nuclear contribution   :     10.93415      -5.87987     -29.46565
                        -----------------------------------------
Total Dipole Moment    :      0.40760       0.21460      -0.75100
                        -----------------------------------------
Magnitude (a.u.)       :      0.88101
Magnitude (Debye)      :      2.23936

Rotational constants in cm-1:     0.017355     0.010769     0.007446
Rotational constants in MHz :   520.292041   322.846931   223.238730

                             ****ORCA TERMINATED NORMALLY****
TOTAL RUN TIME: 0 days 0 hours 0 minutes 37 seconds 596 msec
