                         Program Version 4.2.1 -  RELEASE  -
|  1> ! wB97X-D3 SP def2-SVP
|  2> %pal
|  3> nprocs 16
|  4> end
|  5>
|  6> * xyz 0 1
|  7> S 	 -2.42446 	 -14.0875 	 82.5155
|  8> C 	 -3.45242 	 -15.3542 	 82.9721
|  9> C 	 -4.70528 	 -15.0619 	 82.6191
| 10> C 	 -4.90205 	 -13.8198 	 81.9308
| 11> C 	 -3.70291 	 -13.1796 	 81.7128
| 12> H 	 -5.7943 	 -13.4205 	 81.4705
| 13> C 	 -5.80322 	 -16.0412 	 82.8895
| 14> H 	 -6.61778 	 -15.6405 	 82.2783
| 15> H 	 -6.0328 	 -15.9028 	 83.931
| 16> C 	 -5.55935 	 -17.5119 	 82.6173
| 17> H 	 -4.58664 	 -17.7757 	 83.0639
| 18> H 	 -6.30029 	 -18.1323 	 83.2212
| 19> C 	 -5.65354 	 -18.0072 	 81.1507
| 20> H 	 -6.69065 	 -17.834 	 80.696
| 21> H 	 -4.9596 	 -17.4251 	 80.4907
| 22> H 	 -5.46013 	 -19.0747 	 80.8615
| 23> S 	 -2.8235 	 -10.6318 	 81.495
| 24> C 	 -2.8757 	 -9.83709 	 79.9458
| 25> C 	 -3.22439 	 -10.6584 	 78.9588
| 26> C 	 -3.53173 	 -11.9552 	 79.3961
| 27> C 	 -3.46522 	 -12.0888 	 80.7517
| 28> H 	 -3.06702 	 -10.3288 	 77.9815
| 29> C 	 -4.14187 	 -13.0726 	 78.543
| 30> H 	 -5.20049 	 -13.1049 	 78.8355
| 31> H 	 -3.79709 	 -14.0794 	 78.8432
| 32> C 	 -3.81021 	 -12.9277 	 77.0305
| 33> H 	 -2.74594 	 -13.1597 	 76.8594
| 34> H 	 -3.8973 	 -11.9265 	 76.6076
| 35> C 	 -4.54453 	 -13.931 	 76.07
| 36> H 	 -4.30899 	 -13.7808 	 74.9447
| 37> H 	 -5.60786 	 -13.928 	 76.3439
| 38> H 	 -4.24672 	 -14.9901 	 76.2528
| 39> H 	 -3.24501 	 -16.2948 	 83.4384
| 40> H 	 -2.7432 	 -8.77125 	 79.8733
| 41> *
| 42>
| 43>                          ****END OF INPUT****

CARTESIAN COORDINATES (ANGSTROEM)
---------------------------------
  S     -2.424460  -14.087500   82.515500
  C     -3.452420  -15.354200   82.972100
  C     -4.705280  -15.061900   82.619100
  C     -4.902050  -13.819800   81.930800
  C     -3.702910  -13.179600   81.712800
  H     -5.794300  -13.420500   81.470500
  C     -5.803220  -16.041200   82.889500
  H     -6.617780  -15.640500   82.278300
  H     -6.032800  -15.902800   83.931000
  C     -5.559350  -17.511900   82.617300
  H     -4.586640  -17.775700   83.063900
  H     -6.300290  -18.132300   83.221200
  C     -5.653540  -18.007200   81.150700
  H     -6.690650  -17.834000   80.696000
  H     -4.959600  -17.425100   80.490700
  H     -5.460130  -19.074700   80.861500
  S     -2.823500  -10.631800   81.495000
  C     -2.875700   -9.837090   79.945800
  C     -3.224390  -10.658400   78.958800
  C     -3.531730  -11.955200   79.396100
  C     -3.465220  -12.088800   80.751700
  H     -3.067020  -10.328800   77.981500
  C     -4.141870  -13.072600   78.543000
  H     -5.200490  -13.104900   78.835500
  H     -3.797090  -14.079400   78.843200
  C     -3.810210  -12.927700   77.030500
  H     -2.745940  -13.159700   76.859400
  H     -3.897300  -11.926500   76.607600
  C     -4.544530  -13.931000   76.070000
  H     -4.308990  -13.780800   74.944700
  H     -5.607860  -13.928000   76.343900
  H     -4.246720  -14.990100   76.252800
  H     -3.245010  -16.294800   83.438400
  H     -2.743200   -8.771250   79.873300

 Total Charge           Charge          ....    0
 Multiplicity           Mult            ....    1
 Number of Electrons    NEL             ....  134
 Basis Dimension        Dim             ....  322

ORBITAL ENERGIES
----------------

  NO   OCC          E(Eh)            E(eV)
   0   2.0000     -88.962614     -2420.7958
   1   2.0000     -88.958763     -2420.6910
   2   2.0000     -10.328776      -281.0603
   3   2.0000     -10.322428      -280.8875
   4   2.0000     -10.310904      -280.5740
   5   2.0000     -10.302741      -280.3518
   6   2.0000     -10.301696      -280.3234
   7   2.0000     -10.299674      -280.2684
   8   2.0000     -10.299547      -280.2649
   9   2.0000     -10.294505      -280.1277
  10   2.0000     -10.292799      -280.0813
  11   2.0000     -10.292147      -280.0636
  12   2.0000     -10.290381      -280.0155
  13   2.0000     -10.290233      -280.0115
  14   2.0000     -10.286947      -279.9221
  15   2.0000     -10.283977      -279.8412
  16   2.0000      -8.078220      -219.8195
  17   2.0000      -8.074405      -219.7157
  18   2.0000      -6.036765      -164.2687
  19   2.0000      -6.032715      -164.1585
  20   2.0000      -6.032494      -164.1525
  21   2.0000      -6.028961      -164.0564
  22   2.0000      -6.028896      -164.0546
  23   2.0000      -6.025202      -163.9541
  24   2.0000      -1.014389       -27.6029
  25   2.0000      -0.996227       -27.1087
  26   2.0000      -0.914373       -24.8813
  27   2.0000      -0.902261       -24.5518
  28   2.0000      -0.874436       -23.7946
  29   2.0000      -0.848909       -23.1000
  30   2.0000      -0.844919       -22.9914
  31   2.0000      -0.822953       -22.3937
  32   2.0000      -0.780144       -21.2288
  33   2.0000      -0.770161       -20.9571
  34   2.0000      -0.711222       -19.3533
  35   2.0000      -0.705508       -19.1978
  36   2.0000      -0.699417       -19.0321
  37   2.0000      -0.657183       -17.8829
  38   2.0000      -0.643503       -17.5106
  39   2.0000      -0.611973       -16.6526
  40   2.0000      -0.599668       -16.3178
  41   2.0000      -0.579444       -15.7675
  42   2.0000      -0.558378       -15.1942
  43   2.0000      -0.557297       -15.1648
  44   2.0000      -0.537587       -14.6285
  45   2.0000      -0.525703       -14.3051
  46   2.0000      -0.521632       -14.1943
  47   2.0000      -0.514563       -14.0020
  48   2.0000      -0.503921       -13.7124
  49   2.0000      -0.496745       -13.5171
  50   2.0000      -0.486966       -13.2510
  51   2.0000      -0.479137       -13.0380
  52   2.0000      -0.470578       -12.8051
  53   2.0000      -0.468575       -12.7506
  54   2.0000      -0.460328       -12.5262
  55   2.0000      -0.453907       -12.3514
  56   2.0000      -0.447917       -12.1884
  57   2.0000      -0.436245       -11.8708
  58   2.0000      -0.431154       -11.7323
  59   2.0000      -0.424020       -11.5382
  60   2.0000      -0.420544       -11.4436
  61   2.0000      -0.410711       -11.1760
  62   2.0000      -0.405441       -11.0326
  63   2.0000      -0.344789        -9.3822
  64   2.0000      -0.331396        -9.0178
  65   2.0000      -0.328177        -8.9302
  66   2.0000      -0.301808        -8.2126
  67   0.0000       0.042368         1.1529
  68   0.0000       0.059992         1.6325
  69   0.0000       0.118423         3.2225
  70   0.0000       0.129277         3.5178
  71   0.0000       0.131227         3.5709

MULLIKEN ATOMIC CHARGES
-----------------------
   0 S :    0.123270
   1 C :   -0.105433
   2 C :   -0.123635
   3 C :    0.038511
   4 C :   -0.136582
   5 H :    0.014762
   6 C :    0.100128
   7 H :    0.011685
   8 H :    0.040253
   9 C :   -0.074245
  10 H :    0.021683
  11 H :    0.037885
  12 C :   -0.097817
  13 H :    0.035704
  14 H :    0.037677
  15 H :    0.047984
  16 S :    0.090956
  17 C :   -0.078679
  18 C :   -0.021481
  19 C :    0.000886
  20 C :   -0.202134
  21 H :    0.004438
  22 C :    0.065987
  23 H :    0.040290
  24 H :    0.036198
  25 C :   -0.104292
  26 H :    0.035666
  27 H :    0.035736
  28 C :   -0.082716
  29 H :    0.055770
  30 H :    0.034420
  31 H :    0.029169
  32 H :    0.034724
  33 H :    0.053231
Sum of atomic charges:   -0.0000000

LOEWDIN ATOMIC CHARGES
----------------------
   0 S :    0.421604
   1 C :   -0.213163
   2 C :   -0.075570
   3 C :   -0.062039
   4 C :   -0.194729
   5 H :    0.032822
   6 C :   -0.032395
   7 H :    0.028868
   8 H :    0.037249
   9 C :   -0.045421
  10 H :    0.021017
  11 H :    0.033338
  12 C :   -0.085054
  13 H :    0.030496
  14 H :    0.027098
  15 H :    0.032614
  16 S :    0.398740
  17 C :   -0.168498
  18 C :   -0.074377
  19 C :   -0.051757
  20 C :   -0.194544
  21 H :    0.026505
  22 C :   -0.028924
  23 H :    0.033777
  24 H :    0.037627
  25 C :   -0.048613
  26 H :    0.029535
  27 H :    0.020780
  28 C :   -0.079360
  29 H :    0.038947
  30 H :    0.023035
  31 H :    0.024229
  32 H :    0.029059
  33 H :    0.027103

  Mayer bond orders larger than 0.100000
B(  0-S ,  1-C ) :   1.1294 B(  0-S ,  4-C ) :   1.1634 B(  1-C ,  2-C ) :   1.6315
B(  1-C , 32-H ) :   0.9709 B(  2-C ,  3-C ) :   1.2265 B(  2-C ,  6-C ) :   1.0046
B(  3-C ,  4-C ) :   1.5797 B(  3-C ,  5-H ) :   0.9997 B(  4-C , 20-C ) :   0.9994
B(  6-C ,  7-H ) :   0.9445 B(  6-C ,  8-H ) :   0.9270 B(  6-C ,  9-C ) :   1.0833
B(  9-C , 10-H ) :   0.9516 B(  9-C , 11-H ) :   0.9524 B(  9-C , 12-C ) :   1.0619
B( 12-C , 13-H ) :   0.9737 B( 12-C , 14-H ) :   0.9773 B( 12-C , 15-H ) :   0.9770
B( 16-S , 17-C ) :   1.1597 B( 16-S , 20-C ) :   1.1460 B( 17-C , 18-C ) :   1.6300
B( 17-C , 33-H ) :   0.9640 B( 18-C , 19-C ) :   1.2205 B( 18-C , 21-H ) :   0.9991
B( 19-C , 20-C ) :   1.6335 B( 19-C , 22-C ) :   1.0287 B( 22-C , 23-H ) :   0.9440
B( 22-C , 24-H ) :   0.9318 B( 22-C , 25-C ) :   1.0488 B( 25-C , 26-H ) :   0.9591
B( 25-C , 27-H ) :   0.9578 B( 25-C , 28-C ) :   1.0745 B( 28-C , 29-H ) :   0.9742
B( 28-C , 30-H ) :   0.9769 B( 28-C , 31-H ) :   0.9752

Dispersion correction           -0.014027153
FINAL SINGLE POINT ENERGY     -1339.868299459080

DIPOLE MOMENT
-------------
                                X             Y             Z
Electronic contribution:     14.46869      20.71067      17.13458
Nuclear contribution   :    -14.86531     -21.03628     -17.56251
                        -----------------------------------------
Total Dipole Moment    :     -0.39662      -0.32561      -0.42793
                        -----------------------------------------
Magnitude (a.u.)       :      0.66817
Magnitude (Debye)      :      1.69836

Rotational constants in cm-1:     0.017341     0.009081     0.006495
Rotational constants in MHz :   519.871637   272.230953   194.709557

                             ****ORCA TERMINATED NORMALLY****
TOTAL RUN TIME: 0 days 0 hours 0 minutes 33 seconds 933 msec
