                         Program Version 4.2.1 -  RELEASE  -
|  1> ! wB97X-D3 SP def2-SVP
|  2> %pal
|  3> nprocs 16
|  4> end
|  5>
|  6> * xyz 0 1
|  7> S 	 -39.9968 	 36.0424 	 80.4527
|  8> C 	 -39.8358 	 37.8229 	 80.2219
|  9> C 	 -40.9316 	 38.4904 	 80.7001
| 10> C 	 -41.8118 	 37.5917 	 81.4015
| 11> C 	 -41.3441 	 36.3173 	 81.4504
| 12> H 	 -42.6007 	 37.946 	 82.0005
| 13> C 	 -41.3567 	 39.8584 	 80.5486
| 14> H 	 -40.5688 	 40.6073 	 80.7513
| 15> H 	 -42.1199 	 40.0968 	 81.2501
| 16> C 	 -41.8352 	 40.249 	 79.1621
| 17> H 	 -42.1828 	 41.2261 	 79.312
| 18> H 	 -41.0345 	 40.2303 	 78.5067
| 19> C 	 -42.9644 	 39.2785 	 78.6365
| 20> H 	 -43.1603 	 39.561 	 77.5786
| 21> H 	 -42.5995 	 38.2504 	 78.7484
| 22> H 	 -43.8664 	 39.3146 	 79.2413
| 23> S 	 -42.8486 	 34.1238 	 80.8798
| 24> C 	 -43.4475 	 33.1072 	 82.1877
| 25> C 	 -42.9929 	 33.514 	 83.3729
| 26> C 	 -42.2383 	 34.768 	 83.3876
| 27> C 	 -41.9088 	 35.1409 	 82.0412
| 28> H 	 -43.3931 	 33.0329 	 84.2226
| 29> C 	 -41.5867 	 35.3844 	 84.5799
| 30> H 	 -40.5228 	 35.1621 	 84.5821
| 31> H 	 -42.0348 	 34.8441 	 85.4505
| 32> C 	 -41.7414 	 36.9233 	 84.8144
| 33> H 	 -41.2316 	 37.5785 	 84.0832
| 34> H 	 -41.2758 	 37.2575 	 85.7873
| 35> C 	 -43.2417 	 37.4072 	 84.9113
| 36> H 	 -43.7665 	 37.2455 	 83.9564
| 37> H 	 -43.2656 	 38.4428 	 85.0482
| 38> H 	 -43.8449 	 36.9913 	 85.6872
| 39> H 	 -39.2032 	 38.303 	 79.5509
| 40> H 	 -44.1665 	 32.336 	 82.0004
| 41> *
| 42>
| 43>                          ****END OF INPUT****

CARTESIAN COORDINATES (ANGSTROEM)
---------------------------------
  S    -39.996800   36.042400   80.452700
  C    -39.835800   37.822900   80.221900
  C    -40.931600   38.490400   80.700100
  C    -41.811800   37.591700   81.401500
  C    -41.344100   36.317300   81.450400
  H    -42.600700   37.946000   82.000500
  C    -41.356700   39.858400   80.548600
  H    -40.568800   40.607300   80.751300
  H    -42.119900   40.096800   81.250100
  C    -41.835200   40.249000   79.162100
  H    -42.182800   41.226100   79.312000
  H    -41.034500   40.230300   78.506700
  C    -42.964400   39.278500   78.636500
  H    -43.160300   39.561000   77.578600
  H    -42.599500   38.250400   78.748400
  H    -43.866400   39.314600   79.241300
  S    -42.848600   34.123800   80.879800
  C    -43.447500   33.107200   82.187700
  C    -42.992900   33.514000   83.372900
  C    -42.238300   34.768000   83.387600
  C    -41.908800   35.140900   82.041200
  H    -43.393100   33.032900   84.222600
  C    -41.586700   35.384400   84.579900
  H    -40.522800   35.162100   84.582100
  H    -42.034800   34.844100   85.450500
  C    -41.741400   36.923300   84.814400
  H    -41.231600   37.578500   84.083200
  H    -41.275800   37.257500   85.787300
  C    -43.241700   37.407200   84.911300
  H    -43.766500   37.245500   83.956400
  H    -43.265600   38.442800   85.048200
  H    -43.844900   36.991300   85.687200
  H    -39.203200   38.303000   79.550900
  H    -44.166500   32.336000   82.000400

 Total Charge           Charge          ....    0
 Multiplicity           Mult            ....    1
 Number of Electrons    NEL             ....  134
 Basis Dimension        Dim             ....  322

ORBITAL ENERGIES
----------------

  NO   OCC          E(Eh)            E(eV)
   0   2.0000     -88.965498     -2420.8743
   1   2.0000     -88.960195     -2420.7300
   2   2.0000     -10.329031      -281.0672
   3   2.0000     -10.321980      -280.8754
   4   2.0000     -10.313942      -280.6566
   5   2.0000     -10.313539      -280.6457
   6   2.0000     -10.308253      -280.5018
   7   2.0000     -10.297318      -280.2043
   8   2.0000     -10.295937      -280.1667
   9   2.0000     -10.294974      -280.1405
  10   2.0000     -10.290599      -280.0214
  11   2.0000     -10.286083      -279.8985
  12   2.0000     -10.282826      -279.8099
  13   2.0000     -10.277439      -279.6633
  14   2.0000     -10.276915      -279.6491
  15   2.0000     -10.271943      -279.5138
  16   2.0000      -8.080574      -219.8836
  17   2.0000      -8.074460      -219.7172
  18   2.0000      -6.039082      -164.3318
  19   2.0000      -6.035148      -164.2247
  20   2.0000      -6.032978      -164.1657
  21   2.0000      -6.031172      -164.1165
  22   2.0000      -6.029059      -164.0590
  23   2.0000      -6.025191      -163.9538
  24   2.0000      -1.009410       -27.4674
  25   2.0000      -0.979835       -26.6627
  26   2.0000      -0.924779       -25.1645
  27   2.0000      -0.901037       -24.5185
  28   2.0000      -0.870529       -23.6883
  29   2.0000      -0.845136       -22.9973
  30   2.0000      -0.842556       -22.9271
  31   2.0000      -0.815781       -22.1985
  32   2.0000      -0.787047       -21.4166
  33   2.0000      -0.774444       -21.0737
  34   2.0000      -0.715467       -19.4688
  35   2.0000      -0.711749       -19.3677
  36   2.0000      -0.689918       -18.7736
  37   2.0000      -0.659131       -17.9359
  38   2.0000      -0.642067       -17.4715
  39   2.0000      -0.616568       -16.7777
  40   2.0000      -0.591563       -16.0973
  41   2.0000      -0.581613       -15.8265
  42   2.0000      -0.554268       -15.0824
  43   2.0000      -0.550036       -14.9672
  44   2.0000      -0.547389       -14.8952
  45   2.0000      -0.541487       -14.7346
  46   2.0000      -0.516391       -14.0517
  47   2.0000      -0.509684       -13.8692
  48   2.0000      -0.501203       -13.6384
  49   2.0000      -0.497891       -13.5483
  50   2.0000      -0.491270       -13.3681
  51   2.0000      -0.478956       -13.0330
  52   2.0000      -0.470349       -12.7989
  53   2.0000      -0.464051       -12.6275
  54   2.0000      -0.458210       -12.4685
  55   2.0000      -0.446181       -12.1412
  56   2.0000      -0.438082       -11.9208
  57   2.0000      -0.435868       -11.8606
  58   2.0000      -0.431661       -11.7461
  59   2.0000      -0.429750       -11.6941
  60   2.0000      -0.426330       -11.6010
  61   2.0000      -0.417402       -11.3581
  62   2.0000      -0.409033       -11.1304
  63   2.0000      -0.338287        -9.2053
  64   2.0000      -0.330116        -8.9829
  65   2.0000      -0.322079        -8.7642
  66   2.0000      -0.301620        -8.2075
  67   0.0000       0.035711         0.9717
  68   0.0000       0.051886         1.4119
  69   0.0000       0.105285         2.8649
  70   0.0000       0.116363         3.1664
  71   0.0000       0.125159         3.4057

MULLIKEN ATOMIC CHARGES
-----------------------
   0 S :    0.110294
   1 C :   -0.076192
   2 C :   -0.109291
   3 C :    0.060224
   4 C :   -0.159174
   5 H :   -0.017301
   6 C :    0.058104
   7 H :    0.029059
   8 H :    0.007270
   9 C :   -0.021790
  10 H :    0.017738
  11 H :    0.013166
  12 C :   -0.081093
  13 H :    0.045110
  14 H :    0.055383
  15 H :    0.028822
  16 S :    0.083445
  17 C :   -0.081497
  18 C :    0.004046
  19 C :   -0.043926
  20 C :   -0.149623
  21 H :    0.004908
  22 C :    0.071529
  23 H :    0.055069
  24 H :    0.023042
  25 C :   -0.106825
  26 H :    0.048723
  27 H :    0.032993
  28 C :   -0.051140
  29 H :    0.038834
  30 H :    0.015427
  31 H :    0.026491
  32 H :    0.013055
  33 H :    0.055122
Sum of atomic charges:    0.0000000

LOEWDIN ATOMIC CHARGES
----------------------
   0 S :    0.414303
   1 C :   -0.178289
   2 C :   -0.057366
   3 C :   -0.055104
   4 C :   -0.210094
   5 H :    0.021640
   6 C :   -0.037815
   7 H :    0.037557
   8 H :    0.024858
   9 C :   -0.019391
  10 H :    0.018196
  11 H :    0.011750
  12 C :   -0.066976
  13 H :    0.030091
  14 H :    0.029974
  15 H :    0.022376
  16 S :    0.372786
  17 C :   -0.168988
  18 C :   -0.072575
  19 C :   -0.046736
  20 C :   -0.186684
  21 H :    0.025806
  22 C :   -0.036055
  23 H :    0.040615
  24 H :    0.035744
  25 C :   -0.042453
  26 H :    0.027234
  27 H :    0.029823
  28 C :   -0.066992
  29 H :    0.023871
  30 H :    0.017762
  31 H :    0.020771
  32 H :    0.011883
  33 H :    0.028480

  Mayer bond orders larger than 0.100000
B(  0-S ,  1-C ) :   1.1094 B(  0-S ,  4-C ) :   1.1683 B(  1-C ,  2-C ) :   1.6436
B(  1-C , 32-H ) :   0.9715 B(  2-C ,  3-C ) :   1.2098 B(  2-C ,  6-C ) :   1.0458
B(  3-C ,  4-C ) :   1.5867 B(  3-C ,  5-H ) :   1.0061 B(  4-C , 20-C ) :   1.0024
B(  6-C ,  7-H ) :   0.9288 B(  6-C ,  8-H ) :   0.9334 B(  6-C ,  9-C ) :   1.0793
B(  9-C , 10-H ) :   0.9553 B(  9-C , 11-H ) :   0.9583 B(  9-C , 12-C ) :   1.0703
B( 12-C , 13-H ) :   0.9762 B( 12-C , 14-H ) :   0.9724 B( 12-C , 15-H ) :   0.9770
B( 16-S , 17-C ) :   1.1391 B( 16-S , 20-C ) :   1.1386 B( 17-C , 18-C ) :   1.6510
B( 17-C , 33-H ) :   0.9671 B( 18-C , 19-C ) :   1.2122 B( 18-C , 21-H ) :   0.9862
B( 19-C , 20-C ) :   1.5903 B( 19-C , 22-C ) :   1.0425 B( 22-C , 23-H ) :   0.9407
B( 22-C , 24-H ) :   0.9349 B( 22-C , 25-C ) :   1.0619 B( 25-C , 26-H ) :   0.9546
B( 25-C , 27-H ) :   0.9559 B( 25-C , 28-C ) :   1.0732 B( 28-C , 29-H ) :   0.9697
B( 28-C , 30-H ) :   0.9748 B( 28-C , 31-H ) :   0.9754

Dispersion correction           -0.016077263
FINAL SINGLE POINT ENERGY     -1339.859478125794

DIPOLE MOMENT
-------------
                                X             Y             Z
Electronic contribution:      7.06518     -20.45091      -7.45188
Nuclear contribution   :     -7.34798      20.92031       7.82586
                        -----------------------------------------
Total Dipole Moment    :     -0.28280       0.46940       0.37398
                        -----------------------------------------
Magnitude (a.u.)       :      0.66346
Magnitude (Debye)      :      1.68637

Rotational constants in cm-1:     0.019771     0.009612     0.008221
Rotational constants in MHz :   592.728951   288.157594   246.446375

                             ****ORCA TERMINATED NORMALLY****
TOTAL RUN TIME: 0 days 0 hours 0 minutes 32 seconds 617 msec
