                         Program Version 4.2.1 -  RELEASE  -
|  1> ! wB97X-D3 SP def2-SVP
|  2> %pal
|  3> nprocs 16
|  4> end
|  5>
|  6> * xyz 0 1
|  7> S 	 41.6706 	 28.456 	 86.0236
|  8> C 	 40.9267 	 29.7585 	 86.9326
|  9> C 	 39.555 	 29.6198 	 86.9761
| 10> C 	 39.1496 	 28.5702 	 86.0652
| 11> C 	 40.1761 	 27.7935 	 85.5591
| 12> H 	 38.1559 	 28.2209 	 85.9159
| 13> C 	 38.6295 	 30.5416 	 87.6643
| 14> H 	 38.5932 	 30.1758 	 88.6567
| 15> H 	 37.6452 	 30.371 	 87.1963
| 16> C 	 39.0582 	 32.0292 	 87.6142
| 17> H 	 39.9783 	 32.0956 	 88.2272
| 18> H 	 39.1007 	 32.268 	 86.577
| 19> C 	 37.9146 	 32.8277 	 88.2505
| 20> H 	 38.1431 	 33.8186 	 88.4342
| 21> H 	 37.0052 	 32.817 	 87.6407
| 22> H 	 37.6735 	 32.3822 	 89.2206
| 23> S 	 38.8746 	 26.8621 	 83.4759
| 24> C 	 39.0234 	 25.2129 	 82.8965
| 25> C 	 40.1557 	 24.6469 	 83.4187
| 26> C 	 40.68 	 25.394 	 84.4701
| 27> C 	 40.0412 	 26.6214 	 84.6719
| 28> H 	 40.4566 	 23.6967 	 83.0049
| 29> C 	 41.871 	 24.9844 	 85.2708
| 30> H 	 42.1628 	 25.6742 	 86.0438
| 31> H 	 42.7529 	 24.8693 	 84.6302
| 32> C 	 41.6391 	 23.7039 	 86.0764
| 33> H 	 41.2519 	 22.8174 	 85.5187
| 34> H 	 40.8237 	 23.9052 	 86.8263
| 35> C 	 42.8744 	 23.2674 	 86.8265
| 36> H 	 42.7394 	 22.3091 	 87.3742
| 37> H 	 43.2338 	 23.9762 	 87.5835
| 38> H 	 43.7665 	 23.0442 	 86.2728
| 39> H 	 41.5508 	 30.5259 	 87.412
| 40> H 	 38.4154 	 24.7343 	 82.1368
| 41> *
| 42>
| 43>                          ****END OF INPUT****

CARTESIAN COORDINATES (ANGSTROEM)
---------------------------------
  S     41.670600   28.456000   86.023600
  C     40.926700   29.758500   86.932600
  C     39.555000   29.619800   86.976100
  C     39.149600   28.570200   86.065200
  C     40.176100   27.793500   85.559100
  H     38.155900   28.220900   85.915900
  C     38.629500   30.541600   87.664300
  H     38.593200   30.175800   88.656700
  H     37.645200   30.371000   87.196300
  C     39.058200   32.029200   87.614200
  H     39.978300   32.095600   88.227200
  H     39.100700   32.268000   86.577000
  C     37.914600   32.827700   88.250500
  H     38.143100   33.818600   88.434200
  H     37.005200   32.817000   87.640700
  H     37.673500   32.382200   89.220600
  S     38.874600   26.862100   83.475900
  C     39.023400   25.212900   82.896500
  C     40.155700   24.646900   83.418700
  C     40.680000   25.394000   84.470100
  C     40.041200   26.621400   84.671900
  H     40.456600   23.696700   83.004900
  C     41.871000   24.984400   85.270800
  H     42.162800   25.674200   86.043800
  H     42.752900   24.869300   84.630200
  C     41.639100   23.703900   86.076400
  H     41.251900   22.817400   85.518700
  H     40.823700   23.905200   86.826300
  C     42.874400   23.267400   86.826500
  H     42.739400   22.309100   87.374200
  H     43.233800   23.976200   87.583500
  H     43.766500   23.044200   86.272800
  H     41.550800   30.525900   87.412000
  H     38.415400   24.734300   82.136800

 Total Charge           Charge          ....    0
 Multiplicity           Mult            ....    1
 Number of Electrons    NEL             ....  134
 Basis Dimension        Dim             ....  322

ORBITAL ENERGIES
----------------

  NO   OCC          E(Eh)            E(eV)
   0   2.0000     -88.963126     -2420.8097
   1   2.0000     -88.962277     -2420.7866
   2   2.0000     -10.328197      -281.0445
   3   2.0000     -10.323722      -280.9228
   4   2.0000     -10.313036      -280.6320
   5   2.0000     -10.312515      -280.6178
   6   2.0000     -10.299894      -280.2744
   7   2.0000     -10.298459      -280.2353
   8   2.0000     -10.290617      -280.0219
   9   2.0000     -10.290484      -280.0183
  10   2.0000     -10.289610      -279.9945
  11   2.0000     -10.287093      -279.9260
  12   2.0000     -10.286230      -279.9026
  13   2.0000     -10.284174      -279.8466
  14   2.0000     -10.273348      -279.5520
  15   2.0000     -10.272413      -279.5266
  16   2.0000      -8.078530      -219.8280
  17   2.0000      -8.078069      -219.8154
  18   2.0000      -6.036953      -164.2738
  19   2.0000      -6.036409      -164.2590
  20   2.0000      -6.032790      -164.1606
  21   2.0000      -6.032383      -164.1495
  22   2.0000      -6.029508      -164.0712
  23   2.0000      -6.028964      -164.0564
  24   2.0000      -1.015542       -27.6343
  25   2.0000      -0.991590       -26.9825
  26   2.0000      -0.920558       -25.0497
  27   2.0000      -0.910062       -24.7640
  28   2.0000      -0.874149       -23.7868
  29   2.0000      -0.855337       -23.2749
  30   2.0000      -0.844101       -22.9691
  31   2.0000      -0.816214       -22.2103
  32   2.0000      -0.782104       -21.2821
  33   2.0000      -0.768778       -20.9195
  34   2.0000      -0.712853       -19.3977
  35   2.0000      -0.698306       -19.0019
  36   2.0000      -0.692461       -18.8428
  37   2.0000      -0.664453       -18.0807
  38   2.0000      -0.640842       -17.4382
  39   2.0000      -0.615139       -16.7388
  40   2.0000      -0.600856       -16.3501
  41   2.0000      -0.581336       -15.8190
  42   2.0000      -0.572609       -15.5815
  43   2.0000      -0.558093       -15.1865
  44   2.0000      -0.527467       -14.3531
  45   2.0000      -0.521668       -14.1953
  46   2.0000      -0.517548       -14.0832
  47   2.0000      -0.514070       -13.9886
  48   2.0000      -0.508709       -13.8427
  49   2.0000      -0.506333       -13.7780
  50   2.0000      -0.487584       -13.2678
  51   2.0000      -0.480304       -13.0697
  52   2.0000      -0.471714       -12.8360
  53   2.0000      -0.463683       -12.6174
  54   2.0000      -0.459403       -12.5010
  55   2.0000      -0.448730       -12.2106
  56   2.0000      -0.447189       -12.1686
  57   2.0000      -0.440001       -11.9730
  58   2.0000      -0.431741       -11.7483
  59   2.0000      -0.426297       -11.6001
  60   2.0000      -0.423857       -11.5337
  61   2.0000      -0.415737       -11.3128
  62   2.0000      -0.408494       -11.1157
  63   2.0000      -0.350203        -9.5295
  64   2.0000      -0.330252        -8.9866
  65   2.0000      -0.326554        -8.8860
  66   2.0000      -0.288876        -7.8607
  67   0.0000       0.030004         0.8165
  68   0.0000       0.080481         2.1900
  69   0.0000       0.120470         3.2781
  70   0.0000       0.121490         3.3059
  71   0.0000       0.134223         3.6524

MULLIKEN ATOMIC CHARGES
-----------------------
   0 S :    0.112565
   1 C :   -0.162721
   2 C :   -0.070939
   3 C :    0.002609
   4 C :   -0.123514
   5 H :    0.004086
   6 C :    0.066140
   7 H :    0.031313
   8 H :    0.022802
   9 C :   -0.083729
  10 H :    0.045187
  11 H :    0.040106
  12 C :   -0.005018
  13 H :    0.015061
  14 H :    0.030733
  15 H :    0.017734
  16 S :    0.105471
  17 C :   -0.102023
  18 C :   -0.031513
  19 C :   -0.016341
  20 C :   -0.131505
  21 H :    0.016248
  22 C :    0.075582
  23 H :    0.009175
  24 H :    0.032773
  25 C :   -0.105712
  26 H :    0.032575
  27 H :    0.037554
  28 C :   -0.051139
  29 H :    0.028617
  30 H :    0.027033
  31 H :    0.017746
  32 H :    0.059462
  33 H :    0.053585
Sum of atomic charges:    0.0000000

LOEWDIN ATOMIC CHARGES
----------------------
   0 S :    0.429084
   1 C :   -0.203563
   2 C :   -0.060158
   3 C :   -0.073590
   4 C :   -0.211607
   5 H :    0.020410
   6 C :   -0.032131
   7 H :    0.030685
   8 H :    0.032698
   9 C :   -0.028597
  10 H :    0.029687
  11 H :    0.026077
  12 C :   -0.058455
  13 H :    0.012950
  14 H :    0.028039
  15 H :    0.025357
  16 S :    0.442744
  17 C :   -0.186835
  18 C :   -0.065857
  19 C :   -0.066905
  20 C :   -0.208172
  21 H :    0.034039
  22 C :   -0.034853
  23 H :    0.020774
  24 H :    0.032801
  25 C :   -0.046563
  26 H :    0.023493
  27 H :    0.032377
  28 C :   -0.077104
  29 H :    0.030115
  30 H :    0.024858
  31 H :    0.019715
  32 H :    0.029303
  33 H :    0.029186

  Mayer bond orders larger than 0.100000
B(  0-S ,  1-C ) :   1.1434 B(  0-S ,  4-C ) :   1.1671 B(  1-C ,  2-C ) :   1.5845
B(  1-C , 32-H ) :   0.9696 B(  2-C ,  3-C ) :   1.2514 B(  2-C ,  6-C ) :   1.0191
B(  3-C ,  4-C ) :   1.5564 B(  3-C ,  5-H ) :   0.9908 B(  4-C , 20-C ) :   1.0105
B(  6-C ,  7-H ) :   0.9128 B(  6-C ,  8-H ) :   0.9479 B(  6-C ,  9-C ) :   1.0790
B(  9-C , 10-H ) :   0.9443 B(  9-C , 11-H ) :   0.9625 B(  9-C , 12-C ) :   1.0950
B( 12-C , 13-H ) :   0.9726 B( 12-C , 14-H ) :   0.9739 B( 12-C , 15-H ) :   0.9704
B( 16-S , 17-C ) :   1.1628 B( 16-S , 20-C ) :   1.1753 B( 17-C , 18-C ) :   1.5834
B( 17-C , 20-C ) :   0.1040 B( 17-C , 33-H ) :   0.9699 B( 18-C , 19-C ) :   1.2554
B( 18-C , 21-H ) :   0.9980 B( 19-C , 20-C ) :   1.5535 B( 19-C , 22-C ) :   1.0526
B( 22-C , 23-H ) :   0.9344 B( 22-C , 24-H ) :   0.9355 B( 22-C , 25-C ) :   1.0490
B( 25-C , 26-H ) :   0.9595 B( 25-C , 27-H ) :   0.9514 B( 25-C , 28-C ) :   1.0882
B( 28-C , 29-H ) :   0.9714 B( 28-C , 30-H ) :   0.9715 B( 28-C , 31-H ) :   0.9721

Dispersion correction           -0.013317433
FINAL SINGLE POINT ENERGY     -1339.881108045664

DIPOLE MOMENT
-------------
                                X             Y             Z
Electronic contribution:     -0.55273      -1.64281     -15.54689
Nuclear contribution   :      0.44378       1.68007      15.80411
                        -----------------------------------------
Total Dipole Moment    :     -0.10894       0.03725       0.25722
                        -----------------------------------------
Magnitude (a.u.)       :      0.28181
Magnitude (Debye)      :      0.71631

Rotational constants in cm-1:     0.023641     0.007016     0.005838
Rotational constants in MHz :   708.735842   210.338214   175.006811

                             ****ORCA TERMINATED NORMALLY****
TOTAL RUN TIME: 0 days 0 hours 0 minutes 28 seconds 774 msec
