                         Program Version 4.2.1 -  RELEASE  -
|  1> ! wB97X-D3 SP def2-SVP
|  2> %pal
|  3> nprocs 16
|  4> end
|  5>
|  6> * xyz 0 1
|  7> S 	 33.9899 	 19.2619 	 64.5886
|  8> C 	 33.0327 	 20.0742 	 65.8783
|  9> C 	 33.8184 	 20.7774 	 66.7278
| 10> C 	 35.1933 	 20.7427 	 66.2721
| 11> C 	 35.4651 	 19.924 	 65.197
| 12> H 	 36.0166 	 21.2738 	 66.829
| 13> C 	 33.2369 	 21.7135 	 67.7964
| 14> H 	 33.856 	 21.7121 	 68.6326
| 15> H 	 32.2182 	 21.4269 	 68.1314
| 16> C 	 32.9601 	 23.1094 	 67.3021
| 17> H 	 33.8461 	 23.7306 	 67.3908
| 18> H 	 32.51 	 23.1582 	 66.2668
| 19> C 	 31.8595 	 23.8249 	 68.0931
| 20> H 	 31.8023 	 24.8796 	 67.9085
| 21> H 	 30.8644 	 23.3921 	 67.8465
| 22> H 	 32.1294 	 23.6699 	 69.1321
| 23> S 	 37.0775 	 20.7396 	 63.1264
| 24> C 	 38.5904 	 19.8977 	 62.9223
| 25> C 	 38.8398 	 18.9758 	 63.9076
| 26> C 	 37.7703 	 18.8963 	 64.8449
| 27> C 	 36.7029 	 19.6965 	 64.465
| 28> H 	 39.7479 	 18.542 	 63.9576
| 29> C 	 37.771 	 18.0496 	 66.0715
| 30> H 	 36.8031 	 18.0691 	 66.5141
| 31> H 	 38.4166 	 18.5499 	 66.7734
| 32> C 	 38.2379 	 16.5866 	 65.9388
| 33> H 	 38.3061 	 16.1901 	 66.9343
| 34> H 	 39.2354 	 16.4652 	 65.5485
| 35> C 	 37.3091 	 15.6594 	 65.1377
| 36> H 	 37.2512 	 16.0011 	 64.113
| 37> H 	 36.3375 	 15.7134 	 65.4975
| 38> H 	 37.5578 	 14.5674 	 65.1898
| 39> H 	 31.9864 	 19.9974 	 65.9149
| 40> H 	 39.4561 	 20.1684 	 62.3283
| 41> *
| 42>
| 43>                          ****END OF INPUT****

CARTESIAN COORDINATES (ANGSTROEM)
---------------------------------
  S     33.989900   19.261900   64.588600
  C     33.032700   20.074200   65.878300
  C     33.818400   20.777400   66.727800
  C     35.193300   20.742700   66.272100
  C     35.465100   19.924000   65.197000
  H     36.016600   21.273800   66.829000
  C     33.236900   21.713500   67.796400
  H     33.856000   21.712100   68.632600
  H     32.218200   21.426900   68.131400
  C     32.960100   23.109400   67.302100
  H     33.846100   23.730600   67.390800
  H     32.510000   23.158200   66.266800
  C     31.859500   23.824900   68.093100
  H     31.802300   24.879600   67.908500
  H     30.864400   23.392100   67.846500
  H     32.129400   23.669900   69.132100
  S     37.077500   20.739600   63.126400
  C     38.590400   19.897700   62.922300
  C     38.839800   18.975800   63.907600
  C     37.770300   18.896300   64.844900
  C     36.702900   19.696500   64.465000
  H     39.747900   18.542000   63.957600
  C     37.771000   18.049600   66.071500
  H     36.803100   18.069100   66.514100
  H     38.416600   18.549900   66.773400
  C     38.237900   16.586600   65.938800
  H     38.306100   16.190100   66.934300
  H     39.235400   16.465200   65.548500
  C     37.309100   15.659400   65.137700
  H     37.251200   16.001100   64.113000
  H     36.337500   15.713400   65.497500
  H     37.557800   14.567400   65.189800
  H     31.986400   19.997400   65.914900
  H     39.456100   20.168400   62.328300

 Total Charge           Charge          ....    0
 Multiplicity           Mult            ....    1
 Number of Electrons    NEL             ....  134
 Basis Dimension        Dim             ....  322

ORBITAL ENERGIES
----------------

  NO   OCC          E(Eh)            E(eV)
   0   2.0000     -88.967968     -2420.9415
   1   2.0000     -88.960367     -2420.7347
   2   2.0000     -10.326098      -280.9874
   3   2.0000     -10.320287      -280.8293
   4   2.0000     -10.313750      -280.6514
   5   2.0000     -10.310883      -280.5734
   6   2.0000     -10.302161      -280.3361
   7   2.0000     -10.300107      -280.2802
   8   2.0000     -10.299662      -280.2681
   9   2.0000     -10.292849      -280.0827
  10   2.0000     -10.285313      -279.8776
  11   2.0000     -10.284363      -279.8518
  12   2.0000     -10.283326      -279.8235
  13   2.0000     -10.281413      -279.7715
  14   2.0000     -10.277811      -279.6735
  15   2.0000     -10.267309      -279.3877
  16   2.0000      -8.082803      -219.9443
  17   2.0000      -8.075182      -219.7369
  18   2.0000      -6.041290      -164.3919
  19   2.0000      -6.037381      -164.2855
  20   2.0000      -6.033707      -164.1855
  21   2.0000      -6.033493      -164.1797
  22   2.0000      -6.029635      -164.0747
  23   2.0000      -6.025952      -163.9745
  24   2.0000      -1.007937       -27.4274
  25   2.0000      -0.984206       -26.7816
  26   2.0000      -0.918254       -24.9869
  27   2.0000      -0.908976       -24.7345
  28   2.0000      -0.873319       -23.7642
  29   2.0000      -0.849877       -23.1263
  30   2.0000      -0.842237       -22.9184
  31   2.0000      -0.815542       -22.1920
  32   2.0000      -0.787364       -21.4253
  33   2.0000      -0.774686       -21.0803
  34   2.0000      -0.707813       -19.2606
  35   2.0000      -0.698393       -19.0042
  36   2.0000      -0.691155       -18.8073
  37   2.0000      -0.660285       -17.9673
  38   2.0000      -0.645606       -17.5678
  39   2.0000      -0.618283       -16.8243
  40   2.0000      -0.597000       -16.2452
  41   2.0000      -0.580217       -15.7885
  42   2.0000      -0.567703       -15.4480
  43   2.0000      -0.552174       -15.0254
  44   2.0000      -0.542912       -14.7734
  45   2.0000      -0.529151       -14.3989
  46   2.0000      -0.519190       -14.1279
  47   2.0000      -0.510101       -13.8806
  48   2.0000      -0.506554       -13.7840
  49   2.0000      -0.493606       -13.4317
  50   2.0000      -0.489932       -13.3317
  51   2.0000      -0.477810       -13.0019
  52   2.0000      -0.466162       -12.6849
  53   2.0000      -0.462533       -12.5862
  54   2.0000      -0.458142       -12.4667
  55   2.0000      -0.452786       -12.3209
  56   2.0000      -0.448127       -12.1942
  57   2.0000      -0.439372       -11.9559
  58   2.0000      -0.430616       -11.7177
  59   2.0000      -0.424773       -11.5587
  60   2.0000      -0.419557       -11.4167
  61   2.0000      -0.416686       -11.3386
  62   2.0000      -0.410853       -11.1799
  63   2.0000      -0.337195        -9.1755
  64   2.0000      -0.329473        -8.9654
  65   2.0000      -0.321325        -8.7437
  66   2.0000      -0.311009        -8.4630
  67   0.0000       0.047064         1.2807
  68   0.0000       0.056388         1.5344
  69   0.0000       0.116446         3.1687
  70   0.0000       0.120244         3.2720
  71   0.0000       0.131309         3.5731

MULLIKEN ATOMIC CHARGES
-----------------------
   0 S :    0.097923
   1 C :   -0.117763
   2 C :   -0.062241
   3 C :    0.027912
   4 C :   -0.197698
   5 H :    0.026830
   6 C :    0.093031
   7 H :    0.013618
   8 H :    0.016645
   9 C :   -0.085247
  10 H :    0.028856
  11 H :    0.041871
  12 C :   -0.070836
  13 H :    0.035180
  14 H :    0.039122
  15 H :    0.026094
  16 S :    0.134790
  17 C :   -0.074033
  18 C :   -0.008288
  19 C :   -0.021447
  20 C :   -0.176330
  21 H :   -0.028347
  22 C :    0.108586
  23 H :    0.021510
  24 H :    0.029015
  25 C :   -0.066881
  26 H :    0.017679
  27 H :    0.021680
  28 C :   -0.036380
  29 H :    0.035231
  30 H :    0.008721
  31 H :    0.039141
  32 H :    0.029334
  33 H :    0.052723
Sum of atomic charges:    0.0000000

LOEWDIN ATOMIC CHARGES
----------------------
   0 S :    0.390709
   1 C :   -0.164794
   2 C :   -0.062463
   3 C :   -0.067279
   4 C :   -0.206923
   5 H :    0.037162
   6 C :   -0.025326
   7 H :    0.021792
   8 H :    0.034692
   9 C :   -0.044099
  10 H :    0.020923
  11 H :    0.032879
  12 C :   -0.066293
  13 H :    0.024149
  14 H :    0.026241
  15 H :    0.020291
  16 S :    0.422041
  17 C :   -0.184577
  18 C :   -0.058568
  19 C :   -0.044286
  20 C :   -0.219410
  21 H :    0.012351
  22 C :   -0.026485
  23 H :    0.029428
  24 H :    0.036527
  25 C :   -0.037254
  26 H :    0.022815
  27 H :    0.018581
  28 C :   -0.063752
  29 H :    0.025754
  30 H :    0.014131
  31 H :    0.032678
  32 H :    0.015786
  33 H :    0.032578

  Mayer bond orders larger than 0.100000
B(  0-S ,  1-C ) :   1.1323 B(  0-S ,  4-C ) :   1.1508 B(  1-C ,  2-C ) :   1.6314
B(  1-C , 32-H ) :   0.9768 B(  2-C ,  3-C ) :   1.2141 B(  2-C ,  6-C ) :   1.0383
B(  3-C ,  4-C ) :   1.6138 B(  3-C ,  5-H ) :   0.9866 B(  4-C , 20-C ) :   0.9998
B(  6-C ,  7-H ) :   0.9271 B(  6-C ,  8-H ) :   0.9465 B(  6-C ,  9-C ) :   1.0594
B(  9-C , 10-H ) :   0.9535 B(  9-C , 11-H ) :   0.9612 B(  9-C , 12-C ) :   1.0825
B( 12-C , 13-H ) :   0.9742 B( 12-C , 14-H ) :   0.9748 B( 12-C , 15-H ) :   0.9753
B( 16-S , 17-C ) :   1.1525 B( 16-S , 20-C ) :   1.1491 B( 17-C , 18-C ) :   1.6294
B( 17-C , 33-H ) :   0.9593 B( 18-C , 19-C ) :   1.2296 B( 18-C , 21-H ) :   1.0060
B( 19-C , 20-C ) :   1.5947 B( 19-C , 22-C ) :   1.0535 B( 22-C , 23-H ) :   0.9248
B( 22-C , 24-H ) :   0.9185 B( 22-C , 25-C ) :   1.0818 B( 25-C , 26-H ) :   0.9510
B( 25-C , 27-H ) :   0.9555 B( 25-C , 28-C ) :   1.0745 B( 28-C , 29-H ) :   0.9757
B( 28-C , 30-H ) :   0.9725 B( 28-C , 31-H ) :   0.9749

Dispersion correction           -0.014220006
FINAL SINGLE POINT ENERGY     -1339.875111919800

DIPOLE MOMENT
-------------
                                X             Y             Z
Electronic contribution:      3.98325       0.70980     -17.55410
Nuclear contribution   :     -3.77787      -0.50058      18.15147
                        -----------------------------------------
Total Dipole Moment    :      0.20537       0.20922       0.59737
                        -----------------------------------------
Magnitude (a.u.)       :      0.66543
Magnitude (Debye)      :      1.69140

Rotational constants in cm-1:     0.022985     0.007238     0.006465
Rotational constants in MHz :   689.070092   216.991754   193.805080

                             ****ORCA TERMINATED NORMALLY****
TOTAL RUN TIME: 0 days 0 hours 0 minutes 29 seconds 371 msec
