                         Program Version 4.2.1 -  RELEASE  -
|  1> ! wB97X-D3 SP def2-SVP
|  2> %pal
|  3> nprocs 16
|  4> end
|  5>
|  6> * xyz 0 1
|  7> S 	 -69.7207 	 34.6679 	 119.599
|  8> C 	 -68.3607 	 35.6654 	 120.054
|  9> C 	 -68.7063 	 36.8953 	 120.521
| 10> C 	 -70.0997 	 36.9215 	 120.744
| 11> C 	 -70.8313 	 35.8298 	 120.256
| 12> H 	 -70.6427 	 37.7227 	 121.301
| 13> C 	 -67.7169 	 37.8661 	 121.107
| 14> H 	 -66.8645 	 37.276 	 121.522
| 15> H 	 -68.2007 	 38.4232 	 121.881
| 16> C 	 -67.1674 	 38.7548 	 120.022
| 17> H 	 -66.3336 	 39.3347 	 120.408
| 18> H 	 -66.879 	 38.1992 	 119.106
| 19> C 	 -68.2697 	 39.7488 	 119.659
| 20> H 	 -68.921 	 39.2796 	 118.904
| 21> H 	 -68.8911 	 40.0643 	 120.482
| 22> H 	 -67.952 	 40.6672 	 119.119
| 23> S 	 -73.1671 	 37.0626 	 119.8
| 24> C 	 -74.7102 	 36.3027 	 120.002
| 25> C 	 -74.5163 	 34.96 	 120.405
| 26> C 	 -73.1192 	 34.6348 	 120.608
| 27> C 	 -72.2731 	 35.6443 	 120.236
| 28> H 	 -75.3932 	 34.3557 	 120.559
| 29> C 	 -72.6695 	 33.3456 	 121.264
| 30> H 	 -72.2473 	 32.7941 	 120.497
| 31> H 	 -73.5995 	 32.8972 	 121.652
| 32> C 	 -71.7731 	 33.4991 	 122.53
| 33> H 	 -72.2068 	 34.2334 	 123.218
| 34> H 	 -70.8229 	 33.9621 	 122.252
| 35> C 	 -71.5693 	 32.1397 	 123.226
| 36> H 	 -72.5027 	 31.6414 	 123.402
| 37> H 	 -70.9255 	 32.3058 	 124.103
| 38> H 	 -70.9548 	 31.5004 	 122.616
| 39> H 	 -67.3357 	 35.1937 	 120.108
| 40> H 	 -75.7079 	 36.5418 	 119.726
| 41> *
| 42>
| 43>                          ****END OF INPUT****

CARTESIAN COORDINATES (ANGSTROEM)
---------------------------------
  S    -69.720700   34.667900  119.599000
  C    -68.360700   35.665400  120.054000
  C    -68.706300   36.895300  120.521000
  C    -70.099700   36.921500  120.744000
  C    -70.831300   35.829800  120.256000
  H    -70.642700   37.722700  121.301000
  C    -67.716900   37.866100  121.107000
  H    -66.864500   37.276000  121.522000
  H    -68.200700   38.423200  121.881000
  C    -67.167400   38.754800  120.022000
  H    -66.333600   39.334700  120.408000
  H    -66.879000   38.199200  119.106000
  C    -68.269700   39.748800  119.659000
  H    -68.921000   39.279600  118.904000
  H    -68.891100   40.064300  120.482000
  H    -67.952000   40.667200  119.119000
  S    -73.167100   37.062600  119.800000
  C    -74.710200   36.302700  120.002000
  C    -74.516300   34.960000  120.405000
  C    -73.119200   34.634800  120.608000
  C    -72.273100   35.644300  120.236000
  H    -75.393200   34.355700  120.559000
  C    -72.669500   33.345600  121.264000
  H    -72.247300   32.794100  120.497000
  H    -73.599500   32.897200  121.652000
  C    -71.773100   33.499100  122.530000
  H    -72.206800   34.233400  123.218000
  H    -70.822900   33.962100  122.252000
  C    -71.569300   32.139700  123.226000
  H    -72.502700   31.641400  123.402000
  H    -70.925500   32.305800  124.103000
  H    -70.954800   31.500400  122.616000
  H    -67.335700   35.193700  120.108000
  H    -75.707900   36.541800  119.726000

 Total Charge           Charge          ....    0
 Multiplicity           Mult            ....    1
 Number of Electrons    NEL             ....  134
 Basis Dimension        Dim             ....  322

ORBITAL ENERGIES
----------------

  NO   OCC          E(Eh)            E(eV)
   0   2.0000     -88.967434     -2420.9270
   1   2.0000     -88.966038     -2420.8890
   2   2.0000     -10.330177      -281.0984
   3   2.0000     -10.322315      -280.8845
   4   2.0000     -10.316093      -280.7152
   5   2.0000     -10.315750      -280.7058
   6   2.0000     -10.301556      -280.3196
   7   2.0000     -10.298364      -280.2327
   8   2.0000     -10.297759      -280.2163
   9   2.0000     -10.295805      -280.1631
  10   2.0000     -10.292132      -280.0632
  11   2.0000     -10.285103      -279.8719
  12   2.0000     -10.284683      -279.8605
  13   2.0000     -10.281823      -279.7826
  14   2.0000     -10.273161      -279.5469
  15   2.0000     -10.273136      -279.5462
  16   2.0000      -8.082187      -219.9275
  17   2.0000      -8.080869      -219.8916
  18   2.0000      -6.040653      -164.3745
  19   2.0000      -6.039495      -164.3430
  20   2.0000      -6.036644      -164.2654
  21   2.0000      -6.035135      -164.2244
  22   2.0000      -6.033059      -164.1679
  23   2.0000      -6.031708      -164.1311
  24   2.0000      -1.011034       -27.5116
  25   2.0000      -0.988322       -26.8936
  26   2.0000      -0.921849       -25.0848
  27   2.0000      -0.904813       -24.6212
  28   2.0000      -0.869914       -23.6716
  29   2.0000      -0.850481       -23.1428
  30   2.0000      -0.844613       -22.9831
  31   2.0000      -0.810717       -22.0607
  32   2.0000      -0.782113       -21.2824
  33   2.0000      -0.770107       -20.9557
  34   2.0000      -0.707146       -19.2424
  35   2.0000      -0.701137       -19.0789
  36   2.0000      -0.691195       -18.8084
  37   2.0000      -0.666416       -18.1341
  38   2.0000      -0.637811       -17.3557
  39   2.0000      -0.614143       -16.7117
  40   2.0000      -0.587709       -15.9924
  41   2.0000      -0.578655       -15.7460
  42   2.0000      -0.569480       -15.4963
  43   2.0000      -0.550593       -14.9824
  44   2.0000      -0.545586       -14.8461
  45   2.0000      -0.524205       -14.2643
  46   2.0000      -0.515237       -14.0203
  47   2.0000      -0.512738       -13.9523
  48   2.0000      -0.506322       -13.7777
  49   2.0000      -0.491802       -13.3826
  50   2.0000      -0.485710       -13.2168
  51   2.0000      -0.482614       -13.1326
  52   2.0000      -0.473334       -12.8801
  53   2.0000      -0.469812       -12.7842
  54   2.0000      -0.457723       -12.4553
  55   2.0000      -0.446624       -12.1533
  56   2.0000      -0.441027       -12.0010
  57   2.0000      -0.438208       -11.9242
  58   2.0000      -0.425931       -11.5902
  59   2.0000      -0.423771       -11.5314
  60   2.0000      -0.417213       -11.3529
  61   2.0000      -0.415079       -11.2949
  62   2.0000      -0.412476       -11.2240
  63   2.0000      -0.346158        -9.4194
  64   2.0000      -0.335351        -9.1254
  65   2.0000      -0.328299        -8.9335
  66   2.0000      -0.290168        -7.8959
  67   0.0000       0.026320         0.7162
  68   0.0000       0.074200         2.0191
  69   0.0000       0.107873         2.9354
  70   0.0000       0.120790         3.2869
  71   0.0000       0.134683         3.6649

MULLIKEN ATOMIC CHARGES
-----------------------
   0 S :    0.112237
   1 C :   -0.161453
   2 C :   -0.058049
   3 C :   -0.004111
   4 C :   -0.173150
   5 H :    0.026648
   6 C :    0.060384
   7 H :    0.034401
   8 H :    0.024843
   9 C :   -0.050464
  10 H :    0.030269
  11 H :    0.043586
  12 C :   -0.085256
  13 H :    0.040627
  14 H :    0.025913
  15 H :    0.033435
  16 S :    0.119267
  17 C :   -0.069704
  18 C :   -0.067197
  19 C :   -0.054699
  20 C :   -0.136674
  21 H :    0.018384
  22 C :    0.096493
  23 H :    0.024227
  24 H :    0.014134
  25 C :   -0.094553
  26 H :    0.030788
  27 H :    0.036602
  28 C :   -0.016401
  29 H :    0.029293
  30 H :    0.034867
  31 H :    0.018633
  32 H :    0.072656
  33 H :    0.044022
Sum of atomic charges:    0.0000000

LOEWDIN ATOMIC CHARGES
----------------------
   0 S :    0.414744
   1 C :   -0.199293
   2 C :   -0.068671
   3 C :   -0.072047
   4 C :   -0.204736
   5 H :    0.033169
   6 C :   -0.022611
   7 H :    0.035395
   8 H :    0.026461
   9 C :   -0.039677
  10 H :    0.021335
  11 H :    0.032011
  12 C :   -0.073176
  13 H :    0.030055
  14 H :    0.018913
  15 H :    0.026940
  16 S :    0.435063
  17 C :   -0.196994
  18 C :   -0.069711
  19 C :   -0.057770
  20 C :   -0.208590
  21 H :    0.028293
  22 C :   -0.026703
  23 H :    0.020736
  24 H :    0.031867
  25 C :   -0.038642
  26 H :    0.024853
  27 H :    0.018996
  28 C :   -0.061382
  29 H :    0.021052
  30 H :    0.031202
  31 H :    0.022446
  32 H :    0.037604
  33 H :    0.028868

  Mayer bond orders larger than 0.100000
B(  0-S ,  1-C ) :   1.1534 B(  0-S ,  4-C ) :   1.1513 B(  1-C ,  2-C ) :   1.5979
B(  1-C ,  4-C ) :   0.1028 B(  1-C , 32-H ) :   0.9552 B(  2-C ,  3-C ) :   1.2556
B(  2-C ,  6-C ) :   1.0082 B(  3-C ,  4-C ) :   1.5643 B(  3-C ,  5-H ) :   0.9815
B(  4-C , 20-C ) :   1.0382 B(  6-C ,  7-H ) :   0.9453 B(  6-C ,  8-H ) :   0.9518
B(  6-C ,  9-C ) :   1.0682 B(  9-C , 10-H ) :   0.9573 B(  9-C , 11-H ) :   0.9583
B(  9-C , 12-C ) :   1.0654 B( 12-C , 13-H ) :   0.9733 B( 12-C , 14-H ) :   0.9781
B( 12-C , 15-H ) :   0.9750 B( 16-S , 17-C ) :   1.1646 B( 16-S , 20-C ) :   1.1408
B( 17-C , 18-C ) :   1.6033 B( 17-C , 33-H ) :   0.9672 B( 18-C , 19-C ) :   1.2533
B( 18-C , 21-H ) :   0.9885 B( 19-C , 20-C ) :   1.5766 B( 19-C , 22-C ) :   1.0308
B( 22-C , 23-H ) :   0.9281 B( 22-C , 24-H ) :   0.9368 B( 22-C , 25-C ) :   1.0643
B( 25-C , 26-H ) :   0.9589 B( 25-C , 27-H ) :   0.9488 B( 25-C , 28-C ) :   1.0889
B( 28-C , 29-H ) :   0.9753 B( 28-C , 30-H ) :   0.9720 B( 28-C , 31-H ) :   0.9731

Dispersion correction           -0.014923541
FINAL SINGLE POINT ENERGY     -1339.879578890163

DIPOLE MOMENT
-------------
                                X             Y             Z
Electronic contribution:    -10.11355      -0.67940     -10.53434
Nuclear contribution   :     10.26240       0.63582      10.88235
                        -----------------------------------------
Total Dipole Moment    :      0.14885      -0.04358       0.34802
                        -----------------------------------------
Magnitude (a.u.)       :      0.38101
Magnitude (Debye)      :      0.96846

Rotational constants in cm-1:     0.019838     0.009167     0.007013
Rotational constants in MHz :   594.716507   274.815894   210.258149

                             ****ORCA TERMINATED NORMALLY****
TOTAL RUN TIME: 0 days 0 hours 0 minutes 34 seconds 225 msec
