                         Program Version 4.2.1 -  RELEASE  -
|  1> ! wB97X-D3 SP def2-SVP
|  2> %pal
|  3> nprocs 16
|  4> end
|  5>
|  6> * xyz 0 1
|  7> S 	 -70.6393 	 40.582 	 122.3
|  8> C 	 -71.9158 	 40.4402 	 123.518
|  9> C 	 -71.9168 	 39.2196 	 124.154
| 10> C 	 -71.1091 	 38.3175 	 123.452
| 11> C 	 -70.3835 	 38.8939 	 122.447
| 12> H 	 -70.9736 	 37.2639 	 123.658
| 13> C 	 -72.7616 	 38.6965 	 125.336
| 14> H 	 -71.9973 	 38.1784 	 125.93
| 15> H 	 -73.4885 	 37.967 	 124.988
| 16> C 	 -73.4517 	 39.7494 	 126.303
| 17> H 	 -72.7461 	 40.5529 	 126.484
| 18> H 	 -74.2631 	 40.3076 	 125.735
| 19> C 	 -73.961 	 39.0965 	 127.68
| 20> H 	 -73.1507 	 38.6741 	 128.208
| 21> H 	 -74.3625 	 39.8646 	 128.281
| 22> H 	 -74.7254 	 38.2933 	 127.559
| 23> S 	 -67.8575 	 38.7849 	 121.272
| 24> C 	 -67.4058 	 37.2474 	 120.582
| 25> C 	 -68.4822 	 36.4195 	 120.311
| 26> C 	 -69.6869 	 37.0401 	 120.769
| 27> C 	 -69.4704 	 38.202 	 121.535
| 28> H 	 -68.3134 	 35.456 	 119.834
| 29> C 	 -70.9585 	 36.2686 	 120.61
| 30> H 	 -71.3263 	 35.943 	 121.587
| 31> H 	 -70.6403 	 35.295 	 120.199
| 32> C 	 -72.0588 	 36.9338 	 119.693
| 33> H 	 -71.6668 	 36.8128 	 118.683
| 34> H 	 -72.1933 	 37.9621 	 119.97
| 35> C 	 -73.3873 	 36.1405 	 119.833
| 36> H 	 -73.2648 	 35.2349 	 119.314
| 37> H 	 -74.3112 	 36.5734 	 119.433
| 38> H 	 -73.5877 	 35.8742 	 120.875
| 39> H 	 -72.4687 	 41.3146 	 123.808
| 40> H 	 -66.4003 	 36.8617 	 120.383
| 41> *
| 42>
| 43>                          ****END OF INPUT****

CARTESIAN COORDINATES (ANGSTROEM)
---------------------------------
  S    -70.639300   40.582000  122.300000
  C    -71.915800   40.440200  123.518000
  C    -71.916800   39.219600  124.154000
  C    -71.109100   38.317500  123.452000
  C    -70.383500   38.893900  122.447000
  H    -70.973600   37.263900  123.658000
  C    -72.761600   38.696500  125.336000
  H    -71.997300   38.178400  125.930000
  H    -73.488500   37.967000  124.988000
  C    -73.451700   39.749400  126.303000
  H    -72.746100   40.552900  126.484000
  H    -74.263100   40.307600  125.735000
  C    -73.961000   39.096500  127.680000
  H    -73.150700   38.674100  128.208000
  H    -74.362500   39.864600  128.281000
  H    -74.725400   38.293300  127.559000
  S    -67.857500   38.784900  121.272000
  C    -67.405800   37.247400  120.582000
  C    -68.482200   36.419500  120.311000
  C    -69.686900   37.040100  120.769000
  C    -69.470400   38.202000  121.535000
  H    -68.313400   35.456000  119.834000
  C    -70.958500   36.268600  120.610000
  H    -71.326300   35.943000  121.587000
  H    -70.640300   35.295000  120.199000
  C    -72.058800   36.933800  119.693000
  H    -71.666800   36.812800  118.683000
  H    -72.193300   37.962100  119.970000
  C    -73.387300   36.140500  119.833000
  H    -73.264800   35.234900  119.314000
  H    -74.311200   36.573400  119.433000
  H    -73.587700   35.874200  120.875000
  H    -72.468700   41.314600  123.808000
  H    -66.400300   36.861700  120.383000

 Total Charge           Charge          ....    0
 Multiplicity           Mult            ....    1
 Number of Electrons    NEL             ....  134
 Basis Dimension        Dim             ....  322

ORBITAL ENERGIES
----------------

  NO   OCC          E(Eh)            E(eV)
   0   2.0000     -88.966694     -2420.9068
   1   2.0000     -88.965464     -2420.8734
   2   2.0000     -10.324018      -280.9308
   3   2.0000     -10.323774      -280.9242
   4   2.0000     -10.314790      -280.6797
   5   2.0000     -10.312580      -280.6196
   6   2.0000     -10.302385      -280.3421
   7   2.0000     -10.301007      -280.3046
   8   2.0000     -10.300848      -280.3003
   9   2.0000     -10.300275      -280.2847
  10   2.0000     -10.292629      -280.0767
  11   2.0000     -10.288355      -279.9604
  12   2.0000     -10.287616      -279.9403
  13   2.0000     -10.285596      -279.8853
  14   2.0000     -10.283256      -279.8216
  15   2.0000     -10.271320      -279.4968
  16   2.0000      -8.081719      -219.9148
  17   2.0000      -8.080917      -219.8929
  18   2.0000      -6.040150      -164.3608
  19   2.0000      -6.039268      -164.3368
  20   2.0000      -6.036329      -164.2569
  21   2.0000      -6.035518      -164.2348
  22   2.0000      -6.032422      -164.1506
  23   2.0000      -6.031620      -164.1287
  24   2.0000      -1.010677       -27.5019
  25   2.0000      -0.986821       -26.8528
  26   2.0000      -0.902553       -24.5597
  27   2.0000      -0.900744       -24.5105
  28   2.0000      -0.864224       -23.5167
  29   2.0000      -0.851820       -23.1792
  30   2.0000      -0.847969       -23.0744
  31   2.0000      -0.810998       -22.0684
  32   2.0000      -0.784043       -21.3349
  33   2.0000      -0.765874       -20.8405
  34   2.0000      -0.713970       -19.4281
  35   2.0000      -0.705536       -19.1986
  36   2.0000      -0.686154       -18.6712
  37   2.0000      -0.660859       -17.9829
  38   2.0000      -0.641695       -17.4614
  39   2.0000      -0.615010       -16.7353
  40   2.0000      -0.587788       -15.9945
  41   2.0000      -0.567828       -15.4514
  42   2.0000      -0.560420       -15.2498
  43   2.0000      -0.558624       -15.2009
  44   2.0000      -0.520637       -14.1672
  45   2.0000      -0.517389       -14.0789
  46   2.0000      -0.516430       -14.0528
  47   2.0000      -0.506750       -13.7894
  48   2.0000      -0.500423       -13.6172
  49   2.0000      -0.495716       -13.4891
  50   2.0000      -0.493003       -13.4153
  51   2.0000      -0.482330       -13.1249
  52   2.0000      -0.479285       -13.0420
  53   2.0000      -0.463642       -12.6163
  54   2.0000      -0.458673       -12.4811
  55   2.0000      -0.454378       -12.3642
  56   2.0000      -0.441692       -12.0190
  57   2.0000      -0.432797       -11.7770
  58   2.0000      -0.431604       -11.7445
  59   2.0000      -0.427623       -11.6362
  60   2.0000      -0.425185       -11.5699
  61   2.0000      -0.418863       -11.3978
  62   2.0000      -0.415410       -11.3039
  63   2.0000      -0.344485        -9.3739
  64   2.0000      -0.335463        -9.1284
  65   2.0000      -0.328663        -8.9434
  66   2.0000      -0.285544        -7.7701
  67   0.0000       0.031170         0.8482
  68   0.0000       0.066086         1.7983
  69   0.0000       0.102021         2.7761
  70   0.0000       0.121848         3.3157
  71   0.0000       0.132613         3.6086

MULLIKEN ATOMIC CHARGES
-----------------------
   0 S :    0.108353
   1 C :   -0.144559
   2 C :   -0.035534
   3 C :   -0.002022
   4 C :   -0.132025
   5 H :    0.010333
   6 C :    0.037909
   7 H :    0.034333
   8 H :    0.049648
   9 C :   -0.109815
  10 H :    0.029923
  11 H :    0.038846
  12 C :   -0.026621
  13 H :    0.026531
  14 H :    0.030608
  15 H :    0.040775
  16 S :    0.118547
  17 C :   -0.090806
  18 C :   -0.052717
  19 C :   -0.032026
  20 C :   -0.152900
  21 H :    0.029572
  22 C :    0.036591
  23 H :    0.017147
  24 H :    0.004035
  25 C :   -0.049089
  26 H :    0.035937
  27 H :    0.046031
  28 C :   -0.031837
  29 H :    0.011757
  30 H :    0.035273
  31 H :    0.023587
  32 H :    0.040420
  33 H :    0.053795
Sum of atomic charges:    0.0000000

LOEWDIN ATOMIC CHARGES
----------------------
   0 S :    0.405493
   1 C :   -0.189460
   2 C :   -0.059899
   3 C :   -0.063475
   4 C :   -0.197885
   5 H :    0.032355
   6 C :   -0.030392
   7 H :    0.035058
   8 H :    0.033799
   9 C :   -0.043985
  10 H :    0.021337
  11 H :    0.027296
  12 C :   -0.057722
  13 H :    0.020238
  14 H :    0.022850
  15 H :    0.031047
  16 S :    0.411136
  17 C :   -0.189730
  18 C :   -0.073422
  19 C :   -0.057529
  20 C :   -0.207756
  21 H :    0.036643
  22 C :   -0.036087
  23 H :    0.024945
  24 H :    0.027615
  25 C :   -0.026239
  26 H :    0.027513
  27 H :    0.023344
  28 C :   -0.066146
  29 H :    0.017557
  30 H :    0.026760
  31 H :    0.023621
  32 H :    0.019324
  33 H :    0.031799

  Mayer bond orders larger than 0.100000
B(  0-S ,  1-C ) :   1.1286 B(  0-S ,  4-C ) :   1.1534 B(  1-C ,  2-C ) :   1.6179
B(  1-C , 32-H ) :   0.9717 B(  2-C ,  3-C ) :   1.2265 B(  2-C ,  6-C ) :   0.9961
B(  3-C ,  4-C ) :   1.5978 B(  3-C ,  5-H ) :   1.0001 B(  4-C , 20-C ) :   1.0324
B(  6-C ,  7-H ) :   0.9446 B(  6-C ,  8-H ) :   0.9471 B(  6-C ,  9-C ) :   1.0604
B(  9-C , 10-H ) :   0.9603 B(  9-C , 11-H ) :   0.9564 B(  9-C , 12-C ) :   1.0703
B( 12-C , 13-H ) :   0.9770 B( 12-C , 14-H ) :   0.9760 B( 12-C , 15-H ) :   0.9788
B( 16-S , 17-C ) :   1.1567 B( 16-S , 20-C ) :   1.1347 B( 17-C , 18-C ) :   1.6245
B( 17-C , 33-H ) :   0.9621 B( 18-C , 19-C ) :   1.2386 B( 18-C , 21-H ) :   0.9881
B( 19-C , 20-C ) :   1.5700 B( 19-C , 22-C ) :   1.0501 B( 22-C , 23-H ) :   0.9372
B( 22-C , 24-H ) :   0.9339 B( 22-C , 25-C ) :   1.0378 B( 25-C , 26-H ) :   0.9581
B( 25-C , 27-H ) :   0.9675 B( 25-C , 28-C ) :   1.0717 B( 28-C , 29-H ) :   0.9741
B( 28-C , 30-H ) :   0.9761 B( 28-C , 31-H ) :   0.9775

Dispersion correction           -0.013974136
FINAL SINGLE POINT ENERGY     -1339.870191780427

DIPOLE MOMENT
-------------
                                X             Y             Z
Electronic contribution:     23.96267      12.19788     -10.45392
Nuclear contribution   :    -24.31371     -12.73768      10.77342
                        -----------------------------------------
Total Dipole Moment    :     -0.35104      -0.53980       0.31950
                        -----------------------------------------
Magnitude (a.u.)       :      0.71881
Magnitude (Debye)      :      1.82708

Rotational constants in cm-1:     0.019209     0.007753     0.006454
Rotational constants in MHz :   575.862550   232.435178   193.484354

                             ****ORCA TERMINATED NORMALLY****
TOTAL RUN TIME: 0 days 0 hours 0 minutes 33 seconds 72 msec
