                         Program Version 4.2.1 -  RELEASE  -
|  1> ! wB97X-D3 SP def2-SVP
|  2> %pal
|  3> nprocs 16
|  4> end
|  5>
|  6> * xyz 0 1
|  7> S 	 -22.6876 	 -1.73053 	 84.8995
|  8> C 	 -23.137 	 -1.89002 	 83.2088
|  9> C 	 -22.3638 	 -2.94155 	 82.6339
| 10> C 	 -21.5963 	 -3.62651 	 83.6607
| 11> C 	 -21.4607 	 -2.94304 	 84.8232
| 12> H 	 -21.0421 	 -4.51686 	 83.5616
| 13> C 	 -22.5979 	 -3.54184 	 81.2916
| 14> H 	 -21.695 	 -4.22758 	 81.1461
| 15> H 	 -22.5046 	 -2.73843 	 80.639
| 16> C 	 -23.8963 	 -4.33124 	 80.9891
| 17> H 	 -24.7574 	 -3.75783 	 81.3152
| 18> H 	 -23.9259 	 -4.49012 	 79.9347
| 19> C 	 -24.0253 	 -5.70387 	 81.807
| 20> H 	 -24.0169 	 -5.35199 	 82.8142
| 21> H 	 -24.8997 	 -6.38306 	 81.6022
| 22> H 	 -23.1167 	 -6.24775 	 81.5814
| 23> S 	 -21.8289 	 -3.4722 	 87.5346
| 24> C 	 -20.5276 	 -3.99974 	 88.5612
| 25> C 	 -19.3243 	 -3.94818 	 87.8396
| 26> C 	 -19.4306 	 -3.49176 	 86.5105
| 27> C 	 -20.8003 	 -3.30806 	 86.1259
| 28> H 	 -18.351 	 -4.29841 	 88.2015
| 29> C 	 -18.2173 	 -3.48447 	 85.5782
| 30> H 	 -18.1895 	 -2.57536 	 84.9756
| 31> H 	 -18.3223 	 -4.35646 	 84.9261
| 32> C 	 -16.7979 	 -3.61101 	 86.0867
| 33> H 	 -16.6204 	 -4.48149 	 86.6827
| 34> H 	 -16.5611 	 -2.76767 	 86.6243
| 35> C 	 -15.7992 	 -3.75116 	 84.9179
| 36> H 	 -15.8156 	 -2.90822 	 84.1805
| 37> H 	 -16.0751 	 -4.58851 	 84.2564
| 38> H 	 -14.7955 	 -4.01868 	 85.2055
| 39> H 	 -23.9273 	 -1.30961 	 82.7137
| 40> H 	 -20.4394 	 -4.27581 	 89.6405
| 41> *
| 42>
| 43>                          ****END OF INPUT****

CARTESIAN COORDINATES (ANGSTROEM)
---------------------------------
  S    -22.687600   -1.730530   84.899500
  C    -23.137000   -1.890020   83.208800
  C    -22.363800   -2.941550   82.633900
  C    -21.596300   -3.626510   83.660700
  C    -21.460700   -2.943040   84.823200
  H    -21.042100   -4.516860   83.561600
  C    -22.597900   -3.541840   81.291600
  H    -21.695000   -4.227580   81.146100
  H    -22.504600   -2.738430   80.639000
  C    -23.896300   -4.331240   80.989100
  H    -24.757400   -3.757830   81.315200
  H    -23.925900   -4.490120   79.934700
  C    -24.025300   -5.703870   81.807000
  H    -24.016900   -5.351990   82.814200
  H    -24.899700   -6.383060   81.602200
  H    -23.116700   -6.247750   81.581400
  S    -21.828900   -3.472200   87.534600
  C    -20.527600   -3.999740   88.561200
  C    -19.324300   -3.948180   87.839600
  C    -19.430600   -3.491760   86.510500
  C    -20.800300   -3.308060   86.125900
  H    -18.351000   -4.298410   88.201500
  C    -18.217300   -3.484470   85.578200
  H    -18.189500   -2.575360   84.975600
  H    -18.322300   -4.356460   84.926100
  C    -16.797900   -3.611010   86.086700
  H    -16.620400   -4.481490   86.682700
  H    -16.561100   -2.767670   86.624300
  C    -15.799200   -3.751160   84.917900
  H    -15.815600   -2.908220   84.180500
  H    -16.075100   -4.588510   84.256400
  H    -14.795500   -4.018680   85.205500
  H    -23.927300   -1.309610   82.713700
  H    -20.439400   -4.275810   89.640500

 Total Charge           Charge          ....    0
 Multiplicity           Mult            ....    1
 Number of Electrons    NEL             ....  134
 Basis Dimension        Dim             ....  322

ORBITAL ENERGIES
----------------

  NO   OCC          E(Eh)            E(eV)
   0   2.0000     -88.972913     -2421.0760
   1   2.0000     -88.963346     -2420.8157
   2   2.0000     -10.335100      -281.2324
   3   2.0000     -10.329443      -281.0784
   4   2.0000     -10.322751      -280.8963
   5   2.0000     -10.322236      -280.8823
   6   2.0000     -10.308029      -280.4957
   7   2.0000     -10.307178      -280.4726
   8   2.0000     -10.292876      -280.0834
   9   2.0000     -10.292032      -280.0604
  10   2.0000     -10.292019      -280.0601
  11   2.0000     -10.291741      -280.0525
  12   2.0000     -10.289596      -279.9941
  13   2.0000     -10.282969      -279.8138
  14   2.0000     -10.281346      -279.7696
  15   2.0000     -10.279660      -279.7238
  16   2.0000      -8.086859      -220.0546
  17   2.0000      -8.078522      -219.8278
  18   2.0000      -6.045443      -164.5049
  19   2.0000      -6.041217      -164.3899
  20   2.0000      -6.037822      -164.2975
  21   2.0000      -6.037028      -164.2759
  22   2.0000      -6.032827      -164.1616
  23   2.0000      -6.029382      -164.0678
  24   2.0000      -1.006051       -27.3760
  25   2.0000      -0.983465       -26.7614
  26   2.0000      -0.915776       -24.9195
  27   2.0000      -0.909040       -24.7362
  28   2.0000      -0.860544       -23.4166
  29   2.0000      -0.852432       -23.1958
  30   2.0000      -0.842061       -22.9136
  31   2.0000      -0.815173       -22.1820
  32   2.0000      -0.781204       -21.2576
  33   2.0000      -0.769873       -20.9493
  34   2.0000      -0.709844       -19.3159
  35   2.0000      -0.705185       -19.1891
  36   2.0000      -0.693088       -18.8599
  37   2.0000      -0.651460       -17.7271
  38   2.0000      -0.644027       -17.5249
  39   2.0000      -0.616318       -16.7709
  40   2.0000      -0.597066       -16.2470
  41   2.0000      -0.580847       -15.8056
  42   2.0000      -0.571683       -15.5563
  43   2.0000      -0.548356       -14.9215
  44   2.0000      -0.542041       -14.7497
  45   2.0000      -0.520232       -14.1562
  46   2.0000      -0.514332       -13.9957
  47   2.0000      -0.510975       -13.9043
  48   2.0000      -0.502646       -13.6777
  49   2.0000      -0.496543       -13.5116
  50   2.0000      -0.483298       -13.1512
  51   2.0000      -0.477156       -12.9841
  52   2.0000      -0.472662       -12.8618
  53   2.0000      -0.463186       -12.6039
  54   2.0000      -0.460033       -12.5181
  55   2.0000      -0.455898       -12.4056
  56   2.0000      -0.446930       -12.1616
  57   2.0000      -0.442035       -12.0284
  58   2.0000      -0.433161       -11.7869
  59   2.0000      -0.424372       -11.5477
  60   2.0000      -0.421505       -11.4697
  61   2.0000      -0.416675       -11.3383
  62   2.0000      -0.410194       -11.1619
  63   2.0000      -0.343198        -9.3389
  64   2.0000      -0.332437        -9.0461
  65   2.0000      -0.324498        -8.8301
  66   2.0000      -0.294016        -8.0006
  67   0.0000       0.028021         0.7625
  68   0.0000       0.060786         1.6541
  69   0.0000       0.109018         2.9665
  70   0.0000       0.118737         3.2310
  71   0.0000       0.133645         3.6367

MULLIKEN ATOMIC CHARGES
-----------------------
   0 S :    0.092621
   1 C :   -0.128847
   2 C :   -0.110408
   3 C :    0.040421
   4 C :   -0.132783
   5 H :   -0.000602
   6 C :    0.055083
   7 H :    0.029508
   8 H :    0.020317
   9 C :   -0.046315
  10 H :    0.026147
  11 H :    0.031756
  12 C :   -0.079795
  13 H :    0.044118
  14 H :    0.054279
  15 H :    0.024351
  16 S :    0.131453
  17 C :   -0.090095
  18 C :   -0.072429
  19 C :   -0.003297
  20 C :   -0.177775
  21 H :    0.023003
  22 C :    0.028875
  23 H :    0.037689
  24 H :    0.035491
  25 C :   -0.037517
  26 H :    0.026087
  27 H :    0.020002
  28 C :   -0.065740
  29 H :    0.033479
  30 H :    0.016516
  31 H :    0.033327
  32 H :    0.067226
  33 H :    0.073855
Sum of atomic charges:   -0.0000000

LOEWDIN ATOMIC CHARGES
----------------------
   0 S :    0.411604
   1 C :   -0.197852
   2 C :   -0.065232
   3 C :   -0.059623
   4 C :   -0.200003
   5 H :    0.024672
   6 C :   -0.036692
   7 H :    0.037279
   8 H :    0.026009
   9 C :   -0.028725
  10 H :    0.021110
  11 H :    0.018998
  12 C :   -0.067841
  13 H :    0.024669
  14 H :    0.034073
  15 H :    0.019186
  16 S :    0.430464
  17 C :   -0.211423
  18 C :   -0.080218
  19 C :   -0.055250
  20 C :   -0.208690
  21 H :    0.031087
  22 C :   -0.033756
  23 H :    0.036337
  24 H :    0.034769
  25 C :   -0.034013
  26 H :    0.020798
  27 H :    0.014642
  28 C :   -0.066233
  29 H :    0.028227
  30 H :    0.024533
  31 H :    0.024769
  32 H :    0.034464
  33 H :    0.047861

  Mayer bond orders larger than 0.100000
B(  0-S ,  1-C ) :   1.1574 B(  0-S ,  4-C ) :   1.1539 B(  1-C ,  2-C ) :   1.5603
B(  1-C , 32-H ) :   0.9727 B(  2-C ,  3-C ) :   1.2397 B(  2-C ,  6-C ) :   1.0371
B(  3-C ,  4-C ) :   1.6002 B(  3-C ,  5-H ) :   0.9907 B(  4-C , 20-C ) :   1.0064
B(  6-C ,  7-H ) :   0.9419 B(  6-C ,  8-H ) :   0.9278 B(  6-C ,  9-C ) :   1.0681
B(  9-C , 10-H ) :   0.9592 B(  9-C , 11-H ) :   0.9574 B(  9-C , 12-C ) :   1.0545
B( 12-C , 13-H ) :   0.9804 B( 12-C , 14-H ) :   0.9776 B( 12-C , 15-H ) :   0.9792
B( 16-S , 17-C ) :   1.1674 B( 16-S , 20-C ) :   1.1688 B( 17-C , 18-C ) :   1.5568
B( 17-C , 20-C ) :   0.1142 B( 17-C , 33-H ) :   0.9585 B( 18-C , 19-C ) :   1.3257
B( 18-C , 21-H ) :   0.9739 B( 19-C , 20-C ) :   1.5378 B( 19-C , 22-C ) :   1.0225
B( 22-C , 23-H ) :   0.9356 B( 22-C , 24-H ) :   0.9398 B( 22-C , 25-C ) :   1.0847
B( 25-C , 26-H ) :   0.9422 B( 25-C , 27-H ) :   0.9534 B( 25-C , 28-C ) :   1.0864
B( 28-C , 29-H ) :   0.9746 B( 28-C , 30-H ) :   0.9709 B( 28-C , 31-H ) :   0.9741

Dispersion correction           -0.013560263
FINAL SINGLE POINT ENERGY     -1339.855599336478

DIPOLE MOMENT
-------------
                                X             Y             Z
Electronic contribution:    -13.15721      11.25083      17.55224
Nuclear contribution   :     13.51283     -11.61523     -17.90708
                        -----------------------------------------
Total Dipole Moment    :      0.35561      -0.36440      -0.35485
                        -----------------------------------------
Magnitude (a.u.)       :      0.62062
Magnitude (Debye)      :      1.57748

Rotational constants in cm-1:     0.018230     0.007777     0.006394
Rotational constants in MHz :   546.511527   233.144679   191.688114

                             ****ORCA TERMINATED NORMALLY****
TOTAL RUN TIME: 0 days 0 hours 0 minutes 32 seconds 349 msec
