                         Program Version 4.2.1 -  RELEASE  -
|  1> ! wB97X-D3 SP def2-SVP
|  2> %pal
|  3> nprocs 16
|  4> end
|  5>
|  6> * xyz 0 1
|  7> S 	 7.21091 	 -14.6976 	 54.8522
|  8> C 	 7.5337 	 -14.3786 	 56.597
|  9> C 	 7.11717 	 -15.3906 	 57.4039
| 10> C 	 6.64549 	 -16.4888 	 56.6064
| 11> C 	 6.91428 	 -16.3764 	 55.2764
| 12> H 	 6.2664 	 -17.3769 	 56.9691
| 13> C 	 7.14792 	 -15.5082 	 58.9202
| 14> H 	 8.1774 	 -15.4913 	 59.2513
| 15> H 	 6.93107 	 -16.5508 	 59.1912
| 16> C 	 6.41052 	 -14.4525 	 59.7161
| 17> H 	 6.76655 	 -14.5689 	 60.7585
| 18> H 	 6.60848 	 -13.5176 	 59.22
| 19> C 	 4.85933 	 -14.6006 	 59.7356
| 20> H 	 4.50859 	 -15.5601 	 60.1269
| 21> H 	 4.28384 	 -13.7658 	 60.1399
| 22> H 	 4.42554 	 -14.5902 	 58.765
| 23> S 	 5.15167 	 -16.6008 	 53.0883
| 24> C 	 4.995 	 -18.0723 	 52.2229
| 25> C 	 5.70807 	 -19.0324 	 52.8997
| 26> C 	 6.43361 	 -18.6174 	 54.0338
| 27> C 	 6.36175 	 -17.2629 	 54.2363
| 28> H 	 5.63202 	 -20.0219 	 52.4879
| 29> C 	 7.14812 	 -19.6477 	 54.9886
| 30> H 	 7.76254 	 -19.0014 	 55.6264
| 31> H 	 7.7428 	 -20.3712 	 54.3876
| 32> C 	 6.14111 	 -20.4313 	 55.8191
| 33> H 	 5.52334 	 -21.0564 	 55.1496
| 34> H 	 5.33388 	 -19.8088 	 56.2113
| 35> C 	 6.64906 	 -21.1002 	 57.1043
| 36> H 	 7.3234 	 -20.4807 	 57.7168
| 37> H 	 7.12077 	 -22.0769 	 56.8878
| 38> H 	 5.78448 	 -21.2083 	 57.734
| 39> H 	 7.84178 	 -13.4527 	 56.994
| 40> H 	 4.33482 	 -18.228 	 51.3434
| 41> *
| 42>
| 43>                          ****END OF INPUT****

CARTESIAN COORDINATES (ANGSTROEM)
---------------------------------
  S      7.210910  -14.697600   54.852200
  C      7.533700  -14.378600   56.597000
  C      7.117170  -15.390600   57.403900
  C      6.645490  -16.488800   56.606400
  C      6.914280  -16.376400   55.276400
  H      6.266400  -17.376900   56.969100
  C      7.147920  -15.508200   58.920200
  H      8.177400  -15.491300   59.251300
  H      6.931070  -16.550800   59.191200
  C      6.410520  -14.452500   59.716100
  H      6.766550  -14.568900   60.758500
  H      6.608480  -13.517600   59.220000
  C      4.859330  -14.600600   59.735600
  H      4.508590  -15.560100   60.126900
  H      4.283840  -13.765800   60.139900
  H      4.425540  -14.590200   58.765000
  S      5.151670  -16.600800   53.088300
  C      4.995000  -18.072300   52.222900
  C      5.708070  -19.032400   52.899700
  C      6.433610  -18.617400   54.033800
  C      6.361750  -17.262900   54.236300
  H      5.632020  -20.021900   52.487900
  C      7.148120  -19.647700   54.988600
  H      7.762540  -19.001400   55.626400
  H      7.742800  -20.371200   54.387600
  C      6.141110  -20.431300   55.819100
  H      5.523340  -21.056400   55.149600
  H      5.333880  -19.808800   56.211300
  C      6.649060  -21.100200   57.104300
  H      7.323400  -20.480700   57.716800
  H      7.120770  -22.076900   56.887800
  H      5.784480  -21.208300   57.734000
  H      7.841780  -13.452700   56.994000
  H      4.334820  -18.228000   51.343400

 Total Charge           Charge          ....    0
 Multiplicity           Mult            ....    1
 Number of Electrons    NEL             ....  134
 Basis Dimension        Dim             ....  322

ORBITAL ENERGIES
----------------

  NO   OCC          E(Eh)            E(eV)
   0   2.0000     -88.967122     -2420.9185
   1   2.0000     -88.959787     -2420.7189
   2   2.0000     -10.328998      -281.0663
   3   2.0000     -10.327359      -281.0217
   4   2.0000     -10.315573      -280.7010
   5   2.0000     -10.315568      -280.7009
   6   2.0000     -10.302963      -280.3579
   7   2.0000     -10.301400      -280.3154
   8   2.0000     -10.298335      -280.2320
   9   2.0000     -10.295200      -280.1466
  10   2.0000     -10.294046      -280.1152
  11   2.0000     -10.290232      -280.0115
  12   2.0000     -10.287255      -279.9304
  13   2.0000     -10.286780      -279.9175
  14   2.0000     -10.282337      -279.7966
  15   2.0000     -10.274695      -279.5887
  16   2.0000      -8.081132      -219.8988
  17   2.0000      -8.074721      -219.7243
  18   2.0000      -6.039768      -164.3504
  19   2.0000      -6.036128      -164.2514
  20   2.0000      -6.033258      -164.1733
  21   2.0000      -6.031383      -164.1223
  22   2.0000      -6.029166      -164.0619
  23   2.0000      -6.025454      -163.9609
  24   2.0000      -1.007875       -27.4257
  25   2.0000      -0.985977       -26.8298
  26   2.0000      -0.915342       -24.9077
  27   2.0000      -0.906662       -24.6715
  28   2.0000      -0.868846       -23.6425
  29   2.0000      -0.851723       -23.1766
  30   2.0000      -0.842722       -22.9316
  31   2.0000      -0.813983       -22.1496
  32   2.0000      -0.788631       -21.4597
  33   2.0000      -0.779430       -21.2094
  34   2.0000      -0.712333       -19.3836
  35   2.0000      -0.700727       -19.0677
  36   2.0000      -0.694685       -18.9033
  37   2.0000      -0.658725       -17.9248
  38   2.0000      -0.643108       -17.4998
  39   2.0000      -0.619678       -16.8623
  40   2.0000      -0.594237       -16.1700
  41   2.0000      -0.580034       -15.7835
  42   2.0000      -0.564414       -15.3585
  43   2.0000      -0.545618       -14.8470
  44   2.0000      -0.541834       -14.7441
  45   2.0000      -0.524190       -14.2639
  46   2.0000      -0.518465       -14.1082
  47   2.0000      -0.514754       -14.0072
  48   2.0000      -0.508927       -13.8486
  49   2.0000      -0.496321       -13.5056
  50   2.0000      -0.488168       -13.2837
  51   2.0000      -0.486386       -13.2352
  52   2.0000      -0.475787       -12.9468
  53   2.0000      -0.468265       -12.7421
  54   2.0000      -0.458924       -12.4880
  55   2.0000      -0.446841       -12.1592
  56   2.0000      -0.445231       -12.1154
  57   2.0000      -0.438459       -11.9311
  58   2.0000      -0.433378       -11.7928
  59   2.0000      -0.426088       -11.5945
  60   2.0000      -0.418252       -11.3812
  61   2.0000      -0.415837       -11.3155
  62   2.0000      -0.403733       -10.9861
  63   2.0000      -0.348653        -9.4873
  64   2.0000      -0.332177        -9.0390
  65   2.0000      -0.328232        -8.9317
  66   2.0000      -0.295314        -8.0359
  67   0.0000       0.025920         0.7053
  68   0.0000       0.066390         1.8066
  69   0.0000       0.101215         2.7542
  70   0.0000       0.124878         3.3981
  71   0.0000       0.127249         3.4626

MULLIKEN ATOMIC CHARGES
-----------------------
   0 S :    0.090242
   1 C :   -0.100143
   2 C :   -0.065233
   3 C :    0.047924
   4 C :   -0.122470
   5 H :   -0.023904
   6 C :    0.074303
   7 H :    0.032616
   8 H :    0.010020
   9 C :   -0.046030
  10 H :    0.042030
  11 H :    0.029087
  12 C :   -0.053539
  13 H :    0.024126
  14 H :    0.033857
  15 H :    0.015351
  16 S :    0.086170
  17 C :   -0.105660
  18 C :   -0.046712
  19 C :   -0.042275
  20 C :   -0.157929
  21 H :    0.008847
  22 C :    0.101947
  23 H :    0.021494
  24 H :    0.039081
  25 C :   -0.105988
  26 H :    0.024512
  27 H :    0.020986
  28 C :   -0.033837
  29 H :    0.030725
  30 H :    0.043150
  31 H :    0.027878
  32 H :    0.024349
  33 H :    0.075024
Sum of atomic charges:   -0.0000000

LOEWDIN ATOMIC CHARGES
----------------------
   0 S :    0.380235
   1 C :   -0.164375
   2 C :   -0.058392
   3 C :   -0.041684
   4 C :   -0.185367
   5 H :    0.015640
   6 C :   -0.035413
   7 H :    0.037265
   8 H :    0.029183
   9 C :   -0.032892
  10 H :    0.031816
  11 H :    0.025317
  12 C :   -0.075550
  13 H :    0.023534
  14 H :    0.029011
  15 H :    0.022042
  16 S :    0.391807
  17 C :   -0.200003
  18 C :   -0.081908
  19 C :   -0.060935
  20 C :   -0.184599
  21 H :    0.026673
  22 C :   -0.022878
  23 H :    0.026749
  24 H :    0.034452
  25 C :   -0.054540
  26 H :    0.026756
  27 H :    0.023390
  28 C :   -0.064325
  29 H :    0.027260
  30 H :    0.027113
  31 H :    0.026347
  32 H :    0.016192
  33 H :    0.042080

  Mayer bond orders larger than 0.100000
B(  0-S ,  1-C ) :   1.1217 B(  0-S ,  4-C ) :   1.1277 B(  1-C ,  2-C ) :   1.6457
B(  1-C , 32-H ) :   0.9702 B(  2-C ,  3-C ) :   1.2163 B(  2-C ,  6-C ) :   1.0059
B(  3-C ,  4-C ) :   1.5903 B(  3-C ,  5-H ) :   1.0020 B(  4-C , 20-C ) :   1.0255
B(  6-C ,  7-H ) :   0.9344 B(  6-C ,  8-H ) :   0.9405 B(  6-C ,  9-C ) :   1.0681
B(  9-C , 10-H ) :   0.9554 B(  9-C , 11-H ) :   0.9581 B(  9-C , 12-C ) :   1.0743
B( 12-C , 13-H ) :   0.9757 B( 12-C , 14-H ) :   0.9750 B( 12-C , 15-H ) :   0.9726
B( 16-S , 17-C ) :   1.1566 B( 16-S , 20-C ) :   1.1368 B( 17-C , 18-C ) :   1.5988
B( 17-C , 33-H ) :   0.9648 B( 18-C , 19-C ) :   1.2398 B( 18-C , 21-H ) :   0.9969
B( 19-C , 20-C ) :   1.6277 B( 19-C , 22-C ) :   1.0335 B( 22-C , 23-H ) :   0.9332
B( 22-C , 24-H ) :   0.9388 B( 22-C , 25-C ) :   1.0613 B( 25-C , 26-H ) :   0.9491
B( 25-C , 27-H ) :   0.9579 B( 25-C , 28-C ) :   1.0778 B( 28-C , 29-H ) :   0.9729
B( 28-C , 30-H ) :   0.9759 B( 28-C , 31-H ) :   0.9782

Dispersion correction           -0.014273126
FINAL SINGLE POINT ENERGY     -1339.862305293849

DIPOLE MOMENT
-------------
                                X             Y             Z
Electronic contribution:      1.71693      12.46565     -25.22472
Nuclear contribution   :     -1.88566     -12.87304      25.84949
                        -----------------------------------------
Total Dipole Moment    :     -0.16873      -0.40739       0.62477
                        -----------------------------------------
Magnitude (a.u.)       :      0.76471
Magnitude (Debye)      :      1.94373

Rotational constants in cm-1:     0.017381     0.009092     0.006844
Rotational constants in MHz :   521.082944   272.579400   205.188407

                             ****ORCA TERMINATED NORMALLY****
TOTAL RUN TIME: 0 days 0 hours 0 minutes 30 seconds 133 msec
