                         Program Version 4.2.1 -  RELEASE  -
|  1> ! wB97X-D3 SP def2-SVP
|  2> %pal
|  3> nprocs 16
|  4> end
|  5>
|  6> * xyz 0 1
|  7> S 	 -83.7728 	 55.1334 	 135.284
|  8> C 	 -84.5476 	 53.9007 	 136.335
|  9> C 	 -83.8316 	 53.7914 	 137.534
| 10> C 	 -82.633 	 54.5342 	 137.53
| 11> C 	 -82.3818 	 55.2853 	 136.442
| 12> H 	 -81.9338 	 54.6062 	 138.419
| 13> C 	 -84.0946 	 52.8592 	 138.66
| 14> H 	 -85.0454 	 52.4351 	 138.36
| 15> H 	 -84.3351 	 53.4076 	 139.551
| 16> C 	 -83.0978 	 51.7369 	 138.768
| 17> H 	 -82.8439 	 51.3575 	 137.761
| 18> H 	 -82.1805 	 52.0773 	 139.243
| 19> C 	 -83.5822 	 50.541 	 139.641
| 20> H 	 -83.9249 	 51.0582 	 140.597
| 21> H 	 -84.498 	 50.1703 	 139.213
| 22> H 	 -82.8233 	 49.6988 	 139.825
| 23> S 	 -81.9963 	 57.9796 	 136.154
| 24> C 	 -80.3547 	 58.5614 	 135.81
| 25> C 	 -79.4524 	 57.5652 	 135.706
| 26> C 	 -80.0283 	 56.2225 	 135.888
| 27> C 	 -81.4078 	 56.3208 	 136.243
| 28> H 	 -78.4779 	 57.7889 	 135.375
| 29> C 	 -79.2424 	 54.9589 	 135.519
| 30> H 	 -78.6417 	 55.0942 	 134.55
| 31> H 	 -80.0002 	 54.1747 	 135.249
| 32> C 	 -78.3342 	 54.4296 	 136.584
| 33> H 	 -77.685 	 55.2296 	 136.921
| 34> H 	 -77.8235 	 53.606 	 136.123
| 35> C 	 -79.0001 	 53.9715 	 137.833
| 36> H 	 -78.2607 	 53.4355 	 138.455
| 37> H 	 -79.7931 	 53.2089 	 137.72
| 38> H 	 -79.4285 	 54.8218 	 138.334
| 39> H 	 -85.4797 	 53.4237 	 136.091
| 40> H 	 -80.1118 	 59.5906 	 135.692
| 41> *
| 42>
| 43>                          ****END OF INPUT****

CARTESIAN COORDINATES (ANGSTROEM)
---------------------------------
  S    -83.772800   55.133400  135.284000
  C    -84.547600   53.900700  136.335000
  C    -83.831600   53.791400  137.534000
  C    -82.633000   54.534200  137.530000
  C    -82.381800   55.285300  136.442000
  H    -81.933800   54.606200  138.419000
  C    -84.094600   52.859200  138.660000
  H    -85.045400   52.435100  138.360000
  H    -84.335100   53.407600  139.551000
  C    -83.097800   51.736900  138.768000
  H    -82.843900   51.357500  137.761000
  H    -82.180500   52.077300  139.243000
  C    -83.582200   50.541000  139.641000
  H    -83.924900   51.058200  140.597000
  H    -84.498000   50.170300  139.213000
  H    -82.823300   49.698800  139.825000
  S    -81.996300   57.979600  136.154000
  C    -80.354700   58.561400  135.810000
  C    -79.452400   57.565200  135.706000
  C    -80.028300   56.222500  135.888000
  C    -81.407800   56.320800  136.243000
  H    -78.477900   57.788900  135.375000
  C    -79.242400   54.958900  135.519000
  H    -78.641700   55.094200  134.550000
  H    -80.000200   54.174700  135.249000
  C    -78.334200   54.429600  136.584000
  H    -77.685000   55.229600  136.921000
  H    -77.823500   53.606000  136.123000
  C    -79.000100   53.971500  137.833000
  H    -78.260700   53.435500  138.455000
  H    -79.793100   53.208900  137.720000
  H    -79.428500   54.821800  138.334000
  H    -85.479700   53.423700  136.091000
  H    -80.111800   59.590600  135.692000

 Total Charge           Charge          ....    0
 Multiplicity           Mult            ....    1
 Number of Electrons    NEL             ....  134
 Basis Dimension        Dim             ....  322

ORBITAL ENERGIES
----------------

  NO   OCC          E(Eh)            E(eV)
   0   2.0000     -88.965711     -2420.8801
   1   2.0000     -88.962883     -2420.8031
   2   2.0000     -10.330250      -281.1004
   3   2.0000     -10.327676      -281.0304
   4   2.0000     -10.321419      -280.8601
   5   2.0000     -10.314794      -280.6798
   6   2.0000     -10.312837      -280.6266
   7   2.0000     -10.299899      -280.2745
   8   2.0000     -10.297349      -280.2051
   9   2.0000     -10.292957      -280.0856
  10   2.0000     -10.291750      -280.0528
  11   2.0000     -10.289062      -279.9796
  12   2.0000     -10.288601      -279.9671
  13   2.0000     -10.287169      -279.9281
  14   2.0000     -10.277202      -279.6569
  15   2.0000     -10.271766      -279.5090
  16   2.0000      -8.079957      -219.8668
  17   2.0000      -8.076145      -219.7631
  18   2.0000      -6.038610      -164.3189
  19   2.0000      -6.034784      -164.2148
  20   2.0000      -6.034607      -164.2100
  21   2.0000      -6.030926      -164.1098
  22   2.0000      -6.030508      -164.0985
  23   2.0000      -6.026775      -163.9969
  24   2.0000      -1.000387       -27.2219
  25   2.0000      -0.977255       -26.5925
  26   2.0000      -0.916802       -24.9474
  27   2.0000      -0.914764       -24.8920
  28   2.0000      -0.871120       -23.7044
  29   2.0000      -0.845287       -23.0014
  30   2.0000      -0.842663       -22.9300
  31   2.0000      -0.819061       -22.2878
  32   2.0000      -0.781234       -21.2585
  33   2.0000      -0.767547       -20.8860
  34   2.0000      -0.711227       -19.3535
  35   2.0000      -0.695869       -18.9356
  36   2.0000      -0.687990       -18.7212
  37   2.0000      -0.655070       -17.8254
  38   2.0000      -0.645092       -17.5538
  39   2.0000      -0.619742       -16.8640
  40   2.0000      -0.601340       -16.3633
  41   2.0000      -0.574996       -15.6464
  42   2.0000      -0.557946       -15.1825
  43   2.0000      -0.557610       -15.1733
  44   2.0000      -0.541343       -14.7307
  45   2.0000      -0.527743       -14.3606
  46   2.0000      -0.517766       -14.0891
  47   2.0000      -0.509611       -13.8672
  48   2.0000      -0.504993       -13.7416
  49   2.0000      -0.497786       -13.5454
  50   2.0000      -0.492030       -13.3888
  51   2.0000      -0.473790       -12.8925
  52   2.0000      -0.470986       -12.8162
  53   2.0000      -0.462755       -12.5922
  54   2.0000      -0.454846       -12.3770
  55   2.0000      -0.447489       -12.1768
  56   2.0000      -0.443783       -12.0759
  57   2.0000      -0.430741       -11.7211
  58   2.0000      -0.427072       -11.6212
  59   2.0000      -0.420276       -11.4363
  60   2.0000      -0.418153       -11.3785
  61   2.0000      -0.415964       -11.3189
  62   2.0000      -0.413780       -11.2595
  63   2.0000      -0.344612        -9.3774
  64   2.0000      -0.328268        -8.9326
  65   2.0000      -0.326727        -8.8907
  66   2.0000      -0.299304        -8.1445
  67   0.0000       0.033034         0.8989
  68   0.0000       0.055774         1.5177
  69   0.0000       0.108299         2.9470
  70   0.0000       0.117460         3.1963
  71   0.0000       0.129740         3.5304

MULLIKEN ATOMIC CHARGES
-----------------------
   0 S :    0.081343
   1 C :   -0.117753
   2 C :   -0.111709
   3 C :    0.027541
   4 C :   -0.153415
   5 H :    0.036542
   6 C :    0.106429
   7 H :   -0.005791
   8 H :    0.032936
   9 C :   -0.078156
  10 H :    0.039065
  11 H :    0.032539
  12 C :   -0.076478
  13 H :    0.031300
  14 H :    0.025627
  15 H :    0.062703
  16 S :    0.106656
  17 C :   -0.079203
  18 C :   -0.002020
  19 C :   -0.041220
  20 C :   -0.171957
  21 H :    0.004603
  22 C :    0.018252
  23 H :    0.046561
  24 H :    0.036665
  25 C :   -0.028019
  26 H :    0.025491
  27 H :    0.025179
  28 C :   -0.069983
  29 H :    0.033059
  30 H :    0.025511
  31 H :    0.041118
  32 H :    0.049127
  33 H :    0.047457
Sum of atomic charges:    0.0000000

LOEWDIN ATOMIC CHARGES
----------------------
   0 S :    0.353713
   1 C :   -0.175260
   2 C :   -0.064944
   3 C :   -0.060851
   4 C :   -0.177673
   5 H :    0.044191
   6 C :   -0.034826
   7 H :    0.027612
   8 H :    0.032029
   9 C :   -0.040970
  10 H :    0.028181
  11 H :    0.021237
  12 C :   -0.073192
  13 H :    0.030784
  14 H :    0.017360
  15 H :    0.038028
  16 S :    0.390439
  17 C :   -0.167586
  18 C :   -0.066151
  19 C :   -0.046394
  20 C :   -0.201346
  21 H :    0.025380
  22 C :   -0.039580
  23 H :    0.041332
  24 H :    0.035652
  25 C :   -0.044003
  26 H :    0.026284
  27 H :    0.023986
  28 C :   -0.067785
  29 H :    0.030172
  30 H :    0.022049
  31 H :    0.021404
  32 H :    0.026083
  33 H :    0.024645

  Mayer bond orders larger than 0.100000
B(  0-S ,  1-C ) :   1.1278 B(  0-S ,  4-C ) :   1.1125 B(  1-C ,  2-C ) :   1.6141
B(  1-C , 32-H ) :   0.9689 B(  2-C ,  3-C ) :   1.2209 B(  2-C ,  6-C ) :   1.0395
B(  3-C ,  4-C ) :   1.6316 B(  3-C ,  5-H ) :   0.9773 B(  4-C , 20-C ) :   1.0439
B(  6-C ,  7-H ) :   0.9322 B(  6-C ,  8-H ) :   0.9232 B(  6-C ,  9-C ) :   1.0597
B(  9-C , 10-H ) :   0.9573 B(  9-C , 11-H ) :   0.9504 B(  9-C , 12-C ) :   1.0758
B( 12-C , 13-H ) :   0.9721 B( 12-C , 14-H ) :   0.9773 B( 12-C , 15-H ) :   0.9741
B( 16-S , 17-C ) :   1.1287 B( 16-S , 20-C ) :   1.1392 B( 17-C , 18-C ) :   1.6603
B( 17-C , 33-H ) :   0.9681 B( 18-C , 19-C ) :   1.2049 B( 18-C , 21-H ) :   0.9927
B( 19-C , 20-C ) :   1.5968 B( 19-C , 22-C ) :   1.0365 B( 22-C , 23-H ) :   0.9439
B( 22-C , 24-H ) :   0.9319 B( 22-C , 25-C ) :   1.0768 B( 25-C , 26-H ) :   0.9527
B( 25-C , 27-H ) :   0.9494 B( 25-C , 28-C ) :   1.0928 B( 28-C , 29-H ) :   0.9680
B( 28-C , 30-H ) :   0.9700 B( 28-C , 31-H ) :   0.9687

Dispersion correction           -0.015155408
FINAL SINGLE POINT ENERGY     -1339.876784298102

DIPOLE MOMENT
-------------
                                X             Y             Z
Electronic contribution:     -9.73996      23.75160     -14.94977
Nuclear contribution   :     10.07626     -24.10183      15.18798
                        -----------------------------------------
Total Dipole Moment    :      0.33630      -0.35023       0.23821
                        -----------------------------------------
Magnitude (a.u.)       :      0.54083
Magnitude (Debye)      :      1.37469

Rotational constants in cm-1:     0.019650     0.009081     0.006950
Rotational constants in MHz :   589.088539   272.236439   208.341994

                             ****ORCA TERMINATED NORMALLY****
TOTAL RUN TIME: 0 days 0 hours 0 minutes 34 seconds 817 msec
