                         Program Version 4.2.1 -  RELEASE  -
|  1> ! wB97X-D3 SP def2-SVP
|  2> %pal
|  3> nprocs 16
|  4> end
|  5>
|  6> * xyz 0 1
|  7> S 	 11.0633 	 -6.47925 	 97.8642
|  8> C 	 10.7324 	 -7.89997 	 98.8324
|  9> C 	 10.5152 	 -9.00578 	 98.0645
| 10> C 	 10.6334 	 -8.6709 	 96.6591
| 11> C 	 11.1476 	 -7.39588 	 96.3957
| 12> H 	 10.3107 	 -9.32888 	 95.8024
| 13> C 	 10.0213 	 -10.3268 	 98.5511
| 14> H 	 10.2686 	 -10.4425 	 99.6178
| 15> H 	 10.6396 	 -11.0599 	 97.9869
| 16> C 	 8.46409 	 -10.6842 	 98.3793
| 17> H 	 8.2705 	 -11.734 	 98.7352
| 18> H 	 7.74275 	 -10.1452 	 98.9736
| 19> C 	 8.10045 	 -10.6832 	 96.909
| 20> H 	 8.28112 	 -9.72153 	 96.4483
| 21> H 	 8.59954 	 -11.3558 	 96.2266
| 22> H 	 6.98516 	 -11.0157 	 96.7819
| 23> S 	 11.052 	 -4.86421 	 95.1168
| 24> C 	 11.7536 	 -4.74452 	 93.5323
| 25> C 	 11.9136 	 -5.96576 	 92.9203
| 26> C 	 11.7027 	 -7.12518 	 93.8241
| 27> C 	 11.4088 	 -6.65921 	 95.1706
| 28> H 	 12.1629 	 -5.97657 	 91.8671
| 29> C 	 11.7429 	 -8.59442 	 93.4189
| 30> H 	 10.7618 	 -9.04342 	 93.3989
| 31> H 	 12.1986 	 -9.13545 	 94.2661
| 32> C 	 12.62 	 -9.03372 	 92.2383
| 33> H 	 13.6289 	 -8.44317 	 92.2024
| 34> H 	 12.0112 	 -8.70885 	 91.3886
| 35> C 	 12.5947 	 -10.568 	 92.3018
| 36> H 	 13.1756 	 -10.9905 	 91.498
| 37> H 	 11.5909 	 -10.9623 	 92.2268
| 38> H 	 13.0965 	 -10.9712 	 93.1763
| 39> H 	 10.4237 	 -7.80715 	 99.8869
| 40> H 	 12.0186 	 -3.8298 	 93.0803
| 41> *
| 42>
| 43>                          ****END OF INPUT****

CARTESIAN COORDINATES (ANGSTROEM)
---------------------------------
  S     11.063300   -6.479250   97.864200
  C     10.732400   -7.899970   98.832400
  C     10.515200   -9.005780   98.064500
  C     10.633400   -8.670900   96.659100
  C     11.147600   -7.395880   96.395700
  H     10.310700   -9.328880   95.802400
  C     10.021300  -10.326800   98.551100
  H     10.268600  -10.442500   99.617800
  H     10.639600  -11.059900   97.986900
  C      8.464090  -10.684200   98.379300
  H      8.270500  -11.734000   98.735200
  H      7.742750  -10.145200   98.973600
  C      8.100450  -10.683200   96.909000
  H      8.281120   -9.721530   96.448300
  H      8.599540  -11.355800   96.226600
  H      6.985160  -11.015700   96.781900
  S     11.052000   -4.864210   95.116800
  C     11.753600   -4.744520   93.532300
  C     11.913600   -5.965760   92.920300
  C     11.702700   -7.125180   93.824100
  C     11.408800   -6.659210   95.170600
  H     12.162900   -5.976570   91.867100
  C     11.742900   -8.594420   93.418900
  H     10.761800   -9.043420   93.398900
  H     12.198600   -9.135450   94.266100
  C     12.620000   -9.033720   92.238300
  H     13.628900   -8.443170   92.202400
  H     12.011200   -8.708850   91.388600
  C     12.594700  -10.568000   92.301800
  H     13.175600  -10.990500   91.498000
  H     11.590900  -10.962300   92.226800
  H     13.096500  -10.971200   93.176300
  H     10.423700   -7.807150   99.886900
  H     12.018600   -3.829800   93.080300

 Total Charge           Charge          ....    0
 Multiplicity           Mult            ....    1
 Number of Electrons    NEL             ....  134
 Basis Dimension        Dim             ....  322

ORBITAL ENERGIES
----------------

  NO   OCC          E(Eh)            E(eV)
   0   2.0000     -88.965421     -2420.8722
   1   2.0000     -88.961594     -2420.7680
   2   2.0000     -10.338644      -281.3288
   3   2.0000     -10.331970      -281.1472
   4   2.0000     -10.319850      -280.8174
   5   2.0000     -10.315255      -280.6924
   6   2.0000     -10.314157      -280.6625
   7   2.0000     -10.302791      -280.3532
   8   2.0000     -10.302520      -280.3458
   9   2.0000     -10.301193      -280.3097
  10   2.0000     -10.299637      -280.2674
  11   2.0000     -10.298414      -280.2341
  12   2.0000     -10.297747      -280.2159
  13   2.0000     -10.293558      -280.1020
  14   2.0000     -10.281832      -279.7829
  15   2.0000     -10.281062      -279.7619
  16   2.0000      -8.079286      -219.8486
  17   2.0000      -8.077049      -219.7877
  18   2.0000      -6.037973      -164.3016
  19   2.0000      -6.035607      -164.2372
  20   2.0000      -6.034164      -164.1979
  21   2.0000      -6.031594      -164.1280
  22   2.0000      -6.029653      -164.0752
  23   2.0000      -6.027558      -164.0182
  24   2.0000      -1.003304       -27.3013
  25   2.0000      -0.974914       -26.5288
  26   2.0000      -0.913668       -24.8622
  27   2.0000      -0.909111       -24.7382
  28   2.0000      -0.869604       -23.6631
  29   2.0000      -0.849430       -23.1142
  30   2.0000      -0.837118       -22.7791
  31   2.0000      -0.813639       -22.1402
  32   2.0000      -0.783410       -21.3177
  33   2.0000      -0.768975       -20.9249
  34   2.0000      -0.710068       -19.3219
  35   2.0000      -0.704594       -19.1730
  36   2.0000      -0.698907       -19.0182
  37   2.0000      -0.649228       -17.6664
  38   2.0000      -0.634116       -17.2552
  39   2.0000      -0.617532       -16.8039
  40   2.0000      -0.598565       -16.2878
  41   2.0000      -0.572206       -15.5705
  42   2.0000      -0.565485       -15.3876
  43   2.0000      -0.541541       -14.7361
  44   2.0000      -0.540616       -14.7109
  45   2.0000      -0.525348       -14.2954
  46   2.0000      -0.518859       -14.1189
  47   2.0000      -0.506192       -13.7742
  48   2.0000      -0.502190       -13.6653
  49   2.0000      -0.496039       -13.4979
  50   2.0000      -0.491404       -13.3718
  51   2.0000      -0.481918       -13.1137
  52   2.0000      -0.474725       -12.9179
  53   2.0000      -0.466125       -12.6839
  54   2.0000      -0.457896       -12.4600
  55   2.0000      -0.452537       -12.3142
  56   2.0000      -0.446852       -12.1595
  57   2.0000      -0.441749       -12.0206
  58   2.0000      -0.432642       -11.7728
  59   2.0000      -0.425195       -11.5701
  60   2.0000      -0.415912       -11.3175
  61   2.0000      -0.413661       -11.2563
  62   2.0000      -0.406574       -11.0634
  63   2.0000      -0.355343        -9.6694
  64   2.0000      -0.327658        -8.9160
  65   2.0000      -0.324233        -8.8228
  66   2.0000      -0.281098        -7.6491
  67   0.0000       0.011694         0.3182
  68   0.0000       0.076879         2.0920
  69   0.0000       0.093958         2.5567
  70   0.0000       0.118184         3.2160
  71   0.0000       0.124184         3.3792

MULLIKEN ATOMIC CHARGES
-----------------------
   0 S :    0.083430
   1 C :   -0.116578
   2 C :   -0.087640
   3 C :   -0.030970
   4 C :   -0.129663
   5 H :    0.029613
   6 C :    0.049258
   7 H :    0.027979
   8 H :    0.038555
   9 C :   -0.037556
  10 H :    0.032143
  11 H :    0.034666
  12 C :   -0.104190
  13 H :    0.045785
  14 H :    0.023845
  15 H :    0.041764
  16 S :    0.087542
  17 C :   -0.068512
  18 C :   -0.038231
  19 C :   -0.013689
  20 C :   -0.122820
  21 H :    0.022748
  22 C :   -0.025421
  23 H :    0.045686
  24 H :    0.030602
  25 C :   -0.082559
  26 H :    0.062310
  27 H :    0.031428
  28 C :   -0.029640
  29 H :    0.026100
  30 H :    0.032537
  31 H :    0.033976
  32 H :    0.062068
  33 H :    0.045436
Sum of atomic charges:    0.0000000

LOEWDIN ATOMIC CHARGES
----------------------
   0 S :    0.406255
   1 C :   -0.194247
   2 C :   -0.072593
   3 C :   -0.075060
   4 C :   -0.196474
   5 H :    0.036036
   6 C :   -0.032900
   7 H :    0.032396
   8 H :    0.038163
   9 C :   -0.036999
  10 H :    0.030999
  11 H :    0.024886
  12 C :   -0.080188
  13 H :    0.022309
  14 H :    0.019076
  15 H :    0.037006
  16 S :    0.369880
  17 C :   -0.176835
  18 C :   -0.075326
  19 C :   -0.039860
  20 C :   -0.178523
  21 H :    0.031853
  22 C :   -0.048228
  23 H :    0.030407
  24 H :    0.034648
  25 C :   -0.046761
  26 H :    0.041298
  27 H :    0.023567
  28 C :   -0.060933
  29 H :    0.024598
  30 H :    0.028276
  31 H :    0.026152
  32 H :    0.034740
  33 H :    0.022380

  Mayer bond orders larger than 0.100000
B(  0-S ,  1-C ) :   1.1404 B(  0-S ,  4-C ) :   1.1508 B(  1-C ,  2-C ) :   1.6164
B(  1-C , 32-H ) :   0.9618 B(  2-C ,  3-C ) :   1.2377 B(  2-C ,  6-C ) :   1.0327
B(  3-C ,  4-C ) :   1.5376 B(  3-C ,  5-H ) :   0.9735 B(  4-C , 20-C ) :   1.1138
B(  6-C ,  7-H ) :   0.9418 B(  6-C ,  8-H ) :   0.9395 B(  6-C ,  9-C ) :   1.0560
B(  9-C , 10-H ) :   0.9551 B(  9-C , 11-H ) :   0.9596 B(  9-C , 12-C ) :   1.0770
B( 12-C , 13-H ) :   0.9698 B( 12-C , 14-H ) :   0.9746 B( 12-C , 15-H ) :   0.9685
B( 16-S , 17-C ) :   1.1408 B( 16-S , 20-C ) :   1.1137 B( 17-C , 18-C ) :   1.6291
B( 17-C , 33-H ) :   0.9702 B( 18-C , 19-C ) :   1.2111 B( 18-C , 21-H ) :   0.9898
B( 19-C , 20-C ) :   1.5700 B( 19-C , 22-C ) :   1.0396 B( 22-C , 23-H ) :   0.9306
B( 22-C , 24-H ) :   0.9353 B( 22-C , 25-C ) :   1.0502 B( 25-C , 26-H ) :   0.9589
B( 25-C , 27-H ) :   0.9460 B( 25-C , 28-C ) :   1.0788 B( 28-C , 29-H ) :   0.9712
B( 28-C , 30-H ) :   0.9702 B( 28-C , 31-H ) :   0.9761

Dispersion correction           -0.013902098
FINAL SINGLE POINT ENERGY     -1339.853885368367

DIPOLE MOMENT
-------------
                                X             Y             Z
Electronic contribution:      4.57069      28.38109       8.86912
Nuclear contribution   :     -4.80521     -29.05927      -9.21651
                        -----------------------------------------
Total Dipole Moment    :     -0.23452      -0.67818      -0.34739
                        -----------------------------------------
Magnitude (a.u.)       :      0.79725
Magnitude (Debye)      :      2.02645

Rotational constants in cm-1:     0.016169     0.009567     0.006642
Rotational constants in MHz :   484.731711   286.806609   199.119283

                             ****ORCA TERMINATED NORMALLY****
TOTAL RUN TIME: 0 days 0 hours 0 minutes 34 seconds 571 msec
