                         Program Version 4.2.1 -  RELEASE  -
|  1> ! wB97X-D3 SP def2-SVP
|  2> %pal
|  3> nprocs 16
|  4> end
|  5>
|  6> * xyz 0 1
|  7> S 	 -48.8781 	 62.6084 	 135.603
|  8> C 	 -48.0203 	 61.6536 	 136.758
|  9> C 	 -48.2859 	 62.0371 	 138.042
| 10> C 	 -49.118 	 63.2534 	 138.077
| 11> C 	 -49.5533 	 63.7323 	 136.819
| 12> H 	 -49.4311 	 63.6955 	 138.991
| 13> C 	 -47.7727 	 61.3111 	 139.317
| 14> H 	 -48.3185 	 60.3693 	 139.535
| 15> H 	 -48.031 	 61.9335 	 140.148
| 16> C 	 -46.2753 	 61.1291 	 139.409
| 17> H 	 -46.1042 	 60.4736 	 138.57
| 18> H 	 -45.8256 	 62.1095 	 139.25
| 19> C 	 -45.7969 	 60.2739 	 140.633
| 20> H 	 -46.2092 	 59.2237 	 140.648
| 21> H 	 -44.7295 	 60.1222 	 140.41
| 22> H 	 -45.8435 	 60.754 	 141.609
| 23> S 	 -49.6598 	 66.0639 	 135.338
| 24> C 	 -50.7753 	 67.2522 	 135.756
| 25> C 	 -51.6318 	 66.8572 	 136.752
| 26> C 	 -51.3802 	 65.5188 	 137.224
| 27> C 	 -50.3721 	 64.9622 	 136.509
| 28> H 	 -52.3599 	 67.5762 	 137.01
| 29> C 	 -52.1303 	 64.8665 	 138.42
| 30> H 	 -52.0412 	 65.5118 	 139.378
| 31> H 	 -51.8156 	 63.84 	 138.671
| 32> C 	 -53.6866 	 64.7626 	 138.206
| 33> H 	 -53.8379 	 64.1062 	 137.348
| 34> H 	 -54.1392 	 65.7123 	 137.943
| 35> C 	 -54.4064 	 64.1329 	 139.431
| 36> H 	 -55.4838 	 64.2658 	 139.265
| 37> H 	 -54.0611 	 64.6317 	 140.378
| 38> H 	 -54.1598 	 63.0744 	 139.509
| 39> H 	 -47.4987 	 60.7096 	 136.447
| 40> H 	 -50.7551 	 68.2651 	 135.305
| 41> *
| 42>
| 43>                          ****END OF INPUT****

CARTESIAN COORDINATES (ANGSTROEM)
---------------------------------
  S    -48.878100   62.608400  135.603000
  C    -48.020300   61.653600  136.758000
  C    -48.285900   62.037100  138.042000
  C    -49.118000   63.253400  138.077000
  C    -49.553300   63.732300  136.819000
  H    -49.431100   63.695500  138.991000
  C    -47.772700   61.311100  139.317000
  H    -48.318500   60.369300  139.535000
  H    -48.031000   61.933500  140.148000
  C    -46.275300   61.129100  139.409000
  H    -46.104200   60.473600  138.570000
  H    -45.825600   62.109500  139.250000
  C    -45.796900   60.273900  140.633000
  H    -46.209200   59.223700  140.648000
  H    -44.729500   60.122200  140.410000
  H    -45.843500   60.754000  141.609000
  S    -49.659800   66.063900  135.338000
  C    -50.775300   67.252200  135.756000
  C    -51.631800   66.857200  136.752000
  C    -51.380200   65.518800  137.224000
  C    -50.372100   64.962200  136.509000
  H    -52.359900   67.576200  137.010000
  C    -52.130300   64.866500  138.420000
  H    -52.041200   65.511800  139.378000
  H    -51.815600   63.840000  138.671000
  C    -53.686600   64.762600  138.206000
  H    -53.837900   64.106200  137.348000
  H    -54.139200   65.712300  137.943000
  C    -54.406400   64.132900  139.431000
  H    -55.483800   64.265800  139.265000
  H    -54.061100   64.631700  140.378000
  H    -54.159800   63.074400  139.509000
  H    -47.498700   60.709600  136.447000
  H    -50.755100   68.265100  135.305000

 Total Charge           Charge          ....    0
 Multiplicity           Mult            ....    1
 Number of Electrons    NEL             ....  134
 Basis Dimension        Dim             ....  322

ORBITAL ENERGIES
----------------

  NO   OCC          E(Eh)            E(eV)
   0   2.0000     -88.964544     -2420.8483
   1   2.0000     -88.963237     -2420.8128
   2   2.0000     -10.338788      -281.3327
   3   2.0000     -10.329548      -281.0813
   4   2.0000     -10.315617      -280.7022
   5   2.0000     -10.315373      -280.6956
   6   2.0000     -10.310482      -280.5625
   7   2.0000     -10.306715      -280.4600
   8   2.0000     -10.304065      -280.3879
   9   2.0000     -10.298296      -280.2309
  10   2.0000     -10.292108      -280.0625
  11   2.0000     -10.289164      -279.9824
  12   2.0000     -10.287466      -279.9362
  13   2.0000     -10.287271      -279.9309
  14   2.0000     -10.286671      -279.9146
  15   2.0000     -10.284478      -279.8549
  16   2.0000      -8.080915      -219.8929
  17   2.0000      -8.077748      -219.8067
  18   2.0000      -6.039275      -164.3370
  19   2.0000      -6.036317      -164.2565
  20   2.0000      -6.035238      -164.2272
  21   2.0000      -6.032181      -164.1440
  22   2.0000      -6.031667      -164.1300
  23   2.0000      -6.028566      -164.0456
  24   2.0000      -1.008914       -27.4540
  25   2.0000      -0.982812       -26.7437
  26   2.0000      -0.908278       -24.7155
  27   2.0000      -0.902741       -24.5648
  28   2.0000      -0.866118       -23.5683
  29   2.0000      -0.852419       -23.1955
  30   2.0000      -0.839040       -22.8314
  31   2.0000      -0.811319       -22.0771
  32   2.0000      -0.780483       -21.2380
  33   2.0000      -0.772418       -21.0186
  34   2.0000      -0.699462       -19.0333
  35   2.0000      -0.697178       -18.9712
  36   2.0000      -0.688614       -18.7381
  37   2.0000      -0.660337       -17.9687
  38   2.0000      -0.636901       -17.3310
  39   2.0000      -0.616300       -16.7704
  40   2.0000      -0.598658       -16.2903
  41   2.0000      -0.571965       -15.5640
  42   2.0000      -0.566601       -15.4180
  43   2.0000      -0.560248       -15.2451
  44   2.0000      -0.522360       -14.2141
  45   2.0000      -0.516919       -14.0661
  46   2.0000      -0.513221       -13.9655
  47   2.0000      -0.510432       -13.8896
  48   2.0000      -0.501178       -13.6377
  49   2.0000      -0.495252       -13.4765
  50   2.0000      -0.487068       -13.2538
  51   2.0000      -0.478957       -13.0331
  52   2.0000      -0.474345       -12.9076
  53   2.0000      -0.466768       -12.7014
  54   2.0000      -0.461789       -12.5659
  55   2.0000      -0.448711       -12.2100
  56   2.0000      -0.441556       -12.0153
  57   2.0000      -0.436630       -11.8813
  58   2.0000      -0.433149       -11.7866
  59   2.0000      -0.425477       -11.5778
  60   2.0000      -0.420841       -11.4517
  61   2.0000      -0.416526       -11.3343
  62   2.0000      -0.408361       -11.1121
  63   2.0000      -0.352362        -9.5883
  64   2.0000      -0.333339        -9.0706
  65   2.0000      -0.325753        -8.8642
  66   2.0000      -0.295474        -8.0403
  67   0.0000       0.034680         0.9437
  68   0.0000       0.074749         2.0340
  69   0.0000       0.114478         3.1151
  70   0.0000       0.116268         3.1638
  71   0.0000       0.137796         3.7496

MULLIKEN ATOMIC CHARGES
-----------------------
   0 S :    0.095594
   1 C :   -0.148170
   2 C :   -0.104102
   3 C :    0.044364
   4 C :   -0.154659
   5 H :    0.001363
   6 C :    0.083104
   7 H :    0.035529
   8 H :   -0.001384
   9 C :   -0.089276
  10 H :    0.019507
  11 H :    0.045065
  12 C :   -0.068677
  13 H :    0.043488
  14 H :    0.035873
  15 H :    0.044362
  16 S :    0.117511
  17 C :   -0.109422
  18 C :   -0.031258
  19 C :    0.003745
  20 C :   -0.137139
  21 H :    0.004389
  22 C :    0.019096
  23 H :    0.045130
  24 H :    0.035558
  25 C :   -0.102828
  26 H :    0.034630
  27 H :    0.029438
  28 C :   -0.056321
  29 H :    0.046122
  30 H :    0.033949
  31 H :    0.037618
  32 H :    0.076432
  33 H :    0.071372
Sum of atomic charges:   -0.0000000

LOEWDIN ATOMIC CHARGES
----------------------
   0 S :    0.393821
   1 C :   -0.209404
   2 C :   -0.068534
   3 C :   -0.060203
   4 C :   -0.184974
   5 H :    0.021445
   6 C :   -0.036118
   7 H :    0.032593
   8 H :    0.019642
   9 C :   -0.040186
  10 H :    0.020626
  11 H :    0.030372
  12 C :   -0.071718
  13 H :    0.034394
  14 H :    0.031416
  15 H :    0.023310
  16 S :    0.429548
  17 C :   -0.202360
  18 C :   -0.072133
  19 C :   -0.051330
  20 C :   -0.195766
  21 H :    0.025667
  22 C :   -0.033679
  23 H :    0.038582
  24 H :    0.030729
  25 C :   -0.041867
  26 H :    0.024820
  27 H :    0.017479
  28 C :   -0.067727
  29 H :    0.030924
  30 H :    0.027250
  31 H :    0.025036
  32 H :    0.040457
  33 H :    0.037890

  Mayer bond orders larger than 0.100000
B(  0-S ,  1-C ) :   1.1459 B(  0-S ,  4-C ) :   1.1512 B(  1-C ,  2-C ) :   1.6131
B(  1-C , 32-H ) :   0.9593 B(  2-C ,  3-C ) :   1.2546 B(  2-C ,  6-C ) :   1.0107
B(  3-C ,  4-C ) :   1.5667 B(  3-C ,  5-H ) :   0.9930 B(  4-C , 20-C ) :   1.0038
B(  6-C ,  7-H ) :   0.9391 B(  6-C ,  8-H ) :   0.9397 B(  6-C ,  9-C ) :   1.0651
B(  9-C , 10-H ) :   0.9568 B(  9-C , 11-H ) :   0.9592 B(  9-C , 12-C ) :   1.0751
B( 12-C , 13-H ) :   0.9714 B( 12-C , 14-H ) :   0.9749 B( 12-C , 15-H ) :   0.9779
B( 16-S , 17-C ) :   1.1719 B( 16-S , 20-C ) :   1.1441 B( 17-C , 18-C ) :   1.6245
B( 17-C , 33-H ) :   0.9609 B( 18-C , 19-C ) :   1.1988 B( 18-C , 21-H ) :   1.0031
B( 19-C , 20-C ) :   1.6426 B( 19-C , 22-C ) :   1.0287 B( 22-C , 23-H ) :   0.9403
B( 22-C , 24-H ) :   0.9425 B( 22-C , 25-C ) :   1.0519 B( 25-C , 26-H ) :   0.9551
B( 25-C , 27-H ) :   0.9615 B( 25-C , 28-C ) :   1.0799 B( 28-C , 29-H ) :   0.9749
B( 28-C , 30-H ) :   0.9743 B( 28-C , 31-H ) :   0.9754

Dispersion correction           -0.013093811
FINAL SINGLE POINT ENERGY     -1339.880729417490

DIPOLE MOMENT
-------------
                                X             Y             Z
Electronic contribution:      4.22109      11.62303     -25.24340
Nuclear contribution   :     -4.39553     -11.63273      25.85693
                        -----------------------------------------
Total Dipole Moment    :     -0.17444      -0.00970       0.61353
                        -----------------------------------------
Magnitude (a.u.)       :      0.63792
Magnitude (Debye)      :      1.62146

Rotational constants in cm-1:     0.018007     0.007363     0.005866
Rotational constants in MHz :   539.823037   220.727455   175.844063

                             ****ORCA TERMINATED NORMALLY****
TOTAL RUN TIME: 0 days 0 hours 0 minutes 32 seconds 323 msec
