                         Program Version 4.2.1 -  RELEASE  -
|  1> ! wB97X-D3 SP def2-SVP
|  2> %pal
|  3> nprocs 16
|  4> end
|  5>
|  6> * xyz 0 1
|  7> S 	 63.8516 	 19.1654 	 76.9681
|  8> C 	 62.6371 	 19.7656 	 78.1372
|  9> C 	 63.234 	 19.7418 	 79.4333
| 10> C 	 64.568 	 19.2132 	 79.4599
| 11> C 	 64.9898 	 18.8321 	 78.185
| 12> H 	 65.2774 	 19.0589 	 80.2881
| 13> C 	 62.6774 	 20.2276 	 80.7083
| 14> H 	 62.3237 	 21.2103 	 80.4011
| 15> H 	 63.469 	 20.5927 	 81.3642
| 16> C 	 61.5535 	 19.4083 	 81.4383
| 17> H 	 61.9904 	 18.4598 	 81.7385
| 18> H 	 61.2752 	 19.8977 	 82.4058
| 19> C 	 60.2804 	 19.1704 	 80.5142
| 20> H 	 59.4529 	 18.8048 	 81.1681
| 21> H 	 59.9272 	 20.092 	 80.1113
| 22> H 	 60.4015 	 18.5792 	 79.5876
| 23> S 	 67.7213 	 18.8789 	 77.9047
| 24> C 	 68.4464 	 17.3308 	 77.421
| 25> C 	 67.633 	 16.2815 	 77.3826
| 26> C 	 66.2503 	 16.6232 	 77.6356
| 27> C 	 66.1756 	 18.0131 	 77.9087
| 28> H 	 68.0605 	 15.3577 	 77.1133
| 29> C 	 65.199 	 15.6689 	 77.8696
| 30> H 	 64.1974 	 16.1387 	 77.5877
| 31> H 	 65.2154 	 15.4039 	 78.9402
| 32> C 	 65.172 	 14.2503 	 77.2506
| 33> H 	 66.1762 	 13.9063 	 77.4262
| 34> H 	 64.8747 	 14.4619 	 76.271
| 35> C 	 64.1737 	 13.2359 	 77.7853
| 36> H 	 64.1035 	 13.2036 	 78.9214
| 37> H 	 64.3756 	 12.2078 	 77.413
| 38> H 	 63.1652 	 13.4937 	 77.4706
| 39> H 	 61.6452 	 20.0543 	 77.948
| 40> H 	 69.5087 	 17.1724 	 77.1706
| 41> *
| 42>
| 43>                          ****END OF INPUT****

CARTESIAN COORDINATES (ANGSTROEM)
---------------------------------
  S     63.851600   19.165400   76.968100
  C     62.637100   19.765600   78.137200
  C     63.234000   19.741800   79.433300
  C     64.568000   19.213200   79.459900
  C     64.989800   18.832100   78.185000
  H     65.277400   19.058900   80.288100
  C     62.677400   20.227600   80.708300
  H     62.323700   21.210300   80.401100
  H     63.469000   20.592700   81.364200
  C     61.553500   19.408300   81.438300
  H     61.990400   18.459800   81.738500
  H     61.275200   19.897700   82.405800
  C     60.280400   19.170400   80.514200
  H     59.452900   18.804800   81.168100
  H     59.927200   20.092000   80.111300
  H     60.401500   18.579200   79.587600
  S     67.721300   18.878900   77.904700
  C     68.446400   17.330800   77.421000
  C     67.633000   16.281500   77.382600
  C     66.250300   16.623200   77.635600
  C     66.175600   18.013100   77.908700
  H     68.060500   15.357700   77.113300
  C     65.199000   15.668900   77.869600
  H     64.197400   16.138700   77.587700
  H     65.215400   15.403900   78.940200
  C     65.172000   14.250300   77.250600
  H     66.176200   13.906300   77.426200
  H     64.874700   14.461900   76.271000
  C     64.173700   13.235900   77.785300
  H     64.103500   13.203600   78.921400
  H     64.375600   12.207800   77.413000
  H     63.165200   13.493700   77.470600
  H     61.645200   20.054300   77.948000
  H     69.508700   17.172400   77.170600

 Total Charge           Charge          ....    0
 Multiplicity           Mult            ....    1
 Number of Electrons    NEL             ....  134
 Basis Dimension        Dim             ....  322

ORBITAL ENERGIES
----------------

  NO   OCC          E(Eh)            E(eV)
   0   2.0000     -88.968292     -2420.9503
   1   2.0000     -88.967370     -2420.9252
   2   2.0000     -10.326952      -281.0106
   3   2.0000     -10.322032      -280.8768
   4   2.0000     -10.316204      -280.7182
   5   2.0000     -10.312790      -280.6253
   6   2.0000     -10.307211      -280.4735
   7   2.0000     -10.304335      -280.3952
   8   2.0000     -10.298757      -280.2434
   9   2.0000     -10.292164      -280.0640
  10   2.0000     -10.289456      -279.9903
  11   2.0000     -10.286819      -279.9186
  12   2.0000     -10.286258      -279.9033
  13   2.0000     -10.286129      -279.8998
  14   2.0000     -10.283550      -279.8296
  15   2.0000     -10.281212      -279.7660
  16   2.0000      -8.082609      -219.9390
  17   2.0000      -8.081423      -219.9067
  18   2.0000      -6.041098      -164.3866
  19   2.0000      -6.039931      -164.3549
  20   2.0000      -6.036938      -164.2734
  21   2.0000      -6.036329      -164.2569
  22   2.0000      -6.033646      -164.1838
  23   2.0000      -6.031932      -164.1372
  24   2.0000      -1.003166       -27.2975
  25   2.0000      -0.979918       -26.6649
  26   2.0000      -0.913805       -24.8659
  27   2.0000      -0.906905       -24.6781
  28   2.0000      -0.863768       -23.5043
  29   2.0000      -0.854205       -23.2441
  30   2.0000      -0.844352       -22.9760
  31   2.0000      -0.813847       -22.1459
  32   2.0000      -0.783610       -21.3231
  33   2.0000      -0.769108       -20.9285
  34   2.0000      -0.710287       -19.3279
  35   2.0000      -0.704168       -19.1614
  36   2.0000      -0.691046       -18.8043
  37   2.0000      -0.653033       -17.7699
  38   2.0000      -0.638432       -17.3726
  39   2.0000      -0.609788       -16.5932
  40   2.0000      -0.595620       -16.2076
  41   2.0000      -0.584022       -15.8920
  42   2.0000      -0.567700       -15.4479
  43   2.0000      -0.541776       -14.7425
  44   2.0000      -0.534965       -14.5571
  45   2.0000      -0.520799       -14.1717
  46   2.0000      -0.516619       -14.0579
  47   2.0000      -0.512507       -13.9460
  48   2.0000      -0.502322       -13.6689
  49   2.0000      -0.495275       -13.4771
  50   2.0000      -0.488755       -13.2997
  51   2.0000      -0.471937       -12.8421
  52   2.0000      -0.468345       -12.7443
  53   2.0000      -0.463337       -12.6080
  54   2.0000      -0.460889       -12.5414
  55   2.0000      -0.454025       -12.3547
  56   2.0000      -0.449881       -12.2419
  57   2.0000      -0.441983       -12.0270
  58   2.0000      -0.431039       -11.7292
  59   2.0000      -0.428193       -11.6517
  60   2.0000      -0.421869       -11.4796
  61   2.0000      -0.410413       -11.1679
  62   2.0000      -0.398859       -10.8535
  63   2.0000      -0.338351        -9.2070
  64   2.0000      -0.331243        -9.0136
  65   2.0000      -0.317163        -8.6304
  66   2.0000      -0.297044        -8.0830
  67   0.0000       0.038732         1.0539
  68   0.0000       0.057869         1.5747
  69   0.0000       0.103749         2.8232
  70   0.0000       0.116270         3.1639
  71   0.0000       0.123907         3.3717

MULLIKEN ATOMIC CHARGES
-----------------------
   0 S :    0.125192
   1 C :   -0.114224
   2 C :   -0.086979
   3 C :    0.029742
   4 C :   -0.165853
   5 H :    0.025211
   6 C :    0.044738
   7 H :    0.019309
   8 H :    0.019963
   9 C :   -0.038341
  10 H :    0.030908
  11 H :    0.039774
  12 C :   -0.077857
  13 H :    0.043702
  14 H :    0.013484
  15 H :    0.051591
  16 S :    0.112432
  17 C :   -0.084205
  18 C :   -0.031833
  19 C :    0.036344
  20 C :   -0.197980
  21 H :    0.003939
  22 C :   -0.003173
  23 H :    0.037587
  24 H :    0.041026
  25 C :   -0.049190
  26 H :    0.027135
  27 H :    0.025072
  28 C :   -0.065322
  29 H :    0.033095
  30 H :    0.046878
  31 H :    0.027429
  32 H :    0.028157
  33 H :    0.052250
Sum of atomic charges:    0.0000000

LOEWDIN ATOMIC CHARGES
----------------------
   0 S :    0.428488
   1 C :   -0.197894
   2 C :   -0.052763
   3 C :   -0.068282
   4 C :   -0.218055
   5 H :    0.038442
   6 C :   -0.048952
   7 H :    0.032863
   8 H :    0.032864
   9 C :   -0.030792
  10 H :    0.022435
  11 H :    0.031177
  12 C :   -0.074481
  13 H :    0.033458
  14 H :    0.015934
  15 H :    0.030451
  16 S :    0.383691
  17 C :   -0.173709
  18 C :   -0.070330
  19 C :   -0.047955
  20 C :   -0.193451
  21 H :    0.026906
  22 C :   -0.046010
  23 H :    0.035902
  24 H :    0.039626
  25 C :   -0.037214
  26 H :    0.019566
  27 H :    0.020628
  28 C :   -0.068363
  29 H :    0.028574
  30 H :    0.033879
  31 H :    0.023690
  32 H :    0.016760
  33 H :    0.032919

  Mayer bond orders larger than 0.100000
B(  0-S ,  1-C ) :   1.1311 B(  0-S ,  4-C ) :   1.1831 B(  1-C ,  2-C ) :   1.5700
B(  1-C ,  4-C ) :   0.1015 B(  1-C , 32-H ) :   0.9806 B(  2-C ,  3-C ) :   1.2535
B(  2-C ,  6-C ) :   1.0191 B(  3-C ,  4-C ) :   1.5533 B(  3-C ,  5-H ) :   0.9894
B(  4-C , 20-C ) :   1.0041 B(  6-C ,  7-H ) :   0.9358 B(  6-C ,  8-H ) :   0.9426
B(  6-C ,  9-C ) :   1.0576 B(  9-C , 10-H ) :   0.9587 B(  9-C , 11-H ) :   0.9571
B(  9-C , 12-C ) :   1.0641 B( 12-C , 13-H ) :   0.9744 B( 12-C , 14-H ) :   0.9765
B( 12-C , 15-H ) :   0.9731 B( 16-S , 17-C ) :   1.1195 B( 16-S , 20-C ) :   1.1373
B( 17-C , 18-C ) :   1.7031 B( 17-C , 33-H ) :   0.9534 B( 18-C , 19-C ) :   1.1719
B( 18-C , 21-H ) :   0.9893 B( 19-C , 20-C ) :   1.6067 B( 19-C , 22-C ) :   1.0817
B( 22-C , 23-H ) :   0.9207 B( 22-C , 24-H ) :   0.9256 B( 22-C , 25-C ) :   1.0573
B( 25-C , 26-H ) :   0.9510 B( 25-C , 27-H ) :   0.9582 B( 25-C , 28-C ) :   1.0939
B( 28-C , 29-H ) :   0.9717 B( 28-C , 30-H ) :   0.9728 B( 28-C , 31-H ) :   0.9740

Dispersion correction           -0.014237566
FINAL SINGLE POINT ENERGY     -1339.851141386767

DIPOLE MOMENT
-------------
                                X             Y             Z
Electronic contribution:     18.94827      14.48966     -11.56049
Nuclear contribution   :    -19.15432     -14.88711      11.91452
                        -----------------------------------------
Total Dipole Moment    :     -0.20604      -0.39745       0.35403
                        -----------------------------------------
Magnitude (a.u.)       :      0.57075
Magnitude (Debye)      :      1.45072

Rotational constants in cm-1:     0.017581     0.008524     0.006692
Rotational constants in MHz :   527.064003   255.551281   200.634101

                             ****ORCA TERMINATED NORMALLY****
TOTAL RUN TIME: 0 days 0 hours 0 minutes 29 seconds 577 msec
