                         Program Version 4.2.1 -  RELEASE  -
|  1> ! wB97X-D3 SP def2-SVP
|  2> %pal
|  3> nprocs 16
|  4> end
|  5>
|  6> * xyz 0 1
|  7> S 	 -107.474 	 54.2173 	 119.684
|  8> C 	 -107.706 	 52.8004 	 120.508
|  9> C 	 -106.588 	 52.3618 	 121.174
| 10> C 	 -105.524 	 53.3244 	 120.993
| 11> C 	 -105.821 	 54.3726 	 120.152
| 12> H 	 -104.473 	 53.1893 	 121.279
| 13> C 	 -106.369 	 50.9632 	 121.761
| 14> H 	 -105.27 	 50.7457 	 122.089
| 15> H 	 -106.643 	 50.2736 	 120.999
| 16> C 	 -107.311 	 50.546 	 122.897
| 17> H 	 -108.392 	 50.659 	 122.659
| 18> H 	 -107.171 	 49.4821 	 123.102
| 19> C 	 -106.922 	 51.2626 	 124.215
| 20> H 	 -107.57 	 50.9836 	 125.096
| 21> H 	 -105.839 	 51.1396 	 124.559
| 22> H 	 -106.905 	 52.3142 	 124.159
| 23> S 	 -104.31 	 56.3695 	 121.125
| 24> C 	 -103.528 	 57.4457 	 120.06
| 25> C 	 -103.704 	 57.146 	 118.674
| 26> C 	 -104.572 	 55.9753 	 118.546
| 27> C 	 -104.953 	 55.4487 	 119.768
| 28> H 	 -103.334 	 57.7381 	 117.89
| 29> C 	 -105.202 	 55.5719 	 117.204
| 30> H 	 -104.781 	 56.2954 	 116.487
| 31> H 	 -106.264 	 55.7158 	 117.249
| 32> C 	 -104.872 	 54.2205 	 116.662
| 33> H 	 -105.638 	 54.0789 	 115.837
| 34> H 	 -105.126 	 53.4135 	 117.375
| 35> C 	 -103.359 	 54.0124 	 116.283
| 36> H 	 -102.795 	 54.3879 	 117.178
| 37> H 	 -103.036 	 54.71 	 115.501
| 38> H 	 -103.165 	 52.9974 	 116.067
| 39> H 	 -108.615 	 52.2759 	 120.495
| 40> H 	 -102.852 	 58.2272 	 120.378
| 41> *
| 42>
| 43>                          ****END OF INPUT****

CARTESIAN COORDINATES (ANGSTROEM)
---------------------------------
  S    -107.474000   54.217300  119.684000
  C    -107.706000   52.800400  120.508000
  C    -106.588000   52.361800  121.174000
  C    -105.524000   53.324400  120.993000
  C    -105.821000   54.372600  120.152000
  H    -104.473000   53.189300  121.279000
  C    -106.369000   50.963200  121.761000
  H    -105.270000   50.745700  122.089000
  H    -106.643000   50.273600  120.999000
  C    -107.311000   50.546000  122.897000
  H    -108.392000   50.659000  122.659000
  H    -107.171000   49.482100  123.102000
  C    -106.922000   51.262600  124.215000
  H    -107.570000   50.983600  125.096000
  H    -105.839000   51.139600  124.559000
  H    -106.905000   52.314200  124.159000
  S    -104.310000   56.369500  121.125000
  C    -103.528000   57.445700  120.060000
  C    -103.704000   57.146000  118.674000
  C    -104.572000   55.975300  118.546000
  C    -104.953000   55.448700  119.768000
  H    -103.334000   57.738100  117.890000
  C    -105.202000   55.571900  117.204000
  H    -104.781000   56.295400  116.487000
  H    -106.264000   55.715800  117.249000
  C    -104.872000   54.220500  116.662000
  H    -105.638000   54.078900  115.837000
  H    -105.126000   53.413500  117.375000
  C    -103.359000   54.012400  116.283000
  H    -102.795000   54.387900  117.178000
  H    -103.036000   54.710000  115.501000
  H    -103.165000   52.997400  116.067000
  H    -108.615000   52.275900  120.495000
  H    -102.852000   58.227200  120.378000

 Total Charge           Charge          ....    0
 Multiplicity           Mult            ....    1
 Number of Electrons    NEL             ....  134
 Basis Dimension        Dim             ....  322

ORBITAL ENERGIES
----------------

  NO   OCC          E(Eh)            E(eV)
   0   2.0000     -88.969050     -2420.9709
   1   2.0000     -88.965357     -2420.8704
   2   2.0000     -10.322979      -280.9025
   3   2.0000     -10.322350      -280.8854
   4   2.0000     -10.319107      -280.7972
   5   2.0000     -10.306130      -280.4441
   6   2.0000     -10.304149      -280.3902
   7   2.0000     -10.302095      -280.3343
   8   2.0000     -10.299953      -280.2760
   9   2.0000     -10.298934      -280.2482
  10   2.0000     -10.292908      -280.0843
  11   2.0000     -10.292324      -280.0684
  12   2.0000     -10.288697      -279.9697
  13   2.0000     -10.285865      -279.8926
  14   2.0000     -10.278074      -279.6806
  15   2.0000     -10.277010      -279.6517
  16   2.0000      -8.084146      -219.9808
  17   2.0000      -8.082118      -219.9256
  18   2.0000      -6.042471      -164.4240
  19   2.0000      -6.040369      -164.3668
  20   2.0000      -6.038513      -164.3163
  21   2.0000      -6.036201      -164.2534
  22   2.0000      -6.035165      -164.2252
  23   2.0000      -6.033173      -164.1710
  24   2.0000      -1.015938       -27.6451
  25   2.0000      -0.988377       -26.8951
  26   2.0000      -0.909999       -24.7623
  27   2.0000      -0.908212       -24.7137
  28   2.0000      -0.873144       -23.7595
  29   2.0000      -0.848119       -23.0785
  30   2.0000      -0.843292       -22.9471
  31   2.0000      -0.809471       -22.0268
  32   2.0000      -0.783818       -21.3288
  33   2.0000      -0.773251       -21.0412
  34   2.0000      -0.705239       -19.1905
  35   2.0000      -0.701829       -19.0977
  36   2.0000      -0.682682       -18.5767
  37   2.0000      -0.670662       -18.2496
  38   2.0000      -0.647936       -17.6312
  39   2.0000      -0.608154       -16.5487
  40   2.0000      -0.591172       -16.0866
  41   2.0000      -0.575339       -15.6558
  42   2.0000      -0.559570       -15.2267
  43   2.0000      -0.549210       -14.9448
  44   2.0000      -0.539632       -14.6841
  45   2.0000      -0.530542       -14.4368
  46   2.0000      -0.522998       -14.2315
  47   2.0000      -0.506771       -13.7899
  48   2.0000      -0.503510       -13.7012
  49   2.0000      -0.492835       -13.4107
  50   2.0000      -0.486848       -13.2478
  51   2.0000      -0.474543       -12.9130
  52   2.0000      -0.473434       -12.8828
  53   2.0000      -0.467562       -12.7230
  54   2.0000      -0.465096       -12.6559
  55   2.0000      -0.445667       -12.1272
  56   2.0000      -0.441379       -12.0105
  57   2.0000      -0.436811       -11.8862
  58   2.0000      -0.432597       -11.7716
  59   2.0000      -0.427194       -11.6245
  60   2.0000      -0.418527       -11.3887
  61   2.0000      -0.414720       -11.2851
  62   2.0000      -0.404678       -11.0118
  63   2.0000      -0.344877        -9.3846
  64   2.0000      -0.332700        -9.0532
  65   2.0000      -0.327745        -8.9184
  66   2.0000      -0.294140        -8.0040
  67   0.0000       0.034384         0.9356
  68   0.0000       0.070883         1.9288
  69   0.0000       0.105220         2.8632
  70   0.0000       0.114956         3.1281
  71   0.0000       0.133561         3.6344

MULLIKEN ATOMIC CHARGES
-----------------------
   0 S :    0.133313
   1 C :   -0.107338
   2 C :   -0.057148
   3 C :    0.002127
   4 C :   -0.166104
   5 H :    0.018198
   6 C :    0.039631
   7 H :    0.048324
   8 H :    0.031334
   9 C :   -0.074637
  10 H :    0.038612
  11 H :    0.032469
  12 C :   -0.080914
  13 H :    0.042540
  14 H :    0.024389
  15 H :    0.023223
  16 S :    0.137212
  17 C :   -0.092234
  18 C :   -0.026767
  19 C :   -0.054453
  20 C :   -0.167526
  21 H :    0.006290
  22 C :    0.075208
  23 H :    0.010977
  24 H :    0.037649
  25 C :   -0.094689
  26 H :    0.031877
  27 H :    0.037353
  28 C :   -0.043079
  29 H :    0.040680
  30 H :    0.026410
  31 H :    0.039169
  32 H :    0.029364
  33 H :    0.058537
Sum of atomic charges:    0.0000000

LOEWDIN ATOMIC CHARGES
----------------------
   0 S :    0.460300
   1 C :   -0.216893
   2 C :   -0.067521
   3 C :   -0.068952
   4 C :   -0.217652
   5 H :    0.031946
   6 C :   -0.032856
   7 H :    0.043688
   8 H :    0.030538
   9 C :   -0.043704
  10 H :    0.027396
  11 H :    0.025987
  12 C :   -0.080730
  13 H :    0.029724
  14 H :    0.030645
  15 H :    0.016081
  16 S :    0.438386
  17 C :   -0.198402
  18 C :   -0.066390
  19 C :   -0.052950
  20 C :   -0.201557
  21 H :    0.022911
  22 C :   -0.034395
  23 H :    0.031181
  24 H :    0.028668
  25 C :   -0.048809
  26 H :    0.028329
  27 H :    0.024409
  28 C :   -0.063109
  29 H :    0.034614
  30 H :    0.022980
  31 H :    0.020929
  32 H :    0.018546
  33 H :    0.026659

  Mayer bond orders larger than 0.100000
B(  0-S ,  1-C ) :   1.1816 B(  0-S ,  4-C ) :   1.1588 B(  1-C ,  2-C ) :   1.5767
B(  1-C , 32-H ) :   0.9729 B(  2-C ,  3-C ) :   1.2608 B(  2-C ,  6-C ) :   1.0085
B(  3-C ,  4-C ) :   1.5610 B(  3-C ,  5-H ) :   0.9932 B(  4-C , 20-C ) :   1.0421
B(  6-C ,  7-H ) :   0.9511 B(  6-C ,  8-H ) :   0.9384 B(  6-C ,  9-C ) :   1.0774
B(  9-C , 10-H ) :   0.9560 B(  9-C , 11-H ) :   0.9558 B(  9-C , 12-C ) :   1.0609
B( 12-C , 13-H ) :   0.9764 B( 12-C , 14-H ) :   0.9724 B( 12-C , 15-H ) :   0.9786
B( 16-S , 17-C ) :   1.1862 B( 16-S , 20-C ) :   1.1454 B( 17-C , 18-C ) :   1.5798
B( 17-C , 33-H ) :   0.9653 B( 18-C , 19-C ) :   1.2455 B( 18-C , 21-H ) :   0.9948
B( 19-C , 20-C ) :   1.5884 B( 19-C , 22-C ) :   1.0280 B( 22-C , 23-H ) :   0.9311
B( 22-C , 24-H ) :   0.9406 B( 22-C , 25-C ) :   1.0748 B( 25-C , 26-H ) :   0.9536
B( 25-C , 27-H ) :   0.9564 B( 25-C , 28-C ) :   1.0597 B( 28-C , 29-H ) :   0.9741
B( 28-C , 30-H ) :   0.9755 B( 28-C , 31-H ) :   0.9772

Dispersion correction           -0.014865928
FINAL SINGLE POINT ENERGY     -1339.878552618462

DIPOLE MOMENT
-------------
                                X             Y             Z
Electronic contribution:     -2.17134      16.57258       2.09106
Nuclear contribution   :      2.23706     -16.84576      -2.26971
                        -----------------------------------------
Total Dipole Moment    :      0.06571      -0.27318      -0.17865
                        -----------------------------------------
Magnitude (a.u.)       :      0.33296
Magnitude (Debye)      :      0.84631

Rotational constants in cm-1:     0.021868     0.008129     0.006920
Rotational constants in MHz :   655.579320   243.699870   207.462477

                             ****ORCA TERMINATED NORMALLY****
TOTAL RUN TIME: 0 days 0 hours 0 minutes 31 seconds 607 msec
