                         Program Version 4.2.1 -  RELEASE  -
|  1> ! wB97X-D3 SP def2-SVP
|  2> %pal
|  3> nprocs 16
|  4> end
|  5>
|  6> * xyz 0 1
|  7> S 	 -94.3015 	 40.1922 	 115.577
|  8> C 	 -93.2698 	 38.8917 	 115.827
|  9> C 	 -92.0205 	 39.355 	 116.225
| 10> C 	 -91.8898 	 40.7627 	 116.318
| 11> C 	 -93.1441 	 41.4028 	 116.071
| 12> H 	 -91.0046 	 41.3439 	 116.491
| 13> C 	 -90.8564 	 38.4571 	 116.512
| 14> H 	 -89.915 	 38.9856 	 116.365
| 15> H 	 -90.9541 	 37.5468 	 116.031
| 16> C 	 -90.8495 	 38.0856 	 118
| 17> H 	 -90.9526 	 38.9432 	 118.63
| 18> H 	 -91.7632 	 37.4963 	 118.094
| 19> C 	 -89.6632 	 37.2369 	 118.22
| 20> H 	 -89.6609 	 37.0369 	 119.31
| 21> H 	 -89.5452 	 36.4086 	 117.56
| 22> H 	 -88.816 	 37.8824 	 118.077
| 23> S 	 -94.2878 	 43.45 	 114.553
| 24> C 	 -93.9796 	 45.1066 	 115.065
| 25> C 	 -93.3915 	 45.1885 	 116.29
| 26> C 	 -93.2104 	 43.8765 	 116.895
| 27> C 	 -93.4745 	 42.8371 	 115.999
| 28> H 	 -93.0562 	 46.0811 	 116.767
| 29> C 	 -92.5514 	 43.6141 	 118.266
| 30> H 	 -91.6645 	 43.1398 	 117.856
| 31> H 	 -93.2146 	 42.929 	 118.788
| 32> C 	 -92.2637 	 44.8274 	 119.161
| 33> H 	 -93.0782 	 45.4342 	 119.448
| 34> H 	 -91.576 	 45.3777 	 118.61
| 35> C 	 -91.6756 	 44.5133 	 120.559
| 36> H 	 -90.8305 	 43.8356 	 120.436
| 37> H 	 -92.3732 	 44.0315 	 121.346
| 38> H 	 -91.2454 	 45.3654 	 121.12
| 39> H 	 -93.5752 	 37.8529 	 115.791
| 40> H 	 -94.2576 	 45.9616 	 114.466
| 41> *
| 42>
| 43>                          ****END OF INPUT****

CARTESIAN COORDINATES (ANGSTROEM)
---------------------------------
  S    -94.301500   40.192200  115.577000
  C    -93.269800   38.891700  115.827000
  C    -92.020500   39.355000  116.225000
  C    -91.889800   40.762700  116.318000
  C    -93.144100   41.402800  116.071000
  H    -91.004600   41.343900  116.491000
  C    -90.856400   38.457100  116.512000
  H    -89.915000   38.985600  116.365000
  H    -90.954100   37.546800  116.031000
  C    -90.849500   38.085600  118.000000
  H    -90.952600   38.943200  118.630000
  H    -91.763200   37.496300  118.094000
  C    -89.663200   37.236900  118.220000
  H    -89.660900   37.036900  119.310000
  H    -89.545200   36.408600  117.560000
  H    -88.816000   37.882400  118.077000
  S    -94.287800   43.450000  114.553000
  C    -93.979600   45.106600  115.065000
  C    -93.391500   45.188500  116.290000
  C    -93.210400   43.876500  116.895000
  C    -93.474500   42.837100  115.999000
  H    -93.056200   46.081100  116.767000
  C    -92.551400   43.614100  118.266000
  H    -91.664500   43.139800  117.856000
  H    -93.214600   42.929000  118.788000
  C    -92.263700   44.827400  119.161000
  H    -93.078200   45.434200  119.448000
  H    -91.576000   45.377700  118.610000
  C    -91.675600   44.513300  120.559000
  H    -90.830500   43.835600  120.436000
  H    -92.373200   44.031500  121.346000
  H    -91.245400   45.365400  121.120000
  H    -93.575200   37.852900  115.791000
  H    -94.257600   45.961600  114.466000

 Total Charge           Charge          ....    0
 Multiplicity           Mult            ....    1
 Number of Electrons    NEL             ....  134
 Basis Dimension        Dim             ....  322

ORBITAL ENERGIES
----------------

  NO   OCC          E(Eh)            E(eV)
   0   2.0000     -88.965184     -2420.8657
   1   2.0000     -88.963535     -2420.8209
   2   2.0000     -10.333677      -281.1937
   3   2.0000     -10.326505      -280.9985
   4   2.0000     -10.317120      -280.7431
   5   2.0000     -10.308542      -280.5097
   6   2.0000     -10.306837      -280.4633
   7   2.0000     -10.297796      -280.2173
   8   2.0000     -10.297018      -280.1961
   9   2.0000     -10.294279      -280.1216
  10   2.0000     -10.293754      -280.1073
  11   2.0000     -10.287667      -279.9417
  12   2.0000     -10.284587      -279.8578
  13   2.0000     -10.278797      -279.7003
  14   2.0000     -10.275117      -279.6001
  15   2.0000     -10.271758      -279.5087
  16   2.0000      -8.081119      -219.8984
  17   2.0000      -8.077961      -219.8125
  18   2.0000      -6.039478      -164.3426
  19   2.0000      -6.036578      -164.2636
  20   2.0000      -6.035164      -164.2252
  21   2.0000      -6.032609      -164.1556
  22   2.0000      -6.032265      -164.1463
  23   2.0000      -6.028537      -164.0448
  24   2.0000      -1.006665       -27.3928
  25   2.0000      -0.984437       -26.7879
  26   2.0000      -0.925159       -25.1749
  27   2.0000      -0.908786       -24.7293
  28   2.0000      -0.870035       -23.6748
  29   2.0000      -0.855809       -23.2877
  30   2.0000      -0.846264       -23.0280
  31   2.0000      -0.816259       -22.2115
  32   2.0000      -0.780245       -21.2316
  33   2.0000      -0.766633       -20.8611
  34   2.0000      -0.709761       -19.3136
  35   2.0000      -0.698402       -19.0045
  36   2.0000      -0.696131       -18.9427
  37   2.0000      -0.656641       -17.8681
  38   2.0000      -0.645639       -17.5687
  39   2.0000      -0.622640       -16.9429
  40   2.0000      -0.593834       -16.1591
  41   2.0000      -0.580873       -15.8064
  42   2.0000      -0.578133       -15.7318
  43   2.0000      -0.567143       -15.4327
  44   2.0000      -0.531180       -14.4541
  45   2.0000      -0.526049       -14.3145
  46   2.0000      -0.517373       -14.0784
  47   2.0000      -0.511626       -13.9220
  48   2.0000      -0.508453       -13.8357
  49   2.0000      -0.499142       -13.5824
  50   2.0000      -0.492292       -13.3959
  51   2.0000      -0.483779       -13.1643
  52   2.0000      -0.474621       -12.9151
  53   2.0000      -0.466080       -12.6827
  54   2.0000      -0.464076       -12.6282
  55   2.0000      -0.455409       -12.3923
  56   2.0000      -0.449477       -12.2309
  57   2.0000      -0.439411       -11.9570
  58   2.0000      -0.431995       -11.7552
  59   2.0000      -0.421935       -11.4814
  60   2.0000      -0.417062       -11.3488
  61   2.0000      -0.412488       -11.2244
  62   2.0000      -0.410641       -11.1741
  63   2.0000      -0.349105        -9.4996
  64   2.0000      -0.330162        -8.9842
  65   2.0000      -0.324008        -8.8167
  66   2.0000      -0.285081        -7.7575
  67   0.0000       0.028185         0.7670
  68   0.0000       0.071147         1.9360
  69   0.0000       0.111197         3.0258
  70   0.0000       0.126571         3.4442
  71   0.0000       0.133675         3.6375

MULLIKEN ATOMIC CHARGES
-----------------------
   0 S :    0.121424
   1 C :   -0.113102
   2 C :   -0.098042
   3 C :    0.036260
   4 C :   -0.178637
   5 H :    0.018454
   6 C :    0.089996
   7 H :    0.014692
   8 H :   -0.000520
   9 C :   -0.097933
  10 H :    0.025282
  11 H :    0.013103
  12 C :    0.020782
  13 H :    0.034777
  14 H :    0.028535
  15 H :    0.008589
  16 S :    0.102528
  17 C :   -0.074974
  18 C :   -0.021181
  19 C :   -0.091870
  20 C :   -0.149146
  21 H :    0.013434
  22 C :    0.087388
  23 H :    0.033044
  24 H :    0.044577
  25 C :   -0.040434
  26 H :    0.033315
  27 H :    0.017073
  28 C :   -0.090086
  29 H :    0.021484
  30 H :    0.046461
  31 H :    0.037025
  32 H :    0.051856
  33 H :    0.055843
Sum of atomic charges:   -0.0000000

LOEWDIN ATOMIC CHARGES
----------------------
   0 S :    0.445689
   1 C :   -0.229263
   2 C :   -0.061580
   3 C :   -0.061645
   4 C :   -0.196325
   5 H :    0.029213
   6 C :   -0.022730
   7 H :    0.026899
   8 H :    0.018392
   9 C :   -0.036215
  10 H :    0.019958
  11 H :    0.019006
  12 C :   -0.060182
  13 H :    0.032661
  14 H :    0.023216
  15 H :    0.021365
  16 S :    0.387717
  17 C :   -0.173881
  18 C :   -0.072807
  19 C :   -0.048025
  20 C :   -0.206172
  21 H :    0.028240
  22 C :   -0.027638
  23 H :    0.037546
  24 H :    0.035912
  25 C :   -0.038195
  26 H :    0.024149
  27 H :    0.017244
  28 C :   -0.075362
  29 H :    0.019395
  30 H :    0.033965
  31 H :    0.029139
  32 H :    0.031515
  33 H :    0.028797

  Mayer bond orders larger than 0.100000
B(  0-S ,  1-C ) :   1.1624 B(  0-S ,  4-C ) :   1.1970 B(  1-C ,  2-C ) :   1.5482
B(  1-C ,  4-C ) :   0.1073 B(  1-C , 32-H ) :   0.9712 B(  2-C ,  3-C ) :   1.2929
B(  2-C ,  6-C ) :   1.0453 B(  3-C ,  4-C ) :   1.4998 B(  3-C ,  5-H ) :   0.9916
B(  4-C , 20-C ) :   1.0482 B(  6-C ,  7-H ) :   0.9431 B(  6-C ,  8-H ) :   0.9363
B(  6-C ,  9-C ) :   1.0587 B(  9-C , 10-H ) :   0.9569 B(  9-C , 11-H ) :   0.9522
B(  9-C , 12-C ) :   1.0918 B( 12-C , 13-H ) :   0.9675 B( 12-C , 14-H ) :   0.9675
B( 12-C , 15-H ) :   0.9678 B( 16-S , 17-C ) :   1.1467 B( 16-S , 20-C ) :   1.1254
B( 17-C , 18-C ) :   1.6160 B( 17-C , 33-H ) :   0.9653 B( 18-C , 19-C ) :   1.2314
B( 18-C , 21-H ) :   0.9917 B( 19-C , 20-C ) :   1.6118 B( 19-C , 22-C ) :   1.0063
B( 22-C , 23-H ) :   0.9322 B( 22-C , 24-H ) :   0.9341 B( 22-C , 25-C ) :   1.0846
B( 25-C , 26-H ) :   0.9595 B( 25-C , 27-H ) :   0.9428 B( 25-C , 28-C ) :   1.0814
B( 28-C , 29-H ) :   0.9746 B( 28-C , 30-H ) :   0.9758 B( 28-C , 31-H ) :   0.9742

Dispersion correction           -0.013346822
FINAL SINGLE POINT ENERGY     -1339.861718312412

DIPOLE MOMENT
-------------
                                X             Y             Z
Electronic contribution:    -20.29968       5.18654     -23.54578
Nuclear contribution   :     20.85689      -5.12212      24.01389
                        -----------------------------------------
Total Dipole Moment    :      0.55721       0.06442       0.46811
                        -----------------------------------------
Magnitude (a.u.)       :      0.73059
Magnitude (Debye)      :      1.85701

Rotational constants in cm-1:     0.016721     0.008654     0.006086
Rotational constants in MHz :   501.268460   259.447886   182.457515

                             ****ORCA TERMINATED NORMALLY****
TOTAL RUN TIME: 0 days 0 hours 0 minutes 32 seconds 775 msec
