                         Program Version 4.2.1 -  RELEASE  -
|  1> ! wB97X-D3 SP def2-SVP
|  2> %pal
|  3> nprocs 16
|  4> end
|  5>
|  6> * xyz 0 1
|  7> S 	 -105.583 	 54.7456 	 119.448
|  8> C 	 -106.91 	 53.6096 	 119.598
|  9> C 	 -106.596 	 52.3438 	 119.159
| 10> C 	 -105.253 	 52.3447 	 118.674
| 11> C 	 -104.547 	 53.5293 	 118.724
| 12> H 	 -104.724 	 51.4546 	 118.511
| 13> C 	 -107.441 	 51.0733 	 119.366
| 14> H 	 -108.387 	 51.2547 	 119.957
| 15> H 	 -106.864 	 50.4003 	 120.017
| 16> C 	 -107.686 	 50.4165 	 118.043
| 17> H 	 -108.219 	 51.004 	 117.352
| 18> H 	 -106.784 	 50.1821 	 117.617
| 19> C 	 -108.297 	 49.0564 	 118.184
| 20> H 	 -109.32 	 49.0749 	 118.492
| 21> H 	 -108.278 	 48.633 	 117.237
| 22> H 	 -107.674 	 48.3989 	 118.86
| 23> S 	 -102.045 	 54.6104 	 119.297
| 24> C 	 -100.678 	 54.4292 	 118.171
| 25> C 	 -101.11 	 53.6997 	 117.082
| 26> C 	 -102.453 	 53.3094 	 117.176
| 27> C 	 -103.155 	 53.6935 	 118.325
| 28> H 	 -100.385 	 53.4606 	 116.334
| 29> C 	 -103.043 	 52.597 	 115.994
| 30> H 	 -102.675 	 52.9746 	 115.042
| 31> H 	 -104.111 	 52.8156 	 116.098
| 32> C 	 -102.843 	 51.0319 	 115.932
| 33> H 	 -103.488 	 50.5938 	 115.23
| 34> H 	 -103.008 	 50.6125 	 116.934
| 35> C 	 -101.504 	 50.6221 	 115.436
| 36> H 	 -101.225 	 51.2344 	 114.507
| 37> H 	 -101.543 	 49.5455 	 115.262
| 38> H 	 -100.727 	 50.8396 	 116.195
| 39> H 	 -107.837 	 53.7952 	 120.124
| 40> H 	 -99.7228 	 54.8694 	 118.287
| 41> *
| 42>
| 43>                          ****END OF INPUT****

CARTESIAN COORDINATES (ANGSTROEM)
---------------------------------
  S    -105.583000   54.745600  119.448000
  C    -106.910000   53.609600  119.598000
  C    -106.596000   52.343800  119.159000
  C    -105.253000   52.344700  118.674000
  C    -104.547000   53.529300  118.724000
  H    -104.724000   51.454600  118.511000
  C    -107.441000   51.073300  119.366000
  H    -108.387000   51.254700  119.957000
  H    -106.864000   50.400300  120.017000
  C    -107.686000   50.416500  118.043000
  H    -108.219000   51.004000  117.352000
  H    -106.784000   50.182100  117.617000
  C    -108.297000   49.056400  118.184000
  H    -109.320000   49.074900  118.492000
  H    -108.278000   48.633000  117.237000
  H    -107.674000   48.398900  118.860000
  S    -102.045000   54.610400  119.297000
  C    -100.678000   54.429200  118.171000
  C    -101.110000   53.699700  117.082000
  C    -102.453000   53.309400  117.176000
  C    -103.155000   53.693500  118.325000
  H    -100.385000   53.460600  116.334000
  C    -103.043000   52.597000  115.994000
  H    -102.675000   52.974600  115.042000
  H    -104.111000   52.815600  116.098000
  C    -102.843000   51.031900  115.932000
  H    -103.488000   50.593800  115.230000
  H    -103.008000   50.612500  116.934000
  C    -101.504000   50.622100  115.436000
  H    -101.225000   51.234400  114.507000
  H    -101.543000   49.545500  115.262000
  H    -100.727000   50.839600  116.195000
  H    -107.837000   53.795200  120.124000
  H    -99.722800   54.869400  118.287000

 Total Charge           Charge          ....    0
 Multiplicity           Mult            ....    1
 Number of Electrons    NEL             ....  134
 Basis Dimension        Dim             ....  322

ORBITAL ENERGIES
----------------

  NO   OCC          E(Eh)            E(eV)
   0   2.0000     -88.969055     -2420.9711
   1   2.0000     -88.964133     -2420.8371
   2   2.0000     -10.333245      -281.1819
   3   2.0000     -10.331091      -281.1233
   4   2.0000     -10.319177      -280.7991
   5   2.0000     -10.314748      -280.6786
   6   2.0000     -10.301760      -280.3251
   7   2.0000     -10.300610      -280.2939
   8   2.0000     -10.300076      -280.2793
   9   2.0000     -10.290774      -280.0262
  10   2.0000     -10.290668      -280.0233
  11   2.0000     -10.285620      -279.8860
  12   2.0000     -10.280389      -279.7436
  13   2.0000     -10.279769      -279.7267
  14   2.0000     -10.271557      -279.5033
  15   2.0000     -10.271444      -279.5002
  16   2.0000      -8.083440      -219.9616
  17   2.0000      -8.078709      -219.8328
  18   2.0000      -6.042076      -164.4132
  19   2.0000      -6.037958      -164.3012
  20   2.0000      -6.037299      -164.2833
  21   2.0000      -6.034120      -164.1967
  22   2.0000      -6.032990      -164.1660
  23   2.0000      -6.029630      -164.0746
  24   2.0000      -1.008160       -27.4334
  25   2.0000      -0.986928       -26.8557
  26   2.0000      -0.923737       -25.1362
  27   2.0000      -0.908928       -24.7332
  28   2.0000      -0.876510       -23.8510
  29   2.0000      -0.854071       -23.2405
  30   2.0000      -0.849322       -23.1112
  31   2.0000      -0.819497       -22.2997
  32   2.0000      -0.783717       -21.3260
  33   2.0000      -0.768574       -20.9140
  34   2.0000      -0.712009       -19.3747
  35   2.0000      -0.699964       -19.0470
  36   2.0000      -0.687742       -18.7144
  37   2.0000      -0.666527       -18.1371
  38   2.0000      -0.644130       -17.5277
  39   2.0000      -0.625391       -17.0178
  40   2.0000      -0.593905       -16.1610
  41   2.0000      -0.579904       -15.7800
  42   2.0000      -0.573906       -15.6168
  43   2.0000      -0.555584       -15.1182
  44   2.0000      -0.552336       -15.0298
  45   2.0000      -0.534184       -14.5359
  46   2.0000      -0.523259       -14.2386
  47   2.0000      -0.508913       -13.8482
  48   2.0000      -0.504412       -13.7258
  49   2.0000      -0.500241       -13.6122
  50   2.0000      -0.497519       -13.5382
  51   2.0000      -0.477996       -13.0069
  52   2.0000      -0.472083       -12.8460
  53   2.0000      -0.468120       -12.7382
  54   2.0000      -0.459610       -12.5066
  55   2.0000      -0.447866       -12.1870
  56   2.0000      -0.444354       -12.0915
  57   2.0000      -0.437195       -11.8967
  58   2.0000      -0.426604       -11.6085
  59   2.0000      -0.425673       -11.5831
  60   2.0000      -0.422881       -11.5072
  61   2.0000      -0.417497       -11.3607
  62   2.0000      -0.411584       -11.1998
  63   2.0000      -0.353490        -9.6189
  64   2.0000      -0.332312        -9.0427
  65   2.0000      -0.329294        -8.9605
  66   2.0000      -0.291989        -7.9454
  67   0.0000       0.023854         0.6491
  68   0.0000       0.075895         2.0652
  69   0.0000       0.113186         3.0799
  70   0.0000       0.126488         3.4419
  71   0.0000       0.130934         3.5629

MULLIKEN ATOMIC CHARGES
-----------------------
   0 S :    0.119033
   1 C :   -0.128657
   2 C :   -0.066266
   3 C :    0.020739
   4 C :   -0.136615
   5 H :   -0.007215
   6 C :    0.060746
   7 H :    0.029099
   8 H :    0.031442
   9 C :   -0.046761
  10 H :    0.021526
  11 H :    0.003946
  12 C :   -0.013960
  13 H :    0.024134
  14 H :    0.013549
  15 H :    0.028721
  16 S :    0.089747
  17 C :   -0.085791
  18 C :   -0.022307
  19 C :   -0.041248
  20 C :   -0.132143
  21 H :    0.016079
  22 C :    0.049187
  23 H :    0.018418
  24 H :    0.029926
  25 C :   -0.045020
  26 H :    0.019958
  27 H :    0.027505
  28 C :   -0.078504
  29 H :    0.032690
  30 H :    0.039721
  31 H :    0.036158
  32 H :    0.044391
  33 H :    0.047774
Sum of atomic charges:   -0.0000000

LOEWDIN ATOMIC CHARGES
----------------------
   0 S :    0.404503
   1 C :   -0.192208
   2 C :   -0.061763
   3 C :   -0.056606
   4 C :   -0.194458
   5 H :    0.019293
   6 C :   -0.025552
   7 H :    0.033809
   8 H :    0.033533
   9 C :   -0.035551
  10 H :    0.022409
  11 H :    0.016184
  12 C :   -0.054047
  13 H :    0.018647
  14 H :    0.017820
  15 H :    0.030027
  16 S :    0.400421
  17 C :   -0.165409
  18 C :   -0.070114
  19 C :   -0.060894
  20 C :   -0.202867
  21 H :    0.031523
  22 C :   -0.029858
  23 H :    0.025981
  24 H :    0.031430
  25 C :   -0.038207
  26 H :    0.017714
  27 H :    0.022580
  28 C :   -0.071258
  29 H :    0.028854
  30 H :    0.027690
  31 H :    0.023463
  32 H :    0.028375
  33 H :    0.024533

  Mayer bond orders larger than 0.100000
B(  0-S ,  1-C ) :   1.1413 B(  0-S ,  4-C ) :   1.1338 B(  1-C ,  2-C ) :   1.6215
B(  1-C , 32-H ) :   0.9640 B(  2-C ,  3-C ) :   1.2480 B(  2-C ,  6-C ) :   1.0175
B(  3-C ,  4-C ) :   1.5668 B(  3-C ,  5-H ) :   0.9959 B(  4-C , 20-C ) :   1.0665
B(  6-C ,  7-H ) :   0.9454 B(  6-C ,  8-H ) :   0.9392 B(  6-C ,  9-C ) :   1.0667
B(  9-C , 10-H ) :   0.9531 B(  9-C , 11-H ) :   0.9507 B(  9-C , 12-C ) :   1.0985
B( 12-C , 13-H ) :   0.9719 B( 12-C , 14-H ) :   0.9702 B( 12-C , 15-H ) :   0.9713
B( 16-S , 17-C ) :   1.1644 B( 16-S , 20-C ) :   1.1349 B( 17-C , 18-C ) :   1.5734
B( 17-C , 20-C ) :   0.1043 B( 17-C , 33-H ) :   0.9735 B( 18-C , 19-C ) :   1.2677
B( 18-C , 21-H ) :   0.9969 B( 19-C , 20-C ) :   1.5530 B( 19-C , 22-C ) :   1.0492
B( 22-C , 23-H ) :   0.9432 B( 22-C , 24-H ) :   0.9261 B( 22-C , 25-C ) :   1.0705
B( 25-C , 26-H ) :   0.9564 B( 25-C , 27-H ) :   0.9479 B( 25-C , 28-C ) :   1.0897
B( 28-C , 29-H ) :   0.9707 B( 28-C , 30-H ) :   0.9711 B( 28-C , 31-H ) :   0.9718

Dispersion correction           -0.014244749
FINAL SINGLE POINT ENERGY     -1339.874386019588

DIPOLE MOMENT
-------------
                                X             Y             Z
Electronic contribution:      7.55257      27.00701      14.36551
Nuclear contribution   :     -7.65088     -27.65859     -14.66609
                        -----------------------------------------
Total Dipole Moment    :     -0.09831      -0.65158      -0.30058
                        -----------------------------------------
Magnitude (a.u.)       :      0.72427
Magnitude (Debye)      :      1.84095

Rotational constants in cm-1:     0.017692     0.009247     0.006413
Rotational constants in MHz :   530.382764   277.226464   192.265987

                             ****ORCA TERMINATED NORMALLY****
TOTAL RUN TIME: 0 days 0 hours 0 minutes 34 seconds 431 msec
