                         Program Version 4.2.1 -  RELEASE  -
|  1> ! wB97X-D3 SP def2-SVP
|  2> %pal
|  3> nprocs 16
|  4> end
|  5>
|  6> * xyz 0 1
|  7> S 	 -95.0433 	 54.0403 	 121.595
|  8> C 	 -94.9673 	 52.3523 	 121.027
|  9> C 	 -95.4259 	 51.5373 	 122.066
| 10> C 	 -95.6124 	 52.1368 	 123.301
| 11> C 	 -95.3708 	 53.5203 	 123.243
| 12> H 	 -95.9646 	 51.6478 	 124.231
| 13> C 	 -95.8114 	 50.0715 	 121.822
| 14> H 	 -96.476 	 50.1615 	 120.979
| 15> H 	 -96.4921 	 49.6831 	 122.694
| 16> C 	 -94.7583 	 49.1008 	 121.504
| 17> H 	 -94.4175 	 49.3383 	 120.527
| 18> H 	 -93.832 	 49.3255 	 122.099
| 19> C 	 -95.0595 	 47.6152 	 121.45
| 20> H 	 -95.5234 	 47.3457 	 122.356
| 21> H 	 -95.8404 	 47.3749 	 120.73
| 22> H 	 -94.2042 	 46.9448 	 121.202
| 23> S 	 -96.7796 	 55.7 	 124.063
| 24> C 	 -96.7964 	 56.0948 	 125.787
| 25> C 	 -96.0025 	 55.2129 	 126.495
| 26> C 	 -95.257 	 54.3051 	 125.685
| 27> C 	 -95.6505 	 54.4002 	 124.357
| 28> H 	 -95.8354 	 55.3203 	 127.58
| 29> C 	 -94.3049 	 53.3339 	 126.342
| 30> H 	 -93.8811 	 52.6864 	 125.589
| 31> H 	 -95.0859 	 52.7012 	 126.879
| 32> C 	 -93.1702 	 53.8953 	 127.277
| 33> H 	 -92.5134 	 53.0745 	 127.667
| 34> H 	 -93.5587 	 54.4015 	 128.157
| 35> C 	 -92.1839 	 54.8385 	 126.564
| 36> H 	 -91.4195 	 55.1145 	 127.239
| 37> H 	 -92.7444 	 55.7225 	 126.206
| 38> H 	 -91.7097 	 54.5002 	 125.664
| 39> H 	 -94.8293 	 52.0098 	 120.048
| 40> H 	 -97.2817 	 56.9151 	 126.206
| 41> *
| 42>
| 43>                          ****END OF INPUT****

CARTESIAN COORDINATES (ANGSTROEM)
---------------------------------
  S    -95.043300   54.040300  121.595000
  C    -94.967300   52.352300  121.027000
  C    -95.425900   51.537300  122.066000
  C    -95.612400   52.136800  123.301000
  C    -95.370800   53.520300  123.243000
  H    -95.964600   51.647800  124.231000
  C    -95.811400   50.071500  121.822000
  H    -96.476000   50.161500  120.979000
  H    -96.492100   49.683100  122.694000
  C    -94.758300   49.100800  121.504000
  H    -94.417500   49.338300  120.527000
  H    -93.832000   49.325500  122.099000
  C    -95.059500   47.615200  121.450000
  H    -95.523400   47.345700  122.356000
  H    -95.840400   47.374900  120.730000
  H    -94.204200   46.944800  121.202000
  S    -96.779600   55.700000  124.063000
  C    -96.796400   56.094800  125.787000
  C    -96.002500   55.212900  126.495000
  C    -95.257000   54.305100  125.685000
  C    -95.650500   54.400200  124.357000
  H    -95.835400   55.320300  127.580000
  C    -94.304900   53.333900  126.342000
  H    -93.881100   52.686400  125.589000
  H    -95.085900   52.701200  126.879000
  C    -93.170200   53.895300  127.277000
  H    -92.513400   53.074500  127.667000
  H    -93.558700   54.401500  128.157000
  C    -92.183900   54.838500  126.564000
  H    -91.419500   55.114500  127.239000
  H    -92.744400   55.722500  126.206000
  H    -91.709700   54.500200  125.664000
  H    -94.829300   52.009800  120.048000
  H    -97.281700   56.915100  126.206000

 Total Charge           Charge          ....    0
 Multiplicity           Mult            ....    1
 Number of Electrons    NEL             ....  134
 Basis Dimension        Dim             ....  322

ORBITAL ENERGIES
----------------

  NO   OCC          E(Eh)            E(eV)
   0   2.0000     -88.972392     -2421.0619
   1   2.0000     -88.965289     -2420.8686
   2   2.0000     -10.331788      -281.1423
   3   2.0000     -10.325012      -280.9579
   4   2.0000     -10.314864      -280.6817
   5   2.0000     -10.314239      -280.6647
   6   2.0000     -10.303014      -280.3593
   7   2.0000     -10.301053      -280.3059
   8   2.0000     -10.299476      -280.2630
   9   2.0000     -10.295947      -280.1670
  10   2.0000     -10.295500      -280.1548
  11   2.0000     -10.294473      -280.1269
  12   2.0000     -10.293961      -280.1129
  13   2.0000     -10.280113      -279.7361
  14   2.0000     -10.277212      -279.6572
  15   2.0000     -10.270145      -279.4649
  16   2.0000      -8.085880      -220.0280
  17   2.0000      -8.079951      -219.8667
  18   2.0000      -6.044418      -164.4770
  19   2.0000      -6.040569      -164.3722
  20   2.0000      -6.038483      -164.3155
  21   2.0000      -6.036686      -164.2666
  22   2.0000      -6.034544      -164.2083
  23   2.0000      -6.030613      -164.1013
  24   2.0000      -1.006537       -27.3893
  25   2.0000      -0.982772       -26.7426
  26   2.0000      -0.916773       -24.9467
  27   2.0000      -0.903638       -24.5892
  28   2.0000      -0.870254       -23.6808
  29   2.0000      -0.854184       -23.2435
  30   2.0000      -0.847558       -23.0632
  31   2.0000      -0.814088       -22.1525
  32   2.0000      -0.783895       -21.3309
  33   2.0000      -0.772789       -21.0287
  34   2.0000      -0.710117       -19.3233
  35   2.0000      -0.703155       -19.1338
  36   2.0000      -0.697044       -18.9675
  37   2.0000      -0.660474       -17.9724
  38   2.0000      -0.639565       -17.4034
  39   2.0000      -0.615957       -16.7610
  40   2.0000      -0.595975       -16.2173
  41   2.0000      -0.570160       -15.5148
  42   2.0000      -0.559412       -15.2224
  43   2.0000      -0.552439       -15.0326
  44   2.0000      -0.537760       -14.6332
  45   2.0000      -0.524240       -14.2653
  46   2.0000      -0.522791       -14.2259
  47   2.0000      -0.515555       -14.0290
  48   2.0000      -0.504440       -13.7265
  49   2.0000      -0.498821       -13.5736
  50   2.0000      -0.490643       -13.3511
  51   2.0000      -0.484521       -13.1845
  52   2.0000      -0.471729       -12.8364
  53   2.0000      -0.463305       -12.6072
  54   2.0000      -0.460343       -12.5266
  55   2.0000      -0.447371       -12.1736
  56   2.0000      -0.444236       -12.0883
  57   2.0000      -0.441789       -12.0217
  58   2.0000      -0.436504       -11.8779
  59   2.0000      -0.428632       -11.6637
  60   2.0000      -0.416649       -11.3376
  61   2.0000      -0.411805       -11.2058
  62   2.0000      -0.403063       -10.9679
  63   2.0000      -0.346434        -9.4269
  64   2.0000      -0.335497        -9.1293
  65   2.0000      -0.328320        -8.9340
  66   2.0000      -0.287288        -7.8175
  67   0.0000       0.023231         0.6322
  68   0.0000       0.069047         1.8789
  69   0.0000       0.102394         2.7863
  70   0.0000       0.125190         3.4066
  71   0.0000       0.128694         3.5019

MULLIKEN ATOMIC CHARGES
-----------------------
   0 S :    0.112925
   1 C :   -0.094845
   2 C :   -0.079927
   3 C :    0.010101
   4 C :   -0.152775
   5 H :    0.033663
   6 C :    0.036957
   7 H :    0.026693
   8 H :    0.029528
   9 C :   -0.058842
  10 H :    0.003629
  11 H :    0.031615
  12 C :   -0.023904
  13 H :    0.012168
  14 H :    0.018479
  15 H :    0.048549
  16 S :    0.104401
  17 C :   -0.069753
  18 C :   -0.043324
  19 C :   -0.057280
  20 C :   -0.155904
  21 H :    0.029185
  22 C :    0.049284
  23 H :    0.026018
  24 H :    0.051854
  25 C :   -0.070847
  26 H :    0.038597
  27 H :    0.029975
  28 C :   -0.047786
  29 H :    0.029146
  30 H :    0.038920
  31 H :    0.027905
  32 H :    0.030135
  33 H :    0.035463
Sum of atomic charges:   -0.0000000

LOEWDIN ATOMIC CHARGES
----------------------
   0 S :    0.401686
   1 C :   -0.188796
   2 C :   -0.057785
   3 C :   -0.065585
   4 C :   -0.190339
   5 H :    0.041536
   6 C :   -0.036287
   7 H :    0.029585
   8 H :    0.034222
   9 C :   -0.054633
  10 H :    0.017352
  11 H :    0.029840
  12 C :   -0.062539
  13 H :    0.015822
  14 H :    0.025003
  15 H :    0.036633
  16 S :    0.396805
  17 C :   -0.169359
  18 C :   -0.070172
  19 C :   -0.062738
  20 C :   -0.201319
  21 H :    0.034484
  22 C :   -0.036514
  23 H :    0.027717
  24 H :    0.045191
  25 C :   -0.038751
  26 H :    0.032200
  27 H :    0.021375
  28 C :   -0.065061
  29 H :    0.021462
  30 H :    0.030026
  31 H :    0.023478
  32 H :    0.018419
  33 H :    0.017045

  Mayer bond orders larger than 0.100000
B(  0-S ,  1-C ) :   1.1281 B(  0-S ,  4-C ) :   1.1705 B(  1-C ,  2-C ) :   1.5736
B(  1-C ,  4-C ) :   0.1127 B(  1-C , 32-H ) :   0.9795 B(  2-C ,  3-C ) :   1.2972
B(  2-C ,  6-C ) :   1.0026 B(  3-C ,  4-C ) :   1.5041 B(  3-C ,  5-H ) :   0.9897
B(  4-C , 20-C ) :   1.0540 B(  6-C ,  7-H ) :   0.9332 B(  6-C ,  8-H ) :   0.9490
B(  6-C ,  9-C ) :   1.0709 B(  9-C , 10-H ) :   0.9429 B(  9-C , 11-H ) :   0.9550
B(  9-C , 12-C ) :   1.0881 B( 12-C , 13-H ) :   0.9736 B( 12-C , 14-H ) :   0.9705
B( 12-C , 15-H ) :   0.9727 B( 16-S , 17-C ) :   1.1401 B( 16-S , 20-C ) :   1.1381
B( 17-C , 18-C ) :   1.6174 B( 17-C , 33-H ) :   0.9783 B( 18-C , 19-C ) :   1.2333
B( 18-C , 21-H ) :   0.9813 B( 19-C , 20-C ) :   1.5936 B( 19-C , 22-C ) :   1.0298
B( 22-C , 23-H ) :   0.9345 B( 22-C , 24-H ) :   0.9378 B( 22-C , 25-C ) :   1.0608
B( 25-C , 26-H ) :   0.9577 B( 25-C , 27-H ) :   0.9566 B( 25-C , 28-C ) :   1.0741
B( 28-C , 29-H ) :   0.9745 B( 28-C , 30-H ) :   0.9733 B( 28-C , 31-H ) :   0.9762

Dispersion correction           -0.013956032
FINAL SINGLE POINT ENERGY     -1339.868814311624

DIPOLE MOMENT
-------------
                                X             Y             Z
Electronic contribution:    -11.52325      21.97624      -7.57799
Nuclear contribution   :     11.58338     -22.44894       7.89908
                        -----------------------------------------
Total Dipole Moment    :      0.06014      -0.47270       0.32110
                        -----------------------------------------
Magnitude (a.u.)       :      0.57460
Magnitude (Debye)      :      1.46052

Rotational constants in cm-1:     0.019785     0.007578     0.006393
Rotational constants in MHz :   593.126729   227.196798   191.658309

                             ****ORCA TERMINATED NORMALLY****
TOTAL RUN TIME: 0 days 0 hours 0 minutes 31 seconds 139 msec
