                         Program Version 4.2.1 -  RELEASE  -
|  1> ! wB97X-D3 SP def2-SVP
|  2> %pal
|  3> nprocs 16
|  4> end
|  5>
|  6> * xyz 0 1
|  7> S 	 -84.9954 	 51.5741 	 134.734
|  8> C 	 -85.0998 	 49.859 	 135.227
|  9> C 	 -85.1929 	 48.9398 	 134.207
| 10> C 	 -85.3483 	 49.6603 	 132.973
| 11> C 	 -85.333 	 51.0151 	 133.038
| 12> H 	 -85.4224 	 49.1258 	 132.096
| 13> C 	 -84.9577 	 47.3784 	 134.38
| 14> H 	 -85.323 	 46.9313 	 133.401
| 15> H 	 -85.71 	 46.8993 	 135.062
| 16> C 	 -83.5333 	 47.0055 	 134.65
| 17> H 	 -83.1196 	 47.5218 	 135.526
| 18> H 	 -83.4392 	 45.8859 	 134.818
| 19> C 	 -82.6449 	 47.1404 	 133.508
| 20> H 	 -82.8333 	 46.338 	 132.844
| 21> H 	 -82.7393 	 48.0716 	 133.047
| 22> H 	 -81.583 	 47.144 	 133.774
| 23> S 	 -83.9194 	 53.2004 	 132.01
| 24> C 	 -84.3948 	 53.9193 	 130.55
| 25> C 	 -85.3725 	 53.2068 	 129.874
| 26> C 	 -85.882 	 52.1164 	 130.685
| 27> C 	 -85.2171 	 51.9754 	 131.921
| 28> H 	 -85.8111 	 53.5974 	 128.925
| 29> C 	 -87.005 	 51.2105 	 130.253
| 30> H 	 -86.7392 	 50.1824 	 130.474
| 31> H 	 -87.2655 	 51.2152 	 129.221
| 32> C 	 -88.2716 	 51.5259 	 130.975
| 33> H 	 -88.671 	 52.5176 	 130.765
| 34> H 	 -88.1531 	 51.4572 	 132.06
| 35> C 	 -89.4864 	 50.6433 	 130.579
| 36> H 	 -89.3008 	 49.5696 	 130.72
| 37> H 	 -89.6679 	 50.6949 	 129.508
| 38> H 	 -90.379 	 50.9639 	 131.077
| 39> H 	 -84.9091 	 49.5476 	 136.281
| 40> H 	 -83.8367 	 54.8308 	 130.161
| 41> *
| 42>
| 43>                          ****END OF INPUT****

CARTESIAN COORDINATES (ANGSTROEM)
---------------------------------
  S    -84.995400   51.574100  134.734000
  C    -85.099800   49.859000  135.227000
  C    -85.192900   48.939800  134.207000
  C    -85.348300   49.660300  132.973000
  C    -85.333000   51.015100  133.038000
  H    -85.422400   49.125800  132.096000
  C    -84.957700   47.378400  134.380000
  H    -85.323000   46.931300  133.401000
  H    -85.710000   46.899300  135.062000
  C    -83.533300   47.005500  134.650000
  H    -83.119600   47.521800  135.526000
  H    -83.439200   45.885900  134.818000
  C    -82.644900   47.140400  133.508000
  H    -82.833300   46.338000  132.844000
  H    -82.739300   48.071600  133.047000
  H    -81.583000   47.144000  133.774000
  S    -83.919400   53.200400  132.010000
  C    -84.394800   53.919300  130.550000
  C    -85.372500   53.206800  129.874000
  C    -85.882000   52.116400  130.685000
  C    -85.217100   51.975400  131.921000
  H    -85.811100   53.597400  128.925000
  C    -87.005000   51.210500  130.253000
  H    -86.739200   50.182400  130.474000
  H    -87.265500   51.215200  129.221000
  C    -88.271600   51.525900  130.975000
  H    -88.671000   52.517600  130.765000
  H    -88.153100   51.457200  132.060000
  C    -89.486400   50.643300  130.579000
  H    -89.300800   49.569600  130.720000
  H    -89.667900   50.694900  129.508000
  H    -90.379000   50.963900  131.077000
  H    -84.909100   49.547600  136.281000
  H    -83.836700   54.830800  130.161000

 Total Charge           Charge          ....    0
 Multiplicity           Mult            ....    1
 Number of Electrons    NEL             ....  134
 Basis Dimension        Dim             ....  322

ORBITAL ENERGIES
----------------

  NO   OCC          E(Eh)            E(eV)
   0   2.0000     -88.969522     -2420.9838
   1   2.0000     -88.964838     -2420.8563
   2   2.0000     -10.336418      -281.2682
   3   2.0000     -10.331339      -281.1300
   4   2.0000     -10.320944      -280.8472
   5   2.0000     -10.320107      -280.8244
   6   2.0000     -10.309264      -280.5293
   7   2.0000     -10.309014      -280.5225
   8   2.0000     -10.307206      -280.4733
   9   2.0000     -10.299756      -280.2706
  10   2.0000     -10.292824      -280.0820
  11   2.0000     -10.286075      -279.8983
  12   2.0000     -10.285082      -279.8713
  13   2.0000     -10.278225      -279.6847
  14   2.0000     -10.272445      -279.5274
  15   2.0000     -10.262435      -279.2551
  16   2.0000      -8.082740      -219.9426
  17   2.0000      -8.080097      -219.8706
  18   2.0000      -6.041389      -164.3946
  19   2.0000      -6.038539      -164.3170
  20   2.0000      -6.037759      -164.2958
  21   2.0000      -6.034397      -164.2043
  22   2.0000      -6.033137      -164.1700
  23   2.0000      -6.031038      -164.1129
  24   2.0000      -1.001637       -27.2559
  25   2.0000      -0.980281       -26.6748
  26   2.0000      -0.920590       -25.0505
  27   2.0000      -0.914386       -24.8817
  28   2.0000      -0.867320       -23.6010
  29   2.0000      -0.851392       -23.1676
  30   2.0000      -0.843874       -22.9630
  31   2.0000      -0.813914       -22.1477
  32   2.0000      -0.786598       -21.4044
  33   2.0000      -0.772394       -21.0179
  34   2.0000      -0.701953       -19.1011
  35   2.0000      -0.696507       -18.9529
  36   2.0000      -0.686487       -18.6803
  37   2.0000      -0.659420       -17.9437
  38   2.0000      -0.635278       -17.2868
  39   2.0000      -0.624658       -16.9978
  40   2.0000      -0.599522       -16.3138
  41   2.0000      -0.581279       -15.8174
  42   2.0000      -0.566183       -15.4066
  43   2.0000      -0.555449       -15.1145
  44   2.0000      -0.543940       -14.8014
  45   2.0000      -0.526379       -14.3235
  46   2.0000      -0.510577       -13.8935
  47   2.0000      -0.508770       -13.8443
  48   2.0000      -0.503004       -13.6874
  49   2.0000      -0.494659       -13.4604
  50   2.0000      -0.490514       -13.3476
  51   2.0000      -0.476603       -12.9690
  52   2.0000      -0.472479       -12.8568
  53   2.0000      -0.464574       -12.6417
  54   2.0000      -0.451734       -12.2923
  55   2.0000      -0.446568       -12.1517
  56   2.0000      -0.443519       -12.0688
  57   2.0000      -0.440308       -11.9814
  58   2.0000      -0.435988       -11.8638
  59   2.0000      -0.423703       -11.5295
  60   2.0000      -0.419196       -11.4069
  61   2.0000      -0.412380       -11.2214
  62   2.0000      -0.409752       -11.1499
  63   2.0000      -0.352183        -9.5834
  64   2.0000      -0.335927        -9.1410
  65   2.0000      -0.330339        -8.9890
  66   2.0000      -0.288742        -7.8571
  67   0.0000       0.024672         0.6714
  68   0.0000       0.065426         1.7803
  69   0.0000       0.100328         2.7301
  70   0.0000       0.119961         3.2643
  71   0.0000       0.129922         3.5353

MULLIKEN ATOMIC CHARGES
-----------------------
   0 S :    0.093290
   1 C :   -0.134076
   2 C :   -0.099321
   3 C :    0.052811
   4 C :   -0.114593
   5 H :   -0.020092
   6 C :    0.040785
   7 H :    0.019079
   8 H :    0.049092
   9 C :   -0.057611
  10 H :    0.032194
  11 H :    0.031874
  12 C :   -0.015262
  13 H :    0.019337
  14 H :    0.016740
  15 H :    0.027401
  16 S :    0.104125
  17 C :   -0.122014
  18 C :   -0.036039
  19 C :   -0.041305
  20 C :   -0.152630
  21 H :    0.037528
  22 C :    0.108305
  23 H :    0.012200
  24 H :    0.003829
  25 C :   -0.098777
  26 H :    0.023504
  27 H :    0.041887
  28 C :   -0.039598
  29 H :    0.022078
  30 H :    0.015072
  31 H :    0.035412
  32 H :    0.060030
  33 H :    0.084745
Sum of atomic charges:   -0.0000000

LOEWDIN ATOMIC CHARGES
----------------------
   0 S :    0.359225
   1 C :   -0.177482
   2 C :   -0.066084
   3 C :   -0.049125
   4 C :   -0.171086
   5 H :    0.016661
   6 C :   -0.033437
   7 H :    0.032908
   8 H :    0.039105
   9 C :   -0.050827
  10 H :    0.025011
  11 H :    0.034909
  12 C :   -0.059409
  13 H :    0.020611
  14 H :    0.016278
  15 H :    0.031897
  16 S :    0.412297
  17 C :   -0.209130
  18 C :   -0.083694
  19 C :   -0.046844
  20 C :   -0.192172
  21 H :    0.040572
  22 C :   -0.032010
  23 H :    0.028694
  24 H :    0.026296
  25 C :   -0.038031
  26 H :    0.024005
  27 H :    0.025656
  28 C :   -0.065105
  29 H :    0.021204
  30 H :    0.019571
  31 H :    0.024599
  32 H :    0.031515
  33 H :    0.043418

  Mayer bond orders larger than 0.100000
B(  0-S ,  1-C ) :   1.1324 B(  0-S ,  4-C ) :   1.1079 B(  1-C ,  2-C ) :   1.6542
B(  1-C , 32-H ) :   0.9561 B(  2-C ,  3-C ) :   1.2342 B(  2-C ,  6-C ) :   0.9983
B(  3-C ,  4-C ) :   1.5982 B(  3-C ,  5-H ) :   0.9987 B(  4-C , 20-C ) :   1.0499
B(  6-C ,  7-H ) :   0.9411 B(  6-C ,  8-H ) :   0.9447 B(  6-C ,  9-C ) :   1.0688
B(  9-C , 10-H ) :   0.9562 B(  9-C , 11-H ) :   0.9532 B(  9-C , 12-C ) :   1.0839
B( 12-C , 13-H ) :   0.9755 B( 12-C , 14-H ) :   0.9731 B( 12-C , 15-H ) :   0.9659
B( 16-S , 17-C ) :   1.1837 B( 16-S , 20-C ) :   1.1332 B( 17-C , 18-C ) :   1.5849
B( 17-C , 33-H ) :   0.9559 B( 18-C , 19-C ) :   1.2534 B( 18-C , 21-H ) :   0.9865
B( 19-C , 20-C ) :   1.5849 B( 19-C , 22-C ) :   1.0519 B( 22-C , 23-H ) :   0.9298
B( 22-C , 24-H ) :   0.9321 B( 22-C , 25-C ) :   1.0678 B( 25-C , 26-H ) :   0.9542
B( 25-C , 27-H ) :   0.9562 B( 25-C , 28-C ) :   1.0847 B( 28-C , 29-H ) :   0.9739
B( 28-C , 30-H ) :   0.9724 B( 28-C , 31-H ) :   0.9755

Dispersion correction           -0.014324856
FINAL SINGLE POINT ENERGY     -1339.869763206440

DIPOLE MOMENT
-------------
                                X             Y             Z
Electronic contribution:      9.06003      20.97222       6.31763
Nuclear contribution   :     -9.09469     -21.47565      -6.60947
                        -----------------------------------------
Total Dipole Moment    :     -0.03466      -0.50343      -0.29184
                        -----------------------------------------
Magnitude (a.u.)       :      0.58293
Magnitude (Debye)      :      1.48170

Rotational constants in cm-1:     0.017725     0.008760     0.007261
Rotational constants in MHz :   531.374977   262.612629   217.689153

                             ****ORCA TERMINATED NORMALLY****
TOTAL RUN TIME: 0 days 0 hours 0 minutes 35 seconds 989 msec
