                         Program Version 4.2.1 -  RELEASE  -
|  1> ! wB97X-D3 SP def2-SVP
|  2> %pal
|  3> nprocs 16
|  4> end
|  5>
|  6> * xyz 0 1
|  7> S 	 -0.544457 	 -25.3462 	 61.3277
|  8> C 	 -1.46413 	 -25.123 	 62.7332
|  9> C 	 -2.7122 	 -25.8851 	 62.7367
| 10> C 	 -2.86004 	 -26.5814 	 61.5096
| 11> C 	 -1.70818 	 -26.5006 	 60.6979
| 12> H 	 -3.72339 	 -27.068 	 61.1621
| 13> C 	 -3.73576 	 -25.9589 	 63.8376
| 14> H 	 -3.37412 	 -25.2923 	 64.577
| 15> H 	 -3.82764 	 -26.9799 	 64.2005
| 16> C 	 -5.07189 	 -25.4061 	 63.2721
| 17> H 	 -4.8491 	 -24.5824 	 62.6725
| 18> H 	 -5.47804 	 -26.2604 	 62.7136
| 19> C 	 -5.96957 	 -24.7699 	 64.3051
| 20> H 	 -6.58244 	 -25.4575 	 64.9144
| 21> H 	 -5.48501 	 -24.2405 	 65.148
| 22> H 	 -6.52995 	 -24.0036 	 63.8119
| 23> S 	 -0.79741 	 -28.8521 	 59.4917
| 24> C 	 -1.14028 	 -29.0533 	 57.7873
| 25> C 	 -1.73965 	 -27.9968 	 57.2395
| 26> C 	 -2.07821 	 -26.9661 	 58.1696
| 27> C 	 -1.54723 	 -27.2175 	 59.4483
| 28> H 	 -1.9555 	 -27.973 	 56.1996
| 29> C 	 -2.96969 	 -25.7959 	 57.8009
| 30> H 	 -3.53347 	 -25.6113 	 58.6746
| 31> H 	 -3.7569 	 -26.1252 	 57.0116
| 32> C 	 -2.30967 	 -24.6244 	 57.0925
| 33> H 	 -3.17675 	 -23.9936 	 56.9879
| 34> H 	 -1.74676 	 -24.8866 	 56.1231
| 35> C 	 -1.37858 	 -23.8248 	 58.0324
| 36> H 	 -1.24354 	 -22.7865 	 57.5748
| 37> H 	 -0.505484 	 -24.362 	 58.1292
| 38> H 	 -1.73564 	 -23.5769 	 59.0549
| 39> H 	 -1.20057 	 -24.5685 	 63.6576
| 40> H 	 -1.04451 	 -30.0229 	 57.2618
| 41> *
| 42>
| 43>                          ****END OF INPUT****

CARTESIAN COORDINATES (ANGSTROEM)
---------------------------------
  S     -0.544457  -25.346200   61.327700
  C     -1.464130  -25.123000   62.733200
  C     -2.712200  -25.885100   62.736700
  C     -2.860040  -26.581400   61.509600
  C     -1.708180  -26.500600   60.697900
  H     -3.723390  -27.068000   61.162100
  C     -3.735760  -25.958900   63.837600
  H     -3.374120  -25.292300   64.577000
  H     -3.827640  -26.979900   64.200500
  C     -5.071890  -25.406100   63.272100
  H     -4.849100  -24.582400   62.672500
  H     -5.478040  -26.260400   62.713600
  C     -5.969570  -24.769900   64.305100
  H     -6.582440  -25.457500   64.914400
  H     -5.485010  -24.240500   65.148000
  H     -6.529950  -24.003600   63.811900
  S     -0.797410  -28.852100   59.491700
  C     -1.140280  -29.053300   57.787300
  C     -1.739650  -27.996800   57.239500
  C     -2.078210  -26.966100   58.169600
  C     -1.547230  -27.217500   59.448300
  H     -1.955500  -27.973000   56.199600
  C     -2.969690  -25.795900   57.800900
  H     -3.533470  -25.611300   58.674600
  H     -3.756900  -26.125200   57.011600
  C     -2.309670  -24.624400   57.092500
  H     -3.176750  -23.993600   56.987900
  H     -1.746760  -24.886600   56.123100
  C     -1.378580  -23.824800   58.032400
  H     -1.243540  -22.786500   57.574800
  H     -0.505484  -24.362000   58.129200
  H     -1.735640  -23.576900   59.054900
  H     -1.200570  -24.568500   63.657600
  H     -1.044510  -30.022900   57.261800

 Total Charge           Charge          ....    0
 Multiplicity           Mult            ....    1
 Number of Electrons    NEL             ....  134
 Basis Dimension        Dim             ....  322

ORBITAL ENERGIES
----------------

  NO   OCC          E(Eh)            E(eV)
   0   2.0000     -88.973681     -2421.0969
   1   2.0000     -88.960356     -2420.7344
   2   2.0000     -10.326361      -280.9946
   3   2.0000     -10.325340      -280.9668
   4   2.0000     -10.317610      -280.7564
   5   2.0000     -10.313221      -280.6370
   6   2.0000     -10.302944      -280.3574
   7   2.0000     -10.302593      -280.3478
   8   2.0000     -10.291975      -280.0589
   9   2.0000     -10.291897      -280.0568
  10   2.0000     -10.290154      -280.0093
  11   2.0000     -10.287870      -279.9472
  12   2.0000     -10.284114      -279.8450
  13   2.0000     -10.283747      -279.8350
  14   2.0000     -10.278250      -279.6854
  15   2.0000     -10.269505      -279.4474
  16   2.0000      -8.088076      -220.0877
  17   2.0000      -8.074731      -219.7246
  18   2.0000      -6.046371      -164.5301
  19   2.0000      -6.042470      -164.4240
  20   2.0000      -6.039249      -164.3363
  21   2.0000      -6.033254      -164.1732
  22   2.0000      -6.029432      -164.0692
  23   2.0000      -6.025346      -163.9580
  24   2.0000      -1.000993       -27.2384
  25   2.0000      -0.980827       -26.6897
  26   2.0000      -0.917507       -24.9666
  27   2.0000      -0.907164       -24.6852
  28   2.0000      -0.867336       -23.6014
  29   2.0000      -0.854740       -23.2587
  30   2.0000      -0.842383       -22.9224
  31   2.0000      -0.811527       -22.0828
  32   2.0000      -0.783190       -21.3117
  33   2.0000      -0.765339       -20.8259
  34   2.0000      -0.710433       -19.3319
  35   2.0000      -0.695082       -18.9142
  36   2.0000      -0.685773       -18.6608
  37   2.0000      -0.652079       -17.7440
  38   2.0000      -0.642670       -17.4879
  39   2.0000      -0.617347       -16.7989
  40   2.0000      -0.596872       -16.2417
  41   2.0000      -0.583417       -15.8756
  42   2.0000      -0.558710       -15.2033
  43   2.0000      -0.548406       -14.9229
  44   2.0000      -0.535783       -14.5794
  45   2.0000      -0.531985       -14.4760
  46   2.0000      -0.518549       -14.1104
  47   2.0000      -0.507933       -13.8216
  48   2.0000      -0.500854       -13.6289
  49   2.0000      -0.495910       -13.4944
  50   2.0000      -0.490093       -13.3361
  51   2.0000      -0.477604       -12.9963
  52   2.0000      -0.474687       -12.9169
  53   2.0000      -0.466527       -12.6949
  54   2.0000      -0.459051       -12.4914
  55   2.0000      -0.441225       -12.0064
  56   2.0000      -0.440906       -11.9977
  57   2.0000      -0.439270       -11.9531
  58   2.0000      -0.432832       -11.7779
  59   2.0000      -0.431813       -11.7502
  60   2.0000      -0.413733       -11.2582
  61   2.0000      -0.410906       -11.1813
  62   2.0000      -0.404056       -10.9949
  63   2.0000      -0.337705        -9.1894
  64   2.0000      -0.327549        -8.9131
  65   2.0000      -0.314401        -8.5553
  66   2.0000      -0.300437        -8.1753
  67   0.0000       0.043710         1.1894
  68   0.0000       0.050494         1.3740
  69   0.0000       0.111609         3.0370
  70   0.0000       0.119440         3.2501
  71   0.0000       0.127084         3.4581

MULLIKEN ATOMIC CHARGES
-----------------------
   0 S :    0.153699
   1 C :   -0.127222
   2 C :   -0.150463
   3 C :    0.066064
   4 C :   -0.201061
   5 H :    0.000689
   6 C :    0.123692
   7 H :   -0.007664
   8 H :    0.048548
   9 C :   -0.080144
  10 H :    0.025625
  11 H :    0.046171
  12 C :   -0.046014
  13 H :    0.028974
  14 H :    0.022099
  15 H :    0.031336
  16 S :    0.097862
  17 C :   -0.095035
  18 C :   -0.014146
  19 C :   -0.018464
  20 C :   -0.186591
  21 H :    0.004460
  22 C :    0.048464
  23 H :    0.016097
  24 H :    0.032229
  25 C :   -0.059823
  26 H :    0.028210
  27 H :    0.055714
  28 C :   -0.064377
  29 H :    0.036370
  30 H :    0.024725
  31 H :    0.034461
  32 H :    0.057938
  33 H :    0.067579
Sum of atomic charges:   -0.0000000

LOEWDIN ATOMIC CHARGES
----------------------
   0 S :    0.454896
   1 C :   -0.239373
   2 C :   -0.057767
   3 C :   -0.047807
   4 C :   -0.209333
   5 H :    0.023618
   6 C :   -0.024578
   7 H :    0.020258
   8 H :    0.034247
   9 C :   -0.035558
  10 H :    0.022427
  11 H :    0.029460
  12 C :   -0.070673
  13 H :    0.025846
  14 H :    0.028529
  15 H :    0.024760
  16 S :    0.379027
  17 C :   -0.181234
  18 C :   -0.075505
  19 C :   -0.047344
  20 C :   -0.198609
  21 H :    0.027654
  22 C :   -0.035576
  23 H :    0.025142
  24 H :    0.040209
  25 C :   -0.042330
  26 H :    0.025428
  27 H :    0.039022
  28 C :   -0.071463
  29 H :    0.032317
  30 H :    0.008478
  31 H :    0.023969
  32 H :    0.034075
  33 H :    0.037787

  Mayer bond orders larger than 0.100000
B(  0-S ,  1-C ) :   1.1770 B(  0-S ,  4-C ) :   1.1690 B(  1-C ,  2-C ) :   1.5493
B(  1-C ,  4-C ) :   0.1092 B(  1-C , 32-H ) :   0.9584 B(  2-C ,  3-C ) :   1.2767
B(  2-C ,  6-C ) :   1.0391 B(  3-C ,  4-C ) :   1.5381 B(  3-C ,  5-H ) :   0.9973
B(  4-C , 20-C ) :   1.0415 B(  6-C ,  7-H ) :   0.9288 B(  6-C ,  8-H ) :   0.9393
B(  6-C ,  9-C ) :   1.0621 B(  9-C , 10-H ) :   0.9625 B(  9-C , 11-H ) :   0.9531
B(  9-C , 12-C ) :   1.0820 B( 12-C , 13-H ) :   0.9711 B( 12-C , 14-H ) :   0.9722
B( 12-C , 15-H ) :   0.9805 B( 16-S , 17-C ) :   1.1445 B( 16-S , 20-C ) :   1.1239
B( 17-C , 18-C ) :   1.6462 B( 17-C , 33-H ) :   0.9572 B( 18-C , 19-C ) :   1.2225
B( 18-C , 21-H ) :   0.9925 B( 19-C , 20-C ) :   1.6045 B( 19-C , 22-C ) :   1.0356
B( 22-C , 23-H ) :   0.9293 B( 22-C , 24-H ) :   0.9395 B( 22-C , 25-C ) :   1.0709
B( 25-C , 26-H ) :   0.9533 B( 25-C , 27-H ) :   0.9539 B( 25-C , 28-C ) :   1.0714
B( 28-C , 29-H ) :   0.9742 B( 28-C , 30-H ) :   0.9788 B( 28-C , 31-H ) :   0.9728

Dispersion correction           -0.015252545
FINAL SINGLE POINT ENERGY     -1339.851655740731

DIPOLE MOMENT
-------------
                                X             Y             Z
Electronic contribution:     18.81399     -14.87430      -3.05440
Nuclear contribution   :    -19.46533      15.06154       3.04272
                        -----------------------------------------
Total Dipole Moment    :     -0.65134       0.18723      -0.01168
                        -----------------------------------------
Magnitude (a.u.)       :      0.67782
Magnitude (Debye)      :      1.72289

Rotational constants in cm-1:     0.019478     0.008203     0.007543
Rotational constants in MHz :   583.934211   245.914885   226.136842

                             ****ORCA TERMINATED NORMALLY****
TOTAL RUN TIME: 0 days 0 hours 0 minutes 38 seconds 139 msec
