                         Program Version 4.2.1 -  RELEASE  -
|  1> ! wB97X-D3 SP def2-SVP
|  2> %pal
|  3> nprocs 16
|  4> end
|  5>
|  6> * xyz 0 1
|  7> S 	 4.10677 	 78.6309 	 43.6934
|  8> C 	 2.64077 	 77.796 	 44.2941
|  9> C 	 3.07455 	 76.5873 	 44.8877
| 10> C 	 4.45488 	 76.2873 	 44.7097
| 11> C 	 5.16706 	 77.286 	 44.1405
| 12> H 	 5.0221 	 75.4609 	 45.1976
| 13> C 	 2.29143 	 75.5387 	 45.5119
| 14> H 	 1.2631 	 75.7883 	 45.6954
| 15> H 	 2.69964 	 75.5104 	 46.5146
| 16> C 	 2.30916 	 74.0889 	 44.926
| 17> H 	 1.92167 	 74.0312 	 43.9124
| 18> H 	 3.24518 	 73.5991 	 45.0558
| 19> C 	 1.28883 	 73.239 	 45.7149
| 20> H 	 1.16133 	 72.2731 	 45.3141
| 21> H 	 1.53858 	 73.1839 	 46.7632
| 22> H 	 0.369022 	 73.7671 	 45.5883
| 23> S 	 7.77995 	 77.1872 	 43.1444
| 24> C 	 9.02143 	 77.5319 	 44.3616
| 25> C 	 8.58108 	 78.233 	 45.4794
| 26> C 	 7.14354 	 78.0782 	 45.5287
| 27> C 	 6.57778 	 77.5189 	 44.3693
| 28> H 	 9.2303 	 78.4868 	 46.2418
| 29> C 	 6.35648 	 78.4384 	 46.8316
| 30> H 	 6.85022 	 78.1997 	 47.7352
| 31> H 	 5.46357 	 77.7712 	 46.8727
| 32> C 	 5.79361 	 79.9099 	 46.8115
| 33> H 	 4.87128 	 79.8597 	 47.4719
| 34> H 	 5.48369 	 80.2161 	 45.7897
| 35> C 	 6.72683 	 80.9024 	 47.4681
| 36> H 	 7.65864 	 80.909 	 47.0253
| 37> H 	 6.84844 	 80.742 	 48.5125
| 38> H 	 6.25016 	 81.8484 	 47.4545
| 39> H 	 1.6657 	 78.2044 	 44.4828
| 40> H 	 10.068 	 77.4226 	 44.0238
| 41> *
| 42>
| 43>                          ****END OF INPUT****

CARTESIAN COORDINATES (ANGSTROEM)
---------------------------------
  S      4.106770   78.630900   43.693400
  C      2.640770   77.796000   44.294100
  C      3.074550   76.587300   44.887700
  C      4.454880   76.287300   44.709700
  C      5.167060   77.286000   44.140500
  H      5.022100   75.460900   45.197600
  C      2.291430   75.538700   45.511900
  H      1.263100   75.788300   45.695400
  H      2.699640   75.510400   46.514600
  C      2.309160   74.088900   44.926000
  H      1.921670   74.031200   43.912400
  H      3.245180   73.599100   45.055800
  C      1.288830   73.239000   45.714900
  H      1.161330   72.273100   45.314100
  H      1.538580   73.183900   46.763200
  H      0.369022   73.767100   45.588300
  S      7.779950   77.187200   43.144400
  C      9.021430   77.531900   44.361600
  C      8.581080   78.233000   45.479400
  C      7.143540   78.078200   45.528700
  C      6.577780   77.518900   44.369300
  H      9.230300   78.486800   46.241800
  C      6.356480   78.438400   46.831600
  H      6.850220   78.199700   47.735200
  H      5.463570   77.771200   46.872700
  C      5.793610   79.909900   46.811500
  H      4.871280   79.859700   47.471900
  H      5.483690   80.216100   45.789700
  C      6.726830   80.902400   47.468100
  H      7.658640   80.909000   47.025300
  H      6.848440   80.742000   48.512500
  H      6.250160   81.848400   47.454500
  H      1.665700   78.204400   44.482800
  H     10.068000   77.422600   44.023800

 Total Charge           Charge          ....    0
 Multiplicity           Mult            ....    1
 Number of Electrons    NEL             ....  134
 Basis Dimension        Dim             ....  322

ORBITAL ENERGIES
----------------

  NO   OCC          E(Eh)            E(eV)
   0   2.0000     -88.966226     -2420.8941
   1   2.0000     -88.964118     -2420.8367
   2   2.0000     -10.323681      -280.9217
   3   2.0000     -10.323467      -280.9158
   4   2.0000     -10.323001      -280.9031
   5   2.0000     -10.320282      -280.8292
   6   2.0000     -10.309865      -280.5457
   7   2.0000     -10.300970      -280.3037
   8   2.0000     -10.295630      -280.1583
   9   2.0000     -10.291884      -280.0564
  10   2.0000     -10.290074      -280.0071
  11   2.0000     -10.286371      -279.9064
  12   2.0000     -10.286355      -279.9059
  13   2.0000     -10.286144      -279.9002
  14   2.0000     -10.270265      -279.4681
  15   2.0000     -10.259456      -279.1740
  16   2.0000      -8.080921      -219.8930
  17   2.0000      -8.077508      -219.8002
  18   2.0000      -6.039267      -164.3368
  19   2.0000      -6.036178      -164.2528
  20   2.0000      -6.035661      -164.2387
  21   2.0000      -6.032149      -164.1431
  22   2.0000      -6.031623      -164.1288
  23   2.0000      -6.028187      -164.0353
  24   2.0000      -1.003239       -27.2995
  25   2.0000      -0.979238       -26.6464
  26   2.0000      -0.915787       -24.9198
  27   2.0000      -0.898629       -24.4530
  28   2.0000      -0.870313       -23.6824
  29   2.0000      -0.850740       -23.1498
  30   2.0000      -0.848284       -23.0830
  31   2.0000      -0.814906       -22.1747
  32   2.0000      -0.781924       -21.2772
  33   2.0000      -0.766437       -20.8558
  34   2.0000      -0.707352       -19.2480
  35   2.0000      -0.698632       -19.0107
  36   2.0000      -0.685832       -18.6624
  37   2.0000      -0.664446       -18.0805
  38   2.0000      -0.641748       -17.4629
  39   2.0000      -0.620729       -16.8909
  40   2.0000      -0.597055       -16.2467
  41   2.0000      -0.573460       -15.6046
  42   2.0000      -0.567535       -15.4434
  43   2.0000      -0.548257       -14.9188
  44   2.0000      -0.535158       -14.5624
  45   2.0000      -0.526601       -14.3295
  46   2.0000      -0.521320       -14.1858
  47   2.0000      -0.510686       -13.8965
  48   2.0000      -0.506823       -13.7914
  49   2.0000      -0.494716       -13.4619
  50   2.0000      -0.492480       -13.4011
  51   2.0000      -0.474848       -12.9213
  52   2.0000      -0.467937       -12.7332
  53   2.0000      -0.462279       -12.5793
  54   2.0000      -0.456930       -12.4337
  55   2.0000      -0.451896       -12.2967
  56   2.0000      -0.444690       -12.1006
  57   2.0000      -0.439531       -11.9603
  58   2.0000      -0.430766       -11.7217
  59   2.0000      -0.427054       -11.6207
  60   2.0000      -0.417240       -11.3537
  61   2.0000      -0.414200       -11.2709
  62   2.0000      -0.403277       -10.9737
  63   2.0000      -0.336193        -9.1483
  64   2.0000      -0.332424        -9.0457
  65   2.0000      -0.314802        -8.5662
  66   2.0000      -0.305004        -8.2996
  67   0.0000       0.039479         1.0743
  68   0.0000       0.046250         1.2585
  69   0.0000       0.106604         2.9008
  70   0.0000       0.115598         3.1456
  71   0.0000       0.124372         3.3843

MULLIKEN ATOMIC CHARGES
-----------------------
   0 S :    0.087137
   1 C :   -0.087675
   2 C :   -0.094538
   3 C :    0.007478
   4 C :   -0.115919
   5 H :    0.039100
   6 C :    0.048346
   7 H :   -0.004027
   8 H :    0.022559
   9 C :   -0.052022
  10 H :    0.038935
  11 H :    0.029019
  12 C :   -0.035545
  13 H :    0.026441
  14 H :    0.025671
  15 H :    0.017341
  16 S :    0.108459
  17 C :   -0.118248
  18 C :    0.023932
  19 C :   -0.052049
  20 C :   -0.180163
  21 H :    0.008571
  22 C :    0.073426
  23 H :    0.012095
  24 H :    0.023274
  25 C :   -0.102703
  26 H :    0.029636
  27 H :    0.042497
  28 C :    0.015748
  29 H :    0.015673
  30 H :    0.009917
  31 H :    0.021209
  32 H :    0.049722
  33 H :    0.066704
Sum of atomic charges:   -0.0000000

LOEWDIN ATOMIC CHARGES
----------------------
   0 S :    0.389055
   1 C :   -0.190931
   2 C :   -0.063644
   3 C :   -0.058398
   4 C :   -0.189103
   5 H :    0.043313
   6 C :   -0.040505
   7 H :    0.022417
   8 H :    0.036984
   9 C :   -0.025721
  10 H :    0.028558
  11 H :    0.017870
  12 C :   -0.055636
  13 H :    0.019786
  14 H :    0.021088
  15 H :    0.019913
  16 S :    0.396931
  17 C :   -0.166683
  18 C :   -0.061836
  19 C :   -0.038002
  20 C :   -0.218802
  21 H :    0.023062
  22 C :   -0.031498
  23 H :    0.020386
  24 H :    0.034745
  25 C :   -0.037463
  26 H :    0.028353
  27 H :    0.020399
  28 C :   -0.059273
  29 H :    0.013085
  30 H :    0.020543
  31 H :    0.024978
  32 H :    0.030012
  33 H :    0.026017

  Mayer bond orders larger than 0.100000
B(  0-S ,  1-C ) :   1.1170 B(  0-S ,  4-C ) :   1.1425 B(  1-C ,  2-C ) :   1.6083
B(  1-C , 32-H ) :   0.9690 B(  2-C ,  3-C ) :   1.2111 B(  2-C ,  6-C ) :   1.0491
B(  3-C ,  4-C ) :   1.6116 B(  3-C ,  5-H ) :   0.9860 B(  4-C , 20-C ) :   1.0117
B(  6-C ,  7-H ) :   0.9444 B(  6-C ,  8-H ) :   0.9182 B(  6-C ,  9-C ) :   1.0667
B(  9-C , 10-H ) :   0.9595 B(  9-C , 11-H ) :   0.9511 B(  9-C , 12-C ) :   1.0828
B( 12-C , 13-H ) :   0.9738 B( 12-C , 14-H ) :   0.9771 B( 12-C , 15-H ) :   0.9765
B( 16-S , 17-C ) :   1.1716 B( 16-S , 20-C ) :   1.1249 B( 17-C , 18-C ) :   1.6113
B( 17-C , 33-H ) :   0.9620 B( 18-C , 19-C ) :   1.2261 B( 18-C , 21-H ) :   0.9954
B( 19-C , 20-C ) :   1.6165 B( 19-C , 22-C ) :   1.0362 B( 22-C , 23-H ) :   0.9455
B( 22-C , 24-H ) :   0.9356 B( 22-C , 25-C ) :   1.0537 B( 25-C , 26-H ) :   0.9578
B( 25-C , 27-H ) :   0.9533 B( 25-C , 28-C ) :   1.0870 B( 28-C , 29-H ) :   0.9743
B( 28-C , 30-H ) :   0.9705 B( 28-C , 31-H ) :   0.9689

Dispersion correction           -0.015124470
FINAL SINGLE POINT ENERGY     -1339.848410558621

DIPOLE MOMENT
-------------
                                X             Y             Z
Electronic contribution:     12.43570       5.38431     -19.17869
Nuclear contribution   :    -12.57433      -5.63448      19.94596
                        -----------------------------------------
Total Dipole Moment    :     -0.13863      -0.25017       0.76727
                        -----------------------------------------
Magnitude (a.u.)       :      0.81884
Magnitude (Debye)      :      2.08134

Rotational constants in cm-1:     0.019301     0.008226     0.007216
Rotational constants in MHz :   578.635874   246.610342   216.344751

                             ****ORCA TERMINATED NORMALLY****
TOTAL RUN TIME: 0 days 0 hours 0 minutes 33 seconds 470 msec
