                         Program Version 4.2.1 -  RELEASE  -
|  1> ! wB97X-D3 SP def2-SVP
|  2> %pal
|  3> nprocs 16
|  4> end
|  5>
|  6> * xyz 0 1
|  7> S 	 -16.5627 	 31.4277 	 38.0244
|  8> C 	 -16.913 	 32.9352 	 38.8761
|  9> C 	 -17.5885 	 33.7823 	 37.9837
| 10> C 	 -17.7804 	 33.206 	 36.6639
| 11> C 	 -17.247 	 31.9387 	 36.4946
| 12> H 	 -18.1799 	 33.7054 	 35.7988
| 13> C 	 -18.183 	 35.1125 	 38.3939
| 14> H 	 -17.5379 	 35.4474 	 39.2462
| 15> H 	 -19.1929 	 35.0489 	 38.7302
| 16> C 	 -18.1486 	 36.2532 	 37.3438
| 17> H 	 -17.1036 	 36.3949 	 37.146
| 18> H 	 -18.6679 	 35.8699 	 36.4511
| 19> C 	 -18.7515 	 37.5341 	 38.0178
| 20> H 	 -18.8379 	 38.3266 	 37.2912
| 21> H 	 -19.7448 	 37.4015 	 38.484
| 22> H 	 -18.0697 	 37.9582 	 38.7392
| 23> S 	 -17.9115 	 29.5948 	 35.3771
| 24> C 	 -17.4856 	 29.2113 	 33.6934
| 25> C 	 -16.8122 	 30.2368 	 33.1401
| 26> C 	 -16.6737 	 31.3682 	 34.0357
| 27> C 	 -17.1844 	 31.1528 	 35.271
| 28> H 	 -16.4197 	 30.0293 	 32.1529
| 29> C 	 -16.0535 	 32.6049 	 33.654
| 30> H 	 -15.0083 	 32.3672 	 33.4
| 31> H 	 -16.0125 	 33.3039 	 34.4749
| 32> C 	 -16.52 	 33.3101 	 32.4039
| 33> H 	 -16.4634 	 32.6816 	 31.4952
| 34> H 	 -15.9207 	 34.2067 	 32.2604
| 35> C 	 -17.9169 	 33.9297 	 32.5635
| 36> H 	 -18.3274 	 34.2486 	 31.6226
| 37> H 	 -17.7791 	 34.7873 	 33.2346
| 38> H 	 -18.6158 	 33.1411 	 32.8206
| 39> H 	 -16.8798 	 33.1466 	 39.9298
| 40> H 	 -17.8233 	 28.3209 	 33.1374
| 41> *
| 42>
| 43>                          ****END OF INPUT****

CARTESIAN COORDINATES (ANGSTROEM)
---------------------------------
  S    -16.562700   31.427700   38.024400
  C    -16.913000   32.935200   38.876100
  C    -17.588500   33.782300   37.983700
  C    -17.780400   33.206000   36.663900
  C    -17.247000   31.938700   36.494600
  H    -18.179900   33.705400   35.798800
  C    -18.183000   35.112500   38.393900
  H    -17.537900   35.447400   39.246200
  H    -19.192900   35.048900   38.730200
  C    -18.148600   36.253200   37.343800
  H    -17.103600   36.394900   37.146000
  H    -18.667900   35.869900   36.451100
  C    -18.751500   37.534100   38.017800
  H    -18.837900   38.326600   37.291200
  H    -19.744800   37.401500   38.484000
  H    -18.069700   37.958200   38.739200
  S    -17.911500   29.594800   35.377100
  C    -17.485600   29.211300   33.693400
  C    -16.812200   30.236800   33.140100
  C    -16.673700   31.368200   34.035700
  C    -17.184400   31.152800   35.271000
  H    -16.419700   30.029300   32.152900
  C    -16.053500   32.604900   33.654000
  H    -15.008300   32.367200   33.400000
  H    -16.012500   33.303900   34.474900
  C    -16.520000   33.310100   32.403900
  H    -16.463400   32.681600   31.495200
  H    -15.920700   34.206700   32.260400
  C    -17.916900   33.929700   32.563500
  H    -18.327400   34.248600   31.622600
  H    -17.779100   34.787300   33.234600
  H    -18.615800   33.141100   32.820600
  H    -16.879800   33.146600   39.929800
  H    -17.823300   28.320900   33.137400

 Total Charge           Charge          ....    0
 Multiplicity           Mult            ....    1
 Number of Electrons    NEL             ....  134
 Basis Dimension        Dim             ....  322

ORBITAL ENERGIES
----------------

  NO   OCC          E(Eh)            E(eV)
   0   2.0000     -88.965850     -2420.8839
   1   2.0000     -88.959332     -2420.7065
   2   2.0000     -10.332174      -281.1527
   3   2.0000     -10.322443      -280.8879
   4   2.0000     -10.319441      -280.8063
   5   2.0000     -10.317471      -280.7527
   6   2.0000     -10.304774      -280.4072
   7   2.0000     -10.300545      -280.2921
   8   2.0000     -10.294713      -280.1334
   9   2.0000     -10.294651      -280.1317
  10   2.0000     -10.290756      -280.0257
  11   2.0000     -10.289545      -279.9928
  12   2.0000     -10.284792      -279.8634
  13   2.0000     -10.282555      -279.8026
  14   2.0000     -10.280980      -279.7597
  15   2.0000     -10.273435      -279.5544
  16   2.0000      -8.079962      -219.8670
  17   2.0000      -8.074770      -219.7257
  18   2.0000      -6.038664      -164.3204
  19   2.0000      -6.034328      -164.2024
  20   2.0000      -6.033384      -164.1767
  21   2.0000      -6.030752      -164.1051
  22   2.0000      -6.029168      -164.0620
  23   2.0000      -6.025353      -163.9582
  24   2.0000      -1.011433       -27.5225
  25   2.0000      -0.983534       -26.7633
  26   2.0000      -0.919168       -25.0118
  27   2.0000      -0.909803       -24.7570
  28   2.0000      -0.875451       -23.8222
  29   2.0000      -0.851498       -23.1704
  30   2.0000      -0.840317       -22.8662
  31   2.0000      -0.822894       -22.3921
  32   2.0000      -0.780538       -21.2395
  33   2.0000      -0.772604       -21.0236
  34   2.0000      -0.715279       -19.4637
  35   2.0000      -0.695748       -18.9323
  36   2.0000      -0.693859       -18.8809
  37   2.0000      -0.658638       -17.9224
  38   2.0000      -0.641678       -17.4609
  39   2.0000      -0.619847       -16.8669
  40   2.0000      -0.601297       -16.3621
  41   2.0000      -0.578032       -15.7291
  42   2.0000      -0.567760       -15.4495
  43   2.0000      -0.554433       -15.0869
  44   2.0000      -0.553308       -15.0563
  45   2.0000      -0.528707       -14.3869
  46   2.0000      -0.516443       -14.0531
  47   2.0000      -0.514853       -14.0099
  48   2.0000      -0.504501       -13.7282
  49   2.0000      -0.498970       -13.5777
  50   2.0000      -0.491889       -13.3850
  51   2.0000      -0.479790       -13.0558
  52   2.0000      -0.471710       -12.8359
  53   2.0000      -0.469503       -12.7758
  54   2.0000      -0.463699       -12.6179
  55   2.0000      -0.443337       -12.0638
  56   2.0000      -0.438427       -11.9302
  57   2.0000      -0.434941       -11.8353
  58   2.0000      -0.433090       -11.7850
  59   2.0000      -0.426393       -11.6027
  60   2.0000      -0.422678       -11.5017
  61   2.0000      -0.412125       -11.2145
  62   2.0000      -0.409769       -11.1504
  63   2.0000      -0.349086        -9.4991
  64   2.0000      -0.327398        -8.9090
  65   2.0000      -0.324818        -8.8388
  66   2.0000      -0.300748        -8.1838
  67   0.0000       0.035275         0.9599
  68   0.0000       0.068377         1.8606
  69   0.0000       0.117250         3.1905
  70   0.0000       0.121915         3.3175
  71   0.0000       0.126891         3.4529

MULLIKEN ATOMIC CHARGES
-----------------------
   0 S :    0.112627
   1 C :   -0.103879
   2 C :   -0.092968
   3 C :    0.041497
   4 C :   -0.146823
   5 H :    0.003314
   6 C :    0.030168
   7 H :    0.022378
   8 H :    0.037148
   9 C :   -0.096819
  10 H :    0.029923
  11 H :    0.045864
  12 C :   -0.039206
  13 H :    0.026545
  14 H :    0.039239
  15 H :    0.029728
  16 S :    0.089074
  17 C :   -0.101986
  18 C :   -0.032868
  19 C :   -0.006369
  20 C :   -0.161240
  21 H :    0.022807
  22 C :    0.075855
  23 H :    0.030391
  24 H :    0.015245
  25 C :   -0.093856
  26 H :    0.031495
  27 H :    0.026345
  28 C :   -0.050536
  29 H :    0.021792
  30 H :    0.038812
  31 H :    0.038179
  32 H :    0.050079
  33 H :    0.068043
Sum of atomic charges:   -0.0000000

LOEWDIN ATOMIC CHARGES
----------------------
   0 S :    0.404722
   1 C :   -0.197601
   2 C :   -0.062727
   3 C :   -0.067819
   4 C :   -0.193838
   5 H :    0.026430
   6 C :   -0.036454
   7 H :    0.032358
   8 H :    0.025670
   9 C :   -0.035775
  10 H :    0.023334
  11 H :    0.023189
  12 C :   -0.064397
  13 H :    0.023896
  14 H :    0.028777
  15 H :    0.026229
  16 S :    0.395561
  17 C :   -0.170209
  18 C :   -0.072871
  19 C :   -0.056172
  20 C :   -0.204315
  21 H :    0.035971
  22 C :   -0.039141
  23 H :    0.041246
  24 H :    0.029538
  25 C :   -0.039233
  26 H :    0.021861
  27 H :    0.025929
  28 C :   -0.068934
  29 H :    0.022606
  30 H :    0.027061
  31 H :    0.025072
  32 H :    0.032000
  33 H :    0.038035

  Mayer bond orders larger than 0.100000
B(  0-S ,  1-C ) :   1.1319 B(  0-S ,  4-C ) :   1.1564 B(  1-C ,  2-C ) :   1.6057
B(  1-C ,  4-C ) :   0.1007 B(  1-C , 32-H ) :   0.9699 B(  2-C ,  3-C ) :   1.2322
B(  2-C ,  6-C ) :   1.0196 B(  3-C ,  4-C ) :   1.5742 B(  3-C ,  5-H ) :   0.9940
B(  4-C , 20-C ) :   1.0125 B(  6-C ,  7-H ) :   0.9473 B(  6-C ,  8-H ) :   0.9425
B(  6-C ,  9-C ) :   1.0597 B(  9-C , 10-H ) :   0.9604 B(  9-C , 11-H ) :   0.9545
B(  9-C , 12-C ) :   1.0796 B( 12-C , 13-H ) :   0.9739 B( 12-C , 14-H ) :   0.9760
B( 12-C , 15-H ) :   0.9740 B( 16-S , 17-C ) :   1.1363 B( 16-S , 20-C ) :   1.1297
B( 17-C , 18-C ) :   1.6621 B( 17-C , 33-H ) :   0.9625 B( 18-C , 19-C ) :   1.1644
B( 18-C , 21-H ) :   0.9944 B( 19-C , 20-C ) :   1.6337 B( 19-C , 22-C ) :   1.0865
B( 22-C , 23-H ) :   0.9079 B( 22-C , 24-H ) :   0.9292 B( 22-C , 25-C ) :   1.0802
B( 25-C , 26-H ) :   0.9542 B( 25-C , 27-H ) :   0.9559 B( 25-C , 28-C ) :   1.0758
B( 28-C , 29-H ) :   0.9709 B( 28-C , 30-H ) :   0.9740 B( 28-C , 31-H ) :   0.9745

Dispersion correction           -0.014537027
FINAL SINGLE POINT ENERGY     -1339.879233798783

DIPOLE MOMENT
-------------
                                X             Y             Z
Electronic contribution:      3.89560     -29.30286       8.29387
Nuclear contribution   :     -3.93329      29.88929      -8.73311
                        -----------------------------------------
Total Dipole Moment    :     -0.03768       0.58643      -0.43923
                        -----------------------------------------
Magnitude (a.u.)       :      0.73365
Magnitude (Debye)      :      1.86480

Rotational constants in cm-1:     0.018814     0.009078     0.006688
Rotational constants in MHz :   564.041452   272.147995   200.492182

                             ****ORCA TERMINATED NORMALLY****
TOTAL RUN TIME: 0 days 0 hours 0 minutes 34 seconds 763 msec
