                         Program Version 4.2.1 -  RELEASE  -
|  1> ! wB97X-D3 SP def2-SVP
|  2> %pal
|  3> nprocs 16
|  4> end
|  5>
|  6> * xyz 0 1
|  7> S 	 46.951 	 14.2368 	 76.007
|  8> C 	 45.993 	 13.3259 	 77.1911
|  9> C 	 45.6311 	 14.0741 	 78.2586
| 10> C 	 46.084 	 15.4412 	 78.1042
| 11> C 	 46.7849 	 15.6868 	 76.897
| 12> H 	 45.8808 	 16.1848 	 78.883
| 13> C 	 44.5567 	 13.6011 	 79.2825
| 14> H 	 44.4112 	 14.4453 	 80.0259
| 15> H 	 45.0867 	 12.9282 	 79.8469
| 16> C 	 43.1523 	 13.1229 	 78.7837
| 17> H 	 42.6261 	 14.0568 	 78.4446
| 18> H 	 43.2039 	 12.379 	 77.8938
| 19> C 	 42.2324 	 12.6354 	 79.86
| 20> H 	 42.1369 	 13.3772 	 80.6837
| 21> H 	 41.2149 	 12.569 	 79.477
| 22> H 	 42.6832 	 11.6958 	 80.2065
| 23> S 	 48.9066 	 17.0678 	 75.7374
| 24> C 	 48.7084 	 18.7018 	 75.2529
| 25> C 	 47.674 	 19.3071 	 76.005
| 26> C 	 46.9208 	 18.3143 	 76.7119
| 27> C 	 47.3578 	 16.9764 	 76.6094
| 28> H 	 47.456 	 20.3983 	 76.0129
| 29> C 	 45.5865 	 18.7343 	 77.437
| 30> H 	 44.8502 	 18.0121 	 77.3932
| 31> H 	 45.2309 	 19.5823 	 76.8154
| 32> C 	 45.765 	 19.2011 	 78.8786
| 33> H 	 46.4433 	 18.5254 	 79.4058
| 34> H 	 44.7635 	 19.3669 	 79.3489
| 35> C 	 46.3471 	 20.5993 	 79.0364
| 36> H 	 45.908 	 21.1818 	 78.2178
| 37> H 	 47.4508 	 20.6662 	 78.9173
| 38> H 	 46.0222 	 21.0693 	 79.9682
| 39> H 	 45.5351 	 12.402 	 76.9473
| 40> H 	 49.4357 	 19.3745 	 74.7449
| 41> *
| 42>
| 43>                          ****END OF INPUT****

CARTESIAN COORDINATES (ANGSTROEM)
---------------------------------
  S     46.951000   14.236800   76.007000
  C     45.993000   13.325900   77.191100
  C     45.631100   14.074100   78.258600
  C     46.084000   15.441200   78.104200
  C     46.784900   15.686800   76.897000
  H     45.880800   16.184800   78.883000
  C     44.556700   13.601100   79.282500
  H     44.411200   14.445300   80.025900
  H     45.086700   12.928200   79.846900
  C     43.152300   13.122900   78.783700
  H     42.626100   14.056800   78.444600
  H     43.203900   12.379000   77.893800
  C     42.232400   12.635400   79.860000
  H     42.136900   13.377200   80.683700
  H     41.214900   12.569000   79.477000
  H     42.683200   11.695800   80.206500
  S     48.906600   17.067800   75.737400
  C     48.708400   18.701800   75.252900
  C     47.674000   19.307100   76.005000
  C     46.920800   18.314300   76.711900
  C     47.357800   16.976400   76.609400
  H     47.456000   20.398300   76.012900
  C     45.586500   18.734300   77.437000
  H     44.850200   18.012100   77.393200
  H     45.230900   19.582300   76.815400
  C     45.765000   19.201100   78.878600
  H     46.443300   18.525400   79.405800
  H     44.763500   19.366900   79.348900
  C     46.347100   20.599300   79.036400
  H     45.908000   21.181800   78.217800
  H     47.450800   20.666200   78.917300
  H     46.022200   21.069300   79.968200
  H     45.535100   12.402000   76.947300
  H     49.435700   19.374500   74.744900

 Total Charge           Charge          ....    0
 Multiplicity           Mult            ....    1
 Number of Electrons    NEL             ....  134
 Basis Dimension        Dim             ....  322

ORBITAL ENERGIES
----------------

  NO   OCC          E(Eh)            E(eV)
   0   2.0000     -88.970976     -2421.0233
   1   2.0000     -88.965336     -2420.8699
   2   2.0000     -10.334840      -281.2253
   3   2.0000     -10.332664      -281.1661
   4   2.0000     -10.322554      -280.8910
   5   2.0000     -10.311046      -280.5778
   6   2.0000     -10.309297      -280.5302
   7   2.0000     -10.303237      -280.3653
   8   2.0000     -10.302070      -280.3336
   9   2.0000     -10.301582      -280.3203
  10   2.0000     -10.299669      -280.2682
  11   2.0000     -10.298189      -280.2280
  12   2.0000     -10.287759      -279.9441
  13   2.0000     -10.287488      -279.9368
  14   2.0000     -10.284228      -279.8481
  15   2.0000     -10.277431      -279.6631
  16   2.0000      -8.085763      -220.0248
  17   2.0000      -8.080134      -219.8716
  18   2.0000      -6.044353      -164.4752
  19   2.0000      -6.040220      -164.3627
  20   2.0000      -6.038689      -164.3211
  21   2.0000      -6.036449      -164.2601
  22   2.0000      -6.034515      -164.2075
  23   2.0000      -6.030936      -164.1101
  24   2.0000      -1.006897       -27.3991
  25   2.0000      -0.983849       -26.7719
  26   2.0000      -0.911733       -24.8095
  27   2.0000      -0.908615       -24.7247
  28   2.0000      -0.874656       -23.8006
  29   2.0000      -0.851943       -23.1826
  30   2.0000      -0.842865       -22.9355
  31   2.0000      -0.809815       -22.0362
  32   2.0000      -0.785492       -21.3743
  33   2.0000      -0.775164       -21.0933
  34   2.0000      -0.707319       -19.2471
  35   2.0000      -0.695333       -18.9210
  36   2.0000      -0.685301       -18.6480
  37   2.0000      -0.661071       -17.9886
  38   2.0000      -0.636272       -17.3138
  39   2.0000      -0.616213       -16.7680
  40   2.0000      -0.592383       -16.1196
  41   2.0000      -0.572664       -15.5830
  42   2.0000      -0.568018       -15.4566
  43   2.0000      -0.553064       -15.0496
  44   2.0000      -0.546619       -14.8743
  45   2.0000      -0.534389       -14.5415
  46   2.0000      -0.520260       -14.1570
  47   2.0000      -0.510858       -13.9011
  48   2.0000      -0.508730       -13.8432
  49   2.0000      -0.495440       -13.4816
  50   2.0000      -0.491629       -13.3779
  51   2.0000      -0.472680       -12.8623
  52   2.0000      -0.469285       -12.7699
  53   2.0000      -0.464933       -12.6515
  54   2.0000      -0.461201       -12.5499
  55   2.0000      -0.452818       -12.3218
  56   2.0000      -0.444321       -12.0906
  57   2.0000      -0.434572       -11.8253
  58   2.0000      -0.430827       -11.7234
  59   2.0000      -0.423526       -11.5247
  60   2.0000      -0.417018       -11.3476
  61   2.0000      -0.413480       -11.2513
  62   2.0000      -0.404706       -11.0126
  63   2.0000      -0.355988        -9.6869
  64   2.0000      -0.334458        -9.1011
  65   2.0000      -0.328249        -8.9321
  66   2.0000      -0.285380        -7.7656
  67   0.0000       0.017879         0.4865
  68   0.0000       0.073817         2.0087
  69   0.0000       0.107612         2.9283
  70   0.0000       0.114747         3.1224
  71   0.0000       0.133752         3.6396

MULLIKEN ATOMIC CHARGES
-----------------------
   0 S :    0.123844
   1 C :   -0.132932
   2 C :   -0.059623
   3 C :   -0.017466
   4 C :   -0.108337
   5 H :    0.013710
   6 C :    0.081150
   7 H :    0.019046
   8 H :    0.012418
   9 C :   -0.105521
  10 H :    0.036234
  11 H :    0.048457
  12 C :   -0.045936
  13 H :    0.031809
  14 H :    0.042632
  15 H :    0.038008
  16 S :    0.101273
  17 C :   -0.098656
  18 C :   -0.058170
  19 C :   -0.067713
  20 C :   -0.143009
  21 H :    0.040511
  22 C :    0.073393
  23 H :    0.011370
  24 H :    0.020675
  25 C :   -0.077946
  26 H :    0.043485
  27 H :    0.037506
  28 C :   -0.071770
  29 H :    0.012130
  30 H :    0.045061
  31 H :    0.038420
  32 H :    0.039476
  33 H :    0.076470
Sum of atomic charges:   -0.0000000

LOEWDIN ATOMIC CHARGES
----------------------
   0 S :    0.420315
   1 C :   -0.182071
   2 C :   -0.060691
   3 C :   -0.063160
   4 C :   -0.208868
   5 H :    0.030055
   6 C :   -0.030277
   7 H :    0.035529
   8 H :    0.017475
   9 C :   -0.049701
  10 H :    0.030907
  11 H :    0.031142
  12 C :   -0.067137
  13 H :    0.028325
  14 H :    0.030608
  15 H :    0.026200
  16 S :    0.408237
  17 C :   -0.205790
  18 C :   -0.081760
  19 C :   -0.053466
  20 C :   -0.190719
  21 H :    0.039213
  22 C :   -0.025437
  23 H :    0.016207
  24 H :    0.030157
  25 C :   -0.045715
  26 H :    0.024647
  27 H :    0.032914
  28 C :   -0.071318
  29 H :    0.019606
  30 H :    0.026304
  31 H :    0.026390
  32 H :    0.020168
  33 H :    0.041710

  Mayer bond orders larger than 0.100000
B(  0-S ,  1-C ) :   1.1301 B(  0-S ,  4-C ) :   1.1577 B(  1-C ,  2-C ) :   1.6197
B(  1-C , 32-H ) :   0.9707 B(  2-C ,  3-C ) :   1.2650 B(  2-C ,  6-C ) :   1.0025
B(  3-C ,  4-C ) :   1.5103 B(  3-C ,  5-H ) :   0.9906 B(  4-C , 20-C ) :   1.0968
B(  6-C ,  7-H ) :   0.9432 B(  6-C ,  8-H ) :   0.9350 B(  6-C ,  9-C ) :   1.0491
B(  9-C , 10-H ) :   0.9568 B(  9-C , 11-H ) :   0.9544 B(  9-C , 12-C ) :   1.0836
B( 12-C , 13-H ) :   0.9719 B( 12-C , 14-H ) :   0.9722 B( 12-C , 15-H ) :   0.9759
B( 16-S , 17-C ) :   1.1795 B( 16-S , 20-C ) :   1.1244 B( 17-C , 18-C ) :   1.5598
B( 17-C , 20-C ) :   0.1028 B( 17-C , 33-H ) :   0.9586 B( 18-C , 19-C ) :   1.2960
B( 18-C , 21-H ) :   0.9788 B( 19-C , 20-C ) :   1.5540 B( 19-C , 22-C ) :   1.0225
B( 22-C , 23-H ) :   0.9393 B( 22-C , 24-H ) :   0.9417 B( 22-C , 25-C ) :   1.0747
B( 25-C , 26-H ) :   0.9502 B( 25-C , 27-H ) :   0.9568 B( 25-C , 28-C ) :   1.0783
B( 28-C , 29-H ) :   0.9723 B( 28-C , 30-H ) :   0.9731 B( 28-C , 31-H ) :   0.9768

Dispersion correction           -0.014002294
FINAL SINGLE POINT ENERGY     -1339.854769931246

DIPOLE MOMENT
-------------
                                X             Y             Z
Electronic contribution:     22.16261      -5.56987     -19.87055
Nuclear contribution   :    -22.82211       5.79129      20.30897
                        -----------------------------------------
Total Dipole Moment    :     -0.65950       0.22142       0.43843
                        -----------------------------------------
Magnitude (a.u.)       :      0.82231
Magnitude (Debye)      :      2.09014

Rotational constants in cm-1:     0.019725     0.008048     0.005968
Rotational constants in MHz :   591.353953   241.269024   178.914085

                             ****ORCA TERMINATED NORMALLY****
TOTAL RUN TIME: 0 days 0 hours 0 minutes 30 seconds 198 msec
