                         Program Version 4.2.1 -  RELEASE  -
|  1> ! wB97X-D3 SP def2-SVP
|  2> %pal
|  3> nprocs 16
|  4> end
|  5>
|  6> * xyz 0 1
|  7> S 	 -18.4294 	 31.0962 	 38.8118
|  8> C 	 -18.1894 	 32.4499 	 40.0453
|  9> C 	 -17.5291 	 33.4991 	 39.3655
| 10> C 	 -17.1156 	 33.1221 	 38.045
| 11> C 	 -17.4015 	 31.84 	 37.6581
| 12> H 	 -16.7369 	 33.8227 	 37.3043
| 13> C 	 -17.4303 	 34.9464 	 39.8315
| 14> H 	 -17.9196 	 35.5441 	 39.055
| 15> H 	 -16.3464 	 35.1036 	 39.7175
| 16> C 	 -18.0051 	 35.2434 	 41.2392
| 17> H 	 -18.2694 	 36.2764 	 41.2885
| 18> H 	 -19.0057 	 34.7607 	 41.257
| 19> C 	 -17.2428 	 34.8154 	 42.4911
| 20> H 	 -17.8813 	 34.8768 	 43.3748
| 21> H 	 -16.9779 	 33.7378 	 42.3866
| 22> H 	 -16.2844 	 35.3296 	 42.6802
| 23> S 	 -18.1502 	 30.0514 	 35.7839
| 24> C 	 -17.0406 	 29.7558 	 34.4103
| 25> C 	 -15.8996 	 30.4693 	 34.4989
| 26> C 	 -15.8574 	 31.2972 	 35.6596
| 27> C 	 -17.0121 	 31.1574 	 36.4311
| 28> H 	 -15.2133 	 30.3634 	 33.6812
| 29> C 	 -14.6571 	 32.2469 	 36.0188
| 30> H 	 -13.9931 	 31.5701 	 36.6678
| 31> H 	 -15.0093 	 32.9268 	 36.8755
| 32> C 	 -13.787 	 32.837 	 34.9602
| 33> H 	 -14.424 	 33.2315 	 34.2084
| 34> H 	 -13.165 	 32.091 	 34.5298
| 35> C 	 -12.7883 	 33.8881 	 35.4718
| 36> H 	 -12.1626 	 33.4982 	 36.2545
| 37> H 	 -13.1869 	 34.7188 	 36.0252
| 38> H 	 -12.3294 	 34.3014 	 34.5822
| 39> H 	 -18.6108 	 32.4286 	 40.9773
| 40> H 	 -17.3134 	 29.1578 	 33.5747
| 41> *
| 42>
| 43>                          ****END OF INPUT****

CARTESIAN COORDINATES (ANGSTROEM)
---------------------------------
  S    -18.429400   31.096200   38.811800
  C    -18.189400   32.449900   40.045300
  C    -17.529100   33.499100   39.365500
  C    -17.115600   33.122100   38.045000
  C    -17.401500   31.840000   37.658100
  H    -16.736900   33.822700   37.304300
  C    -17.430300   34.946400   39.831500
  H    -17.919600   35.544100   39.055000
  H    -16.346400   35.103600   39.717500
  C    -18.005100   35.243400   41.239200
  H    -18.269400   36.276400   41.288500
  H    -19.005700   34.760700   41.257000
  C    -17.242800   34.815400   42.491100
  H    -17.881300   34.876800   43.374800
  H    -16.977900   33.737800   42.386600
  H    -16.284400   35.329600   42.680200
  S    -18.150200   30.051400   35.783900
  C    -17.040600   29.755800   34.410300
  C    -15.899600   30.469300   34.498900
  C    -15.857400   31.297200   35.659600
  C    -17.012100   31.157400   36.431100
  H    -15.213300   30.363400   33.681200
  C    -14.657100   32.246900   36.018800
  H    -13.993100   31.570100   36.667800
  H    -15.009300   32.926800   36.875500
  C    -13.787000   32.837000   34.960200
  H    -14.424000   33.231500   34.208400
  H    -13.165000   32.091000   34.529800
  C    -12.788300   33.888100   35.471800
  H    -12.162600   33.498200   36.254500
  H    -13.186900   34.718800   36.025200
  H    -12.329400   34.301400   34.582200
  H    -18.610800   32.428600   40.977300
  H    -17.313400   29.157800   33.574700

 Total Charge           Charge          ....    0
 Multiplicity           Mult            ....    1
 Number of Electrons    NEL             ....  134
 Basis Dimension        Dim             ....  322

ORBITAL ENERGIES
----------------

  NO   OCC          E(Eh)            E(eV)
   0   2.0000     -88.966463     -2420.9005
   1   2.0000     -88.960939     -2420.7502
   2   2.0000     -10.328004      -281.0393
   3   2.0000     -10.325646      -280.9751
   4   2.0000     -10.316169      -280.7172
   5   2.0000     -10.315401      -280.6963
   6   2.0000     -10.310210      -280.5551
   7   2.0000     -10.307973      -280.4942
   8   2.0000     -10.299954      -280.2760
   9   2.0000     -10.298685      -280.2415
  10   2.0000     -10.293688      -280.1055
  11   2.0000     -10.290433      -280.0169
  12   2.0000     -10.288490      -279.9641
  13   2.0000     -10.284313      -279.8504
  14   2.0000     -10.283364      -279.8245
  15   2.0000     -10.277067      -279.6532
  16   2.0000      -8.081482      -219.9083
  17   2.0000      -8.075230      -219.7382
  18   2.0000      -6.039936      -164.3550
  19   2.0000      -6.036092      -164.2504
  20   2.0000      -6.033936      -164.1917
  21   2.0000      -6.032146      -164.1430
  22   2.0000      -6.029872      -164.0811
  23   2.0000      -6.025733      -163.9685
  24   2.0000      -1.008921       -27.4541
  25   2.0000      -0.980065       -26.6689
  26   2.0000      -0.912478       -24.8298
  27   2.0000      -0.909933       -24.7605
  28   2.0000      -0.870265       -23.6811
  29   2.0000      -0.852823       -23.2065
  30   2.0000      -0.843730       -22.9591
  31   2.0000      -0.814458       -22.1625
  32   2.0000      -0.785155       -21.3652
  33   2.0000      -0.775712       -21.1082
  34   2.0000      -0.712686       -19.3932
  35   2.0000      -0.708414       -19.2769
  36   2.0000      -0.698305       -19.0018
  37   2.0000      -0.658221       -17.9111
  38   2.0000      -0.640701       -17.4344
  39   2.0000      -0.612658       -16.6713
  40   2.0000      -0.595403       -16.2017
  41   2.0000      -0.571224       -15.5438
  42   2.0000      -0.567694       -15.4477
  43   2.0000      -0.553080       -15.0501
  44   2.0000      -0.541912       -14.7462
  45   2.0000      -0.537284       -14.6202
  46   2.0000      -0.523251       -14.2384
  47   2.0000      -0.512547       -13.9471
  48   2.0000      -0.504952       -13.7404
  49   2.0000      -0.497514       -13.5380
  50   2.0000      -0.489290       -13.3143
  51   2.0000      -0.480449       -13.0737
  52   2.0000      -0.476301       -12.9608
  53   2.0000      -0.466865       -12.7040
  54   2.0000      -0.455437       -12.3931
  55   2.0000      -0.450442       -12.2572
  56   2.0000      -0.443968       -12.0810
  57   2.0000      -0.441241       -12.0068
  58   2.0000      -0.431933       -11.7535
  59   2.0000      -0.428781       -11.6677
  60   2.0000      -0.418922       -11.3995
  61   2.0000      -0.414049       -11.2668
  62   2.0000      -0.408082       -11.1045
  63   2.0000      -0.356576        -9.7029
  64   2.0000      -0.333103        -9.0642
  65   2.0000      -0.321827        -8.7574
  66   2.0000      -0.282777        -7.6948
  67   0.0000       0.022092         0.6012
  68   0.0000       0.075650         2.0585
  69   0.0000       0.092845         2.5265
  70   0.0000       0.121923         3.3177
  71   0.0000       0.135672         3.6918

MULLIKEN ATOMIC CHARGES
-----------------------
   0 S :    0.078198
   1 C :   -0.116388
   2 C :   -0.081474
   3 C :   -0.030342
   4 C :   -0.108921
   5 H :    0.029389
   6 C :    0.054878
   7 H :    0.047681
   8 H :    0.036323
   9 C :   -0.068571
  10 H :    0.021700
  11 H :    0.027217
  12 C :   -0.055045
  13 H :    0.039554
  14 H :    0.030419
  15 H :    0.041395
  16 S :    0.097932
  17 C :   -0.080766
  18 C :   -0.030930
  19 C :   -0.029341
  20 C :   -0.125450
  21 H :    0.016093
  22 C :    0.005507
  23 H :    0.037467
  24 H :    0.019789
  25 C :   -0.024273
  26 H :    0.025224
  27 H :    0.028075
  28 C :   -0.031544
  29 H :    0.025232
  30 H :    0.014570
  31 H :    0.040255
  32 H :    0.022287
  33 H :    0.043858
Sum of atomic charges:    0.0000000

LOEWDIN ATOMIC CHARGES
----------------------
   0 S :    0.374129
   1 C :   -0.171083
   2 C :   -0.049347
   3 C :   -0.087471
   4 C :   -0.189428
   5 H :    0.032250
   6 C :   -0.032456
   7 H :    0.040685
   8 H :    0.035691
   9 C :   -0.048040
  10 H :    0.022167
  11 H :    0.029969
  12 C :   -0.069623
  13 H :    0.029751
  14 H :    0.028233
  15 H :    0.028058
  16 S :    0.399514
  17 C :   -0.161328
  18 C :   -0.068602
  19 C :   -0.051746
  20 C :   -0.206925
  21 H :    0.034297
  22 C :   -0.050688
  23 H :    0.041832
  24 H :    0.037454
  25 C :   -0.040270
  26 H :    0.020700
  27 H :    0.025104
  28 C :   -0.059295
  29 H :    0.025934
  30 H :    0.020688
  31 H :    0.030882
  32 H :    0.006305
  33 H :    0.022659

  Mayer bond orders larger than 0.100000
B(  0-S ,  1-C ) :   1.1010 B(  0-S ,  4-C ) :   1.1561 B(  1-C ,  2-C ) :   1.5936
B(  1-C ,  4-C ) :   0.1029 B(  1-C , 32-H ) :   0.9840 B(  2-C ,  3-C ) :   1.2446
B(  2-C ,  6-C ) :   0.9930 B(  3-C ,  4-C ) :   1.5794 B(  3-C ,  5-H ) :   0.9806
B(  4-C , 20-C ) :   1.0421 B(  6-C ,  7-H ) :   0.9441 B(  6-C ,  8-H ) :   0.9393
B(  6-C ,  9-C ) :   1.0755 B(  9-C , 10-H ) :   0.9531 B(  9-C , 11-H ) :   0.9474
B(  9-C , 12-C ) :   1.0791 B( 12-C , 13-H ) :   0.9730 B( 12-C , 14-H ) :   0.9745
B( 12-C , 15-H ) :   0.9739 B( 16-S , 17-C ) :   1.1349 B( 16-S , 20-C ) :   1.1420
B( 17-C , 18-C ) :   1.6422 B( 17-C , 33-H ) :   0.9698 B( 18-C , 19-C ) :   1.2166
B( 18-C , 21-H ) :   0.9943 B( 19-C , 20-C ) :   1.6038 B( 19-C , 22-C ) :   1.0246
B( 22-C , 23-H ) :   0.9201 B( 22-C , 24-H ) :   0.9380 B( 22-C , 25-C ) :   1.0633
B( 25-C , 26-H ) :   0.9606 B( 25-C , 27-H ) :   0.9392 B( 25-C , 28-C ) :   1.0872
B( 28-C , 29-H ) :   0.9726 B( 28-C , 30-H ) :   0.9741 B( 28-C , 31-H ) :   0.9734

Dispersion correction           -0.013634227
FINAL SINGLE POINT ENERGY     -1339.861240586865

DIPOLE MOMENT
-------------
                                X             Y             Z
Electronic contribution:    -17.16057     -22.02760      -8.37923
Nuclear contribution   :     17.56709      22.65029       8.19091
                        -----------------------------------------
Total Dipole Moment    :      0.40651       0.62268      -0.18832
                        -----------------------------------------
Magnitude (a.u.)       :      0.76711
Magnitude (Debye)      :      1.94983

Rotational constants in cm-1:     0.018400     0.008334     0.005966
Rotational constants in MHz :   551.606404   249.858036   178.854490

                             ****ORCA TERMINATED NORMALLY****
TOTAL RUN TIME: 0 days 0 hours 0 minutes 32 seconds 817 msec
