                         Program Version 4.2.1 -  RELEASE  -
|  1> ! wB97X-D3 SP def2-SVP
|  2> %pal
|  3> nprocs 16
|  4> end
|  5>
|  6> * xyz 0 1
|  7> S 	 0.683538 	 12.9315 	 86.1404
|  8> C 	 -0.488155 	 12.5877 	 84.865
|  9> C 	 0.111639 	 12.4305 	 83.6527
| 10> C 	 1.48454 	 12.1031 	 83.8204
| 11> C 	 1.98274 	 12.3014 	 85.1065
| 12> H 	 2.23776 	 11.8342 	 83.0764
| 13> C 	 -0.643718 	 12.0642 	 82.3156
| 14> H 	 -1.62212 	 11.6861 	 82.5145
| 15> H 	 -0.0879273 	 11.381 	 81.6993
| 16> C 	 -0.960015 	 13.2674 	 81.4825
| 17> H 	 -1.50117 	 14.0382 	 82.0998
| 18> H 	 0.00121027 	 13.7588 	 81.2577
| 19> C 	 -1.77892 	 12.9854 	 80.225
| 20> H 	 -2.69759 	 12.4769 	 80.4015
| 21> H 	 -1.99033 	 13.9241 	 79.6632
| 22> H 	 -1.1523 	 12.432 	 79.53
| 23> S 	 3.76087 	 10.4353 	 86.1416
| 24> C 	 5.29058 	 10.9121 	 86.7669
| 25> C 	 5.5329 	 12.2353 	 86.4408
| 26> C 	 4.46286 	 12.864 	 85.7055
| 27> C 	 3.34174 	 12.081 	 85.5833
| 28> H 	 6.49295 	 12.719 	 86.7786
| 29> C 	 4.57349 	 14.2685 	 85.3389
| 30> H 	 5.09847 	 14.7914 	 86.0892
| 31> H 	 3.57328 	 14.6741 	 85.3748
| 32> C 	 5.34669 	 14.5234 	 84.0672
| 33> H 	 4.64774 	 14.2205 	 83.3388
| 34> H 	 6.12798 	 13.8007 	 83.943
| 35> C 	 5.767 	 16.0219 	 83.9062
| 36> H 	 6.48146 	 16.2986 	 84.6123
| 37> H 	 4.91976 	 16.7627 	 84.1054
| 38> H 	 6.17726 	 16.2014 	 82.9148
| 39> H 	 -1.53193 	 12.6698 	 84.8904
| 40> H 	 5.93081 	 10.2732 	 87.2969
| 41> *
| 42>
| 43>                          ****END OF INPUT****

CARTESIAN COORDINATES (ANGSTROEM)
---------------------------------
  S      0.683538   12.931500   86.140400
  C     -0.488155   12.587700   84.865000
  C      0.111639   12.430500   83.652700
  C      1.484540   12.103100   83.820400
  C      1.982740   12.301400   85.106500
  H      2.237760   11.834200   83.076400
  C     -0.643718   12.064200   82.315600
  H     -1.622120   11.686100   82.514500
  H     -0.087927   11.381000   81.699300
  C     -0.960015   13.267400   81.482500
  H     -1.501170   14.038200   82.099800
  H      0.001210   13.758800   81.257700
  C     -1.778920   12.985400   80.225000
  H     -2.697590   12.476900   80.401500
  H     -1.990330   13.924100   79.663200
  H     -1.152300   12.432000   79.530000
  S      3.760870   10.435300   86.141600
  C      5.290580   10.912100   86.766900
  C      5.532900   12.235300   86.440800
  C      4.462860   12.864000   85.705500
  C      3.341740   12.081000   85.583300
  H      6.492950   12.719000   86.778600
  C      4.573490   14.268500   85.338900
  H      5.098470   14.791400   86.089200
  H      3.573280   14.674100   85.374800
  C      5.346690   14.523400   84.067200
  H      4.647740   14.220500   83.338800
  H      6.127980   13.800700   83.943000
  C      5.767000   16.021900   83.906200
  H      6.481460   16.298600   84.612300
  H      4.919760   16.762700   84.105400
  H      6.177260   16.201400   82.914800
  H     -1.531930   12.669800   84.890400
  H      5.930810   10.273200   87.296900

 Total Charge           Charge          ....    0
 Multiplicity           Mult            ....    1
 Number of Electrons    NEL             ....  134
 Basis Dimension        Dim             ....  322

ORBITAL ENERGIES
----------------

  NO   OCC          E(Eh)            E(eV)
   0   2.0000     -88.968661     -2420.9603
   1   2.0000     -88.958399     -2420.6811
   2   2.0000     -10.331002      -281.1209
   3   2.0000     -10.325748      -280.9779
   4   2.0000     -10.314542      -280.6729
   5   2.0000     -10.314408      -280.6693
   6   2.0000     -10.303547      -280.3738
   7   2.0000     -10.299846      -280.2731
   8   2.0000     -10.298018      -280.2233
   9   2.0000     -10.296295      -280.1764
  10   2.0000     -10.291623      -280.0493
  11   2.0000     -10.285655      -279.8869
  12   2.0000     -10.280735      -279.7530
  13   2.0000     -10.279366      -279.7158
  14   2.0000     -10.279092      -279.7083
  15   2.0000     -10.274789      -279.5912
  16   2.0000      -8.082581      -219.9382
  17   2.0000      -8.073557      -219.6927
  18   2.0000      -6.041181      -164.3889
  19   2.0000      -6.037327      -164.2840
  20   2.0000      -6.033143      -164.1702
  21   2.0000      -6.032061      -164.1407
  22   2.0000      -6.027894      -164.0273
  23   2.0000      -6.024389      -163.9319
  24   2.0000      -1.005079       -27.3496
  25   2.0000      -0.985721       -26.8228
  26   2.0000      -0.916726       -24.9454
  27   2.0000      -0.914498       -24.8848
  28   2.0000      -0.871323       -23.7099
  29   2.0000      -0.847373       -23.0582
  30   2.0000      -0.845598       -23.0099
  31   2.0000      -0.812330       -22.1046
  32   2.0000      -0.785540       -21.3756
  33   2.0000      -0.776324       -21.1248
  34   2.0000      -0.713050       -19.4031
  35   2.0000      -0.702106       -19.1053
  36   2.0000      -0.692079       -18.8324
  37   2.0000      -0.664034       -18.0693
  38   2.0000      -0.645031       -17.5522
  39   2.0000      -0.616438       -16.7741
  40   2.0000      -0.599334       -16.3087
  41   2.0000      -0.575353       -15.6562
  42   2.0000      -0.567016       -15.4293
  43   2.0000      -0.561497       -15.2791
  44   2.0000      -0.524919       -14.2838
  45   2.0000      -0.521562       -14.1924
  46   2.0000      -0.515989       -14.0408
  47   2.0000      -0.513470       -13.9722
  48   2.0000      -0.508383       -13.8338
  49   2.0000      -0.505692       -13.7606
  50   2.0000      -0.497716       -13.5435
  51   2.0000      -0.476370       -12.9627
  52   2.0000      -0.475359       -12.9352
  53   2.0000      -0.468065       -12.7367
  54   2.0000      -0.458424       -12.4744
  55   2.0000      -0.448279       -12.1983
  56   2.0000      -0.446301       -12.1445
  57   2.0000      -0.441432       -12.0120
  58   2.0000      -0.429541       -11.6884
  59   2.0000      -0.425330       -11.5738
  60   2.0000      -0.416386       -11.3304
  61   2.0000      -0.413633       -11.2555
  62   2.0000      -0.412292       -11.2190
  63   2.0000      -0.335672        -9.1341
  64   2.0000      -0.324746        -8.8368
  65   2.0000      -0.323449        -8.8015
  66   2.0000      -0.312666        -8.5081
  67   0.0000       0.038339         1.0432
  68   0.0000       0.052217         1.4209
  69   0.0000       0.105688         2.8759
  70   0.0000       0.120991         3.2923
  71   0.0000       0.127404         3.4668

MULLIKEN ATOMIC CHARGES
-----------------------
   0 S :    0.122487
   1 C :   -0.086079
   2 C :   -0.046233
   3 C :    0.038214
   4 C :   -0.186492
   5 H :    0.019597
   6 C :    0.080293
   7 H :    0.010360
   8 H :    0.022816
   9 C :   -0.126990
  10 H :    0.029011
  11 H :    0.023909
  12 C :   -0.023660
  13 H :    0.031110
  14 H :    0.038602
  15 H :    0.023842
  16 S :    0.098280
  17 C :   -0.068167
  18 C :   -0.056755
  19 C :   -0.027319
  20 C :   -0.185957
  21 H :    0.038468
  22 C :    0.097162
  23 H :   -0.004101
  24 H :    0.017911
  25 C :   -0.040904
  26 H :    0.008557
  27 H :    0.022637
  28 C :   -0.036479
  29 H :    0.020290
  30 H :    0.038507
  31 H :    0.037991
  32 H :    0.027642
  33 H :    0.041452
Sum of atomic charges:   -0.0000000

LOEWDIN ATOMIC CHARGES
----------------------
   0 S :    0.391565
   1 C :   -0.168732
   2 C :   -0.061840
   3 C :   -0.053062
   4 C :   -0.196972
   5 H :    0.034903
   6 C :   -0.020306
   7 H :    0.024194
   8 H :    0.026679
   9 C :   -0.051182
  10 H :    0.023477
  11 H :    0.021635
  12 C :   -0.064925
  13 H :    0.020300
  14 H :    0.034337
  15 H :    0.024096
  16 S :    0.399521
  17 C :   -0.178480
  18 C :   -0.081432
  19 C :   -0.050882
  20 C :   -0.198455
  21 H :    0.039633
  22 C :   -0.032023
  23 H :    0.021573
  24 H :    0.029274
  25 C :   -0.031503
  26 H :    0.019499
  27 H :    0.022727
  28 C :   -0.061973
  29 H :    0.014611
  30 H :    0.036222
  31 H :    0.027358
  32 H :    0.019346
  33 H :    0.020818

  Mayer bond orders larger than 0.100000
B(  0-S ,  1-C ) :   1.1428 B(  0-S ,  4-C ) :   1.1191 B(  1-C ,  2-C ) :   1.6334
B(  1-C , 32-H ) :   0.9665 B(  2-C ,  3-C ) :   1.2061 B(  2-C ,  6-C ) :   1.0180
B(  3-C ,  4-C ) :   1.6183 B(  3-C ,  5-H ) :   0.9887 B(  4-C , 20-C ) :   1.0379
B(  6-C ,  7-H ) :   0.9481 B(  6-C ,  8-H ) :   0.9530 B(  6-C ,  9-C ) :   1.0480
B(  9-C , 10-H ) :   0.9592 B(  9-C , 11-H ) :   0.9541 B(  9-C , 12-C ) :   1.0833
B( 12-C , 13-H ) :   0.9739 B( 12-C , 14-H ) :   0.9723 B( 12-C , 15-H ) :   0.9717
B( 16-S , 17-C ) :   1.1688 B( 16-S , 20-C ) :   1.1217 B( 17-C , 18-C ) :   1.6018
B( 17-C , 33-H ) :   0.9762 B( 18-C , 19-C ) :   1.2209 B( 18-C , 21-H ) :   0.9825
B( 19-C , 20-C ) :   1.6085 B( 19-C , 22-C ) :   1.0683 B( 22-C , 23-H ) :   0.9316
B( 22-C , 24-H ) :   0.9207 B( 22-C , 25-C ) :   1.0451 B( 25-C , 26-H ) :   0.9487
B( 25-C , 27-H ) :   0.9600 B( 25-C , 28-C ) :   1.0715 B( 28-C , 29-H ) :   0.9767
B( 28-C , 30-H ) :   0.9732 B( 28-C , 31-H ) :   0.9756

Dispersion correction           -0.013663379
FINAL SINGLE POINT ENERGY     -1339.864143822856

DIPOLE MOMENT
-------------
                                X             Y             Z
Electronic contribution:      1.49327     -15.23092      22.36383
Nuclear contribution   :     -1.38858      15.49717     -22.79971
                        -----------------------------------------
Total Dipole Moment    :      0.10468       0.26625      -0.43588
                        -----------------------------------------
Magnitude (a.u.)       :      0.52138
Magnitude (Debye)      :      1.32525

Rotational constants in cm-1:     0.018305     0.007593     0.006263
Rotational constants in MHz :   548.766895   227.642111   187.762737

                             ****ORCA TERMINATED NORMALLY****
TOTAL RUN TIME: 0 days 0 hours 0 minutes 33 seconds 910 msec
