                         Program Version 4.2.1 -  RELEASE  -
|  1> ! wB97X-D3 SP def2-SVP
|  2> %pal
|  3> nprocs 16
|  4> end
|  5>
|  6> * xyz 0 1
|  7> S 	 -54.6534 	 54.1115 	 134.829
|  8> C 	 -53.2312 	 54.9806 	 135.357
|  9> C 	 -53.5704 	 56.2755 	 135.76
| 10> C 	 -54.9842 	 56.4449 	 135.693
| 11> C 	 -55.7324 	 55.2815 	 135.487
| 12> H 	 -55.4442 	 57.424 	 135.771
| 13> C 	 -52.6188 	 57.3779 	 136.068
| 14> H 	 -52.8983 	 58.2082 	 135.391
| 15> H 	 -51.6405 	 57.0699 	 135.712
| 16> C 	 -52.3629 	 57.7618 	 137.578
| 17> H 	 -53.3128 	 57.8971 	 138.064
| 18> H 	 -51.8277 	 56.9364 	 138.168
| 19> C 	 -51.4228 	 58.9028 	 137.72
| 20> H 	 -51.8902 	 59.6721 	 137.147
| 21> H 	 -51.3445 	 59.2027 	 138.784
| 22> H 	 -50.4577 	 58.7326 	 137.288
| 23> S 	 -57.7744 	 55.0213 	 133.656
| 24> C 	 -59.4127 	 55.2297 	 134.21
| 25> C 	 -59.4755 	 55.3448 	 135.557
| 26> C 	 -58.235 	 55.5239 	 136.199
| 27> C 	 -57.1652 	 55.2576 	 135.316
| 28> H 	 -60.4012 	 55.4042 	 136.085
| 29> C 	 -58.0718 	 55.5958 	 137.746
| 30> H 	 -57.1237 	 56.0046 	 138.055
| 31> H 	 -58.1045 	 54.5313 	 138.051
| 32> C 	 -59.1097 	 56.4488 	 138.495
| 33> H 	 -60.0839 	 56.0895 	 138.177
| 34> H 	 -59.0402 	 57.5605 	 138.34
| 35> C 	 -58.8645 	 56.2731 	 140.026
| 36> H 	 -59.7538 	 56.6097 	 140.514
| 37> H 	 -58.0048 	 56.8747 	 140.271
| 38> H 	 -58.7309 	 55.2501 	 140.311
| 39> H 	 -52.1997 	 54.7372 	 135.152
| 40> H 	 -60.334 	 55.0706 	 133.644
| 41> *
| 42>
| 43>                          ****END OF INPUT****

CARTESIAN COORDINATES (ANGSTROEM)
---------------------------------
  S    -54.653400   54.111500  134.829000
  C    -53.231200   54.980600  135.357000
  C    -53.570400   56.275500  135.760000
  C    -54.984200   56.444900  135.693000
  C    -55.732400   55.281500  135.487000
  H    -55.444200   57.424000  135.771000
  C    -52.618800   57.377900  136.068000
  H    -52.898300   58.208200  135.391000
  H    -51.640500   57.069900  135.712000
  C    -52.362900   57.761800  137.578000
  H    -53.312800   57.897100  138.064000
  H    -51.827700   56.936400  138.168000
  C    -51.422800   58.902800  137.720000
  H    -51.890200   59.672100  137.147000
  H    -51.344500   59.202700  138.784000
  H    -50.457700   58.732600  137.288000
  S    -57.774400   55.021300  133.656000
  C    -59.412700   55.229700  134.210000
  C    -59.475500   55.344800  135.557000
  C    -58.235000   55.523900  136.199000
  C    -57.165200   55.257600  135.316000
  H    -60.401200   55.404200  136.085000
  C    -58.071800   55.595800  137.746000
  H    -57.123700   56.004600  138.055000
  H    -58.104500   54.531300  138.051000
  C    -59.109700   56.448800  138.495000
  H    -60.083900   56.089500  138.177000
  H    -59.040200   57.560500  138.340000
  C    -58.864500   56.273100  140.026000
  H    -59.753800   56.609700  140.514000
  H    -58.004800   56.874700  140.271000
  H    -58.730900   55.250100  140.311000
  H    -52.199700   54.737200  135.152000
  H    -60.334000   55.070600  133.644000

 Total Charge           Charge          ....    0
 Multiplicity           Mult            ....    1
 Number of Electrons    NEL             ....  134
 Basis Dimension        Dim             ....  322

ORBITAL ENERGIES
----------------

  NO   OCC          E(Eh)            E(eV)
   0   2.0000     -88.966926     -2420.9131
   1   2.0000     -88.964636     -2420.8508
   2   2.0000     -10.327252      -281.0188
   3   2.0000     -10.325427      -280.9691
   4   2.0000     -10.313959      -280.6571
   5   2.0000     -10.313414      -280.6423
   6   2.0000     -10.304345      -280.3955
   7   2.0000     -10.298882      -280.2468
   8   2.0000     -10.295865      -280.1647
   9   2.0000     -10.293395      -280.0975
  10   2.0000     -10.292244      -280.0662
  11   2.0000     -10.290942      -280.0308
  12   2.0000     -10.290641      -280.0226
  13   2.0000     -10.286075      -279.8983
  14   2.0000     -10.274061      -279.5714
  15   2.0000     -10.274049      -279.5711
  16   2.0000      -8.081863      -219.9187
  17   2.0000      -8.078996      -219.8407
  18   2.0000      -6.040381      -164.3671
  19   2.0000      -6.037565      -164.2905
  20   2.0000      -6.036402      -164.2589
  21   2.0000      -6.033582      -164.1821
  22   2.0000      -6.032530      -164.1535
  23   2.0000      -6.029695      -164.0763
  24   2.0000      -1.007163       -27.4063
  25   2.0000      -0.984515       -26.7900
  26   2.0000      -0.914382       -24.8816
  27   2.0000      -0.905942       -24.6519
  28   2.0000      -0.874274       -23.7902
  29   2.0000      -0.851938       -23.1824
  30   2.0000      -0.847719       -23.0676
  31   2.0000      -0.812230       -22.1019
  32   2.0000      -0.781495       -21.2656
  33   2.0000      -0.769423       -20.9371
  34   2.0000      -0.705791       -19.2056
  35   2.0000      -0.697146       -18.9703
  36   2.0000      -0.696754       -18.9596
  37   2.0000      -0.652331       -17.7508
  38   2.0000      -0.637895       -17.3580
  39   2.0000      -0.620202       -16.8765
  40   2.0000      -0.598143       -16.2763
  41   2.0000      -0.569696       -15.5022
  42   2.0000      -0.568937       -15.4816
  43   2.0000      -0.562813       -15.3149
  44   2.0000      -0.530920       -14.4471
  45   2.0000      -0.522173       -14.2090
  46   2.0000      -0.519972       -14.1492
  47   2.0000      -0.510841       -13.9007
  48   2.0000      -0.505142       -13.7456
  49   2.0000      -0.499343       -13.5878
  50   2.0000      -0.496651       -13.5146
  51   2.0000      -0.478796       -13.0287
  52   2.0000      -0.473041       -12.8721
  53   2.0000      -0.467127       -12.7112
  54   2.0000      -0.458072       -12.4648
  55   2.0000      -0.450478       -12.2581
  56   2.0000      -0.446735       -12.1563
  57   2.0000      -0.439893       -11.9701
  58   2.0000      -0.432534       -11.7698
  59   2.0000      -0.429569       -11.6892
  60   2.0000      -0.424728       -11.5574
  61   2.0000      -0.407871       -11.0987
  62   2.0000      -0.406565       -11.0632
  63   2.0000      -0.340500        -9.2655
  64   2.0000      -0.330052        -8.9812
  65   2.0000      -0.324779        -8.8377
  66   2.0000      -0.292222        -7.9518
  67   0.0000       0.028464         0.7745
  68   0.0000       0.062200         1.6925
  69   0.0000       0.108706         2.9581
  70   0.0000       0.124060         3.3758
  71   0.0000       0.129471         3.5231

MULLIKEN ATOMIC CHARGES
-----------------------
   0 S :    0.109034
   1 C :   -0.094573
   2 C :   -0.105213
   3 C :    0.028217
   4 C :   -0.151643
   5 H :    0.015820
   6 C :    0.048206
   7 H :    0.040417
   8 H :    0.001377
   9 C :   -0.083142
  10 H :    0.027335
  11 H :    0.035518
  12 C :   -0.013522
  13 H :    0.012809
  14 H :    0.043809
  15 H :    0.027866
  16 S :    0.104731
  17 C :   -0.078721
  18 C :   -0.034599
  19 C :   -0.015561
  20 C :   -0.163648
  21 H :    0.009535
  22 C :    0.041605
  23 H :    0.018944
  24 H :    0.053773
  25 C :   -0.120463
  26 H :    0.023375
  27 H :    0.045628
  28 C :   -0.015801
  29 H :    0.028089
  30 H :    0.035661
  31 H :    0.022904
  32 H :    0.043937
  33 H :    0.058300
Sum of atomic charges:   -0.0000000

LOEWDIN ATOMIC CHARGES
----------------------
   0 S :    0.423071
   1 C :   -0.197027
   2 C :   -0.067956
   3 C :   -0.054590
   4 C :   -0.216938
   5 H :    0.028618
   6 C :   -0.037085
   7 H :    0.038621
   8 H :    0.026346
   9 C :   -0.040323
  10 H :    0.018201
  11 H :    0.032236
  12 C :   -0.062875
  13 H :    0.019272
  14 H :    0.033622
  15 H :    0.022383
  16 S :    0.394124
  17 C :   -0.188711
  18 C :   -0.074742
  19 C :   -0.052498
  20 C :   -0.190405
  21 H :    0.026304
  22 C :   -0.028934
  23 H :    0.025584
  24 H :    0.041333
  25 C :   -0.040924
  26 H :    0.013812
  27 H :    0.032449
  28 C :   -0.055200
  29 H :    0.023957
  30 H :    0.025529
  31 H :    0.019951
  32 H :    0.027662
  33 H :    0.035132

  Mayer bond orders larger than 0.100000
B(  0-S ,  1-C ) :   1.1539 B(  0-S ,  4-C ) :   1.1580 B(  1-C ,  2-C ) :   1.5761
B(  1-C ,  4-C ) :   0.1013 B(  1-C , 32-H ) :   0.9660 B(  2-C ,  3-C ) :   1.2816
B(  2-C ,  6-C ) :   1.0364 B(  3-C ,  4-C ) :   1.5224 B(  3-C ,  5-H ) :   0.9935
B(  4-C , 20-C ) :   1.0551 B(  6-C ,  7-H ) :   0.9407 B(  6-C ,  8-H ) :   0.9328
B(  6-C ,  9-C ) :   1.0480 B(  9-C , 10-H ) :   0.9598 B(  9-C , 11-H ) :   0.9554
B(  9-C , 12-C ) :   1.0846 B( 12-C , 13-H ) :   0.9723 B( 12-C , 14-H ) :   0.9707
B( 12-C , 15-H ) :   0.9728 B( 16-S , 17-C ) :   1.1481 B( 16-S , 20-C ) :   1.1402
B( 17-C , 18-C ) :   1.6301 B( 17-C , 20-C ) :   0.1031 B( 17-C , 33-H ) :   0.9592
B( 18-C , 19-C ) :   1.2488 B( 18-C , 21-H ) :   0.9840 B( 19-C , 20-C ) :   1.5927
B( 19-C , 22-C ) :   1.0300 B( 22-C , 23-H ) :   0.9397 B( 22-C , 24-H ) :   0.9448
B( 22-C , 25-C ) :   1.0585 B( 25-C , 26-H ) :   0.9569 B( 25-C , 27-H ) :   0.9588
B( 25-C , 28-C ) :   1.0795 B( 28-C , 29-H ) :   0.9739 B( 28-C , 30-H ) :   0.9774
B( 28-C , 31-H ) :   0.9760

Dispersion correction           -0.013025392
FINAL SINGLE POINT ENERGY     -1339.866476291911

DIPOLE MOMENT
-------------
                                X             Y             Z
Electronic contribution:     -5.82891     -16.90944     -24.86177
Nuclear contribution   :      5.84843      17.37847      25.29006
                        -----------------------------------------
Total Dipole Moment    :      0.01952       0.46904       0.42829
                        -----------------------------------------
Magnitude (a.u.)       :      0.63546
Magnitude (Debye)      :      1.61521

Rotational constants in cm-1:     0.016107     0.008434     0.006133
Rotational constants in MHz :   482.875721   252.851576   183.854813

                             ****ORCA TERMINATED NORMALLY****
TOTAL RUN TIME: 0 days 0 hours 0 minutes 33 seconds 479 msec
