                         Program Version 4.2.1 -  RELEASE  -
|  1> ! wB97X-D3 SP def2-SVP
|  2> %pal
|  3> nprocs 16
|  4> end
|  5>
|  6> * xyz 0 1
|  7> S 	 -0.789993 	 -15.3046 	 82.5185
|  8> C 	 -1.86026 	 -16.6245 	 82.098
|  9> C 	 -3.14599 	 -16.251 	 81.8399
| 10> C 	 -3.30756 	 -14.9029 	 82.2927
| 11> C 	 -2.15299 	 -14.2495 	 82.6777
| 12> H 	 -4.18503 	 -14.2257 	 82.3287
| 13> C 	 -4.23071 	 -17.1451 	 81.1994
| 14> H 	 -4.42794 	 -17.9273 	 81.9981
| 15> H 	 -3.61585 	 -17.5187 	 80.4326
| 16> C 	 -5.5033 	 -16.4472 	 80.6256
| 17> H 	 -6.18442 	 -16.1862 	 81.4149
| 18> H 	 -5.17036 	 -15.5572 	 79.9978
| 19> C 	 -6.2041 	 -17.2996 	 79.4973
| 20> H 	 -7.21045 	 -16.8149 	 79.2334
| 21> H 	 -5.60644 	 -17.4127 	 78.5636
| 22> H 	 -6.4522 	 -18.2648 	 79.8239
| 23> S 	 -1.49659 	 -12.4465 	 84.8486
| 24> C 	 -1.34112 	 -10.7734 	 84.3474
| 25> C 	 -1.34887 	 -10.5842 	 82.9911
| 26> C 	 -1.77662 	 -11.7639 	 82.318
| 27> C 	 -1.93035 	 -12.8956 	 83.1306
| 28> H 	 -1.07561 	 -9.64336 	 82.5391
| 29> C 	 -1.7612 	 -11.8244 	 80.7794
| 30> H 	 -1.04244 	 -12.5989 	 80.5172
| 31> H 	 -1.47528 	 -10.8781 	 80.4025
| 32> C 	 -3.06918 	 -11.9972 	 80.081
| 33> H 	 -3.47822 	 -12.8849 	 80.4919
| 34> H 	 -2.681 	 -12.2146 	 79.0856
| 35> C 	 -4.03633 	 -10.8186 	 80.3779
| 36> H 	 -4.0658 	 -10.6434 	 81.4566
| 37> H 	 -5.12967 	 -11.0211 	 80.0663
| 38> H 	 -3.79546 	 -9.88131 	 79.8165
| 39> H 	 -1.56673 	 -17.6447 	 81.8912
| 40> H 	 -0.903803 	 -10.0336 	 85.0479
| 41> *
| 42>
| 43>                          ****END OF INPUT****

CARTESIAN COORDINATES (ANGSTROEM)
---------------------------------
  S     -0.789993  -15.304600   82.518500
  C     -1.860260  -16.624500   82.098000
  C     -3.145990  -16.251000   81.839900
  C     -3.307560  -14.902900   82.292700
  C     -2.152990  -14.249500   82.677700
  H     -4.185030  -14.225700   82.328700
  C     -4.230710  -17.145100   81.199400
  H     -4.427940  -17.927300   81.998100
  H     -3.615850  -17.518700   80.432600
  C     -5.503300  -16.447200   80.625600
  H     -6.184420  -16.186200   81.414900
  H     -5.170360  -15.557200   79.997800
  C     -6.204100  -17.299600   79.497300
  H     -7.210450  -16.814900   79.233400
  H     -5.606440  -17.412700   78.563600
  H     -6.452200  -18.264800   79.823900
  S     -1.496590  -12.446500   84.848600
  C     -1.341120  -10.773400   84.347400
  C     -1.348870  -10.584200   82.991100
  C     -1.776620  -11.763900   82.318000
  C     -1.930350  -12.895600   83.130600
  H     -1.075610   -9.643360   82.539100
  C     -1.761200  -11.824400   80.779400
  H     -1.042440  -12.598900   80.517200
  H     -1.475280  -10.878100   80.402500
  C     -3.069180  -11.997200   80.081000
  H     -3.478220  -12.884900   80.491900
  H     -2.681000  -12.214600   79.085600
  C     -4.036330  -10.818600   80.377900
  H     -4.065800  -10.643400   81.456600
  H     -5.129670  -11.021100   80.066300
  H     -3.795460   -9.881310   79.816500
  H     -1.566730  -17.644700   81.891200
  H     -0.903803  -10.033600   85.047900

 Total Charge           Charge          ....    0
 Multiplicity           Mult            ....    1
 Number of Electrons    NEL             ....  134
 Basis Dimension        Dim             ....  322

ORBITAL ENERGIES
----------------

  NO   OCC          E(Eh)            E(eV)
   0   2.0000     -88.965874     -2420.8845
   1   2.0000     -88.964919     -2420.8585
   2   2.0000     -10.327592      -281.0281
   3   2.0000     -10.322463      -280.8885
   4   2.0000     -10.319711      -280.8136
   5   2.0000     -10.309483      -280.5353
   6   2.0000     -10.303076      -280.3609
   7   2.0000     -10.302598      -280.3480
   8   2.0000     -10.301747      -280.3248
   9   2.0000     -10.301316      -280.3131
  10   2.0000     -10.295062      -280.1429
  11   2.0000     -10.292850      -280.0827
  12   2.0000     -10.287676      -279.9419
  13   2.0000     -10.286931      -279.9216
  14   2.0000     -10.280826      -279.7555
  15   2.0000     -10.276902      -279.6487
  16   2.0000      -8.079921      -219.8658
  17   2.0000      -8.079452      -219.8531
  18   2.0000      -6.038411      -164.3135
  19   2.0000      -6.037986      -164.3019
  20   2.0000      -6.034433      -164.2053
  21   2.0000      -6.034297      -164.2016
  22   2.0000      -6.030638      -164.1020
  23   2.0000      -6.030069      -164.0865
  24   2.0000      -1.005063       -27.3491
  25   2.0000      -0.980826       -26.6896
  26   2.0000      -0.913018       -24.8445
  27   2.0000      -0.907849       -24.7038
  28   2.0000      -0.868967       -23.6458
  29   2.0000      -0.843447       -22.9513
  30   2.0000      -0.841284       -22.8925
  31   2.0000      -0.813214       -22.1287
  32   2.0000      -0.783606       -21.3230
  33   2.0000      -0.771789       -21.0015
  34   2.0000      -0.714750       -19.4493
  35   2.0000      -0.697762       -18.9871
  36   2.0000      -0.680510       -18.5176
  37   2.0000      -0.655984       -17.8502
  38   2.0000      -0.643593       -17.5131
  39   2.0000      -0.607692       -16.5361
  40   2.0000      -0.594343       -16.1729
  41   2.0000      -0.576738       -15.6938
  42   2.0000      -0.562571       -15.3083
  43   2.0000      -0.557203       -15.1623
  44   2.0000      -0.543284       -14.7835
  45   2.0000      -0.521528       -14.1915
  46   2.0000      -0.514061       -13.9883
  47   2.0000      -0.502185       -13.6651
  48   2.0000      -0.495523       -13.4839
  49   2.0000      -0.490664       -13.3516
  50   2.0000      -0.484867       -13.1939
  51   2.0000      -0.478246       -13.0137
  52   2.0000      -0.473557       -12.8861
  53   2.0000      -0.465206       -12.6589
  54   2.0000      -0.458472       -12.4756
  55   2.0000      -0.446528       -12.1506
  56   2.0000      -0.442631       -12.0446
  57   2.0000      -0.441399       -12.0111
  58   2.0000      -0.437341       -11.9007
  59   2.0000      -0.429236       -11.6801
  60   2.0000      -0.415162       -11.2971
  61   2.0000      -0.411752       -11.2043
  62   2.0000      -0.409587       -11.1454
  63   2.0000      -0.335277        -9.1233
  64   2.0000      -0.328588        -8.9413
  65   2.0000      -0.322156        -8.7663
  66   2.0000      -0.306009        -8.3269
  67   0.0000       0.035989         0.9793
  68   0.0000       0.052940         1.4406
  69   0.0000       0.107989         2.9385
  70   0.0000       0.116617         3.1733
  71   0.0000       0.135030         3.6744

MULLIKEN ATOMIC CHARGES
-----------------------
   0 S :    0.122989
   1 C :   -0.120580
   2 C :   -0.115653
   3 C :    0.045059
   4 C :   -0.217658
   5 H :    0.025296
   6 C :    0.082792
   7 H :    0.062428
   8 H :    0.022563
   9 C :   -0.096468
  10 H :    0.047377
  11 H :    0.053674
  12 C :   -0.071425
  13 H :    0.043343
  14 H :    0.045764
  15 H :    0.020419
  16 S :    0.104732
  17 C :   -0.099774
  18 C :   -0.025168
  19 C :   -0.056891
  20 C :   -0.170854
  21 H :    0.022317
  22 C :    0.093876
  23 H :    0.036747
  24 H :   -0.008518
  25 C :   -0.009108
  26 H :    0.001581
  27 H :    0.027875
  28 C :   -0.103454
  29 H :    0.050663
  30 H :    0.042931
  31 H :    0.039195
  32 H :    0.032924
  33 H :    0.071005
Sum of atomic charges:   -0.0000000

LOEWDIN ATOMIC CHARGES
----------------------
   0 S :    0.414240
   1 C :   -0.198406
   2 C :   -0.065511
   3 C :   -0.065326
   4 C :   -0.207324
   5 H :    0.035840
   6 C :   -0.032674
   7 H :    0.045943
   8 H :    0.028346
   9 C :   -0.041154
  10 H :    0.025003
  11 H :    0.038898
  12 C :   -0.068171
  13 H :    0.036041
  14 H :    0.029910
  15 H :    0.011462
  16 S :    0.374441
  17 C :   -0.180082
  18 C :   -0.074734
  19 C :   -0.045548
  20 C :   -0.198976
  21 H :    0.033590
  22 C :   -0.024990
  23 H :    0.032448
  24 H :    0.019344
  25 C :   -0.039355
  26 H :    0.013470
  27 H :    0.029078
  28 C :   -0.075132
  29 H :    0.029870
  30 H :    0.033872
  31 H :    0.027310
  32 H :    0.023899
  33 H :    0.034374

  Mayer bond orders larger than 0.100000
B(  0-S ,  1-C ) :   1.1411 B(  0-S ,  4-C ) :   1.1483 B(  1-C ,  2-C ) :   1.6474
B(  1-C , 32-H ) :   0.9673 B(  2-C ,  3-C ) :   1.2157 B(  2-C ,  6-C ) :   0.9684
B(  3-C ,  4-C ) :   1.6067 B(  3-C ,  5-H ) :   0.9780 B(  4-C , 20-C ) :   1.0530
B(  6-C ,  7-H ) :   0.9370 B(  6-C ,  8-H ) :   0.9431 B(  6-C ,  9-C ) :   1.0761
B(  9-C , 10-H ) :   0.9526 B(  9-C , 11-H ) :   0.9599 B(  9-C , 12-C ) :   1.0746
B( 12-C , 13-H ) :   0.9747 B( 12-C , 14-H ) :   0.9781 B( 12-C , 15-H ) :   0.9772
B( 16-S , 17-C ) :   1.1651 B( 16-S , 20-C ) :   1.1108 B( 17-C , 18-C ) :   1.6163
B( 17-C , 33-H ) :   0.9549 B( 18-C , 19-C ) :   1.2422 B( 18-C , 21-H ) :   0.9898
B( 19-C , 20-C ) :   1.5949 B( 19-C , 22-C ) :   1.0346 B( 22-C , 23-H ) :   0.9278
B( 22-C , 24-H ) :   0.9345 B( 22-C , 25-C ) :   1.0691 B( 25-C , 26-H ) :   0.9524
B( 25-C , 27-H ) :   0.9546 B( 25-C , 28-C ) :   1.0591 B( 28-C , 29-H ) :   0.9725
B( 28-C , 30-H ) :   0.9762 B( 28-C , 31-H ) :   0.9756

Dispersion correction           -0.015125041
FINAL SINGLE POINT ENERGY     -1339.856461805016

DIPOLE MOMENT
-------------
                                X             Y             Z
Electronic contribution:     20.37247       1.89507      21.94792
Nuclear contribution   :    -20.62003      -1.93473     -22.51531
                        -----------------------------------------
Total Dipole Moment    :     -0.24756      -0.03966      -0.56740
                        -----------------------------------------
Magnitude (a.u.)       :      0.62032
Magnitude (Debye)      :      1.57673

Rotational constants in cm-1:     0.019631     0.008759     0.006954
Rotational constants in MHz :   588.512013   262.598575   208.479745

                             ****ORCA TERMINATED NORMALLY****
TOTAL RUN TIME: 0 days 0 hours 0 minutes 35 seconds 401 msec
