                         Program Version 4.2.1 -  RELEASE  -
|  1> ! wB97X-D3 SP def2-SVP
|  2> %pal
|  3> nprocs 16
|  4> end
|  5>
|  6> * xyz 0 1
|  7> S 	 -102.293 	 58.8244 	 125.639
|  8> C 	 -101.949 	 57.253 	 124.899
|  9> C 	 -100.735 	 56.6961 	 125.349
| 10> C 	 -99.9218 	 57.7866 	 125.857
| 11> C 	 -100.567 	 59.0067 	 125.891
| 12> H 	 -98.8827 	 57.6852 	 126.054
| 13> C 	 -100.189 	 55.2991 	 124.923
| 14> H 	 -100.922 	 54.5575 	 125.215
| 15> H 	 -99.2387 	 55.1634 	 125.501
| 16> C 	 -100.031 	 54.9355 	 123.478
| 17> H 	 -100.901 	 55.2257 	 122.919
| 18> H 	 -99.2488 	 55.5371 	 123.079
| 19> C 	 -99.8988 	 53.4518 	 123.226
| 20> H 	 -99.0814 	 53.0157 	 123.744
| 21> H 	 -100.844 	 52.9493 	 123.628
| 22> H 	 -99.8691 	 53.2332 	 122.12
| 23> S 	 -101.201 	 61.5846 	 126.483
| 24> C 	 -99.9895 	 62.7932 	 126.834
| 25> C 	 -98.7401 	 62.2547 	 126.627
| 26> C 	 -98.7321 	 60.8614 	 126.511
| 27> C 	 -99.9696 	 60.3496 	 126.22
| 28> H 	 -97.8815 	 62.9174 	 126.749
| 29> C 	 -97.3894 	 60.1015 	 126.48
| 30> H 	 -96.7854 	 60.7761 	 125.897
| 31> H 	 -97.4184 	 59.1798 	 125.925
| 32> C 	 -96.8024 	 59.8303 	 127.8
| 33> H 	 -97.3693 	 59.0178 	 128.265
| 34> H 	 -96.9842 	 60.7416 	 128.424
| 35> C 	 -95.2872 	 59.5309 	 127.606
| 36> H 	 -95.2675 	 58.7598 	 126.807
| 37> H 	 -94.8486 	 59.1159 	 128.468
| 38> H 	 -94.7733 	 60.4547 	 127.357
| 39> H 	 -102.758 	 56.678 	 124.4
| 40> H 	 -100.208 	 63.8864 	 127.031
| 41> *
| 42>
| 43>                          ****END OF INPUT****

CARTESIAN COORDINATES (ANGSTROEM)
---------------------------------
  S    -102.293000   58.824400  125.639000
  C    -101.949000   57.253000  124.899000
  C    -100.735000   56.696100  125.349000
  C    -99.921800   57.786600  125.857000
  C    -100.567000   59.006700  125.891000
  H    -98.882700   57.685200  126.054000
  C    -100.189000   55.299100  124.923000
  H    -100.922000   54.557500  125.215000
  H    -99.238700   55.163400  125.501000
  C    -100.031000   54.935500  123.478000
  H    -100.901000   55.225700  122.919000
  H    -99.248800   55.537100  123.079000
  C    -99.898800   53.451800  123.226000
  H    -99.081400   53.015700  123.744000
  H    -100.844000   52.949300  123.628000
  H    -99.869100   53.233200  122.120000
  S    -101.201000   61.584600  126.483000
  C    -99.989500   62.793200  126.834000
  C    -98.740100   62.254700  126.627000
  C    -98.732100   60.861400  126.511000
  C    -99.969600   60.349600  126.220000
  H    -97.881500   62.917400  126.749000
  C    -97.389400   60.101500  126.480000
  H    -96.785400   60.776100  125.897000
  H    -97.418400   59.179800  125.925000
  C    -96.802400   59.830300  127.800000
  H    -97.369300   59.017800  128.265000
  H    -96.984200   60.741600  128.424000
  C    -95.287200   59.530900  127.606000
  H    -95.267500   58.759800  126.807000
  H    -94.848600   59.115900  128.468000
  H    -94.773300   60.454700  127.357000
  H    -102.758000   56.678000  124.400000
  H    -100.208000   63.886400  127.031000

 Total Charge           Charge          ....    0
 Multiplicity           Mult            ....    1
 Number of Electrons    NEL             ....  134
 Basis Dimension        Dim             ....  322

ORBITAL ENERGIES
----------------

  NO   OCC          E(Eh)            E(eV)
   0   2.0000     -88.967282     -2420.9228
   1   2.0000     -88.961544     -2420.7667
   2   2.0000     -10.334687      -281.2211
   3   2.0000     -10.330276      -281.1011
   4   2.0000     -10.321294      -280.8567
   5   2.0000     -10.319865      -280.8178
   6   2.0000     -10.311002      -280.5766
   7   2.0000     -10.301243      -280.3111
   8   2.0000     -10.297646      -280.2132
   9   2.0000     -10.295528      -280.1556
  10   2.0000     -10.292464      -280.0722
  11   2.0000     -10.286944      -279.9220
  12   2.0000     -10.286038      -279.8973
  13   2.0000     -10.285476      -279.8820
  14   2.0000     -10.280709      -279.7523
  15   2.0000     -10.280245      -279.7397
  16   2.0000      -8.081774      -219.9162
  17   2.0000      -8.076613      -219.7758
  18   2.0000      -6.040354      -164.3664
  19   2.0000      -6.036773      -164.2689
  20   2.0000      -6.035180      -164.2256
  21   2.0000      -6.032022      -164.1397
  22   2.0000      -6.031099      -164.1145
  23   2.0000      -6.027274      -164.0105
  24   2.0000      -1.007558       -27.4170
  25   2.0000      -0.984081       -26.7782
  26   2.0000      -0.920277       -25.0420
  27   2.0000      -0.917498       -24.9664
  28   2.0000      -0.866096       -23.5677
  29   2.0000      -0.853187       -23.2164
  30   2.0000      -0.844226       -22.9726
  31   2.0000      -0.812055       -22.0972
  32   2.0000      -0.782420       -21.2907
  33   2.0000      -0.773222       -21.0405
  34   2.0000      -0.702931       -19.1277
  35   2.0000      -0.701395       -19.0859
  36   2.0000      -0.688850       -18.7446
  37   2.0000      -0.665725       -18.1153
  38   2.0000      -0.635264       -17.2864
  39   2.0000      -0.625690       -17.0259
  40   2.0000      -0.600885       -16.3509
  41   2.0000      -0.577429       -15.7127
  42   2.0000      -0.569042       -15.4844
  43   2.0000      -0.559958       -15.2372
  44   2.0000      -0.527362       -14.3502
  45   2.0000      -0.523014       -14.2319
  46   2.0000      -0.520334       -14.1590
  47   2.0000      -0.514759       -14.0073
  48   2.0000      -0.501625       -13.6499
  49   2.0000      -0.493524       -13.4295
  50   2.0000      -0.489242       -13.3130
  51   2.0000      -0.480286       -13.0693
  52   2.0000      -0.475936       -12.9509
  53   2.0000      -0.464067       -12.6279
  54   2.0000      -0.461041       -12.5456
  55   2.0000      -0.452451       -12.3118
  56   2.0000      -0.446457       -12.1487
  57   2.0000      -0.441262       -12.0073
  58   2.0000      -0.439627       -11.9629
  59   2.0000      -0.424013       -11.5380
  60   2.0000      -0.422011       -11.4835
  61   2.0000      -0.418694       -11.3933
  62   2.0000      -0.407073       -11.0770
  63   2.0000      -0.356540        -9.7020
  64   2.0000      -0.337473        -9.1831
  65   2.0000      -0.325695        -8.8626
  66   2.0000      -0.280501        -7.6328
  67   0.0000       0.016204         0.4409
  68   0.0000       0.072230         1.9655
  69   0.0000       0.090365         2.4590
  70   0.0000       0.116183         3.1615
  71   0.0000       0.132737         3.6120

MULLIKEN ATOMIC CHARGES
-----------------------
   0 S :    0.102120
   1 C :   -0.146289
   2 C :   -0.049483
   3 C :   -0.022837
   4 C :   -0.068271
   5 H :   -0.010825
   6 C :    0.036921
   7 H :    0.016826
   8 H :    0.033334
   9 C :   -0.030626
  10 H :    0.016172
  11 H :    0.019879
  12 C :   -0.072650
  13 H :    0.030953
  14 H :    0.034036
  15 H :    0.050528
  16 S :    0.065665
  17 C :   -0.108742
  18 C :   -0.030538
  19 C :   -0.078293
  20 C :   -0.087474
  21 H :    0.023218
  22 C :    0.038906
  23 H :    0.016724
  24 H :    0.012470
  25 C :   -0.074924
  26 H :    0.031275
  27 H :    0.030407
  28 C :   -0.017482
  29 H :    0.028492
  30 H :    0.026307
  31 H :    0.040043
  32 H :    0.062436
  33 H :    0.081723
Sum of atomic charges:    0.0000000

LOEWDIN ATOMIC CHARGES
----------------------
   0 S :    0.382565
   1 C :   -0.187986
   2 C :   -0.055366
   3 C :   -0.065834
   4 C :   -0.178672
   5 H :    0.020777
   6 C :   -0.034168
   7 H :    0.029665
   8 H :    0.033681
   9 C :   -0.044115
  10 H :    0.023969
  11 H :    0.018911
  12 C :   -0.063530
  13 H :    0.017218
  14 H :    0.031525
  15 H :    0.036434
  16 S :    0.388065
  17 C :   -0.191270
  18 C :   -0.076135
  19 C :   -0.063238
  20 C :   -0.177818
  21 H :    0.033517
  22 C :   -0.029320
  23 H :    0.028287
  24 H :    0.020640
  25 C :   -0.042836
  26 H :    0.025244
  27 H :    0.025846
  28 C :   -0.054197
  29 H :    0.028413
  30 H :    0.018128
  31 H :    0.028188
  32 H :    0.028750
  33 H :    0.044663

  Mayer bond orders larger than 0.100000
B(  0-S ,  1-C ) :   1.1291 B(  0-S ,  4-C ) :   1.1292 B(  1-C ,  2-C ) :   1.6131
B(  1-C , 32-H ) :   0.9654 B(  2-C ,  3-C ) :   1.2065 B(  2-C ,  6-C ) :   1.0339
B(  3-C ,  4-C ) :   1.6049 B(  3-C ,  5-H ) :   0.9970 B(  4-C , 20-C ) :   1.0531
B(  6-C ,  7-H ) :   0.9318 B(  6-C ,  8-H ) :   0.9437 B(  6-C ,  9-C ) :   1.0719
B(  9-C , 10-H ) :   0.9472 B(  9-C , 11-H ) :   0.9506 B(  9-C , 12-C ) :   1.0799
B( 12-C , 13-H ) :   0.9785 B( 12-C , 14-H ) :   0.9699 B( 12-C , 15-H ) :   0.9726
B( 16-S , 17-C ) :   1.1571 B( 16-S , 20-C ) :   1.1266 B( 17-C , 18-C ) :   1.6127
B( 17-C , 33-H ) :   0.9593 B( 18-C , 19-C ) :   1.2428 B( 18-C , 21-H ) :   0.9814
B( 19-C , 20-C ) :   1.6175 B( 19-C , 22-C ) :   1.0124 B( 22-C , 23-H ) :   0.9419
B( 22-C , 24-H ) :   0.9370 B( 22-C , 25-C ) :   1.0623 B( 25-C , 26-H ) :   0.9503
B( 25-C , 27-H ) :   0.9567 B( 25-C , 28-C ) :   1.0689 B( 28-C , 29-H ) :   0.9729
B( 28-C , 30-H ) :   0.9751 B( 28-C , 31-H ) :   0.9768

Dispersion correction           -0.013251858
FINAL SINGLE POINT ENERGY     -1339.856435469050

DIPOLE MOMENT
-------------
                                X             Y             Z
Electronic contribution:    -22.35181      20.34343       3.89768
Nuclear contribution   :     22.97662     -20.65008      -3.99622
                        -----------------------------------------
Total Dipole Moment    :      0.62481      -0.30666      -0.09854
                        -----------------------------------------
Magnitude (a.u.)       :      0.70295
Magnitude (Debye)      :      1.78674

Rotational constants in cm-1:     0.017981     0.008129     0.005828
Rotational constants in MHz :   539.047666   243.705735   174.725510

                             ****ORCA TERMINATED NORMALLY****
TOTAL RUN TIME: 0 days 0 hours 0 minutes 33 seconds 848 msec
