                         Program Version 4.2.1 -  RELEASE  -
|  1> ! wB97X-D3 SP def2-SVP
|  2> %pal
|  3> nprocs 16
|  4> end
|  5>
|  6> * xyz 0 1
|  7> S 	 49.2778 	 23.9285 	 43.3774
|  8> C 	 47.9109 	 24.4871 	 42.3894
|  9> C 	 47.1797 	 25.523 	 42.9467
| 10> C 	 47.5082 	 25.6411 	 44.3252
| 11> C 	 48.5526 	 24.8408 	 44.7628
| 12> H 	 46.9592 	 26.2782 	 45.0398
| 13> C 	 45.9555 	 26.2936 	 42.2844
| 14> H 	 46.023 	 26.3718 	 41.2068
| 15> H 	 46.0163 	 27.3086 	 42.6746
| 16> C 	 44.5158 	 25.8335 	 42.8681
| 17> H 	 44.5089 	 25.624 	 43.9721
| 18> H 	 43.7034 	 26.5686 	 42.6854
| 19> C 	 44.014 	 24.5125 	 42.16
| 20> H 	 43.0304 	 24.1495 	 42.3136
| 21> H 	 44.1522 	 24.5608 	 41.1368
| 22> H 	 44.7439 	 23.7107 	 42.4636
| 23> S 	 50.743 	 24.6012 	 46.437
| 24> C 	 50.5251 	 24.3905 	 48.1684
| 25> C 	 49.2015 	 24.4189 	 48.4885
| 26> C 	 48.2965 	 24.5814 	 47.3574
| 27> C 	 48.9689 	 24.7441 	 46.1559
| 28> H 	 48.8821 	 24.3396 	 49.4973
| 29> C 	 46.8079 	 24.4557 	 47.5615
| 30> H 	 46.3393 	 24.9002 	 46.6389
| 31> H 	 46.4343 	 25.0448 	 48.3727
| 32> C 	 46.3455 	 23.0149 	 47.6576
| 33> H 	 46.8554 	 22.4642 	 46.9145
| 34> H 	 45.2662 	 22.9834 	 47.447
| 35> C 	 46.6543 	 22.3336 	 49.0123
| 36> H 	 46.0328 	 22.8111 	 49.7827
| 37> H 	 47.7133 	 22.3583 	 49.2777
| 38> H 	 46.1538 	 21.3034 	 48.999
| 39> H 	 47.6143 	 23.9759 	 41.4896
| 40> H 	 51.3393 	 24.3427 	 48.8287
| 41> *
| 42>
| 43>                          ****END OF INPUT****

CARTESIAN COORDINATES (ANGSTROEM)
---------------------------------
  S     49.277800   23.928500   43.377400
  C     47.910900   24.487100   42.389400
  C     47.179700   25.523000   42.946700
  C     47.508200   25.641100   44.325200
  C     48.552600   24.840800   44.762800
  H     46.959200   26.278200   45.039800
  C     45.955500   26.293600   42.284400
  H     46.023000   26.371800   41.206800
  H     46.016300   27.308600   42.674600
  C     44.515800   25.833500   42.868100
  H     44.508900   25.624000   43.972100
  H     43.703400   26.568600   42.685400
  C     44.014000   24.512500   42.160000
  H     43.030400   24.149500   42.313600
  H     44.152200   24.560800   41.136800
  H     44.743900   23.710700   42.463600
  S     50.743000   24.601200   46.437000
  C     50.525100   24.390500   48.168400
  C     49.201500   24.418900   48.488500
  C     48.296500   24.581400   47.357400
  C     48.968900   24.744100   46.155900
  H     48.882100   24.339600   49.497300
  C     46.807900   24.455700   47.561500
  H     46.339300   24.900200   46.638900
  H     46.434300   25.044800   48.372700
  C     46.345500   23.014900   47.657600
  H     46.855400   22.464200   46.914500
  H     45.266200   22.983400   47.447000
  C     46.654300   22.333600   49.012300
  H     46.032800   22.811100   49.782700
  H     47.713300   22.358300   49.277700
  H     46.153800   21.303400   48.999000
  H     47.614300   23.975900   41.489600
  H     51.339300   24.342700   48.828700

 Total Charge           Charge          ....    0
 Multiplicity           Mult            ....    1
 Number of Electrons    NEL             ....  134
 Basis Dimension        Dim             ....  322

ORBITAL ENERGIES
----------------

  NO   OCC          E(Eh)            E(eV)
   0   2.0000     -88.971717     -2421.0435
   1   2.0000     -88.960392     -2420.7353
   2   2.0000     -10.336416      -281.2682
   3   2.0000     -10.333011      -281.1755
   4   2.0000     -10.319490      -280.8076
   5   2.0000     -10.315649      -280.7031
   6   2.0000     -10.311410      -280.5877
   7   2.0000     -10.311080      -280.5788
   8   2.0000     -10.306436      -280.4524
   9   2.0000     -10.305887      -280.4374
  10   2.0000     -10.299983      -280.2768
  11   2.0000     -10.292939      -280.0851
  12   2.0000     -10.289755      -279.9985
  13   2.0000     -10.282060      -279.7891
  14   2.0000     -10.280905      -279.7577
  15   2.0000     -10.272609      -279.5319
  16   2.0000      -8.085061      -220.0057
  17   2.0000      -8.074802      -219.7265
  18   2.0000      -6.043759      -164.4591
  19   2.0000      -6.040036      -164.3577
  20   2.0000      -6.035420      -164.2321
  21   2.0000      -6.033484      -164.1794
  22   2.0000      -6.029404      -164.0684
  23   2.0000      -6.025361      -163.9584
  24   2.0000      -0.999945       -27.2099
  25   2.0000      -0.978485       -26.6259
  26   2.0000      -0.910612       -24.7790
  27   2.0000      -0.896847       -24.4045
  28   2.0000      -0.868482       -23.6326
  29   2.0000      -0.847574       -23.0637
  30   2.0000      -0.838939       -22.8287
  31   2.0000      -0.812409       -22.1068
  32   2.0000      -0.784193       -21.3390
  33   2.0000      -0.774714       -21.0810
  34   2.0000      -0.709391       -19.3035
  35   2.0000      -0.700361       -19.0578
  36   2.0000      -0.690335       -18.7850
  37   2.0000      -0.666314       -18.1313
  38   2.0000      -0.639171       -17.3927
  39   2.0000      -0.621512       -16.9122
  40   2.0000      -0.601250       -16.3609
  41   2.0000      -0.564195       -15.3525
  42   2.0000      -0.553246       -15.0546
  43   2.0000      -0.547217       -14.8905
  44   2.0000      -0.538610       -14.6563
  45   2.0000      -0.533382       -14.5141
  46   2.0000      -0.520002       -14.1500
  47   2.0000      -0.512297       -13.9403
  48   2.0000      -0.500141       -13.6095
  49   2.0000      -0.493743       -13.4354
  50   2.0000      -0.488171       -13.2838
  51   2.0000      -0.482712       -13.1353
  52   2.0000      -0.474606       -12.9147
  53   2.0000      -0.464266       -12.6333
  54   2.0000      -0.459138       -12.4938
  55   2.0000      -0.444676       -12.1002
  56   2.0000      -0.441617       -12.0170
  57   2.0000      -0.439757       -11.9664
  58   2.0000      -0.432615       -11.7721
  59   2.0000      -0.424322       -11.5464
  60   2.0000      -0.417409       -11.3583
  61   2.0000      -0.414820       -11.2878
  62   2.0000      -0.412445       -11.2232
  63   2.0000      -0.355132        -9.6636
  64   2.0000      -0.336485        -9.1562
  65   2.0000      -0.328430        -8.9370
  66   2.0000      -0.285514        -7.7692
  67   0.0000       0.023030         0.6267
  68   0.0000       0.060893         1.6570
  69   0.0000       0.100315         2.7297
  70   0.0000       0.116238         3.1630
  71   0.0000       0.128605         3.4995

MULLIKEN ATOMIC CHARGES
-----------------------
   0 S :    0.115492
   1 C :   -0.135142
   2 C :   -0.051370
   3 C :   -0.013929
   4 C :   -0.116100
   5 H :    0.032270
   6 C :    0.065476
   7 H :    0.039911
   8 H :    0.035380
   9 C :   -0.114143
  10 H :    0.047780
  11 H :    0.043154
  12 C :   -0.042567
  13 H :    0.033073
  14 H :    0.006381
  15 H :    0.029694
  16 S :    0.067189
  17 C :   -0.062016
  18 C :   -0.020415
  19 C :   -0.068076
  20 C :   -0.155684
  21 H :    0.012629
  22 C :    0.073626
  23 H :    0.013035
  24 H :    0.020729
  25 C :   -0.043348
  26 H :    0.025396
  27 H :    0.031519
  28 C :   -0.080118
  29 H :    0.019748
  30 H :    0.052534
  31 H :    0.043332
  32 H :    0.051167
  33 H :    0.043394
Sum of atomic charges:   -0.0000000

LOEWDIN ATOMIC CHARGES
----------------------
   0 S :    0.369507
   1 C :   -0.179079
   2 C :   -0.061178
   3 C :   -0.059781
   4 C :   -0.177399
   5 H :    0.035119
   6 C :   -0.020631
   7 H :    0.030869
   8 H :    0.035807
   9 C :   -0.040280
  10 H :    0.029691
  11 H :    0.025095
  12 C :   -0.070988
  13 H :    0.019825
  14 H :    0.010597
  15 H :    0.030983
  16 S :    0.365793
  17 C :   -0.165466
  18 C :   -0.068504
  19 C :   -0.055238
  20 C :   -0.173769
  21 H :    0.025385
  22 C :   -0.035324
  23 H :    0.033794
  24 H :    0.024988
  25 C :   -0.034378
  26 H :    0.021612
  27 H :    0.027282
  28 C :   -0.074539
  29 H :    0.021123
  30 H :    0.025714
  31 H :    0.037130
  32 H :    0.025284
  33 H :    0.020956

  Mayer bond orders larger than 0.100000
B(  0-S ,  1-C ) :   1.1314 B(  0-S ,  4-C ) :   1.1078 B(  1-C ,  2-C ) :   1.6256
B(  1-C , 32-H ) :   0.9672 B(  2-C ,  3-C ) :   1.2153 B(  2-C ,  6-C ) :   1.0206
B(  3-C ,  4-C ) :   1.6011 B(  3-C ,  5-H ) :   0.9827 B(  4-C , 20-C ) :   1.0724
B(  6-C ,  7-H ) :   0.9549 B(  6-C ,  8-H ) :   0.9396 B(  6-C ,  9-C ) :   1.0422
B(  9-C , 10-H ) :   0.9630 B(  9-C , 11-H ) :   0.9630 B(  9-C , 12-C ) :   1.0582
B( 12-C , 13-H ) :   0.9788 B( 12-C , 14-H ) :   0.9774 B( 12-C , 15-H ) :   0.9775
B( 16-S , 17-C ) :   1.1380 B( 16-S , 20-C ) :   1.1121 B( 17-C , 18-C ) :   1.6257
B( 17-C , 33-H ) :   0.9753 B( 18-C , 19-C ) :   1.2087 B( 18-C , 21-H ) :   0.9891
B( 19-C , 20-C ) :   1.6285 B( 19-C , 22-C ) :   1.0519 B( 22-C , 23-H ) :   0.9250
B( 22-C , 24-H ) :   0.9337 B( 22-C , 25-C ) :   1.0715 B( 25-C , 26-H ) :   0.9504
B( 25-C , 27-H ) :   0.9547 B( 25-C , 28-C ) :   1.0861 B( 28-C , 29-H ) :   0.9741
B( 28-C , 30-H ) :   0.9677 B( 28-C , 31-H ) :   0.9708

Dispersion correction           -0.014794136
FINAL SINGLE POINT ENERGY     -1339.865611078481

DIPOLE MOMENT
-------------
                                X             Y             Z
Electronic contribution:     28.32174       2.40020      -2.92908
Nuclear contribution   :    -29.11559      -2.30203       3.05882
                        -----------------------------------------
Total Dipole Moment    :     -0.79385       0.09817       0.12975
                        -----------------------------------------
Magnitude (a.u.)       :      0.81036
Magnitude (Debye)      :      2.05976

Rotational constants in cm-1:     0.019081     0.008903     0.006829
Rotational constants in MHz :   572.048427   266.895735   204.729818

                             ****ORCA TERMINATED NORMALLY****
TOTAL RUN TIME: 0 days 0 hours 0 minutes 34 seconds 899 msec
