                         Program Version 4.2.1 -  RELEASE  -
|  1> ! wB97X-D3 SP def2-SVP
|  2> %pal
|  3> nprocs 16
|  4> end
|  5>
|  6> * xyz 0 1
|  7> S 	 -46.2891 	 38.054 	 83.2081
|  8> C 	 -47.1348 	 38.6384 	 84.6154
|  9> C 	 -46.408 	 39.5753 	 85.3153
| 10> C 	 -45.1311 	 39.7917 	 84.7078
| 11> C 	 -44.8262 	 38.9808 	 83.6511
| 12> H 	 -44.2943 	 40.4383 	 85.0634
| 13> C 	 -46.8047 	 40.3028 	 86.5941
| 14> H 	 -47.8547 	 40.7583 	 86.4018
| 15> H 	 -46.1876 	 41.2693 	 86.8966
| 16> C 	 -47.0502 	 39.4045 	 87.7974
| 17> H 	 -47.6767 	 39.9126 	 88.5502
| 18> H 	 -47.6992 	 38.6234 	 87.5986
| 19> C 	 -45.8241 	 38.9136 	 88.5383
| 20> H 	 -46.073 	 38.3261 	 89.4074
| 21> H 	 -44.9604 	 38.5478 	 87.9068
| 22> H 	 -45.3852 	 39.812 	 88.9577
| 23> S 	 -42.963 	 40.4414 	 82.4501
| 24> C 	 -41.6003 	 39.7538 	 81.6329
| 25> C 	 -41.7516 	 38.3874 	 81.5054
| 26> C 	 -42.8738 	 37.9074 	 82.2813
| 27> C 	 -43.5907 	 38.9331 	 82.8903
| 28> H 	 -41.0418 	 37.7553 	 80.9265
| 29> C 	 -43.2455 	 36.4271 	 82.4073
| 30> H 	 -43.7104 	 36.3214 	 83.4305
| 31> H 	 -42.3532 	 35.8719 	 82.4365
| 32> C 	 -44.26 	 35.7589 	 81.4499
| 33> H 	 -45.2904 	 36.034 	 81.5879
| 34> H 	 -44.1935 	 34.6844 	 81.6364
| 35> C 	 -44.1146 	 36.2699 	 80.0412
| 36> H 	 -44.7117 	 35.7167 	 79.3978
| 37> H 	 -43.0864 	 35.9134 	 79.6708
| 38> H 	 -44.1494 	 37.3717 	 79.8553
| 39> H 	 -48.046 	 38.3407 	 85.0465
| 40> H 	 -40.8503 	 40.3198 	 81.1193
| 41> *
| 42>
| 43>                          ****END OF INPUT****

CARTESIAN COORDINATES (ANGSTROEM)
---------------------------------
  S    -46.289100   38.054000   83.208100
  C    -47.134800   38.638400   84.615400
  C    -46.408000   39.575300   85.315300
  C    -45.131100   39.791700   84.707800
  C    -44.826200   38.980800   83.651100
  H    -44.294300   40.438300   85.063400
  C    -46.804700   40.302800   86.594100
  H    -47.854700   40.758300   86.401800
  H    -46.187600   41.269300   86.896600
  C    -47.050200   39.404500   87.797400
  H    -47.676700   39.912600   88.550200
  H    -47.699200   38.623400   87.598600
  C    -45.824100   38.913600   88.538300
  H    -46.073000   38.326100   89.407400
  H    -44.960400   38.547800   87.906800
  H    -45.385200   39.812000   88.957700
  S    -42.963000   40.441400   82.450100
  C    -41.600300   39.753800   81.632900
  C    -41.751600   38.387400   81.505400
  C    -42.873800   37.907400   82.281300
  C    -43.590700   38.933100   82.890300
  H    -41.041800   37.755300   80.926500
  C    -43.245500   36.427100   82.407300
  H    -43.710400   36.321400   83.430500
  H    -42.353200   35.871900   82.436500
  C    -44.260000   35.758900   81.449900
  H    -45.290400   36.034000   81.587900
  H    -44.193500   34.684400   81.636400
  C    -44.114600   36.269900   80.041200
  H    -44.711700   35.716700   79.397800
  H    -43.086400   35.913400   79.670800
  H    -44.149400   37.371700   79.855300
  H    -48.046000   38.340700   85.046500
  H    -40.850300   40.319800   81.119300

 Total Charge           Charge          ....    0
 Multiplicity           Mult            ....    1
 Number of Electrons    NEL             ....  134
 Basis Dimension        Dim             ....  322

ORBITAL ENERGIES
----------------

  NO   OCC          E(Eh)            E(eV)
   0   2.0000     -88.969797     -2420.9913
   1   2.0000     -88.965251     -2420.8676
   2   2.0000     -10.330875      -281.1174
   3   2.0000     -10.322950      -280.9018
   4   2.0000     -10.315095      -280.6880
   5   2.0000     -10.311648      -280.5942
   6   2.0000     -10.310589      -280.5654
   7   2.0000     -10.305110      -280.4163
   8   2.0000     -10.304119      -280.3893
   9   2.0000     -10.299900      -280.2745
  10   2.0000     -10.295264      -280.1484
  11   2.0000     -10.287068      -279.9254
  12   2.0000     -10.281543      -279.7750
  13   2.0000     -10.279858      -279.7292
  14   2.0000     -10.274722      -279.5894
  15   2.0000     -10.272019      -279.5159
  16   2.0000      -8.083290      -219.9575
  17   2.0000      -8.081321      -219.9039
  18   2.0000      -6.042024      -164.4118
  19   2.0000      -6.039700      -164.3486
  20   2.0000      -6.037925      -164.3003
  21   2.0000      -6.035515      -164.2347
  22   2.0000      -6.033920      -164.1913
  23   2.0000      -6.032250      -164.1459
  24   2.0000      -1.013029       -27.5659
  25   2.0000      -0.987679       -26.8761
  26   2.0000      -0.912021       -24.8173
  27   2.0000      -0.906923       -24.6786
  28   2.0000      -0.875295       -23.8180
  29   2.0000      -0.850592       -23.1458
  30   2.0000      -0.844436       -22.9783
  31   2.0000      -0.816980       -22.2312
  32   2.0000      -0.781914       -21.2770
  33   2.0000      -0.772629       -21.0243
  34   2.0000      -0.708505       -19.2794
  35   2.0000      -0.703250       -19.1364
  36   2.0000      -0.688617       -18.7382
  37   2.0000      -0.667726       -18.1698
  38   2.0000      -0.634132       -17.2556
  39   2.0000      -0.609717       -16.5912
  40   2.0000      -0.591703       -16.1010
  41   2.0000      -0.575373       -15.6567
  42   2.0000      -0.553944       -15.0736
  43   2.0000      -0.552627       -15.0378
  44   2.0000      -0.546625       -14.8744
  45   2.0000      -0.536624       -14.6023
  46   2.0000      -0.517893       -14.0926
  47   2.0000      -0.506650       -13.7867
  48   2.0000      -0.503446       -13.6995
  49   2.0000      -0.494244       -13.4491
  50   2.0000      -0.487638       -13.2693
  51   2.0000      -0.483713       -13.1625
  52   2.0000      -0.473747       -12.8913
  53   2.0000      -0.468198       -12.7403
  54   2.0000      -0.463325       -12.6077
  55   2.0000      -0.447289       -12.1714
  56   2.0000      -0.442851       -12.0506
  57   2.0000      -0.435308       -11.8453
  58   2.0000      -0.425277       -11.5724
  59   2.0000      -0.423408       -11.5215
  60   2.0000      -0.419143       -11.4055
  61   2.0000      -0.408801       -11.1240
  62   2.0000      -0.391561       -10.6549
  63   2.0000      -0.352517        -9.5925
  64   2.0000      -0.334054        -9.0901
  65   2.0000      -0.326286        -8.8787
  66   2.0000      -0.293668        -7.9911
  67   0.0000       0.025687         0.6990
  68   0.0000       0.076632         2.0853
  69   0.0000       0.105974         2.8837
  70   0.0000       0.117101         3.1865
  71   0.0000       0.126855         3.4519

MULLIKEN ATOMIC CHARGES
-----------------------
   0 S :    0.111896
   1 C :   -0.068183
   2 C :   -0.059105
   3 C :   -0.010756
   4 C :   -0.132521
   5 H :    0.028360
   6 C :   -0.010694
   7 H :    0.044182
   8 H :    0.055715
   9 C :   -0.045537
  10 H :    0.016454
  11 H :    0.001003
  12 C :   -0.040228
  13 H :    0.035187
  14 H :    0.048042
  15 H :    0.006819
  16 S :    0.115760
  17 C :   -0.087542
  18 C :   -0.042545
  19 C :   -0.086692
  20 C :   -0.140440
  21 H :    0.036511
  22 C :    0.062224
  23 H :    0.034838
  24 H :    0.014977
  25 C :   -0.045801
  26 H :    0.023296
  27 H :    0.036530
  28 C :   -0.060770
  29 H :    0.014101
  30 H :    0.005759
  31 H :    0.067186
  32 H :    0.019151
  33 H :    0.052822
Sum of atomic charges:   -0.0000000

LOEWDIN ATOMIC CHARGES
----------------------
   0 S :    0.411338
   1 C :   -0.189675
   2 C :   -0.065072
   3 C :   -0.071457
   4 C :   -0.184079
   5 H :    0.036055
   6 C :   -0.043882
   7 H :    0.044154
   8 H :    0.045555
   9 C :   -0.047782
  10 H :    0.028520
  11 H :    0.010555
  12 C :   -0.072137
  13 H :    0.026382
  14 H :    0.034474
  15 H :    0.021569
  16 S :    0.448248
  17 C :   -0.192698
  18 C :   -0.070770
  19 C :   -0.061138
  20 C :   -0.218442
  21 H :    0.039166
  22 C :   -0.036232
  23 H :    0.038134
  24 H :    0.022783
  25 C :   -0.044951
  26 H :    0.010941
  27 H :    0.030487
  28 C :   -0.069859
  29 H :    0.014035
  30 H :    0.021365
  31 H :    0.037271
  32 H :    0.020807
  33 H :    0.026335

  Mayer bond orders larger than 0.100000
B(  0-S ,  1-C ) :   1.1319 B(  0-S ,  4-C ) :   1.1191 B(  1-C ,  2-C ) :   1.6370
B(  1-C , 32-H ) :   0.9636 B(  2-C ,  3-C ) :   1.2249 B(  2-C ,  6-C ) :   1.0057
B(  3-C ,  4-C ) :   1.5931 B(  3-C ,  5-H ) :   0.9869 B(  4-C , 20-C ) :   1.0467
B(  6-C ,  7-H ) :   0.9328 B(  6-C ,  8-H ) :   0.9538 B(  6-C ,  9-C ) :   1.0784
B(  9-C , 10-H ) :   0.9470 B(  9-C , 11-H ) :   0.9528 B(  9-C , 12-C ) :   1.0760
B( 12-C , 13-H ) :   0.9716 B( 12-C , 14-H ) :   0.9761 B( 12-C , 15-H ) :   0.9699
B( 16-S , 17-C ) :   1.1674 B( 16-S , 20-C ) :   1.1659 B( 17-C , 18-C ) :   1.5831
B( 17-C , 33-H ) :   0.9720 B( 18-C , 19-C ) :   1.2554 B( 18-C , 21-H ) :   0.9857
B( 19-C , 20-C ) :   1.5586 B( 19-C , 22-C ) :   1.0491 B( 22-C , 23-H ) :   0.9324
B( 22-C , 24-H ) :   0.9352 B( 22-C , 25-C ) :   1.0661 B( 25-C , 26-H ) :   0.9481
B( 25-C , 27-H ) :   0.9530 B( 25-C , 28-C ) :   1.0820 B( 28-C , 29-H ) :   0.9710
B( 28-C , 30-H ) :   0.9721 B( 28-C , 31-H ) :   0.9654

Dispersion correction           -0.015038556
FINAL SINGLE POINT ENERGY     -1339.860527251705

DIPOLE MOMENT
-------------
                                X             Y             Z
Electronic contribution:      3.83407       9.27953     -10.32475
Nuclear contribution   :     -3.85913      -9.37949      10.57574
                        -----------------------------------------
Total Dipole Moment    :     -0.02506      -0.09996       0.25099
                        -----------------------------------------
Magnitude (a.u.)       :      0.27132
Magnitude (Debye)      :      0.68964

Rotational constants in cm-1:     0.022852     0.008217     0.006958
Rotational constants in MHz :   685.084708   246.352135   208.592718

                             ****ORCA TERMINATED NORMALLY****
TOTAL RUN TIME: 0 days 0 hours 0 minutes 28 seconds 709 msec
