                         Program Version 4.2.1 -  RELEASE  -
|  1> ! wB97X-D3 SP def2-SVP
|  2> %pal
|  3> nprocs 16
|  4> end
|  5>
|  6> * xyz 0 1
|  7> S 	 47.396 	 -0.359378 	 86.3604
|  8> C 	 48.6159 	 -0.834605 	 85.1701
|  9> C 	 49.8168 	 -0.284835 	 85.524
| 10> C 	 49.8171 	 0.33646 	 86.7755
| 11> C 	 48.6275 	 0.341946 	 87.4146
| 12> H 	 50.7082 	 0.736524 	 87.2586
| 13> C 	 51.0779 	 -0.564146 	 84.7375
| 14> H 	 50.7476 	 -0.674377 	 83.7413
| 15> H 	 51.4149 	 -1.53958 	 85.0054
| 16> C 	 52.094 	 0.507721 	 84.6664
| 17> H 	 51.6443 	 1.36286 	 84.2098
| 18> H 	 52.3317 	 0.929184 	 85.6711
| 19> C 	 53.3582 	 0.0128911 	 84.0246
| 20> H 	 53.169 	 -0.358684 	 83.0039
| 21> H 	 54.0608 	 0.843272 	 83.8152
| 22> H 	 53.8785 	 -0.776426 	 84.6239
| 23> S 	 47.6966 	 2.48632 	 88.9137
| 24> C 	 47.8302 	 2.34761 	 90.6083
| 25> C 	 48.3564 	 1.13108 	 90.9981
| 26> C 	 48.7392 	 0.304025 	 89.9456
| 27> C 	 48.3318 	 0.839881 	 88.7575
| 28> H 	 48.4677 	 1.14365 	 92.0667
| 29> C 	 49.2974 	 -1.0296 	 90.2484
| 30> H 	 49.4897 	 -1.50268 	 89.338
| 31> H 	 48.516 	 -1.63927 	 90.702
| 32> C 	 50.5863 	 -1.03188 	 90.9881
| 33> H 	 50.5138 	 -0.328317 	 91.844
| 34> H 	 51.4122 	 -0.690642 	 90.2798
| 35> C 	 51.1038 	 -2.40424 	 91.4909
| 36> H 	 50.4614 	 -2.79117 	 92.3627
| 37> H 	 52.1379 	 -2.33363 	 91.856
| 38> H 	 51.1645 	 -3.13253 	 90.6956
| 39> H 	 48.5755 	 -1.45886 	 84.2971
| 40> H 	 47.4824 	 3.03255 	 91.3492
| 41> *
| 42>
| 43>                          ****END OF INPUT****

CARTESIAN COORDINATES (ANGSTROEM)
---------------------------------
  S     47.396000   -0.359378   86.360400
  C     48.615900   -0.834605   85.170100
  C     49.816800   -0.284835   85.524000
  C     49.817100    0.336460   86.775500
  C     48.627500    0.341946   87.414600
  H     50.708200    0.736524   87.258600
  C     51.077900   -0.564146   84.737500
  H     50.747600   -0.674377   83.741300
  H     51.414900   -1.539580   85.005400
  C     52.094000    0.507721   84.666400
  H     51.644300    1.362860   84.209800
  H     52.331700    0.929184   85.671100
  C     53.358200    0.012891   84.024600
  H     53.169000   -0.358684   83.003900
  H     54.060800    0.843272   83.815200
  H     53.878500   -0.776426   84.623900
  S     47.696600    2.486320   88.913700
  C     47.830200    2.347610   90.608300
  C     48.356400    1.131080   90.998100
  C     48.739200    0.304025   89.945600
  C     48.331800    0.839881   88.757500
  H     48.467700    1.143650   92.066700
  C     49.297400   -1.029600   90.248400
  H     49.489700   -1.502680   89.338000
  H     48.516000   -1.639270   90.702000
  C     50.586300   -1.031880   90.988100
  H     50.513800   -0.328317   91.844000
  H     51.412200   -0.690642   90.279800
  C     51.103800   -2.404240   91.490900
  H     50.461400   -2.791170   92.362700
  H     52.137900   -2.333630   91.856000
  H     51.164500   -3.132530   90.695600
  H     48.575500   -1.458860   84.297100
  H     47.482400    3.032550   91.349200

 Total Charge           Charge          ....    0
 Multiplicity           Mult            ....    1
 Number of Electrons    NEL             ....  134
 Basis Dimension        Dim             ....  322

ORBITAL ENERGIES
----------------

  NO   OCC          E(Eh)            E(eV)
   0   2.0000     -88.965973     -2420.8872
   1   2.0000     -88.963041     -2420.8074
   2   2.0000     -10.323858      -280.9265
   3   2.0000     -10.322816      -280.8981
   4   2.0000     -10.309918      -280.5471
   5   2.0000     -10.309346      -280.5316
   6   2.0000     -10.298271      -280.2302
   7   2.0000     -10.291791      -280.0539
   8   2.0000     -10.290262      -280.0123
   9   2.0000     -10.286255      -279.9032
  10   2.0000     -10.285409      -279.8802
  11   2.0000     -10.284033      -279.8428
  12   2.0000     -10.283999      -279.8418
  13   2.0000     -10.282272      -279.7949
  14   2.0000     -10.279705      -279.7250
  15   2.0000     -10.279363      -279.7157
  16   2.0000      -8.081239      -219.9017
  17   2.0000      -8.077170      -219.7910
  18   2.0000      -6.039560      -164.3448
  19   2.0000      -6.035774      -164.2418
  20   2.0000      -6.035767      -164.2416
  21   2.0000      -6.032071      -164.1410
  22   2.0000      -6.031742      -164.1320
  23   2.0000      -6.027868      -164.0266
  24   2.0000      -1.011328       -27.5196
  25   2.0000      -0.990297       -26.9474
  26   2.0000      -0.922419       -25.1003
  27   2.0000      -0.918354       -24.9897
  28   2.0000      -0.872237       -23.7348
  29   2.0000      -0.854223       -23.2446
  30   2.0000      -0.845365       -23.0036
  31   2.0000      -0.818496       -22.2724
  32   2.0000      -0.788067       -21.4444
  33   2.0000      -0.773709       -21.0537
  34   2.0000      -0.715217       -19.4621
  35   2.0000      -0.695952       -18.9378
  36   2.0000      -0.693402       -18.8684
  37   2.0000      -0.655757       -17.8440
  38   2.0000      -0.641935       -17.4679
  39   2.0000      -0.623200       -16.9581
  40   2.0000      -0.604208       -16.4413
  41   2.0000      -0.575372       -15.6567
  42   2.0000      -0.570726       -15.5303
  43   2.0000      -0.565005       -15.3746
  44   2.0000      -0.528292       -14.3756
  45   2.0000      -0.526227       -14.3194
  46   2.0000      -0.515470       -14.0266
  47   2.0000      -0.511769       -13.9259
  48   2.0000      -0.508380       -13.8337
  49   2.0000      -0.500858       -13.6290
  50   2.0000      -0.495628       -13.4867
  51   2.0000      -0.476370       -12.9627
  52   2.0000      -0.471070       -12.8185
  53   2.0000      -0.467685       -12.7264
  54   2.0000      -0.461550       -12.5594
  55   2.0000      -0.450072       -12.2471
  56   2.0000      -0.447285       -12.1712
  57   2.0000      -0.441628       -12.0173
  58   2.0000      -0.431853       -11.7513
  59   2.0000      -0.423857       -11.5337
  60   2.0000      -0.414907       -11.2902
  61   2.0000      -0.414403       -11.2765
  62   2.0000      -0.410882       -11.1807
  63   2.0000      -0.338231        -9.2037
  64   2.0000      -0.331565        -9.0223
  65   2.0000      -0.324812        -8.8386
  66   2.0000      -0.306863        -8.3502
  67   0.0000       0.045936         1.2500
  68   0.0000       0.055126         1.5000
  69   0.0000       0.122595         3.3360
  70   0.0000       0.125636         3.4187
  71   0.0000       0.127964         3.4821

MULLIKEN ATOMIC CHARGES
-----------------------
   0 S :    0.107612
   1 C :   -0.108133
   2 C :   -0.099422
   3 C :    0.042988
   4 C :   -0.185109
   5 H :    0.011203
   6 C :    0.104405
   7 H :   -0.002975
   8 H :    0.028496
   9 C :   -0.073263
  10 H :    0.021527
  11 H :    0.023876
  12 C :   -0.052866
  13 H :    0.024733
  14 H :    0.034256
  15 H :    0.045444
  16 S :    0.126868
  17 C :   -0.094543
  18 C :   -0.051597
  19 C :    0.013073
  20 C :   -0.181006
  21 H :    0.011782
  22 C :    0.150224
  23 H :   -0.004239
  24 H :    0.037152
  25 C :   -0.131675
  26 H :    0.034996
  27 H :    0.036353
  28 C :   -0.055178
  29 H :    0.043097
  30 H :    0.036387
  31 H :    0.028315
  32 H :    0.033475
  33 H :    0.043743
Sum of atomic charges:   -0.0000000

LOEWDIN ATOMIC CHARGES
----------------------
   0 S :    0.389357
   1 C :   -0.189850
   2 C :   -0.067756
   3 C :   -0.064636
   4 C :   -0.190012
   5 H :    0.033192
   6 C :   -0.029052
   7 H :    0.025625
   8 H :    0.028369
   9 C :   -0.046446
  10 H :    0.025430
  11 H :    0.022424
  12 C :   -0.067115
  13 H :    0.024732
  14 H :    0.029444
  15 H :    0.032241
  16 S :    0.419055
  17 C :   -0.192361
  18 C :   -0.075641
  19 C :   -0.047791
  20 C :   -0.197345
  21 H :    0.031199
  22 C :   -0.031195
  23 H :    0.023231
  24 H :    0.038297
  25 C :   -0.044190
  26 H :    0.022620
  27 H :    0.033069
  28 C :   -0.070604
  29 H :    0.031827
  30 H :    0.028505
  31 H :    0.021065
  32 H :    0.029288
  33 H :    0.025023

  Mayer bond orders larger than 0.100000
B(  0-S ,  1-C ) :   1.1275 B(  0-S ,  4-C ) :   1.1407 B(  1-C ,  2-C ) :   1.6302
B(  1-C , 32-H ) :   0.9705 B(  2-C ,  3-C ) :   1.2341 B(  2-C ,  6-C ) :   1.0080
B(  3-C ,  4-C ) :   1.6060 B(  3-C ,  5-H ) :   0.9979 B(  4-C , 20-C ) :   0.9970
B(  6-C ,  7-H ) :   0.9263 B(  6-C ,  8-H ) :   0.9432 B(  6-C ,  9-C ) :   1.0651
B(  9-C , 10-H ) :   0.9508 B(  9-C , 11-H ) :   0.9503 B(  9-C , 12-C ) :   1.0903
B( 12-C , 13-H ) :   0.9709 B( 12-C , 14-H ) :   0.9709 B( 12-C , 15-H ) :   0.9742
B( 16-S , 17-C ) :   1.1647 B( 16-S , 20-C ) :   1.1500 B( 17-C , 18-C ) :   1.6379
B( 17-C , 33-H ) :   0.9642 B( 18-C , 19-C ) :   1.2018 B( 18-C , 21-H ) :   0.9931
B( 19-C , 20-C ) :   1.6085 B( 19-C , 22-C ) :   1.0519 B( 22-C , 23-H ) :   0.9058
B( 22-C , 24-H ) :   0.9353 B( 22-C , 25-C ) :   1.0579 B( 25-C , 26-H ) :   0.9623
B( 25-C , 27-H ) :   0.9492 B( 25-C , 28-C ) :   1.0873 B( 28-C , 29-H ) :   0.9741
B( 28-C , 30-H ) :   0.9747 B( 28-C , 31-H ) :   0.9725

Dispersion correction           -0.013742110
FINAL SINGLE POINT ENERGY     -1339.873247111567

DIPOLE MOMENT
-------------
                                X             Y             Z
Electronic contribution:    -26.04817      12.13595      -0.33506
Nuclear contribution   :     26.69059     -12.36869       0.47387
                        -----------------------------------------
Total Dipole Moment    :      0.64242      -0.23274       0.13881
                        -----------------------------------------
Magnitude (a.u.)       :      0.69724
Magnitude (Debye)      :      1.77223

Rotational constants in cm-1:     0.016173     0.008504     0.006922
Rotational constants in MHz :   484.850980   254.930348   207.511903

                             ****ORCA TERMINATED NORMALLY****
TOTAL RUN TIME: 0 days 0 hours 0 minutes 30 seconds 854 msec
