                         Program Version 4.2.1 -  RELEASE  -
|  1> ! wB97X-D3 SP def2-SVP
|  2> %pal
|  3> nprocs 16
|  4> end
|  5>
|  6> * xyz 0 1
|  7> S 	 -56.58 	 27.7742 	 99.4634
|  8> C 	 -54.8704 	 27.7312 	 99.8947
|  9> C 	 -54.4868 	 26.397 	 100.099
| 10> C 	 -55.5985 	 25.4916 	 99.8951
| 11> C 	 -56.7394 	 26.0698 	 99.4024
| 12> H 	 -55.6068 	 24.4433 	 99.9959
| 13> C 	 -53.0917 	 26.0244 	 100.484
| 14> H 	 -52.4622 	 26.8688 	 100.378
| 15> H 	 -52.6336 	 25.3527 	 99.7704
| 16> C 	 -53.1182 	 25.3721 	 101.934
| 17> H 	 -53.6806 	 25.9004 	 102.65
| 18> H 	 -53.6375 	 24.4583 	 101.888
| 19> C 	 -51.7371 	 25.1846 	 102.518
| 20> H 	 -51.6525 	 24.7992 	 103.5
| 21> H 	 -51.254 	 24.4938 	 101.887
| 22> H 	 -51.193 	 26.1752 	 102.506
| 23> S 	 -59.422 	 25.7128 	 100.064
| 24> C 	 -60.3969 	 24.6576 	 99.1458
| 25> C 	 -59.6622 	 23.9875 	 98.2104
| 26> C 	 -58.2859 	 24.3513 	 98.1856
| 27> C 	 -57.9752 	 25.3086 	 99.122
| 28> H 	 -60.0687 	 23.1993 	 97.6325
| 29> C 	 -57.2094 	 23.7531 	 97.2718
| 30> H 	 -57.6208 	 22.874 	 96.7727
| 31> H 	 -56.4669 	 23.4636 	 97.9176
| 32> C 	 -56.483 	 24.6628 	 96.2309
| 33> H 	 -55.9027 	 25.3687 	 96.7706
| 34> H 	 -57.1526 	 25.1901 	 95.5047
| 35> C 	 -55.3621 	 23.8315 	 95.4945
| 36> H 	 -54.8243 	 23.0431 	 96.0698
| 37> H 	 -54.6602 	 24.5902 	 95.1359
| 38> H 	 -55.7715 	 23.2587 	 94.6842
| 39> H 	 -54.2397 	 28.5513 	 100.007
| 40> H 	 -61.389 	 24.3516 	 99.3836
| 41> *
| 42>
| 43>                          ****END OF INPUT****

CARTESIAN COORDINATES (ANGSTROEM)
---------------------------------
  S    -56.580000   27.774200   99.463400
  C    -54.870400   27.731200   99.894700
  C    -54.486800   26.397000  100.099000
  C    -55.598500   25.491600   99.895100
  C    -56.739400   26.069800   99.402400
  H    -55.606800   24.443300   99.995900
  C    -53.091700   26.024400  100.484000
  H    -52.462200   26.868800  100.378000
  H    -52.633600   25.352700   99.770400
  C    -53.118200   25.372100  101.934000
  H    -53.680600   25.900400  102.650000
  H    -53.637500   24.458300  101.888000
  C    -51.737100   25.184600  102.518000
  H    -51.652500   24.799200  103.500000
  H    -51.254000   24.493800  101.887000
  H    -51.193000   26.175200  102.506000
  S    -59.422000   25.712800  100.064000
  C    -60.396900   24.657600   99.145800
  C    -59.662200   23.987500   98.210400
  C    -58.285900   24.351300   98.185600
  C    -57.975200   25.308600   99.122000
  H    -60.068700   23.199300   97.632500
  C    -57.209400   23.753100   97.271800
  H    -57.620800   22.874000   96.772700
  H    -56.466900   23.463600   97.917600
  C    -56.483000   24.662800   96.230900
  H    -55.902700   25.368700   96.770600
  H    -57.152600   25.190100   95.504700
  C    -55.362100   23.831500   95.494500
  H    -54.824300   23.043100   96.069800
  H    -54.660200   24.590200   95.135900
  H    -55.771500   23.258700   94.684200
  H    -54.239700   28.551300  100.007000
  H    -61.389000   24.351600   99.383600

 Total Charge           Charge          ....    0
 Multiplicity           Mult            ....    1
 Number of Electrons    NEL             ....  134
 Basis Dimension        Dim             ....  322

ORBITAL ENERGIES
----------------

  NO   OCC          E(Eh)            E(eV)
   0   2.0000     -88.965451     -2420.8730
   1   2.0000     -88.963026     -2420.8070
   2   2.0000     -10.327647      -281.0296
   3   2.0000     -10.325574      -280.9732
   4   2.0000     -10.313007      -280.6312
   5   2.0000     -10.311164      -280.5810
   6   2.0000     -10.305274      -280.4208
   7   2.0000     -10.301241      -280.3110
   8   2.0000     -10.292787      -280.0810
   9   2.0000     -10.289902      -280.0025
  10   2.0000     -10.287839      -279.9463
  11   2.0000     -10.287097      -279.9261
  12   2.0000     -10.285923      -279.8942
  13   2.0000     -10.280383      -279.7434
  14   2.0000     -10.278244      -279.6852
  15   2.0000     -10.272426      -279.5269
  16   2.0000      -8.080364      -219.8779
  17   2.0000      -8.078355      -219.8232
  18   2.0000      -6.038908      -164.3270
  19   2.0000      -6.036814      -164.2701
  20   2.0000      -6.034746      -164.2138
  21   2.0000      -6.032647      -164.1567
  22   2.0000      -6.031160      -164.1162
  23   2.0000      -6.029271      -164.0648
  24   2.0000      -1.009096       -27.4589
  25   2.0000      -0.987812       -26.8797
  26   2.0000      -0.913221       -24.8500
  27   2.0000      -0.903619       -24.5887
  28   2.0000      -0.870312       -23.6824
  29   2.0000      -0.850741       -23.1498
  30   2.0000      -0.846091       -23.0233
  31   2.0000      -0.818852       -22.2821
  32   2.0000      -0.782177       -21.2841
  33   2.0000      -0.771785       -21.0013
  34   2.0000      -0.714202       -19.4344
  35   2.0000      -0.703446       -19.1418
  36   2.0000      -0.692909       -18.8550
  37   2.0000      -0.662934       -18.0393
  38   2.0000      -0.650408       -17.6985
  39   2.0000      -0.619041       -16.8450
  40   2.0000      -0.595260       -16.1979
  41   2.0000      -0.575068       -15.6484
  42   2.0000      -0.567194       -15.4341
  43   2.0000      -0.560399       -15.2492
  44   2.0000      -0.530658       -14.4399
  45   2.0000      -0.523077       -14.2336
  46   2.0000      -0.515372       -14.0240
  47   2.0000      -0.514045       -13.9879
  48   2.0000      -0.508818       -13.8456
  49   2.0000      -0.503558       -13.7025
  50   2.0000      -0.495243       -13.4762
  51   2.0000      -0.483310       -13.1515
  52   2.0000      -0.471285       -12.8243
  53   2.0000      -0.463856       -12.6222
  54   2.0000      -0.459127       -12.4935
  55   2.0000      -0.452464       -12.3122
  56   2.0000      -0.440857       -11.9963
  57   2.0000      -0.437272       -11.8988
  58   2.0000      -0.434781       -11.8310
  59   2.0000      -0.428028       -11.6472
  60   2.0000      -0.424403       -11.5486
  61   2.0000      -0.416137       -11.3237
  62   2.0000      -0.410010       -11.1569
  63   2.0000      -0.342389        -9.3169
  64   2.0000      -0.331640        -9.0244
  65   2.0000      -0.325144        -8.8476
  66   2.0000      -0.299666        -8.1543
  67   0.0000       0.037374         1.0170
  68   0.0000       0.066156         1.8002
  69   0.0000       0.120666         3.2835
  70   0.0000       0.126100         3.4314
  71   0.0000       0.133326         3.6280

MULLIKEN ATOMIC CHARGES
-----------------------
   0 S :    0.116678
   1 C :   -0.102746
   2 C :   -0.089738
   3 C :    0.033194
   4 C :   -0.143870
   5 H :   -0.000096
   6 C :    0.106291
   7 H :   -0.002540
   8 H :    0.027659
   9 C :   -0.062308
  10 H :    0.020820
  11 H :    0.018227
  12 C :   -0.023227
  13 H :    0.027769
  14 H :    0.013234
  15 H :    0.033274
  16 S :    0.110408
  17 C :   -0.065188
  18 C :   -0.034784
  19 C :   -0.025869
  20 C :   -0.191925
  21 H :   -0.000466
  22 C :    0.113141
  23 H :    0.013917
  24 H :   -0.006183
  25 C :   -0.070339
  26 H :    0.035853
  27 H :    0.046722
  28 C :   -0.073814
  29 H :    0.032338
  30 H :    0.041012
  31 H :    0.027144
  32 H :    0.027018
  33 H :    0.048396
Sum of atomic charges:   -0.0000000

LOEWDIN ATOMIC CHARGES
----------------------
   0 S :    0.417312
   1 C :   -0.187983
   2 C :   -0.053307
   3 C :   -0.063530
   4 C :   -0.207593
   5 H :    0.021170
   6 C :   -0.022641
   7 H :    0.022762
   8 H :    0.031647
   9 C :   -0.029619
  10 H :    0.019582
  11 H :    0.018360
  12 C :   -0.061880
  13 H :    0.020964
  14 H :    0.017162
  15 H :    0.031311
  16 S :    0.414714
  17 C :   -0.191294
  18 C :   -0.071681
  19 C :   -0.052610
  20 C :   -0.191910
  21 H :    0.024884
  22 C :   -0.024574
  23 H :    0.027290
  24 H :    0.018769
  25 C :   -0.029490
  26 H :    0.020203
  27 H :    0.030934
  28 C :   -0.069373
  29 H :    0.027894
  30 H :    0.029249
  31 H :    0.018834
  32 H :    0.016880
  33 H :    0.027565

  Mayer bond orders larger than 0.100000
B(  0-S ,  1-C ) :   1.1369 B(  0-S ,  4-C ) :   1.1588 B(  1-C ,  2-C ) :   1.5919
B(  1-C , 32-H ) :   0.9802 B(  2-C ,  3-C ) :   1.2260 B(  2-C ,  6-C ) :   1.0466
B(  3-C ,  4-C ) :   1.5738 B(  3-C ,  5-H ) :   0.9975 B(  4-C , 20-C ) :   1.0186
B(  6-C ,  7-H ) :   0.9391 B(  6-C ,  8-H ) :   0.9345 B(  6-C ,  9-C ) :   1.0350
B(  9-C , 10-H ) :   0.9612 B(  9-C , 11-H ) :   0.9549 B(  9-C , 12-C ) :   1.0918
B( 12-C , 13-H ) :   0.9736 B( 12-C , 14-H ) :   0.9727 B( 12-C , 15-H ) :   0.9753
B( 16-S , 17-C ) :   1.1683 B( 16-S , 20-C ) :   1.1438 B( 17-C , 18-C ) :   1.5923
B( 17-C , 33-H ) :   0.9658 B( 18-C , 19-C ) :   1.2619 B( 18-C , 21-H ) :   0.9959
B( 19-C , 20-C ) :   1.6032 B( 19-C , 22-C ) :   1.0294 B( 22-C , 23-H ) :   0.9382
B( 22-C , 24-H ) :   0.9241 B( 22-C , 25-C ) :   1.0698 B( 25-C , 26-H ) :   0.9576
B( 25-C , 27-H ) :   0.9586 B( 25-C , 28-C ) :   1.0659 B( 28-C , 29-H ) :   0.9750
B( 28-C , 30-H ) :   0.9792 B( 28-C , 31-H ) :   0.9785

Dispersion correction           -0.014298188
FINAL SINGLE POINT ENERGY     -1339.871883712303

DIPOLE MOMENT
-------------
                                X             Y             Z
Electronic contribution:    -24.56253      12.52783       4.40840
Nuclear contribution   :     25.03853     -13.04175      -4.46419
                        -----------------------------------------
Total Dipole Moment    :      0.47601      -0.51392      -0.05578
                        -----------------------------------------
Magnitude (a.u.)       :      0.70271
Magnitude (Debye)      :      1.78616

Rotational constants in cm-1:     0.017876     0.008409     0.007069
Rotational constants in MHz :   535.897549   252.084502   211.914095

                             ****ORCA TERMINATED NORMALLY****
TOTAL RUN TIME: 0 days 0 hours 0 minutes 29 seconds 200 msec
