                         Program Version 4.2.1 -  RELEASE  -
|  1> ! wB97X-D3 SP def2-SVP
|  2> %pal
|  3> nprocs 16
|  4> end
|  5>
|  6> * xyz 0 1
|  7> S 	 -1.64135 	 -16.2993 	 85.7354
|  8> C 	 -2.82227 	 -17.6097 	 85.854
|  9> C 	 -4.07777 	 -17.0687 	 85.784
| 10> C 	 -4.13333 	 -15.6419 	 85.5846
| 11> C 	 -2.88956 	 -15.0836 	 85.5015
| 12> H 	 -4.95728 	 -15.0143 	 85.6732
| 13> C 	 -5.33409 	 -17.8577 	 86.153
| 14> H 	 -6.0023 	 -17.2903 	 86.78
| 15> H 	 -5.01119 	 -18.6196 	 86.7918
| 16> C 	 -6.09204 	 -18.5197 	 85.0746
| 17> H 	 -6.49786 	 -17.7915 	 84.3434
| 18> H 	 -5.29114 	 -19.0472 	 84.5471
| 19> C 	 -7.19467 	 -19.4995 	 85.5424
| 20> H 	 -7.55225 	 -20.1548 	 84.6554
| 21> H 	 -6.69262 	 -20.2287 	 86.2307
| 22> H 	 -8.06493 	 -18.9905 	 85.8932
| 23> S 	 -1.96178 	 -13.068 	 87.1523
| 24> C 	 -2.19776 	 -11.3972 	 86.7091
| 25> C 	 -2.73819 	 -11.331 	 85.4391
| 26> C 	 -3.01744 	 -12.6001 	 84.8563
| 27> C 	 -2.70488 	 -13.6568 	 85.6792
| 28> H 	 -2.91447 	 -10.3631 	 85.0638
| 29> C 	 -3.53523 	 -12.7049 	 83.4755
| 30> H 	 -3.1303 	 -13.6496 	 83.0606
| 31> H 	 -3.16323 	 -11.8829 	 82.8191
| 32> C 	 -5.03176 	 -12.666 	 83.3824
| 33> H 	 -5.35783 	 -13.5818 	 83.8345
| 34> H 	 -5.38778 	 -12.6425 	 82.354
| 35> C 	 -5.8818 	 -11.6406 	 84.1143
| 36> H 	 -5.8725 	 -12.0086 	 85.1966
| 37> H 	 -6.88041 	 -11.461 	 83.762
| 38> H 	 -5.36461 	 -10.6786 	 84.1284
| 39> H 	 -2.55056 	 -18.6788 	 85.9933
| 40> H 	 -1.71112 	 -10.5009 	 87.1294
| 41> *
| 42>
| 43>                          ****END OF INPUT****

CARTESIAN COORDINATES (ANGSTROEM)
---------------------------------
  S     -1.641350  -16.299300   85.735400
  C     -2.822270  -17.609700   85.854000
  C     -4.077770  -17.068700   85.784000
  C     -4.133330  -15.641900   85.584600
  C     -2.889560  -15.083600   85.501500
  H     -4.957280  -15.014300   85.673200
  C     -5.334090  -17.857700   86.153000
  H     -6.002300  -17.290300   86.780000
  H     -5.011190  -18.619600   86.791800
  C     -6.092040  -18.519700   85.074600
  H     -6.497860  -17.791500   84.343400
  H     -5.291140  -19.047200   84.547100
  C     -7.194670  -19.499500   85.542400
  H     -7.552250  -20.154800   84.655400
  H     -6.692620  -20.228700   86.230700
  H     -8.064930  -18.990500   85.893200
  S     -1.961780  -13.068000   87.152300
  C     -2.197760  -11.397200   86.709100
  C     -2.738190  -11.331000   85.439100
  C     -3.017440  -12.600100   84.856300
  C     -2.704880  -13.656800   85.679200
  H     -2.914470  -10.363100   85.063800
  C     -3.535230  -12.704900   83.475500
  H     -3.130300  -13.649600   83.060600
  H     -3.163230  -11.882900   82.819100
  C     -5.031760  -12.666000   83.382400
  H     -5.357830  -13.581800   83.834500
  H     -5.387780  -12.642500   82.354000
  C     -5.881800  -11.640600   84.114300
  H     -5.872500  -12.008600   85.196600
  H     -6.880410  -11.461000   83.762000
  H     -5.364610  -10.678600   84.128400
  H     -2.550560  -18.678800   85.993300
  H     -1.711120  -10.500900   87.129400

 Total Charge           Charge          ....    0
 Multiplicity           Mult            ....    1
 Number of Electrons    NEL             ....  134
 Basis Dimension        Dim             ....  322

ORBITAL ENERGIES
----------------

  NO   OCC          E(Eh)            E(eV)
   0   2.0000     -88.968579     -2420.9581
   1   2.0000     -88.963872     -2420.8300
   2   2.0000     -10.330098      -281.0963
   3   2.0000     -10.325658      -280.9754
   4   2.0000     -10.323808      -280.9251
   5   2.0000     -10.315906      -280.7101
   6   2.0000     -10.305086      -280.4157
   7   2.0000     -10.298396      -280.2336
   8   2.0000     -10.293669      -280.1050
   9   2.0000     -10.289619      -279.9948
  10   2.0000     -10.289317      -279.9865
  11   2.0000     -10.288304      -279.9590
  12   2.0000     -10.283288      -279.8225
  13   2.0000     -10.280889      -279.7572
  14   2.0000     -10.277436      -279.6632
  15   2.0000     -10.276165      -279.6287
  16   2.0000      -8.082970      -219.9488
  17   2.0000      -8.078678      -219.8320
  18   2.0000      -6.041637      -164.4013
  19   2.0000      -6.037439      -164.2871
  20   2.0000      -6.037248      -164.2819
  21   2.0000      -6.033648      -164.1839
  22   2.0000      -6.033100      -164.1690
  23   2.0000      -6.029430      -164.0691
  24   2.0000      -1.011171       -27.5154
  25   2.0000      -0.987345       -26.8670
  26   2.0000      -0.918545       -24.9949
  27   2.0000      -0.915487       -24.9117
  28   2.0000      -0.875496       -23.8235
  29   2.0000      -0.849949       -23.1283
  30   2.0000      -0.846123       -23.0242
  31   2.0000      -0.819935       -22.3116
  32   2.0000      -0.784442       -21.3458
  33   2.0000      -0.774808       -21.0836
  34   2.0000      -0.709112       -19.2959
  35   2.0000      -0.696248       -18.9459
  36   2.0000      -0.685665       -18.6579
  37   2.0000      -0.664115       -18.0715
  38   2.0000      -0.650767       -17.7083
  39   2.0000      -0.622179       -16.9304
  40   2.0000      -0.593092       -16.1389
  41   2.0000      -0.577460       -15.7135
  42   2.0000      -0.568292       -15.4640
  43   2.0000      -0.554840       -15.0980
  44   2.0000      -0.550272       -14.9737
  45   2.0000      -0.523319       -14.2402
  46   2.0000      -0.522811       -14.2264
  47   2.0000      -0.513790       -13.9809
  48   2.0000      -0.506907       -13.7936
  49   2.0000      -0.502055       -13.6616
  50   2.0000      -0.491212       -13.3666
  51   2.0000      -0.480425       -13.0730
  52   2.0000      -0.473055       -12.8725
  53   2.0000      -0.468671       -12.7532
  54   2.0000      -0.466346       -12.6899
  55   2.0000      -0.450894       -12.2694
  56   2.0000      -0.449650       -12.2356
  57   2.0000      -0.431671       -11.7464
  58   2.0000      -0.427693       -11.6381
  59   2.0000      -0.418712       -11.3937
  60   2.0000      -0.414722       -11.2852
  61   2.0000      -0.408518       -11.1163
  62   2.0000      -0.402605       -10.9555
  63   2.0000      -0.347469        -9.4551
  64   2.0000      -0.331967        -9.0333
  65   2.0000      -0.328297        -8.9334
  66   2.0000      -0.303351        -8.2546
  67   0.0000       0.029897         0.8136
  68   0.0000       0.065104         1.7716
  69   0.0000       0.111676         3.0388
  70   0.0000       0.122543         3.3346
  71   0.0000       0.130598         3.5538

MULLIKEN ATOMIC CHARGES
-----------------------
   0 S :    0.102580
   1 C :   -0.135511
   2 C :   -0.075694
   3 C :    0.066270
   4 C :   -0.152150
   5 H :    0.004955
   6 C :    0.093834
   7 H :    0.012790
   8 H :   -0.010877
   9 C :   -0.077243
  10 H :    0.027946
  11 H :    0.016066
  12 C :   -0.064048
  13 H :    0.045210
  14 H :    0.038274
  15 H :    0.042052
  16 S :    0.108585
  17 C :   -0.100947
  18 C :   -0.039838
  19 C :   -0.042285
  20 C :   -0.163434
  21 H :    0.004900
  22 C :    0.090618
  23 H :    0.040174
  24 H :    0.027357
  25 C :   -0.068305
  26 H :    0.000619
  27 H :    0.025937
  28 C :   -0.059134
  29 H :    0.040590
  30 H :    0.040889
  31 H :    0.016529
  32 H :    0.072821
  33 H :    0.070472
Sum of atomic charges:   -0.0000000

LOEWDIN ATOMIC CHARGES
----------------------
   0 S :    0.394673
   1 C :   -0.189432
   2 C :   -0.058696
   3 C :   -0.041571
   4 C :   -0.193757
   5 H :    0.022669
   6 C :   -0.032502
   7 H :    0.025140
   8 H :    0.020423
   9 C :   -0.048565
  10 H :    0.023068
  11 H :    0.022845
  12 C :   -0.068658
  13 H :    0.038206
  14 H :    0.030029
  15 H :    0.021626
  16 S :    0.406676
  17 C :   -0.197107
  18 C :   -0.066048
  19 C :   -0.062070
  20 C :   -0.196472
  21 H :    0.023253
  22 C :   -0.032183
  23 H :    0.039988
  24 H :    0.034265
  25 C :   -0.047197
  26 H :    0.016246
  27 H :    0.022850
  28 C :   -0.068279
  29 H :    0.033658
  30 H :    0.025782
  31 H :    0.018619
  32 H :    0.041884
  33 H :    0.040639

  Mayer bond orders larger than 0.100000
B(  0-S ,  1-C ) :   1.1258 B(  0-S ,  4-C ) :   1.1437 B(  1-C ,  2-C ) :   1.6246
B(  1-C , 32-H ) :   0.9656 B(  2-C ,  3-C ) :   1.2282 B(  2-C ,  6-C ) :   1.0201
B(  3-C ,  4-C ) :   1.5797 B(  3-C ,  5-H ) :   0.9941 B(  4-C , 20-C ) :   1.0327
B(  6-C ,  7-H ) :   0.9399 B(  6-C ,  8-H ) :   0.9328 B(  6-C ,  9-C ) :   1.0674
B(  9-C , 10-H ) :   0.9535 B(  9-C , 11-H ) :   0.9523 B(  9-C , 12-C ) :   1.0797
B( 12-C , 13-H ) :   0.9743 B( 12-C , 14-H ) :   0.9724 B( 12-C , 15-H ) :   0.9763
B( 16-S , 17-C ) :   1.1543 B( 16-S , 20-C ) :   1.1370 B( 17-C , 18-C ) :   1.6223
B( 17-C , 33-H ) :   0.9581 B( 18-C , 19-C ) :   1.2357 B( 18-C , 21-H ) :   0.9966
B( 19-C , 20-C ) :   1.5979 B( 19-C , 22-C ) :   1.0476 B( 22-C , 23-H ) :   0.9284
B( 22-C , 24-H ) :   0.9333 B( 22-C , 25-C ) :   1.0773 B( 25-C , 26-H ) :   0.9525
B( 25-C , 27-H ) :   0.9548 B( 25-C , 28-C ) :   1.0784 B( 28-C , 29-H ) :   0.9722
B( 28-C , 30-H ) :   0.9742 B( 28-C , 31-H ) :   0.9729

Dispersion correction           -0.014674735
FINAL SINGLE POINT ENERGY     -1339.869111271599

DIPOLE MOMENT
-------------
                                X             Y             Z
Electronic contribution:     25.55288       5.77814      10.21739
Nuclear contribution   :    -26.02713      -5.82900     -10.36566
                        -----------------------------------------
Total Dipole Moment    :     -0.47425      -0.05086      -0.14827
                        -----------------------------------------
Magnitude (a.u.)       :      0.49948
Magnitude (Debye)      :      1.26959

Rotational constants in cm-1:     0.019756     0.008375     0.006610
Rotational constants in MHz :   592.258601   251.061230   198.163812

                             ****ORCA TERMINATED NORMALLY****
TOTAL RUN TIME: 0 days 0 hours 0 minutes 32 seconds 479 msec
