                         Program Version 4.2.1 -  RELEASE  -
|  1> ! wB97X-D3 SP def2-SVP
|  2> %pal
|  3> nprocs 16
|  4> end
|  5>
|  6> * xyz 0 1
|  7> S 	 2.80713 	 -17.1483 	 86.3655
|  8> C 	 2.88873 	 -18.3366 	 85.108
|  9> C 	 4.17845 	 -18.705 	 84.9108
| 10> C 	 5.1435 	 -17.9097 	 85.6952
| 11> C 	 4.53975 	 -16.9501 	 86.4674
| 12> H 	 6.24555 	 -18.0686 	 85.6389
| 13> C 	 4.72747 	 -19.7164 	 83.9228
| 14> H 	 4.0744 	 -20.5587 	 84.1239
| 15> H 	 5.64075 	 -20.1535 	 84.2172
| 16> C 	 4.72813 	 -19.248 	 82.442
| 17> H 	 3.72292 	 -18.916 	 82.0349
| 18> H 	 5.33897 	 -18.298 	 82.3058
| 19> C 	 5.2142 	 -20.3494 	 81.514
| 20> H 	 4.65887 	 -21.2763 	 81.4414
| 21> H 	 5.33191 	 -19.9175 	 80.4758
| 22> H 	 6.25933 	 -20.6627 	 81.7113
| 23> S 	 5.54294 	 -16.8342 	 89.0261
| 24> C 	 5.99669 	 -15.2822 	 89.6438
| 25> C 	 5.75433 	 -14.283 	 88.7228
| 26> C 	 5.17786 	 -14.6958 	 87.5343
| 27> C 	 5.17023 	 -16.0844 	 87.4636
| 28> H 	 5.96933 	 -13.2388 	 88.997
| 29> C 	 4.76304 	 -13.725 	 86.4519
| 30> H 	 5.00033 	 -12.6791 	 86.75
| 31> H 	 3.7183 	 -13.8218 	 86.2507
| 32> C 	 5.59979 	 -13.8276 	 85.1651
| 33> H 	 5.58978 	 -14.8431 	 84.8555
| 34> H 	 6.71068 	 -13.7645 	 85.2724
| 35> C 	 5.16016 	 -12.8595 	 83.9928
| 36> H 	 3.99499 	 -12.9878 	 83.9807
| 37> H 	 5.48148 	 -13.2405 	 82.9909
| 38> H 	 5.60976 	 -11.8827 	 84.0603
| 39> H 	 2.0803 	 -18.8529 	 84.5796
| 40> H 	 6.44885 	 -15.0427 	 90.6315
| 41> *
| 42>
| 43>                          ****END OF INPUT****

CARTESIAN COORDINATES (ANGSTROEM)
---------------------------------
  S      2.807130  -17.148300   86.365500
  C      2.888730  -18.336600   85.108000
  C      4.178450  -18.705000   84.910800
  C      5.143500  -17.909700   85.695200
  C      4.539750  -16.950100   86.467400
  H      6.245550  -18.068600   85.638900
  C      4.727470  -19.716400   83.922800
  H      4.074400  -20.558700   84.123900
  H      5.640750  -20.153500   84.217200
  C      4.728130  -19.248000   82.442000
  H      3.722920  -18.916000   82.034900
  H      5.338970  -18.298000   82.305800
  C      5.214200  -20.349400   81.514000
  H      4.658870  -21.276300   81.441400
  H      5.331910  -19.917500   80.475800
  H      6.259330  -20.662700   81.711300
  S      5.542940  -16.834200   89.026100
  C      5.996690  -15.282200   89.643800
  C      5.754330  -14.283000   88.722800
  C      5.177860  -14.695800   87.534300
  C      5.170230  -16.084400   87.463600
  H      5.969330  -13.238800   88.997000
  C      4.763040  -13.725000   86.451900
  H      5.000330  -12.679100   86.750000
  H      3.718300  -13.821800   86.250700
  C      5.599790  -13.827600   85.165100
  H      5.589780  -14.843100   84.855500
  H      6.710680  -13.764500   85.272400
  C      5.160160  -12.859500   83.992800
  H      3.994990  -12.987800   83.980700
  H      5.481480  -13.240500   82.990900
  H      5.609760  -11.882700   84.060300
  H      2.080300  -18.852900   84.579600
  H      6.448850  -15.042700   90.631500

 Total Charge           Charge          ....    0
 Multiplicity           Mult            ....    1
 Number of Electrons    NEL             ....  134
 Basis Dimension        Dim             ....  322

ORBITAL ENERGIES
----------------

  NO   OCC          E(Eh)            E(eV)
   0   2.0000     -88.969444     -2420.9817
   1   2.0000     -88.962476     -2420.7920
   2   2.0000     -10.325785      -280.9789
   3   2.0000     -10.324908      -280.9550
   4   2.0000     -10.317713      -280.7592
   5   2.0000     -10.311568      -280.5920
   6   2.0000     -10.301195      -280.3098
   7   2.0000     -10.299650      -280.2677
   8   2.0000     -10.298093      -280.2254
   9   2.0000     -10.295859      -280.1646
  10   2.0000     -10.292708      -280.0788
  11   2.0000     -10.288784      -279.9721
  12   2.0000     -10.288701      -279.9698
  13   2.0000     -10.288634      -279.9680
  14   2.0000     -10.282244      -279.7941
  15   2.0000     -10.282235      -279.7938
  16   2.0000      -8.083847      -219.9727
  17   2.0000      -8.077511      -219.8003
  18   2.0000      -6.042244      -164.4178
  19   2.0000      -6.038422      -164.3138
  20   2.0000      -6.036167      -164.2525
  21   2.0000      -6.034728      -164.2133
  22   2.0000      -6.031915      -164.1367
  23   2.0000      -6.028150      -164.0343
  24   2.0000      -1.008429       -27.4408
  25   2.0000      -0.987007       -26.8578
  26   2.0000      -0.908142       -24.7118
  27   2.0000      -0.904776       -24.6202
  28   2.0000      -0.868989       -23.6464
  29   2.0000      -0.848514       -23.0892
  30   2.0000      -0.842970       -22.9384
  31   2.0000      -0.811391       -22.0791
  32   2.0000      -0.780519       -21.2390
  33   2.0000      -0.769812       -20.9477
  34   2.0000      -0.705760       -19.2047
  35   2.0000      -0.701819       -19.0975
  36   2.0000      -0.689479       -18.7617
  37   2.0000      -0.658843       -17.9280
  38   2.0000      -0.637159       -17.3380
  39   2.0000      -0.613437       -16.6925
  40   2.0000      -0.597289       -16.2531
  41   2.0000      -0.570130       -15.5140
  42   2.0000      -0.559585       -15.2271
  43   2.0000      -0.549408       -14.9501
  44   2.0000      -0.528179       -14.3725
  45   2.0000      -0.521556       -14.1923
  46   2.0000      -0.515070       -14.0158
  47   2.0000      -0.508061       -13.8250
  48   2.0000      -0.502706       -13.6793
  49   2.0000      -0.497166       -13.5286
  50   2.0000      -0.494482       -13.4555
  51   2.0000      -0.477174       -12.9846
  52   2.0000      -0.470226       -12.7955
  53   2.0000      -0.465816       -12.6755
  54   2.0000      -0.461332       -12.5535
  55   2.0000      -0.445699       -12.1281
  56   2.0000      -0.440393       -11.9837
  57   2.0000      -0.437361       -11.9012
  58   2.0000      -0.434208       -11.8154
  59   2.0000      -0.420419       -11.4402
  60   2.0000      -0.417121       -11.3504
  61   2.0000      -0.407932       -11.1004
  62   2.0000      -0.402072       -10.9409
  63   2.0000      -0.338148        -9.2015
  64   2.0000      -0.329505        -8.9663
  65   2.0000      -0.322366        -8.7720
  66   2.0000      -0.308770        -8.4021
  67   0.0000       0.038184         1.0390
  68   0.0000       0.058436         1.5901
  69   0.0000       0.112223         3.0537
  70   0.0000       0.125170         3.4061
  71   0.0000       0.133635         3.6364

MULLIKEN ATOMIC CHARGES
-----------------------
   0 S :    0.112363
   1 C :   -0.114261
   2 C :   -0.117354
   3 C :    0.015580
   4 C :   -0.145854
   5 H :    0.029699
   6 C :    0.093001
   7 H :    0.017767
   8 H :    0.003830
   9 C :   -0.075872
  10 H :    0.035178
  11 H :    0.041351
  12 C :   -0.068630
  13 H :    0.039501
  14 H :    0.035480
  15 H :    0.024250
  16 S :    0.132153
  17 C :   -0.102960
  18 C :   -0.050644
  19 C :   -0.002720
  20 C :   -0.195766
  21 H :    0.019960
  22 C :    0.108447
  23 H :    0.022509
  24 H :    0.031561
  25 C :   -0.100165
  26 H :    0.017616
  27 H :    0.024461
  28 C :   -0.075444
  29 H :    0.047877
  30 H :    0.034158
  31 H :    0.046473
  32 H :    0.049733
  33 H :    0.066721
Sum of atomic charges:   -0.0000000

LOEWDIN ATOMIC CHARGES
----------------------
   0 S :    0.408208
   1 C :   -0.205965
   2 C :   -0.065662
   3 C :   -0.065501
   4 C :   -0.206253
   5 H :    0.038069
   6 C :   -0.035988
   7 H :    0.032733
   8 H :    0.023927
   9 C :   -0.044571
  10 H :    0.029970
  11 H :    0.033886
  12 C :   -0.078531
  13 H :    0.023815
  14 H :    0.033200
  15 H :    0.024015
  16 S :    0.420517
  17 C :   -0.197837
  18 C :   -0.076791
  19 C :   -0.048888
  20 C :   -0.201651
  21 H :    0.033967
  22 C :   -0.025914
  23 H :    0.034981
  24 H :    0.029448
  25 C :   -0.050215
  26 H :    0.016083
  27 H :    0.027176
  28 C :   -0.075113
  29 H :    0.039435
  30 H :    0.030050
  31 H :    0.022657
  32 H :    0.037450
  33 H :    0.039290

  Mayer bond orders larger than 0.100000
B(  0-S ,  1-C ) :   1.1239 B(  0-S ,  4-C ) :   1.1422 B(  1-C ,  2-C ) :   1.6480
B(  1-C , 32-H ) :   0.9654 B(  2-C ,  3-C ) :   1.2195 B(  2-C ,  6-C ) :   1.0212
B(  3-C ,  4-C ) :   1.5843 B(  3-C ,  5-H ) :   0.9936 B(  4-C , 20-C ) :   1.0317
B(  6-C ,  7-H ) :   0.9343 B(  6-C ,  8-H ) :   0.9425 B(  6-C ,  9-C ) :   1.0508
B(  9-C , 10-H ) :   0.9567 B(  9-C , 11-H ) :   0.9549 B(  9-C , 12-C ) :   1.0798
B( 12-C , 13-H ) :   0.9772 B( 12-C , 14-H ) :   0.9722 B( 12-C , 15-H ) :   0.9724
B( 16-S , 17-C ) :   1.1685 B( 16-S , 20-C ) :   1.1584 B( 17-C , 18-C ) :   1.5940
B( 17-C , 20-C ) :   0.1070 B( 17-C , 33-H ) :   0.9590 B( 18-C , 19-C ) :   1.2860
B( 18-C , 21-H ) :   0.9840 B( 19-C , 20-C ) :   1.5461 B( 19-C , 22-C ) :   1.0442
B( 22-C , 23-H ) :   0.9419 B( 22-C , 24-H ) :   0.9194 B( 22-C , 25-C ) :   1.0574
B( 25-C , 26-H ) :   0.9569 B( 25-C , 27-H ) :   0.9530 B( 25-C , 28-C ) :   1.0694
B( 28-C , 29-H ) :   0.9746 B( 28-C , 30-H ) :   0.9748 B( 28-C , 31-H ) :   0.9784

Dispersion correction           -0.014228602
FINAL SINGLE POINT ENERGY     -1339.869635724943

DIPOLE MOMENT
-------------
                                X             Y             Z
Electronic contribution:     -5.75212      -1.89183      27.13031
Nuclear contribution   :      6.00907       1.88143     -27.49307
                        -----------------------------------------
Total Dipole Moment    :      0.25695      -0.01040      -0.36275
                        -----------------------------------------
Magnitude (a.u.)       :      0.44466
Magnitude (Debye)      :      1.13024

Rotational constants in cm-1:     0.018948     0.008160     0.006752
Rotational constants in MHz :   568.048899   244.632836   202.405048

                             ****ORCA TERMINATED NORMALLY****
TOTAL RUN TIME: 0 days 0 hours 0 minutes 31 seconds 648 msec
