                         Program Version 4.2.1 -  RELEASE  -
|  1> ! wB97X-D3 SP def2-SVP
|  2> %pal
|  3> nprocs 16
|  4> end
|  5>
|  6> * xyz 0 1
|  7> S 	 56.1346 	 22.14 	 46.8121
|  8> C 	 57.7941 	 22.6291 	 46.6232
|  9> C 	 58.5229 	 21.6732 	 46.0001
| 10> C 	 57.7184 	 20.4944 	 45.604
| 11> C 	 56.4084 	 20.5676 	 46.0653
| 12> H 	 58.0665 	 19.6378 	 44.9588
| 13> C 	 59.9542 	 21.8729 	 45.4658
| 14> H 	 60.1446 	 22.9092 	 45.3878
| 15> H 	 60.0995 	 21.4899 	 44.4297
| 16> C 	 61.021 	 21.2301 	 46.386
| 17> H 	 62.0105 	 21.2394 	 45.9185
| 18> H 	 61.1992 	 21.8515 	 47.2755
| 19> C 	 60.7851 	 19.719 	 46.8379
| 20> H 	 59.8617 	 19.7999 	 47.329
| 21> H 	 60.5707 	 19.0045 	 45.9294
| 22> H 	 61.5351 	 19.4749 	 47.5709
| 23> S 	 54.53 	 19.2126 	 47.5444
| 24> C 	 53.7239 	 17.9044 	 46.7862
| 25> C 	 54.0487 	 17.7056 	 45.4641
| 26> C 	 54.9903 	 18.6815 	 45.0084
| 27> C 	 55.348 	 19.6051 	 45.9992
| 28> H 	 53.5394 	 17.0237 	 44.8541
| 29> C 	 55.5932 	 18.6838 	 43.5833
| 30> H 	 56.2577 	 17.8358 	 43.3846
| 31> H 	 56.0965 	 19.7062 	 43.4489
| 32> C 	 54.4921 	 18.6081 	 42.5055
| 33> H 	 53.7342 	 19.3481 	 42.837
| 34> H 	 53.9809 	 17.5853 	 42.5309
| 35> C 	 54.9698 	 18.7769 	 41.1034
| 36> H 	 55.5952 	 17.9656 	 40.973
| 37> H 	 55.4549 	 19.7608 	 40.8376
| 38> H 	 54.1477 	 18.6653 	 40.4184
| 39> H 	 58.1422 	 23.638 	 46.7293
| 40> H 	 53.0589 	 17.3035 	 47.369
| 41> *
| 42>
| 43>                          ****END OF INPUT****

CARTESIAN COORDINATES (ANGSTROEM)
---------------------------------
  S     56.134600   22.140000   46.812100
  C     57.794100   22.629100   46.623200
  C     58.522900   21.673200   46.000100
  C     57.718400   20.494400   45.604000
  C     56.408400   20.567600   46.065300
  H     58.066500   19.637800   44.958800
  C     59.954200   21.872900   45.465800
  H     60.144600   22.909200   45.387800
  H     60.099500   21.489900   44.429700
  C     61.021000   21.230100   46.386000
  H     62.010500   21.239400   45.918500
  H     61.199200   21.851500   47.275500
  C     60.785100   19.719000   46.837900
  H     59.861700   19.799900   47.329000
  H     60.570700   19.004500   45.929400
  H     61.535100   19.474900   47.570900
  S     54.530000   19.212600   47.544400
  C     53.723900   17.904400   46.786200
  C     54.048700   17.705600   45.464100
  C     54.990300   18.681500   45.008400
  C     55.348000   19.605100   45.999200
  H     53.539400   17.023700   44.854100
  C     55.593200   18.683800   43.583300
  H     56.257700   17.835800   43.384600
  H     56.096500   19.706200   43.448900
  C     54.492100   18.608100   42.505500
  H     53.734200   19.348100   42.837000
  H     53.980900   17.585300   42.530900
  C     54.969800   18.776900   41.103400
  H     55.595200   17.965600   40.973000
  H     55.454900   19.760800   40.837600
  H     54.147700   18.665300   40.418400
  H     58.142200   23.638000   46.729300
  H     53.058900   17.303500   47.369000

 Total Charge           Charge          ....    0
 Multiplicity           Mult            ....    1
 Number of Electrons    NEL             ....  134
 Basis Dimension        Dim             ....  322

ORBITAL ENERGIES
----------------

  NO   OCC          E(Eh)            E(eV)
   0   2.0000     -88.966559     -2420.9031
   1   2.0000     -88.963034     -2420.8072
   2   2.0000     -10.331456      -281.1332
   3   2.0000     -10.328091      -281.0416
   4   2.0000     -10.316681      -280.7312
   5   2.0000     -10.311649      -280.5942
   6   2.0000     -10.308887      -280.5191
   7   2.0000     -10.304703      -280.4052
   8   2.0000     -10.303697      -280.3778
   9   2.0000     -10.300211      -280.2830
  10   2.0000     -10.294656      -280.1318
  11   2.0000     -10.292468      -280.0723
  12   2.0000     -10.289726      -279.9977
  13   2.0000     -10.287267      -279.9308
  14   2.0000     -10.279195      -279.7111
  15   2.0000     -10.273659      -279.5605
  16   2.0000      -8.081603      -219.9116
  17   2.0000      -8.078043      -219.8147
  18   2.0000      -6.039969      -164.3559
  19   2.0000      -6.036727      -164.2677
  20   2.0000      -6.036098      -164.2506
  21   2.0000      -6.032513      -164.1530
  22   2.0000      -6.032452      -164.1514
  23   2.0000      -6.028600      -164.0466
  24   2.0000      -1.005918       -27.3724
  25   2.0000      -0.983363       -26.7587
  26   2.0000      -0.912055       -24.8183
  27   2.0000      -0.904072       -24.6011
  28   2.0000      -0.871304       -23.7094
  29   2.0000      -0.855807       -23.2877
  30   2.0000      -0.834448       -22.7065
  31   2.0000      -0.814301       -22.1583
  32   2.0000      -0.785657       -21.3788
  33   2.0000      -0.773579       -21.0501
  34   2.0000      -0.703151       -19.1337
  35   2.0000      -0.695461       -18.9245
  36   2.0000      -0.689426       -18.7602
  37   2.0000      -0.659046       -17.9335
  38   2.0000      -0.639035       -17.3890
  39   2.0000      -0.612883       -16.6774
  40   2.0000      -0.600032       -16.3277
  41   2.0000      -0.575341       -15.6558
  42   2.0000      -0.567128       -15.4323
  43   2.0000      -0.546508       -14.8712
  44   2.0000      -0.542525       -14.7629
  45   2.0000      -0.526626       -14.3302
  46   2.0000      -0.518429       -14.1072
  47   2.0000      -0.508131       -13.8270
  48   2.0000      -0.503428       -13.6990
  49   2.0000      -0.499841       -13.6014
  50   2.0000      -0.488744       -13.2994
  51   2.0000      -0.478987       -13.0339
  52   2.0000      -0.470693       -12.8082
  53   2.0000      -0.465934       -12.6787
  54   2.0000      -0.458165       -12.4673
  55   2.0000      -0.453407       -12.3378
  56   2.0000      -0.444817       -12.1041
  57   2.0000      -0.432265       -11.7625
  58   2.0000      -0.425338       -11.5740
  59   2.0000      -0.421741       -11.4761
  60   2.0000      -0.418554       -11.3894
  61   2.0000      -0.416562       -11.3352
  62   2.0000      -0.405601       -11.0370
  63   2.0000      -0.354523        -9.6471
  64   2.0000      -0.334552        -9.1036
  65   2.0000      -0.326832        -8.8935
  66   2.0000      -0.291008        -7.9187
  67   0.0000       0.029183         0.7941
  68   0.0000       0.069031         1.8784
  69   0.0000       0.106608         2.9010
  70   0.0000       0.114093         3.1046
  71   0.0000       0.135952         3.6994

MULLIKEN ATOMIC CHARGES
-----------------------
   0 S :    0.094760
   1 C :   -0.096800
   2 C :   -0.112599
   3 C :    0.010160
   4 C :   -0.163599
   5 H :    0.041197
   6 C :    0.083860
   7 H :    0.010259
   8 H :    0.037147
   9 C :   -0.109686
  10 H :    0.024649
  11 H :    0.027232
  12 C :   -0.061953
  13 H :    0.036257
  14 H :    0.047246
  15 H :    0.043359
  16 S :    0.107731
  17 C :   -0.078833
  18 C :   -0.003612
  19 C :   -0.036495
  20 C :   -0.136299
  21 H :    0.001511
  22 C :    0.038929
  23 H :    0.039305
  24 H :    0.051499
  25 C :   -0.157042
  26 H :    0.039603
  27 H :    0.034556
  28 C :    0.009841
  29 H :    0.009748
  30 H :    0.041851
  31 H :    0.028382
  32 H :    0.047057
  33 H :    0.050777
Sum of atomic charges:   -0.0000000

LOEWDIN ATOMIC CHARGES
----------------------
   0 S :    0.394938
   1 C :   -0.195792
   2 C :   -0.063518
   3 C :   -0.067368
   4 C :   -0.191764
   5 H :    0.040772
   6 C :   -0.028792
   7 H :    0.023796
   8 H :    0.035579
   9 C :   -0.044115
  10 H :    0.018568
  11 H :    0.022885
  12 C :   -0.070027
  13 H :    0.017309
  14 H :    0.036757
  15 H :    0.027600
  16 S :    0.408663
  17 C :   -0.177576
  18 C :   -0.067809
  19 C :   -0.046687
  20 C :   -0.196176
  21 H :    0.023697
  22 C :   -0.037529
  23 H :    0.029220
  24 H :    0.042063
  25 C :   -0.051400
  26 H :    0.024383
  27 H :    0.026902
  28 C :   -0.061753
  29 H :    0.016189
  30 H :    0.032004
  31 H :    0.027487
  32 H :    0.029164
  33 H :    0.022328

  Mayer bond orders larger than 0.100000
B(  0-S ,  1-C ) :   1.1196 B(  0-S ,  4-C ) :   1.1428 B(  1-C ,  2-C ) :   1.6635
B(  1-C , 32-H ) :   0.9650 B(  2-C ,  3-C ) :   1.1967 B(  2-C ,  6-C ) :   1.0123
B(  3-C ,  4-C ) :   1.5938 B(  3-C ,  5-H ) :   0.9833 B(  4-C , 20-C ) :   1.0451
B(  6-C ,  7-H ) :   0.9442 B(  6-C ,  8-H ) :   0.9499 B(  6-C ,  9-C ) :   1.0655
B(  9-C , 10-H ) :   0.9597 B(  9-C , 11-H ) :   0.9573 B(  9-C , 12-C ) :   1.0714
B( 12-C , 13-H ) :   0.9721 B( 12-C , 14-H ) :   0.9730 B( 12-C , 15-H ) :   0.9726
B( 16-S , 17-C ) :   1.1765 B( 16-S , 20-C ) :   1.1272 B( 17-C , 18-C ) :   1.5926
B( 17-C , 33-H ) :   0.9685 B( 18-C , 19-C ) :   1.2333 B( 18-C , 21-H ) :   1.0023
B( 19-C , 20-C ) :   1.6071 B( 19-C , 22-C ) :   1.0357 B( 22-C , 23-H ) :   0.9335
B( 22-C , 24-H ) :   0.9379 B( 22-C , 25-C ) :   1.0584 B( 25-C , 26-H ) :   0.9597
B( 25-C , 27-H ) :   0.9475 B( 25-C , 28-C ) :   1.0896 B( 28-C , 29-H ) :   0.9672
B( 28-C , 30-H ) :   0.9725 B( 28-C , 31-H ) :   0.9695

Dispersion correction           -0.014079857
FINAL SINGLE POINT ENERGY     -1339.874087418513

DIPOLE MOMENT
-------------
                                X             Y             Z
Electronic contribution:    -15.69446       6.24723      18.54333
Nuclear contribution   :     15.93005      -6.47573     -19.08789
                        -----------------------------------------
Total Dipole Moment    :      0.23559      -0.22850      -0.54456
                        -----------------------------------------
Magnitude (a.u.)       :      0.63581
Magnitude (Debye)      :      1.61611

Rotational constants in cm-1:     0.017200     0.008553     0.007056
Rotational constants in MHz :   515.653954   256.410407   211.544422

                             ****ORCA TERMINATED NORMALLY****
TOTAL RUN TIME: 0 days 0 hours 0 minutes 29 seconds 810 msec
