                         Program Version 4.2.1 -  RELEASE  -
|  1> ! wB97X-D3 SP def2-SVP
|  2> %pal
|  3> nprocs 16
|  4> end
|  5>
|  6> * xyz 0 1
|  7> S 	 -83.4192 	 49.0091 	 136.361
|  8> C 	 -84.076 	 47.7066 	 137.378
|  9> C 	 -83.8079 	 48.0034 	 138.752
| 10> C 	 -83.0425 	 49.148 	 138.928
| 11> C 	 -82.7689 	 49.8054 	 137.735
| 12> H 	 -82.8109 	 49.5024 	 139.922
| 13> C 	 -84.2598 	 47.1594 	 139.974
| 14> H 	 -84.8675 	 46.3925 	 139.57
| 15> H 	 -84.8136 	 47.8217 	 140.616
| 16> C 	 -83.1805 	 46.4977 	 140.914
| 17> H 	 -82.4865 	 47.2059 	 141.402
| 18> H 	 -83.6615 	 45.9443 	 141.736
| 19> C 	 -82.4302 	 45.3867 	 140.226
| 20> H 	 -81.8914 	 45.8077 	 139.374
| 21> H 	 -81.6676 	 44.8915 	 140.851
| 22> H 	 -83.0493 	 44.4984 	 140.055
| 23> S 	 -82.9825 	 52.5598 	 137.71
| 24> C 	 -81.4674 	 53.5323 	 137.682
| 25> C 	 -80.3428 	 52.6961 	 137.574
| 26> C 	 -80.6459 	 51.3205 	 137.561
| 27> C 	 -82.0381 	 51.0861 	 137.562
| 28> H 	 -79.3847 	 53.1488 	 137.44
| 29> C 	 -79.6627 	 50.2254 	 137.653
| 30> H 	 -79.1491 	 50.0571 	 136.69
| 31> H 	 -80.1826 	 49.2338 	 137.7
| 32> C 	 -78.8103 	 50.2726 	 138.865
| 33> H 	 -77.9665 	 50.9604 	 138.646
| 34> H 	 -78.242 	 49.3018 	 138.973
| 35> C 	 -79.4663 	 50.5277 	 140.193
| 36> H 	 -79.9255 	 51.5744 	 140.282
| 37> H 	 -78.6503 	 50.517 	 141.007
| 38> H 	 -80.1659 	 49.774 	 140.499
| 39> H 	 -84.6812 	 46.8483 	 137.073
| 40> H 	 -81.4149 	 54.585 	 137.52
| 41> *
| 42>
| 43>                          ****END OF INPUT****

CARTESIAN COORDINATES (ANGSTROEM)
---------------------------------
  S    -83.419200   49.009100  136.361000
  C    -84.076000   47.706600  137.378000
  C    -83.807900   48.003400  138.752000
  C    -83.042500   49.148000  138.928000
  C    -82.768900   49.805400  137.735000
  H    -82.810900   49.502400  139.922000
  C    -84.259800   47.159400  139.974000
  H    -84.867500   46.392500  139.570000
  H    -84.813600   47.821700  140.616000
  C    -83.180500   46.497700  140.914000
  H    -82.486500   47.205900  141.402000
  H    -83.661500   45.944300  141.736000
  C    -82.430200   45.386700  140.226000
  H    -81.891400   45.807700  139.374000
  H    -81.667600   44.891500  140.851000
  H    -83.049300   44.498400  140.055000
  S    -82.982500   52.559800  137.710000
  C    -81.467400   53.532300  137.682000
  C    -80.342800   52.696100  137.574000
  C    -80.645900   51.320500  137.561000
  C    -82.038100   51.086100  137.562000
  H    -79.384700   53.148800  137.440000
  C    -79.662700   50.225400  137.653000
  H    -79.149100   50.057100  136.690000
  H    -80.182600   49.233800  137.700000
  C    -78.810300   50.272600  138.865000
  H    -77.966500   50.960400  138.646000
  H    -78.242000   49.301800  138.973000
  C    -79.466300   50.527700  140.193000
  H    -79.925500   51.574400  140.282000
  H    -78.650300   50.517000  141.007000
  H    -80.165900   49.774000  140.499000
  H    -84.681200   46.848300  137.073000
  H    -81.414900   54.585000  137.520000

 Total Charge           Charge          ....    0
 Multiplicity           Mult            ....    1
 Number of Electrons    NEL             ....  134
 Basis Dimension        Dim             ....  322

ORBITAL ENERGIES
----------------

  NO   OCC          E(Eh)            E(eV)
   0   2.0000     -88.972127     -2421.0547
   1   2.0000     -88.967810     -2420.9372
   2   2.0000     -10.328694      -281.0581
   3   2.0000     -10.327001      -281.0120
   4   2.0000     -10.321541      -280.8634
   5   2.0000     -10.320704      -280.8406
   6   2.0000     -10.302831      -280.3543
   7   2.0000     -10.301571      -280.3200
   8   2.0000     -10.295087      -280.1436
   9   2.0000     -10.293921      -280.1118
  10   2.0000     -10.291553      -280.0474
  11   2.0000     -10.290285      -280.0129
  12   2.0000     -10.286512      -279.9102
  13   2.0000     -10.285128      -279.8726
  14   2.0000     -10.284138      -279.8456
  15   2.0000     -10.274392      -279.5804
  16   2.0000      -8.086394      -220.0420
  17   2.0000      -8.081402      -219.9061
  18   2.0000      -6.044798      -164.4873
  19   2.0000      -6.040788      -164.3782
  20   2.0000      -6.039936      -164.3550
  21   2.0000      -6.037472      -164.2880
  22   2.0000      -6.036034      -164.2488
  23   2.0000      -6.032241      -164.1456
  24   2.0000      -1.003153       -27.2972
  25   2.0000      -0.979286       -26.6477
  26   2.0000      -0.914824       -24.8936
  27   2.0000      -0.907449       -24.6930
  28   2.0000      -0.863327       -23.4923
  29   2.0000      -0.850783       -23.1510
  30   2.0000      -0.845047       -22.9949
  31   2.0000      -0.811219       -22.0744
  32   2.0000      -0.784419       -21.3451
  33   2.0000      -0.770778       -20.9739
  34   2.0000      -0.704122       -19.1601
  35   2.0000      -0.692631       -18.8475
  36   2.0000      -0.690865       -18.7994
  37   2.0000      -0.656418       -17.8621
  38   2.0000      -0.634613       -17.2687
  39   2.0000      -0.623619       -16.9695
  40   2.0000      -0.596754       -16.2385
  41   2.0000      -0.565045       -15.3757
  42   2.0000      -0.556806       -15.1515
  43   2.0000      -0.551400       -15.0044
  44   2.0000      -0.550059       -14.9679
  45   2.0000      -0.542739       -14.7687
  46   2.0000      -0.518766       -14.1163
  47   2.0000      -0.511576       -13.9207
  48   2.0000      -0.495669       -13.4878
  49   2.0000      -0.492862       -13.4115
  50   2.0000      -0.482779       -13.1371
  51   2.0000      -0.472565       -12.8591
  52   2.0000      -0.470346       -12.7988
  53   2.0000      -0.463334       -12.6080
  54   2.0000      -0.458433       -12.4746
  55   2.0000      -0.445340       -12.1183
  56   2.0000      -0.442464       -12.0401
  57   2.0000      -0.440924       -11.9981
  58   2.0000      -0.438483       -11.9317
  59   2.0000      -0.420283       -11.4365
  60   2.0000      -0.413560       -11.2535
  61   2.0000      -0.413034       -11.2392
  62   2.0000      -0.399400       -10.8682
  63   2.0000      -0.340496        -9.2654
  64   2.0000      -0.332499        -9.0477
  65   2.0000      -0.311550        -8.4777
  66   2.0000      -0.310049        -8.4369
  67   0.0000       0.041810         1.1377
  68   0.0000       0.047007         1.2791
  69   0.0000       0.114609         3.1187
  70   0.0000       0.118486         3.2242
  71   0.0000       0.122904         3.3444

MULLIKEN ATOMIC CHARGES
-----------------------
   0 S :    0.134692
   1 C :   -0.132163
   2 C :   -0.121002
   3 C :    0.060270
   4 C :   -0.185701
   5 H :    0.009819
   6 C :    0.110530
   7 H :    0.004267
   8 H :    0.034411
   9 C :   -0.083788
  10 H :    0.034351
  11 H :    0.028724
  12 C :   -0.071763
  13 H :    0.045128
  14 H :    0.023615
  15 H :    0.028914
  16 S :    0.111218
  17 C :   -0.096268
  18 C :   -0.035540
  19 C :   -0.013863
  20 C :   -0.175042
  21 H :    0.014994
  22 C :    0.091851
  23 H :    0.036288
  24 H :    0.023787
  25 C :   -0.103511
  26 H :    0.026443
  27 H :    0.031409
  28 C :   -0.063706
  29 H :    0.055608
  30 H :    0.036609
  31 H :    0.031321
  32 H :    0.053570
  33 H :    0.054529
Sum of atomic charges:   -0.0000000

LOEWDIN ATOMIC CHARGES
----------------------
   0 S :    0.430809
   1 C :   -0.207437
   2 C :   -0.061065
   3 C :   -0.063949
   4 C :   -0.209359
   5 H :    0.032043
   6 C :   -0.020292
   7 H :    0.023301
   8 H :    0.031965
   9 C :   -0.045020
  10 H :    0.023502
  11 H :    0.028797
  12 C :   -0.075962
  13 H :    0.026166
  14 H :    0.026453
  15 H :    0.026270
  16 S :    0.393347
  17 C :   -0.169861
  18 C :   -0.063174
  19 C :   -0.054594
  20 C :   -0.204147
  21 H :    0.029737
  22 C :   -0.047232
  23 H :    0.038472
  24 H :    0.036674
  25 C :   -0.055150
  26 H :    0.022970
  27 H :    0.032556
  28 C :   -0.072943
  29 H :    0.036142
  30 H :    0.035889
  31 H :    0.019693
  32 H :    0.031207
  33 H :    0.024191

  Mayer bond orders larger than 0.100000
B(  0-S ,  1-C ) :   1.1503 B(  0-S ,  4-C ) :   1.1903 B(  1-C ,  2-C ) :   1.5621
B(  1-C ,  4-C ) :   0.1141 B(  1-C , 32-H ) :   0.9659 B(  2-C ,  3-C ) :   1.2891
B(  2-C ,  6-C ) :   1.0209 B(  3-C ,  4-C ) :   1.5325 B(  3-C ,  5-H ) :   0.9986
B(  4-C , 20-C ) :   0.9779 B(  6-C ,  7-H ) :   0.9391 B(  6-C ,  8-H ) :   0.9390
B(  6-C ,  9-C ) :   1.0671 B(  9-C , 10-H ) :   0.9572 B(  9-C , 11-H ) :   0.9550
B(  9-C , 12-C ) :   1.0804 B( 12-C , 13-H ) :   0.9771 B( 12-C , 14-H ) :   0.9706
B( 12-C , 15-H ) :   0.9734 B( 16-S , 17-C ) :   1.1505 B( 16-S , 20-C ) :   1.1610
B( 17-C , 18-C ) :   1.5982 B( 17-C , 20-C ) :   0.1122 B( 17-C , 33-H ) :   0.9683
B( 18-C , 19-C ) :   1.2458 B( 18-C , 21-H ) :   0.9930 B( 19-C , 20-C ) :   1.5775
B( 19-C , 22-C ) :   1.0542 B( 22-C , 23-H ) :   0.9280 B( 22-C , 24-H ) :   0.9217
B( 22-C , 25-C ) :   1.0707 B( 25-C , 26-H ) :   0.9502 B( 25-C , 27-H ) :   0.9518
B( 25-C , 28-C ) :   1.0853 B( 28-C , 29-H ) :   0.9648 B( 28-C , 30-H ) :   0.9691
B( 28-C , 31-H ) :   0.9721

Dispersion correction           -0.015739658
FINAL SINGLE POINT ENERGY     -1339.874902362920

DIPOLE MOMENT
-------------
                                X             Y             Z
Electronic contribution:    -12.87869      16.89084     -18.62777
Nuclear contribution   :     13.19443     -17.16531      19.02042
                        -----------------------------------------
Total Dipole Moment    :      0.31574      -0.27447       0.39265
                        -----------------------------------------
Magnitude (a.u.)       :      0.57376
Magnitude (Debye)      :      1.45838

Rotational constants in cm-1:     0.019516     0.009370     0.007566
Rotational constants in MHz :   585.069098   280.909169   226.831756

                             ****ORCA TERMINATED NORMALLY****
TOTAL RUN TIME: 0 days 0 hours 0 minutes 36 seconds 628 msec
