                         Program Version 4.2.1 -  RELEASE  -
|  1> ! wB97X-D3 SP def2-SVP
|  2> %pal
|  3> nprocs 16
|  4> end
|  5>
|  6> * xyz 0 1
|  7> S 	 -74.1906 	 33.7436 	 123.284
|  8> C 	 -74.2874 	 32.9083 	 121.691
|  9> C 	 -74.2369 	 33.8091 	 120.677
| 10> C 	 -74.2597 	 35.1875 	 121.059
| 11> C 	 -74.2993 	 35.3566 	 122.438
| 12> H 	 -74.2916 	 36.0462 	 120.435
| 13> C 	 -74.2042 	 33.3795 	 119.196
| 14> H 	 -74.9916 	 33.9114 	 118.567
| 15> H 	 -74.6305 	 32.4029 	 119.32
| 16> C 	 -72.7617 	 33.2962 	 118.584
| 17> H 	 -72.8142 	 33.0188 	 117.514
| 18> H 	 -72.3876 	 34.2852 	 118.611
| 19> C 	 -71.9352 	 32.448 	 119.436
| 20> H 	 -71.0438 	 32.1106 	 118.97
| 21> H 	 -71.623 	 32.9213 	 120.306
| 22> H 	 -72.4972 	 31.5175 	 119.759
| 23> S 	 -76.0091 	 37.1292 	 123.712
| 24> C 	 -75.481 	 38.6573 	 124.385
| 25> C 	 -74.1098 	 38.7527 	 124.211
| 26> C 	 -73.5862 	 37.6817 	 123.376
| 27> C 	 -74.4565 	 36.6877 	 123.018
| 28> H 	 -73.7237 	 39.6974 	 124.562
| 29> C 	 -72.085 	 37.5372 	 123.046
| 30> H 	 -72.0162 	 38.5723 	 122.712
| 31> H 	 -72.0886 	 36.9258 	 122.213
| 32> C 	 -71.2291 	 37.0599 	 124.259
| 33> H 	 -71.5623 	 36.1024 	 124.691
| 34> H 	 -71.468 	 37.7929 	 125.068
| 35> C 	 -69.7348 	 36.9739 	 123.999
| 36> H 	 -69.49 	 36.4043 	 123.147
| 37> H 	 -69.3249 	 36.3681 	 124.777
| 38> H 	 -69.2442 	 37.8724 	 123.878
| 39> H 	 -74.4221 	 31.8446 	 121.545
| 40> H 	 -76.1659 	 39.3123 	 124.852
| 41> *
| 42>
| 43>                          ****END OF INPUT****

CARTESIAN COORDINATES (ANGSTROEM)
---------------------------------
  S    -74.190600   33.743600  123.284000
  C    -74.287400   32.908300  121.691000
  C    -74.236900   33.809100  120.677000
  C    -74.259700   35.187500  121.059000
  C    -74.299300   35.356600  122.438000
  H    -74.291600   36.046200  120.435000
  C    -74.204200   33.379500  119.196000
  H    -74.991600   33.911400  118.567000
  H    -74.630500   32.402900  119.320000
  C    -72.761700   33.296200  118.584000
  H    -72.814200   33.018800  117.514000
  H    -72.387600   34.285200  118.611000
  C    -71.935200   32.448000  119.436000
  H    -71.043800   32.110600  118.970000
  H    -71.623000   32.921300  120.306000
  H    -72.497200   31.517500  119.759000
  S    -76.009100   37.129200  123.712000
  C    -75.481000   38.657300  124.385000
  C    -74.109800   38.752700  124.211000
  C    -73.586200   37.681700  123.376000
  C    -74.456500   36.687700  123.018000
  H    -73.723700   39.697400  124.562000
  C    -72.085000   37.537200  123.046000
  H    -72.016200   38.572300  122.712000
  H    -72.088600   36.925800  122.213000
  C    -71.229100   37.059900  124.259000
  H    -71.562300   36.102400  124.691000
  H    -71.468000   37.792900  125.068000
  C    -69.734800   36.973900  123.999000
  H    -69.490000   36.404300  123.147000
  H    -69.324900   36.368100  124.777000
  H    -69.244200   37.872400  123.878000
  H    -74.422100   31.844600  121.545000
  H    -76.165900   39.312300  124.852000

 Total Charge           Charge          ....    0
 Multiplicity           Mult            ....    1
 Number of Electrons    NEL             ....  134
 Basis Dimension        Dim             ....  322

ORBITAL ENERGIES
----------------

  NO   OCC          E(Eh)            E(eV)
   0   2.0000     -88.970556     -2421.0119
   1   2.0000     -88.954605     -2420.5779
   2   2.0000     -10.337717      -281.3036
   3   2.0000     -10.323034      -280.9040
   4   2.0000     -10.319754      -280.8148
   5   2.0000     -10.319431      -280.8060
   6   2.0000     -10.305162      -280.4177
   7   2.0000     -10.301276      -280.3120
   8   2.0000     -10.298051      -280.2242
   9   2.0000     -10.296000      -280.1684
  10   2.0000     -10.295388      -280.1517
  11   2.0000     -10.289745      -279.9982
  12   2.0000     -10.284675      -279.8602
  13   2.0000     -10.282101      -279.7902
  14   2.0000     -10.266731      -279.3719
  15   2.0000     -10.262053      -279.2447
  16   2.0000      -8.083066      -219.9514
  17   2.0000      -8.069911      -219.5935
  18   2.0000      -6.041918      -164.4089
  19   2.0000      -6.038030      -164.3032
  20   2.0000      -6.033421      -164.1777
  21   2.0000      -6.028379      -164.0405
  22   2.0000      -6.024128      -163.9249
  23   2.0000      -6.020857      -163.8358
  24   2.0000      -1.001320       -27.2473
  25   2.0000      -0.979723       -26.6596
  26   2.0000      -0.914812       -24.8933
  27   2.0000      -0.902820       -24.5670
  28   2.0000      -0.873518       -23.7696
  29   2.0000      -0.848819       -23.0975
  30   2.0000      -0.845294       -23.0016
  31   2.0000      -0.819384       -22.2966
  32   2.0000      -0.779373       -21.2078
  33   2.0000      -0.771621       -20.9969
  34   2.0000      -0.713299       -19.4098
  35   2.0000      -0.703679       -19.1481
  36   2.0000      -0.697473       -18.9792
  37   2.0000      -0.661290       -17.9946
  38   2.0000      -0.643073       -17.4989
  39   2.0000      -0.616613       -16.7789
  40   2.0000      -0.588015       -16.0007
  41   2.0000      -0.571586       -15.5537
  42   2.0000      -0.560908       -15.2631
  43   2.0000      -0.552854       -15.0439
  44   2.0000      -0.548966       -14.9381
  45   2.0000      -0.529770       -14.4158
  46   2.0000      -0.521511       -14.1910
  47   2.0000      -0.517134       -14.0719
  48   2.0000      -0.510423       -13.8893
  49   2.0000      -0.496154       -13.5010
  50   2.0000      -0.490383       -13.3440
  51   2.0000      -0.476286       -12.9604
  52   2.0000      -0.473310       -12.8794
  53   2.0000      -0.465005       -12.6534
  54   2.0000      -0.453055       -12.3282
  55   2.0000      -0.452339       -12.3088
  56   2.0000      -0.439394       -11.9565
  57   2.0000      -0.434730       -11.8296
  58   2.0000      -0.431998       -11.7553
  59   2.0000      -0.422904       -11.5078
  60   2.0000      -0.419358       -11.4113
  61   2.0000      -0.413759       -11.2589
  62   2.0000      -0.394639       -10.7387
  63   2.0000      -0.337441        -9.1822
  64   2.0000      -0.327959        -8.9242
  65   2.0000      -0.324442        -8.8285
  66   2.0000      -0.310876        -8.4594
  67   0.0000       0.036112         0.9827
  68   0.0000       0.052028         1.4157
  69   0.0000       0.107506         2.9254
  70   0.0000       0.122717         3.3393
  71   0.0000       0.129629         3.5274

MULLIKEN ATOMIC CHARGES
-----------------------
   0 S :    0.105454
   1 C :   -0.128289
   2 C :   -0.089494
   3 C :    0.055420
   4 C :   -0.141357
   5 H :    0.012089
   6 C :    0.024064
   7 H :    0.043484
   8 H :    0.006819
   9 C :   -0.017629
  10 H :    0.039710
  11 H :    0.017232
  12 C :   -0.018946
  13 H :    0.019286
  14 H :    0.030179
  15 H :    0.017497
  16 S :    0.077846
  17 C :   -0.096799
  18 C :   -0.027949
  19 C :   -0.095917
  20 C :   -0.166047
  21 H :    0.022927
  22 C :    0.123403
  23 H :    0.027393
  24 H :   -0.006277
  25 C :   -0.081035
  26 H :    0.030050
  27 H :    0.027827
  28 C :    0.032081
  29 H :    0.009358
  30 H :    0.020211
  31 H :    0.017778
  32 H :    0.055098
  33 H :    0.054532
Sum of atomic charges:    0.0000000

LOEWDIN ATOMIC CHARGES
----------------------
   0 S :    0.354573
   1 C :   -0.174338
   2 C :   -0.066207
   3 C :   -0.045501
   4 C :   -0.171137
   5 H :    0.030626
   6 C :   -0.033418
   7 H :    0.035373
   8 H :    0.020843
   9 C :   -0.036410
  10 H :    0.029379
  11 H :    0.020253
  12 C :   -0.059119
  13 H :    0.022034
  14 H :    0.020952
  15 H :    0.027507
  16 S :    0.393091
  17 C :   -0.164264
  18 C :   -0.084358
  19 C :   -0.051192
  20 C :   -0.208319
  21 H :    0.033071
  22 C :   -0.026327
  23 H :    0.034842
  24 H :    0.013464
  25 C :   -0.035624
  26 H :    0.028497
  27 H :    0.028422
  28 C :   -0.056873
  29 H :    0.021703
  30 H :    0.028207
  31 H :    0.015489
  32 H :    0.031194
  33 H :    0.023568

  Mayer bond orders larger than 0.100000
B(  0-S ,  1-C ) :   1.1109 B(  0-S ,  4-C ) :   1.1076 B(  1-C ,  2-C ) :   1.6556
B(  1-C , 32-H ) :   0.9620 B(  2-C ,  3-C ) :   1.2013 B(  2-C ,  6-C ) :   1.0076
B(  3-C ,  4-C ) :   1.6049 B(  3-C ,  5-H ) :   0.9971 B(  4-C , 20-C ) :   1.0493
B(  6-C ,  7-H ) :   0.9501 B(  6-C ,  8-H ) :   0.9445 B(  6-C ,  9-C ) :   1.0505
B(  9-C , 10-H ) :   0.9580 B(  9-C , 11-H ) :   0.9540 B(  9-C , 12-C ) :   1.0862
B( 12-C , 13-H ) :   0.9661 B( 12-C , 14-H ) :   0.9645 B( 12-C , 15-H ) :   0.9742
B( 16-S , 17-C ) :   1.1793 B( 16-S , 20-C ) :   1.1200 B( 17-C , 18-C ) :   1.5899
B( 17-C , 33-H ) :   0.9751 B( 18-C , 19-C ) :   1.2177 B( 18-C , 21-H ) :   0.9973
B( 19-C , 20-C ) :   1.6221 B( 19-C , 22-C ) :   1.0110 B( 22-C , 23-H ) :   0.9368
B( 22-C , 24-H ) :   0.9269 B( 22-C , 25-C ) :   1.0551 B( 25-C , 26-H ) :   0.9573
B( 25-C , 27-H ) :   0.9557 B( 25-C , 28-C ) :   1.0883 B( 28-C , 29-H ) :   0.9688
B( 28-C , 30-H ) :   0.9704 B( 28-C , 31-H ) :   0.9747

Dispersion correction           -0.014793970
FINAL SINGLE POINT ENERGY     -1339.847866041692

DIPOLE MOMENT
-------------
                                X             Y             Z
Electronic contribution:    -21.43595       3.72354      11.70198
Nuclear contribution   :     21.82834      -3.57867     -12.06747
                        -----------------------------------------
Total Dipole Moment    :      0.39239       0.14486      -0.36549
                        -----------------------------------------
Magnitude (a.u.)       :      0.55546
Magnitude (Debye)      :      1.41187

Rotational constants in cm-1:     0.018727     0.008728     0.007084
Rotational constants in MHz :   561.408315   261.657265   212.379382

                             ****ORCA TERMINATED NORMALLY****
TOTAL RUN TIME: 0 days 0 hours 0 minutes 34 seconds 411 msec
