                         Program Version 4.2.1 -  RELEASE  -
|  1> ! wB97X-D3 SP def2-SVP
|  2> %pal
|  3> nprocs 16
|  4> end
|  5>
|  6> * xyz 0 1
|  7> S 	 -79.6237 	 43.1659 	 136.45
|  8> C 	 -79.8788 	 42.0497 	 137.762
|  9> C 	 -80.7236 	 42.4983 	 138.798
| 10> C 	 -81.074 	 43.8736 	 138.496
| 11> C 	 -80.3835 	 44.4342 	 137.386
| 12> H 	 -81.4959 	 44.4966 	 139.27
| 13> C 	 -81.181 	 41.7373 	 140.014
| 14> H 	 -81.4597 	 40.6873 	 139.706
| 15> H 	 -82.2228 	 42.0195 	 140.23
| 16> C 	 -80.3086 	 41.7935 	 141.286
| 17> H 	 -80.2745 	 42.8726 	 141.602
| 18> H 	 -80.9377 	 41.2002 	 141.994
| 19> C 	 -78.8671 	 41.1885 	 140.968
| 20> H 	 -78.311 	 41.8614 	 140.354
| 21> H 	 -78.2557 	 41.1184 	 141.913
| 22> H 	 -78.957 	 40.1567 	 140.534
| 23> S 	 -81.2148 	 46.0112 	 135.287
| 24> C 	 -81.6878 	 47.6448 	 135.509
| 25> C 	 -81.2921 	 48.0914 	 136.737
| 26> C 	 -80.6807 	 47.0119 	 137.536
| 27> C 	 -80.559 	 45.7738 	 136.935
| 28> H 	 -81.4461 	 49.1673 	 136.948
| 29> C 	 -80.0346 	 47.1876 	 138.92
| 30> H 	 -80.1915 	 46.3384 	 139.543
| 31> H 	 -80.5614 	 48.0401 	 139.397
| 32> C 	 -78.5473 	 47.4242 	 138.852
| 33> H 	 -77.9799 	 46.5419 	 138.565
| 34> H 	 -78.3092 	 47.4326 	 139.935
| 35> C 	 -78.0833 	 48.7043 	 138.101
| 36> H 	 -78.6026 	 49.5118 	 138.718
| 37> H 	 -78.4061 	 48.7626 	 137.088
| 38> H 	 -77.0054 	 48.7969 	 138.106
| 39> H 	 -79.4256 	 41.0603 	 137.758
| 40> H 	 -82.0686 	 48.2978 	 134.722
| 41> *
| 42>
| 43>                          ****END OF INPUT****

CARTESIAN COORDINATES (ANGSTROEM)
---------------------------------
  S    -79.623700   43.165900  136.450000
  C    -79.878800   42.049700  137.762000
  C    -80.723600   42.498300  138.798000
  C    -81.074000   43.873600  138.496000
  C    -80.383500   44.434200  137.386000
  H    -81.495900   44.496600  139.270000
  C    -81.181000   41.737300  140.014000
  H    -81.459700   40.687300  139.706000
  H    -82.222800   42.019500  140.230000
  C    -80.308600   41.793500  141.286000
  H    -80.274500   42.872600  141.602000
  H    -80.937700   41.200200  141.994000
  C    -78.867100   41.188500  140.968000
  H    -78.311000   41.861400  140.354000
  H    -78.255700   41.118400  141.913000
  H    -78.957000   40.156700  140.534000
  S    -81.214800   46.011200  135.287000
  C    -81.687800   47.644800  135.509000
  C    -81.292100   48.091400  136.737000
  C    -80.680700   47.011900  137.536000
  C    -80.559000   45.773800  136.935000
  H    -81.446100   49.167300  136.948000
  C    -80.034600   47.187600  138.920000
  H    -80.191500   46.338400  139.543000
  H    -80.561400   48.040100  139.397000
  C    -78.547300   47.424200  138.852000
  H    -77.979900   46.541900  138.565000
  H    -78.309200   47.432600  139.935000
  C    -78.083300   48.704300  138.101000
  H    -78.602600   49.511800  138.718000
  H    -78.406100   48.762600  137.088000
  H    -77.005400   48.796900  138.106000
  H    -79.425600   41.060300  137.758000
  H    -82.068600   48.297800  134.722000

 Total Charge           Charge          ....    0
 Multiplicity           Mult            ....    1
 Number of Electrons    NEL             ....  134
 Basis Dimension        Dim             ....  322

ORBITAL ENERGIES
----------------

  NO   OCC          E(Eh)            E(eV)
   0   2.0000     -88.973188     -2421.0835
   1   2.0000     -88.954860     -2420.5848
   2   2.0000     -10.334007      -281.2026
   3   2.0000     -10.324860      -280.9537
   4   2.0000     -10.318137      -280.7708
   5   2.0000     -10.316390      -280.7232
   6   2.0000     -10.307221      -280.4737
   7   2.0000     -10.306685      -280.4592
   8   2.0000     -10.304389      -280.3967
   9   2.0000     -10.299564      -280.2654
  10   2.0000     -10.299555      -280.2651
  11   2.0000     -10.299482      -280.2632
  12   2.0000     -10.290037      -280.0061
  13   2.0000     -10.286823      -279.9187
  14   2.0000     -10.281984      -279.7870
  15   2.0000     -10.277754      -279.6719
  16   2.0000      -8.087791      -220.0800
  17   2.0000      -8.070399      -219.6067
  18   2.0000      -6.046215      -164.5259
  19   2.0000      -6.042397      -164.4220
  20   2.0000      -6.038582      -164.3182
  21   2.0000      -6.028982      -164.0569
  22   2.0000      -6.024652      -163.9391
  23   2.0000      -6.021142      -163.8436
  24   2.0000      -1.005094       -27.3500
  25   2.0000      -0.981334       -26.7035
  26   2.0000      -0.910084       -24.7647
  27   2.0000      -0.907460       -24.6932
  28   2.0000      -0.870830       -23.6965
  29   2.0000      -0.847083       -23.0503
  30   2.0000      -0.833419       -22.6785
  31   2.0000      -0.808780       -22.0080
  32   2.0000      -0.784539       -21.3484
  33   2.0000      -0.775632       -21.1060
  34   2.0000      -0.712175       -19.3793
  35   2.0000      -0.698906       -19.0182
  36   2.0000      -0.686676       -18.6854
  37   2.0000      -0.658178       -17.9099
  38   2.0000      -0.636191       -17.3116
  39   2.0000      -0.618873       -16.8404
  40   2.0000      -0.585805       -15.9406
  41   2.0000      -0.574167       -15.6239
  42   2.0000      -0.556401       -15.1404
  43   2.0000      -0.545211       -14.8359
  44   2.0000      -0.539590       -14.6830
  45   2.0000      -0.536779       -14.6065
  46   2.0000      -0.509930       -13.8759
  47   2.0000      -0.508689       -13.8421
  48   2.0000      -0.507224       -13.8023
  49   2.0000      -0.492185       -13.3930
  50   2.0000      -0.487252       -13.2588
  51   2.0000      -0.479348       -13.0437
  52   2.0000      -0.470574       -12.8050
  53   2.0000      -0.462687       -12.5903
  54   2.0000      -0.460497       -12.5308
  55   2.0000      -0.451390       -12.2830
  56   2.0000      -0.443228       -12.0609
  57   2.0000      -0.437913       -11.9162
  58   2.0000      -0.430488       -11.7142
  59   2.0000      -0.427465       -11.6319
  60   2.0000      -0.420027       -11.4295
  61   2.0000      -0.412422       -11.2226
  62   2.0000      -0.392446       -10.6790
  63   2.0000      -0.350394        -9.5347
  64   2.0000      -0.333770        -9.0823
  65   2.0000      -0.322639        -8.7794
  66   2.0000      -0.287330        -7.8186
  67   0.0000       0.023141         0.6297
  68   0.0000       0.066499         1.8095
  69   0.0000       0.106611         2.9010
  70   0.0000       0.115552         3.1443
  71   0.0000       0.125931         3.4268

MULLIKEN ATOMIC CHARGES
-----------------------
   0 S :    0.130108
   1 C :   -0.119545
   2 C :   -0.098420
   3 C :    0.043659
   4 C :   -0.171810
   5 H :    0.022562
   6 C :    0.008403
   7 H :    0.030618
   8 H :    0.024920
   9 C :   -0.057677
  10 H :    0.042844
  11 H :    0.044652
  12 C :   -0.077540
  13 H :    0.046940
  14 H :    0.043144
  15 H :    0.045299
  16 S :    0.070940
  17 C :   -0.092713
  18 C :   -0.040915
  19 C :   -0.090888
  20 C :   -0.096478
  21 H :    0.033630
  22 C :    0.070672
  23 H :    0.009601
  24 H :    0.019538
  25 C :   -0.075589
  26 H :    0.026753
  27 H :    0.021250
  28 C :   -0.041968
  29 H :    0.030329
  30 H :    0.044057
  31 H :    0.037775
  32 H :    0.048688
  33 H :    0.067159
Sum of atomic charges:    0.0000000

LOEWDIN ATOMIC CHARGES
----------------------
   0 S :    0.419397
   1 C :   -0.195551
   2 C :   -0.063422
   3 C :   -0.051146
   4 C :   -0.202705
   5 H :    0.026733
   6 C :   -0.051735
   7 H :    0.036082
   8 H :    0.034075
   9 C :   -0.037725
  10 H :    0.030069
  11 H :    0.031119
  12 C :   -0.070867
  13 H :    0.023512
  14 H :    0.031850
  15 H :    0.031234
  16 S :    0.387972
  17 C :   -0.190576
  18 C :   -0.087706
  19 C :   -0.054345
  20 C :   -0.189706
  21 H :    0.039364
  22 C :   -0.032315
  23 H :    0.024389
  24 H :    0.028060
  25 C :   -0.043873
  26 H :    0.021374
  27 H :    0.026362
  28 C :   -0.062466
  29 H :    0.032735
  30 H :    0.022044
  31 H :    0.026264
  32 H :    0.024627
  33 H :    0.036876

  Mayer bond orders larger than 0.100000
B(  0-S ,  1-C ) :   1.1554 B(  0-S ,  4-C ) :   1.1492 B(  1-C ,  2-C ) :   1.5915
B(  1-C , 32-H ) :   0.9646 B(  2-C ,  3-C ) :   1.2727 B(  2-C ,  6-C ) :   1.0221
B(  3-C ,  4-C ) :   1.5418 B(  3-C ,  5-H ) :   0.9764 B(  4-C , 20-C ) :   1.0741
B(  6-C ,  7-H ) :   0.9402 B(  6-C ,  8-H ) :   0.9374 B(  6-C ,  9-C ) :   1.0583
B(  9-C , 10-H ) :   0.9571 B(  9-C , 11-H ) :   0.9557 B(  9-C , 12-C ) :   1.0612
B( 12-C , 13-H ) :   0.9736 B( 12-C , 14-H ) :   0.9761 B( 12-C , 15-H ) :   0.9756
B( 16-S , 17-C ) :   1.1756 B( 16-S , 20-C ) :   1.0980 B( 17-C , 18-C ) :   1.6111
B( 17-C , 33-H ) :   0.9618 B( 18-C , 19-C ) :   1.2142 B( 18-C , 21-H ) :   0.9911
B( 19-C , 20-C ) :   1.6100 B( 19-C , 22-C ) :   1.0449 B( 22-C , 23-H ) :   0.9306
B( 22-C , 24-H ) :   0.9359 B( 22-C , 25-C ) :   1.0854 B( 25-C , 26-H ) :   0.9534
B( 25-C , 27-H ) :   0.9539 B( 25-C , 28-C ) :   1.0619 B( 28-C , 29-H ) :   0.9757
B( 28-C , 30-H ) :   0.9764 B( 28-C , 31-H ) :   0.9743

Dispersion correction           -0.014998187
FINAL SINGLE POINT ENERGY     -1339.864389008974

DIPOLE MOMENT
-------------
                                X             Y             Z
Electronic contribution:     -8.05237      -0.82078     -23.84415
Nuclear contribution   :      8.05524       0.84515      24.51319
                        -----------------------------------------
Total Dipole Moment    :      0.00287       0.02437       0.66903
                        -----------------------------------------
Magnitude (a.u.)       :      0.66948
Magnitude (Debye)      :      1.70169

Rotational constants in cm-1:     0.021163     0.008386     0.007007
Rotational constants in MHz :   634.449069   251.407205   210.071823

                             ****ORCA TERMINATED NORMALLY****
TOTAL RUN TIME: 0 days 0 hours 0 minutes 36 seconds 27 msec
