                         Program Version 4.2.1 -  RELEASE  -
|  1> ! wB97X-D3 SP def2-SVP
|  2> %pal
|  3> nprocs 16
|  4> end
|  5>
|  6> * xyz 0 1
|  7> S 	 68.2702 	 20.5853 	 73.1114
|  8> C 	 67.2173 	 19.2253 	 73.3142
|  9> C 	 65.92 	 19.6606 	 73.4097
| 10> C 	 65.7759 	 21.0701 	 73.6317
| 11> C 	 66.9928 	 21.747 	 73.5206
| 12> H 	 64.856 	 21.667 	 73.7854
| 13> C 	 64.727 	 18.7415 	 73.4855
| 14> H 	 64.4415 	 18.4757 	 74.5309
| 15> H 	 65.1625 	 17.8 	 73.0611
| 16> C 	 63.5016 	 19.007 	 72.608
| 17> H 	 62.9901 	 20.0009 	 72.9407
| 18> H 	 63.863 	 19.1851 	 71.587
| 19> C 	 62.3981 	 17.9356 	 72.6558
| 20> H 	 62.0111 	 17.6128 	 73.6463
| 21> H 	 61.5645 	 18.2783 	 72.1085
| 22> H 	 62.715 	 17.0651 	 72.1714
| 23> S 	 65.899 	 24.2373 	 74.3457
| 24> C 	 66.9669 	 25.5793 	 74.6195
| 25> C 	 68.2558 	 25.2165 	 74.3547
| 26> C 	 68.4628 	 23.8605 	 73.9372
| 27> C 	 67.2728 	 23.1512 	 73.8763
| 28> H 	 69.029 	 25.9315 	 74.582
| 29> C 	 69.8298 	 23.3241 	 73.6574
| 30> H 	 69.8973 	 22.7681 	 72.7023
| 31> H 	 69.9685 	 22.7784 	 74.5689
| 32> C 	 70.9985 	 24.313 	 73.4868
| 33> H 	 71.0305 	 24.7716 	 74.4983
| 34> H 	 70.9756 	 25.0861 	 72.7268
| 35> C 	 72.3351 	 23.5734 	 73.2197
| 36> H 	 73.1996 	 24.2176 	 73.1061
| 37> H 	 72.3351 	 22.9733 	 72.3018
| 38> H 	 72.6324 	 22.8907 	 73.9326
| 39> H 	 67.4669 	 18.146 	 73.3925
| 40> H 	 66.6494 	 26.6224 	 74.8753
| 41> *
| 42>
| 43>                          ****END OF INPUT****

CARTESIAN COORDINATES (ANGSTROEM)
---------------------------------
  S     68.270200   20.585300   73.111400
  C     67.217300   19.225300   73.314200
  C     65.920000   19.660600   73.409700
  C     65.775900   21.070100   73.631700
  C     66.992800   21.747000   73.520600
  H     64.856000   21.667000   73.785400
  C     64.727000   18.741500   73.485500
  H     64.441500   18.475700   74.530900
  H     65.162500   17.800000   73.061100
  C     63.501600   19.007000   72.608000
  H     62.990100   20.000900   72.940700
  H     63.863000   19.185100   71.587000
  C     62.398100   17.935600   72.655800
  H     62.011100   17.612800   73.646300
  H     61.564500   18.278300   72.108500
  H     62.715000   17.065100   72.171400
  S     65.899000   24.237300   74.345700
  C     66.966900   25.579300   74.619500
  C     68.255800   25.216500   74.354700
  C     68.462800   23.860500   73.937200
  C     67.272800   23.151200   73.876300
  H     69.029000   25.931500   74.582000
  C     69.829800   23.324100   73.657400
  H     69.897300   22.768100   72.702300
  H     69.968500   22.778400   74.568900
  C     70.998500   24.313000   73.486800
  H     71.030500   24.771600   74.498300
  H     70.975600   25.086100   72.726800
  C     72.335100   23.573400   73.219700
  H     73.199600   24.217600   73.106100
  H     72.335100   22.973300   72.301800
  H     72.632400   22.890700   73.932600
  H     67.466900   18.146000   73.392500
  H     66.649400   26.622400   74.875300

 Total Charge           Charge          ....    0
 Multiplicity           Mult            ....    1
 Number of Electrons    NEL             ....  134
 Basis Dimension        Dim             ....  322

ORBITAL ENERGIES
----------------

  NO   OCC          E(Eh)            E(eV)
   0   2.0000     -88.967203     -2420.9207
   1   2.0000     -88.965410     -2420.8719
   2   2.0000     -10.335711      -281.2490
   3   2.0000     -10.334033      -281.2033
   4   2.0000     -10.320976      -280.8480
   5   2.0000     -10.313421      -280.6424
   6   2.0000     -10.305350      -280.4228
   7   2.0000     -10.299347      -280.2595
   8   2.0000     -10.295567      -280.1566
   9   2.0000     -10.295387      -280.1517
  10   2.0000     -10.293792      -280.1083
  11   2.0000     -10.293137      -280.0905
  12   2.0000     -10.292296      -280.0676
  13   2.0000     -10.291008      -280.0326
  14   2.0000     -10.273469      -279.5553
  15   2.0000     -10.272773      -279.5364
  16   2.0000      -8.081068      -219.8970
  17   2.0000      -8.079314      -219.8493
  18   2.0000      -6.039827      -164.3520
  19   2.0000      -6.038094      -164.3049
  20   2.0000      -6.035627      -164.2378
  21   2.0000      -6.033987      -164.1931
  22   2.0000      -6.031653      -164.1296
  23   2.0000      -6.029818      -164.0797
  24   2.0000      -1.003588       -27.3090
  25   2.0000      -0.984110       -26.7790
  26   2.0000      -0.913594       -24.8602
  27   2.0000      -0.906537       -24.6681
  28   2.0000      -0.870144       -23.6778
  29   2.0000      -0.853154       -23.2155
  30   2.0000      -0.845365       -23.0035
  31   2.0000      -0.813710       -22.1422
  32   2.0000      -0.785672       -21.3792
  33   2.0000      -0.773013       -21.0347
  34   2.0000      -0.712319       -19.3832
  35   2.0000      -0.703947       -19.1554
  36   2.0000      -0.685323       -18.6486
  37   2.0000      -0.659415       -17.9436
  38   2.0000      -0.627748       -17.0819
  39   2.0000      -0.613686       -16.6992
  40   2.0000      -0.598804       -16.2943
  41   2.0000      -0.581690       -15.8286
  42   2.0000      -0.569351       -15.4928
  43   2.0000      -0.558358       -15.1937
  44   2.0000      -0.532307       -14.4848
  45   2.0000      -0.519412       -14.1339
  46   2.0000      -0.515378       -14.0242
  47   2.0000      -0.512168       -13.9368
  48   2.0000      -0.505143       -13.7457
  49   2.0000      -0.502433       -13.6719
  50   2.0000      -0.483361       -13.1529
  51   2.0000      -0.479650       -13.0520
  52   2.0000      -0.473957       -12.8970
  53   2.0000      -0.467043       -12.7089
  54   2.0000      -0.459895       -12.5144
  55   2.0000      -0.455970       -12.4076
  56   2.0000      -0.449488       -12.2312
  57   2.0000      -0.437710       -11.9107
  58   2.0000      -0.433396       -11.7933
  59   2.0000      -0.425609       -11.5814
  60   2.0000      -0.415881       -11.3167
  61   2.0000      -0.404400       -11.0043
  62   2.0000      -0.400918       -10.9095
  63   2.0000      -0.364409        -9.9161
  64   2.0000      -0.331302        -9.0152
  65   2.0000      -0.328432        -8.9371
  66   2.0000      -0.279661        -7.6100
  67   0.0000       0.017969         0.4890
  68   0.0000       0.085869         2.3366
  69   0.0000       0.109759         2.9867
  70   0.0000       0.119323         3.2470
  71   0.0000       0.136381         3.7111

MULLIKEN ATOMIC CHARGES
-----------------------
   0 S :    0.086669
   1 C :   -0.120034
   2 C :   -0.079506
   3 C :   -0.019929
   4 C :   -0.119353
   5 H :    0.036510
   6 C :    0.043673
   7 H :    0.046349
   8 H :    0.008311
   9 C :   -0.115819
  10 H :    0.036902
  11 H :    0.037199
  12 C :   -0.006531
  13 H :    0.032157
  14 H :    0.024096
  15 H :    0.014188
  16 S :    0.075669
  17 C :   -0.088925
  18 C :   -0.042140
  19 C :   -0.053949
  20 C :   -0.110567
  21 H :    0.016257
  22 C :    0.024616
  23 H :    0.055047
  24 H :    0.053207
  25 C :   -0.086203
  26 H :    0.031153
  27 H :    0.043768
  28 C :   -0.020754
  29 H :    0.026569
  30 H :    0.023792
  31 H :    0.008014
  32 H :    0.063761
  33 H :    0.075800
Sum of atomic charges:    0.0000000

LOEWDIN ATOMIC CHARGES
----------------------
   0 S :    0.411750
   1 C :   -0.213353
   2 C :   -0.068611
   3 C :   -0.074157
   4 C :   -0.173039
   5 H :    0.033755
   6 C :   -0.044101
   7 H :    0.034058
   8 H :    0.029445
   9 C :   -0.044408
  10 H :    0.026895
  11 H :    0.028424
  12 C :   -0.059829
  13 H :    0.030327
  14 H :    0.024341
  15 H :    0.016330
  16 S :    0.379702
  17 C :   -0.189869
  18 C :   -0.079227
  19 C :   -0.058772
  20 C :   -0.174027
  21 H :    0.029766
  22 C :   -0.043043
  23 H :    0.030853
  24 H :    0.042342
  25 C :   -0.038779
  26 H :    0.025553
  27 H :    0.026190
  28 C :   -0.063573
  29 H :    0.027322
  30 H :    0.026878
  31 H :    0.013637
  32 H :    0.042511
  33 H :    0.044711

  Mayer bond orders larger than 0.100000
B(  0-S ,  1-C ) :   1.1249 B(  0-S ,  4-C ) :   1.1381 B(  1-C ,  2-C ) :   1.6208
B(  1-C , 32-H ) :   0.9596 B(  2-C ,  3-C ) :   1.2331 B(  2-C ,  6-C ) :   1.0274
B(  3-C ,  4-C ) :   1.5657 B(  3-C ,  5-H ) :   0.9800 B(  4-C , 20-C ) :   1.1018
B(  6-C ,  7-H ) :   0.9390 B(  6-C ,  8-H ) :   0.9398 B(  6-C ,  9-C ) :   1.0612
B(  9-C , 10-H ) :   0.9538 B(  9-C , 11-H ) :   0.9548 B(  9-C , 12-C ) :   1.0846
B( 12-C , 13-H ) :   0.9738 B( 12-C , 14-H ) :   0.9721 B( 12-C , 15-H ) :   0.9735
B( 16-S , 17-C ) :   1.1462 B( 16-S , 20-C ) :   1.1142 B( 17-C , 18-C ) :   1.6233
B( 17-C , 33-H ) :   0.9562 B( 18-C , 19-C ) :   1.2408 B( 18-C , 21-H ) :   0.9871
B( 19-C , 20-C ) :   1.5951 B( 19-C , 22-C ) :   1.0143 B( 22-C , 23-H ) :   0.9393
B( 22-C , 24-H ) :   0.9261 B( 22-C , 25-C ) :   1.0768 B( 25-C , 26-H ) :   0.9414
B( 25-C , 27-H ) :   0.9627 B( 25-C , 28-C ) :   1.0856 B( 28-C , 29-H ) :   0.9732
B( 28-C , 30-H ) :   0.9714 B( 28-C , 31-H ) :   0.9732

Dispersion correction           -0.013145050
FINAL SINGLE POINT ENERGY     -1339.867944978983

DIPOLE MOMENT
-------------
                                X             Y             Z
Electronic contribution:     -1.49776       8.93409       3.85265
Nuclear contribution   :      1.65556      -8.97758      -3.78587
                        -----------------------------------------
Total Dipole Moment    :      0.15781      -0.04349       0.06678
                        -----------------------------------------
Magnitude (a.u.)       :      0.17679
Magnitude (Debye)      :      0.44936

Rotational constants in cm-1:     0.023425     0.007094     0.005538
Rotational constants in MHz :   702.254769   212.668575   166.031535

                             ****ORCA TERMINATED NORMALLY****
TOTAL RUN TIME: 0 days 0 hours 0 minutes 30 seconds 302 msec
