                         Program Version 4.2.1 -  RELEASE  -
|  1> ! wB97X-D3 SP def2-SVP
|  2> %pal
|  3> nprocs 16
|  4> end
|  5>
|  6> * xyz 0 1
|  7> S 	 11.36 	 -9.71981 	 96.7873
|  8> C 	 10.4289 	 -8.81552 	 97.936
|  9> C 	 10.0403 	 -7.55348 	 97.3955
| 10> C 	 10.4289 	 -7.39473 	 96.0597
| 11> C 	 11.2012 	 -8.4235 	 95.5271
| 12> H 	 10.2073 	 -6.51193 	 95.5442
| 13> C 	 9.1111 	 -6.54861 	 98.0446
| 14> H 	 9.39068 	 -5.51312 	 97.7571
| 15> H 	 9.32358 	 -6.69325 	 99.1339
| 16> C 	 7.61148 	 -6.69401 	 97.7893
| 17> H 	 7.13166 	 -5.8362 	 98.2131
| 18> H 	 7.38971 	 -6.50042 	 96.7196
| 19> C 	 6.93173 	 -8.11527 	 98.1714
| 20> H 	 5.91729 	 -8.02266 	 97.883
| 21> H 	 7.477 	 -8.89843 	 97.5091
| 22> H 	 7.02693 	 -8.2964 	 99.2086
| 23> S 	 13.2478 	 -8.26658 	 93.7108
| 24> C 	 12.9008 	 -8.55555 	 92.0458
| 25> C 	 11.5639 	 -8.84975 	 91.9107
| 26> C 	 10.847 	 -9.01397 	 93.0958
| 27> C 	 11.6297 	 -8.72434 	 94.1964
| 28> H 	 11.1504 	 -8.97016 	 90.9437
| 29> C 	 9.32641 	 -9.06667 	 93.2049
| 30> H 	 8.99208 	 -8.27398 	 93.802
| 31> H 	 9.13331 	 -9.99073 	 93.7529
| 32> C 	 8.46646 	 -9.09519 	 91.883
| 33> H 	 8.85564 	 -9.86088 	 91.259
| 34> H 	 8.70276 	 -8.20011 	 91.2225
| 35> C 	 6.96096 	 -9.30064 	 91.7612
| 36> H 	 6.61047 	 -9.40002 	 90.761
| 37> H 	 6.42045 	 -8.4905 	 92.2424
| 38> H 	 6.66105 	 -10.1716 	 92.3377
| 39> H 	 10.1325 	 -9.21775 	 98.8954
| 40> H 	 13.5364 	 -8.32083 	 91.1808
| 41> *
| 42>
| 43>                          ****END OF INPUT****

CARTESIAN COORDINATES (ANGSTROEM)
---------------------------------
  S     11.360000   -9.719810   96.787300
  C     10.428900   -8.815520   97.936000
  C     10.040300   -7.553480   97.395500
  C     10.428900   -7.394730   96.059700
  C     11.201200   -8.423500   95.527100
  H     10.207300   -6.511930   95.544200
  C      9.111100   -6.548610   98.044600
  H      9.390680   -5.513120   97.757100
  H      9.323580   -6.693250   99.133900
  C      7.611480   -6.694010   97.789300
  H      7.131660   -5.836200   98.213100
  H      7.389710   -6.500420   96.719600
  C      6.931730   -8.115270   98.171400
  H      5.917290   -8.022660   97.883000
  H      7.477000   -8.898430   97.509100
  H      7.026930   -8.296400   99.208600
  S     13.247800   -8.266580   93.710800
  C     12.900800   -8.555550   92.045800
  C     11.563900   -8.849750   91.910700
  C     10.847000   -9.013970   93.095800
  C     11.629700   -8.724340   94.196400
  H     11.150400   -8.970160   90.943700
  C      9.326410   -9.066670   93.204900
  H      8.992080   -8.273980   93.802000
  H      9.133310   -9.990730   93.752900
  C      8.466460   -9.095190   91.883000
  H      8.855640   -9.860880   91.259000
  H      8.702760   -8.200110   91.222500
  C      6.960960   -9.300640   91.761200
  H      6.610470   -9.400020   90.761000
  H      6.420450   -8.490500   92.242400
  H      6.661050  -10.171600   92.337700
  H     10.132500   -9.217750   98.895400
  H     13.536400   -8.320830   91.180800

 Total Charge           Charge          ....    0
 Multiplicity           Mult            ....    1
 Number of Electrons    NEL             ....  134
 Basis Dimension        Dim             ....  322

ORBITAL ENERGIES
----------------

  NO   OCC          E(Eh)            E(eV)
   0   2.0000     -88.965298     -2420.8688
   1   2.0000     -88.965106     -2420.8636
   2   2.0000     -10.330485      -281.1068
   3   2.0000     -10.320004      -280.8216
   4   2.0000     -10.319698      -280.8133
   5   2.0000     -10.316627      -280.7297
   6   2.0000     -10.301492      -280.3178
   7   2.0000     -10.300507      -280.2910
   8   2.0000     -10.296937      -280.1939
   9   2.0000     -10.292847      -280.0826
  10   2.0000     -10.292464      -280.0722
  11   2.0000     -10.290912      -280.0299
  12   2.0000     -10.288976      -279.9773
  13   2.0000     -10.286042      -279.8974
  14   2.0000     -10.284722      -279.8615
  15   2.0000     -10.277591      -279.6675
  16   2.0000      -8.080429      -219.8797
  17   2.0000      -8.079162      -219.8452
  18   2.0000      -6.038808      -164.3243
  19   2.0000      -6.037557      -164.2903
  20   2.0000      -6.034769      -164.2144
  21   2.0000      -6.033518      -164.1804
  22   2.0000      -6.031401      -164.1228
  23   2.0000      -6.030329      -164.0936
  24   2.0000      -1.008917       -27.4540
  25   2.0000      -0.982539       -26.7362
  26   2.0000      -0.905294       -24.6343
  27   2.0000      -0.903508       -24.5857
  28   2.0000      -0.869736       -23.6667
  29   2.0000      -0.855159       -23.2701
  30   2.0000      -0.846222       -23.0269
  31   2.0000      -0.811576       -22.0841
  32   2.0000      -0.787686       -21.4340
  33   2.0000      -0.772838       -21.0300
  34   2.0000      -0.709932       -19.3182
  35   2.0000      -0.704609       -19.1734
  36   2.0000      -0.694822       -18.9071
  37   2.0000      -0.652517       -17.7559
  38   2.0000      -0.643712       -17.5163
  39   2.0000      -0.623481       -16.9658
  40   2.0000      -0.598838       -16.2952
  41   2.0000      -0.563420       -15.3314
  42   2.0000      -0.562720       -15.3124
  43   2.0000      -0.545199       -14.8356
  44   2.0000      -0.537860       -14.6359
  45   2.0000      -0.530870       -14.4457
  46   2.0000      -0.522558       -14.2195
  47   2.0000      -0.514164       -13.9911
  48   2.0000      -0.509419       -13.8620
  49   2.0000      -0.497530       -13.5385
  50   2.0000      -0.486226       -13.2309
  51   2.0000      -0.478404       -13.0180
  52   2.0000      -0.473678       -12.8894
  53   2.0000      -0.468938       -12.7605
  54   2.0000      -0.462585       -12.5876
  55   2.0000      -0.458256       -12.4698
  56   2.0000      -0.445762       -12.1298
  57   2.0000      -0.436376       -11.8744
  58   2.0000      -0.428466       -11.6591
  59   2.0000      -0.417170       -11.3518
  60   2.0000      -0.416354       -11.3296
  61   2.0000      -0.413092       -11.2408
  62   2.0000      -0.412285       -11.2189
  63   2.0000      -0.339642        -9.2421
  64   2.0000      -0.332709        -9.0535
  65   2.0000      -0.318453        -8.6655
  66   2.0000      -0.303386        -8.2555
  67   0.0000       0.039149         1.0653
  68   0.0000       0.045017         1.2250
  69   0.0000       0.117707         3.2030
  70   0.0000       0.122206         3.3254
  71   0.0000       0.124402         3.3851

MULLIKEN ATOMIC CHARGES
-----------------------
   0 S :    0.105503
   1 C :   -0.121553
   2 C :   -0.107058
   3 C :    0.076416
   4 C :   -0.175632
   5 H :   -0.006406
   6 C :    0.044958
   7 H :    0.031216
   8 H :    0.030495
   9 C :   -0.077737
  10 H :    0.022641
  11 H :    0.016316
  12 C :   -0.058939
  13 H :    0.035825
  14 H :    0.065314
  15 H :    0.034036
  16 S :    0.122817
  17 C :   -0.080869
  18 C :   -0.059881
  19 C :   -0.016443
  20 C :   -0.184861
  21 H :    0.002891
  22 C :    0.148644
  23 H :    0.021081
  24 H :    0.029263
  25 C :   -0.137564
  26 H :    0.018881
  27 H :    0.026500
  28 C :   -0.003444
  29 H :    0.034170
  30 H :    0.023042
  31 H :    0.022422
  32 H :    0.051822
  33 H :    0.066133
Sum of atomic charges:    0.0000000

LOEWDIN ATOMIC CHARGES
----------------------
   0 S :    0.398096
   1 C :   -0.198596
   2 C :   -0.071574
   3 C :   -0.046601
   4 C :   -0.180929
   5 H :    0.024433
   6 C :   -0.038888
   7 H :    0.034691
   8 H :    0.033621
   9 C :   -0.043104
  10 H :    0.019490
  11 H :    0.021966
  12 C :   -0.061188
  13 H :    0.021951
  14 H :    0.042579
  15 H :    0.016534
  16 S :    0.428460
  17 C :   -0.196271
  18 C :   -0.073685
  19 C :   -0.046945
  20 C :   -0.219610
  21 H :    0.023632
  22 C :   -0.020242
  23 H :    0.023772
  24 H :    0.038646
  25 C :   -0.054044
  26 H :    0.016840
  27 H :    0.026433
  28 C :   -0.058010
  29 H :    0.027609
  30 H :    0.021972
  31 H :    0.024191
  32 H :    0.026262
  33 H :    0.038509

  Mayer bond orders larger than 0.100000
B(  0-S ,  1-C ) :   1.1764 B(  0-S ,  4-C ) :   1.1459 B(  1-C ,  2-C ) :   1.5442
B(  1-C ,  4-C ) :   0.1165 B(  1-C , 32-H ) :   0.9712 B(  2-C ,  3-C ) :   1.2865
B(  2-C ,  6-C ) :   1.0307 B(  3-C ,  4-C ) :   1.5490 B(  3-C ,  5-H ) :   1.0029
B(  4-C , 20-C ) :   1.0227 B(  6-C ,  7-H ) :   0.9387 B(  6-C ,  8-H ) :   0.9404
B(  6-C ,  9-C ) :   1.0742 B(  9-C , 10-H ) :   0.9545 B(  9-C , 11-H ) :   0.9538
B(  9-C , 12-C ) :   1.0610 B( 12-C , 13-H ) :   0.9760 B( 12-C , 14-H ) :   0.9728
B( 12-C , 15-H ) :   0.9807 B( 16-S , 17-C ) :   1.1713 B( 16-S , 20-C ) :   1.1674
B( 17-C , 18-C ) :   1.5746 B( 17-C , 20-C ) :   0.1031 B( 17-C , 33-H ) :   0.9619
B( 18-C , 19-C ) :   1.2935 B( 18-C , 21-H ) :   0.9893 B( 19-C , 20-C ) :   1.5528
B( 19-C , 22-C ) :   1.0305 B( 22-C , 23-H ) :   0.9337 B( 22-C , 24-H ) :   0.9140
B( 22-C , 25-C ) :   1.0675 B( 25-C , 26-H ) :   0.9521 B( 25-C , 27-H ) :   0.9505
B( 25-C , 28-C ) :   1.0927 B( 28-C , 29-H ) :   0.9708 B( 28-C , 30-H ) :   0.9741
B( 28-C , 31-H ) :   0.9714

Dispersion correction           -0.014698804
FINAL SINGLE POINT ENERGY     -1339.865297623590

DIPOLE MOMENT
-------------
                                X             Y             Z
Electronic contribution:     29.84722      -4.57168       1.50345
Nuclear contribution   :    -30.58174       4.92983      -1.71998
                        -----------------------------------------
Total Dipole Moment    :     -0.73452       0.35814      -0.21653
                        -----------------------------------------
Magnitude (a.u.)       :      0.84538
Magnitude (Debye)      :      2.14879

Rotational constants in cm-1:     0.016469     0.009521     0.006889
Rotational constants in MHz :   493.719981   285.442265   206.523215

                             ****ORCA TERMINATED NORMALLY****
TOTAL RUN TIME: 0 days 0 hours 0 minutes 34 seconds 231 msec
