                         Program Version 4.2.1 -  RELEASE  -
|  1> ! wB97X-D3 SP def2-SVP
|  2> %pal
|  3> nprocs 16
|  4> end
|  5>
|  6> * xyz 0 1
|  7> S 	 -39.2559 	 33.8171 	 77.2054
|  8> C 	 -39.0195 	 34.8336 	 75.821
|  9> C 	 -40.2083 	 35.5302 	 75.5659
| 10> C 	 -41.1411 	 35.3435 	 76.5889
| 11> C 	 -40.7646 	 34.4994 	 77.6236
| 12> H 	 -42.0799 	 35.898 	 76.6492
| 13> C 	 -40.457 	 36.3962 	 74.4125
| 14> H 	 -41.2099 	 35.7452 	 73.8174
| 15> H 	 -39.5765 	 36.4634 	 73.8761
| 16> C 	 -40.8964 	 37.8088 	 74.7523
| 17> H 	 -41.3362 	 38.3458 	 73.8559
| 18> H 	 -41.7197 	 37.546 	 75.381
| 19> C 	 -39.9112 	 38.6763 	 75.5579
| 20> H 	 -39.1068 	 39.0257 	 74.9354
| 21> H 	 -40.4333 	 39.5772 	 75.9381
| 22> H 	 -39.3706 	 38.2261 	 76.4368
| 23> S 	 -42.9468 	 35.0603 	 79.0965
| 24> C 	 -43.3254 	 34.2882 	 80.586
| 25> C 	 -42.1891 	 33.5844 	 81.0556
| 26> C 	 -41.1495 	 33.4919 	 80.0611
| 27> C 	 -41.4663 	 34.2376 	 78.8911
| 28> H 	 -42.3109 	 33.1325 	 82.0073
| 29> C 	 -40.1121 	 32.4141 	 80.1612
| 30> H 	 -39.859 	 32.2048 	 81.1418
| 31> H 	 -39.1327 	 32.56 	 79.7501
| 32> C 	 -40.6492 	 31.1557 	 79.4374
| 33> H 	 -40.8723 	 31.4713 	 78.4067
| 34> H 	 -41.6067 	 30.8302 	 79.756
| 35> C 	 -39.8173 	 29.8785 	 79.3601
| 36> H 	 -39.7252 	 29.3398 	 80.315
| 37> H 	 -38.8428 	 29.9727 	 78.9022
| 38> H 	 -40.2708 	 29.1246 	 78.6849
| 39> H 	 -38.1831 	 34.7679 	 75.1831
| 40> H 	 -44.2492 	 34.3405 	 81.153
| 41> *
| 42>
| 43>                          ****END OF INPUT****

CARTESIAN COORDINATES (ANGSTROEM)
---------------------------------
  S    -39.255900   33.817100   77.205400
  C    -39.019500   34.833600   75.821000
  C    -40.208300   35.530200   75.565900
  C    -41.141100   35.343500   76.588900
  C    -40.764600   34.499400   77.623600
  H    -42.079900   35.898000   76.649200
  C    -40.457000   36.396200   74.412500
  H    -41.209900   35.745200   73.817400
  H    -39.576500   36.463400   73.876100
  C    -40.896400   37.808800   74.752300
  H    -41.336200   38.345800   73.855900
  H    -41.719700   37.546000   75.381000
  C    -39.911200   38.676300   75.557900
  H    -39.106800   39.025700   74.935400
  H    -40.433300   39.577200   75.938100
  H    -39.370600   38.226100   76.436800
  S    -42.946800   35.060300   79.096500
  C    -43.325400   34.288200   80.586000
  C    -42.189100   33.584400   81.055600
  C    -41.149500   33.491900   80.061100
  C    -41.466300   34.237600   78.891100
  H    -42.310900   33.132500   82.007300
  C    -40.112100   32.414100   80.161200
  H    -39.859000   32.204800   81.141800
  H    -39.132700   32.560000   79.750100
  C    -40.649200   31.155700   79.437400
  H    -40.872300   31.471300   78.406700
  H    -41.606700   30.830200   79.756000
  C    -39.817300   29.878500   79.360100
  H    -39.725200   29.339800   80.315000
  H    -38.842800   29.972700   78.902200
  H    -40.270800   29.124600   78.684900
  H    -38.183100   34.767900   75.183100
  H    -44.249200   34.340500   81.153000

 Total Charge           Charge          ....    0
 Multiplicity           Mult            ....    1
 Number of Electrons    NEL             ....  134
 Basis Dimension        Dim             ....  322

ORBITAL ENERGIES
----------------

  NO   OCC          E(Eh)            E(eV)
   0   2.0000     -88.968532     -2420.9568
   1   2.0000     -88.965734     -2420.8807
   2   2.0000     -10.332276      -281.1555
   3   2.0000     -10.332012      -281.1483
   4   2.0000     -10.319573      -280.8098
   5   2.0000     -10.311984      -280.6034
   6   2.0000     -10.309241      -280.5287
   7   2.0000     -10.297984      -280.2224
   8   2.0000     -10.296221      -280.1744
   9   2.0000     -10.289052      -279.9793
  10   2.0000     -10.288086      -279.9530
  11   2.0000     -10.286927      -279.9215
  12   2.0000     -10.284503      -279.8556
  13   2.0000     -10.281098      -279.7629
  14   2.0000     -10.279438      -279.7177
  15   2.0000     -10.275070      -279.5989
  16   2.0000      -8.084105      -219.9797
  17   2.0000      -8.080776      -219.8891
  18   2.0000      -6.042525      -164.4255
  19   2.0000      -6.039171      -164.3342
  20   2.0000      -6.038348      -164.3118
  21   2.0000      -6.035084      -164.2230
  22   2.0000      -6.035078      -164.2228
  23   2.0000      -6.031815      -164.1340
  24   2.0000      -1.014627       -27.6094
  25   2.0000      -0.992084       -26.9960
  26   2.0000      -0.920711       -25.0538
  27   2.0000      -0.910758       -24.7830
  28   2.0000      -0.870246       -23.6806
  29   2.0000      -0.851391       -23.1675
  30   2.0000      -0.843186       -22.9443
  31   2.0000      -0.815461       -22.1898
  32   2.0000      -0.787401       -21.4263
  33   2.0000      -0.774839       -21.0844
  34   2.0000      -0.712949       -19.4003
  35   2.0000      -0.700432       -19.0597
  36   2.0000      -0.693264       -18.8647
  37   2.0000      -0.669854       -18.2277
  38   2.0000      -0.633352       -17.2344
  39   2.0000      -0.630285       -17.1509
  40   2.0000      -0.601870       -16.3777
  41   2.0000      -0.572142       -15.5688
  42   2.0000      -0.561228       -15.2718
  43   2.0000      -0.553838       -15.0707
  44   2.0000      -0.535597       -14.5743
  45   2.0000      -0.524110       -14.2618
  46   2.0000      -0.519178       -14.1276
  47   2.0000      -0.514265       -13.9939
  48   2.0000      -0.507074       -13.7982
  49   2.0000      -0.502578       -13.6758
  50   2.0000      -0.489178       -13.3112
  51   2.0000      -0.482567       -13.1313
  52   2.0000      -0.479839       -13.0571
  53   2.0000      -0.466975       -12.7070
  54   2.0000      -0.463255       -12.6058
  55   2.0000      -0.447675       -12.1819
  56   2.0000      -0.444757       -12.1025
  57   2.0000      -0.442055       -12.0289
  58   2.0000      -0.426200       -11.5975
  59   2.0000      -0.425637       -11.5822
  60   2.0000      -0.415343       -11.3021
  61   2.0000      -0.408707       -11.1215
  62   2.0000      -0.406489       -11.0611
  63   2.0000      -0.361588        -9.8393
  64   2.0000      -0.331315        -9.0155
  65   2.0000      -0.328002        -8.9254
  66   2.0000      -0.279338        -7.6012
  67   0.0000       0.017011         0.4629
  68   0.0000       0.084756         2.3063
  69   0.0000       0.117656         3.2016
  70   0.0000       0.124489         3.3875
  71   0.0000       0.138354         3.7648

MULLIKEN ATOMIC CHARGES
-----------------------
   0 S :    0.099309
   1 C :   -0.106968
   2 C :   -0.111789
   3 C :   -0.040620
   4 C :   -0.088260
   5 H :    0.025864
   6 C :    0.102038
   7 H :    0.060506
   8 H :   -0.014252
   9 C :   -0.068926
  10 H :    0.043395
  11 H :    0.011556
  12 C :   -0.065828
  13 H :    0.025060
  14 H :    0.041235
  15 H :    0.053642
  16 S :    0.100031
  17 C :   -0.097658
  18 C :   -0.036559
  19 C :   -0.037386
  20 C :   -0.130425
  21 H :    0.013188
  22 C :    0.111507
  23 H :   -0.004888
  24 H :    0.017475
  25 C :   -0.062451
  26 H :    0.016162
  27 H :    0.009250
  28 C :   -0.044105
  29 H :    0.031787
  30 H :    0.024685
  31 H :    0.028258
  32 H :    0.032895
  33 H :    0.062272
Sum of atomic charges:   -0.0000000

LOEWDIN ATOMIC CHARGES
----------------------
   0 S :    0.443047
   1 C :   -0.204822
   2 C :   -0.062191
   3 C :   -0.087099
   4 C :   -0.198150
   5 H :    0.023284
   6 C :   -0.033845
   7 H :    0.052603
   8 H :    0.013593
   9 C :   -0.044587
  10 H :    0.034809
  11 H :    0.017284
  12 C :   -0.071532
  13 H :    0.020633
  14 H :    0.032936
  15 H :    0.037184
  16 S :    0.449992
  17 C :   -0.199852
  18 C :   -0.062107
  19 C :   -0.052799
  20 C :   -0.206032
  21 H :    0.027723
  22 C :   -0.032593
  23 H :    0.020367
  24 H :    0.022463
  25 C :   -0.038507
  26 H :    0.022734
  27 H :    0.018639
  28 C :   -0.072972
  29 H :    0.024010
  30 H :    0.020711
  31 H :    0.032828
  32 H :    0.019176
  33 H :    0.033070

  Mayer bond orders larger than 0.100000
B(  0-S ,  1-C ) :   1.1499 B(  0-S ,  4-C ) :   1.1728 B(  1-C ,  2-C ) :   1.5464
B(  1-C ,  4-C ) :   0.1007 B(  1-C , 32-H ) :   0.9764 B(  2-C ,  3-C ) :   1.2977
B(  2-C ,  6-C ) :   1.0296 B(  3-C ,  4-C ) :   1.5227 B(  3-C ,  5-H ) :   0.9727
B(  4-C , 20-C ) :   1.0794 B(  6-C ,  7-H ) :   0.9315 B(  6-C ,  8-H ) :   0.9293
B(  6-C ,  9-C ) :   1.0595 B(  9-C , 10-H ) :   0.9523 B(  9-C , 11-H ) :   0.9585
B(  9-C , 12-C ) :   1.0696 B( 12-C , 13-H ) :   0.9747 B( 12-C , 14-H ) :   0.9736
B( 12-C , 15-H ) :   0.9737 B( 16-S , 17-C ) :   1.1729 B( 16-S , 20-C ) :   1.1727
B( 17-C , 18-C ) :   1.5807 B( 17-C , 20-C ) :   0.1011 B( 17-C , 33-H ) :   0.9700
B( 18-C , 19-C ) :   1.2595 B( 18-C , 21-H ) :   0.9976 B( 19-C , 20-C ) :   1.5048
B( 19-C , 22-C ) :   1.0791 B( 22-C , 23-H ) :   0.9217 B( 22-C , 24-H ) :   0.9292
B( 22-C , 25-C ) :   1.0439 B( 25-C , 26-H ) :   0.9518 B( 25-C , 27-H ) :   0.9542
B( 25-C , 28-C ) :   1.0915 B( 28-C , 29-H ) :   0.9748 B( 28-C , 30-H ) :   0.9718
B( 28-C , 31-H ) :   0.9694

Dispersion correction           -0.014589532
FINAL SINGLE POINT ENERGY     -1339.866470842865

DIPOLE MOMENT
-------------
                                X             Y             Z
Electronic contribution:     -5.26289       1.10942       5.69889
Nuclear contribution   :      5.17043      -1.15049      -5.74168
                        -----------------------------------------
Total Dipole Moment    :     -0.09246      -0.04107      -0.04279
                        -----------------------------------------
Magnitude (a.u.)       :      0.10985
Magnitude (Debye)      :      0.27921

Rotational constants in cm-1:     0.021843     0.008786     0.006735
Rotational constants in MHz :   654.833739   263.402674   201.910095

                             ****ORCA TERMINATED NORMALLY****
TOTAL RUN TIME: 0 days 0 hours 0 minutes 30 seconds 844 msec
