                         Program Version 4.2.1 -  RELEASE  -
|  1> ! wB97X-D3 SP def2-SVP
|  2> %pal
|  3> nprocs 16
|  4> end
|  5>
|  6> * xyz 0 1
|  7> S 	 -3.01655 	 -14.5216 	 80.8149
|  8> C 	 -1.57091 	 -13.7617 	 81.4195
|  9> C 	 -1.78796 	 -12.3977 	 81.5038
| 10> C 	 -3.03088 	 -11.9799 	 80.9987
| 11> C 	 -3.86306 	 -12.9972 	 80.6372
| 12> H 	 -3.43484 	 -10.9792 	 80.9767
| 13> C 	 -0.806391 	 -11.3231 	 82.1092
| 14> H 	 -0.540209 	 -11.6762 	 83.132
| 15> H 	 -1.3993 	 -10.4709 	 82.3463
| 16> C 	 0.41879 	 -11.0444 	 81.2995
| 17> H 	 1.21967 	 -10.4578 	 81.8563
| 18> H 	 1.06342 	 -11.8886 	 81.0282
| 19> C 	 0.192123 	 -10.431 	 79.9179
| 20> H 	 -0.324309 	 -11.1753 	 79.2688
| 21> H 	 -0.459892 	 -9.58391 	 79.8598
| 22> H 	 1.06284 	 -10.0817 	 79.4266
| 23> S 	 -5.63443 	 -11.702 	 78.9611
| 24> C 	 -7.24903 	 -12.3096 	 78.7387
| 25> C 	 -7.53841 	 -13.4248 	 79.5117
| 26> C 	 -6.31953 	 -13.777 	 80.2336
| 27> C 	 -5.21904 	 -12.9195 	 80.0997
| 28> H 	 -8.44408 	 -13.9579 	 79.3874
| 29> C 	 -6.33725 	 -15.0554 	 81.1432
| 30> H 	 -5.94875 	 -14.6402 	 82.1315
| 31> H 	 -5.60576 	 -15.7528 	 80.8302
| 32> C 	 -7.68217 	 -15.7787 	 81.3798
| 33> H 	 -8.07395 	 -16.1262 	 80.4668
| 34> H 	 -8.27731 	 -15.0367 	 81.8732
| 35> C 	 -7.58715 	 -16.8873 	 82.4921
| 36> H 	 -8.37358 	 -17.6937 	 82.3208
| 37> H 	 -7.68615 	 -16.401 	 83.4854
| 38> H 	 -6.59873 	 -17.4008 	 82.4695
| 39> H 	 -0.657711 	 -14.1306 	 81.5907
| 40> H 	 -7.94581 	 -11.8537 	 78.0787
| 41> *
| 42>
| 43>                          ****END OF INPUT****

CARTESIAN COORDINATES (ANGSTROEM)
---------------------------------
  S     -3.016550  -14.521600   80.814900
  C     -1.570910  -13.761700   81.419500
  C     -1.787960  -12.397700   81.503800
  C     -3.030880  -11.979900   80.998700
  C     -3.863060  -12.997200   80.637200
  H     -3.434840  -10.979200   80.976700
  C     -0.806391  -11.323100   82.109200
  H     -0.540209  -11.676200   83.132000
  H     -1.399300  -10.470900   82.346300
  C      0.418790  -11.044400   81.299500
  H      1.219670  -10.457800   81.856300
  H      1.063420  -11.888600   81.028200
  C      0.192123  -10.431000   79.917900
  H     -0.324309  -11.175300   79.268800
  H     -0.459892   -9.583910   79.859800
  H      1.062840  -10.081700   79.426600
  S     -5.634430  -11.702000   78.961100
  C     -7.249030  -12.309600   78.738700
  C     -7.538410  -13.424800   79.511700
  C     -6.319530  -13.777000   80.233600
  C     -5.219040  -12.919500   80.099700
  H     -8.444080  -13.957900   79.387400
  C     -6.337250  -15.055400   81.143200
  H     -5.948750  -14.640200   82.131500
  H     -5.605760  -15.752800   80.830200
  C     -7.682170  -15.778700   81.379800
  H     -8.073950  -16.126200   80.466800
  H     -8.277310  -15.036700   81.873200
  C     -7.587150  -16.887300   82.492100
  H     -8.373580  -17.693700   82.320800
  H     -7.686150  -16.401000   83.485400
  H     -6.598730  -17.400800   82.469500
  H     -0.657711  -14.130600   81.590700
  H     -7.945810  -11.853700   78.078700

 Total Charge           Charge          ....    0
 Multiplicity           Mult            ....    1
 Number of Electrons    NEL             ....  134
 Basis Dimension        Dim             ....  322

ORBITAL ENERGIES
----------------

  NO   OCC          E(Eh)            E(eV)
   0   2.0000     -88.968414     -2420.9536
   1   2.0000     -88.967293     -2420.9231
   2   2.0000     -10.330736      -281.1136
   3   2.0000     -10.327021      -281.0125
   4   2.0000     -10.317231      -280.7461
   5   2.0000     -10.310076      -280.5514
   6   2.0000     -10.306922      -280.4656
   7   2.0000     -10.300974      -280.3038
   8   2.0000     -10.297003      -280.1957
   9   2.0000     -10.295796      -280.1629
  10   2.0000     -10.290974      -280.0316
  11   2.0000     -10.290452      -280.0174
  12   2.0000     -10.289108      -279.9809
  13   2.0000     -10.288686      -279.9694
  14   2.0000     -10.284073      -279.8439
  15   2.0000     -10.269330      -279.4427
  16   2.0000      -8.082604      -219.9388
  17   2.0000      -8.082591      -219.9385
  18   2.0000      -6.041181      -164.3889
  19   2.0000      -6.041092      -164.3865
  20   2.0000      -6.037072      -164.2771
  21   2.0000      -6.036927      -164.2731
  22   2.0000      -6.033430      -164.1780
  23   2.0000      -6.033426      -164.1779
  24   2.0000      -1.010351       -27.4930
  25   2.0000      -0.987917       -26.8826
  26   2.0000      -0.909573       -24.7507
  27   2.0000      -0.901563       -24.5328
  28   2.0000      -0.873505       -23.7693
  29   2.0000      -0.849928       -23.1277
  30   2.0000      -0.840740       -22.8777
  31   2.0000      -0.819694       -22.3050
  32   2.0000      -0.784580       -21.3495
  33   2.0000      -0.768028       -20.8991
  34   2.0000      -0.711818       -19.3696
  35   2.0000      -0.700322       -19.0567
  36   2.0000      -0.699052       -19.0222
  37   2.0000      -0.661893       -18.0110
  38   2.0000      -0.640102       -17.4180
  39   2.0000      -0.615977       -16.7616
  40   2.0000      -0.593710       -16.1557
  41   2.0000      -0.577644       -15.7185
  42   2.0000      -0.574098       -15.6220
  43   2.0000      -0.554961       -15.1013
  44   2.0000      -0.538785       -14.6611
  45   2.0000      -0.525713       -14.3054
  46   2.0000      -0.516905       -14.0657
  47   2.0000      -0.513137       -13.9632
  48   2.0000      -0.505464       -13.7544
  49   2.0000      -0.495946       -13.4954
  50   2.0000      -0.486737       -13.2448
  51   2.0000      -0.478201       -13.0125
  52   2.0000      -0.468963       -12.7611
  53   2.0000      -0.466392       -12.6912
  54   2.0000      -0.464638       -12.6435
  55   2.0000      -0.452374       -12.3097
  56   2.0000      -0.445917       -12.1340
  57   2.0000      -0.433507       -11.7963
  58   2.0000      -0.432205       -11.7609
  59   2.0000      -0.423671       -11.5287
  60   2.0000      -0.416012       -11.3203
  61   2.0000      -0.409333       -11.1385
  62   2.0000      -0.400484       -10.8977
  63   2.0000      -0.357793        -9.7360
  64   2.0000      -0.335267        -9.1231
  65   2.0000      -0.329027        -8.9533
  66   2.0000      -0.287748        -7.8300
  67   0.0000       0.026694         0.7264
  68   0.0000       0.076492         2.0815
  69   0.0000       0.114753         3.1226
  70   0.0000       0.122664         3.3379
  71   0.0000       0.133655         3.6370

MULLIKEN ATOMIC CHARGES
-----------------------
   0 S :    0.109156
   1 C :   -0.045225
   2 C :   -0.119120
   3 C :    0.005086
   4 C :   -0.135650
   5 H :    0.008928
   6 C :    0.111922
   7 H :    0.033610
   8 H :    0.015426
   9 C :   -0.080709
  10 H :    0.029696
  11 H :    0.025774
  12 C :   -0.051379
  13 H :    0.041541
  14 H :    0.012133
  15 H :    0.024226
  16 S :    0.110824
  17 C :   -0.073732
  18 C :   -0.025177
  19 C :   -0.078947
  20 C :   -0.110336
  21 H :    0.019398
  22 C :    0.001674
  23 H :    0.041396
  24 H :    0.032239
  25 C :   -0.055757
  26 H :    0.032717
  27 H :    0.031914
  28 C :   -0.077391
  29 H :    0.047937
  30 H :    0.045050
  31 H :    0.037483
  32 H :   -0.009613
  33 H :    0.044905
Sum of atomic charges:    0.0000000

LOEWDIN ATOMIC CHARGES
----------------------
   0 S :    0.424876
   1 C :   -0.182218
   2 C :   -0.056871
   3 C :   -0.075080
   4 C :   -0.184283
   5 H :    0.030016
   6 C :   -0.026047
   7 H :    0.038093
   8 H :    0.027092
   9 C :   -0.054538
  10 H :    0.029572
  11 H :    0.027801
  12 C :   -0.068524
  13 H :    0.031690
  14 H :    0.016386
  15 H :    0.021830
  16 S :    0.429449
  17 C :   -0.176328
  18 C :   -0.070038
  19 C :   -0.051930
  20 C :   -0.220933
  21 H :    0.030834
  22 C :   -0.042495
  23 H :    0.038230
  24 H :    0.013565
  25 C :   -0.039364
  26 H :    0.015011
  27 H :    0.026348
  28 C :   -0.069275
  29 H :    0.034481
  30 H :    0.030048
  31 H :    0.025668
  32 H :    0.005542
  33 H :    0.021392

  Mayer bond orders larger than 0.100000
B(  0-S ,  1-C ) :   1.1386 B(  0-S ,  4-C ) :   1.1539 B(  1-C ,  2-C ) :   1.6050
B(  1-C ,  4-C ) :   0.1001 B(  1-C , 32-H ) :   0.9837 B(  2-C ,  3-C ) :   1.2542
B(  2-C ,  6-C ) :   0.9991 B(  3-C ,  4-C ) :   1.5613 B(  3-C ,  5-H ) :   0.9979
B(  4-C , 20-C ) :   1.0528 B(  6-C ,  7-H ) :   0.9402 B(  6-C ,  8-H ) :   0.9463
B(  6-C ,  9-C ) :   1.0703 B(  9-C , 10-H ) :   0.9537 B(  9-C , 11-H ) :   0.9574
B(  9-C , 12-C ) :   1.0701 B( 12-C , 13-H ) :   0.9737 B( 12-C , 14-H ) :   0.9759
B( 12-C , 15-H ) :   0.9736 B( 16-S , 17-C ) :   1.1806 B( 16-S , 20-C ) :   1.1344
B( 17-C , 18-C ) :   1.5802 B( 17-C , 33-H ) :   0.9653 B( 18-C , 19-C ) :   1.2581
B( 18-C , 21-H ) :   0.9954 B( 19-C , 20-C ) :   1.5779 B( 19-C , 22-C ) :   1.0096
B( 22-C , 23-H ) :   0.9432 B( 22-C , 24-H ) :   0.9328 B( 22-C , 25-C ) :   1.0863
B( 25-C , 26-H ) :   0.9534 B( 25-C , 27-H ) :   0.9571 B( 25-C , 28-C ) :   1.0664
B( 28-C , 29-H ) :   0.9754 B( 28-C , 30-H ) :   0.9797 B( 28-C , 31-H ) :   0.9777

Dispersion correction           -0.013917715
FINAL SINGLE POINT ENERGY     -1339.865698676665

DIPOLE MOMENT
-------------
                                X             Y             Z
Electronic contribution:     -4.75979       2.45513      -8.93559
Nuclear contribution   :      4.71468      -2.44648       9.08784
                        -----------------------------------------
Total Dipole Moment    :     -0.04512       0.00865       0.15225
                        -----------------------------------------
Magnitude (a.u.)       :      0.15903
Magnitude (Debye)      :      0.40422

Rotational constants in cm-1:     0.022848     0.007574     0.006000
Rotational constants in MHz :   684.952596   227.067908   179.881155

                             ****ORCA TERMINATED NORMALLY****
TOTAL RUN TIME: 0 days 0 hours 0 minutes 32 seconds 668 msec
