                         Program Version 4.2.1 -  RELEASE  -
|  1> ! wB97X-D3 SP def2-SVP
|  2> %pal
|  3> nprocs 16
|  4> end
|  5>
|  6> * xyz 0 1
|  7> S 	 -97.3224 	 42.1873 	 125.939
|  8> C 	 -96.2927 	 40.7951 	 126.08
|  9> C 	 -96.7949 	 39.6831 	 125.405
| 10> C 	 -98.1341 	 39.8632 	 124.9
| 11> C 	 -98.5351 	 41.2046 	 125.046
| 12> H 	 -98.768 	 39.0594 	 124.578
| 13> C 	 -96.0765 	 38.3332 	 125.505
| 14> H 	 -95.0655 	 38.546 	 125.725
| 15> H 	 -95.8968 	 38.0063 	 124.513
| 16> C 	 -96.7987 	 37.2273 	 126.24
| 17> H 	 -96.5777 	 37.3823 	 127.29
| 18> H 	 -97.9175 	 37.3164 	 126.054
| 19> C 	 -96.2002 	 35.8107 	 126.001
| 20> H 	 -96.4776 	 35.4481 	 125.047
| 21> H 	 -95.0959 	 35.9078 	 125.961
| 22> H 	 -96.4761 	 35.0301 	 126.738
| 23> S 	 -99.7245 	 43.4626 	 124.074
| 24> C 	 -101.37 	 43.3165 	 123.42
| 25> C 	 -101.88 	 42.064 	 123.456
| 26> C 	 -100.954 	 41.1441 	 124.058
| 27> C 	 -99.7966 	 41.8045 	 124.525
| 28> H 	 -102.729 	 41.8541 	 122.949
| 29> C 	 -101.325 	 39.7368 	 124.307
| 30> H 	 -102.211 	 39.5844 	 124.962
| 31> H 	 -100.565 	 39.4402 	 125.019
| 32> C 	 -101.282 	 38.92 	 123.013
| 33> H 	 -100.307 	 39.1057 	 122.49
| 34> H 	 -102.117 	 39.1399 	 122.411
| 35> C 	 -101.34 	 37.3971 	 123.352
| 36> H 	 -100.405 	 37.1423 	 123.823
| 37> H 	 -101.711 	 36.6733 	 122.549
| 38> H 	 -102.026 	 37.1892 	 124.186
| 39> H 	 -95.4306 	 40.8248 	 126.61
| 40> H 	 -101.973 	 44.1561 	 123.089
| 41> *
| 42>
| 43>                          ****END OF INPUT****

CARTESIAN COORDINATES (ANGSTROEM)
---------------------------------
  S    -97.322400   42.187300  125.939000
  C    -96.292700   40.795100  126.080000
  C    -96.794900   39.683100  125.405000
  C    -98.134100   39.863200  124.900000
  C    -98.535100   41.204600  125.046000
  H    -98.768000   39.059400  124.578000
  C    -96.076500   38.333200  125.505000
  H    -95.065500   38.546000  125.725000
  H    -95.896800   38.006300  124.513000
  C    -96.798700   37.227300  126.240000
  H    -96.577700   37.382300  127.290000
  H    -97.917500   37.316400  126.054000
  C    -96.200200   35.810700  126.001000
  H    -96.477600   35.448100  125.047000
  H    -95.095900   35.907800  125.961000
  H    -96.476100   35.030100  126.738000
  S    -99.724500   43.462600  124.074000
  C    -101.370000   43.316500  123.420000
  C    -101.880000   42.064000  123.456000
  C    -100.954000   41.144100  124.058000
  C    -99.796600   41.804500  124.525000
  H    -102.729000   41.854100  122.949000
  C    -101.325000   39.736800  124.307000
  H    -102.211000   39.584400  124.962000
  H    -100.565000   39.440200  125.019000
  C    -101.282000   38.920000  123.013000
  H    -100.307000   39.105700  122.490000
  H    -102.117000   39.139900  122.411000
  C    -101.340000   37.397100  123.352000
  H    -100.405000   37.142300  123.823000
  H    -101.711000   36.673300  122.549000
  H    -102.026000   37.189200  124.186000
  H    -95.430600   40.824800  126.610000
  H    -101.973000   44.156100  123.089000

 Total Charge           Charge          ....    0
 Multiplicity           Mult            ....    1
 Number of Electrons    NEL             ....  134
 Basis Dimension        Dim             ....  322

ORBITAL ENERGIES
----------------

  NO   OCC          E(Eh)            E(eV)
   0   2.0000     -88.969523     -2420.9838
   1   2.0000     -88.967234     -2420.9215
   2   2.0000     -10.340053      -281.3672
   3   2.0000     -10.328438      -281.0511
   4   2.0000     -10.314038      -280.6592
   5   2.0000     -10.308255      -280.5019
   6   2.0000     -10.304180      -280.3910
   7   2.0000     -10.301017      -280.3049
   8   2.0000     -10.299649      -280.2677
   9   2.0000     -10.293517      -280.1008
  10   2.0000     -10.292344      -280.0689
  11   2.0000     -10.289257      -279.9849
  12   2.0000     -10.285251      -279.8759
  13   2.0000     -10.284285      -279.8496
  14   2.0000     -10.284213      -279.8477
  15   2.0000     -10.282517      -279.8015
  16   2.0000      -8.083595      -219.9658
  17   2.0000      -8.082200      -219.9278
  18   2.0000      -6.042169      -164.4158
  19   2.0000      -6.040698      -164.3758
  20   2.0000      -6.038226      -164.3085
  21   2.0000      -6.036858      -164.2713
  22   2.0000      -6.034325      -164.2023
  23   2.0000      -6.032787      -164.1605
  24   2.0000      -1.004302       -27.3285
  25   2.0000      -0.980996       -26.6943
  26   2.0000      -0.915353       -24.9080
  27   2.0000      -0.911422       -24.8011
  28   2.0000      -0.870420       -23.6853
  29   2.0000      -0.853244       -23.2179
  30   2.0000      -0.845785       -23.0150
  31   2.0000      -0.819561       -22.3014
  32   2.0000      -0.781677       -21.2705
  33   2.0000      -0.766817       -20.8661
  34   2.0000      -0.712006       -19.3747
  35   2.0000      -0.704251       -19.1636
  36   2.0000      -0.696424       -18.9507
  37   2.0000      -0.667335       -18.1591
  38   2.0000      -0.645447       -17.5635
  39   2.0000      -0.627057       -17.0631
  40   2.0000      -0.596569       -16.2335
  41   2.0000      -0.573605       -15.6086
  42   2.0000      -0.567649       -15.4465
  43   2.0000      -0.560027       -15.2391
  44   2.0000      -0.530004       -14.4221
  45   2.0000      -0.525675       -14.3043
  46   2.0000      -0.516854       -14.0643
  47   2.0000      -0.512521       -13.9464
  48   2.0000      -0.508108       -13.8263
  49   2.0000      -0.492674       -13.4063
  50   2.0000      -0.491430       -13.3725
  51   2.0000      -0.485458       -13.2100
  52   2.0000      -0.468802       -12.7568
  53   2.0000      -0.464655       -12.6439
  54   2.0000      -0.458894       -12.4871
  55   2.0000      -0.453736       -12.3468
  56   2.0000      -0.449978       -12.2445
  57   2.0000      -0.440676       -11.9914
  58   2.0000      -0.434409       -11.8209
  59   2.0000      -0.428776       -11.6676
  60   2.0000      -0.423463       -11.5230
  61   2.0000      -0.414608       -11.2821
  62   2.0000      -0.409583       -11.1453
  63   2.0000      -0.359109        -9.7719
  64   2.0000      -0.336350        -9.1526
  65   2.0000      -0.327493        -8.9115
  66   2.0000      -0.280603        -7.6356
  67   0.0000       0.021368         0.5815
  68   0.0000       0.080351         2.1865
  69   0.0000       0.097623         2.6564
  70   0.0000       0.113706         3.0941
  71   0.0000       0.120115         3.2685

MULLIKEN ATOMIC CHARGES
-----------------------
   0 S :    0.102876
   1 C :   -0.078978
   2 C :   -0.095117
   3 C :    0.015548
   4 C :   -0.134172
   5 H :   -0.003534
   6 C :    0.109835
   7 H :   -0.005567
   8 H :    0.002235
   9 C :   -0.071418
  10 H :    0.031132
  11 H :    0.045506
  12 C :   -0.058663
  13 H :    0.021377
  14 H :    0.033312
  15 H :    0.047356
  16 S :    0.098890
  17 C :   -0.086266
  18 C :    0.033460
  19 C :   -0.084035
  20 C :   -0.091051
  21 H :   -0.021338
  22 C :    0.021470
  23 H :    0.042172
  24 H :    0.002905
  25 C :   -0.052236
  26 H :    0.053964
  27 H :    0.027684
  28 C :   -0.061757
  29 H :    0.019582
  30 H :    0.054770
  31 H :    0.018539
  32 H :    0.008861
  33 H :    0.052658
Sum of atomic charges:    0.0000000

LOEWDIN ATOMIC CHARGES
----------------------
   0 S :    0.387918
   1 C :   -0.184392
   2 C :   -0.050534
   3 C :   -0.066432
   4 C :   -0.167529
   5 H :    0.026265
   6 C :   -0.036403
   7 H :    0.024690
   8 H :    0.024982
   9 C :   -0.042274
  10 H :    0.026458
  11 H :    0.031358
  12 C :   -0.065689
  13 H :    0.015440
  14 H :    0.029879
  15 H :    0.031722
  16 S :    0.402888
  17 C :   -0.170473
  18 C :   -0.051977
  19 C :   -0.055652
  20 C :   -0.204106
  21 H :    0.016602
  22 C :   -0.043831
  23 H :    0.038270
  24 H :    0.026812
  25 C :   -0.031746
  26 H :    0.035480
  27 H :    0.018296
  28 C :   -0.077145
  29 H :    0.018789
  30 H :    0.035820
  31 H :    0.023283
  32 H :    0.005083
  33 H :    0.028149

  Mayer bond orders larger than 0.100000
B(  0-S ,  1-C ) :   1.1291 B(  0-S ,  4-C ) :   1.1489 B(  1-C ,  2-C ) :   1.6116
B(  1-C , 32-H ) :   0.9813 B(  2-C ,  3-C ) :   1.2398 B(  2-C ,  6-C ) :   1.0328
B(  3-C ,  4-C ) :   1.5650 B(  3-C ,  5-H ) :   0.9826 B(  4-C , 20-C ) :   1.0466
B(  6-C ,  7-H ) :   0.9279 B(  6-C ,  8-H ) :   0.9270 B(  6-C ,  9-C ) :   1.0475
B(  9-C , 10-H ) :   0.9563 B(  9-C , 11-H ) :   0.9583 B(  9-C , 12-C ) :   1.0673
B( 12-C , 13-H ) :   0.9768 B( 12-C , 14-H ) :   0.9742 B( 12-C , 15-H ) :   0.9771
B( 16-S , 17-C ) :   1.1335 B( 16-S , 20-C ) :   1.1439 B( 17-C , 18-C ) :   1.6444
B( 17-C , 33-H ) :   0.9621 B( 18-C , 19-C ) :   1.2216 B( 18-C , 21-H ) :   1.0060
B( 19-C , 20-C ) :   1.5896 B( 19-C , 22-C ) :   1.0422 B( 22-C , 23-H ) :   0.9326
B( 22-C , 24-H ) :   0.9409 B( 22-C , 25-C ) :   1.0406 B( 25-C , 26-H ) :   0.9582
B( 25-C , 27-H ) :   0.9583 B( 25-C , 28-C ) :   1.0704 B( 28-C , 29-H ) :   0.9763
B( 28-C , 30-H ) :   0.9743 B( 28-C , 31-H ) :   0.9683

Dispersion correction           -0.014343052
FINAL SINGLE POINT ENERGY     -1339.855710094120

DIPOLE MOMENT
-------------
                                X             Y             Z
Electronic contribution:      1.06203      34.03161       1.38994
Nuclear contribution   :     -1.23380     -34.69815      -1.46885
                        -----------------------------------------
Total Dipole Moment    :     -0.17177      -0.66653      -0.07891
                        -----------------------------------------
Magnitude (a.u.)       :      0.69282
Magnitude (Debye)      :      1.76101

Rotational constants in cm-1:     0.017705     0.009571     0.006396
Rotational constants in MHz :   530.797507   286.930753   191.739935

                             ****ORCA TERMINATED NORMALLY****
TOTAL RUN TIME: 0 days 0 hours 0 minutes 34 seconds 431 msec
