                         Program Version 4.2.1 -  RELEASE  -
|  1> ! wB97X-D3 SP def2-SVP
|  2> %pal
|  3> nprocs 16
|  4> end
|  5>
|  6> * xyz 0 1
|  7> S 	 -12.6216 	 -3.45831 	 84.5117
|  8> C 	 -12.3141 	 -3.04594 	 86.2478
|  9> C 	 -12.8412 	 -4.01329 	 87.086
| 10> C 	 -13.2049 	 -5.21844 	 86.3528
| 11> C 	 -12.9838 	 -5.13406 	 84.9952
| 12> H 	 -13.6081 	 -6.11123 	 86.7481
| 13> C 	 -12.6265 	 -3.83115 	 88.5479
| 14> H 	 -13.5372 	 -3.94499 	 89.1145
| 15> H 	 -12.1706 	 -2.78205 	 88.75
| 16> C 	 -11.6754 	 -4.84146 	 89.1348
| 17> H 	 -11.8483 	 -5.81795 	 88.6214
| 18> H 	 -10.628 	 -4.6422 	 88.8136
| 19> C 	 -11.714 	 -4.95695 	 90.68
| 20> H 	 -11.4323 	 -4.0749 	 91.2307
| 21> H 	 -12.6391 	 -5.41429 	 91.1186
| 22> H 	 -10.9797 	 -5.74888 	 90.926
| 23> S 	 -14.6365 	 -5.98729 	 83.0176
| 24> C 	 -14.4298 	 -7.48816 	 82.2697
| 25> C 	 -13.197 	 -8.07815 	 82.7396
| 26> C 	 -12.5945 	 -7.39251 	 83.8467
| 27> C 	 -13.2502 	 -6.19916 	 84.0724
| 28> H 	 -12.934 	 -9.09228 	 82.4264
| 29> C 	 -11.4268 	 -7.91008 	 84.6388
| 30> H 	 -10.6915 	 -7.09885 	 84.718
| 31> H 	 -10.8757 	 -8.67973 	 84.0402
| 32> C 	 -11.8328 	 -8.54816 	 85.9981
| 33> H 	 -12.198 	 -9.58681 	 85.8867
| 34> H 	 -12.5932 	 -7.94055 	 86.3864
| 35> C 	 -10.8048 	 -8.49658 	 87.0925
| 36> H 	 -9.81538 	 -8.76898 	 86.7868
| 37> H 	 -11.1769 	 -9.06757 	 87.936
| 38> H 	 -10.6884 	 -7.46238 	 87.3603
| 39> H 	 -11.7304 	 -2.16714 	 86.5573
| 40> H 	 -15.1123 	 -7.77448 	 81.5162
| 41> *
| 42>
| 43>                          ****END OF INPUT****

CARTESIAN COORDINATES (ANGSTROEM)
---------------------------------
  S    -12.621600   -3.458310   84.511700
  C    -12.314100   -3.045940   86.247800
  C    -12.841200   -4.013290   87.086000
  C    -13.204900   -5.218440   86.352800
  C    -12.983800   -5.134060   84.995200
  H    -13.608100   -6.111230   86.748100
  C    -12.626500   -3.831150   88.547900
  H    -13.537200   -3.944990   89.114500
  H    -12.170600   -2.782050   88.750000
  C    -11.675400   -4.841460   89.134800
  H    -11.848300   -5.817950   88.621400
  H    -10.628000   -4.642200   88.813600
  C    -11.714000   -4.956950   90.680000
  H    -11.432300   -4.074900   91.230700
  H    -12.639100   -5.414290   91.118600
  H    -10.979700   -5.748880   90.926000
  S    -14.636500   -5.987290   83.017600
  C    -14.429800   -7.488160   82.269700
  C    -13.197000   -8.078150   82.739600
  C    -12.594500   -7.392510   83.846700
  C    -13.250200   -6.199160   84.072400
  H    -12.934000   -9.092280   82.426400
  C    -11.426800   -7.910080   84.638800
  H    -10.691500   -7.098850   84.718000
  H    -10.875700   -8.679730   84.040200
  C    -11.832800   -8.548160   85.998100
  H    -12.198000   -9.586810   85.886700
  H    -12.593200   -7.940550   86.386400
  C    -10.804800   -8.496580   87.092500
  H     -9.815380   -8.768980   86.786800
  H    -11.176900   -9.067570   87.936000
  H    -10.688400   -7.462380   87.360300
  H    -11.730400   -2.167140   86.557300
  H    -15.112300   -7.774480   81.516200

 Total Charge           Charge          ....    0
 Multiplicity           Mult            ....    1
 Number of Electrons    NEL             ....  134
 Basis Dimension        Dim             ....  322

ORBITAL ENERGIES
----------------

  NO   OCC          E(Eh)            E(eV)
   0   2.0000     -88.964849     -2420.8566
   1   2.0000     -88.963266     -2420.8135
   2   2.0000     -10.330353      -281.1032
   3   2.0000     -10.320728      -280.8413
   4   2.0000     -10.320416      -280.8328
   5   2.0000     -10.318502      -280.7807
   6   2.0000     -10.305630      -280.4305
   7   2.0000     -10.305026      -280.4140
   8   2.0000     -10.300449      -280.2895
   9   2.0000     -10.298182      -280.2278
  10   2.0000     -10.296687      -280.1871
  11   2.0000     -10.295081      -280.1434
  12   2.0000     -10.291661      -280.0503
  13   2.0000     -10.285129      -279.8726
  14   2.0000     -10.282450      -279.7997
  15   2.0000     -10.271466      -279.5008
  16   2.0000      -8.080778      -219.8892
  17   2.0000      -8.076996      -219.7862
  18   2.0000      -6.038970      -164.3287
  19   2.0000      -6.035636      -164.2380
  20   2.0000      -6.034924      -164.2186
  21   2.0000      -6.031998      -164.1390
  22   2.0000      -6.031930      -164.1372
  23   2.0000      -6.027372      -164.0131
  24   2.0000      -1.006753       -27.3952
  25   2.0000      -0.979957       -26.6660
  26   2.0000      -0.915033       -24.8993
  27   2.0000      -0.913565       -24.8594
  28   2.0000      -0.869209       -23.6524
  29   2.0000      -0.858959       -23.3735
  30   2.0000      -0.841192       -22.8900
  31   2.0000      -0.811005       -22.0686
  32   2.0000      -0.785397       -21.3717
  33   2.0000      -0.770634       -20.9700
  34   2.0000      -0.706927       -19.2365
  35   2.0000      -0.698255       -19.0005
  36   2.0000      -0.691482       -18.8162
  37   2.0000      -0.666703       -18.1419
  38   2.0000      -0.644946       -17.5499
  39   2.0000      -0.617712       -16.8088
  40   2.0000      -0.597792       -16.2667
  41   2.0000      -0.569823       -15.5057
  42   2.0000      -0.568443       -15.4681
  43   2.0000      -0.555024       -15.1030
  44   2.0000      -0.535959       -14.5842
  45   2.0000      -0.524832       -14.2814
  46   2.0000      -0.518964       -14.1217
  47   2.0000      -0.513962       -13.9856
  48   2.0000      -0.508189       -13.8285
  49   2.0000      -0.502809       -13.6821
  50   2.0000      -0.494923       -13.4675
  51   2.0000      -0.480494       -13.0749
  52   2.0000      -0.470525       -12.8036
  53   2.0000      -0.467879       -12.7316
  54   2.0000      -0.455784       -12.4025
  55   2.0000      -0.450552       -12.2601
  56   2.0000      -0.440383       -11.9834
  57   2.0000      -0.436865       -11.8877
  58   2.0000      -0.432142       -11.7592
  59   2.0000      -0.426221       -11.5981
  60   2.0000      -0.421554       -11.4711
  61   2.0000      -0.415724       -11.3124
  62   2.0000      -0.409956       -11.1555
  63   2.0000      -0.336374        -9.1532
  64   2.0000      -0.333624        -9.0784
  65   2.0000      -0.326163        -8.8754
  66   2.0000      -0.295540        -8.0420
  67   0.0000       0.034466         0.9379
  68   0.0000       0.050760         1.3813
  69   0.0000       0.108619         2.9557
  70   0.0000       0.121627         3.3096
  71   0.0000       0.125481         3.4145

MULLIKEN ATOMIC CHARGES
-----------------------
   0 S :    0.095551
   1 C :   -0.149127
   2 C :   -0.030346
   3 C :    0.026049
   4 C :   -0.142602
   5 H :    0.018605
   6 C :    0.069326
   7 H :    0.023886
   8 H :    0.036295
   9 C :   -0.123044
  10 H :    0.030336
  11 H :    0.028078
  12 C :   -0.051426
  13 H :    0.040566
  14 H :    0.037559
  15 H :    0.030906
  16 S :    0.124561
  17 C :   -0.098775
  18 C :   -0.038258
  19 C :   -0.023037
  20 C :   -0.210211
  21 H :    0.022493
  22 C :    0.060625
  23 H :    0.037140
  24 H :    0.024320
  25 C :   -0.039302
  26 H :    0.035324
  27 H :   -0.008802
  28 C :   -0.021025
  29 H :    0.018539
  30 H :    0.036195
  31 H :    0.018895
  32 H :    0.064718
  33 H :    0.055988
Sum of atomic charges:    0.0000000

LOEWDIN ATOMIC CHARGES
----------------------
   0 S :    0.354341
   1 C :   -0.172801
   2 C :   -0.058561
   3 C :   -0.053977
   4 C :   -0.180091
   5 H :    0.023696
   6 C :   -0.038007
   7 H :    0.028900
   8 H :    0.040147
   9 C :   -0.050092
  10 H :    0.024480
  11 H :    0.026425
  12 C :   -0.073036
  13 H :    0.023546
  14 H :    0.029513
  15 H :    0.032347
  16 S :    0.440695
  17 C :   -0.200188
  18 C :   -0.073419
  19 C :   -0.052593
  20 C :   -0.208957
  21 H :    0.028391
  22 C :   -0.032041
  23 H :    0.035760
  24 H :    0.035222
  25 C :   -0.034770
  26 H :    0.027455
  27 H :    0.012196
  28 C :   -0.057755
  29 H :    0.018669
  30 H :    0.029420
  31 H :    0.020994
  32 H :    0.033061
  33 H :    0.021029

  Mayer bond orders larger than 0.100000
B(  0-S ,  1-C ) :   1.1094 B(  0-S ,  4-C ) :   1.1203 B(  1-C ,  2-C ) :   1.6385
B(  1-C , 32-H ) :   0.9669 B(  2-C ,  3-C ) :   1.1733 B(  2-C ,  6-C ) :   1.0476
B(  3-C ,  4-C ) :   1.6185 B(  3-C ,  5-H ) :   0.9902 B(  4-C , 20-C ) :   1.0461
B(  6-C ,  7-H ) :   0.9275 B(  6-C ,  8-H ) :   0.9436 B(  6-C ,  9-C ) :   1.0533
B(  9-C , 10-H ) :   0.9518 B(  9-C , 11-H ) :   0.9537 B(  9-C , 12-C ) :   1.0791
B( 12-C , 13-H ) :   0.9763 B( 12-C , 14-H ) :   0.9728 B( 12-C , 15-H ) :   0.9716
B( 16-S , 17-C ) :   1.2001 B( 16-S , 20-C ) :   1.1683 B( 17-C , 18-C ) :   1.5333
B( 17-C , 20-C ) :   0.1131 B( 17-C , 33-H ) :   0.9789 B( 18-C , 19-C ) :   1.2836
B( 18-C , 21-H ) :   0.9838 B( 19-C , 20-C ) :   1.5668 B( 19-C , 22-C ) :   1.0542
B( 22-C , 23-H ) :   0.9341 B( 22-C , 24-H ) :   0.9287 B( 22-C , 25-C ) :   1.0535
B( 25-C , 26-H ) :   0.9515 B( 25-C , 27-H ) :   0.9592 B( 25-C , 28-C ) :   1.0884
B( 28-C , 29-H ) :   0.9709 B( 28-C , 30-H ) :   0.9718 B( 28-C , 31-H ) :   0.9705

Dispersion correction           -0.015475158
FINAL SINGLE POINT ENERGY     -1339.869089237033

DIPOLE MOMENT
-------------
                                X             Y             Z
Electronic contribution:    -13.61108      11.36362     -27.67331
Nuclear contribution   :     13.84762     -11.76206      28.22668
                        -----------------------------------------
Total Dipole Moment    :      0.23654      -0.39845       0.55337
                        -----------------------------------------
Magnitude (a.u.)       :      0.72175
Magnitude (Debye)      :      1.83455

Rotational constants in cm-1:     0.019247     0.009566     0.007057
Rotational constants in MHz :   577.004653   286.773921   211.551460

                             ****ORCA TERMINATED NORMALLY****
TOTAL RUN TIME: 0 days 0 hours 0 minutes 35 seconds 802 msec
