                         Program Version 4.2.1 -  RELEASE  -
|  1> ! wB97X-D3 SP def2-SVP
|  2> %pal
|  3> nprocs 16
|  4> end
|  5>
|  6> * xyz 0 1
|  7> S 	 -4.71818 	 -9.74833 	 82.05
|  8> C 	 -5.73203 	 -11.1739 	 81.9586
|  9> C 	 -5.67204 	 -11.9687 	 83.0976
| 10> C 	 -4.89561 	 -11.2846 	 84.112
| 11> C 	 -4.46016 	 -10.0189 	 83.7466
| 12> H 	 -4.75396 	 -11.7091 	 85.0971
| 13> C 	 -6.41154 	 -13.3173 	 83.3675
| 14> H 	 -6.08083 	 -13.7287 	 84.3414
| 15> H 	 -6.19931 	 -14.0171 	 82.521
| 16> C 	 -7.93516 	 -13.1037 	 83.4141
| 17> H 	 -8.29833 	 -14.1099 	 83.6777
| 18> H 	 -8.22208 	 -12.6083 	 84.3418
| 19> C 	 -8.62869 	 -12.5118 	 82.1812
| 20> H 	 -8.72308 	 -13.1524 	 81.2815
| 21> H 	 -9.70133 	 -12.3987 	 82.555
| 22> H 	 -8.31081 	 -11.4664 	 81.8536
| 23> S 	 -2.14185 	 -8.61388 	 83.9338
| 24> C 	 -1.9787 	 -7.55499 	 85.326
| 25> C 	 -3.03818 	 -7.59592 	 86.2378
| 26> C 	 -4.01685 	 -8.56285 	 85.7813
| 27> C 	 -3.7215 	 -9.03856 	 84.4925
| 28> H 	 -2.9196 	 -7.02344 	 87.137
| 29> C 	 -5.39045 	 -8.69169 	 86.3811
| 30> H 	 -5.36978 	 -8.18944 	 87.4061
| 31> H 	 -5.55801 	 -9.75774 	 86.7102
| 32> C 	 -6.5089 	 -8.09217 	 85.6278
| 33> H 	 -7.45304 	 -8.2619 	 86.0799
| 34> H 	 -6.49887 	 -8.46558 	 84.6134
| 35> C 	 -6.52758 	 -6.54557 	 85.5768
| 36> H 	 -5.74534 	 -6.12597 	 84.981
| 37> H 	 -6.47392 	 -6.03656 	 86.5278
| 38> H 	 -7.37714 	 -6.27671 	 85.1019
| 39> H 	 -6.23105 	 -11.5837 	 81.0788
| 40> H 	 -1.09786 	 -6.9333 	 85.5053
| 41> *
| 42>
| 43>                          ****END OF INPUT****

CARTESIAN COORDINATES (ANGSTROEM)
---------------------------------
  S     -4.718180   -9.748330   82.050000
  C     -5.732030  -11.173900   81.958600
  C     -5.672040  -11.968700   83.097600
  C     -4.895610  -11.284600   84.112000
  C     -4.460160  -10.018900   83.746600
  H     -4.753960  -11.709100   85.097100
  C     -6.411540  -13.317300   83.367500
  H     -6.080830  -13.728700   84.341400
  H     -6.199310  -14.017100   82.521000
  C     -7.935160  -13.103700   83.414100
  H     -8.298330  -14.109900   83.677700
  H     -8.222080  -12.608300   84.341800
  C     -8.628690  -12.511800   82.181200
  H     -8.723080  -13.152400   81.281500
  H     -9.701330  -12.398700   82.555000
  H     -8.310810  -11.466400   81.853600
  S     -2.141850   -8.613880   83.933800
  C     -1.978700   -7.554990   85.326000
  C     -3.038180   -7.595920   86.237800
  C     -4.016850   -8.562850   85.781300
  C     -3.721500   -9.038560   84.492500
  H     -2.919600   -7.023440   87.137000
  C     -5.390450   -8.691690   86.381100
  H     -5.369780   -8.189440   87.406100
  H     -5.558010   -9.757740   86.710200
  C     -6.508900   -8.092170   85.627800
  H     -7.453040   -8.261900   86.079900
  H     -6.498870   -8.465580   84.613400
  C     -6.527580   -6.545570   85.576800
  H     -5.745340   -6.125970   84.981000
  H     -6.473920   -6.036560   86.527800
  H     -7.377140   -6.276710   85.101900
  H     -6.231050  -11.583700   81.078800
  H     -1.097860   -6.933300   85.505300

 Total Charge           Charge          ....    0
 Multiplicity           Mult            ....    1
 Number of Electrons    NEL             ....  134
 Basis Dimension        Dim             ....  322

ORBITAL ENERGIES
----------------

  NO   OCC          E(Eh)            E(eV)
   0   2.0000     -88.969086     -2420.9719
   1   2.0000     -88.966536     -2420.9025
   2   2.0000     -10.324914      -280.9552
   3   2.0000     -10.321449      -280.8609
   4   2.0000     -10.317669      -280.7581
   5   2.0000     -10.312074      -280.6058
   6   2.0000     -10.304568      -280.4015
   7   2.0000     -10.303482      -280.3720
   8   2.0000     -10.302337      -280.3408
   9   2.0000     -10.297839      -280.2184
  10   2.0000     -10.293950      -280.1126
  11   2.0000     -10.292188      -280.0647
  12   2.0000     -10.292122      -280.0629
  13   2.0000     -10.290450      -280.0174
  14   2.0000     -10.273078      -279.5447
  15   2.0000     -10.257233      -279.1135
  16   2.0000      -8.083992      -219.9766
  17   2.0000      -8.081299      -219.9033
  18   2.0000      -6.042297      -164.4193
  19   2.0000      -6.039803      -164.3514
  20   2.0000      -6.038570      -164.3178
  21   2.0000      -6.035871      -164.2444
  22   2.0000      -6.034864      -164.2170
  23   2.0000      -6.031997      -164.1390
  24   2.0000      -1.007316       -27.4104
  25   2.0000      -0.980094       -26.6697
  26   2.0000      -0.911177       -24.7944
  27   2.0000      -0.908855       -24.7312
  28   2.0000      -0.866350       -23.5746
  29   2.0000      -0.849399       -23.1133
  30   2.0000      -0.842041       -22.9131
  31   2.0000      -0.808232       -21.9931
  32   2.0000      -0.786415       -21.3994
  33   2.0000      -0.774129       -21.0651
  34   2.0000      -0.710131       -19.3236
  35   2.0000      -0.695074       -18.9139
  36   2.0000      -0.683929       -18.6107
  37   2.0000      -0.661789       -18.0082
  38   2.0000      -0.634041       -17.2531
  39   2.0000      -0.616480       -16.7753
  40   2.0000      -0.590074       -16.0567
  41   2.0000      -0.567228       -15.4351
  42   2.0000      -0.553787       -15.0693
  43   2.0000      -0.548889       -14.9360
  44   2.0000      -0.546460       -14.8699
  45   2.0000      -0.534802       -14.5527
  46   2.0000      -0.516112       -14.0441
  47   2.0000      -0.509028       -13.8514
  48   2.0000      -0.494353       -13.4520
  49   2.0000      -0.489179       -13.3112
  50   2.0000      -0.480561       -13.0767
  51   2.0000      -0.474970       -12.9246
  52   2.0000      -0.472125       -12.8472
  53   2.0000      -0.464166       -12.6306
  54   2.0000      -0.459251       -12.4969
  55   2.0000      -0.451716       -12.2918
  56   2.0000      -0.446615       -12.1530
  57   2.0000      -0.445699       -12.1281
  58   2.0000      -0.434511       -11.8237
  59   2.0000      -0.424148       -11.5417
  60   2.0000      -0.414040       -11.2666
  61   2.0000      -0.408662       -11.1203
  62   2.0000      -0.403844       -10.9892
  63   2.0000      -0.342777        -9.3274
  64   2.0000      -0.331550        -9.0219
  65   2.0000      -0.329219        -8.9585
  66   2.0000      -0.288233        -7.8432
  67   0.0000       0.029576         0.8048
  68   0.0000       0.065622         1.7857
  69   0.0000       0.105819         2.8795
  70   0.0000       0.119297         3.2462
  71   0.0000       0.127088         3.4582

MULLIKEN ATOMIC CHARGES
-----------------------
   0 S :    0.116514
   1 C :   -0.121038
   2 C :   -0.117195
   3 C :    0.049789
   4 C :   -0.188794
   5 H :    0.007193
   6 C :    0.061118
   7 H :    0.029454
   8 H :    0.042832
   9 C :   -0.061210
  10 H :    0.023352
  11 H :    0.024152
  12 C :   -0.105230
  13 H :    0.044052
  14 H :    0.042667
  15 H :    0.065175
  16 S :    0.127362
  17 C :   -0.107173
  18 C :   -0.027221
  19 C :   -0.019564
  20 C :   -0.149019
  21 H :    0.021406
  22 C :    0.032596
  23 H :    0.013746
  24 H :    0.032081
  25 C :   -0.025363
  26 H :    0.016162
  27 H :    0.037311
  28 C :   -0.014016
  29 H :    0.024453
  30 H :    0.016856
  31 H :    0.002183
  32 H :    0.049601
  33 H :    0.055768
Sum of atomic charges:   -0.0000000

LOEWDIN ATOMIC CHARGES
----------------------
   0 S :    0.409802
   1 C :   -0.208016
   2 C :   -0.060774
   3 C :   -0.058990
   4 C :   -0.203294
   5 H :    0.027651
   6 C :   -0.030284
   7 H :    0.033371
   8 H :    0.035338
   9 C :   -0.047359
  10 H :    0.027677
  11 H :    0.025595
  12 C :   -0.084814
  13 H :    0.026771
  14 H :    0.039540
  15 H :    0.036493
  16 S :    0.417652
  17 C :   -0.185480
  18 C :   -0.064512
  19 C :   -0.052289
  20 C :   -0.213707
  21 H :    0.034120
  22 C :   -0.045621
  23 H :    0.032476
  24 H :    0.033748
  25 C :   -0.032524
  26 H :    0.022798
  27 H :    0.026720
  28 C :   -0.052406
  29 H :    0.022357
  30 H :    0.021256
  31 H :    0.011843
  32 H :    0.027617
  33 H :    0.027245

  Mayer bond orders larger than 0.100000
B(  0-S ,  1-C ) :   1.1333 B(  0-S ,  4-C ) :   1.1421 B(  1-C ,  2-C ) :   1.6280
B(  1-C , 32-H ) :   0.9545 B(  2-C ,  3-C ) :   1.2503 B(  2-C ,  6-C ) :   1.0112
B(  3-C ,  4-C ) :   1.5687 B(  3-C ,  5-H ) :   0.9948 B(  4-C , 20-C ) :   1.0456
B(  6-C ,  7-H ) :   0.9435 B(  6-C ,  8-H ) :   0.9415 B(  6-C ,  9-C ) :   1.0752
B(  9-C , 10-H ) :   0.9505 B(  9-C , 11-H ) :   0.9544 B(  9-C , 12-C ) :   1.0738
B( 12-C , 13-H ) :   0.9746 B( 12-C , 14-H ) :   0.9691 B( 12-C , 15-H ) :   0.9632
B( 16-S , 17-C ) :   1.1532 B( 16-S , 20-C ) :   1.1564 B( 17-C , 18-C ) :   1.6258
B( 17-C , 33-H ) :   0.9635 B( 18-C , 19-C ) :   1.2181 B( 18-C , 21-H ) :   0.9931
B( 19-C , 20-C ) :   1.5738 B( 19-C , 22-C ) :   1.0567 B( 22-C , 23-H ) :   0.9352
B( 22-C , 24-H ) :   0.9226 B( 22-C , 25-C ) :   1.0850 B( 25-C , 26-H ) :   0.9507
B( 25-C , 27-H ) :   0.9505 B( 25-C , 28-C ) :   1.0799 B( 28-C , 29-H ) :   0.9735
B( 28-C , 30-H ) :   0.9731 B( 28-C , 31-H ) :   0.9714

Dispersion correction           -0.015467927
FINAL SINGLE POINT ENERGY     -1339.868785636506

DIPOLE MOMENT
-------------
                                X             Y             Z
Electronic contribution:     24.23225       5.32675      -7.38579
Nuclear contribution   :    -24.66026      -5.61743       7.79253
                        -----------------------------------------
Total Dipole Moment    :     -0.42801      -0.29068       0.40674
                        -----------------------------------------
Magnitude (a.u.)       :      0.65812
Magnitude (Debye)      :      1.67281

Rotational constants in cm-1:     0.022435     0.008784     0.007462
Rotational constants in MHz :   672.581349   263.324521   223.716584

                             ****ORCA TERMINATED NORMALLY****
TOTAL RUN TIME: 0 days 0 hours 0 minutes 35 seconds 616 msec
