                         Program Version 4.2.1 -  RELEASE  -
|  1> ! wB97X-D3 SP def2-SVP
|  2> %pal
|  3> nprocs 16
|  4> end
|  5>
|  6> * xyz 0 1
|  7> S 	 -58.1746 	 28.3813 	 95.2978
|  8> C 	 -56.6816 	 28.9712 	 96.002
|  9> C 	 -56.0215 	 27.9951 	 96.7197
| 10> C 	 -56.7645 	 26.8042 	 96.7334
| 11> C 	 -57.9698 	 26.8835 	 96.0912
| 12> H 	 -56.5233 	 25.82 	 97.1994
| 13> C 	 -54.7131 	 28.146 	 97.5887
| 14> H 	 -54.8449 	 29.079 	 98.1792
| 15> H 	 -53.8658 	 28.0686 	 96.8645
| 16> C 	 -54.373 	 27.0276 	 98.6398
| 17> H 	 -55.2466 	 26.7932 	 99.313
| 18> H 	 -54.1655 	 26.1057 	 98.0756
| 19> C 	 -53.1458 	 27.3291 	 99.5928
| 20> H 	 -53.1582 	 28.3053 	 99.9482
| 21> H 	 -53.1382 	 26.556 	 100.375
| 22> H 	 -52.2228 	 27.2754 	 99.0352
| 23> S 	 -60.6177 	 26.1615 	 96.6862
| 24> C 	 -61.2858 	 24.6368 	 96.1055
| 25> C 	 -60.2997 	 23.9043 	 95.4479
| 26> C 	 -59.0435 	 24.5732 	 95.5043
| 27> C 	 -59.0124 	 25.8452 	 96.0065
| 28> H 	 -60.4582 	 22.9557 	 94.9366
| 29> C 	 -57.8309 	 23.8637 	 94.8283
| 30> H 	 -57.5534 	 23.0467 	 95.475
| 31> H 	 -57.0203 	 24.5978 	 94.6969
| 32> C 	 -58.146 	 23.3041 	 93.4645
| 33> H 	 -58.8379 	 23.8487 	 92.8943
| 34> H 	 -58.7115 	 22.3873 	 93.6027
| 35> C 	 -56.9386 	 23.1251 	 92.5442
| 36> H 	 -56.4187 	 24.0442 	 92.3519
| 37> H 	 -57.246 	 22.7336 	 91.5513
| 38> H 	 -56.3015 	 22.4089 	 93.0642
| 39> H 	 -56.4695 	 29.993 	 96.0695
| 40> H 	 -62.2465 	 24.2871 	 96.4955
| 41> *
| 42>
| 43>                          ****END OF INPUT****

CARTESIAN COORDINATES (ANGSTROEM)
---------------------------------
  S    -58.174600   28.381300   95.297800
  C    -56.681600   28.971200   96.002000
  C    -56.021500   27.995100   96.719700
  C    -56.764500   26.804200   96.733400
  C    -57.969800   26.883500   96.091200
  H    -56.523300   25.820000   97.199400
  C    -54.713100   28.146000   97.588700
  H    -54.844900   29.079000   98.179200
  H    -53.865800   28.068600   96.864500
  C    -54.373000   27.027600   98.639800
  H    -55.246600   26.793200   99.313000
  H    -54.165500   26.105700   98.075600
  C    -53.145800   27.329100   99.592800
  H    -53.158200   28.305300   99.948200
  H    -53.138200   26.556000  100.375000
  H    -52.222800   27.275400   99.035200
  S    -60.617700   26.161500   96.686200
  C    -61.285800   24.636800   96.105500
  C    -60.299700   23.904300   95.447900
  C    -59.043500   24.573200   95.504300
  C    -59.012400   25.845200   96.006500
  H    -60.458200   22.955700   94.936600
  C    -57.830900   23.863700   94.828300
  H    -57.553400   23.046700   95.475000
  H    -57.020300   24.597800   94.696900
  C    -58.146000   23.304100   93.464500
  H    -58.837900   23.848700   92.894300
  H    -58.711500   22.387300   93.602700
  C    -56.938600   23.125100   92.544200
  H    -56.418700   24.044200   92.351900
  H    -57.246000   22.733600   91.551300
  H    -56.301500   22.408900   93.064200
  H    -56.469500   29.993000   96.069500
  H    -62.246500   24.287100   96.495500

 Total Charge           Charge          ....    0
 Multiplicity           Mult            ....    1
 Number of Electrons    NEL             ....  134
 Basis Dimension        Dim             ....  322

ORBITAL ENERGIES
----------------

  NO   OCC          E(Eh)            E(eV)
   0   2.0000     -88.966668     -2420.9061
   1   2.0000     -88.960760     -2420.7453
   2   2.0000     -10.326097      -280.9874
   3   2.0000     -10.324835      -280.9530
   4   2.0000     -10.324055      -280.9318
   5   2.0000     -10.309195      -280.5275
   6   2.0000     -10.306796      -280.4622
   7   2.0000     -10.304448      -280.3983
   8   2.0000     -10.301734      -280.3244
   9   2.0000     -10.297237      -280.2021
  10   2.0000     -10.297223      -280.2017
  11   2.0000     -10.291269      -280.0397
  12   2.0000     -10.288350      -279.9602
  13   2.0000     -10.279856      -279.7291
  14   2.0000     -10.276938      -279.6497
  15   2.0000     -10.274829      -279.5923
  16   2.0000      -8.082162      -219.9268
  17   2.0000      -8.075302      -219.7401
  18   2.0000      -6.040505      -164.3705
  19   2.0000      -6.036579      -164.2637
  20   2.0000      -6.033863      -164.1898
  21   2.0000      -6.033032      -164.1671
  22   2.0000      -6.029692      -164.0763
  23   2.0000      -6.026153      -163.9800
  24   2.0000      -1.009786       -27.4777
  25   2.0000      -0.985882       -26.8272
  26   2.0000      -0.910072       -24.7643
  27   2.0000      -0.900994       -24.5173
  28   2.0000      -0.867927       -23.6175
  29   2.0000      -0.849427       -23.1141
  30   2.0000      -0.843843       -22.9621
  31   2.0000      -0.813400       -22.1337
  32   2.0000      -0.782862       -21.3027
  33   2.0000      -0.772842       -21.0301
  34   2.0000      -0.705816       -19.2062
  35   2.0000      -0.699911       -19.0455
  36   2.0000      -0.690215       -18.7817
  37   2.0000      -0.657753       -17.8984
  38   2.0000      -0.643136       -17.5006
  39   2.0000      -0.615513       -16.7490
  40   2.0000      -0.596863       -16.2415
  41   2.0000      -0.571082       -15.5399
  42   2.0000      -0.569878       -15.5072
  43   2.0000      -0.565384       -15.3849
  44   2.0000      -0.529654       -14.4126
  45   2.0000      -0.526819       -14.3355
  46   2.0000      -0.519121       -14.1260
  47   2.0000      -0.507226       -13.8023
  48   2.0000      -0.501919       -13.6579
  49   2.0000      -0.493395       -13.4260
  50   2.0000      -0.489617       -13.3232
  51   2.0000      -0.484312       -13.1788
  52   2.0000      -0.475114       -12.9285
  53   2.0000      -0.464353       -12.6357
  54   2.0000      -0.460680       -12.5357
  55   2.0000      -0.451649       -12.2900
  56   2.0000      -0.444428       -12.0935
  57   2.0000      -0.432392       -11.7660
  58   2.0000      -0.429312       -11.6822
  59   2.0000      -0.426773       -11.6131
  60   2.0000      -0.422482       -11.4963
  61   2.0000      -0.413686       -11.2570
  62   2.0000      -0.401033       -10.9127
  63   2.0000      -0.339370        -9.2347
  64   2.0000      -0.336693        -9.1619
  65   2.0000      -0.327220        -8.9041
  66   2.0000      -0.300111        -8.1664
  67   0.0000       0.034809         0.9472
  68   0.0000       0.064626         1.7586
  69   0.0000       0.122992         3.3468
  70   0.0000       0.125411         3.4126
  71   0.0000       0.134218         3.6523

MULLIKEN ATOMIC CHARGES
-----------------------
   0 S :    0.126250
   1 C :   -0.123535
   2 C :   -0.066644
   3 C :    0.012223
   4 C :   -0.168346
   5 H :    0.026091
   6 C :    0.052585
   7 H :    0.046604
   8 H :    0.054453
   9 C :   -0.152567
  10 H :    0.043929
  11 H :    0.035837
  12 C :   -0.005019
  13 H :    0.019231
  14 H :    0.043910
  15 H :    0.023138
  16 S :    0.085937
  17 C :   -0.097499
  18 C :   -0.027700
  19 C :   -0.048042
  20 C :   -0.164479
  21 H :    0.028857
  22 C :    0.088234
  23 H :    0.034896
  24 H :    0.029312
  25 C :   -0.094113
  26 H :    0.015691
  27 H :    0.016491
  28 C :   -0.040753
  29 H :    0.037045
  30 H :    0.035096
  31 H :    0.028647
  32 H :    0.030299
  33 H :    0.073937
Sum of atomic charges:    0.0000000

LOEWDIN ATOMIC CHARGES
----------------------
   0 S :    0.430157
   1 C :   -0.192670
   2 C :   -0.062195
   3 C :   -0.072126
   4 C :   -0.208739
   5 H :    0.039880
   6 C :   -0.032547
   7 H :    0.035937
   8 H :    0.041221
   9 C :   -0.050532
  10 H :    0.026234
  11 H :    0.021475
  12 C :   -0.054929
  13 H :    0.015289
  14 H :    0.033119
  15 H :    0.023558
  16 S :    0.388125
  17 C :   -0.175223
  18 C :   -0.074448
  19 C :   -0.054157
  20 C :   -0.202031
  21 H :    0.034881
  22 C :   -0.026257
  23 H :    0.031530
  24 H :    0.029748
  25 C :   -0.048318
  26 H :    0.016239
  27 H :    0.018793
  28 C :   -0.057940
  29 H :    0.023194
  30 H :    0.030303
  31 H :    0.023508
  32 H :    0.015810
  33 H :    0.033112

  Mayer bond orders larger than 0.100000
B(  0-S ,  1-C ) :   1.1450 B(  0-S ,  4-C ) :   1.1779 B(  1-C ,  2-C ) :   1.6133
B(  1-C ,  4-C ) :   0.1012 B(  1-C , 32-H ) :   0.9781 B(  2-C ,  3-C ) :   1.2590
B(  2-C ,  6-C ) :   0.9857 B(  3-C ,  4-C ) :   1.5730 B(  3-C ,  5-H ) :   0.9876
B(  4-C , 20-C ) :   0.9994 B(  6-C ,  7-H ) :   0.9503 B(  6-C ,  8-H ) :   0.9388
B(  6-C ,  9-C ) :   1.0839 B(  9-C , 10-H ) :   0.9588 B(  9-C , 11-H ) :   0.9500
B(  9-C , 12-C ) :   1.0721 B( 12-C , 13-H ) :   0.9771 B( 12-C , 14-H ) :   0.9753
B( 12-C , 15-H ) :   0.9754 B( 16-S , 17-C ) :   1.1725 B( 16-S , 20-C ) :   1.1249
B( 17-C , 18-C ) :   1.5675 B( 17-C , 20-C ) :   0.1006 B( 17-C , 33-H ) :   0.9652
B( 18-C , 19-C ) :   1.2568 B( 18-C , 21-H ) :   0.9905 B( 19-C , 20-C ) :   1.6254
B( 19-C , 22-C ) :   1.0284 B( 22-C , 23-H ) :   0.9277 B( 22-C , 24-H ) :   0.9465
B( 22-C , 25-C ) :   1.0619 B( 25-C , 26-H ) :   0.9614 B( 25-C , 27-H ) :   0.9431
B( 25-C , 28-C ) :   1.0926 B( 28-C , 29-H ) :   0.9747 B( 28-C , 30-H ) :   0.9732
B( 28-C , 31-H ) :   0.9762

Dispersion correction           -0.013472819
FINAL SINGLE POINT ENERGY     -1339.871960974457

DIPOLE MOMENT
-------------
                                X             Y             Z
Electronic contribution:    -23.49645      12.30206      -0.73254
Nuclear contribution   :     23.94749     -12.70593       0.86305
                        -----------------------------------------
Total Dipole Moment    :      0.45103      -0.40387       0.13051
                        -----------------------------------------
Magnitude (a.u.)       :      0.61933
Magnitude (Debye)      :      1.57422

Rotational constants in cm-1:     0.016970     0.007792     0.006747
Rotational constants in MHz :   508.749280   233.601914   202.265595

                             ****ORCA TERMINATED NORMALLY****
TOTAL RUN TIME: 0 days 0 hours 0 minutes 28 seconds 636 msec
