                         Program Version 4.2.1 -  RELEASE  -
|  1> ! wB97X-D3 SP def2-SVP
|  2> %pal
|  3> nprocs 16
|  4> end
|  5>
|  6> * xyz 0 1
|  7> S 	 -2.38397 	 -22.6661 	 85.4692
|  8> C 	 -1.38188 	 -22.4256 	 84.0542
|  9> C 	 -0.800711 	 -21.1966 	 83.9895
| 10> C 	 -1.2373 	 -20.401 	 85.1476
| 11> C 	 -2.04167 	 -21.03 	 86.0985
| 12> H 	 -0.879577 	 -19.4231 	 85.2958
| 13> C 	 0.236633 	 -20.7402 	 82.9986
| 14> H 	 -0.119684 	 -19.9698 	 82.3454
| 15> H 	 0.275166 	 -21.6259 	 82.4175
| 16> C 	 1.67798 	 -20.3913 	 83.4695
| 17> H 	 2.28826 	 -20.1713 	 82.6119
| 18> H 	 1.77792 	 -19.4517 	 83.9892
| 19> C 	 2.32667 	 -21.4805 	 84.3726
| 20> H 	 1.71635 	 -21.4795 	 85.2979
| 21> H 	 2.32721 	 -22.5346 	 83.9676
| 22> H 	 3.30666 	 -21.281 	 84.7162
| 23> S 	 -1.72904 	 -21.7659 	 88.8368
| 24> C 	 -2.3154 	 -20.626 	 90.0171
| 25> C 	 -2.7043 	 -19.4513 	 89.4473
| 26> C 	 -2.52267 	 -19.4276 	 88.0293
| 27> C 	 -2.16357 	 -20.6293 	 87.4905
| 28> H 	 -3.23598 	 -18.73 	 90.0727
| 29> C 	 -3.02221 	 -18.1452 	 87.2625
| 30> H 	 -3.82014 	 -17.6681 	 87.8861
| 31> H 	 -3.45495 	 -18.4712 	 86.3358
| 32> C 	 -1.95462 	 -17.017 	 87.2804
| 33> H 	 -1.07228 	 -17.3108 	 86.6203
| 34> H 	 -1.53748 	 -16.9372 	 88.3245
| 35> C 	 -2.54631 	 -15.6593 	 86.887
| 36> H 	 -1.73988 	 -14.9424 	 86.8399
| 37> H 	 -3.23074 	 -15.4575 	 87.7178
| 38> H 	 -3.11067 	 -15.7136 	 85.9606
| 39> H 	 -1.28039 	 -23.0756 	 83.2226
| 40> H 	 -2.6455 	 -20.8606 	 90.9927
| 41> *
| 42>
| 43>                          ****END OF INPUT****

CARTESIAN COORDINATES (ANGSTROEM)
---------------------------------
  S     -2.383970  -22.666100   85.469200
  C     -1.381880  -22.425600   84.054200
  C     -0.800711  -21.196600   83.989500
  C     -1.237300  -20.401000   85.147600
  C     -2.041670  -21.030000   86.098500
  H     -0.879577  -19.423100   85.295800
  C      0.236633  -20.740200   82.998600
  H     -0.119684  -19.969800   82.345400
  H      0.275166  -21.625900   82.417500
  C      1.677980  -20.391300   83.469500
  H      2.288260  -20.171300   82.611900
  H      1.777920  -19.451700   83.989200
  C      2.326670  -21.480500   84.372600
  H      1.716350  -21.479500   85.297900
  H      2.327210  -22.534600   83.967600
  H      3.306660  -21.281000   84.716200
  S     -1.729040  -21.765900   88.836800
  C     -2.315400  -20.626000   90.017100
  C     -2.704300  -19.451300   89.447300
  C     -2.522670  -19.427600   88.029300
  C     -2.163570  -20.629300   87.490500
  H     -3.235980  -18.730000   90.072700
  C     -3.022210  -18.145200   87.262500
  H     -3.820140  -17.668100   87.886100
  H     -3.454950  -18.471200   86.335800
  C     -1.954620  -17.017000   87.280400
  H     -1.072280  -17.310800   86.620300
  H     -1.537480  -16.937200   88.324500
  C     -2.546310  -15.659300   86.887000
  H     -1.739880  -14.942400   86.839900
  H     -3.230740  -15.457500   87.717800
  H     -3.110670  -15.713600   85.960600
  H     -1.280390  -23.075600   83.222600
  H     -2.645500  -20.860600   90.992700

 Total Charge           Charge          ....    0
 Multiplicity           Mult            ....    1
 Number of Electrons    NEL             ....  134
 Basis Dimension        Dim             ....  322

ORBITAL ENERGIES
----------------

  NO   OCC          E(Eh)            E(eV)
   0   2.0000     -88.968235     -2420.9487
   1   2.0000     -88.963183     -2420.8113
   2   2.0000     -10.335342      -281.2390
   3   2.0000     -10.331929      -281.1461
   4   2.0000     -10.315532      -280.6999
   5   2.0000     -10.309428      -280.5338
   6   2.0000     -10.303548      -280.3738
   7   2.0000     -10.302760      -280.3523
   8   2.0000     -10.297373      -280.2058
   9   2.0000     -10.297162      -280.2000
  10   2.0000     -10.296041      -280.1695
  11   2.0000     -10.293613      -280.1035
  12   2.0000     -10.291308      -280.0407
  13   2.0000     -10.291256      -280.0393
  14   2.0000     -10.279628      -279.7229
  15   2.0000     -10.278047      -279.6799
  16   2.0000      -8.082280      -219.9300
  17   2.0000      -8.077248      -219.7931
  18   2.0000      -6.041042      -164.3851
  19   2.0000      -6.036819      -164.2702
  20   2.0000      -6.036069      -164.2498
  21   2.0000      -6.032857      -164.1624
  22   2.0000      -6.031915      -164.1367
  23   2.0000      -6.027631      -164.0202
  24   2.0000      -1.002159       -27.2701
  25   2.0000      -0.982150       -26.7257
  26   2.0000      -0.911181       -24.7945
  27   2.0000      -0.904580       -24.6149
  28   2.0000      -0.872401       -23.7392
  29   2.0000      -0.848532       -23.0897
  30   2.0000      -0.840783       -22.8789
  31   2.0000      -0.816303       -22.2127
  32   2.0000      -0.784167       -21.3383
  33   2.0000      -0.774635       -21.0789
  34   2.0000      -0.714634       -19.4462
  35   2.0000      -0.702206       -19.1080
  36   2.0000      -0.688559       -18.7367
  37   2.0000      -0.659774       -17.9534
  38   2.0000      -0.640545       -17.4301
  39   2.0000      -0.620293       -16.8790
  40   2.0000      -0.590163       -16.0591
  41   2.0000      -0.568959       -15.4822
  42   2.0000      -0.565928       -15.3997
  43   2.0000      -0.556778       -15.1507
  44   2.0000      -0.540314       -14.7027
  45   2.0000      -0.528356       -14.3773
  46   2.0000      -0.521021       -14.1777
  47   2.0000      -0.514766       -14.0075
  48   2.0000      -0.504388       -13.7251
  49   2.0000      -0.497356       -13.5338
  50   2.0000      -0.486964       -13.2510
  51   2.0000      -0.477378       -12.9901
  52   2.0000      -0.469763       -12.7829
  53   2.0000      -0.462323       -12.5805
  54   2.0000      -0.456199       -12.4138
  55   2.0000      -0.444073       -12.0839
  56   2.0000      -0.442973       -12.0539
  57   2.0000      -0.438730       -11.9384
  58   2.0000      -0.435720       -11.8565
  59   2.0000      -0.429586       -11.6896
  60   2.0000      -0.416512       -11.3339
  61   2.0000      -0.414397       -11.2763
  62   2.0000      -0.410982       -11.1834
  63   2.0000      -0.353938        -9.6312
  64   2.0000      -0.331660        -9.0249
  65   2.0000      -0.327626        -8.9152
  66   2.0000      -0.293166        -7.9774
  67   0.0000       0.022914         0.6235
  68   0.0000       0.072181         1.9641
  69   0.0000       0.111211         3.0262
  70   0.0000       0.121494         3.3060
  71   0.0000       0.127442         3.4679

MULLIKEN ATOMIC CHARGES
-----------------------
   0 S :    0.105276
   1 C :   -0.094639
   2 C :   -0.137253
   3 C :    0.056037
   4 C :   -0.156250
   5 H :   -0.018489
   6 C :    0.120993
   7 H :    0.036133
   8 H :   -0.003472
   9 C :   -0.054960
  10 H :    0.023340
  11 H :    0.022595
  12 C :   -0.071670
  13 H :    0.045313
  14 H :    0.039451
  15 H :    0.025923
  16 S :    0.094397
  17 C :   -0.069771
  18 C :   -0.050232
  19 C :   -0.027026
  20 C :   -0.132729
  21 H :    0.027950
  22 C :    0.053019
  23 H :    0.016420
  24 H :    0.034983
  25 C :   -0.133969
  26 H :    0.038812
  27 H :    0.040956
  28 C :   -0.020188
  29 H :    0.039600
  30 H :    0.031052
  31 H :    0.038664
  32 H :    0.035041
  33 H :    0.044695
Sum of atomic charges:   -0.0000000

LOEWDIN ATOMIC CHARGES
----------------------
   0 S :    0.390223
   1 C :   -0.182775
   2 C :   -0.065859
   3 C :   -0.039122
   4 C :   -0.190835
   5 H :    0.017038
   6 C :   -0.027243
   7 H :    0.032874
   8 H :    0.027670
   9 C :   -0.037209
  10 H :    0.023220
  11 H :    0.022827
  12 C :   -0.070499
  13 H :    0.033060
  14 H :    0.029834
  15 H :    0.018977
  16 S :    0.373218
  17 C :   -0.182610
  18 C :   -0.072869
  19 C :   -0.056478
  20 C :   -0.175624
  21 H :    0.034876
  22 C :   -0.026355
  23 H :    0.030796
  24 H :    0.025121
  25 C :   -0.048315
  26 H :    0.020550
  27 H :    0.030297
  28 C :   -0.062381
  29 H :    0.026679
  30 H :    0.026754
  31 H :    0.025941
  32 H :    0.024033
  33 H :    0.024188

  Mayer bond orders larger than 0.100000
B(  0-S ,  1-C ) :   1.1364 B(  0-S ,  4-C ) :   1.1185 B(  1-C ,  2-C ) :   1.6436
B(  1-C , 32-H ) :   0.9533 B(  2-C ,  3-C ) :   1.2303 B(  2-C ,  6-C ) :   1.0216
B(  3-C ,  4-C ) :   1.5693 B(  3-C ,  5-H ) :   0.9969 B(  4-C , 20-C ) :   1.0710
B(  6-C ,  7-H ) :   0.9336 B(  6-C ,  8-H ) :   0.9304 B(  6-C ,  9-C ) :   1.0693
B(  9-C , 10-H ) :   0.9549 B(  9-C , 11-H ) :   0.9540 B(  9-C , 12-C ) :   1.0695
B( 12-C , 13-H ) :   0.9721 B( 12-C , 14-H ) :   0.9787 B( 12-C , 15-H ) :   0.9754
B( 16-S , 17-C ) :   1.1357 B( 16-S , 20-C ) :   1.1006 B( 17-C , 18-C ) :   1.6651
B( 17-C , 33-H ) :   0.9611 B( 18-C , 19-C ) :   1.2085 B( 18-C , 21-H ) :   0.9833
B( 19-C , 20-C ) :   1.6455 B( 19-C , 22-C ) :   1.0320 B( 22-C , 23-H ) :   0.9464
B( 22-C , 24-H ) :   0.9412 B( 22-C , 25-C ) :   1.0427 B( 25-C , 26-H ) :   0.9526
B( 25-C , 27-H ) :   0.9572 B( 25-C , 28-C ) :   1.0738 B( 28-C , 29-H ) :   0.9737
B( 28-C , 30-H ) :   0.9746 B( 28-C , 31-H ) :   0.9749

Dispersion correction           -0.014362443
FINAL SINGLE POINT ENERGY     -1339.867148403594

DIPOLE MOMENT
-------------
                                X             Y             Z
Electronic contribution:    -11.13636     -20.91722       9.75341
Nuclear contribution   :     11.30782      21.53029     -10.03607
                        -----------------------------------------
Total Dipole Moment    :      0.17146       0.61307      -0.28267
                        -----------------------------------------
Magnitude (a.u.)       :      0.69653
Magnitude (Debye)      :      1.77044

Rotational constants in cm-1:     0.016188     0.009278     0.007213
Rotational constants in MHz :   485.293829   278.148245   216.237264

                             ****ORCA TERMINATED NORMALLY****
TOTAL RUN TIME: 0 days 0 hours 0 minutes 34 seconds 551 msec
