                         Program Version 4.2.1 -  RELEASE  -
|  1> ! wB97X-D3 SP def2-SVP
|  2> %pal
|  3> nprocs 16
|  4> end
|  5>
|  6> * xyz 0 1
|  7> S 	 -64.6306 	 47.8889 	 125.671
|  8> C 	 -64.8045 	 46.7106 	 126.978
|  9> C 	 -64.8693 	 47.3506 	 128.2
| 10> C 	 -64.6517 	 48.7427 	 128.123
| 11> C 	 -64.5932 	 49.1932 	 126.814
| 12> H 	 -64.8007 	 49.3736 	 128.946
| 13> C 	 -65.103 	 46.6874 	 129.562
| 14> H 	 -64.2558 	 46.9758 	 130.177
| 15> H 	 -65.0375 	 45.6145 	 129.405
| 16> C 	 -66.4269 	 47.0014 	 130.141
| 17> H 	 -66.7409 	 48.0467 	 130.366
| 18> H 	 -67.0676 	 46.6528 	 129.356
| 19> C 	 -66.7828 	 46.3211 	 131.47
| 20> H 	 -66.3043 	 46.8699 	 132.31
| 21> H 	 -67.8425 	 46.3385 	 131.731
| 22> H 	 -66.4572 	 45.2692 	 131.593
| 23> S 	 -65.2524 	 50.8537 	 124.706
| 24> C 	 -65.0741 	 52.5838 	 124.777
| 25> C 	 -64.3943 	 52.9756 	 125.912
| 26> C 	 -64.1797 	 51.8585 	 126.781
| 27> C 	 -64.6237 	 50.5911 	 126.306
| 28> H 	 -64.1251 	 53.9941 	 125.98
| 29> C 	 -63.3857 	 52.0335 	 128.053
| 30> H 	 -63.5465 	 51.2481 	 128.736
| 31> H 	 -63.7189 	 52.9447 	 128.525
| 32> C 	 -61.8164 	 52.087 	 127.819
| 33> H 	 -61.5827 	 52.8334 	 127.143
| 34> H 	 -61.4827 	 51.1505 	 127.348
| 35> C 	 -60.9863 	 52.2775 	 129.182
| 36> H 	 -60.983 	 53.3335 	 129.297
| 37> H 	 -59.9475 	 51.9211 	 129.119
| 38> H 	 -61.549 	 52.1311 	 130.088
| 39> H 	 -65.0923 	 45.6856 	 126.917
| 40> H 	 -65.2653 	 53.1887 	 123.95
| 41> *
| 42>
| 43>                          ****END OF INPUT****

CARTESIAN COORDINATES (ANGSTROEM)
---------------------------------
  S    -64.630600   47.888900  125.671000
  C    -64.804500   46.710600  126.978000
  C    -64.869300   47.350600  128.200000
  C    -64.651700   48.742700  128.123000
  C    -64.593200   49.193200  126.814000
  H    -64.800700   49.373600  128.946000
  C    -65.103000   46.687400  129.562000
  H    -64.255800   46.975800  130.177000
  H    -65.037500   45.614500  129.405000
  C    -66.426900   47.001400  130.141000
  H    -66.740900   48.046700  130.366000
  H    -67.067600   46.652800  129.356000
  C    -66.782800   46.321100  131.470000
  H    -66.304300   46.869900  132.310000
  H    -67.842500   46.338500  131.731000
  H    -66.457200   45.269200  131.593000
  S    -65.252400   50.853700  124.706000
  C    -65.074100   52.583800  124.777000
  C    -64.394300   52.975600  125.912000
  C    -64.179700   51.858500  126.781000
  C    -64.623700   50.591100  126.306000
  H    -64.125100   53.994100  125.980000
  C    -63.385700   52.033500  128.053000
  H    -63.546500   51.248100  128.736000
  H    -63.718900   52.944700  128.525000
  C    -61.816400   52.087000  127.819000
  H    -61.582700   52.833400  127.143000
  H    -61.482700   51.150500  127.348000
  C    -60.986300   52.277500  129.182000
  H    -60.983000   53.333500  129.297000
  H    -59.947500   51.921100  129.119000
  H    -61.549000   52.131100  130.088000
  H    -65.092300   45.685600  126.917000
  H    -65.265300   53.188700  123.950000

 Total Charge           Charge          ....    0
 Multiplicity           Mult            ....    1
 Number of Electrons    NEL             ....  134
 Basis Dimension        Dim             ....  322

ORBITAL ENERGIES
----------------

  NO   OCC          E(Eh)            E(eV)
   0   2.0000     -88.970209     -2421.0025
   1   2.0000     -88.964267     -2420.8408
   2   2.0000     -10.337359      -281.2938
   3   2.0000     -10.333550      -281.1902
   4   2.0000     -10.314268      -280.6655
   5   2.0000     -10.311684      -280.5952
   6   2.0000     -10.308557      -280.5101
   7   2.0000     -10.298899      -280.2473
   8   2.0000     -10.295129      -280.1447
   9   2.0000     -10.291922      -280.0574
  10   2.0000     -10.288205      -279.9563
  11   2.0000     -10.286686      -279.9150
  12   2.0000     -10.285742      -279.8893
  13   2.0000     -10.285682      -279.8876
  14   2.0000     -10.281771      -279.7812
  15   2.0000     -10.276832      -279.6468
  16   2.0000      -8.084679      -219.9953
  17   2.0000      -8.079466      -219.8534
  18   2.0000      -6.043342      -164.4477
  19   2.0000      -6.039223      -164.3356
  20   2.0000      -6.037887      -164.2993
  21   2.0000      -6.035307      -164.2291
  22   2.0000      -6.033838      -164.1891
  23   2.0000      -6.030365      -164.0946
  24   2.0000      -1.008556       -27.4442
  25   2.0000      -0.986649       -26.8481
  26   2.0000      -0.919639       -25.0246
  27   2.0000      -0.899784       -24.4844
  28   2.0000      -0.870959       -23.7000
  29   2.0000      -0.850576       -23.1454
  30   2.0000      -0.843279       -22.9468
  31   2.0000      -0.819330       -22.2951
  32   2.0000      -0.784664       -21.3518
  33   2.0000      -0.771785       -21.0013
  34   2.0000      -0.711234       -19.3537
  35   2.0000      -0.701984       -19.1019
  36   2.0000      -0.698519       -19.0077
  37   2.0000      -0.665391       -18.1062
  38   2.0000      -0.638756       -17.3814
  39   2.0000      -0.631172       -17.1751
  40   2.0000      -0.597902       -16.2697
  41   2.0000      -0.575307       -15.6549
  42   2.0000      -0.570762       -15.5312
  43   2.0000      -0.555562       -15.1176
  44   2.0000      -0.529931       -14.4201
  45   2.0000      -0.525106       -14.2889
  46   2.0000      -0.516014       -14.0415
  47   2.0000      -0.507993       -13.8232
  48   2.0000      -0.505813       -13.7639
  49   2.0000      -0.503169       -13.6919
  50   2.0000      -0.489573       -13.3220
  51   2.0000      -0.486731       -13.2446
  52   2.0000      -0.471187       -12.8216
  53   2.0000      -0.463219       -12.6048
  54   2.0000      -0.459236       -12.4965
  55   2.0000      -0.456398       -12.4192
  56   2.0000      -0.445088       -12.1115
  57   2.0000      -0.439383       -11.9562
  58   2.0000      -0.436304       -11.8724
  59   2.0000      -0.424010       -11.5379
  60   2.0000      -0.418254       -11.3813
  61   2.0000      -0.414199       -11.2709
  62   2.0000      -0.405684       -11.0392
  63   2.0000      -0.359082        -9.7711
  64   2.0000      -0.337181        -9.1752
  65   2.0000      -0.327451        -8.9104
  66   2.0000      -0.284302        -7.7363
  67   0.0000       0.019393         0.5277
  68   0.0000       0.078280         2.1301
  69   0.0000       0.106947         2.9102
  70   0.0000       0.120576         3.2810
  71   0.0000       0.141156         3.8410

MULLIKEN ATOMIC CHARGES
-----------------------
   0 S :    0.105319
   1 C :   -0.098034
   2 C :   -0.131948
   3 C :    0.027852
   4 C :   -0.101478
   5 H :    0.002794
   6 C :    0.104163
   7 H :    0.030082
   8 H :    0.012428
   9 C :   -0.079061
  10 H :    0.040988
  11 H :    0.022685
  12 C :   -0.063449
  13 H :    0.028240
  14 H :    0.036737
  15 H :    0.027120
  16 S :    0.082909
  17 C :   -0.070197
  18 C :   -0.017423
  19 C :   -0.062952
  20 C :   -0.113738
  21 H :    0.010959
  22 C :    0.075624
  23 H :    0.001945
  24 H :    0.017105
  25 C :   -0.063213
  26 H :    0.012498
  27 H :    0.035174
  28 C :   -0.035382
  29 H :    0.006335
  30 H :    0.056349
  31 H :    0.021905
  32 H :    0.037000
  33 H :    0.040664
Sum of atomic charges:    0.0000000

LOEWDIN ATOMIC CHARGES
----------------------
   0 S :    0.406317
   1 C :   -0.201674
   2 C :   -0.052810
   3 C :   -0.065721
   4 C :   -0.179201
   5 H :    0.022493
   6 C :   -0.025925
   7 H :    0.029362
   8 H :    0.030886
   9 C :   -0.050068
  10 H :    0.031982
  11 H :    0.024851
  12 C :   -0.072511
  13 H :    0.026575
  14 H :    0.027908
  15 H :    0.022852
  16 S :    0.411297
  17 C :   -0.173449
  18 C :   -0.065328
  19 C :   -0.054925
  20 C :   -0.202109
  21 H :    0.030131
  22 C :   -0.027433
  23 H :    0.019092
  24 H :    0.025624
  25 C :   -0.022928
  26 H :    0.008802
  27 H :    0.026121
  28 C :   -0.075635
  29 H :    0.022968
  30 H :    0.033773
  31 H :    0.026129
  32 H :    0.025366
  33 H :    0.017188

  Mayer bond orders larger than 0.100000
B(  0-S ,  1-C ) :   1.1135 B(  0-S ,  4-C ) :   1.1629 B(  1-C ,  2-C ) :   1.6351
B(  1-C , 32-H ) :   0.9625 B(  2-C ,  3-C ) :   1.2542 B(  2-C ,  6-C ) :   1.0274
B(  3-C ,  4-C ) :   1.5582 B(  3-C ,  5-H ) :   0.9929 B(  4-C , 20-C ) :   1.0559
B(  6-C ,  7-H ) :   0.9375 B(  6-C ,  8-H ) :   0.9335 B(  6-C ,  9-C ) :   1.0594
B(  9-C , 10-H ) :   0.9567 B(  9-C , 11-H ) :   0.9510 B(  9-C , 12-C ) :   1.0831
B( 12-C , 13-H ) :   0.9744 B( 12-C , 14-H ) :   0.9756 B( 12-C , 15-H ) :   0.9738
B( 16-S , 17-C ) :   1.1753 B( 16-S , 20-C ) :   1.1441 B( 17-C , 18-C ) :   1.5788
B( 17-C , 33-H ) :   0.9736 B( 18-C , 19-C ) :   1.2542 B( 18-C , 21-H ) :   1.0044
B( 19-C , 20-C ) :   1.5467 B( 19-C , 22-C ) :   1.0597 B( 22-C , 23-H ) :   0.9369
B( 22-C , 24-H ) :   0.9346 B( 22-C , 25-C ) :   1.0553 B( 25-C , 26-H ) :   0.9655
B( 25-C , 27-H ) :   0.9633 B( 25-C , 28-C ) :   1.0561 B( 28-C , 29-H ) :   0.9706
B( 28-C , 30-H ) :   0.9779 B( 28-C , 31-H ) :   0.9744

Dispersion correction           -0.013491228
FINAL SINGLE POINT ENERGY     -1339.862761601240

DIPOLE MOMENT
-------------
                                X             Y             Z
Electronic contribution:     -5.37897       0.21769     -28.04293
Nuclear contribution   :      5.39862       0.04486      28.58321
                        -----------------------------------------
Total Dipole Moment    :      0.01964       0.26255       0.54028
                        -----------------------------------------
Magnitude (a.u.)       :      0.60102
Magnitude (Debye)      :      1.52767

Rotational constants in cm-1:     0.017177     0.008234     0.006498
Rotational constants in MHz :   514.953590   246.834183   194.796655

                             ****ORCA TERMINATED NORMALLY****
TOTAL RUN TIME: 0 days 0 hours 0 minutes 35 seconds 82 msec
