                         Program Version 4.2.1 -  RELEASE  -
|  1> ! wB97X-D3 SP def2-SVP
|  2> %pal
|  3> nprocs 16
|  4> end
|  5>
|  6> * xyz 0 1
|  7> S 	 -43.1772 	 51.5161 	 100.446
|  8> C 	 -43.881 	 51.5205 	 98.8302
|  9> C 	 -43.3178 	 52.4236 	 97.9669
| 10> C 	 -42.3377 	 53.1692 	 98.7003
| 11> C 	 -42.1607 	 52.8672 	 99.9854
| 12> H 	 -41.6892 	 53.9555 	 98.3274
| 13> C 	 -43.5164 	 52.6508 	 96.5008
| 14> H 	 -43.8445 	 53.7186 	 96.3691
| 15> H 	 -44.3481 	 52.0015 	 96.2295
| 16> C 	 -42.2823 	 52.3118 	 95.6003
| 17> H 	 -42.4181 	 52.6111 	 94.5972
| 18> H 	 -41.3863 	 52.8805 	 95.8534
| 19> C 	 -41.932 	 50.8115 	 95.6936
| 20> H 	 -40.9981 	 50.4321 	 95.2051
| 21> H 	 -41.7119 	 50.6255 	 96.7906
| 22> H 	 -42.742 	 50.1491 	 95.3295
| 23> S 	 -42.2638 	 53.78 	 102.595
| 24> C 	 -40.853 	 54.3726 	 103.305
| 25> C 	 -39.7911 	 54.4276 	 102.461
| 26> C 	 -40.1033 	 53.9496 	 101.161
| 27> C 	 -41.4472 	 53.6155 	 101.01
| 28> H 	 -38.7886 	 54.7335 	 102.956
| 29> C 	 -38.9961 	 53.5774 	 100.177
| 30> H 	 -38.7381 	 54.4972 	 99.5898
| 31> H 	 -39.4504 	 52.7838 	 99.4475
| 32> C 	 -37.6696 	 53.114 	 100.739
| 33> H 	 -37.8137 	 52.3108 	 101.472
| 34> H 	 -37.1838 	 53.876 	 101.35
| 35> C 	 -36.6247 	 52.7306 	 99.6719
| 36> H 	 -37.0893 	 51.8805 	 99.1497
| 37> H 	 -35.6683 	 52.3976 	 100.149
| 38> H 	 -36.5413 	 53.6284 	 99.0305
| 39> H 	 -44.7053 	 50.8606 	 98.5127
| 40> H 	 -40.8423 	 54.7036 	 104.337
| 41> *
| 42>
| 43>                          ****END OF INPUT****

CARTESIAN COORDINATES (ANGSTROEM)
---------------------------------
  S    -43.177200   51.516100  100.446000
  C    -43.881000   51.520500   98.830200
  C    -43.317800   52.423600   97.966900
  C    -42.337700   53.169200   98.700300
  C    -42.160700   52.867200   99.985400
  H    -41.689200   53.955500   98.327400
  C    -43.516400   52.650800   96.500800
  H    -43.844500   53.718600   96.369100
  H    -44.348100   52.001500   96.229500
  C    -42.282300   52.311800   95.600300
  H    -42.418100   52.611100   94.597200
  H    -41.386300   52.880500   95.853400
  C    -41.932000   50.811500   95.693600
  H    -40.998100   50.432100   95.205100
  H    -41.711900   50.625500   96.790600
  H    -42.742000   50.149100   95.329500
  S    -42.263800   53.780000  102.595000
  C    -40.853000   54.372600  103.305000
  C    -39.791100   54.427600  102.461000
  C    -40.103300   53.949600  101.161000
  C    -41.447200   53.615500  101.010000
  H    -38.788600   54.733500  102.956000
  C    -38.996100   53.577400  100.177000
  H    -38.738100   54.497200   99.589800
  H    -39.450400   52.783800   99.447500
  C    -37.669600   53.114000  100.739000
  H    -37.813700   52.310800  101.472000
  H    -37.183800   53.876000  101.350000
  C    -36.624700   52.730600   99.671900
  H    -37.089300   51.880500   99.149700
  H    -35.668300   52.397600  100.149000
  H    -36.541300   53.628400   99.030500
  H    -44.705300   50.860600   98.512700
  H    -40.842300   54.703600  104.337000

 Total Charge           Charge          ....    0
 Multiplicity           Mult            ....    1
 Number of Electrons    NEL             ....  134
 Basis Dimension        Dim             ....  322

ORBITAL ENERGIES
----------------

  NO   OCC          E(Eh)            E(eV)
   0   2.0000     -88.964177     -2420.8383
   1   2.0000     -88.963317     -2420.8149
   2   2.0000     -10.327584      -281.0278
   3   2.0000     -10.322029      -280.8767
   4   2.0000     -10.316059      -280.7142
   5   2.0000     -10.311342      -280.5859
   6   2.0000     -10.307639      -280.4851
   7   2.0000     -10.302062      -280.3334
   8   2.0000     -10.300977      -280.3038
   9   2.0000     -10.299794      -280.2716
  10   2.0000     -10.296320      -280.1771
  11   2.0000     -10.289959      -280.0040
  12   2.0000     -10.285845      -279.8921
  13   2.0000     -10.285227      -279.8753
  14   2.0000     -10.284502      -279.8555
  15   2.0000     -10.283956      -279.8407
  16   2.0000      -8.079001      -219.8408
  17   2.0000      -8.078960      -219.8397
  18   2.0000      -6.037534      -164.2897
  19   2.0000      -6.037400      -164.2860
  20   2.0000      -6.033672      -164.1846
  21   2.0000      -6.033334      -164.1754
  22   2.0000      -6.029817      -164.0797
  23   2.0000      -6.029442      -164.0695
  24   2.0000      -1.011383       -27.5211
  25   2.0000      -0.989452       -26.9244
  26   2.0000      -0.911844       -24.8125
  27   2.0000      -0.910393       -24.7730
  28   2.0000      -0.870068       -23.6758
  29   2.0000      -0.853617       -23.2281
  30   2.0000      -0.842661       -22.9300
  31   2.0000      -0.815291       -22.1852
  32   2.0000      -0.780107       -21.2278
  33   2.0000      -0.770509       -20.9666
  34   2.0000      -0.709862       -19.3163
  35   2.0000      -0.696295       -18.9472
  36   2.0000      -0.694804       -18.9066
  37   2.0000      -0.649433       -17.6720
  38   2.0000      -0.640745       -17.4356
  39   2.0000      -0.620085       -16.8734
  40   2.0000      -0.598709       -16.2917
  41   2.0000      -0.569102       -15.4860
  42   2.0000      -0.564517       -15.3613
  43   2.0000      -0.551956       -15.0195
  44   2.0000      -0.537543       -14.6273
  45   2.0000      -0.526574       -14.3288
  46   2.0000      -0.515555       -14.0290
  47   2.0000      -0.514411       -13.9978
  48   2.0000      -0.496545       -13.5117
  49   2.0000      -0.493764       -13.4360
  50   2.0000      -0.485388       -13.2081
  51   2.0000      -0.472912       -12.8686
  52   2.0000      -0.467828       -12.7302
  53   2.0000      -0.461810       -12.5665
  54   2.0000      -0.457886       -12.4597
  55   2.0000      -0.450536       -12.2597
  56   2.0000      -0.442226       -12.0336
  57   2.0000      -0.440684       -11.9916
  58   2.0000      -0.430101       -11.7036
  59   2.0000      -0.427804       -11.6411
  60   2.0000      -0.420375       -11.4390
  61   2.0000      -0.418157       -11.3786
  62   2.0000      -0.414208       -11.2712
  63   2.0000      -0.351349        -9.5607
  64   2.0000      -0.334137        -9.0923
  65   2.0000      -0.327612        -8.9148
  66   2.0000      -0.293064        -7.9747
  67   0.0000       0.032437         0.8827
  68   0.0000       0.073013         1.9868
  69   0.0000       0.108643         2.9563
  70   0.0000       0.130796         3.5591
  71   0.0000       0.132759         3.6126

MULLIKEN ATOMIC CHARGES
-----------------------
   0 S :    0.103749
   1 C :   -0.135097
   2 C :   -0.091634
   3 C :    0.008338
   4 C :   -0.142714
   5 H :    0.006018
   6 C :    0.078877
   7 H :    0.051379
   8 H :    0.015783
   9 C :   -0.032917
  10 H :    0.020748
  11 H :    0.027305
  12 C :   -0.110984
  13 H :    0.039890
  14 H :    0.053568
  15 H :    0.038316
  16 S :    0.101639
  17 C :   -0.098668
  18 C :   -0.065110
  19 C :   -0.011074
  20 C :   -0.151107
  21 H :    0.053019
  22 C :    0.022537
  23 H :    0.037175
  24 H :    0.048760
  25 C :   -0.103792
  26 H :    0.029359
  27 H :    0.022342
  28 C :   -0.047986
  29 H :    0.035830
  30 H :    0.049927
  31 H :    0.037998
  32 H :    0.050200
  33 H :    0.058323
Sum of atomic charges:   -0.0000000

LOEWDIN ATOMIC CHARGES
----------------------
   0 S :    0.387692
   1 C :   -0.189353
   2 C :   -0.069389
   3 C :   -0.064127
   4 C :   -0.192636
   5 H :    0.030544
   6 C :   -0.027907
   7 H :    0.042289
   8 H :    0.029288
   9 C :   -0.037798
  10 H :    0.018085
  11 H :    0.025412
  12 C :   -0.079555
  13 H :    0.029037
  14 H :    0.035459
  15 H :    0.024962
  16 S :    0.413238
  17 C :   -0.198131
  18 C :   -0.092146
  19 C :   -0.054343
  20 C :   -0.190103
  21 H :    0.050381
  22 C :   -0.041820
  23 H :    0.035626
  24 H :    0.041079
  25 C :   -0.052895
  26 H :    0.021809
  27 H :    0.018944
  28 C :   -0.062596
  29 H :    0.026488
  30 H :    0.033824
  31 H :    0.027930
  32 H :    0.030950
  33 H :    0.029759

  Mayer bond orders larger than 0.100000
B(  0-S ,  1-C ) :   1.1279 B(  0-S ,  4-C ) :   1.1154 B(  1-C ,  2-C ) :   1.6458
B(  1-C , 32-H ) :   0.9575 B(  2-C ,  3-C ) :   1.1889 B(  2-C ,  6-C ) :   1.0281
B(  3-C ,  4-C ) :   1.6421 B(  3-C ,  5-H ) :   0.9942 B(  4-C , 20-C ) :   1.0427
B(  6-C ,  7-H ) :   0.9355 B(  6-C ,  8-H ) :   0.9387 B(  6-C ,  9-C ) :   1.0608
B(  9-C , 10-H ) :   0.9579 B(  9-C , 11-H ) :   0.9558 B(  9-C , 12-C ) :   1.0607
B( 12-C , 13-H ) :   0.9752 B( 12-C , 14-H ) :   0.9750 B( 12-C , 15-H ) :   0.9770
B( 16-S , 17-C ) :   1.1772 B( 16-S , 20-C ) :   1.1299 B( 17-C , 18-C ) :   1.6159
B( 17-C , 33-H ) :   0.9610 B( 18-C , 19-C ) :   1.2424 B( 18-C , 21-H ) :   0.9756
B( 19-C , 20-C ) :   1.5917 B( 19-C , 22-C ) :   1.0355 B( 22-C , 23-H ) :   0.9220
B( 22-C , 24-H ) :   0.9365 B( 22-C , 25-C ) :   1.0803 B( 25-C , 26-H ) :   0.9546
B( 25-C , 27-H ) :   0.9413 B( 25-C , 28-C ) :   1.0766 B( 28-C , 29-H ) :   0.9780
B( 28-C , 30-H ) :   0.9727 B( 28-C , 31-H ) :   0.9741

Dispersion correction           -0.014157260
FINAL SINGLE POINT ENERGY     -1339.882874313896

DIPOLE MOMENT
-------------
                                X             Y             Z
Electronic contribution:    -18.29047       3.36629      21.72421
Nuclear contribution   :     18.73106      -3.27589     -22.04852
                        -----------------------------------------
Total Dipole Moment    :      0.44060       0.09040      -0.32431
                        -----------------------------------------
Magnitude (a.u.)       :      0.55450
Magnitude (Debye)      :      1.40944

Rotational constants in cm-1:     0.017354     0.009306     0.006689
Rotational constants in MHz :   520.265129   278.990035   200.524423

                             ****ORCA TERMINATED NORMALLY****
TOTAL RUN TIME: 0 days 0 hours 0 minutes 30 seconds 95 msec
