                         Program Version 4.2.1 -  RELEASE  -
|  1> ! wB97X-D3 SP def2-SVP
|  2> %pal
|  3> nprocs 16
|  4> end
|  5>
|  6> * xyz 0 1
|  7> S 	 4.39705 	 -11.1278 	 66.1774
|  8> C 	 4.00115 	 -9.39096 	 66.2653
|  9> C 	 4.86978 	 -8.77533 	 67.1416
| 10> C 	 5.76268 	 -9.70866 	 67.7062
| 11> C 	 5.75059 	 -11.006 	 67.2391
| 12> H 	 6.58253 	 -9.42521 	 68.3892
| 13> C 	 4.83105 	 -7.31799 	 67.6929
| 14> H 	 5.29706 	 -7.32705 	 68.7192
| 15> H 	 3.75192 	 -7.01575 	 67.8708
| 16> C 	 5.45801 	 -6.26637 	 66.7043
| 17> H 	 4.87874 	 -6.23402 	 65.7853
| 18> H 	 5.39387 	 -5.30242 	 67.0821
| 19> C 	 6.92216 	 -6.61359 	 66.413
| 20> H 	 6.97547 	 -7.56162 	 65.899
| 21> H 	 7.38526 	 -5.89588 	 65.7476
| 22> H 	 7.51491 	 -6.81037 	 67.2972
| 23> S 	 7.6865 	 -12.8842 	 66.5343
| 24> C 	 8.20534 	 -14.0895 	 67.6439
| 25> C 	 7.6577 	 -13.8648 	 68.8898
| 26> C 	 6.78814 	 -12.7434 	 68.8787
| 27> C 	 6.60897 	 -12.1418 	 67.6388
| 28> H 	 7.90824 	 -14.4817 	 69.7425
| 29> C 	 5.94716 	 -12.437 	 70.1434
| 30> H 	 6.16066 	 -11.4037 	 70.3151
| 31> H 	 6.41411 	 -13.0553 	 70.8829
| 32> C 	 4.42459 	 -12.6206 	 70.1393
| 33> H 	 4.00516 	 -11.8777 	 69.5513
| 34> H 	 4.03268 	 -12.434 	 71.1675
| 35> C 	 3.95507 	 -13.9406 	 69.5849
| 36> H 	 4.43945 	 -14.1725 	 68.5932
| 37> H 	 2.93941 	 -13.8827 	 69.2086
| 38> H 	 4.07166 	 -14.7629 	 70.2374
| 39> H 	 3.227 	 -8.97286 	 65.654
| 40> H 	 9.04504 	 -14.7993 	 67.3297
| 41> *
| 42>
| 43>                          ****END OF INPUT****

CARTESIAN COORDINATES (ANGSTROEM)
---------------------------------
  S      4.397050  -11.127800   66.177400
  C      4.001150   -9.390960   66.265300
  C      4.869780   -8.775330   67.141600
  C      5.762680   -9.708660   67.706200
  C      5.750590  -11.006000   67.239100
  H      6.582530   -9.425210   68.389200
  C      4.831050   -7.317990   67.692900
  H      5.297060   -7.327050   68.719200
  H      3.751920   -7.015750   67.870800
  C      5.458010   -6.266370   66.704300
  H      4.878740   -6.234020   65.785300
  H      5.393870   -5.302420   67.082100
  C      6.922160   -6.613590   66.413000
  H      6.975470   -7.561620   65.899000
  H      7.385260   -5.895880   65.747600
  H      7.514910   -6.810370   67.297200
  S      7.686500  -12.884200   66.534300
  C      8.205340  -14.089500   67.643900
  C      7.657700  -13.864800   68.889800
  C      6.788140  -12.743400   68.878700
  C      6.608970  -12.141800   67.638800
  H      7.908240  -14.481700   69.742500
  C      5.947160  -12.437000   70.143400
  H      6.160660  -11.403700   70.315100
  H      6.414110  -13.055300   70.882900
  C      4.424590  -12.620600   70.139300
  H      4.005160  -11.877700   69.551300
  H      4.032680  -12.434000   71.167500
  C      3.955070  -13.940600   69.584900
  H      4.439450  -14.172500   68.593200
  H      2.939410  -13.882700   69.208600
  H      4.071660  -14.762900   70.237400
  H      3.227000   -8.972860   65.654000
  H      9.045040  -14.799300   67.329700

 Total Charge           Charge          ....    0
 Multiplicity           Mult            ....    1
 Number of Electrons    NEL             ....  134
 Basis Dimension        Dim             ....  322

ORBITAL ENERGIES
----------------

  NO   OCC          E(Eh)            E(eV)
   0   2.0000     -88.965915     -2420.8856
   1   2.0000     -88.964508     -2420.8473
   2   2.0000     -10.331329      -281.1298
   3   2.0000     -10.325641      -280.9750
   4   2.0000     -10.322541      -280.8906
   5   2.0000     -10.320088      -280.8239
   6   2.0000     -10.307237      -280.4742
   7   2.0000     -10.305395      -280.4241
   8   2.0000     -10.301744      -280.3247
   9   2.0000     -10.294335      -280.1231
  10   2.0000     -10.292825      -280.0820
  11   2.0000     -10.284576      -279.8576
  12   2.0000     -10.282517      -279.8015
  13   2.0000     -10.276305      -279.6325
  14   2.0000     -10.270312      -279.4694
  15   2.0000     -10.265659      -279.3428
  16   2.0000      -8.080581      -219.8838
  17   2.0000      -8.080538      -219.8826
  18   2.0000      -6.039008      -164.3298
  19   2.0000      -6.038847      -164.3254
  20   2.0000      -6.034876      -164.2173
  21   2.0000      -6.034688      -164.2122
  22   2.0000      -6.031712      -164.1312
  23   2.0000      -6.031514      -164.1258
  24   2.0000      -1.012009       -27.5382
  25   2.0000      -0.991316       -26.9751
  26   2.0000      -0.906717       -24.6730
  27   2.0000      -0.905594       -24.6425
  28   2.0000      -0.869235       -23.6531
  29   2.0000      -0.848453       -23.0876
  30   2.0000      -0.843181       -22.9441
  31   2.0000      -0.813689       -22.1416
  32   2.0000      -0.781830       -21.2747
  33   2.0000      -0.773837       -21.0572
  34   2.0000      -0.707931       -19.2638
  35   2.0000      -0.705352       -19.1936
  36   2.0000      -0.686653       -18.6848
  37   2.0000      -0.663133       -18.0448
  38   2.0000      -0.644148       -17.5282
  39   2.0000      -0.613853       -16.7038
  40   2.0000      -0.585652       -15.9364
  41   2.0000      -0.572806       -15.5869
  42   2.0000      -0.560414       -15.2496
  43   2.0000      -0.548266       -14.9191
  44   2.0000      -0.545405       -14.8412
  45   2.0000      -0.537228       -14.6187
  46   2.0000      -0.516193       -14.0463
  47   2.0000      -0.511922       -13.9301
  48   2.0000      -0.501681       -13.6514
  49   2.0000      -0.492026       -13.3887
  50   2.0000      -0.489526       -13.3207
  51   2.0000      -0.479179       -13.0391
  52   2.0000      -0.472627       -12.8608
  53   2.0000      -0.469102       -12.7649
  54   2.0000      -0.462908       -12.5964
  55   2.0000      -0.441378       -12.0105
  56   2.0000      -0.438480       -11.9317
  57   2.0000      -0.432225       -11.7614
  58   2.0000      -0.429309       -11.6821
  59   2.0000      -0.426857       -11.6154
  60   2.0000      -0.417428       -11.3588
  61   2.0000      -0.414053       -11.2669
  62   2.0000      -0.406489       -11.0611
  63   2.0000      -0.340682        -9.2704
  64   2.0000      -0.334452        -9.1009
  65   2.0000      -0.329573        -8.9681
  66   2.0000      -0.304497        -8.2858
  67   0.0000       0.034562         0.9405
  68   0.0000       0.063092         1.7168
  69   0.0000       0.113278         3.0825
  70   0.0000       0.126437         3.4405
  71   0.0000       0.135698         3.6925

MULLIKEN ATOMIC CHARGES
-----------------------
   0 S :    0.102000
   1 C :   -0.137665
   2 C :   -0.049114
   3 C :    0.011271
   4 C :   -0.162361
   5 H :    0.019330
   6 C :   -0.000785
   7 H :    0.042873
   8 H :    0.043576
   9 C :   -0.020108
  10 H :    0.025949
  11 H :    0.015898
  12 C :   -0.056530
  13 H :    0.035723
  14 H :    0.034209
  15 H :    0.025226
  16 S :    0.118892
  17 C :   -0.125843
  18 C :   -0.031629
  19 C :   -0.080935
  20 C :   -0.164691
  21 H :    0.023486
  22 C :    0.120710
  23 H :    0.014607
  24 H :    0.002790
  25 C :   -0.023478
  26 H :    0.012761
  27 H :    0.030570
  28 C :   -0.051083
  29 H :    0.035376
  30 H :    0.023024
  31 H :    0.026169
  32 H :    0.049800
  33 H :    0.089983
Sum of atomic charges:   -0.0000000

LOEWDIN ATOMIC CHARGES
----------------------
   0 S :    0.407754
   1 C :   -0.178651
   2 C :   -0.068969
   3 C :   -0.073022
   4 C :   -0.206490
   5 H :    0.031999
   6 C :   -0.030196
   7 H :    0.035116
   8 H :    0.036076
   9 C :   -0.031949
  10 H :    0.025229
  11 H :    0.013412
  12 C :   -0.066704
  13 H :    0.026736
  14 H :    0.025179
  15 H :    0.022883
  16 S :    0.442476
  17 C :   -0.202542
  18 C :   -0.079522
  19 C :   -0.054457
  20 C :   -0.225939
  21 H :    0.033847
  22 C :   -0.023560
  23 H :    0.027990
  24 H :    0.022128
  25 C :   -0.036126
  26 H :    0.016192
  27 H :    0.031270
  28 C :   -0.069295
  29 H :    0.034413
  30 H :    0.027251
  31 H :    0.015802
  32 H :    0.025689
  33 H :    0.045977

  Mayer bond orders larger than 0.100000
B(  0-S ,  1-C ) :   1.1524 B(  0-S ,  4-C ) :   1.1627 B(  1-C ,  2-C ) :   1.5767
B(  1-C ,  4-C ) :   0.1085 B(  1-C , 32-H ) :   0.9782 B(  2-C ,  3-C ) :   1.2663
B(  2-C ,  6-C ) :   0.9922 B(  3-C ,  4-C ) :   1.5776 B(  3-C ,  5-H ) :   0.9877
B(  4-C , 20-C ) :   1.0117 B(  6-C ,  7-H ) :   0.9542 B(  6-C ,  8-H ) :   0.9505
B(  6-C ,  9-C ) :   1.0638 B(  9-C , 10-H ) :   0.9562 B(  9-C , 11-H ) :   0.9590
B(  9-C , 12-C ) :   1.0751 B( 12-C , 13-H ) :   0.9710 B( 12-C , 14-H ) :   0.9740
B( 12-C , 15-H ) :   0.9765 B( 16-S , 17-C ) :   1.1959 B( 16-S , 20-C ) :   1.1669
B( 17-C , 18-C ) :   1.5492 B( 17-C , 20-C ) :   0.1018 B( 17-C , 33-H ) :   0.9575
B( 18-C , 19-C ) :   1.2886 B( 18-C , 21-H ) :   0.9941 B( 19-C , 20-C ) :   1.5541
B( 19-C , 22-C ) :   1.0276 B( 22-C , 23-H ) :   0.9236 B( 22-C , 24-H ) :   0.9365
B( 22-C , 25-C ) :   1.0795 B( 25-C , 26-H ) :   0.9479 B( 25-C , 27-H ) :   0.9508
B( 25-C , 28-C ) :   1.0926 B( 28-C , 29-H ) :   0.9654 B( 28-C , 30-H ) :   0.9715
B( 28-C , 31-H ) :   0.9790

Dispersion correction           -0.015820753
FINAL SINGLE POINT ENERGY     -1339.883917655228

DIPOLE MOMENT
-------------
                                X             Y             Z
Electronic contribution:      4.85928     -12.52497     -11.52106
Nuclear contribution   :     -4.85137      12.85879      11.87811
                        -----------------------------------------
Total Dipole Moment    :      0.00791       0.33382       0.35705
                        -----------------------------------------
Magnitude (a.u.)       :      0.48886
Magnitude (Debye)      :      1.24258

Rotational constants in cm-1:     0.021221     0.008533     0.007613
Rotational constants in MHz :   636.192879   255.811769   228.235561

                             ****ORCA TERMINATED NORMALLY****
TOTAL RUN TIME: 0 days 0 hours 0 minutes 30 seconds 974 msec
