                         Program Version 4.2.1 -  RELEASE  -
|  1> ! wB97X-D3 SP def2-SVP
|  2> %pal
|  3> nprocs 16
|  4> end
|  5>
|  6> * xyz 0 1
|  7> S 	 -0.17484 	 -26.6262 	 82.8409
|  8> C 	 -0.280671 	 -27.8731 	 81.5449
|  9> C 	 0.310154 	 -29.073 	 81.9909
| 10> C 	 0.966616 	 -28.8601 	 83.2749
| 11> C 	 0.804574 	 -27.5848 	 83.8076
| 12> H 	 1.60602 	 -29.5995 	 83.7413
| 13> C 	 0.224806 	 -30.413 	 81.2699
| 14> H 	 1.00149 	 -31.046 	 81.5402
| 15> H 	 0.246323 	 -30.2762 	 80.1595
| 16> C 	 -0.980832 	 -31.3105 	 81.7154
| 17> H 	 -0.915166 	 -32.2837 	 81.204
| 18> H 	 -0.900907 	 -31.5937 	 82.752
| 19> C 	 -2.36712 	 -30.6629 	 81.5191
| 20> H 	 -2.771 	 -30.3221 	 82.4445
| 21> H 	 -2.32998 	 -29.8217 	 80.8013
| 22> H 	 -3.13294 	 -31.3619 	 81.0159
| 23> S 	 2.29413 	 -25.6405 	 85.0579
| 24> C 	 2.95872 	 -26.0697 	 86.6637
| 25> C 	 2.1334 	 -27.014 	 87.255
| 26> C 	 1.24426 	 -27.665 	 86.311
| 27> C 	 1.32707 	 -27.1385 	 85.0569
| 28> H 	 2.13401 	 -27.205 	 88.3023
| 29> C 	 0.506096 	 -28.8962 	 86.6528
| 30> H 	 0.714874 	 -29.3543 	 87.631
| 31> H 	 0.758684 	 -29.6791 	 85.916
| 32> C 	 -0.967598 	 -28.8224 	 86.5925
| 33> H 	 -1.53107 	 -29.7684 	 86.8088
| 34> H 	 -1.16043 	 -28.5694 	 85.5432
| 35> C 	 -1.6451 	 -27.769 	 87.3988
| 36> H 	 -2.69967 	 -27.8223 	 87.5521
| 37> H 	 -1.36184 	 -26.8317 	 86.9222
| 38> H 	 -1.18724 	 -27.7736 	 88.3258
| 39> H 	 -0.915269 	 -27.839 	 80.6348
| 40> H 	 3.64391 	 -25.4814 	 87.1857
| 41> *
| 42>
| 43>                          ****END OF INPUT****

CARTESIAN COORDINATES (ANGSTROEM)
---------------------------------
  S     -0.174840  -26.626200   82.840900
  C     -0.280671  -27.873100   81.544900
  C      0.310154  -29.073000   81.990900
  C      0.966616  -28.860100   83.274900
  C      0.804574  -27.584800   83.807600
  H      1.606020  -29.599500   83.741300
  C      0.224806  -30.413000   81.269900
  H      1.001490  -31.046000   81.540200
  H      0.246323  -30.276200   80.159500
  C     -0.980832  -31.310500   81.715400
  H     -0.915166  -32.283700   81.204000
  H     -0.900907  -31.593700   82.752000
  C     -2.367120  -30.662900   81.519100
  H     -2.771000  -30.322100   82.444500
  H     -2.329980  -29.821700   80.801300
  H     -3.132940  -31.361900   81.015900
  S      2.294130  -25.640500   85.057900
  C      2.958720  -26.069700   86.663700
  C      2.133400  -27.014000   87.255000
  C      1.244260  -27.665000   86.311000
  C      1.327070  -27.138500   85.056900
  H      2.134010  -27.205000   88.302300
  C      0.506096  -28.896200   86.652800
  H      0.714874  -29.354300   87.631000
  H      0.758684  -29.679100   85.916000
  C     -0.967598  -28.822400   86.592500
  H     -1.531070  -29.768400   86.808800
  H     -1.160430  -28.569400   85.543200
  C     -1.645100  -27.769000   87.398800
  H     -2.699670  -27.822300   87.552100
  H     -1.361840  -26.831700   86.922200
  H     -1.187240  -27.773600   88.325800
  H     -0.915269  -27.839000   80.634800
  H      3.643910  -25.481400   87.185700

 Total Charge           Charge          ....    0
 Multiplicity           Mult            ....    1
 Number of Electrons    NEL             ....  134
 Basis Dimension        Dim             ....  322

ORBITAL ENERGIES
----------------

  NO   OCC          E(Eh)            E(eV)
   0   2.0000     -88.969745     -2420.9898
   1   2.0000     -88.964268     -2420.8408
   2   2.0000     -10.327534      -281.0265
   3   2.0000     -10.326830      -281.0073
   4   2.0000     -10.322157      -280.8802
   5   2.0000     -10.320954      -280.8474
   6   2.0000     -10.310576      -280.5650
   7   2.0000     -10.304977      -280.4127
   8   2.0000     -10.299113      -280.2531
   9   2.0000     -10.297075      -280.1977
  10   2.0000     -10.296658      -280.1863
  11   2.0000     -10.290017      -280.0056
  12   2.0000     -10.287572      -279.9391
  13   2.0000     -10.280190      -279.7382
  14   2.0000     -10.274417      -279.5811
  15   2.0000     -10.257990      -279.1341
  16   2.0000      -8.084822      -219.9992
  17   2.0000      -8.078338      -219.8228
  18   2.0000      -6.043337      -164.4476
  19   2.0000      -6.039166      -164.3341
  20   2.0000      -6.037034      -164.2760
  21   2.0000      -6.035664      -164.2388
  22   2.0000      -6.033176      -164.1711
  23   2.0000      -6.028679      -164.0487
  24   2.0000      -1.011394       -27.5214
  25   2.0000      -0.982063       -26.7233
  26   2.0000      -0.921464       -25.0743
  27   2.0000      -0.911556       -24.8047
  28   2.0000      -0.869483       -23.6598
  29   2.0000      -0.851939       -23.1824
  30   2.0000      -0.841903       -22.9094
  31   2.0000      -0.811701       -22.0875
  32   2.0000      -0.788746       -21.4629
  33   2.0000      -0.781244       -21.2587
  34   2.0000      -0.712715       -19.3940
  35   2.0000      -0.697840       -18.9892
  36   2.0000      -0.683221       -18.5914
  37   2.0000      -0.670596       -18.2478
  38   2.0000      -0.639336       -17.3972
  39   2.0000      -0.617387       -16.7999
  40   2.0000      -0.600332       -16.3359
  41   2.0000      -0.567759       -15.4495
  42   2.0000      -0.561547       -15.2805
  43   2.0000      -0.556983       -15.1563
  44   2.0000      -0.551333       -15.0025
  45   2.0000      -0.539076       -14.6690
  46   2.0000      -0.520094       -14.1525
  47   2.0000      -0.517681       -14.0868
  48   2.0000      -0.509603       -13.8670
  49   2.0000      -0.491624       -13.3778
  50   2.0000      -0.488899       -13.3036
  51   2.0000      -0.481302       -13.0969
  52   2.0000      -0.472520       -12.8579
  53   2.0000      -0.466332       -12.6895
  54   2.0000      -0.462175       -12.5764
  55   2.0000      -0.449975       -12.2445
  56   2.0000      -0.445330       -12.1180
  57   2.0000      -0.434448       -11.8219
  58   2.0000      -0.431778       -11.7493
  59   2.0000      -0.424875       -11.5614
  60   2.0000      -0.416389       -11.3305
  61   2.0000      -0.410121       -11.1600
  62   2.0000      -0.401153       -10.9159
  63   2.0000      -0.345502        -9.4016
  64   2.0000      -0.330844        -9.0027
  65   2.0000      -0.327723        -8.9178
  66   2.0000      -0.294518        -8.0142
  67   0.0000       0.024826         0.6755
  68   0.0000       0.057971         1.5775
  69   0.0000       0.096005         2.6124
  70   0.0000       0.118939         3.2365
  71   0.0000       0.126215         3.4345

MULLIKEN ATOMIC CHARGES
-----------------------
   0 S :    0.117919
   1 C :   -0.139447
   2 C :   -0.090865
   3 C :    0.012232
   4 C :   -0.140872
   5 H :    0.018224
   6 C :    0.083591
   7 H :    0.005674
   8 H :    0.044391
   9 C :   -0.081452
  10 H :    0.035081
  11 H :    0.024540
  12 C :   -0.069035
  13 H :    0.040957
  14 H :    0.018953
  15 H :    0.039304
  16 S :    0.092787
  17 C :   -0.062384
  18 C :   -0.020938
  19 C :   -0.014666
  20 C :   -0.165022
  21 H :    0.016078
  22 C :    0.089282
  23 H :    0.016868
  24 H :    0.029572
  25 C :   -0.124474
  26 H :    0.029284
  27 H :    0.027772
  28 C :    0.005463
  29 H :    0.033436
  30 H :    0.028460
  31 H :   -0.008251
  32 H :    0.066521
  33 H :    0.041018
Sum of atomic charges:    0.0000000

LOEWDIN ATOMIC CHARGES
----------------------
   0 S :    0.423358
   1 C :   -0.198932
   2 C :   -0.051996
   3 C :   -0.068557
   4 C :   -0.217705
   5 H :    0.028899
   6 C :   -0.027275
   7 H :    0.022805
   8 H :    0.037897
   9 C :   -0.039916
  10 H :    0.027210
  11 H :    0.022323
  12 C :   -0.074598
  13 H :    0.023426
  14 H :    0.021565
  15 H :    0.034878
  16 S :    0.370423
  17 C :   -0.154082
  18 C :   -0.055492
  19 C :   -0.050928
  20 C :   -0.184680
  21 H :    0.027720
  22 C :   -0.037767
  23 H :    0.028977
  24 H :    0.040798
  25 C :   -0.049882
  26 H :    0.026412
  27 H :    0.020839
  28 C :   -0.060120
  29 H :    0.024875
  30 H :    0.027892
  31 H :    0.010321
  32 H :    0.034433
  33 H :    0.016880

  Mayer bond orders larger than 0.100000
B(  0-S ,  1-C ) :   1.1249 B(  0-S ,  4-C ) :   1.1695 B(  1-C ,  2-C ) :   1.6030
B(  1-C , 32-H ) :   0.9622 B(  2-C ,  3-C ) :   1.2449 B(  2-C ,  6-C ) :   1.0381
B(  3-C ,  4-C ) :   1.5531 B(  3-C ,  5-H ) :   0.9907 B(  4-C , 20-C ) :   1.0464
B(  6-C ,  7-H ) :   0.9334 B(  6-C ,  8-H ) :   0.9456 B(  6-C ,  9-C ) :   1.0724
B(  9-C , 10-H ) :   0.9610 B(  9-C , 11-H ) :   0.9605 B(  9-C , 12-C ) :   1.0576
B( 12-C , 13-H ) :   0.9788 B( 12-C , 14-H ) :   0.9797 B( 12-C , 15-H ) :   0.9758
B( 16-S , 17-C ) :   1.1339 B( 16-S , 20-C ) :   1.1076 B( 17-C , 18-C ) :   1.6286
B( 17-C , 20-C ) :   0.1017 B( 17-C , 33-H ) :   0.9768 B( 18-C , 19-C ) :   1.2016
B( 18-C , 21-H ) :   0.9920 B( 19-C , 20-C ) :   1.6166 B( 19-C , 22-C ) :   1.0472
B( 22-C , 23-H ) :   0.9336 B( 22-C , 24-H ) :   0.9280 B( 22-C , 25-C ) :   1.0708
B( 25-C , 26-H ) :   0.9555 B( 25-C , 27-H ) :   0.9579 B( 25-C , 28-C ) :   1.0798
B( 28-C , 29-H ) :   0.9741 B( 28-C , 30-H ) :   0.9674 B( 28-C , 31-H ) :   0.9706

Dispersion correction           -0.015738406
FINAL SINGLE POINT ENERGY     -1339.857776537896

DIPOLE MOMENT
-------------
                                X             Y             Z
Electronic contribution:     15.57256      21.39738      -1.55368
Nuclear contribution   :    -15.70551     -22.07561       1.78282
                        -----------------------------------------
Total Dipole Moment    :     -0.13295      -0.67823       0.22915
                        -----------------------------------------
Magnitude (a.u.)       :      0.72813
Magnitude (Debye)      :      1.85077

Rotational constants in cm-1:     0.021614     0.009096     0.007622
Rotational constants in MHz :   647.984232   272.684872   228.510462

                             ****ORCA TERMINATED NORMALLY****
TOTAL RUN TIME: 0 days 0 hours 0 minutes 34 seconds 717 msec
