                         Program Version 4.2.1 -  RELEASE  -
|  1> ! wB97X-D3 SP def2-SVP
|  2> %pal
|  3> nprocs 16
|  4> end
|  5>
|  6> * xyz 0 1
|  7> S 	 -42.299 	 25.3157 	 92.0391
|  8> C 	 -41.6352 	 23.7881 	 92.5566
|  9> C 	 -40.7518 	 23.2975 	 91.6535
| 10> C 	 -40.545 	 24.1947 	 90.5765
| 11> C 	 -41.3875 	 25.2774 	 90.5863
| 12> H 	 -39.8979 	 23.9654 	 89.7424
| 13> C 	 -40.1468 	 21.981 	 91.7671
| 14> H 	 -39.6023 	 21.8129 	 92.6569
| 15> H 	 -39.3762 	 21.814 	 90.9968
| 16> C 	 -41.1304 	 20.7941 	 91.6388
| 17> H 	 -40.6483 	 19.8331 	 91.9354
| 18> H 	 -41.971 	 20.978 	 92.376
| 19> C 	 -41.561 	 20.4258 	 90.1879
| 20> H 	 -41.806 	 21.3517 	 89.6011
| 21> H 	 -40.6265 	 20.0957 	 89.7307
| 22> H 	 -42.3175 	 19.6731 	 90.0267
| 23> S 	 -43.1072 	 26.8611 	 89.22
| 24> C 	 -42.5172 	 28.0895 	 88.1492
| 25> C 	 -41.159 	 28.109 	 88.0456
| 26> C 	 -40.5841 	 27.0202 	 88.7659
| 27> C 	 -41.4957 	 26.3217 	 89.5872
| 28> H 	 -40.6167 	 28.7984 	 87.4764
| 29> C 	 -39.1099 	 26.8193 	 88.6117
| 30> H 	 -38.71 	 26.1646 	 89.4245
| 31> H 	 -38.5996 	 27.8133 	 88.8146
| 32> C 	 -38.654 	 26.4695 	 87.1432
| 33> H 	 -37.522 	 26.3066 	 87.0721
| 34> H 	 -38.8256 	 27.3764 	 86.6721
| 35> C 	 -39.3596 	 25.2643 	 86.4794
| 36> H 	 -39.1786 	 25.4164 	 85.4238
| 37> H 	 -40.4386 	 25.2564 	 86.5329
| 38> H 	 -38.917 	 24.3762 	 86.8644
| 39> H 	 -42.0995 	 23.2819 	 93.3744
| 40> H 	 -43.0869 	 28.632 	 87.3855
| 41> *
| 42>
| 43>                          ****END OF INPUT****

CARTESIAN COORDINATES (ANGSTROEM)
---------------------------------
  S    -42.299000   25.315700   92.039100
  C    -41.635200   23.788100   92.556600
  C    -40.751800   23.297500   91.653500
  C    -40.545000   24.194700   90.576500
  C    -41.387500   25.277400   90.586300
  H    -39.897900   23.965400   89.742400
  C    -40.146800   21.981000   91.767100
  H    -39.602300   21.812900   92.656900
  H    -39.376200   21.814000   90.996800
  C    -41.130400   20.794100   91.638800
  H    -40.648300   19.833100   91.935400
  H    -41.971000   20.978000   92.376000
  C    -41.561000   20.425800   90.187900
  H    -41.806000   21.351700   89.601100
  H    -40.626500   20.095700   89.730700
  H    -42.317500   19.673100   90.026700
  S    -43.107200   26.861100   89.220000
  C    -42.517200   28.089500   88.149200
  C    -41.159000   28.109000   88.045600
  C    -40.584100   27.020200   88.765900
  C    -41.495700   26.321700   89.587200
  H    -40.616700   28.798400   87.476400
  C    -39.109900   26.819300   88.611700
  H    -38.710000   26.164600   89.424500
  H    -38.599600   27.813300   88.814600
  C    -38.654000   26.469500   87.143200
  H    -37.522000   26.306600   87.072100
  H    -38.825600   27.376400   86.672100
  C    -39.359600   25.264300   86.479400
  H    -39.178600   25.416400   85.423800
  H    -40.438600   25.256400   86.532900
  H    -38.917000   24.376200   86.864400
  H    -42.099500   23.281900   93.374400
  H    -43.086900   28.632000   87.385500

 Total Charge           Charge          ....    0
 Multiplicity           Mult            ....    1
 Number of Electrons    NEL             ....  134
 Basis Dimension        Dim             ....  322

ORBITAL ENERGIES
----------------

  NO   OCC          E(Eh)            E(eV)
   0   2.0000     -88.966738     -2420.9080
   1   2.0000     -88.964457     -2420.8459
   2   2.0000     -10.328750      -281.0596
   3   2.0000     -10.327213      -281.0178
   4   2.0000     -10.315375      -280.6956
   5   2.0000     -10.306584      -280.4564
   6   2.0000     -10.304293      -280.3941
   7   2.0000     -10.295504      -280.1549
   8   2.0000     -10.295010      -280.1415
   9   2.0000     -10.294250      -280.1208
  10   2.0000     -10.291510      -280.0462
  11   2.0000     -10.289367      -279.9879
  12   2.0000     -10.288656      -279.9686
  13   2.0000     -10.287033      -279.9244
  14   2.0000     -10.279627      -279.7229
  15   2.0000     -10.273276      -279.5501
  16   2.0000      -8.081933      -219.9206
  17   2.0000      -8.080190      -219.8732
  18   2.0000      -6.040412      -164.3680
  19   2.0000      -6.038616      -164.3191
  20   2.0000      -6.036318      -164.2566
  21   2.0000      -6.034518      -164.2076
  22   2.0000      -6.032751      -164.1595
  23   2.0000      -6.031017      -164.1123
  24   2.0000      -1.015082       -27.6218
  25   2.0000      -0.992288       -27.0015
  26   2.0000      -0.917428       -24.9645
  27   2.0000      -0.905834       -24.6490
  28   2.0000      -0.872034       -23.7293
  29   2.0000      -0.850909       -23.1544
  30   2.0000      -0.846418       -23.0322
  31   2.0000      -0.818759       -22.2796
  32   2.0000      -0.785494       -21.3744
  33   2.0000      -0.773665       -21.0525
  34   2.0000      -0.709654       -19.3107
  35   2.0000      -0.701483       -19.0883
  36   2.0000      -0.690078       -18.7780
  37   2.0000      -0.665698       -18.1146
  38   2.0000      -0.643705       -17.5161
  39   2.0000      -0.621021       -16.8988
  40   2.0000      -0.592329       -16.1181
  41   2.0000      -0.580341       -15.7919
  42   2.0000      -0.554700       -15.0941
  43   2.0000      -0.551920       -15.0185
  44   2.0000      -0.542776       -14.7697
  45   2.0000      -0.540898       -14.7186
  46   2.0000      -0.517803       -14.0901
  47   2.0000      -0.509883       -13.8746
  48   2.0000      -0.504713       -13.7339
  49   2.0000      -0.499460       -13.5910
  50   2.0000      -0.496729       -13.5167
  51   2.0000      -0.477444       -12.9919
  52   2.0000      -0.470855       -12.8126
  53   2.0000      -0.466536       -12.6951
  54   2.0000      -0.458500       -12.4764
  55   2.0000      -0.452345       -12.3089
  56   2.0000      -0.448154       -12.1949
  57   2.0000      -0.435933       -11.8623
  58   2.0000      -0.424774       -11.5587
  59   2.0000      -0.422092       -11.4857
  60   2.0000      -0.417880       -11.3711
  61   2.0000      -0.416148       -11.3240
  62   2.0000      -0.413265       -11.2455
  63   2.0000      -0.355137        -9.6638
  64   2.0000      -0.332896        -9.0586
  65   2.0000      -0.329908        -8.9772
  66   2.0000      -0.286730        -7.8023
  67   0.0000       0.027928         0.7600
  68   0.0000       0.073872         2.0102
  69   0.0000       0.114897         3.1265
  70   0.0000       0.116438         3.1684
  71   0.0000       0.126987         3.4555

MULLIKEN ATOMIC CHARGES
-----------------------
   0 S :    0.110408
   1 C :   -0.135347
   2 C :   -0.038001
   3 C :    0.011116
   4 C :   -0.120148
   5 H :    0.002222
   6 C :    0.079549
   7 H :    0.027226
   8 H :    0.006467
   9 C :   -0.110442
  10 H :    0.030670
  11 H :    0.034735
  12 C :   -0.056793
  13 H :    0.037985
  14 H :    0.018062
  15 H :    0.046112
  16 S :    0.107584
  17 C :   -0.075645
  18 C :   -0.031940
  19 C :   -0.035621
  20 C :   -0.147451
  21 H :    0.003068
  22 C :    0.017052
  23 H :    0.029636
  24 H :    0.035693
  25 C :   -0.090694
  26 H :    0.043231
  27 H :    0.007354
  28 C :   -0.021159
  29 H :    0.028376
  30 H :    0.042092
  31 H :    0.035655
  32 H :    0.045404
  33 H :    0.063544
Sum of atomic charges:    0.0000000

LOEWDIN ATOMIC CHARGES
----------------------
   0 S :    0.421973
   1 C :   -0.190257
   2 C :   -0.065214
   3 C :   -0.067238
   4 C :   -0.200553
   5 H :    0.028656
   6 C :   -0.033387
   7 H :    0.031893
   8 H :    0.029543
   9 C :   -0.040828
  10 H :    0.025865
  11 H :    0.022278
  12 C :   -0.071817
  13 H :    0.028420
  14 H :    0.023338
  15 H :    0.025752
  16 S :    0.418986
  17 C :   -0.192053
  18 C :   -0.062913
  19 C :   -0.054592
  20 C :   -0.203148
  21 H :    0.023632
  22 C :   -0.045042
  23 H :    0.027302
  24 H :    0.038508
  25 C :   -0.036642
  26 H :    0.035179
  27 H :    0.007651
  28 C :   -0.061759
  29 H :    0.029504
  30 H :    0.027141
  31 H :    0.022023
  32 H :    0.021581
  33 H :    0.036218

  Mayer bond orders larger than 0.100000
B(  0-S ,  1-C ) :   1.1351 B(  0-S ,  4-C ) :   1.1718 B(  1-C ,  2-C ) :   1.5898
B(  1-C , 32-H ) :   0.9740 B(  2-C ,  3-C ) :   1.2580 B(  2-C ,  6-C ) :   1.0371
B(  3-C ,  4-C ) :   1.5467 B(  3-C ,  5-H ) :   1.0011 B(  4-C , 20-C ) :   1.0442
B(  6-C ,  7-H ) :   0.9298 B(  6-C ,  8-H ) :   0.9380 B(  6-C ,  9-C ) :   1.0712
B(  9-C , 10-H ) :   0.9597 B(  9-C , 11-H ) :   0.9586 B(  9-C , 12-C ) :   1.0545
B( 12-C , 13-H ) :   0.9802 B( 12-C , 14-H ) :   0.9728 B( 12-C , 15-H ) :   0.9775
B( 16-S , 17-C ) :   1.1588 B( 16-S , 20-C ) :   1.1447 B( 17-C , 18-C ) :   1.5993
B( 17-C , 33-H ) :   0.9586 B( 18-C , 19-C ) :   1.2506 B( 18-C , 21-H ) :   0.9996
B( 19-C , 20-C ) :   1.5589 B( 19-C , 22-C ) :   1.0536 B( 22-C , 23-H ) :   0.9409
B( 22-C , 24-H ) :   0.9393 B( 22-C , 25-C ) :   1.0457 B( 25-C , 26-H ) :   0.9572
B( 25-C , 27-H ) :   0.9591 B( 25-C , 28-C ) :   1.0749 B( 28-C , 29-H ) :   0.9722
B( 28-C , 30-H ) :   0.9733 B( 28-C , 31-H ) :   0.9771

Dispersion correction           -0.014738484
FINAL SINGLE POINT ENERGY     -1339.875359535665

DIPOLE MOMENT
-------------
                                X             Y             Z
Electronic contribution:    -15.74501      17.60611      10.99243
Nuclear contribution   :     16.21579     -17.86363     -11.41102
                        -----------------------------------------
Total Dipole Moment    :      0.47079      -0.25752      -0.41859
                        -----------------------------------------
Magnitude (a.u.)       :      0.68057
Magnitude (Debye)      :      1.72987

Rotational constants in cm-1:     0.019780     0.008886     0.007155
Rotational constants in MHz :   593.001426   266.409525   214.494383

                             ****ORCA TERMINATED NORMALLY****
TOTAL RUN TIME: 0 days 0 hours 0 minutes 30 seconds 868 msec
