                         Program Version 4.2.1 -  RELEASE  -
|  1> ! wB97X-D3 SP def2-SVP
|  2> %pal
|  3> nprocs 16
|  4> end
|  5>
|  6> * xyz 0 1
|  7> S 	 -27.7627 	 -8.44422 	 88.071
|  8> C 	 -29.4263 	 -8.31658 	 87.5228
|  9> C 	 -29.8948 	 -7.10293 	 87.8451
| 10> C 	 -28.9836 	 -6.25086 	 88.5481
| 11> C 	 -27.761 	 -6.81135 	 88.7664
| 12> H 	 -29.3133 	 -5.21749 	 88.8079
| 13> C 	 -31.3265 	 -6.60706 	 87.498
| 14> H 	 -31.4699 	 -5.70946 	 87.9833
| 15> H 	 -31.997 	 -7.34949 	 87.8669
| 16> C 	 -31.6222 	 -6.40441 	 86.0103
| 17> H 	 -31.5452 	 -7.33899 	 85.5034
| 18> H 	 -32.7567 	 -6.31433 	 85.8205
| 19> C 	 -30.8763 	 -5.28974 	 85.2997
| 20> H 	 -31.0711 	 -5.39568 	 84.2198
| 21> H 	 -31.3514 	 -4.35062 	 85.6273
| 22> H 	 -29.8085 	 -5.20626 	 85.5272
| 23> S 	 -25.4703 	 -7.36241 	 90.2249
| 24> C 	 -24.3638 	 -6.0915 	 90.7359
| 25> C 	 -24.923 	 -4.87099 	 90.5277
| 26> C 	 -26.2161 	 -4.91089 	 89.8401
| 27> C 	 -26.6121 	 -6.21367 	 89.4678
| 28> H 	 -24.3035 	 -4.03628 	 90.8898
| 29> C 	 -26.9245 	 -3.59819 	 89.5606
| 30> H 	 -27.5882 	 -3.72118 	 88.7924
| 31> H 	 -26.2338 	 -2.87793 	 89.2275
| 32> C 	 -27.7585 	 -3.09862 	 90.773
| 33> H 	 -27.0928 	 -2.82393 	 91.5971
| 34> H 	 -28.3584 	 -3.9309 	 91.1855
| 35> C 	 -28.7342 	 -1.86002 	 90.5591
| 36> H 	 -28.7635 	 -1.33208 	 91.4602
| 37> H 	 -29.7297 	 -2.12844 	 90.1889
| 38> H 	 -28.1358 	 -1.36752 	 89.8434
| 39> H 	 -30.1027 	 -9.02245 	 87.0438
| 40> H 	 -23.3594 	 -6.2057 	 91.1794
| 41> *
| 42>
| 43>                          ****END OF INPUT****

CARTESIAN COORDINATES (ANGSTROEM)
---------------------------------
  S    -27.762700   -8.444220   88.071000
  C    -29.426300   -8.316580   87.522800
  C    -29.894800   -7.102930   87.845100
  C    -28.983600   -6.250860   88.548100
  C    -27.761000   -6.811350   88.766400
  H    -29.313300   -5.217490   88.807900
  C    -31.326500   -6.607060   87.498000
  H    -31.469900   -5.709460   87.983300
  H    -31.997000   -7.349490   87.866900
  C    -31.622200   -6.404410   86.010300
  H    -31.545200   -7.338990   85.503400
  H    -32.756700   -6.314330   85.820500
  C    -30.876300   -5.289740   85.299700
  H    -31.071100   -5.395680   84.219800
  H    -31.351400   -4.350620   85.627300
  H    -29.808500   -5.206260   85.527200
  S    -25.470300   -7.362410   90.224900
  C    -24.363800   -6.091500   90.735900
  C    -24.923000   -4.870990   90.527700
  C    -26.216100   -4.910890   89.840100
  C    -26.612100   -6.213670   89.467800
  H    -24.303500   -4.036280   90.889800
  C    -26.924500   -3.598190   89.560600
  H    -27.588200   -3.721180   88.792400
  H    -26.233800   -2.877930   89.227500
  C    -27.758500   -3.098620   90.773000
  H    -27.092800   -2.823930   91.597100
  H    -28.358400   -3.930900   91.185500
  C    -28.734200   -1.860020   90.559100
  H    -28.763500   -1.332080   91.460200
  H    -29.729700   -2.128440   90.188900
  H    -28.135800   -1.367520   89.843400
  H    -30.102700   -9.022450   87.043800
  H    -23.359400   -6.205700   91.179400

 Total Charge           Charge          ....    0
 Multiplicity           Mult            ....    1
 Number of Electrons    NEL             ....  134
 Basis Dimension        Dim             ....  322

ORBITAL ENERGIES
----------------

  NO   OCC          E(Eh)            E(eV)
   0   2.0000     -88.969009     -2420.9698
   1   2.0000     -88.962519     -2420.7932
   2   2.0000     -10.339486      -281.3517
   3   2.0000     -10.338204      -281.3168
   4   2.0000     -10.319114      -280.7974
   5   2.0000     -10.315107      -280.6883
   6   2.0000     -10.312406      -280.6148
   7   2.0000     -10.297115      -280.1988
   8   2.0000     -10.296916      -280.1933
   9   2.0000     -10.295272      -280.1486
  10   2.0000     -10.289584      -279.9938
  11   2.0000     -10.288427      -279.9623
  12   2.0000     -10.285816      -279.8913
  13   2.0000     -10.285219      -279.8750
  14   2.0000     -10.279938      -279.7313
  15   2.0000     -10.276238      -279.6307
  16   2.0000      -8.082969      -219.9488
  17   2.0000      -8.076751      -219.7796
  18   2.0000      -6.041814      -164.4061
  19   2.0000      -6.037583      -164.2910
  20   2.0000      -6.035470      -164.2335
  21   2.0000      -6.033367      -164.1763
  22   2.0000      -6.031333      -164.1209
  23   2.0000      -6.027296      -164.0110
  24   2.0000      -1.005937       -27.3729
  25   2.0000      -0.983016       -26.7492
  26   2.0000      -0.911762       -24.8103
  27   2.0000      -0.906690       -24.6723
  28   2.0000      -0.872601       -23.7447
  29   2.0000      -0.848921       -23.1003
  30   2.0000      -0.841638       -22.9021
  31   2.0000      -0.821443       -22.3526
  32   2.0000      -0.785792       -21.3825
  33   2.0000      -0.777911       -21.1680
  34   2.0000      -0.711548       -19.3622
  35   2.0000      -0.701930       -19.1005
  36   2.0000      -0.695898       -18.9363
  37   2.0000      -0.658500       -17.9187
  38   2.0000      -0.630593       -17.1593
  39   2.0000      -0.622608       -16.9420
  40   2.0000      -0.594516       -16.1776
  41   2.0000      -0.573249       -15.5989
  42   2.0000      -0.566450       -15.4139
  43   2.0000      -0.555784       -15.1236
  44   2.0000      -0.541999       -14.7485
  45   2.0000      -0.531171       -14.4539
  46   2.0000      -0.515299       -14.0220
  47   2.0000      -0.513581       -13.9753
  48   2.0000      -0.510679       -13.8963
  49   2.0000      -0.507523       -13.8104
  50   2.0000      -0.490907       -13.3583
  51   2.0000      -0.483863       -13.1666
  52   2.0000      -0.476707       -12.9718
  53   2.0000      -0.465067       -12.6551
  54   2.0000      -0.462840       -12.5945
  55   2.0000      -0.450330       -12.2541
  56   2.0000      -0.440680       -11.9915
  57   2.0000      -0.438571       -11.9341
  58   2.0000      -0.430886       -11.7250
  59   2.0000      -0.426523       -11.6063
  60   2.0000      -0.419662       -11.4196
  61   2.0000      -0.409350       -11.1390
  62   2.0000      -0.400741       -10.9047
  63   2.0000      -0.364721        -9.9246
  64   2.0000      -0.333077        -9.0635
  65   2.0000      -0.326810        -8.8929
  66   2.0000      -0.290647        -7.9089
  67   0.0000       0.018679         0.5083
  68   0.0000       0.085200         2.3184
  69   0.0000       0.101874         2.7721
  70   0.0000       0.122952         3.3457
  71   0.0000       0.126177         3.4334

MULLIKEN ATOMIC CHARGES
-----------------------
   0 S :    0.110136
   1 C :   -0.112170
   2 C :   -0.127971
   3 C :   -0.019775
   4 C :   -0.084349
   5 H :    0.021244
   6 C :    0.145203
   7 H :   -0.010661
   8 H :    0.024726
   9 C :   -0.098470
  10 H :    0.004822
  11 H :    0.026127
  12 C :   -0.045837
  13 H :    0.041716
  14 H :    0.026276
  15 H :    0.050162
  16 S :    0.076886
  17 C :   -0.097002
  18 C :   -0.043787
  19 C :   -0.072996
  20 C :   -0.114571
  21 H :    0.030300
  22 C :    0.147472
  23 H :   -0.017425
  24 H :    0.015643
  25 C :   -0.138522
  26 H :    0.025116
  27 H :    0.033796
  28 C :   -0.003265
  29 H :    0.030563
  30 H :    0.042739
  31 H :    0.018639
  32 H :    0.046318
  33 H :    0.068918
Sum of atomic charges:    0.0000000

LOEWDIN ATOMIC CHARGES
----------------------
   0 S :    0.395451
   1 C :   -0.195074
   2 C :   -0.067800
   3 C :   -0.073992
   4 C :   -0.180368
   5 H :    0.036038
   6 C :   -0.017621
   7 H :    0.014123
   8 H :    0.031768
   9 C :   -0.051104
  10 H :    0.012507
  11 H :    0.032380
  12 C :   -0.067657
  13 H :    0.032778
  14 H :    0.026043
  15 H :    0.028931
  16 S :    0.375826
  17 C :   -0.183906
  18 C :   -0.078677
  19 C :   -0.045377
  20 C :   -0.176250
  21 H :    0.039055
  22 C :   -0.025479
  23 H :    0.013399
  24 H :    0.025795
  25 C :   -0.038519
  26 H :    0.021691
  27 H :    0.023427
  28 C :   -0.055339
  29 H :    0.021917
  30 H :    0.026471
  31 H :    0.020799
  32 H :    0.038247
  33 H :    0.040517

  Mayer bond orders larger than 0.100000
B(  0-S ,  1-C ) :   1.1109 B(  0-S ,  4-C ) :   1.1365 B(  1-C ,  2-C ) :   1.6541
B(  1-C , 32-H ) :   0.9633 B(  2-C ,  3-C ) :   1.2481 B(  2-C ,  6-C ) :   1.0105
B(  3-C ,  4-C ) :   1.5663 B(  3-C ,  5-H ) :   0.9856 B(  4-C , 20-C ) :   1.0718
B(  6-C ,  7-H ) :   0.9403 B(  6-C ,  8-H ) :   0.9326 B(  6-C ,  9-C ) :   1.0821
B(  9-C , 10-H ) :   0.9543 B(  9-C , 11-H ) :   0.9497 B(  9-C , 12-C ) :   1.0689
B( 12-C , 13-H ) :   0.9721 B( 12-C , 14-H ) :   0.9745 B( 12-C , 15-H ) :   0.9781
B( 16-S , 17-C ) :   1.1333 B( 16-S , 20-C ) :   1.1224 B( 17-C , 18-C ) :   1.6589
B( 17-C , 33-H ) :   0.9607 B( 18-C , 19-C ) :   1.1991 B( 18-C , 21-H ) :   0.9862
B( 19-C , 20-C ) :   1.6015 B( 19-C , 22-C ) :   1.0590 B( 22-C , 23-H ) :   0.9255
B( 22-C , 24-H ) :   0.9249 B( 22-C , 25-C ) :   1.0571 B( 25-C , 26-H ) :   0.9602
B( 25-C , 27-H ) :   0.9585 B( 25-C , 28-C ) :   1.0606 B( 28-C , 29-H ) :   0.9767
B( 28-C , 30-H ) :   0.9795 B( 28-C , 31-H ) :   0.9780

Dispersion correction           -0.014067175
FINAL SINGLE POINT ENERGY     -1339.862387536573

DIPOLE MOMENT
-------------
                                X             Y             Z
Electronic contribution:     19.42255     -22.96976       6.20631
Nuclear contribution   :    -19.80051      23.61033      -6.22694
                        -----------------------------------------
Total Dipole Moment    :     -0.37796       0.64057      -0.02063
                        -----------------------------------------
Magnitude (a.u.)       :      0.74404
Magnitude (Debye)      :      1.89121

Rotational constants in cm-1:     0.017230     0.009318     0.006472
Rotational constants in MHz :   516.546402   279.352747   194.018127

                             ****ORCA TERMINATED NORMALLY****
TOTAL RUN TIME: 0 days 0 hours 0 minutes 33 seconds 354 msec
