                         Program Version 4.2.1 -  RELEASE  -
|  1> ! wB97X-D3 SP def2-SVP
|  2> %pal
|  3> nprocs 16
|  4> end
|  5>
|  6> * xyz 0 1
|  7> S 	 -101.852 	 57.1981 	 120.633
|  8> C 	 -101.499 	 58.3622 	 119.398
|  9> C 	 -102.482 	 59.306 	 119.205
| 10> C 	 -103.642 	 58.9446 	 119.958
| 11> C 	 -103.455 	 57.8191 	 120.738
| 12> H 	 -104.632 	 59.4028 	 120.083
| 13> C 	 -102.433 	 60.4188 	 118.184
| 14> H 	 -101.42 	 60.6242 	 117.807
| 15> H 	 -102.757 	 61.2424 	 118.801
| 16> C 	 -103.364 	 60.3061 	 116.935
| 17> H 	 -104.32 	 59.8907 	 117.238
| 18> H 	 -103.446 	 61.3697 	 116.524
| 19> C 	 -102.804 	 59.6045 	 115.693
| 20> H 	 -102.285 	 58.6285 	 115.963
| 21> H 	 -103.724 	 59.4149 	 115.021
| 22> H 	 -102.087 	 60.1715 	 115.068
| 23> S 	 -103.864 	 56.3089 	 123.015
| 24> C 	 -105.442 	 55.8907 	 123.639
| 25> C 	 -106.371 	 56.5582 	 122.894
| 26> C 	 -105.835 	 57.2419 	 121.681
| 27> C 	 -104.432 	 57.2317 	 121.63
| 28> H 	 -107.414 	 56.6149 	 123.184
| 29> C 	 -106.838 	 57.9688 	 120.703
| 30> H 	 -107.577 	 57.2098 	 120.543
| 31> H 	 -106.439 	 58.1724 	 119.758
| 32> C 	 -107.46 	 59.2219 	 121.285
| 33> H 	 -106.874 	 60.0588 	 121.171
| 34> H 	 -107.535 	 59.0145 	 122.365
| 35> C 	 -108.756 	 59.6097 	 120.554
| 36> H 	 -109.558 	 58.8642 	 120.655
| 37> H 	 -108.542 	 59.8113 	 119.528
| 38> H 	 -109.179 	 60.494 	 121.025
| 39> H 	 -100.513 	 58.4418 	 118.956
| 40> H 	 -105.76 	 55.52 	 124.629
| 41> *
| 42>
| 43>                          ****END OF INPUT****

CARTESIAN COORDINATES (ANGSTROEM)
---------------------------------
  S    -101.852000   57.198100  120.633000
  C    -101.499000   58.362200  119.398000
  C    -102.482000   59.306000  119.205000
  C    -103.642000   58.944600  119.958000
  C    -103.455000   57.819100  120.738000
  H    -104.632000   59.402800  120.083000
  C    -102.433000   60.418800  118.184000
  H    -101.420000   60.624200  117.807000
  H    -102.757000   61.242400  118.801000
  C    -103.364000   60.306100  116.935000
  H    -104.320000   59.890700  117.238000
  H    -103.446000   61.369700  116.524000
  C    -102.804000   59.604500  115.693000
  H    -102.285000   58.628500  115.963000
  H    -103.724000   59.414900  115.021000
  H    -102.087000   60.171500  115.068000
  S    -103.864000   56.308900  123.015000
  C    -105.442000   55.890700  123.639000
  C    -106.371000   56.558200  122.894000
  C    -105.835000   57.241900  121.681000
  C    -104.432000   57.231700  121.630000
  H    -107.414000   56.614900  123.184000
  C    -106.838000   57.968800  120.703000
  H    -107.577000   57.209800  120.543000
  H    -106.439000   58.172400  119.758000
  C    -107.460000   59.221900  121.285000
  H    -106.874000   60.058800  121.171000
  H    -107.535000   59.014500  122.365000
  C    -108.756000   59.609700  120.554000
  H    -109.558000   58.864200  120.655000
  H    -108.542000   59.811300  119.528000
  H    -109.179000   60.494000  121.025000
  H    -100.513000   58.441800  118.956000
  H    -105.760000   55.520000  124.629000

 Total Charge           Charge          ....    0
 Multiplicity           Mult            ....    1
 Number of Electrons    NEL             ....  134
 Basis Dimension        Dim             ....  322

ORBITAL ENERGIES
----------------

  NO   OCC          E(Eh)            E(eV)
   0   2.0000     -88.968402     -2420.9533
   1   2.0000     -88.962371     -2420.7892
   2   2.0000     -10.332410      -281.1592
   3   2.0000     -10.328800      -281.0609
   4   2.0000     -10.319622      -280.8112
   5   2.0000     -10.312261      -280.6109
   6   2.0000     -10.311833      -280.5992
   7   2.0000     -10.304645      -280.4036
   8   2.0000     -10.298421      -280.2343
   9   2.0000     -10.296962      -280.1946
  10   2.0000     -10.296547      -280.1833
  11   2.0000     -10.295821      -280.1635
  12   2.0000     -10.291324      -280.0412
  13   2.0000     -10.288602      -279.9671
  14   2.0000     -10.281780      -279.7814
  15   2.0000     -10.279310      -279.7143
  16   2.0000      -8.084042      -219.9780
  17   2.0000      -8.077119      -219.7896
  18   2.0000      -6.042432      -164.4229
  19   2.0000      -6.038554      -164.3174
  20   2.0000      -6.035931      -164.2460
  21   2.0000      -6.034734      -164.2135
  22   2.0000      -6.031537      -164.1265
  23   2.0000      -6.027621      -164.0199
  24   2.0000      -1.011457       -27.5231
  25   2.0000      -0.984061       -26.7777
  26   2.0000      -0.913665       -24.8621
  27   2.0000      -0.910748       -24.7827
  28   2.0000      -0.873202       -23.7610
  29   2.0000      -0.854278       -23.2461
  30   2.0000      -0.840265       -22.8648
  31   2.0000      -0.817833       -22.2544
  32   2.0000      -0.783587       -21.3225
  33   2.0000      -0.775008       -21.0890
  34   2.0000      -0.709801       -19.3147
  35   2.0000      -0.700138       -19.0517
  36   2.0000      -0.690947       -18.8016
  37   2.0000      -0.662101       -18.0167
  38   2.0000      -0.640301       -17.4235
  39   2.0000      -0.621997       -16.9254
  40   2.0000      -0.596332       -16.2270
  41   2.0000      -0.570090       -15.5129
  42   2.0000      -0.567548       -15.4438
  43   2.0000      -0.548782       -14.9331
  44   2.0000      -0.539009       -14.6672
  45   2.0000      -0.526684       -14.3318
  46   2.0000      -0.521214       -14.1830
  47   2.0000      -0.512261       -13.9393
  48   2.0000      -0.509985       -13.8774
  49   2.0000      -0.499905       -13.6031
  50   2.0000      -0.488812       -13.3012
  51   2.0000      -0.483481       -13.1562
  52   2.0000      -0.476507       -12.9664
  53   2.0000      -0.469272       -12.7695
  54   2.0000      -0.455313       -12.3897
  55   2.0000      -0.451454       -12.2847
  56   2.0000      -0.447434       -12.1753
  57   2.0000      -0.441086       -12.0025
  58   2.0000      -0.438978       -11.9452
  59   2.0000      -0.428245       -11.6531
  60   2.0000      -0.425666       -11.5830
  61   2.0000      -0.405790       -11.0421
  62   2.0000      -0.401676       -10.9302
  63   2.0000      -0.363916        -9.9026
  64   2.0000      -0.335412        -9.1270
  65   2.0000      -0.323212        -8.7950
  66   2.0000      -0.286895        -7.8068
  67   0.0000       0.022994         0.6257
  68   0.0000       0.084454         2.2981
  69   0.0000       0.099370         2.7040
  70   0.0000       0.118499         3.2245
  71   0.0000       0.128945         3.5088

MULLIKEN ATOMIC CHARGES
-----------------------
   0 S :    0.122048
   1 C :   -0.119788
   2 C :   -0.061334
   3 C :   -0.022328
   4 C :   -0.125957
   5 H :    0.009734
   6 C :    0.085035
   7 H :    0.018479
   8 H :    0.030906
   9 C :   -0.080269
  10 H :    0.034752
  11 H :    0.040692
  12 C :   -0.104572
  13 H :    0.046607
  14 H :    0.049519
  15 H :    0.040827
  16 S :    0.075328
  17 C :   -0.070384
  18 C :   -0.058258
  19 C :   -0.100192
  20 C :   -0.104745
  21 H :    0.026583
  22 C :    0.079413
  23 H :    0.019953
  24 H :    0.004755
  25 C :   -0.044864
  26 H :    0.013581
  27 H :    0.027044
  28 C :   -0.044024
  29 H :    0.030871
  30 H :    0.031031
  31 H :    0.030985
  32 H :    0.044526
  33 H :    0.074046
Sum of atomic charges:    0.0000000

LOEWDIN ATOMIC CHARGES
----------------------
   0 S :    0.422702
   1 C :   -0.198932
   2 C :   -0.062682
   3 C :   -0.067395
   4 C :   -0.196062
   5 H :    0.035635
   6 C :   -0.032700
   7 H :    0.030776
   8 H :    0.035088
   9 C :   -0.044660
  10 H :    0.021854
  11 H :    0.036765
  12 C :   -0.082051
  13 H :    0.028599
  14 H :    0.039452
  15 H :    0.024007
  16 S :    0.389664
  17 C :   -0.198518
  18 C :   -0.072453
  19 C :   -0.058889
  20 C :   -0.190246
  21 H :    0.028544
  22 C :   -0.025850
  23 H :    0.029888
  24 H :    0.015879
  25 C :   -0.035432
  26 H :    0.012564
  27 H :    0.026928
  28 C :   -0.058446
  29 H :    0.024258
  30 H :    0.022751
  31 H :    0.027263
  32 H :    0.025806
  33 H :    0.045890

  Mayer bond orders larger than 0.100000
B(  0-S ,  1-C ) :   1.1394 B(  0-S ,  4-C ) :   1.1495 B(  1-C ,  2-C ) :   1.6154
B(  1-C , 32-H ) :   0.9659 B(  2-C ,  3-C ) :   1.2109 B(  2-C ,  6-C ) :   1.0277
B(  3-C ,  4-C ) :   1.5833 B(  3-C ,  5-H ) :   0.9875 B(  4-C , 20-C ) :   1.0787
B(  6-C ,  7-H ) :   0.9440 B(  6-C ,  8-H ) :   0.9291 B(  6-C ,  9-C ) :   1.0656
B(  9-C , 10-H ) :   0.9611 B(  9-C , 11-H ) :   0.9551 B(  9-C , 12-C ) :   1.0695
B( 12-C , 13-H ) :   0.9758 B( 12-C , 14-H ) :   0.9724 B( 12-C , 15-H ) :   0.9768
B( 16-S , 17-C ) :   1.1309 B( 16-S , 20-C ) :   1.1232 B( 17-C , 18-C ) :   1.6455
B( 17-C , 33-H ) :   0.9597 B( 18-C , 19-C ) :   1.2231 B( 18-C , 21-H ) :   0.9804
B( 19-C , 20-C ) :   1.6058 B( 19-C , 22-C ) :   1.0355 B( 22-C , 23-H ) :   0.9354
B( 22-C , 24-H ) :   0.9367 B( 22-C , 25-C ) :   1.0618 B( 25-C , 26-H ) :   0.9522
B( 25-C , 27-H ) :   0.9553 B( 25-C , 28-C ) :   1.0789 B( 28-C , 29-H ) :   0.9780
B( 28-C , 30-H ) :   0.9738 B( 28-C , 31-H ) :   0.9738

Dispersion correction           -0.013765569
FINAL SINGLE POINT ENERGY     -1339.869458334239

DIPOLE MOMENT
-------------
                                X             Y             Z
Electronic contribution:     16.59242     -17.83041      19.85328
Nuclear contribution   :    -17.07689      18.44199     -20.14864
                        -----------------------------------------
Total Dipole Moment    :     -0.48446       0.61158      -0.29536
                        -----------------------------------------
Magnitude (a.u.)       :      0.83425
Magnitude (Debye)      :      2.12049

Rotational constants in cm-1:     0.016919     0.009313     0.006324
Rotational constants in MHz :   507.229793   279.198181   189.578546

                             ****ORCA TERMINATED NORMALLY****
TOTAL RUN TIME: 0 days 0 hours 0 minutes 34 seconds 733 msec
