                         Program Version 4.2.1 -  RELEASE  -
|  1> ! wB97X-D3 SP def2-SVP
|  2> %pal
|  3> nprocs 16
|  4> end
|  5>
|  6> * xyz 0 1
|  7> S 	 -74.4594 	 40.734 	 123.427
|  8> C 	 -73.4877 	 40.3709 	 124.815
|  9> C 	 -72.5218 	 39.4273 	 124.489
| 10> C 	 -72.7449 	 38.8162 	 123.199
| 11> C 	 -73.8184 	 39.3025 	 122.612
| 12> H 	 -72.2029 	 37.9589 	 122.787
| 13> C 	 -71.2792 	 39.0719 	 125.32
| 14> H 	 -70.8444 	 39.9057 	 125.813
| 15> H 	 -70.4418 	 38.8007 	 124.674
| 16> C 	 -71.3105 	 37.8707 	 126.323
| 17> H 	 -70.5151 	 38.0089 	 126.982
| 18> H 	 -72.1687 	 37.8165 	 126.998
| 19> C 	 -71.1892 	 36.5981 	 125.655
| 20> H 	 -71.8801 	 36.3941 	 124.79
| 21> H 	 -70.2202 	 36.4288 	 125.182
| 22> H 	 -71.3964 	 35.7662 	 126.353
| 23> S 	 -74.7971 	 40.2896 	 120.284
| 24> C 	 -75.1644 	 39.1878 	 119.015
| 25> C 	 -74.9204 	 37.8519 	 119.279
| 26> C 	 -74.3095 	 37.6998 	 120.553
| 27> C 	 -74.3385 	 38.8954 	 121.289
| 28> H 	 -75.1501 	 37.0692 	 118.614
| 29> C 	 -74.0206 	 36.2685 	 121.136
| 30> H 	 -74.8505 	 35.5688 	 121.006
| 31> H 	 -74.1028 	 36.4117 	 122.262
| 32> C 	 -72.6651 	 35.6704 	 120.807
| 33> H 	 -71.778 	 36.2113 	 120.954
| 34> H 	 -72.7013 	 35.5248 	 119.741
| 35> C 	 -72.2534 	 34.3552 	 121.488
| 36> H 	 -73.1159 	 33.712 	 121.247
| 37> H 	 -71.9399 	 34.5931 	 122.52
| 38> H 	 -71.457 	 33.9162 	 120.893
| 39> H 	 -73.446 	 40.9868 	 125.692
| 40> H 	 -75.5306 	 39.4981 	 118.025
| 41> *
| 42>
| 43>                          ****END OF INPUT****

CARTESIAN COORDINATES (ANGSTROEM)
---------------------------------
  S    -74.459400   40.734000  123.427000
  C    -73.487700   40.370900  124.815000
  C    -72.521800   39.427300  124.489000
  C    -72.744900   38.816200  123.199000
  C    -73.818400   39.302500  122.612000
  H    -72.202900   37.958900  122.787000
  C    -71.279200   39.071900  125.320000
  H    -70.844400   39.905700  125.813000
  H    -70.441800   38.800700  124.674000
  C    -71.310500   37.870700  126.323000
  H    -70.515100   38.008900  126.982000
  H    -72.168700   37.816500  126.998000
  C    -71.189200   36.598100  125.655000
  H    -71.880100   36.394100  124.790000
  H    -70.220200   36.428800  125.182000
  H    -71.396400   35.766200  126.353000
  S    -74.797100   40.289600  120.284000
  C    -75.164400   39.187800  119.015000
  C    -74.920400   37.851900  119.279000
  C    -74.309500   37.699800  120.553000
  C    -74.338500   38.895400  121.289000
  H    -75.150100   37.069200  118.614000
  C    -74.020600   36.268500  121.136000
  H    -74.850500   35.568800  121.006000
  H    -74.102800   36.411700  122.262000
  C    -72.665100   35.670400  120.807000
  H    -71.778000   36.211300  120.954000
  H    -72.701300   35.524800  119.741000
  C    -72.253400   34.355200  121.488000
  H    -73.115900   33.712000  121.247000
  H    -71.939900   34.593100  122.520000
  H    -71.457000   33.916200  120.893000
  H    -73.446000   40.986800  125.692000
  H    -75.530600   39.498100  118.025000

 Total Charge           Charge          ....    0
 Multiplicity           Mult            ....    1
 Number of Electrons    NEL             ....  134
 Basis Dimension        Dim             ....  322

ORBITAL ENERGIES
----------------

  NO   OCC          E(Eh)            E(eV)
   0   2.0000     -88.969049     -2420.9709
   1   2.0000     -88.964427     -2420.8451
   2   2.0000     -10.330881      -281.1176
   3   2.0000     -10.324402      -280.9413
   4   2.0000     -10.315814      -280.7076
   5   2.0000     -10.312361      -280.6136
   6   2.0000     -10.309606      -280.5386
   7   2.0000     -10.304696      -280.4050
   8   2.0000     -10.301658      -280.3224
   9   2.0000     -10.290706      -280.0243
  10   2.0000     -10.290233      -280.0115
  11   2.0000     -10.288211      -279.9565
  12   2.0000     -10.283047      -279.8159
  13   2.0000     -10.279240      -279.7123
  14   2.0000     -10.277805      -279.6733
  15   2.0000     -10.275903      -279.6215
  16   2.0000      -8.083948      -219.9754
  17   2.0000      -8.079513      -219.8547
  18   2.0000      -6.042351      -164.4207
  19   2.0000      -6.038579      -164.3181
  20   2.0000      -6.038195      -164.3076
  21   2.0000      -6.034675      -164.2119
  22   2.0000      -6.034234      -164.1999
  23   2.0000      -6.029808      -164.0794
  24   2.0000      -1.009718       -27.4758
  25   2.0000      -0.985505       -26.8170
  26   2.0000      -0.915491       -24.9118
  27   2.0000      -0.909714       -24.7546
  28   2.0000      -0.870910       -23.6987
  29   2.0000      -0.859447       -23.3867
  30   2.0000      -0.848817       -23.0975
  31   2.0000      -0.816195       -22.2098
  32   2.0000      -0.784389       -21.3443
  33   2.0000      -0.770861       -20.9762
  34   2.0000      -0.704207       -19.1624
  35   2.0000      -0.699386       -19.0313
  36   2.0000      -0.689737       -18.7687
  37   2.0000      -0.666585       -18.1387
  38   2.0000      -0.642954       -17.4957
  39   2.0000      -0.620220       -16.8770
  40   2.0000      -0.597470       -16.2580
  41   2.0000      -0.574692       -15.6382
  42   2.0000      -0.569543       -15.4980
  43   2.0000      -0.551484       -15.0066
  44   2.0000      -0.539963       -14.6931
  45   2.0000      -0.526426       -14.3248
  46   2.0000      -0.518291       -14.1034
  47   2.0000      -0.511488       -13.9183
  48   2.0000      -0.505934       -13.7672
  49   2.0000      -0.499174       -13.5832
  50   2.0000      -0.496736       -13.5169
  51   2.0000      -0.485673       -13.2158
  52   2.0000      -0.474724       -12.9179
  53   2.0000      -0.466715       -12.7000
  54   2.0000      -0.462059       -12.5733
  55   2.0000      -0.453130       -12.3303
  56   2.0000      -0.436898       -11.8886
  57   2.0000      -0.435961       -11.8631
  58   2.0000      -0.431770       -11.7491
  59   2.0000      -0.424184       -11.5426
  60   2.0000      -0.413669       -11.2565
  61   2.0000      -0.411057       -11.1854
  62   2.0000      -0.408381       -11.1126
  63   2.0000      -0.357233        -9.7208
  64   2.0000      -0.338633        -9.2147
  65   2.0000      -0.327621        -8.9150
  66   2.0000      -0.285107        -7.7582
  67   0.0000       0.026832         0.7301
  68   0.0000       0.067595         1.8393
  69   0.0000       0.101404         2.7593
  70   0.0000       0.115229         3.1355
  71   0.0000       0.124965         3.4005

MULLIKEN ATOMIC CHARGES
-----------------------
   0 S :    0.093077
   1 C :   -0.095698
   2 C :   -0.070909
   3 C :    0.005549
   4 C :   -0.097391
   5 H :    0.011879
   6 C :    0.047608
   7 H :    0.010236
   8 H :    0.013031
   9 C :    0.000412
  10 H :    0.008558
  11 H :    0.023473
  12 C :   -0.081465
  13 H :    0.028319
  14 H :    0.019704
  15 H :    0.033304
  16 S :    0.101751
  17 C :   -0.085217
  18 C :   -0.009691
  19 C :   -0.025802
  20 C :   -0.134840
  21 H :    0.003385
  22 C :    0.009686
  23 H :    0.034349
  24 H :    0.028375
  25 C :   -0.076582
  26 H :    0.019009
  27 H :    0.013669
  28 C :   -0.045633
  29 H :    0.030202
  30 H :    0.054730
  31 H :    0.033243
  32 H :    0.042550
  33 H :    0.057131
Sum of atomic charges:   -0.0000000

LOEWDIN ATOMIC CHARGES
----------------------
   0 S :    0.388247
   1 C :   -0.194415
   2 C :   -0.054585
   3 C :   -0.066947
   4 C :   -0.181628
   5 H :    0.036577
   6 C :   -0.030797
   7 H :    0.023971
   8 H :    0.032964
   9 C :   -0.040001
  10 H :    0.019584
  11 H :    0.026612
  12 C :   -0.074267
  13 H :    0.025521
  14 H :    0.020435
  15 H :    0.029692
  16 S :    0.407328
  17 C :   -0.192848
  18 C :   -0.065875
  19 C :   -0.052978
  20 C :   -0.176703
  21 H :    0.026352
  22 C :   -0.037018
  23 H :    0.032552
  24 H :    0.032826
  25 C :   -0.050915
  26 H :    0.016190
  27 H :    0.020041
  28 C :   -0.062008
  29 H :    0.027832
  30 H :    0.030173
  31 H :    0.028687
  32 H :    0.025752
  33 H :    0.029649

  Mayer bond orders larger than 0.100000
B(  0-S ,  1-C ) :   1.1219 B(  0-S ,  4-C ) :   1.1254 B(  1-C ,  2-C ) :   1.6415
B(  1-C , 32-H ) :   0.9722 B(  2-C ,  3-C ) :   1.1937 B(  2-C ,  6-C ) :   1.0210
B(  3-C ,  4-C ) :   1.6252 B(  3-C ,  5-H ) :   0.9939 B(  4-C , 20-C ) :   1.0231
B(  6-C ,  7-H ) :   0.9431 B(  6-C ,  8-H ) :   0.9433 B(  6-C ,  9-C ) :   1.0672
B(  9-C , 10-H ) :   0.9449 B(  9-C , 11-H ) :   0.9541 B(  9-C , 12-C ) :   1.0968
B( 12-C , 13-H ) :   0.9712 B( 12-C , 14-H ) :   0.9696 B( 12-C , 15-H ) :   0.9682
B( 16-S , 17-C ) :   1.1620 B( 16-S , 20-C ) :   1.1394 B( 17-C , 18-C ) :   1.6075
B( 17-C , 33-H ) :   0.9618 B( 18-C , 19-C ) :   1.2368 B( 18-C , 21-H ) :   0.9985
B( 19-C , 20-C ) :   1.6181 B( 19-C , 22-C ) :   1.0160 B( 22-C , 23-H ) :   0.9468
B( 22-C , 24-H ) :   0.9475 B( 22-C , 25-C ) :   1.0449 B( 25-C , 26-H ) :   0.9573
B( 25-C , 27-H ) :   0.9522 B( 25-C , 28-C ) :   1.0842 B( 28-C , 29-H ) :   0.9744
B( 28-C , 30-H ) :   0.9752 B( 28-C , 31-H ) :   0.9723

Dispersion correction           -0.014574110
FINAL SINGLE POINT ENERGY     -1339.852281027645

DIPOLE MOMENT
-------------
                                X             Y             Z
Electronic contribution:    -17.20357      26.88441     -10.29317
Nuclear contribution   :     17.67329     -27.38503      10.32137
                        -----------------------------------------
Total Dipole Moment    :      0.46972      -0.50062       0.02820
                        -----------------------------------------
Magnitude (a.u.)       :      0.68706
Magnitude (Debye)      :      1.74637

Rotational constants in cm-1:     0.016224     0.010667     0.006691
Rotational constants in MHz :   486.393749   319.796806   200.591189

                             ****ORCA TERMINATED NORMALLY****
TOTAL RUN TIME: 0 days 0 hours 0 minutes 33 seconds 8 msec
