                         Program Version 4.2.1 -  RELEASE  -
|  1> ! wB97X-D3 SP def2-SVP
|  2> %pal
|  3> nprocs 16
|  4> end
|  5>
|  6> * xyz 0 1
|  7> S 	 -12.0376 	 -10.9659 	 91.5815
|  8> C 	 -13.4254 	 -11.3701 	 92.4783
|  9> C 	 -14.5066 	 -11.7383 	 91.6579
| 10> C 	 -14.1209 	 -11.709 	 90.3071
| 11> C 	 -12.8158 	 -11.4125 	 90.083
| 12> H 	 -14.6951 	 -11.9935 	 89.4264
| 13> C 	 -15.8705 	 -12.2877 	 92.1581
| 14> H 	 -16.4676 	 -12.5438 	 91.2496
| 15> H 	 -16.3501 	 -11.3849 	 92.5671
| 16> C 	 -15.8251 	 -13.4542 	 93.1858
| 17> H 	 -15.1335 	 -14.1922 	 92.7847
| 18> H 	 -15.2898 	 -12.9709 	 94.0401
| 19> C 	 -17.2201 	 -14.0248 	 93.6075
| 20> H 	 -17.8838 	 -13.2369 	 93.9362
| 21> H 	 -17.6027 	 -14.4889 	 92.722
| 22> H 	 -17.2894 	 -14.8098 	 94.348
| 23> S 	 -11.3844 	 -9.4599 	 88.6391
| 24> C 	 -11.1168 	 -9.68376 	 86.9468
| 25> C 	 -11.4866 	 -10.9363 	 86.501
| 26> C 	 -12.216 	 -11.7386 	 87.4881
| 27> C 	 -12.2262 	 -11.0956 	 88.7581
| 28> H 	 -11.0875 	 -11.2213 	 85.499
| 29> C 	 -12.5121 	 -13.1818 	 87.0872
| 30> H 	 -13.1469 	 -13.1294 	 86.195
| 31> H 	 -13.0167 	 -13.7448 	 87.8427
| 32> C 	 -11.2487 	 -13.9882 	 86.8412
| 33> H 	 -10.7989 	 -14.0887 	 87.836
| 34> H 	 -10.5606 	 -13.4867 	 86.1775
| 35> C 	 -11.5298 	 -15.4487 	 86.2947
| 36> H 	 -12.1932 	 -16.1172 	 86.9534
| 37> H 	 -10.6048 	 -16.0072 	 86.1769
| 38> H 	 -11.8694 	 -15.5502 	 85.2201
| 39> H 	 -13.5631 	 -11.284 	 93.4823
| 40> H 	 -10.4444 	 -9.04668 	 86.3632
| 41> *
| 42>
| 43>                          ****END OF INPUT****

CARTESIAN COORDINATES (ANGSTROEM)
---------------------------------
  S    -12.037600  -10.965900   91.581500
  C    -13.425400  -11.370100   92.478300
  C    -14.506600  -11.738300   91.657900
  C    -14.120900  -11.709000   90.307100
  C    -12.815800  -11.412500   90.083000
  H    -14.695100  -11.993500   89.426400
  C    -15.870500  -12.287700   92.158100
  H    -16.467600  -12.543800   91.249600
  H    -16.350100  -11.384900   92.567100
  C    -15.825100  -13.454200   93.185800
  H    -15.133500  -14.192200   92.784700
  H    -15.289800  -12.970900   94.040100
  C    -17.220100  -14.024800   93.607500
  H    -17.883800  -13.236900   93.936200
  H    -17.602700  -14.488900   92.722000
  H    -17.289400  -14.809800   94.348000
  S    -11.384400   -9.459900   88.639100
  C    -11.116800   -9.683760   86.946800
  C    -11.486600  -10.936300   86.501000
  C    -12.216000  -11.738600   87.488100
  C    -12.226200  -11.095600   88.758100
  H    -11.087500  -11.221300   85.499000
  C    -12.512100  -13.181800   87.087200
  H    -13.146900  -13.129400   86.195000
  H    -13.016700  -13.744800   87.842700
  C    -11.248700  -13.988200   86.841200
  H    -10.798900  -14.088700   87.836000
  H    -10.560600  -13.486700   86.177500
  C    -11.529800  -15.448700   86.294700
  H    -12.193200  -16.117200   86.953400
  H    -10.604800  -16.007200   86.176900
  H    -11.869400  -15.550200   85.220100
  H    -13.563100  -11.284000   93.482300
  H    -10.444400   -9.046680   86.363200

 Total Charge           Charge          ....    0
 Multiplicity           Mult            ....    1
 Number of Electrons    NEL             ....  134
 Basis Dimension        Dim             ....  322

ORBITAL ENERGIES
----------------

  NO   OCC          E(Eh)            E(eV)
   0   2.0000     -88.970418     -2421.0081
   1   2.0000     -88.963384     -2420.8168
   2   2.0000     -10.341667      -281.4111
   3   2.0000     -10.326637      -281.0021
   4   2.0000     -10.315785      -280.7068
   5   2.0000     -10.315278      -280.6930
   6   2.0000     -10.307813      -280.4899
   7   2.0000     -10.302718      -280.3512
   8   2.0000     -10.300024      -280.2779
   9   2.0000     -10.298501      -280.2365
  10   2.0000     -10.296726      -280.1882
  11   2.0000     -10.292047      -280.0608
  12   2.0000     -10.291783      -280.0536
  13   2.0000     -10.290994      -280.0322
  14   2.0000     -10.289632      -279.9951
  15   2.0000     -10.281441      -279.7722
  16   2.0000      -8.085699      -220.0231
  17   2.0000      -8.077359      -219.7961
  18   2.0000      -6.044084      -164.4679
  19   2.0000      -6.040075      -164.3588
  20   2.0000      -6.036627      -164.2650
  21   2.0000      -6.036020      -164.2485
  22   2.0000      -6.032056      -164.1406
  23   2.0000      -6.027906      -164.0277
  24   2.0000      -1.008032       -27.4299
  25   2.0000      -0.977725       -26.6052
  26   2.0000      -0.908696       -24.7269
  27   2.0000      -0.904263       -24.6062
  28   2.0000      -0.866547       -23.5799
  29   2.0000      -0.853561       -23.2266
  30   2.0000      -0.839842       -22.8533
  31   2.0000      -0.812008       -22.0959
  32   2.0000      -0.782530       -21.2937
  33   2.0000      -0.772067       -21.0090
  34   2.0000      -0.709767       -19.3137
  35   2.0000      -0.704139       -19.1606
  36   2.0000      -0.691807       -18.8250
  37   2.0000      -0.655274       -17.8309
  38   2.0000      -0.643962       -17.5231
  39   2.0000      -0.615123       -16.7384
  40   2.0000      -0.596603       -16.2344
  41   2.0000      -0.566316       -15.4102
  42   2.0000      -0.562937       -15.3183
  43   2.0000      -0.559934       -15.2366
  44   2.0000      -0.523976       -14.2581
  45   2.0000      -0.516219       -14.0470
  46   2.0000      -0.511876       -13.9289
  47   2.0000      -0.508888       -13.8476
  48   2.0000      -0.503054       -13.6888
  49   2.0000      -0.502640       -13.6775
  50   2.0000      -0.489195       -13.3117
  51   2.0000      -0.478098       -13.0097
  52   2.0000      -0.470932       -12.8147
  53   2.0000      -0.462157       -12.5759
  54   2.0000      -0.458787       -12.4842
  55   2.0000      -0.449704       -12.2371
  56   2.0000      -0.447156       -12.1677
  57   2.0000      -0.439215       -11.9516
  58   2.0000      -0.430610       -11.7175
  59   2.0000      -0.426851       -11.6152
  60   2.0000      -0.424474       -11.5505
  61   2.0000      -0.419213       -11.4074
  62   2.0000      -0.413814       -11.2604
  63   2.0000      -0.353363        -9.6155
  64   2.0000      -0.331020        -9.0075
  65   2.0000      -0.327032        -8.8990
  66   2.0000      -0.289320        -7.8728
  67   0.0000       0.027608         0.7513
  68   0.0000       0.066574         1.8116
  69   0.0000       0.109992         2.9930
  70   0.0000       0.118477         3.2239
  71   0.0000       0.133380         3.6295

MULLIKEN ATOMIC CHARGES
-----------------------
   0 S :    0.123610
   1 C :   -0.077874
   2 C :   -0.097904
   3 C :    0.021026
   4 C :   -0.146137
   5 H :    0.016943
   6 C :    0.043337
   7 H :    0.024580
   8 H :    0.039220
   9 C :   -0.083109
  10 H :    0.041184
  11 H :    0.029100
  12 C :   -0.026099
  13 H :    0.032688
  14 H :    0.025142
  15 H :    0.036297
  16 S :    0.083406
  17 C :   -0.091352
  18 C :   -0.073989
  19 C :   -0.028299
  20 C :   -0.153476
  21 H :    0.040532
  22 C :    0.084924
  23 H :    0.032076
  24 H :    0.014308
  25 C :   -0.071048
  26 H :    0.041011
  27 H :    0.029444
  28 C :   -0.094037
  29 H :    0.046019
  30 H :    0.028988
  31 H :    0.037018
  32 H :    0.008463
  33 H :    0.064009
Sum of atomic charges:    0.0000000

LOEWDIN ATOMIC CHARGES
----------------------
   0 S :    0.434835
   1 C :   -0.196574
   2 C :   -0.062626
   3 C :   -0.061566
   4 C :   -0.205952
   5 H :    0.035389
   6 C :   -0.034982
   7 H :    0.028527
   8 H :    0.033403
   9 C :   -0.040264
  10 H :    0.026152
  11 H :    0.024036
  12 C :   -0.063754
  13 H :    0.026955
  14 H :    0.024597
  15 H :    0.027731
  16 S :    0.369298
  17 C :   -0.195549
  18 C :   -0.079136
  19 C :   -0.053554
  20 C :   -0.165088
  21 H :    0.038594
  22 C :   -0.031214
  23 H :    0.032158
  24 H :    0.025250
  25 C :   -0.032053
  26 H :    0.032781
  27 H :    0.020129
  28 C :   -0.085441
  29 H :    0.032446
  30 H :    0.025415
  31 H :    0.030220
  32 H :    0.007419
  33 H :    0.032418

  Mayer bond orders larger than 0.100000
B(  0-S ,  1-C ) :   1.1685 B(  0-S ,  4-C ) :   1.1518 B(  1-C ,  2-C ) :   1.5683
B(  1-C , 32-H ) :   0.9806 B(  2-C ,  3-C ) :   1.2807 B(  2-C ,  6-C ) :   1.0066
B(  3-C ,  4-C ) :   1.5701 B(  3-C ,  5-H ) :   0.9903 B(  4-C , 20-C ) :   1.0303
B(  6-C ,  7-H ) :   0.9506 B(  6-C ,  8-H ) :   0.9339 B(  6-C ,  9-C ) :   1.0500
B(  9-C , 10-H ) :   0.9639 B(  9-C , 11-H ) :   0.9542 B(  9-C , 12-C ) :   1.0679
B( 12-C , 13-H ) :   0.9762 B( 12-C , 14-H ) :   0.9758 B( 12-C , 15-H ) :   0.9774
B( 16-S , 17-C ) :   1.1460 B( 16-S , 20-C ) :   1.1178 B( 17-C , 18-C ) :   1.6609
B( 17-C , 33-H ) :   0.9587 B( 18-C , 19-C ) :   1.1915 B( 18-C , 21-H ) :   0.9769
B( 19-C , 20-C ) :   1.6215 B( 19-C , 22-C ) :   1.0511 B( 22-C , 23-H ) :   0.9319
B( 22-C , 24-H ) :   0.9420 B( 22-C , 25-C ) :   1.0603 B( 25-C , 26-H ) :   0.9551
B( 25-C , 27-H ) :   0.9575 B( 25-C , 28-C ) :   1.0741 B( 28-C , 29-H ) :   0.9751
B( 28-C , 30-H ) :   0.9737 B( 28-C , 31-H ) :   0.9742

Dispersion correction           -0.013180326
FINAL SINGLE POINT ENERGY     -1339.866876199884

DIPOLE MOMENT
-------------
                                X             Y             Z
Electronic contribution:     14.22766      24.27101       1.26467
Nuclear contribution   :    -14.48692     -24.79802      -1.39954
                        -----------------------------------------
Total Dipole Moment    :     -0.25926      -0.52701      -0.13487
                        -----------------------------------------
Magnitude (a.u.)       :      0.60262
Magnitude (Debye)      :      1.53173

Rotational constants in cm-1:     0.018369     0.007400     0.005789
Rotational constants in MHz :   550.674060   221.857287   173.551502

                             ****ORCA TERMINATED NORMALLY****
TOTAL RUN TIME: 0 days 0 hours 0 minutes 31 seconds 844 msec
