                         Program Version 4.2.1 -  RELEASE  -
|  1> ! wB97X-D3 SP def2-SVP
|  2> %pal
|  3> nprocs 16
|  4> end
|  5>
|  6> * xyz 0 1
|  7> S 	 -12.3823 	 33.4617 	 35.0702
|  8> C 	 -11.1248 	 34.3123 	 34.2032
|  9> C 	 -11.5048 	 35.5195 	 33.7542
| 10> C 	 -12.8983 	 35.7956 	 34.0987
| 11> C 	 -13.5097 	 34.7808 	 34.8354
| 12> H 	 -13.4825 	 36.7369 	 33.876
| 13> C 	 -10.5872 	 36.5153 	 33.0535
| 14> H 	 -9.62747 	 36.0721 	 33.2545
| 15> H 	 -10.6004 	 37.405 	 33.6232
| 16> C 	 -10.8952 	 36.839 	 31.5403
| 17> H 	 -10.7079 	 35.9508 	 31.059
| 18> H 	 -11.9691 	 37.0859 	 31.3885
| 19> C 	 -10.0494 	 37.9291 	 30.9061
| 20> H 	 -10.3621 	 37.9332 	 29.8438
| 21> H 	 -10.2496 	 38.9624 	 31.2517
| 22> H 	 -8.96011 	 37.7771 	 30.8717
| 23> S 	 -15.3861 	 35.6723 	 36.8314
| 24> C 	 -17.0254 	 35.0826 	 36.8095
| 25> C 	 -17.113 	 34.1135 	 35.7752
| 26> C 	 -15.9302 	 33.822 	 35.0805
| 27> C 	 -14.9084 	 34.7104 	 35.4151
| 28> H 	 -18.0087 	 33.5522 	 35.549
| 29> C 	 -15.9136 	 32.8138 	 33.9386
| 30> H 	 -16.6021 	 32.0408 	 34.2454
| 31> H 	 -14.9682 	 32.3488 	 33.9637
| 32> C 	 -16.1927 	 33.4441 	 32.6026
| 33> H 	 -15.419 	 34.1281 	 32.319
| 34> H 	 -17.0787 	 34.0909 	 32.5298
| 35> C 	 -16.4411 	 32.3118 	 31.575
| 36> H 	 -15.5545 	 31.6678 	 31.5492
| 37> H 	 -16.5877 	 32.6255 	 30.5354
| 38> H 	 -17.3214 	 31.7338 	 31.7623
| 39> H 	 -10.043 	 33.9919 	 34.22
| 40> H 	 -17.8256 	 35.5559 	 37.3269
| 41> *
| 42>
| 43>                          ****END OF INPUT****

CARTESIAN COORDINATES (ANGSTROEM)
---------------------------------
  S    -12.382300   33.461700   35.070200
  C    -11.124800   34.312300   34.203200
  C    -11.504800   35.519500   33.754200
  C    -12.898300   35.795600   34.098700
  C    -13.509700   34.780800   34.835400
  H    -13.482500   36.736900   33.876000
  C    -10.587200   36.515300   33.053500
  H     -9.627470   36.072100   33.254500
  H    -10.600400   37.405000   33.623200
  C    -10.895200   36.839000   31.540300
  H    -10.707900   35.950800   31.059000
  H    -11.969100   37.085900   31.388500
  C    -10.049400   37.929100   30.906100
  H    -10.362100   37.933200   29.843800
  H    -10.249600   38.962400   31.251700
  H     -8.960110   37.777100   30.871700
  S    -15.386100   35.672300   36.831400
  C    -17.025400   35.082600   36.809500
  C    -17.113000   34.113500   35.775200
  C    -15.930200   33.822000   35.080500
  C    -14.908400   34.710400   35.415100
  H    -18.008700   33.552200   35.549000
  C    -15.913600   32.813800   33.938600
  H    -16.602100   32.040800   34.245400
  H    -14.968200   32.348800   33.963700
  C    -16.192700   33.444100   32.602600
  H    -15.419000   34.128100   32.319000
  H    -17.078700   34.090900   32.529800
  C    -16.441100   32.311800   31.575000
  H    -15.554500   31.667800   31.549200
  H    -16.587700   32.625500   30.535400
  H    -17.321400   31.733800   31.762300
  H    -10.043000   33.991900   34.220000
  H    -17.825600   35.555900   37.326900

 Total Charge           Charge          ....    0
 Multiplicity           Mult            ....    1
 Number of Electrons    NEL             ....  134
 Basis Dimension        Dim             ....  322

ORBITAL ENERGIES
----------------

  NO   OCC          E(Eh)            E(eV)
   0   2.0000     -88.966915     -2420.9128
   1   2.0000     -88.965187     -2420.8658
   2   2.0000     -10.335561      -281.2449
   3   2.0000     -10.331028      -281.1216
   4   2.0000     -10.319908      -280.8190
   5   2.0000     -10.315090      -280.6879
   6   2.0000     -10.303612      -280.3755
   7   2.0000     -10.301474      -280.3174
   8   2.0000     -10.298249      -280.2296
   9   2.0000     -10.293374      -280.0969
  10   2.0000     -10.290295      -280.0132
  11   2.0000     -10.288708      -279.9700
  12   2.0000     -10.284688      -279.8606
  13   2.0000     -10.284168      -279.8464
  14   2.0000     -10.282372      -279.7976
  15   2.0000     -10.273425      -279.5541
  16   2.0000      -8.080967      -219.8943
  17   2.0000      -8.079847      -219.8638
  18   2.0000      -6.039458      -164.3420
  19   2.0000      -6.038418      -164.3137
  20   2.0000      -6.035379      -164.2310
  21   2.0000      -6.034339      -164.2027
  22   2.0000      -6.031983      -164.1386
  23   2.0000      -6.030563      -164.0999
  24   2.0000      -1.001430       -27.2503
  25   2.0000      -0.983553       -26.7638
  26   2.0000      -0.911858       -24.8129
  27   2.0000      -0.908150       -24.7120
  28   2.0000      -0.865472       -23.5507
  29   2.0000      -0.848880       -23.0992
  30   2.0000      -0.843667       -22.9574
  31   2.0000      -0.810486       -22.0544
  32   2.0000      -0.782559       -21.2945
  33   2.0000      -0.772863       -21.0307
  34   2.0000      -0.709182       -19.2978
  35   2.0000      -0.705652       -19.2018
  36   2.0000      -0.691094       -18.8056
  37   2.0000      -0.662490       -18.0273
  38   2.0000      -0.636000       -17.3064
  39   2.0000      -0.611826       -16.6486
  40   2.0000      -0.596837       -16.2408
  41   2.0000      -0.570909       -15.5352
  42   2.0000      -0.560972       -15.2648
  43   2.0000      -0.557889       -15.1809
  44   2.0000      -0.528492       -14.3810
  45   2.0000      -0.522549       -14.2193
  46   2.0000      -0.516520       -14.0552
  47   2.0000      -0.509606       -13.8671
  48   2.0000      -0.504175       -13.7193
  49   2.0000      -0.501172       -13.6376
  50   2.0000      -0.492655       -13.4058
  51   2.0000      -0.472953       -12.8697
  52   2.0000      -0.469685       -12.7808
  53   2.0000      -0.462512       -12.5856
  54   2.0000      -0.460397       -12.5280
  55   2.0000      -0.448787       -12.2121
  56   2.0000      -0.444685       -12.1005
  57   2.0000      -0.439678       -11.9642
  58   2.0000      -0.431607       -11.7446
  59   2.0000      -0.428974       -11.6730
  60   2.0000      -0.423065       -11.5122
  61   2.0000      -0.417689       -11.3659
  62   2.0000      -0.411654       -11.2017
  63   2.0000      -0.334023        -9.0892
  64   2.0000      -0.331991        -9.0339
  65   2.0000      -0.328425        -8.9369
  66   2.0000      -0.304343        -8.2816
  67   0.0000       0.035987         0.9793
  68   0.0000       0.061076         1.6620
  69   0.0000       0.115232         3.1356
  70   0.0000       0.122860         3.3432
  71   0.0000       0.127228         3.4620

MULLIKEN ATOMIC CHARGES
-----------------------
   0 S :    0.109929
   1 C :   -0.148645
   2 C :   -0.110389
   3 C :    0.022137
   4 C :   -0.177867
   5 H :    0.036127
   6 C :    0.109979
   7 H :    0.001796
   8 H :    0.017708
   9 C :   -0.043771
  10 H :    0.013996
  11 H :    0.038033
  12 C :   -0.067348
  13 H :    0.032849
  14 H :    0.037400
  15 H :    0.038336
  16 S :    0.113313
  17 C :   -0.090995
  18 C :   -0.034582
  19 C :   -0.061496
  20 C :   -0.170567
  21 H :    0.012888
  22 C :    0.129889
  23 H :    0.014407
  24 H :    0.004002
  25 C :   -0.042999
  26 H :    0.027680
  27 H :    0.023955
  28 C :   -0.045986
  29 H :    0.028286
  30 H :    0.025002
  31 H :    0.026514
  32 H :    0.068897
  33 H :    0.061523
Sum of atomic charges:    0.0000000

LOEWDIN ATOMIC CHARGES
----------------------
   0 S :    0.402481
   1 C :   -0.205742
   2 C :   -0.068731
   3 C :   -0.067254
   4 C :   -0.194242
   5 H :    0.041676
   6 C :   -0.024691
   7 H :    0.026484
   8 H :    0.024716
   9 C :   -0.031840
  10 H :    0.015711
  11 H :    0.032246
  12 C :   -0.072402
  13 H :    0.032874
  14 H :    0.026623
  15 H :    0.026623
  16 S :    0.409870
  17 C :   -0.190651
  18 C :   -0.069279
  19 C :   -0.057457
  20 C :   -0.202215
  21 H :    0.027279
  22 C :   -0.022520
  23 H :    0.030094
  24 H :    0.021250
  25 C :   -0.034560
  26 H :    0.025837
  27 H :    0.025810
  28 C :   -0.066080
  29 H :    0.024767
  30 H :    0.024274
  31 H :    0.020834
  32 H :    0.041209
  33 H :    0.027009

  Mayer bond orders larger than 0.100000
B(  0-S ,  1-C ) :   1.1273 B(  0-S ,  4-C ) :   1.1502 B(  1-C ,  2-C ) :   1.6658
B(  1-C , 32-H ) :   0.9509 B(  2-C ,  3-C ) :   1.2018 B(  2-C ,  6-C ) :   1.0188
B(  3-C ,  4-C ) :   1.6185 B(  3-C ,  5-H ) :   0.9839 B(  4-C , 20-C ) :   1.0001
B(  6-C ,  7-H ) :   0.9379 B(  6-C ,  8-H ) :   0.9371 B(  6-C ,  9-C ) :   1.0483
B(  9-C , 10-H ) :   0.9542 B(  9-C , 11-H ) :   0.9584 B(  9-C , 12-C ) :   1.0895
B( 12-C , 13-H ) :   0.9716 B( 12-C , 14-H ) :   0.9747 B( 12-C , 15-H ) :   0.9750
B( 16-S , 17-C ) :   1.1745 B( 16-S , 20-C ) :   1.1625 B( 17-C , 18-C ) :   1.5433
B( 17-C , 20-C ) :   0.1157 B( 17-C , 33-H ) :   0.9738 B( 18-C , 19-C ) :   1.3064
B( 18-C , 21-H ) :   0.9844 B( 19-C , 20-C ) :   1.5453 B( 19-C , 22-C ) :   1.0423
B( 22-C , 23-H ) :   0.9340 B( 22-C , 24-H ) :   0.9105 B( 22-C , 25-C ) :   1.0648
B( 25-C , 26-H ) :   0.9515 B( 25-C , 27-H ) :   0.9591 B( 25-C , 28-C ) :   1.0766
B( 28-C , 29-H ) :   0.9747 B( 28-C , 30-H ) :   0.9744 B( 28-C , 31-H ) :   0.9773

Dispersion correction           -0.014007104
FINAL SINGLE POINT ENERGY     -1339.881461345378

DIPOLE MOMENT
-------------
                                X             Y             Z
Electronic contribution:     -3.71073      -3.02847      25.90144
Nuclear contribution   :      3.72827       3.21683     -26.44503
                        -----------------------------------------
Total Dipole Moment    :      0.01754       0.18836      -0.54359
                        -----------------------------------------
Magnitude (a.u.)       :      0.57557
Magnitude (Debye)      :      1.46298

Rotational constants in cm-1:     0.018126     0.007708     0.006694
Rotational constants in MHz :   543.414530   231.080723   200.668158

                             ****ORCA TERMINATED NORMALLY****
TOTAL RUN TIME: 0 days 0 hours 0 minutes 32 seconds 548 msec
