                         Program Version 4.2.1 -  RELEASE  -
|  1> ! wB97X-D3 SP def2-SVP
|  2> %pal
|  3> nprocs 16
|  4> end
|  5>
|  6> * xyz 0 1
|  7> S 	 8.9116 	 -10.2344 	 90.5515
|  8> C 	 9.45755 	 -9.43796 	 92.0354
|  9> C 	 9.62716 	 -8.05951 	 91.844
| 10> C 	 9.30751 	 -7.67155 	 90.5295
| 11> C 	 8.92741 	 -8.68644 	 89.6917
| 12> H 	 9.31686 	 -6.63475 	 90.2273
| 13> C 	 10.1824 	 -7.02957 	 92.8895
| 14> H 	 10.9898 	 -6.50215 	 92.4346
| 15> H 	 10.711 	 -7.58426 	 93.6919
| 16> C 	 9.1355 	 -6.07577 	 93.5376
| 17> H 	 8.82032 	 -5.35284 	 92.7745
| 18> H 	 8.24766 	 -6.60512 	 93.8911
| 19> C 	 9.67323 	 -4.96601 	 94.4975
| 20> H 	 10.5567 	 -4.46396 	 93.9944
| 21> H 	 8.84478 	 -4.2515 	 94.6783
| 22> H 	 9.90968 	 -5.25778 	 95.532
| 23> S 	 9.77062 	 -8.97392 	 87.0802
| 24> C 	 8.73949 	 -8.6898 	 85.7836
| 25> C 	 7.5868 	 -8.08862 	 86.2138
| 26> C 	 7.42529 	 -8.0373 	 87.6585
| 27> C 	 8.57189 	 -8.5483 	 88.2788
| 28> H 	 6.81083 	 -7.7827 	 85.4955
| 29> C 	 6.12585 	 -7.57577 	 88.3433
| 30> H 	 5.32272 	 -7.89226 	 87.6584
| 31> H 	 6.24386 	 -6.48249 	 88.4625
| 32> C 	 5.67964 	 -8.15125 	 89.672
| 33> H 	 6.3391 	 -7.87076 	 90.4459
| 34> H 	 5.85751 	 -9.2467 	 89.6208
| 35> C 	 4.16256 	 -7.78616 	 89.9521
| 36> H 	 4.00205 	 -6.74171 	 90.2395
| 37> H 	 3.72683 	 -8.45847 	 90.7707
| 38> H 	 3.54309 	 -7.95583 	 89.0737
| 39> H 	 9.35244 	 -9.86999 	 92.99
| 40> H 	 8.87001 	 -8.72084 	 84.7043
| 41> *
| 42>
| 43>                          ****END OF INPUT****

CARTESIAN COORDINATES (ANGSTROEM)
---------------------------------
  S      8.911600  -10.234400   90.551500
  C      9.457550   -9.437960   92.035400
  C      9.627160   -8.059510   91.844000
  C      9.307510   -7.671550   90.529500
  C      8.927410   -8.686440   89.691700
  H      9.316860   -6.634750   90.227300
  C     10.182400   -7.029570   92.889500
  H     10.989800   -6.502150   92.434600
  H     10.711000   -7.584260   93.691900
  C      9.135500   -6.075770   93.537600
  H      8.820320   -5.352840   92.774500
  H      8.247660   -6.605120   93.891100
  C      9.673230   -4.966010   94.497500
  H     10.556700   -4.463960   93.994400
  H      8.844780   -4.251500   94.678300
  H      9.909680   -5.257780   95.532000
  S      9.770620   -8.973920   87.080200
  C      8.739490   -8.689800   85.783600
  C      7.586800   -8.088620   86.213800
  C      7.425290   -8.037300   87.658500
  C      8.571890   -8.548300   88.278800
  H      6.810830   -7.782700   85.495500
  C      6.125850   -7.575770   88.343300
  H      5.322720   -7.892260   87.658400
  H      6.243860   -6.482490   88.462500
  C      5.679640   -8.151250   89.672000
  H      6.339100   -7.870760   90.445900
  H      5.857510   -9.246700   89.620800
  C      4.162560   -7.786160   89.952100
  H      4.002050   -6.741710   90.239500
  H      3.726830   -8.458470   90.770700
  H      3.543090   -7.955830   89.073700
  H      9.352440   -9.869990   92.990000
  H      8.870010   -8.720840   84.704300

 Total Charge           Charge          ....    0
 Multiplicity           Mult            ....    1
 Number of Electrons    NEL             ....  134
 Basis Dimension        Dim             ....  322

ORBITAL ENERGIES
----------------

  NO   OCC          E(Eh)            E(eV)
   0   2.0000     -88.969137     -2420.9733
   1   2.0000     -88.962969     -2420.8055
   2   2.0000     -10.330124      -281.0970
   3   2.0000     -10.324014      -280.9307
   4   2.0000     -10.316207      -280.7183
   5   2.0000     -10.310032      -280.5502
   6   2.0000     -10.307133      -280.4713
   7   2.0000     -10.305829      -280.4359
   8   2.0000     -10.299686      -280.2687
   9   2.0000     -10.293977      -280.1134
  10   2.0000     -10.293604      -280.1032
  11   2.0000     -10.291944      -280.0580
  12   2.0000     -10.291061      -280.0340
  13   2.0000     -10.291028      -280.0331
  14   2.0000     -10.286311      -279.9047
  15   2.0000     -10.282012      -279.7878
  16   2.0000      -8.082913      -219.9472
  17   2.0000      -8.078930      -219.8389
  18   2.0000      -6.041391      -164.3946
  19   2.0000      -6.037549      -164.2901
  20   2.0000      -6.037465      -164.2878
  21   2.0000      -6.033754      -164.1868
  22   2.0000      -6.033134      -164.1699
  23   2.0000      -6.029695      -164.0763
  24   2.0000      -1.006755       -27.3952
  25   2.0000      -0.984891       -26.8003
  26   2.0000      -0.905861       -24.6497
  27   2.0000      -0.902344       -24.5540
  28   2.0000      -0.867163       -23.5967
  29   2.0000      -0.848892       -23.0995
  30   2.0000      -0.843383       -22.9496
  31   2.0000      -0.812691       -22.1144
  32   2.0000      -0.780838       -21.2477
  33   2.0000      -0.769878       -20.9494
  34   2.0000      -0.711225       -19.3534
  35   2.0000      -0.697534       -18.9809
  36   2.0000      -0.690109       -18.7788
  37   2.0000      -0.651677       -17.7330
  38   2.0000      -0.643312       -17.5054
  39   2.0000      -0.622625       -16.9425
  40   2.0000      -0.589704       -16.0467
  41   2.0000      -0.572084       -15.5672
  42   2.0000      -0.569926       -15.5085
  43   2.0000      -0.557328       -15.1657
  44   2.0000      -0.524978       -14.2854
  45   2.0000      -0.512196       -13.9376
  46   2.0000      -0.508979       -13.8500
  47   2.0000      -0.507105       -13.7990
  48   2.0000      -0.503948       -13.7131
  49   2.0000      -0.497061       -13.5257
  50   2.0000      -0.489497       -13.3199
  51   2.0000      -0.479954       -13.0602
  52   2.0000      -0.468577       -12.7506
  53   2.0000      -0.467988       -12.7346
  54   2.0000      -0.462932       -12.5970
  55   2.0000      -0.448438       -12.2026
  56   2.0000      -0.445326       -12.1179
  57   2.0000      -0.440535       -11.9876
  58   2.0000      -0.428097       -11.6491
  59   2.0000      -0.424958       -11.5637
  60   2.0000      -0.421380       -11.4663
  61   2.0000      -0.411597       -11.2001
  62   2.0000      -0.408142       -11.1061
  63   2.0000      -0.339219        -9.2306
  64   2.0000      -0.327691        -8.9169
  65   2.0000      -0.324866        -8.8400
  66   2.0000      -0.306919        -8.3517
  67   0.0000       0.039720         1.0808
  68   0.0000       0.059100         1.6082
  69   0.0000       0.116810         3.1786
  70   0.0000       0.123688         3.3657
  71   0.0000       0.128915         3.5080

MULLIKEN ATOMIC CHARGES
-----------------------
   0 S :    0.114659
   1 C :   -0.107326
   2 C :   -0.096225
   3 C :    0.061558
   4 C :   -0.180537
   5 H :    0.010504
   6 C :    0.075941
   7 H :    0.021705
   8 H :    0.023126
   9 C :   -0.086668
  10 H :    0.028276
  11 H :    0.040636
  12 C :   -0.083447
  13 H :    0.046117
  14 H :    0.039525
  15 H :    0.034247
  16 S :    0.127251
  17 C :   -0.065903
  18 C :   -0.078287
  19 C :   -0.010901
  20 C :   -0.195687
  21 H :    0.022464
  22 C :    0.038694
  23 H :    0.029752
  24 H :    0.047509
  25 C :   -0.061293
  26 H :    0.028247
  27 H :    0.026607
  28 C :   -0.060924
  29 H :    0.037215
  30 H :    0.047191
  31 H :    0.026482
  32 H :    0.042879
  33 H :    0.056614
Sum of atomic charges:   -0.0000000

LOEWDIN ATOMIC CHARGES
----------------------
   0 S :    0.398267
   1 C :   -0.184966
   2 C :   -0.060127
   3 C :   -0.056237
   4 C :   -0.193987
   5 H :    0.032595
   6 C :   -0.029695
   7 H :    0.027276
   8 H :    0.031312
   9 C :   -0.047745
  10 H :    0.027878
  11 H :    0.025983
  12 C :   -0.072877
  13 H :    0.033843
  14 H :    0.030685
  15 H :    0.019031
  16 S :    0.437492
  17 C :   -0.214003
  18 C :   -0.082481
  19 C :   -0.051083
  20 C :   -0.214368
  21 H :    0.031349
  22 C :   -0.035842
  23 H :    0.034257
  24 H :    0.038238
  25 C :   -0.044016
  26 H :    0.017623
  27 H :    0.026482
  28 C :   -0.067996
  29 H :    0.025419
  30 H :    0.036387
  31 H :    0.021762
  32 H :    0.020393
  33 H :    0.039153

  Mayer bond orders larger than 0.100000
B(  0-S ,  1-C ) :   1.1474 B(  0-S ,  4-C ) :   1.1464 B(  1-C ,  2-C ) :   1.6056
B(  1-C ,  4-C ) :   0.1039 B(  1-C , 32-H ) :   0.9684 B(  2-C ,  3-C ) :   1.2586
B(  2-C ,  6-C ) :   1.0129 B(  3-C ,  4-C ) :   1.5825 B(  3-C ,  5-H ) :   0.9975
B(  4-C , 20-C ) :   1.0144 B(  6-C ,  7-H ) :   0.9422 B(  6-C ,  8-H ) :   0.9474
B(  6-C ,  9-C ) :   1.0575 B(  9-C , 10-H ) :   0.9596 B(  9-C , 11-H ) :   0.9603
B(  9-C , 12-C ) :   1.0605 B( 12-C , 13-H ) :   0.9742 B( 12-C , 14-H ) :   0.9774
B( 12-C , 15-H ) :   0.9772 B( 16-S , 17-C ) :   1.1633 B( 16-S , 20-C ) :   1.1553
B( 17-C , 18-C ) :   1.6144 B( 17-C , 33-H ) :   0.9620 B( 18-C , 19-C ) :   1.2574
B( 18-C , 21-H ) :   0.9816 B( 19-C , 20-C ) :   1.5868 B( 19-C , 22-C ) :   1.0203
B( 22-C , 23-H ) :   0.9460 B( 22-C , 24-H ) :   0.9271 B( 22-C , 25-C ) :   1.0786
B( 25-C , 26-H ) :   0.9465 B( 25-C , 27-H ) :   0.9561 B( 25-C , 28-C ) :   1.0680
B( 28-C , 29-H ) :   0.9769 B( 28-C , 30-H ) :   0.9761 B( 28-C , 31-H ) :   0.9758

Dispersion correction           -0.014495555
FINAL SINGLE POINT ENERGY     -1339.874715714745

DIPOLE MOMENT
-------------
                                X             Y             Z
Electronic contribution:     13.29967     -18.05677     -18.68050
Nuclear contribution   :    -13.64534      18.63629      18.94629
                        -----------------------------------------
Total Dipole Moment    :     -0.34567       0.57952       0.26579
                        -----------------------------------------
Magnitude (a.u.)       :      0.72524
Magnitude (Debye)      :      1.84342

Rotational constants in cm-1:     0.017755     0.008266     0.007039
Rotational constants in MHz :   532.296001   247.822193   211.017396

                             ****ORCA TERMINATED NORMALLY****
TOTAL RUN TIME: 0 days 0 hours 0 minutes 31 seconds 415 msec
