                         Program Version 4.2.1 -  RELEASE  -
|  1> ! wB97X-D3 SP def2-SVP
|  2> %pal
|  3> nprocs 16
|  4> end
|  5>
|  6> * xyz 0 1
|  7> S 	 -75.0568 	 46.6823 	 135.185
|  8> C 	 -75.0299 	 45.2751 	 136.177
|  9> C 	 -75.3091 	 45.4908 	 137.533
| 10> C 	 -75.7801 	 46.8197 	 137.693
| 11> C 	 -75.6897 	 47.6419 	 136.589
| 12> H 	 -76.0669 	 47.3226 	 138.638
| 13> C 	 -75.1026 	 44.4003 	 138.643
| 14> H 	 -75.3707 	 43.4052 	 138.278
| 15> H 	 -75.7919 	 44.47 	 139.52
| 16> C 	 -73.7224 	 44.2248 	 139.092
| 17> H 	 -73.1295 	 43.9283 	 138.25
| 18> H 	 -73.3917 	 45.2341 	 139.45
| 19> C 	 -73.5976 	 43.239 	 140.275
| 20> H 	 -73.988 	 42.2161 	 140.12
| 21> H 	 -72.5124 	 43.2275 	 140.601
| 22> H 	 -74.1599 	 43.5519 	 141.178
| 23> S 	 -77.225 	 49.7027 	 137.359
| 24> C 	 -76.7531 	 51.3534 	 136.901
| 25> C 	 -75.573 	 51.2884 	 136.165
| 26> C 	 -75.0053 	 50.0147 	 136.008
| 27> C 	 -75.8029 	 49.0709 	 136.679
| 28> H 	 -75.2029 	 52.2002 	 135.736
| 29> C 	 -73.7408 	 49.7101 	 135.216
| 30> H 	 -73.3359 	 50.6384 	 134.704
| 31> H 	 -74.0009 	 49.0949 	 134.374
| 32> C 	 -72.5256 	 49.104 	 135.919
| 33> H 	 -72.7506 	 48.256 	 136.544
| 34> H 	 -72.2887 	 49.9048 	 136.648
| 35> C 	 -71.3486 	 48.8144 	 134.896
| 36> H 	 -71.0656 	 49.794 	 134.377
| 37> H 	 -71.705 	 48.1828 	 134.129
| 38> H 	 -70.4963 	 48.4315 	 135.362
| 39> H 	 -74.5108 	 44.3843 	 135.854
| 40> H 	 -77.3736 	 52.1646 	 136.951
| 41> *
| 42>
| 43>                          ****END OF INPUT****

CARTESIAN COORDINATES (ANGSTROEM)
---------------------------------
  S    -75.056800   46.682300  135.185000
  C    -75.029900   45.275100  136.177000
  C    -75.309100   45.490800  137.533000
  C    -75.780100   46.819700  137.693000
  C    -75.689700   47.641900  136.589000
  H    -76.066900   47.322600  138.638000
  C    -75.102600   44.400300  138.643000
  H    -75.370700   43.405200  138.278000
  H    -75.791900   44.470000  139.520000
  C    -73.722400   44.224800  139.092000
  H    -73.129500   43.928300  138.250000
  H    -73.391700   45.234100  139.450000
  C    -73.597600   43.239000  140.275000
  H    -73.988000   42.216100  140.120000
  H    -72.512400   43.227500  140.601000
  H    -74.159900   43.551900  141.178000
  S    -77.225000   49.702700  137.359000
  C    -76.753100   51.353400  136.901000
  C    -75.573000   51.288400  136.165000
  C    -75.005300   50.014700  136.008000
  C    -75.802900   49.070900  136.679000
  H    -75.202900   52.200200  135.736000
  C    -73.740800   49.710100  135.216000
  H    -73.335900   50.638400  134.704000
  H    -74.000900   49.094900  134.374000
  C    -72.525600   49.104000  135.919000
  H    -72.750600   48.256000  136.544000
  H    -72.288700   49.904800  136.648000
  C    -71.348600   48.814400  134.896000
  H    -71.065600   49.794000  134.377000
  H    -71.705000   48.182800  134.129000
  H    -70.496300   48.431500  135.362000
  H    -74.510800   44.384300  135.854000
  H    -77.373600   52.164600  136.951000

 Total Charge           Charge          ....    0
 Multiplicity           Mult            ....    1
 Number of Electrons    NEL             ....  134
 Basis Dimension        Dim             ....  322

ORBITAL ENERGIES
----------------

  NO   OCC          E(Eh)            E(eV)
   0   2.0000     -88.972355     -2421.0609
   1   2.0000     -88.969110     -2420.9726
   2   2.0000     -10.329589      -281.0824
   3   2.0000     -10.323803      -280.9250
   4   2.0000     -10.315639      -280.7028
   5   2.0000     -10.311742      -280.5968
   6   2.0000     -10.309123      -280.5255
   7   2.0000     -10.301866      -280.3280
   8   2.0000     -10.297058      -280.1972
   9   2.0000     -10.295328      -280.1501
  10   2.0000     -10.293790      -280.1083
  11   2.0000     -10.293136      -280.0905
  12   2.0000     -10.288668      -279.9689
  13   2.0000     -10.286215      -279.9021
  14   2.0000     -10.285171      -279.8737
  15   2.0000     -10.278654      -279.6964
  16   2.0000      -8.085796      -220.0257
  17   2.0000      -8.084106      -219.9797
  18   2.0000      -6.044368      -164.4756
  19   2.0000      -6.042480      -164.4242
  20   2.0000      -6.040534      -164.3713
  21   2.0000      -6.038516      -164.3164
  22   2.0000      -6.036531      -164.2624
  23   2.0000      -6.035061      -164.2224
  24   2.0000      -1.009988       -27.4832
  25   2.0000      -0.983872       -26.7725
  26   2.0000      -0.917974       -24.9793
  27   2.0000      -0.904815       -24.6213
  28   2.0000      -0.875385       -23.8204
  29   2.0000      -0.850800       -23.1514
  30   2.0000      -0.845941       -23.0192
  31   2.0000      -0.811644       -22.0859
  32   2.0000      -0.781811       -21.2742
  33   2.0000      -0.771387       -20.9905
  34   2.0000      -0.708049       -19.2670
  35   2.0000      -0.696766       -18.9600
  36   2.0000      -0.693805       -18.8794
  37   2.0000      -0.672456       -18.2985
  38   2.0000      -0.637291       -17.3416
  39   2.0000      -0.618414       -16.8279
  40   2.0000      -0.599050       -16.3010
  41   2.0000      -0.573591       -15.6082
  42   2.0000      -0.562991       -15.3198
  43   2.0000      -0.560007       -15.2386
  44   2.0000      -0.525039       -14.2870
  45   2.0000      -0.523627       -14.2486
  46   2.0000      -0.518564       -14.1108
  47   2.0000      -0.516991       -14.0681
  48   2.0000      -0.497834       -13.5468
  49   2.0000      -0.495772       -13.4906
  50   2.0000      -0.490376       -13.3438
  51   2.0000      -0.480872       -13.0852
  52   2.0000      -0.466830       -12.7031
  53   2.0000      -0.464984       -12.6528
  54   2.0000      -0.457549       -12.4506
  55   2.0000      -0.445780       -12.1303
  56   2.0000      -0.443085       -12.0570
  57   2.0000      -0.440335       -11.9821
  58   2.0000      -0.437157       -11.8956
  59   2.0000      -0.427592       -11.6354
  60   2.0000      -0.427060       -11.6209
  61   2.0000      -0.414644       -11.2830
  62   2.0000      -0.409969       -11.1558
  63   2.0000      -0.356470        -9.7000
  64   2.0000      -0.337113        -9.1733
  65   2.0000      -0.330413        -8.9910
  66   2.0000      -0.282894        -7.6979
  67   0.0000       0.019849         0.5401
  68   0.0000       0.070024         1.9054
  69   0.0000       0.109170         2.9707
  70   0.0000       0.112434         3.0595
  71   0.0000       0.130221         3.5435

MULLIKEN ATOMIC CHARGES
-----------------------
   0 S :    0.103290
   1 C :   -0.106514
   2 C :   -0.063049
   3 C :   -0.006485
   4 C :   -0.129572
   5 H :    0.026836
   6 C :    0.046927
   7 H :    0.012989
   8 H :    0.026062
   9 C :   -0.055574
  10 H :    0.024979
  11 H :    0.030821
  12 C :   -0.078322
  13 H :    0.035220
  14 H :    0.048878
  15 H :    0.031140
  16 S :    0.114533
  17 C :   -0.069586
  18 C :   -0.037139
  19 C :   -0.019851
  20 C :   -0.149767
  21 H :    0.009638
  22 C :    0.027793
  23 H :    0.019551
  24 H :    0.025074
  25 C :   -0.074532
  26 H :    0.037458
  27 H :    0.028958
  28 C :   -0.023453
  29 H :    0.029741
  30 H :    0.025207
  31 H :    0.031565
  32 H :    0.050966
  33 H :    0.026218
Sum of atomic charges:    0.0000000

LOEWDIN ATOMIC CHARGES
----------------------
   0 S :    0.406302
   1 C :   -0.200199
   2 C :   -0.059149
   3 C :   -0.063692
   4 C :   -0.180306
   5 H :    0.034150
   6 C :   -0.037802
   7 H :    0.028406
   8 H :    0.032160
   9 C :   -0.044360
  10 H :    0.020754
  11 H :    0.028931
  12 C :   -0.074698
  13 H :    0.025121
  14 H :    0.036002
  15 H :    0.027209
  16 S :    0.433160
  17 C :   -0.177452
  18 C :   -0.056501
  19 C :   -0.065604
  20 C :   -0.205113
  21 H :    0.028519
  22 C :   -0.042874
  23 H :    0.036255
  24 H :    0.015421
  25 C :   -0.040481
  26 H :    0.018278
  27 H :    0.026511
  28 C :   -0.054401
  29 H :    0.032486
  30 H :    0.019285
  31 H :    0.018767
  32 H :    0.024483
  33 H :    0.010434

  Mayer bond orders larger than 0.100000
B(  0-S ,  1-C ) :   1.1574 B(  0-S ,  4-C ) :   1.1201 B(  1-C ,  2-C ) :   1.6052
B(  1-C , 32-H ) :   0.9589 B(  2-C ,  3-C ) :   1.2645 B(  2-C ,  6-C ) :   1.0046
B(  3-C ,  4-C ) :   1.5579 B(  3-C ,  5-H ) :   0.9862 B(  4-C , 20-C ) :   1.0627
B(  6-C ,  7-H ) :   0.9392 B(  6-C ,  8-H ) :   0.9490 B(  6-C ,  9-C ) :   1.0718
B(  9-C , 10-H ) :   0.9527 B(  9-C , 11-H ) :   0.9514 B(  9-C , 12-C ) :   1.0795
B( 12-C , 13-H ) :   0.9738 B( 12-C , 14-H ) :   0.9742 B( 12-C , 15-H ) :   0.9727
B( 16-S , 17-C ) :   1.1455 B( 16-S , 20-C ) :   1.1834 B( 17-C , 18-C ) :   1.5749
B( 17-C , 20-C ) :   0.1042 B( 17-C , 33-H ) :   0.9816 B( 18-C , 19-C ) :   1.2889
B( 18-C , 21-H ) :   0.9910 B( 19-C , 20-C ) :   1.5139 B( 19-C , 22-C ) :   1.0328
B( 22-C , 23-H ) :   0.9357 B( 22-C , 24-H ) :   0.9319 B( 22-C , 25-C ) :   1.0476
B( 25-C , 26-H ) :   0.9598 B( 25-C , 27-H ) :   0.9561 B( 25-C , 28-C ) :   1.0699
B( 28-C , 29-H ) :   0.9746 B( 28-C , 30-H ) :   0.9771 B( 28-C , 31-H ) :   0.9763

Dispersion correction           -0.014443407
FINAL SINGLE POINT ENERGY     -1339.870247265436

DIPOLE MOMENT
-------------
                                X             Y             Z
Electronic contribution:    -20.42022      11.55932      -7.32547
Nuclear contribution   :     20.82782     -11.67208       7.45519
                        -----------------------------------------
Total Dipole Moment    :      0.40760      -0.11275       0.12972
                        -----------------------------------------
Magnitude (a.u.)       :      0.44235
Magnitude (Debye)      :      1.12438

Rotational constants in cm-1:     0.018634     0.008529     0.006962
Rotational constants in MHz :   558.631804   255.702149   208.703524

                             ****ORCA TERMINATED NORMALLY****
TOTAL RUN TIME: 0 days 0 hours 0 minutes 35 seconds 96 msec
