                         Program Version 4.2.1 -  RELEASE  -
|  1> ! wB97X-D3 SP def2-SVP
|  2> %pal
|  3> nprocs 16
|  4> end
|  5>
|  6> * xyz 0 1
|  7> S 	 -42.6064 	 37.344 	 97.5607
|  8> C 	 -43.8569 	 37.7312 	 96.4404
|  9> C 	 -45.1022 	 37.6343 	 97.0339
| 10> C 	 -45.0555 	 37.2074 	 98.3584
| 11> C 	 -43.7698 	 36.9959 	 98.8895
| 12> H 	 -45.8582 	 36.8434 	 98.9519
| 13> C 	 -46.37 	 37.9935 	 96.3564
| 14> H 	 -47.1568 	 37.3284 	 96.7055
| 15> H 	 -46.3224 	 37.7358 	 95.2666
| 16> C 	 -46.7621 	 39.4396 	 96.5315
| 17> H 	 -46.9235 	 39.645 	 97.6
| 18> H 	 -46.0235 	 40.083 	 96.0145
| 19> C 	 -48.0532 	 39.7618 	 95.8461
| 20> H 	 -47.9297 	 39.6566 	 94.7807
| 21> H 	 -48.7987 	 39.0974 	 96.1756
| 22> H 	 -48.3486 	 40.7755 	 96.0492
| 23> S 	 -41.8557 	 35.875 	 100.387
| 24> C 	 -41.9892 	 35.6538 	 102.173
| 25> C 	 -43.1855 	 36.2207 	 102.574
| 26> C 	 -44.0416 	 36.7143 	 101.495
| 27> C 	 -43.4266 	 36.628 	 100.236
| 28> H 	 -43.4454 	 36.2848 	 103.624
| 29> C 	 -45.4166 	 37.4127 	 101.866
| 30> H 	 -45.783 	 37.9208 	 100.98
| 31> H 	 -45.23 	 38.1689 	 102.663
| 32> C 	 -46.6855 	 36.6522 	 102.371
| 33> H 	 -46.2995 	 35.8841 	 103.032
| 34> H 	 -47.2352 	 36.159 	 101.512
| 35> C 	 -47.7238 	 37.7271 	 102.867
| 36> H 	 -47.1479 	 38.3523 	 103.611
| 37> H 	 -48.6199 	 37.3639 	 103.391
| 38> H 	 -47.9983 	 38.4459 	 102.092
| 39> H 	 -43.7278 	 38.0794 	 95.3804
| 40> H 	 -41.2203 	 35.4359 	 102.952
| 41> *
| 42>
| 43>                          ****END OF INPUT****

CARTESIAN COORDINATES (ANGSTROEM)
---------------------------------
  S    -42.606400   37.344000   97.560700
  C    -43.856900   37.731200   96.440400
  C    -45.102200   37.634300   97.033900
  C    -45.055500   37.207400   98.358400
  C    -43.769800   36.995900   98.889500
  H    -45.858200   36.843400   98.951900
  C    -46.370000   37.993500   96.356400
  H    -47.156800   37.328400   96.705500
  H    -46.322400   37.735800   95.266600
  C    -46.762100   39.439600   96.531500
  H    -46.923500   39.645000   97.600000
  H    -46.023500   40.083000   96.014500
  C    -48.053200   39.761800   95.846100
  H    -47.929700   39.656600   94.780700
  H    -48.798700   39.097400   96.175600
  H    -48.348600   40.775500   96.049200
  S    -41.855700   35.875000  100.387000
  C    -41.989200   35.653800  102.173000
  C    -43.185500   36.220700  102.574000
  C    -44.041600   36.714300  101.495000
  C    -43.426600   36.628000  100.236000
  H    -43.445400   36.284800  103.624000
  C    -45.416600   37.412700  101.866000
  H    -45.783000   37.920800  100.980000
  H    -45.230000   38.168900  102.663000
  C    -46.685500   36.652200  102.371000
  H    -46.299500   35.884100  103.032000
  H    -47.235200   36.159000  101.512000
  C    -47.723800   37.727100  102.867000
  H    -47.147900   38.352300  103.611000
  H    -48.619900   37.363900  103.391000
  H    -47.998300   38.445900  102.092000
  H    -43.727800   38.079400   95.380400
  H    -41.220300   35.435900  102.952000

 Total Charge           Charge          ....    0
 Multiplicity           Mult            ....    1
 Number of Electrons    NEL             ....  134
 Basis Dimension        Dim             ....  322

ORBITAL ENERGIES
----------------

  NO   OCC          E(Eh)            E(eV)
   0   2.0000     -88.971133     -2421.0276
   1   2.0000     -88.966176     -2420.8927
   2   2.0000     -10.337229      -281.2903
   3   2.0000     -10.337008      -281.2843
   4   2.0000     -10.326065      -280.9865
   5   2.0000     -10.318889      -280.7912
   6   2.0000     -10.316483      -280.7258
   7   2.0000     -10.300499      -280.2908
   8   2.0000     -10.300324      -280.2861
   9   2.0000     -10.298681      -280.2413
  10   2.0000     -10.296376      -280.1786
  11   2.0000     -10.292799      -280.0813
  12   2.0000     -10.291364      -280.0423
  13   2.0000     -10.290171      -280.0098
  14   2.0000     -10.284666      -279.8600
  15   2.0000     -10.268422      -279.4180
  16   2.0000      -8.085124      -220.0074
  17   2.0000      -8.080177      -219.8728
  18   2.0000      -6.043762      -164.4591
  19   2.0000      -6.039595      -164.3457
  20   2.0000      -6.039052      -164.3309
  21   2.0000      -6.035901      -164.2452
  22   2.0000      -6.034726      -164.2132
  23   2.0000      -6.030616      -164.1014
  24   2.0000      -1.006182       -27.3796
  25   2.0000      -0.981581       -26.7102
  26   2.0000      -0.921588       -25.0777
  27   2.0000      -0.900584       -24.5061
  28   2.0000      -0.876444       -23.8493
  29   2.0000      -0.857302       -23.3284
  30   2.0000      -0.840849       -22.8807
  31   2.0000      -0.817525       -22.2460
  32   2.0000      -0.778330       -21.1794
  33   2.0000      -0.768534       -20.9129
  34   2.0000      -0.710837       -19.3429
  35   2.0000      -0.696312       -18.9476
  36   2.0000      -0.693641       -18.8749
  37   2.0000      -0.665100       -18.0983
  38   2.0000      -0.639934       -17.4135
  39   2.0000      -0.622861       -16.9489
  40   2.0000      -0.589311       -16.0360
  41   2.0000      -0.580654       -15.8004
  42   2.0000      -0.566813       -15.4238
  43   2.0000      -0.564134       -15.3509
  44   2.0000      -0.530676       -14.4404
  45   2.0000      -0.523038       -14.2326
  46   2.0000      -0.517884       -14.0923
  47   2.0000      -0.514229       -13.9929
  48   2.0000      -0.511495       -13.9185
  49   2.0000      -0.501746       -13.6532
  50   2.0000      -0.489465       -13.3190
  51   2.0000      -0.485078       -13.1996
  52   2.0000      -0.470945       -12.8151
  53   2.0000      -0.466669       -12.6987
  54   2.0000      -0.456008       -12.4086
  55   2.0000      -0.450752       -12.2656
  56   2.0000      -0.441123       -12.0036
  57   2.0000      -0.433819       -11.8048
  58   2.0000      -0.428886       -11.6706
  59   2.0000      -0.427112       -11.6223
  60   2.0000      -0.422559       -11.4984
  61   2.0000      -0.417163       -11.3516
  62   2.0000      -0.409065       -11.1312
  63   2.0000      -0.364212        -9.9107
  64   2.0000      -0.336380        -9.1534
  65   2.0000      -0.327639        -8.9155
  66   2.0000      -0.283595        -7.7170
  67   0.0000       0.012020         0.3271
  68   0.0000       0.080096         2.1795
  69   0.0000       0.103203         2.8083
  70   0.0000       0.113857         3.0982
  71   0.0000       0.127167         3.4604

MULLIKEN ATOMIC CHARGES
-----------------------
   0 S :    0.117796
   1 C :   -0.128611
   2 C :   -0.056762
   3 C :    0.006468
   4 C :   -0.126137
   5 H :    0.007538
   6 C :    0.032285
   7 H :    0.015020
   8 H :    0.020352
   9 C :   -0.068078
  10 H :    0.032044
  11 H :    0.030682
  12 C :   -0.001174
  13 H :    0.019727
  14 H :    0.011864
  15 H :    0.030738
  16 S :    0.077519
  17 C :   -0.090578
  18 C :   -0.046059
  19 C :   -0.027535
  20 C :   -0.126905
  21 H :    0.024425
  22 C :   -0.003159
  23 H :    0.014430
  24 H :    0.036143
  25 C :   -0.065250
  26 H :    0.036552
  27 H :    0.039486
  28 C :   -0.077165
  29 H :    0.025192
  30 H :    0.051357
  31 H :    0.038895
  32 H :    0.068676
  33 H :    0.080228
Sum of atomic charges:   -0.0000000

LOEWDIN ATOMIC CHARGES
----------------------
   0 S :    0.404668
   1 C :   -0.208105
   2 C :   -0.071232
   3 C :   -0.058962
   4 C :   -0.181223
   5 H :    0.027647
   6 C :   -0.038552
   7 H :    0.027753
   8 H :    0.032153
   9 C :   -0.038129
  10 H :    0.027038
  11 H :    0.028722
  12 C :   -0.056696
  13 H :    0.021746
  14 H :    0.015623
  15 H :    0.025297
  16 S :    0.384462
  17 C :   -0.187654
  18 C :   -0.067408
  19 C :   -0.062174
  20 C :   -0.185482
  21 H :    0.030712
  22 C :   -0.037336
  23 H :    0.023004
  24 H :    0.033159
  25 C :   -0.042689
  26 H :    0.021876
  27 H :    0.026929
  28 C :   -0.070856
  29 H :    0.026162
  30 H :    0.029748
  31 H :    0.028166
  32 H :    0.044300
  33 H :    0.047335

  Mayer bond orders larger than 0.100000
B(  0-S ,  1-C ) :   1.1495 B(  0-S ,  4-C ) :   1.1396 B(  1-C ,  2-C ) :   1.5783
B(  1-C ,  4-C ) :   0.1058 B(  1-C , 32-H ) :   0.9593 B(  2-C ,  3-C ) :   1.2839
B(  2-C ,  6-C ) :   1.0343 B(  3-C ,  4-C ) :   1.5376 B(  3-C ,  5-H ) :   0.9927
B(  4-C , 20-C ) :   1.1061 B(  6-C ,  7-H ) :   0.9341 B(  6-C ,  8-H ) :   0.9368
B(  6-C ,  9-C ) :   1.0765 B(  9-C , 10-H ) :   0.9524 B(  9-C , 11-H ) :   0.9530
B(  9-C , 12-C ) :   1.0939 B( 12-C , 13-H ) :   0.9724 B( 12-C , 14-H ) :   0.9705
B( 12-C , 15-H ) :   0.9720 B( 16-S , 17-C ) :   1.1197 B( 16-S , 20-C ) :   1.1270
B( 17-C , 18-C ) :   1.6434 B( 17-C , 33-H ) :   0.9584 B( 18-C , 19-C ) :   1.2295
B( 18-C , 21-H ) :   0.9820 B( 19-C , 20-C ) :   1.5840 B( 19-C , 22-C ) :   1.0217
B( 22-C , 23-H ) :   0.9428 B( 22-C , 24-H ) :   0.9481 B( 22-C , 25-C ) :   1.0467
B( 25-C , 26-H ) :   0.9609 B( 25-C , 27-H ) :   0.9590 B( 25-C , 28-C ) :   1.0519
B( 28-C , 29-H ) :   0.9764 B( 28-C , 30-H ) :   0.9753 B( 28-C , 31-H ) :   0.9759

Dispersion correction           -0.013217462
FINAL SINGLE POINT ENERGY     -1339.868400674787

DIPOLE MOMENT
-------------
                                X             Y             Z
Electronic contribution:     31.18302     -11.74978      -1.92780
Nuclear contribution   :    -31.88125      12.06958       2.07662
                        -----------------------------------------
Total Dipole Moment    :     -0.69823       0.31979       0.14882
                        -----------------------------------------
Magnitude (a.u.)       :      0.78227
Magnitude (Debye)      :      1.98836

Rotational constants in cm-1:     0.016131     0.009134     0.006003
Rotational constants in MHz :   483.592890   273.844125   179.965771

                             ****ORCA TERMINATED NORMALLY****
TOTAL RUN TIME: 0 days 0 hours 0 minutes 29 seconds 304 msec
