                         Program Version 4.2.1 -  RELEASE  -
|  1> ! wB97X-D3 SP def2-SVP
|  2> %pal
|  3> nprocs 16
|  4> end
|  5>
|  6> * xyz 0 1
|  7> S 	 37.9855 	 17.5116 	 76.6142
|  8> C 	 36.3548 	 16.9225 	 76.2234
|  9> C 	 35.5483 	 16.9586 	 77.3167
| 10> C 	 36.3059 	 17.1494 	 78.5217
| 11> C 	 37.6465 	 17.2845 	 78.3854
| 12> H 	 35.8919 	 17.3504 	 79.5066
| 13> C 	 34.0502 	 16.8438 	 77.2093
| 14> H 	 33.6597 	 17.02 	 76.2239
| 15> H 	 33.5721 	 17.6489 	 77.6905
| 16> C 	 33.3881 	 15.5804 	 77.809
| 17> H 	 33.9224 	 14.7847 	 77.3951
| 18> H 	 33.5427 	 15.5784 	 78.8772
| 19> C 	 31.9157 	 15.4097 	 77.4557
| 20> H 	 31.4342 	 16.357 	 77.5932
| 21> H 	 31.9359 	 15.3097 	 76.3243
| 22> H 	 31.3537 	 14.6254 	 77.9362
| 23> S 	 39.6624 	 18.9847 	 79.4163
| 24> C 	 40.0029 	 18.8891 	 81.1044
| 25> C 	 39.4507 	 17.7506 	 81.6301
| 26> C 	 38.5822 	 17.0389 	 80.745
| 27> C 	 38.5355 	 17.5813 	 79.5016
| 28> H 	 39.5718 	 17.6655 	 82.7046
| 29> C 	 37.7432 	 15.8814 	 81.1437
| 30> H 	 38.3768 	 15.1407 	 81.7107
| 31> H 	 37.3886 	 15.3311 	 80.3024
| 32> C 	 36.6875 	 16.3268 	 82.1686
| 33> H 	 36.121 	 17.1112 	 81.6826
| 34> H 	 37.2715 	 16.7558 	 82.9846
| 35> C 	 35.9602 	 15.1082 	 82.6683
| 36> H 	 35.2254 	 15.4175 	 83.4773
| 37> H 	 36.6722 	 14.4997 	 83.2192
| 38> H 	 35.4769 	 14.6336 	 81.8493
| 39> H 	 35.9527 	 16.9006 	 75.2205
| 40> H 	 40.522 	 19.6906 	 81.659
| 41> *
| 42>
| 43>                          ****END OF INPUT****

CARTESIAN COORDINATES (ANGSTROEM)
---------------------------------
  S     37.985500   17.511600   76.614200
  C     36.354800   16.922500   76.223400
  C     35.548300   16.958600   77.316700
  C     36.305900   17.149400   78.521700
  C     37.646500   17.284500   78.385400
  H     35.891900   17.350400   79.506600
  C     34.050200   16.843800   77.209300
  H     33.659700   17.020000   76.223900
  H     33.572100   17.648900   77.690500
  C     33.388100   15.580400   77.809000
  H     33.922400   14.784700   77.395100
  H     33.542700   15.578400   78.877200
  C     31.915700   15.409700   77.455700
  H     31.434200   16.357000   77.593200
  H     31.935900   15.309700   76.324300
  H     31.353700   14.625400   77.936200
  S     39.662400   18.984700   79.416300
  C     40.002900   18.889100   81.104400
  C     39.450700   17.750600   81.630100
  C     38.582200   17.038900   80.745000
  C     38.535500   17.581300   79.501600
  H     39.571800   17.665500   82.704600
  C     37.743200   15.881400   81.143700
  H     38.376800   15.140700   81.710700
  H     37.388600   15.331100   80.302400
  C     36.687500   16.326800   82.168600
  H     36.121000   17.111200   81.682600
  H     37.271500   16.755800   82.984600
  C     35.960200   15.108200   82.668300
  H     35.225400   15.417500   83.477300
  H     36.672200   14.499700   83.219200
  H     35.476900   14.633600   81.849300
  H     35.952700   16.900600   75.220500
  H     40.522000   19.690600   81.659000

 Total Charge           Charge          ....    0
 Multiplicity           Mult            ....    1
 Number of Electrons    NEL             ....  134
 Basis Dimension        Dim             ....  322

ORBITAL ENERGIES
----------------

  NO   OCC          E(Eh)            E(eV)
   0   2.0000     -88.964679     -2420.8520
   1   2.0000     -88.961146     -2420.7559
   2   2.0000     -10.334283      -281.2101
   3   2.0000     -10.327915      -281.0369
   4   2.0000     -10.320092      -280.8240
   5   2.0000     -10.314829      -280.6808
   6   2.0000     -10.302910      -280.3564
   7   2.0000     -10.301719      -280.3240
   8   2.0000     -10.294702      -280.1331
   9   2.0000     -10.294166      -280.1185
  10   2.0000     -10.288534      -279.9652
  11   2.0000     -10.286881      -279.9203
  12   2.0000     -10.284852      -279.8651
  13   2.0000     -10.281708      -279.7795
  14   2.0000     -10.280480      -279.7461
  15   2.0000     -10.279848      -279.7289
  16   2.0000      -8.078176      -219.8184
  17   2.0000      -8.076138      -219.7629
  18   2.0000      -6.036989      -164.2748
  19   2.0000      -6.034703      -164.2126
  20   2.0000      -6.033216      -164.1722
  21   2.0000      -6.030642      -164.1021
  22   2.0000      -6.028310      -164.0387
  23   2.0000      -6.026780      -163.9970
  24   2.0000      -1.007680       -27.4204
  25   2.0000      -0.985789       -26.8247
  26   2.0000      -0.920210       -25.0402
  27   2.0000      -0.915066       -24.9002
  28   2.0000      -0.877387       -23.8749
  29   2.0000      -0.854196       -23.2438
  30   2.0000      -0.843485       -22.9524
  31   2.0000      -0.819258       -22.2931
  32   2.0000      -0.782841       -21.3022
  33   2.0000      -0.773295       -21.0424
  34   2.0000      -0.710244       -19.3267
  35   2.0000      -0.701021       -19.0757
  36   2.0000      -0.700523       -19.0622
  37   2.0000      -0.660993       -17.9865
  38   2.0000      -0.643803       -17.5188
  39   2.0000      -0.621979       -16.9249
  40   2.0000      -0.601407       -16.3651
  41   2.0000      -0.577669       -15.7192
  42   2.0000      -0.575284       -15.6543
  43   2.0000      -0.564211       -15.3530
  44   2.0000      -0.533798       -14.5254
  45   2.0000      -0.529050       -14.3962
  46   2.0000      -0.518903       -14.1201
  47   2.0000      -0.513155       -13.9636
  48   2.0000      -0.504932       -13.7399
  49   2.0000      -0.501374       -13.6431
  50   2.0000      -0.491382       -13.3712
  51   2.0000      -0.485412       -13.2087
  52   2.0000      -0.476694       -12.9715
  53   2.0000      -0.465187       -12.6584
  54   2.0000      -0.455872       -12.4049
  55   2.0000      -0.450493       -12.2585
  56   2.0000      -0.447994       -12.1905
  57   2.0000      -0.434055       -11.8112
  58   2.0000      -0.433294       -11.7905
  59   2.0000      -0.427503       -11.6329
  60   2.0000      -0.423218       -11.5163
  61   2.0000      -0.419601       -11.4179
  62   2.0000      -0.412552       -11.2261
  63   2.0000      -0.358721        -9.7613
  64   2.0000      -0.329901        -8.9771
  65   2.0000      -0.326468        -8.8836
  66   2.0000      -0.291578        -7.9342
  67   0.0000       0.025842         0.7032
  68   0.0000       0.065556         1.7839
  69   0.0000       0.100468         2.7339
  70   0.0000       0.121313         3.3011
  71   0.0000       0.130165         3.5420

MULLIKEN ATOMIC CHARGES
-----------------------
   0 S :    0.083724
   1 C :   -0.109492
   2 C :   -0.059629
   3 C :    0.006341
   4 C :   -0.119602
   5 H :    0.007092
   6 C :    0.078406
   7 H :   -0.002398
   8 H :    0.009639
   9 C :   -0.055261
  10 H :    0.017069
  11 H :    0.024007
  12 C :   -0.041991
  13 H :    0.017031
  14 H :    0.029288
  15 H :    0.048655
  16 S :    0.088248
  17 C :   -0.116750
  18 C :   -0.028844
  19 C :   -0.030431
  20 C :   -0.136626
  21 H :    0.022070
  22 C :    0.036952
  23 H :    0.021896
  24 H :    0.029676
  25 C :   -0.095007
  26 H :    0.030190
  27 H :    0.023881
  28 C :   -0.004371
  29 H :    0.038312
  30 H :    0.028592
  31 H :    0.034459
  32 H :    0.048893
  33 H :    0.075982
Sum of atomic charges:    0.0000000

LOEWDIN ATOMIC CHARGES
----------------------
   0 S :    0.354980
   1 C :   -0.175630
   2 C :   -0.060423
   3 C :   -0.059907
   4 C :   -0.164586
   5 H :    0.030894
   6 C :   -0.028974
   7 H :    0.025460
   8 H :    0.026432
   9 C :   -0.035010
  10 H :    0.014870
  11 H :    0.018233
  12 C :   -0.063792
  13 H :    0.019213
  14 H :    0.033071
  15 H :    0.027592
  16 S :    0.380135
  17 C :   -0.184496
  18 C :   -0.078487
  19 C :   -0.054665
  20 C :   -0.177288
  21 H :    0.031645
  22 C :   -0.032483
  23 H :    0.034257
  24 H :    0.024042
  25 C :   -0.036944
  26 H :    0.016437
  27 H :    0.024484
  28 C :   -0.060259
  29 H :    0.032952
  30 H :    0.027388
  31 H :    0.022139
  32 H :    0.028883
  33 H :    0.039835

  Mayer bond orders larger than 0.100000
B(  0-S ,  1-C ) :   1.1165 B(  0-S ,  4-C ) :   1.1049 B(  1-C ,  2-C ) :   1.6462
B(  1-C , 32-H ) :   0.9651 B(  2-C ,  3-C ) :   1.2041 B(  2-C ,  6-C ) :   1.0385
B(  3-C ,  4-C ) :   1.6011 B(  3-C ,  5-H ) :   0.9899 B(  4-C , 20-C ) :   1.0745
B(  6-C ,  7-H ) :   0.9398 B(  6-C ,  8-H ) :   0.9259 B(  6-C ,  9-C ) :   1.0500
B(  9-C , 10-H ) :   0.9605 B(  9-C , 11-H ) :   0.9549 B(  9-C , 12-C ) :   1.0805
B( 12-C , 13-H ) :   0.9743 B( 12-C , 14-H ) :   0.9740 B( 12-C , 15-H ) :   0.9748
B( 16-S , 17-C ) :   1.1612 B( 16-S , 20-C ) :   1.1013 B( 17-C , 18-C ) :   1.6290
B( 17-C , 33-H ) :   0.9631 B( 18-C , 19-C ) :   1.1958 B( 18-C , 21-H ) :   0.9907
B( 19-C , 20-C ) :   1.6352 B( 19-C , 22-C ) :   1.0642 B( 22-C , 23-H ) :   0.9287
B( 22-C , 24-H ) :   0.9319 B( 22-C , 25-C ) :   1.0465 B( 25-C , 26-H ) :   0.9536
B( 25-C , 27-H ) :   0.9522 B( 25-C , 28-C ) :   1.0875 B( 28-C , 29-H ) :   0.9713
B( 28-C , 30-H ) :   0.9688 B( 28-C , 31-H ) :   0.9728

Dispersion correction           -0.014137111
FINAL SINGLE POINT ENERGY     -1339.867509916082

DIPOLE MOMENT
-------------
                                X             Y             Z
Electronic contribution:     27.04346      15.10524     -11.48551
Nuclear contribution   :    -27.72732     -15.14941      12.04881
                        -----------------------------------------
Total Dipole Moment    :     -0.68387      -0.04416       0.56330
                        -----------------------------------------
Magnitude (a.u.)       :      0.88709
Magnitude (Debye)      :      2.25481

Rotational constants in cm-1:     0.017659     0.009283     0.006421
Rotational constants in MHz :   529.393137   278.290577   192.491709

                             ****ORCA TERMINATED NORMALLY****
TOTAL RUN TIME: 0 days 0 hours 0 minutes 29 seconds 531 msec
