                         Program Version 4.2.1 -  RELEASE  -
|  1> ! wB97X-D3 SP def2-SVP
|  2> %pal
|  3> nprocs 16
|  4> end
|  5>
|  6> * xyz 0 1
|  7> S 	 -9.70992 	 47.2364 	 42.3381
|  8> C 	 -10.9272 	 48.2833 	 43.0304
|  9> C 	 -10.6564 	 49.639 	 42.7554
| 10> C 	 -9.31836 	 49.7676 	 42.2228
| 11> C 	 -8.70073 	 48.5839 	 41.9141
| 12> H 	 -8.9081 	 50.6996 	 41.9158
| 13> C 	 -11.5441 	 50.8608 	 43.1318
| 14> H 	 -11.0949 	 51.2635 	 44.0306
| 15> H 	 -12.5545 	 50.499 	 43.4588
| 16> C 	 -11.6237 	 51.9461 	 42.0678
| 17> H 	 -12.2403 	 52.7122 	 42.5475
| 18> H 	 -10.7159 	 52.4509 	 41.9239
| 19> C 	 -12.2549 	 51.3934 	 40.7266
| 20> H 	 -12.4757 	 52.1427 	 39.9568
| 21> H 	 -11.6229 	 50.5841 	 40.3425
| 22> H 	 -13.2246 	 50.8675 	 40.886
| 23> S 	 -6.12733 	 47.9173 	 42.55
| 24> C 	 -4.99115 	 48.0635 	 41.2306
| 25> C 	 -5.5311 	 48.3943 	 40.017
| 26> C 	 -6.92375 	 48.6715 	 40.1063
| 27> C 	 -7.41079 	 48.3181 	 41.398
| 28> H 	 -5.00771 	 48.378 	 39.1441
| 29> C 	 -7.71979 	 48.9006 	 38.844
| 30> H 	 -8.61979 	 48.1901 	 38.9371
| 31> H 	 -7.1806 	 48.4879 	 38.0072
| 32> C 	 -8.18823 	 50.3925 	 38.622
| 33> H 	 -7.28614 	 51.0318 	 38.4963
| 34> H 	 -8.71997 	 50.7778 	 39.4857
| 35> C 	 -9.07444 	 50.5316 	 37.3944
| 36> H 	 -8.49827 	 50.3035 	 36.4781
| 37> H 	 -9.21232 	 51.6018 	 37.3689
| 38> H 	 -9.99711 	 49.9809 	 37.3248
| 39> H 	 -11.7931 	 47.9896 	 43.5381
| 40> H 	 -3.88012 	 47.9813 	 41.3574
| 41> *
| 42>
| 43>                          ****END OF INPUT****

CARTESIAN COORDINATES (ANGSTROEM)
---------------------------------
  S     -9.709920   47.236400   42.338100
  C    -10.927200   48.283300   43.030400
  C    -10.656400   49.639000   42.755400
  C     -9.318360   49.767600   42.222800
  C     -8.700730   48.583900   41.914100
  H     -8.908100   50.699600   41.915800
  C    -11.544100   50.860800   43.131800
  H    -11.094900   51.263500   44.030600
  H    -12.554500   50.499000   43.458800
  C    -11.623700   51.946100   42.067800
  H    -12.240300   52.712200   42.547500
  H    -10.715900   52.450900   41.923900
  C    -12.254900   51.393400   40.726600
  H    -12.475700   52.142700   39.956800
  H    -11.622900   50.584100   40.342500
  H    -13.224600   50.867500   40.886000
  S     -6.127330   47.917300   42.550000
  C     -4.991150   48.063500   41.230600
  C     -5.531100   48.394300   40.017000
  C     -6.923750   48.671500   40.106300
  C     -7.410790   48.318100   41.398000
  H     -5.007710   48.378000   39.144100
  C     -7.719790   48.900600   38.844000
  H     -8.619790   48.190100   38.937100
  H     -7.180600   48.487900   38.007200
  C     -8.188230   50.392500   38.622000
  H     -7.286140   51.031800   38.496300
  H     -8.719970   50.777800   39.485700
  C     -9.074440   50.531600   37.394400
  H     -8.498270   50.303500   36.478100
  H     -9.212320   51.601800   37.368900
  H     -9.997110   49.980900   37.324800
  H    -11.793100   47.989600   43.538100
  H     -3.880120   47.981300   41.357400

 Total Charge           Charge          ....    0
 Multiplicity           Mult            ....    1
 Number of Electrons    NEL             ....  134
 Basis Dimension        Dim             ....  322

ORBITAL ENERGIES
----------------

  NO   OCC          E(Eh)            E(eV)
   0   2.0000     -88.969302     -2420.9778
   1   2.0000     -88.961702     -2420.7710
   2   2.0000     -10.321526      -280.8630
   3   2.0000     -10.319035      -280.7952
   4   2.0000     -10.318277      -280.7746
   5   2.0000     -10.309149      -280.5262
   6   2.0000     -10.303388      -280.3694
   7   2.0000     -10.303337      -280.3680
   8   2.0000     -10.298476      -280.2358
   9   2.0000     -10.296073      -280.1704
  10   2.0000     -10.291111      -280.0354
  11   2.0000     -10.289589      -279.9939
  12   2.0000     -10.289091      -279.9804
  13   2.0000     -10.283372      -279.8248
  14   2.0000     -10.283099      -279.8174
  15   2.0000     -10.274952      -279.5957
  16   2.0000      -8.083675      -219.9680
  17   2.0000      -8.076743      -219.7794
  18   2.0000      -6.042084      -164.4135
  19   2.0000      -6.038325      -164.3112
  20   2.0000      -6.035195      -164.2260
  21   2.0000      -6.034462      -164.2061
  22   2.0000      -6.031146      -164.1158
  23   2.0000      -6.027621      -164.0199
  24   2.0000      -1.004666       -27.3384
  25   2.0000      -0.978956       -26.6387
  26   2.0000      -0.908673       -24.7263
  27   2.0000      -0.903576       -24.5875
  28   2.0000      -0.868727       -23.6393
  29   2.0000      -0.855271       -23.2731
  30   2.0000      -0.838349       -22.8126
  31   2.0000      -0.810565       -22.0566
  32   2.0000      -0.783278       -21.3141
  33   2.0000      -0.767055       -20.8726
  34   2.0000      -0.711190       -19.3525
  35   2.0000      -0.700928       -19.0732
  36   2.0000      -0.687498       -18.7078
  37   2.0000      -0.662974       -18.0404
  38   2.0000      -0.641113       -17.4456
  39   2.0000      -0.619987       -16.8707
  40   2.0000      -0.593382       -16.1467
  41   2.0000      -0.564683       -15.3658
  42   2.0000      -0.556502       -15.1432
  43   2.0000      -0.553044       -15.0491
  44   2.0000      -0.534924       -14.5560
  45   2.0000      -0.528474       -14.3805
  46   2.0000      -0.516504       -14.0548
  47   2.0000      -0.508658       -13.8413
  48   2.0000      -0.501352       -13.6425
  49   2.0000      -0.494484       -13.4556
  50   2.0000      -0.486252       -13.2316
  51   2.0000      -0.475595       -12.9416
  52   2.0000      -0.468448       -12.7471
  53   2.0000      -0.463799       -12.6206
  54   2.0000      -0.457919       -12.4606
  55   2.0000      -0.449069       -12.2198
  56   2.0000      -0.443286       -12.0624
  57   2.0000      -0.440412       -11.9842
  58   2.0000      -0.434601       -11.8261
  59   2.0000      -0.432599       -11.7716
  60   2.0000      -0.420624       -11.4458
  61   2.0000      -0.414639       -11.2829
  62   2.0000      -0.412796       -11.2327
  63   2.0000      -0.340148        -9.2559
  64   2.0000      -0.326103        -8.8737
  65   2.0000      -0.318358        -8.6630
  66   2.0000      -0.298592        -8.1251
  67   0.0000       0.036956         1.0056
  68   0.0000       0.058318         1.5869
  69   0.0000       0.112131         3.0513
  70   0.0000       0.118075         3.2130
  71   0.0000       0.126630         3.4458

MULLIKEN ATOMIC CHARGES
-----------------------
   0 S :    0.111781
   1 C :   -0.100022
   2 C :   -0.125213
   3 C :    0.064177
   4 C :   -0.181397
   5 H :   -0.001014
   6 C :    0.054395
   7 H :    0.039362
   8 H :    0.025239
   9 C :   -0.047628
  10 H :    0.027106
  11 H :    0.022191
  12 C :   -0.075507
  13 H :    0.042842
  14 H :    0.050015
  15 H :    0.028837
  16 S :    0.130904
  17 C :   -0.099803
  18 C :    0.005670
  19 C :    0.000586
  20 C :   -0.171216
  21 H :   -0.020033
  22 C :    0.024338
  23 H :    0.043752
  24 H :    0.018355
  25 C :   -0.086405
  26 H :    0.032526
  27 H :    0.029945
  28 C :   -0.025151
  29 H :    0.022998
  30 H :    0.026575
  31 H :    0.041813
  32 H :    0.022377
  33 H :    0.067604
Sum of atomic charges:   -0.0000000

LOEWDIN ATOMIC CHARGES
----------------------
   0 S :    0.411732
   1 C :   -0.196700
   2 C :   -0.060498
   3 C :   -0.059123
   4 C :   -0.206167
   5 H :    0.022009
   6 C :   -0.029248
   7 H :    0.033763
   8 H :    0.032384
   9 C :   -0.038514
  10 H :    0.028959
  11 H :    0.015963
  12 C :   -0.071936
  13 H :    0.026334
  14 H :    0.029256
  15 H :    0.029639
  16 S :    0.412034
  17 C :   -0.185660
  18 C :   -0.064504
  19 C :   -0.041334
  20 C :   -0.212842
  21 H :    0.015568
  22 C :   -0.036436
  23 H :    0.042338
  24 H :    0.026250
  25 C :   -0.036102
  26 H :    0.028909
  27 H :    0.021366
  28 C :   -0.065984
  29 H :    0.025826
  30 H :    0.027630
  31 H :    0.024147
  32 H :    0.014523
  33 H :    0.036419

  Mayer bond orders larger than 0.100000
B(  0-S ,  1-C ) :   1.1463 B(  0-S ,  4-C ) :   1.1509 B(  1-C ,  2-C ) :   1.6050
B(  1-C , 32-H ) :   0.9748 B(  2-C ,  3-C ) :   1.2303 B(  2-C ,  6-C ) :   1.0092
B(  3-C ,  4-C ) :   1.5995 B(  3-C ,  5-H ) :   0.9920 B(  4-C , 20-C ) :   1.0252
B(  6-C ,  7-H ) :   0.9397 B(  6-C ,  8-H ) :   0.9455 B(  6-C ,  9-C ) :   1.0821
B(  9-C , 10-H ) :   0.9525 B(  9-C , 11-H ) :   0.9541 B(  9-C , 12-C ) :   1.0574
B( 12-C , 13-H ) :   0.9786 B( 12-C , 14-H ) :   0.9732 B( 12-C , 15-H ) :   0.9749
B( 16-S , 17-C ) :   1.1613 B( 16-S , 20-C ) :   1.1436 B( 17-C , 18-C ) :   1.6066
B( 17-C , 20-C ) :   0.1003 B( 17-C , 33-H ) :   0.9570 B( 18-C , 19-C ) :   1.2481
B( 18-C , 21-H ) :   1.0019 B( 19-C , 20-C ) :   1.5758 B( 19-C , 22-C ) :   1.0347
B( 22-C , 23-H ) :   0.9414 B( 22-C , 24-H ) :   0.9474 B( 22-C , 25-C ) :   1.0433
B( 25-C , 26-H ) :   0.9526 B( 25-C , 27-H ) :   0.9564 B( 25-C , 28-C ) :   1.0880
B( 28-C , 29-H ) :   0.9715 B( 28-C , 30-H ) :   0.9725 B( 28-C , 31-H ) :   0.9758

Dispersion correction           -0.015567928
FINAL SINGLE POINT ENERGY     -1339.873777235448

DIPOLE MOMENT
-------------
                                X             Y             Z
Electronic contribution:     15.14037     -20.23507      16.67176
Nuclear contribution   :    -15.24155      20.80239     -17.01325
                        -----------------------------------------
Total Dipole Moment    :     -0.10118       0.56733      -0.34149
                        -----------------------------------------
Magnitude (a.u.)       :      0.66986
Magnitude (Debye)      :      1.70265

Rotational constants in cm-1:     0.017280     0.010394     0.007535
Rotational constants in MHz :   518.047278   311.608454   225.901309

                             ****ORCA TERMINATED NORMALLY****
TOTAL RUN TIME: 0 days 0 hours 0 minutes 35 seconds 805 msec
