                         Program Version 4.2.1 -  RELEASE  -
|  1> ! wB97X-D3 SP def2-SVP
|  2> %pal
|  3> nprocs 16
|  4> end
|  5>
|  6> * xyz 0 1
|  7> S 	 -2.54597 	 39.4154 	 33.9085
|  8> C 	 -3.40239 	 37.9255 	 34.2381
|  9> C 	 -4.78328 	 38.1134 	 34.2669
| 10> C 	 -5.16625 	 39.3921 	 33.748
| 11> C 	 -4.05997 	 40.2552 	 33.4838
| 12> H 	 -6.2079 	 39.6968 	 33.538
| 13> C 	 -5.82906 	 37.1699 	 34.7884
| 14> H 	 -5.86167 	 36.2365 	 34.1929
| 15> H 	 -6.84241 	 37.6352 	 34.8476
| 16> C 	 -5.55753 	 36.7849 	 36.2915
| 17> H 	 -4.66897 	 36.1058 	 36.3402
| 18> H 	 -5.23872 	 37.7095 	 36.8547
| 19> C 	 -6.62938 	 36.1326 	 37.0594
| 20> H 	 -6.26869 	 36.0784 	 38.0643
| 21> H 	 -7.59888 	 36.7888 	 36.944
| 22> H 	 -6.84007 	 35.1923 	 36.6998
| 23> S 	 -3.78141 	 42.653 	 34.6827
| 24> C 	 -3.76198 	 44.1348 	 33.7374
| 25> C 	 -4.32788 	 43.9104 	 32.4646
| 26> C 	 -4.57423 	 42.5224 	 32.1764
| 27> C 	 -4.10366 	 41.6957 	 33.2251
| 28> H 	 -4.54807 	 44.8432 	 31.7798
| 29> C 	 -5.26438 	 41.9584 	 30.9548
| 30> H 	 -5.77232 	 42.7277 	 30.3777
| 31> H 	 -6.06913 	 41.3183 	 31.3595
| 32> C 	 -4.43316 	 41.1976 	 29.8612
| 33> H 	 -4.02209 	 40.2728 	 30.3578
| 34> H 	 -3.56115 	 41.8198 	 29.5612
| 35> C 	 -5.2524 	 40.7662 	 28.5992
| 36> H 	 -4.73201 	 40.3663 	 27.7604
| 37> H 	 -6.00806 	 41.5244 	 28.261
| 38> H 	 -5.89685 	 39.8167 	 28.8491
| 39> H 	 -2.95185 	 37.0997 	 34.6105
| 40> H 	 -3.62941 	 45.1931 	 34.147
| 41> *
| 42>
| 43>                          ****END OF INPUT****

CARTESIAN COORDINATES (ANGSTROEM)
---------------------------------
  S     -2.545970   39.415400   33.908500
  C     -3.402390   37.925500   34.238100
  C     -4.783280   38.113400   34.266900
  C     -5.166250   39.392100   33.748000
  C     -4.059970   40.255200   33.483800
  H     -6.207900   39.696800   33.538000
  C     -5.829060   37.169900   34.788400
  H     -5.861670   36.236500   34.192900
  H     -6.842410   37.635200   34.847600
  C     -5.557530   36.784900   36.291500
  H     -4.668970   36.105800   36.340200
  H     -5.238720   37.709500   36.854700
  C     -6.629380   36.132600   37.059400
  H     -6.268690   36.078400   38.064300
  H     -7.598880   36.788800   36.944000
  H     -6.840070   35.192300   36.699800
  S     -3.781410   42.653000   34.682700
  C     -3.761980   44.134800   33.737400
  C     -4.327880   43.910400   32.464600
  C     -4.574230   42.522400   32.176400
  C     -4.103660   41.695700   33.225100
  H     -4.548070   44.843200   31.779800
  C     -5.264380   41.958400   30.954800
  H     -5.772320   42.727700   30.377700
  H     -6.069130   41.318300   31.359500
  C     -4.433160   41.197600   29.861200
  H     -4.022090   40.272800   30.357800
  H     -3.561150   41.819800   29.561200
  C     -5.252400   40.766200   28.599200
  H     -4.732010   40.366300   27.760400
  H     -6.008060   41.524400   28.261000
  H     -5.896850   39.816700   28.849100
  H     -2.951850   37.099700   34.610500
  H     -3.629410   45.193100   34.147000

 Total Charge           Charge          ....    0
 Multiplicity           Mult            ....    1
 Number of Electrons    NEL             ....  134
 Basis Dimension        Dim             ....  322

ORBITAL ENERGIES
----------------

  NO   OCC          E(Eh)            E(eV)
   0   2.0000     -88.970446     -2421.0089
   1   2.0000     -88.965728     -2420.8805
   2   2.0000     -10.336491      -281.2702
   3   2.0000     -10.330126      -281.0970
   4   2.0000     -10.324466      -280.9430
   5   2.0000     -10.312325      -280.6126
   6   2.0000     -10.310425      -280.5609
   7   2.0000     -10.307972      -280.4942
   8   2.0000     -10.304199      -280.3915
   9   2.0000     -10.303213      -280.3647
  10   2.0000     -10.299719      -280.2696
  11   2.0000     -10.295428      -280.1528
  12   2.0000     -10.295205      -280.1468
  13   2.0000     -10.289086      -279.9803
  14   2.0000     -10.288236      -279.9571
  15   2.0000     -10.276582      -279.6400
  16   2.0000      -8.084245      -219.9835
  17   2.0000      -8.079895      -219.8651
  18   2.0000      -6.042759      -164.4318
  19   2.0000      -6.038819      -164.3246
  20   2.0000      -6.038418      -164.3137
  21   2.0000      -6.035122      -164.2240
  22   2.0000      -6.034619      -164.2103
  23   2.0000      -6.030518      -164.0987
  24   2.0000      -0.998866       -27.1805
  25   2.0000      -0.977105       -26.5884
  26   2.0000      -0.912184       -24.8218
  27   2.0000      -0.897623       -24.4256
  28   2.0000      -0.867557       -23.6074
  29   2.0000      -0.851898       -23.1813
  30   2.0000      -0.842621       -22.9289
  31   2.0000      -0.808071       -21.9887
  32   2.0000      -0.780154       -21.2291
  33   2.0000      -0.767391       -20.8818
  34   2.0000      -0.706175       -19.2160
  35   2.0000      -0.692737       -18.8503
  36   2.0000      -0.683714       -18.6048
  37   2.0000      -0.652300       -17.7500
  38   2.0000      -0.643632       -17.5141
  39   2.0000      -0.612750       -16.6738
  40   2.0000      -0.587673       -15.9914
  41   2.0000      -0.572217       -15.5708
  42   2.0000      -0.561831       -15.2882
  43   2.0000      -0.552521       -15.0349
  44   2.0000      -0.530850       -14.4452
  45   2.0000      -0.518984       -14.1223
  46   2.0000      -0.514440       -13.9986
  47   2.0000      -0.510213       -13.8836
  48   2.0000      -0.504149       -13.7186
  49   2.0000      -0.493848       -13.4383
  50   2.0000      -0.491760       -13.3815
  51   2.0000      -0.477474       -12.9927
  52   2.0000      -0.473323       -12.8798
  53   2.0000      -0.458727       -12.4826
  54   2.0000      -0.454486       -12.3672
  55   2.0000      -0.447141       -12.1673
  56   2.0000      -0.442537       -12.0420
  57   2.0000      -0.434426       -11.8213
  58   2.0000      -0.430354       -11.7105
  59   2.0000      -0.424527       -11.5520
  60   2.0000      -0.419117       -11.4047
  61   2.0000      -0.411377       -11.1941
  62   2.0000      -0.409547       -11.1443
  63   2.0000      -0.337760        -9.1909
  64   2.0000      -0.326680        -8.8894
  65   2.0000      -0.323529        -8.8037
  66   2.0000      -0.296395        -8.0653
  67   0.0000       0.026555         0.7226
  68   0.0000       0.049631         1.3505
  69   0.0000       0.101858         2.7717
  70   0.0000       0.115734         3.1493
  71   0.0000       0.125312         3.4099

MULLIKEN ATOMIC CHARGES
-----------------------
   0 S :    0.121201
   1 C :   -0.064461
   2 C :   -0.088039
   3 C :    0.038802
   4 C :   -0.175342
   5 H :    0.030361
   6 C :    0.065717
   7 H :    0.047023
   8 H :    0.024187
   9 C :   -0.161627
  10 H :    0.025282
  11 H :    0.041987
  12 C :    0.002791
  13 H :    0.038194
  14 H :    0.035011
  15 H :    0.012808
  16 S :    0.111743
  17 C :   -0.116890
  18 C :   -0.089929
  19 C :   -0.003088
  20 C :   -0.186335
  21 H :    0.060687
  22 C :    0.060000
  23 H :    0.010532
  24 H :    0.032615
  25 C :   -0.081537
  26 H :    0.049776
  27 H :    0.042808
  28 C :   -0.084422
  29 H :    0.037154
  30 H :    0.039168
  31 H :    0.031683
  32 H :    0.008548
  33 H :    0.083594
Sum of atomic charges:   -0.0000000

LOEWDIN ATOMIC CHARGES
----------------------
   0 S :    0.410465
   1 C :   -0.179763
   2 C :   -0.061765
   3 C :   -0.055452
   4 C :   -0.203501
   5 H :    0.035683
   6 C :   -0.035440
   7 H :    0.036296
   8 H :    0.032056
   9 C :   -0.052600
  10 H :    0.020918
  11 H :    0.029457
  12 C :   -0.059601
  13 H :    0.030502
  14 H :    0.034331
  15 H :    0.010991
  16 S :    0.403722
  17 C :   -0.206374
  18 C :   -0.086969
  19 C :   -0.054763
  20 C :   -0.195659
  21 H :    0.051480
  22 C :   -0.036547
  23 H :    0.027132
  24 H :    0.034928
  25 C :   -0.042864
  26 H :    0.031937
  27 H :    0.027720
  28 C :   -0.081602
  29 H :    0.022752
  30 H :    0.027247
  31 H :    0.035227
  32 H :    0.004320
  33 H :    0.045734

  Mayer bond orders larger than 0.100000
B(  0-S ,  1-C ) :   1.1512 B(  0-S ,  4-C ) :   1.1575 B(  1-C ,  2-C ) :   1.5791
B(  1-C ,  4-C ) :   0.1062 B(  1-C , 32-H ) :   0.9807 B(  2-C ,  3-C ) :   1.2729
B(  2-C ,  6-C ) :   1.0314 B(  3-C ,  4-C ) :   1.5399 B(  3-C ,  5-H ) :   0.9849
B(  4-C , 20-C ) :   1.0409 B(  6-C ,  7-H ) :   0.9339 B(  6-C ,  8-H ) :   0.9471
B(  6-C ,  9-C ) :   1.0483 B(  9-C , 10-H ) :   0.9475 B(  9-C , 11-H ) :   0.9611
B(  9-C , 12-C ) :   1.1044 B( 12-C , 13-H ) :   0.9691 B( 12-C , 14-H ) :   0.9682
B( 12-C , 15-H ) :   0.9691 B( 16-S , 17-C ) :   1.1525 B( 16-S , 20-C ) :   1.1615
B( 17-C , 18-C ) :   1.6032 B( 17-C , 20-C ) :   0.1110 B( 17-C , 33-H ) :   0.9568
B( 18-C , 19-C ) :   1.2544 B( 18-C , 21-H ) :   0.9697 B( 19-C , 20-C ) :   1.5605
B( 19-C , 22-C ) :   1.0467 B( 22-C , 23-H ) :   0.9343 B( 22-C , 24-H ) :   0.9339
B( 22-C , 25-C ) :   1.0541 B( 25-C , 26-H ) :   0.9565 B( 25-C , 27-H ) :   0.9591
B( 25-C , 28-C ) :   1.0666 B( 28-C , 29-H ) :   0.9768 B( 28-C , 30-H ) :   0.9761
B( 28-C , 31-H ) :   0.9741

Dispersion correction           -0.013793204
FINAL SINGLE POINT ENERGY     -1339.850955066425

DIPOLE MOMENT
-------------
                                X             Y             Z
Electronic contribution:     15.64745      14.19369       7.48809
Nuclear contribution   :    -16.17118     -14.43194      -7.51982
                        -----------------------------------------
Total Dipole Moment    :     -0.52373      -0.23825      -0.03173
                        -----------------------------------------
Magnitude (a.u.)       :      0.57625
Magnitude (Debye)      :      1.46470

Rotational constants in cm-1:     0.018421     0.007753     0.006493
Rotational constants in MHz :   552.261670   232.428714   194.670205

                             ****ORCA TERMINATED NORMALLY****
TOTAL RUN TIME: 0 days 0 hours 0 minutes 32 seconds 199 msec
