                         Program Version 4.2.1 -  RELEASE  -
|  1> ! wB97X-D3 SP def2-SVP
|  2> %pal
|  3> nprocs 16
|  4> end
|  5>
|  6> * xyz 0 1
|  7> S 	 2.51796 	 -23.3422 	 83.7693
|  8> C 	 4.30239 	 -23.5517 	 83.8922
|  9> C 	 4.76137 	 -23.057 	 85.1074
| 10> C 	 3.7273 	 -22.4899 	 85.8647
| 11> C 	 2.4919 	 -22.4047 	 85.2073
| 12> H 	 3.78885 	 -22.1311 	 86.8495
| 13> C 	 6.19016 	 -23.2062 	 85.664
| 14> H 	 6.74378 	 -22.3 	 85.4054
| 15> H 	 6.60947 	 -24.0601 	 85.2314
| 16> C 	 6.29412 	 -23.3079 	 87.2667
| 17> H 	 7.31915 	 -23.0921 	 87.5589
| 18> H 	 5.65915 	 -22.5371 	 87.7165
| 19> C 	 5.91969 	 -24.6784 	 87.9411
| 20> H 	 6.77989 	 -25.3023 	 87.6337
| 21> H 	 5.91175 	 -24.7069 	 88.9852
| 22> H 	 4.96037 	 -25.0325 	 87.6534
| 23> S 	 -0.141856 	 -22.4727 	 85.9884
| 24> C 	 -1.04444 	 -21.01 	 86.4133
| 25> C 	 -0.263942 	 -19.9223 	 86.2166
| 26> C 	 1.08692 	 -20.2492 	 85.7329
| 27> C 	 1.35052 	 -21.5994 	 85.6041
| 28> H 	 -0.679729 	 -18.8783 	 86.1944
| 29> C 	 1.91254 	 -19.0699 	 85.2465
| 30> H 	 2.94759 	 -19.4323 	 85.295
| 31> H 	 1.84396 	 -18.1808 	 85.9991
| 32> C 	 1.72006 	 -18.6035 	 83.7623
| 33> H 	 2.42775 	 -17.8023 	 83.4592
| 34> H 	 0.702893 	 -18.2197 	 83.5212
| 35> C 	 2.04086 	 -19.7579 	 82.7009
| 36> H 	 1.98285 	 -19.4599 	 81.6543
| 37> H 	 1.36151 	 -20.5662 	 82.9043
| 38> H 	 3.1305 	 -20.0329 	 82.6394
| 39> H 	 4.95836 	 -24.1466 	 83.2186
| 40> H 	 -2.0778 	 -21.0193 	 86.7402
| 41> *
| 42>
| 43>                          ****END OF INPUT****

CARTESIAN COORDINATES (ANGSTROEM)
---------------------------------
  S      2.517960  -23.342200   83.769300
  C      4.302390  -23.551700   83.892200
  C      4.761370  -23.057000   85.107400
  C      3.727300  -22.489900   85.864700
  C      2.491900  -22.404700   85.207300
  H      3.788850  -22.131100   86.849500
  C      6.190160  -23.206200   85.664000
  H      6.743780  -22.300000   85.405400
  H      6.609470  -24.060100   85.231400
  C      6.294120  -23.307900   87.266700
  H      7.319150  -23.092100   87.558900
  H      5.659150  -22.537100   87.716500
  C      5.919690  -24.678400   87.941100
  H      6.779890  -25.302300   87.633700
  H      5.911750  -24.706900   88.985200
  H      4.960370  -25.032500   87.653400
  S     -0.141856  -22.472700   85.988400
  C     -1.044440  -21.010000   86.413300
  C     -0.263942  -19.922300   86.216600
  C      1.086920  -20.249200   85.732900
  C      1.350520  -21.599400   85.604100
  H     -0.679729  -18.878300   86.194400
  C      1.912540  -19.069900   85.246500
  H      2.947590  -19.432300   85.295000
  H      1.843960  -18.180800   85.999100
  C      1.720060  -18.603500   83.762300
  H      2.427750  -17.802300   83.459200
  H      0.702893  -18.219700   83.521200
  C      2.040860  -19.757900   82.700900
  H      1.982850  -19.459900   81.654300
  H      1.361510  -20.566200   82.904300
  H      3.130500  -20.032900   82.639400
  H      4.958360  -24.146600   83.218600
  H     -2.077800  -21.019300   86.740200

 Total Charge           Charge          ....    0
 Multiplicity           Mult            ....    1
 Number of Electrons    NEL             ....  134
 Basis Dimension        Dim             ....  322

ORBITAL ENERGIES
----------------

  NO   OCC          E(Eh)            E(eV)
   0   2.0000     -88.970373     -2421.0069
   1   2.0000     -88.959890     -2420.7217
   2   2.0000     -10.332000      -281.1480
   3   2.0000     -10.330240      -281.1001
   4   2.0000     -10.321764      -280.8695
   5   2.0000     -10.320246      -280.8282
   6   2.0000     -10.308980      -280.5216
   7   2.0000     -10.303275      -280.3664
   8   2.0000     -10.300507      -280.2910
   9   2.0000     -10.298620      -280.2397
  10   2.0000     -10.298063      -280.2245
  11   2.0000     -10.295580      -280.1570
  12   2.0000     -10.295451      -280.1535
  13   2.0000     -10.289961      -280.0041
  14   2.0000     -10.274096      -279.5724
  15   2.0000     -10.273565      -279.5579
  16   2.0000      -8.084402      -219.9878
  17   2.0000      -8.074600      -219.7210
  18   2.0000      -6.042926      -164.4364
  19   2.0000      -6.038967      -164.3287
  20   2.0000      -6.035195      -164.2260
  21   2.0000      -6.033325      -164.1751
  22   2.0000      -6.029047      -164.0587
  23   2.0000      -6.025188      -163.9537
  24   2.0000      -1.005577       -27.3631
  25   2.0000      -0.981873       -26.7181
  26   2.0000      -0.904669       -24.6173
  27   2.0000      -0.893535       -24.3143
  28   2.0000      -0.868843       -23.6424
  29   2.0000      -0.845440       -23.0056
  30   2.0000      -0.834311       -22.7028
  31   2.0000      -0.815171       -22.1819
  32   2.0000      -0.785243       -21.3675
  33   2.0000      -0.767798       -20.8928
  34   2.0000      -0.712653       -19.3923
  35   2.0000      -0.696056       -18.9406
  36   2.0000      -0.688425       -18.7330
  37   2.0000      -0.657964       -17.9041
  38   2.0000      -0.639419       -17.3995
  39   2.0000      -0.623368       -16.9627
  40   2.0000      -0.590113       -16.0578
  41   2.0000      -0.564536       -15.3618
  42   2.0000      -0.553748       -15.0682
  43   2.0000      -0.548995       -14.9389
  44   2.0000      -0.540390       -14.7048
  45   2.0000      -0.530053       -14.4235
  46   2.0000      -0.516814       -14.0632
  47   2.0000      -0.510161       -13.8822
  48   2.0000      -0.497409       -13.5352
  49   2.0000      -0.495434       -13.4814
  50   2.0000      -0.487391       -13.2626
  51   2.0000      -0.483966       -13.1694
  52   2.0000      -0.472614       -12.8605
  53   2.0000      -0.463230       -12.6051
  54   2.0000      -0.456730       -12.4283
  55   2.0000      -0.449313       -12.2264
  56   2.0000      -0.436679       -11.8826
  57   2.0000      -0.432377       -11.7656
  58   2.0000      -0.425504       -11.5786
  59   2.0000      -0.421547       -11.4709
  60   2.0000      -0.415935       -11.3182
  61   2.0000      -0.411409       -11.1950
  62   2.0000      -0.406359       -11.0576
  63   2.0000      -0.341295        -9.2871
  64   2.0000      -0.333774        -9.0825
  65   2.0000      -0.323805        -8.8112
  66   2.0000      -0.300631        -8.1806
  67   0.0000       0.030457         0.8288
  68   0.0000       0.059685         1.6241
  69   0.0000       0.104701         2.8491
  70   0.0000       0.120848         3.2884
  71   0.0000       0.128134         3.4867

MULLIKEN ATOMIC CHARGES
-----------------------
   0 S :    0.128046
   1 C :   -0.144298
   2 C :   -0.090974
   3 C :    0.057236
   4 C :   -0.159827
   5 H :   -0.008490
   6 C :    0.113424
   7 H :    0.050032
   8 H :    0.011151
   9 C :   -0.121820
  10 H :    0.028718
  11 H :    0.033152
  12 C :   -0.029393
  13 H :    0.032061
  14 H :    0.023972
  15 H :    0.035882
  16 S :    0.074247
  17 C :   -0.089336
  18 C :   -0.031903
  19 C :   -0.054106
  20 C :   -0.157926
  21 H :    0.045090
  22 C :    0.037092
  23 H :    0.023802
  24 H :    0.048709
  25 C :   -0.069354
  26 H :    0.037279
  27 H :    0.033917
  28 C :   -0.089365
  29 H :    0.025228
  30 H :    0.048729
  31 H :    0.035868
  32 H :    0.057625
  33 H :    0.065530
Sum of atomic charges:    0.0000000

LOEWDIN ATOMIC CHARGES
----------------------
   0 S :    0.418998
   1 C :   -0.194895
   2 C :   -0.063879
   3 C :   -0.056255
   4 C :   -0.206887
   5 H :    0.022777
   6 C :   -0.016377
   7 H :    0.039939
   8 H :    0.019643
   9 C :   -0.036334
  10 H :    0.023495
  11 H :    0.018818
  12 C :   -0.061579
  13 H :    0.030192
  14 H :    0.019290
  15 H :    0.022103
  16 S :    0.377443
  17 C :   -0.171616
  18 C :   -0.079743
  19 C :   -0.057987
  20 C :   -0.194174
  21 H :    0.042439
  22 C :   -0.044031
  23 H :    0.031218
  24 H :    0.041350
  25 C :   -0.040542
  26 H :    0.028281
  27 H :    0.022678
  28 C :   -0.077123
  29 H :    0.024904
  30 H :    0.017504
  31 H :    0.030859
  32 H :    0.036074
  33 H :    0.033417

  Mayer bond orders larger than 0.100000
B(  0-S ,  1-C ) :   1.1364 B(  0-S ,  4-C ) :   1.1729 B(  1-C ,  2-C ) :   1.5974
B(  1-C ,  4-C ) :   0.1102 B(  1-C , 32-H ) :   0.9651 B(  2-C ,  3-C ) :   1.2634
B(  2-C ,  6-C ) :   1.0002 B(  3-C ,  4-C ) :   1.5455 B(  3-C ,  5-H ) :   1.0044
B(  4-C , 20-C ) :   1.0199 B(  6-C ,  7-H ) :   0.9341 B(  6-C ,  8-H ) :   0.9473
B(  6-C ,  9-C ) :   1.0707 B(  9-C , 10-H ) :   0.9608 B(  9-C , 11-H ) :   0.9560
B(  9-C , 12-C ) :   1.0671 B( 12-C , 13-H ) :   0.9785 B( 12-C , 14-H ) :   0.9761
B( 12-C , 15-H ) :   0.9787 B( 16-S , 17-C ) :   1.1405 B( 16-S , 20-C ) :   1.1164
B( 17-C , 18-C ) :   1.6354 B( 17-C , 33-H ) :   0.9673 B( 18-C , 19-C ) :   1.2098
B( 18-C , 21-H ) :   0.9791 B( 19-C , 20-C ) :   1.6361 B( 19-C , 22-C ) :   1.0501
B( 22-C , 23-H ) :   0.9317 B( 22-C , 24-H ) :   0.9398 B( 22-C , 25-C ) :   1.0529
B( 25-C , 26-H ) :   0.9592 B( 25-C , 27-H ) :   0.9609 B( 25-C , 28-C ) :   1.0647
B( 28-C , 29-H ) :   0.9740 B( 28-C , 30-H ) :   0.9779 B( 28-C , 31-H ) :   0.9737

Dispersion correction           -0.015481469
FINAL SINGLE POINT ENERGY     -1339.861238557739

DIPOLE MOMENT
-------------
                                X             Y             Z
Electronic contribution:    -17.70938      -7.44043      -2.59877
Nuclear contribution   :     18.15887       7.77325       2.72313
                        -----------------------------------------
Total Dipole Moment    :      0.44948       0.33283       0.12436
                        -----------------------------------------
Magnitude (a.u.)       :      0.57295
Magnitude (Debye)      :      1.45633

Rotational constants in cm-1:     0.019886     0.008551     0.007818
Rotational constants in MHz :   596.173336   256.346269   234.376467

                             ****ORCA TERMINATED NORMALLY****
TOTAL RUN TIME: 0 days 0 hours 0 minutes 35 seconds 139 msec
