                         Program Version 4.2.1 -  RELEASE  -
|  1> ! wB97X-D3 SP def2-SVP
|  2> %pal
|  3> nprocs 16
|  4> end
|  5>
|  6> * xyz 0 1
|  7> S 	 28.649 	 8.1014 	 76.196
|  8> C 	 29.5329 	 8.72528 	 77.5075
|  9> C 	 29.5154 	 7.85443 	 78.6276
| 10> C 	 28.7097 	 6.68526 	 78.3815
| 11> C 	 28.0483 	 6.75329 	 77.1411
| 12> H 	 28.3847 	 5.90087 	 78.9608
| 13> C 	 30.286 	 8.04448 	 79.9856
| 14> H 	 29.5871 	 7.90991 	 80.8157
| 15> H 	 30.4872 	 9.08043 	 80.2125
| 16> C 	 31.4978 	 7.11551 	 80.2552
| 17> H 	 31.7293 	 6.89528 	 81.2907
| 18> H 	 31.212 	 6.19313 	 79.8219
| 19> C 	 32.8349 	 7.70473 	 79.6815
| 20> H 	 33.0637 	 8.53187 	 80.3231
| 21> H 	 33.653 	 6.96472 	 79.7056
| 22> H 	 32.6992 	 8.19415 	 78.7334
| 23> S 	 27.3244 	 5.6096 	 74.7982
| 24> C 	 26.0991 	 4.37346 	 74.7938
| 25> C 	 25.6733 	 4.11781 	 76.0536
| 26> C 	 26.2737 	 4.89244 	 77.0414
| 27> C 	 27.2685 	 5.67823 	 76.5336
| 28> H 	 24.9403 	 3.40861 	 76.2246
| 29> C 	 25.8748 	 4.73036 	 78.5202
| 30> H 	 24.7758 	 4.78098 	 78.6993
| 31> H 	 26.243 	 5.73518 	 78.9064
| 32> C 	 26.6503 	 3.60103 	 79.3023
| 33> H 	 27.6154 	 3.45797 	 78.7311
| 34> H 	 26.0104 	 2.75953 	 79.2739
| 35> C 	 26.9982 	 3.98672 	 80.6967
| 36> H 	 26.229 	 4.48933 	 81.2438
| 37> H 	 27.8888 	 4.59558 	 80.8227
| 38> H 	 27.1985 	 3.04015 	 81.2732
| 39> H 	 30.0656 	 9.65017 	 77.5869
| 40> H 	 25.6296 	 3.92137 	 73.9473
| 41> *
| 42>
| 43>                          ****END OF INPUT****

CARTESIAN COORDINATES (ANGSTROEM)
---------------------------------
  S     28.649000    8.101400   76.196000
  C     29.532900    8.725280   77.507500
  C     29.515400    7.854430   78.627600
  C     28.709700    6.685260   78.381500
  C     28.048300    6.753290   77.141100
  H     28.384700    5.900870   78.960800
  C     30.286000    8.044480   79.985600
  H     29.587100    7.909910   80.815700
  H     30.487200    9.080430   80.212500
  C     31.497800    7.115510   80.255200
  H     31.729300    6.895280   81.290700
  H     31.212000    6.193130   79.821900
  C     32.834900    7.704730   79.681500
  H     33.063700    8.531870   80.323100
  H     33.653000    6.964720   79.705600
  H     32.699200    8.194150   78.733400
  S     27.324400    5.609600   74.798200
  C     26.099100    4.373460   74.793800
  C     25.673300    4.117810   76.053600
  C     26.273700    4.892440   77.041400
  C     27.268500    5.678230   76.533600
  H     24.940300    3.408610   76.224600
  C     25.874800    4.730360   78.520200
  H     24.775800    4.780980   78.699300
  H     26.243000    5.735180   78.906400
  C     26.650300    3.601030   79.302300
  H     27.615400    3.457970   78.731100
  H     26.010400    2.759530   79.273900
  C     26.998200    3.986720   80.696700
  H     26.229000    4.489330   81.243800
  H     27.888800    4.595580   80.822700
  H     27.198500    3.040150   81.273200
  H     30.065600    9.650170   77.586900
  H     25.629600    3.921370   73.947300

 Total Charge           Charge          ....    0
 Multiplicity           Mult            ....    1
 Number of Electrons    NEL             ....  134
 Basis Dimension        Dim             ....  322

ORBITAL ENERGIES
----------------

  NO   OCC          E(Eh)            E(eV)
   0   2.0000     -88.971782     -2421.0453
   1   2.0000     -88.965307     -2420.8691
   2   2.0000     -10.330392      -281.1043
   3   2.0000     -10.323921      -280.9282
   4   2.0000     -10.315288      -280.6933
   5   2.0000     -10.312826      -280.6262
   6   2.0000     -10.309816      -280.5443
   7   2.0000     -10.299646      -280.2676
   8   2.0000     -10.296680      -280.1869
   9   2.0000     -10.295711      -280.1605
  10   2.0000     -10.292739      -280.0797
  11   2.0000     -10.291474      -280.0453
  12   2.0000     -10.284987      -279.8687
  13   2.0000     -10.279554      -279.7209
  14   2.0000     -10.279302      -279.7140
  15   2.0000     -10.274353      -279.5794
  16   2.0000      -8.086847      -220.0543
  17   2.0000      -8.080642      -219.8855
  18   2.0000      -6.045288      -164.5007
  19   2.0000      -6.041242      -164.3906
  20   2.0000      -6.039146      -164.3335
  21   2.0000      -6.037724      -164.2948
  22   2.0000      -6.035136      -164.2244
  23   2.0000      -6.031329      -164.1208
  24   2.0000      -1.014260       -27.5994
  25   2.0000      -0.988188       -26.8900
  26   2.0000      -0.909313       -24.7437
  27   2.0000      -0.903010       -24.5722
  28   2.0000      -0.872829       -23.7509
  29   2.0000      -0.859519       -23.3887
  30   2.0000      -0.846647       -23.0384
  31   2.0000      -0.814768       -22.1710
  32   2.0000      -0.781392       -21.2628
  33   2.0000      -0.773159       -21.0387
  34   2.0000      -0.709179       -19.2977
  35   2.0000      -0.700084       -19.0503
  36   2.0000      -0.696718       -18.9587
  37   2.0000      -0.670822       -18.2540
  38   2.0000      -0.648550       -17.6479
  39   2.0000      -0.619071       -16.8458
  40   2.0000      -0.595806       -16.2127
  41   2.0000      -0.571159       -15.5420
  42   2.0000      -0.568080       -15.4583
  43   2.0000      -0.549484       -14.9522
  44   2.0000      -0.531913       -14.4741
  45   2.0000      -0.525187       -14.2911
  46   2.0000      -0.521444       -14.1892
  47   2.0000      -0.512141       -13.9361
  48   2.0000      -0.505073       -13.7437
  49   2.0000      -0.500361       -13.6155
  50   2.0000      -0.494162       -13.4468
  51   2.0000      -0.484128       -13.1738
  52   2.0000      -0.477005       -12.9800
  53   2.0000      -0.471049       -12.8179
  54   2.0000      -0.457805       -12.4575
  55   2.0000      -0.451988       -12.2992
  56   2.0000      -0.442642       -12.0449
  57   2.0000      -0.433078       -11.7846
  58   2.0000      -0.427120       -11.6225
  59   2.0000      -0.424866       -11.5612
  60   2.0000      -0.419900       -11.4261
  61   2.0000      -0.417558       -11.3623
  62   2.0000      -0.412576       -11.2268
  63   2.0000      -0.360134        -9.7997
  64   2.0000      -0.336770        -9.1640
  65   2.0000      -0.330391        -8.9904
  66   2.0000      -0.284043        -7.7292
  67   0.0000       0.023896         0.6503
  68   0.0000       0.078500         2.1361
  69   0.0000       0.104654         2.8478
  70   0.0000       0.118681         3.2295
  71   0.0000       0.131691         3.5835

MULLIKEN ATOMIC CHARGES
-----------------------
   0 S :    0.119756
   1 C :   -0.088963
   2 C :   -0.082971
   3 C :    0.074507
   4 C :   -0.139923
   5 H :   -0.064103
   6 C :    0.048624
   7 H :    0.022173
   8 H :    0.005219
   9 C :   -0.040602
  10 H :    0.027359
  11 H :    0.018186
  12 C :   -0.046339
  13 H :    0.016725
  14 H :    0.043996
  15 H :    0.027350
  16 S :    0.092520
  17 C :   -0.069064
  18 C :    0.006791
  19 C :   -0.061298
  20 C :   -0.134397
  21 H :   -0.018447
  22 C :   -0.006718
  23 H :    0.044521
  24 H :    0.029543
  25 C :   -0.028866
  26 H :    0.053148
  27 H :    0.027379
  28 C :   -0.066517
  29 H :    0.029341
  30 H :    0.041266
  31 H :    0.035105
  32 H :    0.040559
  33 H :    0.044140
Sum of atomic charges:    0.0000000

LOEWDIN ATOMIC CHARGES
----------------------
   0 S :    0.429737
   1 C :   -0.214723
   2 C :   -0.054076
   3 C :   -0.055345
   4 C :   -0.187069
   5 H :    0.013071
   6 C :   -0.037401
   7 H :    0.033394
   8 H :    0.023380
   9 C :   -0.034024
  10 H :    0.024393
  11 H :    0.016496
  12 C :   -0.062574
  13 H :    0.020449
  14 H :    0.028577
  15 H :    0.021236
  16 S :    0.407727
  17 C :   -0.180584
  18 C :   -0.063411
  19 C :   -0.064860
  20 C :   -0.196231
  21 H :    0.019685
  22 C :   -0.040531
  23 H :    0.034136
  24 H :    0.033100
  25 C :   -0.039245
  26 H :    0.037791
  27 H :    0.021141
  28 C :   -0.070650
  29 H :    0.021648
  30 H :    0.023817
  31 H :    0.035213
  32 H :    0.028275
  33 H :    0.027457

  Mayer bond orders larger than 0.100000
B(  0-S ,  1-C ) :   1.1574 B(  0-S ,  4-C ) :   1.1532 B(  1-C ,  2-C ) :   1.5837
B(  1-C , 32-H ) :   0.9688 B(  2-C ,  3-C ) :   1.2447 B(  2-C ,  6-C ) :   1.0234
B(  3-C ,  4-C ) :   1.5427 B(  3-C ,  5-H ) :   1.0026 B(  4-C , 20-C ) :   1.0616
B(  6-C ,  7-H ) :   0.9400 B(  6-C ,  8-H ) :   0.9459 B(  6-C ,  9-C ) :   1.0551
B(  9-C , 10-H ) :   0.9599 B(  9-C , 11-H ) :   0.9591 B(  9-C , 12-C ) :   1.0688
B( 12-C , 13-H ) :   0.9766 B( 12-C , 14-H ) :   0.9761 B( 12-C , 15-H ) :   0.9797
B( 16-S , 17-C ) :   1.1458 B( 16-S , 20-C ) :   1.1343 B( 17-C , 18-C ) :   1.6102
B( 17-C , 33-H ) :   0.9689 B( 18-C , 19-C ) :   1.2585 B( 18-C , 21-H ) :   1.0051
B( 19-C , 20-C ) :   1.5953 B( 19-C , 22-C ) :   1.0356 B( 22-C , 23-H ) :   0.9383
B( 22-C , 24-H ) :   0.9406 B( 22-C , 25-C ) :   1.0290 B( 25-C , 26-H ) :   0.9574
B( 25-C , 27-H ) :   0.9551 B( 25-C , 28-C ) :   1.0915 B( 28-C , 29-H ) :   0.9720
B( 28-C , 30-H ) :   0.9709 B( 28-C , 31-H ) :   0.9682

Dispersion correction           -0.014597784
FINAL SINGLE POINT ENERGY     -1339.862449619573

DIPOLE MOMENT
-------------
                                X             Y             Z
Electronic contribution:     -9.24908       5.87743     -27.91457
Nuclear contribution   :      9.09907      -6.11639      28.54313
                        -----------------------------------------
Total Dipole Moment    :     -0.15002      -0.23896       0.62855
                        -----------------------------------------
Magnitude (a.u.)       :      0.68897
Magnitude (Debye)      :      1.75123

Rotational constants in cm-1:     0.018459     0.009334     0.006769
Rotational constants in MHz :   553.394936   279.821240   202.942877

                             ****ORCA TERMINATED NORMALLY****
TOTAL RUN TIME: 0 days 0 hours 0 minutes 33 seconds 538 msec
