                         Program Version 4.2.1 -  RELEASE  -
|  1> ! wB97X-D3 SP def2-SVP
|  2> %pal
|  3> nprocs 16
|  4> end
|  5>
|  6> * xyz 0 1
|  7> S 	 -79.4269 	 51.6488 	 137.554
|  8> C 	 -80.9293 	 50.9848 	 137.016
|  9> C 	 -81.4228 	 51.74 	 135.944
| 10> C 	 -80.5544 	 52.7475 	 135.458
| 11> C 	 -79.4046 	 52.7364 	 136.096
| 12> H 	 -80.7021 	 53.4082 	 134.533
| 13> C 	 -82.821 	 51.4472 	 135.449
| 14> H 	 -83.0804 	 50.4275 	 135.678
| 15> H 	 -82.9039 	 51.6294 	 134.368
| 16> C 	 -83.9522 	 52.2554 	 136.118
| 17> H 	 -83.9236 	 52.1614 	 137.225
| 18> H 	 -83.9361 	 53.335 	 135.89
| 19> C 	 -85.3813 	 51.7184 	 135.666
| 20> H 	 -85.5487 	 50.6354 	 135.522
| 21> H 	 -86.1513 	 52.0718 	 136.42
| 22> H 	 -85.6044 	 52.2783 	 134.769
| 23> S 	 -77.6375 	 53.6714 	 134.281
| 24> C 	 -76.6148 	 54.9941 	 134.678
| 25> C 	 -76.6744 	 55.4052 	 136.018
| 26> C 	 -77.6145 	 54.6074 	 136.75
| 27> C 	 -78.3401 	 53.6886 	 135.883
| 28> H 	 -76.0124 	 56.0851 	 136.434
| 29> C 	 -77.9936 	 54.9484 	 138.184
| 30> H 	 -77.2276 	 54.4987 	 138.812
| 31> H 	 -79.0213 	 54.5577 	 138.433
| 32> C 	 -78.1023 	 56.3859 	 138.619
| 33> H 	 -77.2352 	 56.937 	 138.453
| 34> H 	 -78.2211 	 56.4384 	 139.668
| 35> C 	 -79.3654 	 57.0837 	 138.085
| 36> H 	 -79.4101 	 58.113 	 138.377
| 37> H 	 -80.332 	 56.6069 	 138.425
| 38> H 	 -79.3882 	 57.261 	 136.969
| 39> H 	 -81.3823 	 50.1988 	 137.577
| 40> H 	 -75.8958 	 55.3307 	 133.949
| 41> *
| 42>
| 43>                          ****END OF INPUT****

CARTESIAN COORDINATES (ANGSTROEM)
---------------------------------
  S    -79.426900   51.648800  137.554000
  C    -80.929300   50.984800  137.016000
  C    -81.422800   51.740000  135.944000
  C    -80.554400   52.747500  135.458000
  C    -79.404600   52.736400  136.096000
  H    -80.702100   53.408200  134.533000
  C    -82.821000   51.447200  135.449000
  H    -83.080400   50.427500  135.678000
  H    -82.903900   51.629400  134.368000
  C    -83.952200   52.255400  136.118000
  H    -83.923600   52.161400  137.225000
  H    -83.936100   53.335000  135.890000
  C    -85.381300   51.718400  135.666000
  H    -85.548700   50.635400  135.522000
  H    -86.151300   52.071800  136.420000
  H    -85.604400   52.278300  134.769000
  S    -77.637500   53.671400  134.281000
  C    -76.614800   54.994100  134.678000
  C    -76.674400   55.405200  136.018000
  C    -77.614500   54.607400  136.750000
  C    -78.340100   53.688600  135.883000
  H    -76.012400   56.085100  136.434000
  C    -77.993600   54.948400  138.184000
  H    -77.227600   54.498700  138.812000
  H    -79.021300   54.557700  138.433000
  C    -78.102300   56.385900  138.619000
  H    -77.235200   56.937000  138.453000
  H    -78.221100   56.438400  139.668000
  C    -79.365400   57.083700  138.085000
  H    -79.410100   58.113000  138.377000
  H    -80.332000   56.606900  138.425000
  H    -79.388200   57.261000  136.969000
  H    -81.382300   50.198800  137.577000
  H    -75.895800   55.330700  133.949000

 Total Charge           Charge          ....    0
 Multiplicity           Mult            ....    1
 Number of Electrons    NEL             ....  134
 Basis Dimension        Dim             ....  322

ORBITAL ENERGIES
----------------

  NO   OCC          E(Eh)            E(eV)
   0   2.0000     -88.968555     -2420.9575
   1   2.0000     -88.962215     -2420.7849
   2   2.0000     -10.327567      -281.0274
   3   2.0000     -10.325349      -280.9670
   4   2.0000     -10.315096      -280.6880
   5   2.0000     -10.312899      -280.6282
   6   2.0000     -10.309433      -280.5339
   7   2.0000     -10.301250      -280.3113
   8   2.0000     -10.295457      -280.1536
   9   2.0000     -10.292994      -280.0866
  10   2.0000     -10.291562      -280.0476
  11   2.0000     -10.289568      -279.9934
  12   2.0000     -10.289185      -279.9829
  13   2.0000     -10.283845      -279.8377
  14   2.0000     -10.277491      -279.6648
  15   2.0000     -10.276434      -279.6360
  16   2.0000      -8.083582      -219.9655
  17   2.0000      -8.076541      -219.7738
  18   2.0000      -6.041777      -164.4051
  19   2.0000      -6.038027      -164.3031
  20   2.0000      -6.035024      -164.2214
  21   2.0000      -6.034701      -164.2126
  22   2.0000      -6.031221      -164.1179
  23   2.0000      -6.027229      -164.0092
  24   2.0000      -1.006217       -27.3806
  25   2.0000      -0.982101       -26.7243
  26   2.0000      -0.911615       -24.8063
  27   2.0000      -0.903755       -24.5924
  28   2.0000      -0.872623       -23.7453
  29   2.0000      -0.848001       -23.0753
  30   2.0000      -0.845067       -22.9955
  31   2.0000      -0.812976       -22.1222
  32   2.0000      -0.780089       -21.2273
  33   2.0000      -0.760374       -20.6908
  34   2.0000      -0.709110       -19.2959
  35   2.0000      -0.694204       -18.8903
  36   2.0000      -0.689096       -18.7513
  37   2.0000      -0.663802       -18.0630
  38   2.0000      -0.640859       -17.4386
  39   2.0000      -0.619522       -16.8580
  40   2.0000      -0.600059       -16.3284
  41   2.0000      -0.566023       -15.4023
  42   2.0000      -0.557994       -15.1838
  43   2.0000      -0.554473       -15.0880
  44   2.0000      -0.541304       -14.7296
  45   2.0000      -0.519699       -14.1417
  46   2.0000      -0.516159       -14.0454
  47   2.0000      -0.509776       -13.8717
  48   2.0000      -0.502925       -13.6853
  49   2.0000      -0.492097       -13.3906
  50   2.0000      -0.488090       -13.2816
  51   2.0000      -0.473185       -12.8760
  52   2.0000      -0.469072       -12.7641
  53   2.0000      -0.463014       -12.5993
  54   2.0000      -0.457002       -12.4357
  55   2.0000      -0.447657       -12.1814
  56   2.0000      -0.441944       -12.0259
  57   2.0000      -0.435876       -11.8608
  58   2.0000      -0.434494       -11.8232
  59   2.0000      -0.423070       -11.5123
  60   2.0000      -0.421518       -11.4701
  61   2.0000      -0.411544       -11.1987
  62   2.0000      -0.408861       -11.1257
  63   2.0000      -0.353546        -9.6205
  64   2.0000      -0.334179        -9.0935
  65   2.0000      -0.321927        -8.7601
  66   2.0000      -0.284918        -7.7530
  67   0.0000       0.030655         0.8342
  68   0.0000       0.066777         1.8171
  69   0.0000       0.102662         2.7936
  70   0.0000       0.116277         3.1641
  71   0.0000       0.129305         3.5186

MULLIKEN ATOMIC CHARGES
-----------------------
   0 S :    0.098081
   1 C :   -0.117652
   2 C :   -0.064271
   3 C :   -0.003259
   4 C :   -0.115361
   5 H :    0.053982
   6 C :    0.077640
   7 H :    0.014856
   8 H :    0.024985
   9 C :   -0.096059
  10 H :    0.031273
  11 H :    0.034959
  12 C :   -0.088607
  13 H :    0.045536
  14 H :    0.039925
  15 H :    0.032686
  16 S :    0.120155
  17 C :   -0.093538
  18 C :   -0.009828
  19 C :   -0.020035
  20 C :   -0.198468
  21 H :   -0.002074
  22 C :    0.045652
  23 H :    0.035530
  24 H :    0.033460
  25 C :   -0.018912
  26 H :    0.003678
  27 H :    0.017506
  28 C :   -0.087300
  29 H :    0.018585
  30 H :    0.043074
  31 H :    0.040050
  32 H :    0.047423
  33 H :    0.056327
Sum of atomic charges:   -0.0000000

LOEWDIN ATOMIC CHARGES
----------------------
   0 S :    0.382418
   1 C :   -0.192118
   2 C :   -0.062597
   3 C :   -0.069351
   4 C :   -0.175119
   5 H :    0.052982
   6 C :   -0.033574
   7 H :    0.028388
   8 H :    0.029221
   9 C :   -0.039835
  10 H :    0.021711
  11 H :    0.024649
  12 C :   -0.077430
  13 H :    0.026007
  14 H :    0.032833
  15 H :    0.022514
  16 S :    0.435044
  17 C :   -0.194767
  18 C :   -0.062457
  19 C :   -0.051015
  20 C :   -0.202539
  21 H :    0.021028
  22 C :   -0.038940
  23 H :    0.034250
  24 H :    0.034026
  25 C :   -0.037945
  26 H :    0.012137
  27 H :    0.026324
  28 C :   -0.074970
  29 H :    0.020348
  30 H :    0.031320
  31 H :    0.031130
  32 H :    0.023200
  33 H :    0.023129

  Mayer bond orders larger than 0.100000
B(  0-S ,  1-C ) :   1.1381 B(  0-S ,  4-C ) :   1.1158 B(  1-C ,  2-C ) :   1.5960
B(  1-C , 32-H ) :   0.9783 B(  2-C ,  3-C ) :   1.2217 B(  2-C ,  6-C ) :   1.0410
B(  3-C ,  4-C ) :   1.6123 B(  3-C ,  5-H ) :   0.9786 B(  4-C , 20-C ) :   1.0379
B(  6-C ,  7-H ) :   0.9402 B(  6-C ,  8-H ) :   0.9413 B(  6-C ,  9-C ) :   1.0589
B(  9-C , 10-H ) :   0.9625 B(  9-C , 11-H ) :   0.9580 B(  9-C , 12-C ) :   1.0620
B( 12-C , 13-H ) :   0.9778 B( 12-C , 14-H ) :   0.9772 B( 12-C , 15-H ) :   0.9804
B( 16-S , 17-C ) :   1.1828 B( 16-S , 20-C ) :   1.1726 B( 17-C , 18-C ) :   1.5583
B( 17-C , 20-C ) :   0.1090 B( 17-C , 33-H ) :   0.9680 B( 18-C , 19-C ) :   1.2762
B( 18-C , 21-H ) :   1.0007 B( 19-C , 20-C ) :   1.5218 B( 19-C , 22-C ) :   1.0376
B( 22-C , 23-H ) :   0.9211 B( 22-C , 24-H ) :   0.9430 B( 22-C , 25-C ) :   1.0986
B( 25-C , 26-H ) :   0.9438 B( 25-C , 27-H ) :   0.9453 B( 25-C , 28-C ) :   1.0809
B( 28-C , 29-H ) :   0.9719 B( 28-C , 30-H ) :   0.9724 B( 28-C , 31-H ) :   0.9751

Dispersion correction           -0.014010487
FINAL SINGLE POINT ENERGY     -1339.866099429714

DIPOLE MOMENT
-------------
                                X             Y             Z
Electronic contribution:     20.73361      -9.76318      -7.16856
Nuclear contribution   :    -20.98588      10.07249       7.29877
                        -----------------------------------------
Total Dipole Moment    :     -0.25226       0.30931       0.13021
                        -----------------------------------------
Magnitude (a.u.)       :      0.41984
Magnitude (Debye)      :      1.06714

Rotational constants in cm-1:     0.020043     0.007523     0.006805
Rotational constants in MHz :   600.880565   225.545345   203.997272

                             ****ORCA TERMINATED NORMALLY****
TOTAL RUN TIME: 0 days 0 hours 0 minutes 32 seconds 738 msec
