                         Program Version 4.2.1 -  RELEASE  -
|  1> ! wB97X-D3 SP def2-SVP
|  2> %pal
|  3> nprocs 16
|  4> end
|  5>
|  6> * xyz 0 1
|  7> S 	 -42.7855 	 24.2944 	 78.8588
|  8> C 	 -43.4285 	 23.1029 	 79.9743
|  9> C 	 -42.462 	 22.163 	 80.3081
| 10> C 	 -41.2855 	 22.3324 	 79.5418
| 11> C 	 -41.2298 	 23.4453 	 78.8117
| 12> H 	 -40.367 	 21.7206 	 79.4997
| 13> C 	 -42.5908 	 21.1383 	 81.4532
| 14> H 	 -43.2068 	 21.5309 	 82.2014
| 15> H 	 -41.6689 	 21.0517 	 81.9201
| 16> C 	 -43.3974 	 19.9022 	 81.0052
| 17> H 	 -43.7919 	 19.3629 	 81.8787
| 18> H 	 -44.3259 	 20.2924 	 80.5931
| 19> C 	 -42.7308 	 18.9527 	 80.0783
| 20> H 	 -41.9382 	 18.3584 	 80.5512
| 21> H 	 -43.547 	 18.275 	 79.723
| 22> H 	 -42.3114 	 19.5033 	 79.2013
| 23> S 	 -40.1773 	 23.5171 	 76.3225
| 24> C 	 -38.5664 	 24.1649 	 75.9927
| 25> C 	 -37.9882 	 24.5364 	 77.1944
| 26> C 	 -38.9103 	 24.3815 	 78.2806
| 27> C 	 -40.1399 	 23.9001 	 77.9986
| 28> H 	 -36.976 	 24.8472 	 77.1829
| 29> C 	 -38.4775 	 24.8064 	 79.7076
| 30> H 	 -37.4652 	 25.2115 	 79.6777
| 31> H 	 -38.3558 	 23.8957 	 80.3161
| 32> C 	 -39.3196 	 25.9305 	 80.3275
| 33> H 	 -40.385 	 25.6273 	 80.5948
| 34> H 	 -39.4016 	 26.5445 	 79.4458
| 35> C 	 -38.7228 	 26.7276 	 81.5471
| 36> H 	 -38.5644 	 26.0672 	 82.3663
| 37> H 	 -39.3743 	 27.449 	 81.9968
| 38> H 	 -37.7991 	 27.2579 	 81.2792
| 39> H 	 -44.4032 	 23.1819 	 80.4466
| 40> H 	 -37.984 	 23.9672 	 75.1235
| 41> *
| 42>
| 43>                          ****END OF INPUT****

CARTESIAN COORDINATES (ANGSTROEM)
---------------------------------
  S    -42.785500   24.294400   78.858800
  C    -43.428500   23.102900   79.974300
  C    -42.462000   22.163000   80.308100
  C    -41.285500   22.332400   79.541800
  C    -41.229800   23.445300   78.811700
  H    -40.367000   21.720600   79.499700
  C    -42.590800   21.138300   81.453200
  H    -43.206800   21.530900   82.201400
  H    -41.668900   21.051700   81.920100
  C    -43.397400   19.902200   81.005200
  H    -43.791900   19.362900   81.878700
  H    -44.325900   20.292400   80.593100
  C    -42.730800   18.952700   80.078300
  H    -41.938200   18.358400   80.551200
  H    -43.547000   18.275000   79.723000
  H    -42.311400   19.503300   79.201300
  S    -40.177300   23.517100   76.322500
  C    -38.566400   24.164900   75.992700
  C    -37.988200   24.536400   77.194400
  C    -38.910300   24.381500   78.280600
  C    -40.139900   23.900100   77.998600
  H    -36.976000   24.847200   77.182900
  C    -38.477500   24.806400   79.707600
  H    -37.465200   25.211500   79.677700
  H    -38.355800   23.895700   80.316100
  C    -39.319600   25.930500   80.327500
  H    -40.385000   25.627300   80.594800
  H    -39.401600   26.544500   79.445800
  C    -38.722800   26.727600   81.547100
  H    -38.564400   26.067200   82.366300
  H    -39.374300   27.449000   81.996800
  H    -37.799100   27.257900   81.279200
  H    -44.403200   23.181900   80.446600
  H    -37.984000   23.967200   75.123500

 Total Charge           Charge          ....    0
 Multiplicity           Mult            ....    1
 Number of Electrons    NEL             ....  134
 Basis Dimension        Dim             ....  322

ORBITAL ENERGIES
----------------

  NO   OCC          E(Eh)            E(eV)
   0   2.0000     -88.965442     -2420.8727
   1   2.0000     -88.961237     -2420.7583
   2   2.0000     -10.324579      -280.9461
   3   2.0000     -10.319899      -280.8187
   4   2.0000     -10.317306      -280.7482
   5   2.0000     -10.317236      -280.7463
   6   2.0000     -10.302735      -280.3517
   7   2.0000     -10.302242      -280.3383
   8   2.0000     -10.294207      -280.1196
   9   2.0000     -10.292004      -280.0597
  10   2.0000     -10.289601      -279.9943
  11   2.0000     -10.285600      -279.8854
  12   2.0000     -10.284265      -279.8491
  13   2.0000     -10.283849      -279.8377
  14   2.0000     -10.277875      -279.6752
  15   2.0000     -10.274370      -279.5798
  16   2.0000      -8.079747      -219.8611
  17   2.0000      -8.076541      -219.7739
  18   2.0000      -6.038277      -164.3099
  19   2.0000      -6.035037      -164.2217
  20   2.0000      -6.034321      -164.2022
  21   2.0000      -6.030842      -164.1075
  22   2.0000      -6.030487      -164.0979
  23   2.0000      -6.027367      -164.0130
  24   2.0000      -1.013859       -27.5885
  25   2.0000      -0.988454       -26.8972
  26   2.0000      -0.914493       -24.8846
  27   2.0000      -0.898556       -24.4510
  28   2.0000      -0.876616       -23.8539
  29   2.0000      -0.848762       -23.0960
  30   2.0000      -0.841122       -22.8881
  31   2.0000      -0.822868       -22.3914
  32   2.0000      -0.785676       -21.3793
  33   2.0000      -0.773518       -21.0485
  34   2.0000      -0.707839       -19.2613
  35   2.0000      -0.699417       -19.0321
  36   2.0000      -0.689314       -18.7572
  37   2.0000      -0.668159       -18.1815
  38   2.0000      -0.649445       -17.6723
  39   2.0000      -0.616661       -16.7802
  40   2.0000      -0.588698       -16.0193
  41   2.0000      -0.577498       -15.7145
  42   2.0000      -0.559107       -15.2141
  43   2.0000      -0.548288       -14.9197
  44   2.0000      -0.544257       -14.8100
  45   2.0000      -0.524899       -14.2832
  46   2.0000      -0.520892       -14.1742
  47   2.0000      -0.511827       -13.9275
  48   2.0000      -0.508545       -13.8382
  49   2.0000      -0.501416       -13.6442
  50   2.0000      -0.489099       -13.3091
  51   2.0000      -0.482328       -13.1248
  52   2.0000      -0.477469       -12.9926
  53   2.0000      -0.468382       -12.7453
  54   2.0000      -0.460158       -12.5215
  55   2.0000      -0.442150       -12.0315
  56   2.0000      -0.440220       -11.9790
  57   2.0000      -0.434858       -11.8331
  58   2.0000      -0.424153       -11.5418
  59   2.0000      -0.423338       -11.5196
  60   2.0000      -0.412976       -11.2377
  61   2.0000      -0.410408       -11.1678
  62   2.0000      -0.407434       -11.0869
  63   2.0000      -0.343886        -9.3576
  64   2.0000      -0.329775        -8.9736
  65   2.0000      -0.324925        -8.8417
  66   2.0000      -0.311061        -8.4644
  67   0.0000       0.042556         1.1580
  68   0.0000       0.052712         1.4344
  69   0.0000       0.117919         3.2087
  70   0.0000       0.123279         3.3546
  71   0.0000       0.132864         3.6154

MULLIKEN ATOMIC CHARGES
-----------------------
   0 S :    0.111006
   1 C :   -0.117247
   2 C :   -0.112095
   3 C :    0.052826
   4 C :   -0.196679
   5 H :    0.023363
   6 C :    0.140768
   7 H :   -0.000117
   8 H :    0.010284
   9 C :   -0.076561
  10 H :    0.021241
  11 H :    0.014753
  12 C :   -0.049877
  13 H :    0.036575
  14 H :    0.039253
  15 H :    0.042147
  16 S :    0.099809
  17 C :   -0.080675
  18 C :   -0.034313
  19 C :   -0.062712
  20 C :   -0.137649
  21 H :    0.013165
  22 C :    0.102603
  23 H :    0.001418
  24 H :    0.026740
  25 C :   -0.103014
  26 H :    0.046448
  27 H :    0.029115
  28 C :   -0.032024
  29 H :    0.022274
  30 H :    0.027101
  31 H :    0.032937
  32 H :    0.052493
  33 H :    0.056641
Sum of atomic charges:    0.0000000

LOEWDIN ATOMIC CHARGES
----------------------
   0 S :    0.394489
   1 C :   -0.189203
   2 C :   -0.061205
   3 C :   -0.061685
   4 C :   -0.190859
   5 H :    0.041088
   6 C :   -0.019277
   7 H :    0.027242
   8 H :    0.020571
   9 C :   -0.043539
  10 H :    0.022451
  11 H :    0.023875
  12 C :   -0.071406
  13 H :    0.025245
  14 H :    0.033883
  15 H :    0.030104
  16 S :    0.416066
  17 C :   -0.175206
  18 C :   -0.067437
  19 C :   -0.058230
  20 C :   -0.213749
  21 H :    0.028891
  22 C :   -0.032895
  23 H :    0.026114
  24 H :    0.026329
  25 C :   -0.046601
  26 H :    0.028282
  27 H :    0.023015
  28 C :   -0.066226
  29 H :    0.021337
  30 H :    0.026188
  31 H :    0.025650
  32 H :    0.029088
  33 H :    0.027610

  Mayer bond orders larger than 0.100000
B(  0-S ,  1-C ) :   1.1432 B(  0-S ,  4-C ) :   1.1253 B(  1-C ,  2-C ) :   1.6269
B(  1-C ,  4-C ) :   0.1012 B(  1-C , 32-H ) :   0.9647 B(  2-C ,  3-C ) :   1.2040
B(  2-C ,  6-C ) :   1.0135 B(  3-C ,  4-C ) :   1.6494 B(  3-C ,  5-H ) :   0.9876
B(  4-C , 20-C ) :   1.0055 B(  6-C ,  7-H ) :   0.9301 B(  6-C ,  8-H ) :   0.9494
B(  6-C ,  9-C ) :   1.0659 B(  9-C , 10-H ) :   0.9520 B(  9-C , 11-H ) :   0.9520
B(  9-C , 12-C ) :   1.0894 B( 12-C , 13-H ) :   0.9748 B( 12-C , 14-H ) :   0.9699
B( 12-C , 15-H ) :   0.9719 B( 16-S , 17-C ) :   1.1667 B( 16-S , 20-C ) :   1.1456
B( 17-C , 18-C ) :   1.6011 B( 17-C , 33-H ) :   0.9662 B( 18-C , 19-C ) :   1.2474
B( 18-C , 21-H ) :   0.9989 B( 19-C , 20-C ) :   1.6166 B( 19-C , 22-C ) :   1.0411
B( 22-C , 23-H ) :   0.9354 B( 22-C , 24-H ) :   0.9268 B( 22-C , 25-C ) :   1.0471
B( 25-C , 26-H ) :   0.9532 B( 25-C , 27-H ) :   0.9588 B( 25-C , 28-C ) :   1.0843
B( 28-C , 29-H ) :   0.9753 B( 28-C , 30-H ) :   0.9748 B( 28-C , 31-H ) :   0.9749

Dispersion correction           -0.014784871
FINAL SINGLE POINT ENERGY     -1339.870252072475

DIPOLE MOMENT
-------------
                                X             Y             Z
Electronic contribution:     -3.30524       6.35629     -19.71737
Nuclear contribution   :      3.60722      -6.64204      20.28106
                        -----------------------------------------
Total Dipole Moment    :      0.30198      -0.28575       0.56368
                        -----------------------------------------
Magnitude (a.u.)       :      0.70042
Magnitude (Debye)      :      1.78033

Rotational constants in cm-1:     0.018198     0.008749     0.007324
Rotational constants in MHz :   545.556075   262.279519   219.582673

                             ****ORCA TERMINATED NORMALLY****
TOTAL RUN TIME: 0 days 0 hours 0 minutes 28 seconds 791 msec
