                         Program Version 4.2.1 -  RELEASE  -
|  1> ! wB97X-D3 SP def2-SVP
|  2> %pal
|  3> nprocs 16
|  4> end
|  5>
|  6> * xyz 0 1
|  7> S 	 -32.0919 	 39.3204 	 101.475
|  8> C 	 -32.7056 	 37.9675 	 100.537
|  9> C 	 -32.2679 	 38.0266 	 99.2151
| 10> C 	 -31.7376 	 39.2811 	 98.8812
| 11> C 	 -31.6034 	 40.0763 	 99.9555
| 12> H 	 -31.3611 	 39.5878 	 97.8949
| 13> C 	 -32.4659 	 36.8561 	 98.2895
| 14> H 	 -32.5306 	 35.9664 	 98.838
| 15> H 	 -31.5544 	 36.8001 	 97.703
| 16> C 	 -33.7232 	 36.906 	 97.4473
| 17> H 	 -34.5507 	 36.7661 	 98.1565
| 18> H 	 -33.8193 	 37.9248 	 96.9807
| 19> C 	 -33.7188 	 35.7397 	 96.4198
| 20> H 	 -34.6204 	 35.3978 	 96.0555
| 21> H 	 -33.1144 	 36.0129 	 95.5901
| 22> H 	 -33.2081 	 34.8305 	 96.9187
| 23> S 	 -29.5735 	 41.5375 	 98.8532
| 24> C 	 -29.2355 	 43.1477 	 99.5231
| 25> C 	 -30.2872 	 43.5635 	 100.275
| 26> C 	 -31.2162 	 42.5515 	 100.565
| 27> C 	 -30.8986 	 41.3377 	 99.9779
| 28> H 	 -30.3207 	 44.5308 	 100.626
| 29> C 	 -32.557 	 42.8526 	 101.29
| 30> H 	 -32.6002 	 43.7597 	 101.927
| 31> H 	 -32.7638 	 42.1174 	 102.042
| 32> C 	 -33.6471 	 42.9682 	 100.266
| 33> H 	 -33.7569 	 41.9815 	 99.8049
| 34> H 	 -33.3317 	 43.7581 	 99.5856
| 35> C 	 -35.0632 	 43.3589 	 100.752
| 36> H 	 -35.7096 	 43.4364 	 99.8949
| 37> H 	 -35.1372 	 44.3329 	 101.233
| 38> H 	 -35.4403 	 42.6248 	 101.502
| 39> H 	 -33.0095 	 37.1157 	 101.023
| 40> H 	 -28.4945 	 43.8474 	 99.301
| 41> *
| 42>
| 43>                          ****END OF INPUT****

CARTESIAN COORDINATES (ANGSTROEM)
---------------------------------
  S    -32.091900   39.320400  101.475000
  C    -32.705600   37.967500  100.537000
  C    -32.267900   38.026600   99.215100
  C    -31.737600   39.281100   98.881200
  C    -31.603400   40.076300   99.955500
  H    -31.361100   39.587800   97.894900
  C    -32.465900   36.856100   98.289500
  H    -32.530600   35.966400   98.838000
  H    -31.554400   36.800100   97.703000
  C    -33.723200   36.906000   97.447300
  H    -34.550700   36.766100   98.156500
  H    -33.819300   37.924800   96.980700
  C    -33.718800   35.739700   96.419800
  H    -34.620400   35.397800   96.055500
  H    -33.114400   36.012900   95.590100
  H    -33.208100   34.830500   96.918700
  S    -29.573500   41.537500   98.853200
  C    -29.235500   43.147700   99.523100
  C    -30.287200   43.563500  100.275000
  C    -31.216200   42.551500  100.565000
  C    -30.898600   41.337700   99.977900
  H    -30.320700   44.530800  100.626000
  C    -32.557000   42.852600  101.290000
  H    -32.600200   43.759700  101.927000
  H    -32.763800   42.117400  102.042000
  C    -33.647100   42.968200  100.266000
  H    -33.756900   41.981500   99.804900
  H    -33.331700   43.758100   99.585600
  C    -35.063200   43.358900  100.752000
  H    -35.709600   43.436400   99.894900
  H    -35.137200   44.332900  101.233000
  H    -35.440300   42.624800  101.502000
  H    -33.009500   37.115700  101.023000
  H    -28.494500   43.847400   99.301000

 Total Charge           Charge          ....    0
 Multiplicity           Mult            ....    1
 Number of Electrons    NEL             ....  134
 Basis Dimension        Dim             ....  322

ORBITAL ENERGIES
----------------

  NO   OCC          E(Eh)            E(eV)
   0   2.0000     -88.967062     -2420.9168
   1   2.0000     -88.967028     -2420.9159
   2   2.0000     -10.326777      -281.0059
   3   2.0000     -10.323675      -280.9215
   4   2.0000     -10.311625      -280.5936
   5   2.0000     -10.306074      -280.4425
   6   2.0000     -10.301287      -280.3123
   7   2.0000     -10.299684      -280.2687
   8   2.0000     -10.291104      -280.0352
   9   2.0000     -10.290268      -280.0124
  10   2.0000     -10.286809      -279.9183
  11   2.0000     -10.283950      -279.8405
  12   2.0000     -10.283154      -279.8189
  13   2.0000     -10.278573      -279.6942
  14   2.0000     -10.277233      -279.6577
  15   2.0000     -10.274253      -279.5766
  16   2.0000      -8.081387      -219.9057
  17   2.0000      -8.081156      -219.8994
  18   2.0000      -6.039795      -164.3512
  19   2.0000      -6.039763      -164.3503
  20   2.0000      -6.036184      -164.2529
  21   2.0000      -6.035943      -164.2464
  22   2.0000      -6.032058      -164.1406
  23   2.0000      -6.031672      -164.1301
  24   2.0000      -1.012065       -27.5397
  25   2.0000      -0.987661       -26.8756
  26   2.0000      -0.916185       -24.9307
  27   2.0000      -0.906506       -24.6673
  28   2.0000      -0.875213       -23.8157
  29   2.0000      -0.853898       -23.2357
  30   2.0000      -0.842156       -22.9162
  31   2.0000      -0.820339       -22.3225
  32   2.0000      -0.784029       -21.3345
  33   2.0000      -0.770427       -20.9644
  34   2.0000      -0.709618       -19.3097
  35   2.0000      -0.700725       -19.0677
  36   2.0000      -0.686405       -18.6780
  37   2.0000      -0.674334       -18.3496
  38   2.0000      -0.641363       -17.4524
  39   2.0000      -0.625351       -17.0167
  40   2.0000      -0.598221       -16.2784
  41   2.0000      -0.570878       -15.5344
  42   2.0000      -0.568625       -15.4731
  43   2.0000      -0.563758       -15.3406
  44   2.0000      -0.526858       -14.3365
  45   2.0000      -0.522966       -14.2306
  46   2.0000      -0.517489       -14.0816
  47   2.0000      -0.514190       -13.9918
  48   2.0000      -0.508296       -13.8314
  49   2.0000      -0.501938       -13.6584
  50   2.0000      -0.491227       -13.3670
  51   2.0000      -0.476415       -12.9639
  52   2.0000      -0.468901       -12.7594
  53   2.0000      -0.462556       -12.5868
  54   2.0000      -0.460776       -12.5383
  55   2.0000      -0.451775       -12.2934
  56   2.0000      -0.446261       -12.1434
  57   2.0000      -0.438519       -11.9327
  58   2.0000      -0.431303       -11.7364
  59   2.0000      -0.426943       -11.6177
  60   2.0000      -0.417685       -11.3658
  61   2.0000      -0.416016       -11.3204
  62   2.0000      -0.410779       -11.1779
  63   2.0000      -0.354095        -9.6354
  64   2.0000      -0.334793        -9.1102
  65   2.0000      -0.331808        -9.0290
  66   2.0000      -0.286411        -7.7936
  67   0.0000       0.023182         0.6308
  68   0.0000       0.070595         1.9210
  69   0.0000       0.100716         2.7406
  70   0.0000       0.108389         2.9494
  71   0.0000       0.143996         3.9183

MULLIKEN ATOMIC CHARGES
-----------------------
   0 S :    0.107561
   1 C :   -0.085940
   2 C :   -0.101062
   3 C :   -0.013427
   4 C :   -0.120025
   5 H :    0.025091
   6 C :    0.084440
   7 H :    0.000398
   8 H :    0.023277
   9 C :   -0.076690
  10 H :    0.026680
  11 H :    0.039364
  12 C :   -0.019887
  13 H :    0.020171
  14 H :    0.027991
  15 H :    0.029471
  16 S :    0.093694
  17 C :   -0.046178
  18 C :   -0.013987
  19 C :   -0.029829
  20 C :   -0.143483
  21 H :   -0.013350
  22 C :    0.084124
  23 H :    0.011309
  24 H :    0.007958
  25 C :   -0.088877
  26 H :    0.045049
  27 H :    0.028053
  28 C :   -0.039883
  29 H :    0.033808
  30 H :    0.021136
  31 H :    0.035418
  32 H :    0.018971
  33 H :    0.028655
Sum of atomic charges:   -0.0000000

LOEWDIN ATOMIC CHARGES
----------------------
   0 S :    0.402542
   1 C :   -0.185684
   2 C :   -0.049648
   3 C :   -0.075883
   4 C :   -0.175903
   5 H :    0.034240
   6 C :   -0.029484
   7 H :    0.021579
   8 H :    0.029459
   9 C :   -0.037345
  10 H :    0.024709
  11 H :    0.027692
  12 C :   -0.059929
  13 H :    0.012751
  14 H :    0.022376
  15 H :    0.034542
  16 S :    0.398357
  17 C :   -0.165358
  18 C :   -0.058251
  19 C :   -0.051431
  20 C :   -0.194399
  21 H :    0.019814
  22 C :   -0.036524
  23 H :    0.028572
  24 H :    0.016591
  25 C :   -0.041138
  26 H :    0.029294
  27 H :    0.025370
  28 C :   -0.068378
  29 H :    0.025979
  30 H :    0.019962
  31 H :    0.028277
  32 H :    0.006273
  33 H :    0.020975

  Mayer bond orders larger than 0.100000
B(  0-S ,  1-C ) :   1.1275 B(  0-S ,  4-C ) :   1.1572 B(  1-C ,  2-C ) :   1.6092
B(  1-C , 32-H ) :   0.9749 B(  2-C ,  3-C ) :   1.2335 B(  2-C ,  6-C ) :   1.0338
B(  3-C ,  4-C ) :   1.5800 B(  3-C ,  5-H ) :   0.9881 B(  4-C , 20-C ) :   1.0618
B(  6-C ,  7-H ) :   0.9290 B(  6-C ,  8-H ) :   0.9383 B(  6-C ,  9-C ) :   1.0631
B(  9-C , 10-H ) :   0.9551 B(  9-C , 11-H ) :   0.9618 B(  9-C , 12-C ) :   1.0660
B( 12-C , 13-H ) :   0.9769 B( 12-C , 14-H ) :   0.9766 B( 12-C , 15-H ) :   0.9721
B( 16-S , 17-C ) :   1.1341 B( 16-S , 20-C ) :   1.1354 B( 17-C , 18-C ) :   1.6214
B( 17-C , 33-H ) :   0.9719 B( 18-C , 19-C ) :   1.2578 B( 18-C , 21-H ) :   0.9997
B( 19-C , 20-C ) :   1.5606 B( 19-C , 22-C ) :   1.0415 B( 22-C , 23-H ) :   0.9386
B( 22-C , 24-H ) :   0.9246 B( 22-C , 25-C ) :   1.0638 B( 25-C , 26-H ) :   0.9537
B( 25-C , 27-H ) :   0.9543 B( 25-C , 28-C ) :   1.0904 B( 28-C , 29-H ) :   0.9739
B( 28-C , 30-H ) :   0.9727 B( 28-C , 31-H ) :   0.9736

Dispersion correction           -0.014240390
FINAL SINGLE POINT ENERGY     -1339.867858015331

DIPOLE MOMENT
-------------
                                X             Y             Z
Electronic contribution:     19.18124       4.94053       8.16088
Nuclear contribution   :    -19.39316      -4.92472      -8.37428
                        -----------------------------------------
Total Dipole Moment    :     -0.21191       0.01581      -0.21341
                        -----------------------------------------
Magnitude (a.u.)       :      0.30116
Magnitude (Debye)      :      0.76550

Rotational constants in cm-1:     0.019443     0.008055     0.006942
Rotational constants in MHz :   582.889412   241.490325   208.123791

                             ****ORCA TERMINATED NORMALLY****
TOTAL RUN TIME: 0 days 0 hours 0 minutes 29 seconds 283 msec
