                         Program Version 4.2.1 -  RELEASE  -
|  1> ! wB97X-D3 SP def2-SVP
|  2> %pal
|  3> nprocs 16
|  4> end
|  5>
|  6> * xyz 0 1
|  7> S 	 -17.8989 	 56.4145 	 61.7637
|  8> C 	 -16.9413 	 54.9396 	 61.5218
|  9> C 	 -15.7313 	 55.0643 	 62.1691
| 10> C 	 -15.6356 	 56.3481 	 62.8384
| 11> C 	 -16.7158 	 57.149 	 62.8186
| 12> H 	 -14.7233 	 56.735 	 63.3172
| 13> C 	 -14.522 	 54.1298 	 62.1323
| 14> H 	 -14.8719 	 53.0854 	 62.1088
| 15> H 	 -14.1166 	 54.4371 	 63.0946
| 16> C 	 -13.5094 	 54.4734 	 61.0458
| 17> H 	 -13.9587 	 54.1857 	 60.0732
| 18> H 	 -13.1814 	 55.5253 	 61.0827
| 19> C 	 -12.1976 	 53.6809 	 61.3874
| 20> H 	 -12.031 	 53.6123 	 62.4402
| 21> H 	 -12.1949 	 52.6531 	 60.9853
| 22> H 	 -11.3651 	 54.1929 	 60.866
| 23> S 	 -17.4325 	 59.7239 	 62.0904
| 24> C 	 -16.8629 	 61.1231 	 63.008
| 25> C 	 -16.2777 	 60.6048 	 64.1245
| 26> C 	 -16.2047 	 59.1909 	 64.2331
| 27> C 	 -16.7931 	 58.5615 	 63.1845
| 28> H 	 -15.7977 	 61.3862 	 64.8076
| 29> C 	 -15.5434 	 58.5087 	 65.377
| 30> H 	 -14.4113 	 58.3976 	 65.2367
| 31> H 	 -15.9205 	 57.4391 	 65.4836
| 32> C 	 -15.7467 	 59.1753 	 66.7525
| 33> H 	 -15.2068 	 60.146 	 66.7445
| 34> H 	 -15.2763 	 58.5897 	 67.5811
| 35> C 	 -17.2032 	 59.401 	 67.0547
| 36> H 	 -17.2389 	 60.0062 	 67.9616
| 37> H 	 -17.8046 	 58.4739 	 67.1833
| 38> H 	 -17.7094 	 59.9896 	 66.236
| 39> H 	 -17.273 	 54.0271 	 60.9796
| 40> H 	 -17.0026 	 62.1211 	 62.6778
| 41> *
| 42>
| 43>                          ****END OF INPUT****

CARTESIAN COORDINATES (ANGSTROEM)
---------------------------------
  S    -17.898900   56.414500   61.763700
  C    -16.941300   54.939600   61.521800
  C    -15.731300   55.064300   62.169100
  C    -15.635600   56.348100   62.838400
  C    -16.715800   57.149000   62.818600
  H    -14.723300   56.735000   63.317200
  C    -14.522000   54.129800   62.132300
  H    -14.871900   53.085400   62.108800
  H    -14.116600   54.437100   63.094600
  C    -13.509400   54.473400   61.045800
  H    -13.958700   54.185700   60.073200
  H    -13.181400   55.525300   61.082700
  C    -12.197600   53.680900   61.387400
  H    -12.031000   53.612300   62.440200
  H    -12.194900   52.653100   60.985300
  H    -11.365100   54.192900   60.866000
  S    -17.432500   59.723900   62.090400
  C    -16.862900   61.123100   63.008000
  C    -16.277700   60.604800   64.124500
  C    -16.204700   59.190900   64.233100
  C    -16.793100   58.561500   63.184500
  H    -15.797700   61.386200   64.807600
  C    -15.543400   58.508700   65.377000
  H    -14.411300   58.397600   65.236700
  H    -15.920500   57.439100   65.483600
  C    -15.746700   59.175300   66.752500
  H    -15.206800   60.146000   66.744500
  H    -15.276300   58.589700   67.581100
  C    -17.203200   59.401000   67.054700
  H    -17.238900   60.006200   67.961600
  H    -17.804600   58.473900   67.183300
  H    -17.709400   59.989600   66.236000
  H    -17.273000   54.027100   60.979600
  H    -17.002600   62.121100   62.677800

 Total Charge           Charge          ....    0
 Multiplicity           Mult            ....    1
 Number of Electrons    NEL             ....  134
 Basis Dimension        Dim             ....  322

ORBITAL ENERGIES
----------------

  NO   OCC          E(Eh)            E(eV)
   0   2.0000     -88.961759     -2420.7725
   1   2.0000     -88.961067     -2420.7537
   2   2.0000     -10.328099      -281.0419
   3   2.0000     -10.325756      -280.9781
   4   2.0000     -10.319574      -280.8099
   5   2.0000     -10.318363      -280.7769
   6   2.0000     -10.302354      -280.3413
   7   2.0000     -10.299378      -280.2603
   8   2.0000     -10.298866      -280.2464
   9   2.0000     -10.298063      -280.2245
  10   2.0000     -10.295225      -280.1473
  11   2.0000     -10.294123      -280.1173
  12   2.0000     -10.293321      -280.0955
  13   2.0000     -10.288455      -279.9631
  14   2.0000     -10.280479      -279.7461
  15   2.0000     -10.274941      -279.5954
  16   2.0000      -8.076502      -219.7728
  17   2.0000      -8.076405      -219.7701
  18   2.0000      -6.035133      -164.2243
  19   2.0000      -6.035095      -164.2233
  20   2.0000      -6.030912      -164.1095
  21   2.0000      -6.030781      -164.1059
  22   2.0000      -6.027204      -164.0086
  23   2.0000      -6.026956      -164.0018
  24   2.0000      -1.014923       -27.6175
  25   2.0000      -0.988570       -26.9004
  26   2.0000      -0.914038       -24.8722
  27   2.0000      -0.911010       -24.7899
  28   2.0000      -0.874783       -23.8041
  29   2.0000      -0.848665       -23.0933
  30   2.0000      -0.838301       -22.8113
  31   2.0000      -0.819683       -22.3047
  32   2.0000      -0.777837       -21.1660
  33   2.0000      -0.772159       -21.0115
  34   2.0000      -0.705316       -19.1926
  35   2.0000      -0.701533       -19.0897
  36   2.0000      -0.693151       -18.8616
  37   2.0000      -0.655270       -17.8308
  38   2.0000      -0.639681       -17.4066
  39   2.0000      -0.621591       -16.9143
  40   2.0000      -0.602527       -16.3956
  41   2.0000      -0.568301       -15.4643
  42   2.0000      -0.563231       -15.3263
  43   2.0000      -0.552031       -15.0215
  44   2.0000      -0.533407       -14.5147
  45   2.0000      -0.529630       -14.4120
  46   2.0000      -0.524241       -14.2653
  47   2.0000      -0.512989       -13.9591
  48   2.0000      -0.505488       -13.7550
  49   2.0000      -0.503723       -13.7070
  50   2.0000      -0.492424       -13.3995
  51   2.0000      -0.477642       -12.9973
  52   2.0000      -0.470424       -12.8009
  53   2.0000      -0.466108       -12.6834
  54   2.0000      -0.459317       -12.4987
  55   2.0000      -0.444542       -12.0966
  56   2.0000      -0.439865       -11.9693
  57   2.0000      -0.432652       -11.7731
  58   2.0000      -0.430704       -11.7200
  59   2.0000      -0.427715       -11.6387
  60   2.0000      -0.415859       -11.3161
  61   2.0000      -0.410299       -11.1648
  62   2.0000      -0.403288       -10.9740
  63   2.0000      -0.360483        -9.8092
  64   2.0000      -0.329182        -8.9575
  65   2.0000      -0.324262        -8.8236
  66   2.0000      -0.296422        -8.0660
  67   0.0000       0.029509         0.8030
  68   0.0000       0.079537         2.1643
  69   0.0000       0.110071         2.9952
  70   0.0000       0.121010         3.2928
  71   0.0000       0.137395         3.7387

MULLIKEN ATOMIC CHARGES
-----------------------
   0 S :    0.081019
   1 C :   -0.135801
   2 C :   -0.081908
   3 C :   -0.016374
   4 C :   -0.124148
   5 H :    0.018750
   6 C :    0.051743
   7 H :    0.039149
   8 H :    0.022076
   9 C :   -0.069277
  10 H :    0.040873
  11 H :    0.041143
  12 C :   -0.053981
  13 H :    0.028812
  14 H :    0.033741
  15 H :    0.036788
  16 S :    0.085801
  17 C :   -0.094520
  18 C :   -0.053748
  19 C :   -0.054104
  20 C :   -0.096299
  21 H :    0.046098
  22 C :    0.007955
  23 H :    0.053456
  24 H :    0.044644
  25 C :   -0.088734
  26 H :    0.026960
  27 H :    0.036937
  28 C :   -0.066225
  29 H :    0.032487
  30 H :    0.039621
  31 H :    0.050981
  32 H :    0.063272
  33 H :    0.052813
Sum of atomic charges:    0.0000000

LOEWDIN ATOMIC CHARGES
----------------------
   0 S :    0.385936
   1 C :   -0.193725
   2 C :   -0.066173
   3 C :   -0.067516
   4 C :   -0.188869
   5 H :    0.032167
   6 C :   -0.032627
   7 H :    0.034390
   8 H :    0.030418
   9 C :   -0.035665
  10 H :    0.029179
  11 H :    0.030255
  12 C :   -0.067172
  13 H :    0.019731
  14 H :    0.026306
  15 H :    0.028432
  16 S :    0.404294
  17 C :   -0.172499
  18 C :   -0.078683
  19 C :   -0.076228
  20 C :   -0.196531
  21 H :    0.043251
  22 C :   -0.046190
  23 H :    0.036970
  24 H :    0.037947
  25 C :   -0.050092
  26 H :    0.021816
  27 H :    0.030247
  28 C :   -0.074115
  29 H :    0.025690
  30 H :    0.028964
  31 H :    0.033273
  32 H :    0.039234
  33 H :    0.027584

  Mayer bond orders larger than 0.100000
B(  0-S ,  1-C ) :   1.1267 B(  0-S ,  4-C ) :   1.1282 B(  1-C ,  2-C ) :   1.6254
B(  1-C , 32-H ) :   0.9666 B(  2-C ,  3-C ) :   1.2265 B(  2-C ,  6-C ) :   1.0065
B(  3-C ,  4-C ) :   1.6120 B(  3-C ,  5-H ) :   0.9790 B(  4-C , 20-C ) :   1.0294
B(  6-C ,  7-H ) :   0.9438 B(  6-C ,  8-H ) :   0.9385 B(  6-C ,  9-C ) :   1.0766
B(  9-C , 10-H ) :   0.9559 B(  9-C , 11-H ) :   0.9595 B(  9-C , 12-C ) :   1.0642
B( 12-C , 13-H ) :   0.9774 B( 12-C , 14-H ) :   0.9761 B( 12-C , 15-H ) :   0.9788
B( 16-S , 17-C ) :   1.1453 B( 16-S , 20-C ) :   1.1474 B( 17-C , 18-C ) :   1.5982
B( 17-C , 33-H ) :   0.9809 B( 18-C , 19-C ) :   1.2326 B( 18-C , 21-H ) :   0.9777
B( 19-C , 20-C ) :   1.6052 B( 19-C , 22-C ) :   1.0480 B( 22-C , 23-H ) :   0.9276
B( 22-C , 24-H ) :   0.9354 B( 22-C , 25-C ) :   1.0736 B( 25-C , 26-H ) :   0.9448
B( 25-C , 27-H ) :   0.9530 B( 25-C , 28-C ) :   1.0884 B( 28-C , 29-H ) :   0.9718
B( 28-C , 30-H ) :   0.9729 B( 28-C , 31-H ) :   0.9662

Dispersion correction           -0.014036226
FINAL SINGLE POINT ENERGY     -1339.883021344588

DIPOLE MOMENT
-------------
                                X             Y             Z
Electronic contribution:    -18.82391       8.94523     -12.83171
Nuclear contribution   :     19.54706      -9.04846      13.06132
                        -----------------------------------------
Total Dipole Moment    :      0.72315      -0.10322       0.22961
                        -----------------------------------------
Magnitude (a.u.)       :      0.76572
Magnitude (Debye)      :      1.94630

Rotational constants in cm-1:     0.019991     0.007834     0.006739
Rotational constants in MHz :   599.324588   234.855339   202.026702

                             ****ORCA TERMINATED NORMALLY****
TOTAL RUN TIME: 0 days 0 hours 0 minutes 31 seconds 27 msec
