                         Program Version 4.2.1 -  RELEASE  -
|  1> ! wB97X-D3 SP def2-SVP
|  2> %pal
|  3> nprocs 16
|  4> end
|  5>
|  6> * xyz 0 1
|  7> S 	 14.6673 	 33.3464 	 54.9128
|  8> C 	 14.6795 	 31.7567 	 55.6505
|  9> C 	 14.8173 	 31.8184 	 57.0267
| 10> C 	 15.1812 	 33.1122 	 57.4214
| 11> C 	 15.0988 	 34.1071 	 56.4627
| 12> H 	 15.5354 	 33.3871 	 58.4252
| 13> C 	 14.748 	 30.6131 	 57.9865
| 14> H 	 15.142 	 31.0082 	 58.9411
| 15> H 	 15.3877 	 29.8452 	 57.7249
| 16> C 	 13.2989 	 30.1447 	 58.1358
| 17> H 	 12.7454 	 30.8049 	 58.7405
| 18> H 	 12.7749 	 30.1489 	 57.2046
| 19> C 	 13.2112 	 28.8081 	 58.8523
| 20> H 	 13.5842 	 27.9788 	 58.2586
| 21> H 	 13.7944 	 28.8573 	 59.7679
| 22> H 	 12.1202 	 28.591 	 59.051
| 23> S 	 14.288 	 36.5754 	 56.0431
| 24> C 	 15.2966 	 37.9901 	 56.4328
| 25> C 	 16.2318 	 37.5749 	 57.3213
| 26> C 	 16.3557 	 36.1576 	 57.4604
| 27> C 	 15.4579 	 35.493 	 56.6663
| 28> H 	 16.8818 	 38.3401 	 57.7393
| 29> C 	 17.3793 	 35.5586 	 58.3614
| 30> H 	 18.2378 	 36.1081 	 58.3309
| 31> H 	 17.7023 	 34.5889 	 57.9385
| 32> C 	 16.9884 	 35.2688 	 59.8584
| 33> H 	 17.9161 	 34.7819 	 60.2312
| 34> H 	 16.2213 	 34.4755 	 60.0009
| 35> C 	 16.6953 	 36.4956 	 60.7628
| 36> H 	 17.6019 	 37.0965 	 60.6601
| 37> H 	 16.3992 	 36.3397 	 61.7623
| 38> H 	 15.9757 	 37.1516 	 60.359
| 39> H 	 14.4461 	 30.8653 	 55.1316
| 40> H 	 15.0718 	 38.9967 	 56.0985
| 41> *
| 42>
| 43>                          ****END OF INPUT****

CARTESIAN COORDINATES (ANGSTROEM)
---------------------------------
  S     14.667300   33.346400   54.912800
  C     14.679500   31.756700   55.650500
  C     14.817300   31.818400   57.026700
  C     15.181200   33.112200   57.421400
  C     15.098800   34.107100   56.462700
  H     15.535400   33.387100   58.425200
  C     14.748000   30.613100   57.986500
  H     15.142000   31.008200   58.941100
  H     15.387700   29.845200   57.724900
  C     13.298900   30.144700   58.135800
  H     12.745400   30.804900   58.740500
  H     12.774900   30.148900   57.204600
  C     13.211200   28.808100   58.852300
  H     13.584200   27.978800   58.258600
  H     13.794400   28.857300   59.767900
  H     12.120200   28.591000   59.051000
  S     14.288000   36.575400   56.043100
  C     15.296600   37.990100   56.432800
  C     16.231800   37.574900   57.321300
  C     16.355700   36.157600   57.460400
  C     15.457900   35.493000   56.666300
  H     16.881800   38.340100   57.739300
  C     17.379300   35.558600   58.361400
  H     18.237800   36.108100   58.330900
  H     17.702300   34.588900   57.938500
  C     16.988400   35.268800   59.858400
  H     17.916100   34.781900   60.231200
  H     16.221300   34.475500   60.000900
  C     16.695300   36.495600   60.762800
  H     17.601900   37.096500   60.660100
  H     16.399200   36.339700   61.762300
  H     15.975700   37.151600   60.359000
  H     14.446100   30.865300   55.131600
  H     15.071800   38.996700   56.098500

 Total Charge           Charge          ....    0
 Multiplicity           Mult            ....    1
 Number of Electrons    NEL             ....  134
 Basis Dimension        Dim             ....  322

ORBITAL ENERGIES
----------------

  NO   OCC          E(Eh)            E(eV)
   0   2.0000     -88.969071     -2420.9715
   1   2.0000     -88.956110     -2420.6188
   2   2.0000     -10.328056      -281.0407
   3   2.0000     -10.321659      -280.8666
   4   2.0000     -10.314233      -280.6645
   5   2.0000     -10.313494      -280.6444
   6   2.0000     -10.299575      -280.2657
   7   2.0000     -10.298627      -280.2399
   8   2.0000     -10.297616      -280.2124
   9   2.0000     -10.292271      -280.0669
  10   2.0000     -10.291526      -280.0467
  11   2.0000     -10.291422      -280.0438
  12   2.0000     -10.288866      -279.9743
  13   2.0000     -10.279702      -279.7249
  14   2.0000     -10.278214      -279.6844
  15   2.0000     -10.272434      -279.5271
  16   2.0000      -8.082952      -219.9483
  17   2.0000      -8.071854      -219.6463
  18   2.0000      -6.041582      -164.3998
  19   2.0000      -6.037524      -164.2894
  20   2.0000      -6.033684      -164.1849
  21   2.0000      -6.030447      -164.0968
  22   2.0000      -6.026333      -163.9849
  23   2.0000      -6.022334      -163.8760
  24   2.0000      -1.010760       -27.5042
  25   2.0000      -0.986470       -26.8432
  26   2.0000      -0.915020       -24.8990
  27   2.0000      -0.906368       -24.6635
  28   2.0000      -0.874268       -23.7900
  29   2.0000      -0.851662       -23.1749
  30   2.0000      -0.845789       -23.0151
  31   2.0000      -0.816452       -22.2168
  32   2.0000      -0.784998       -21.3609
  33   2.0000      -0.775545       -21.1037
  34   2.0000      -0.711233       -19.3536
  35   2.0000      -0.705313       -19.1926
  36   2.0000      -0.696670       -18.9574
  37   2.0000      -0.667670       -18.1682
  38   2.0000      -0.641378       -17.4528
  39   2.0000      -0.619911       -16.8686
  40   2.0000      -0.595870       -16.2145
  41   2.0000      -0.572255       -15.5718
  42   2.0000      -0.562828       -15.3153
  43   2.0000      -0.554653       -15.0929
  44   2.0000      -0.541704       -14.7405
  45   2.0000      -0.528565       -14.3830
  46   2.0000      -0.522375       -14.2145
  47   2.0000      -0.514995       -14.0137
  48   2.0000      -0.504195       -13.7198
  49   2.0000      -0.503003       -13.6874
  50   2.0000      -0.491138       -13.3645
  51   2.0000      -0.485385       -13.2080
  52   2.0000      -0.475974       -12.9519
  53   2.0000      -0.463142       -12.6027
  54   2.0000      -0.461568       -12.5599
  55   2.0000      -0.448627       -12.2078
  56   2.0000      -0.443696       -12.0736
  57   2.0000      -0.437198       -11.8968
  58   2.0000      -0.428830       -11.6691
  59   2.0000      -0.426348       -11.6015
  60   2.0000      -0.425862       -11.5883
  61   2.0000      -0.416860       -11.3433
  62   2.0000      -0.410145       -11.1606
  63   2.0000      -0.351052        -9.5526
  64   2.0000      -0.334215        -9.0945
  65   2.0000      -0.324479        -8.8295
  66   2.0000      -0.289334        -7.8732
  67   0.0000       0.024163         0.6575
  68   0.0000       0.073312         1.9949
  69   0.0000       0.107250         2.9184
  70   0.0000       0.123329         3.3560
  71   0.0000       0.131273         3.5721

MULLIKEN ATOMIC CHARGES
-----------------------
   0 S :    0.122826
   1 C :   -0.111719
   2 C :   -0.088837
   3 C :    0.016318
   4 C :   -0.128310
   5 H :   -0.017908
   6 C :    0.108102
   7 H :    0.015780
   8 H :    0.017223
   9 C :   -0.056567
  10 H :    0.016484
  11 H :    0.024225
  12 C :   -0.052810
  13 H :    0.029747
  14 H :    0.029854
  15 H :    0.040936
  16 S :    0.075471
  17 C :   -0.094862
  18 C :   -0.032716
  19 C :   -0.027704
  20 C :   -0.133374
  21 H :    0.018865
  22 C :    0.081673
  23 H :   -0.005244
  24 H :    0.027577
  25 C :   -0.104062
  26 H :    0.032574
  27 H :    0.044972
  28 C :   -0.013942
  29 H :    0.016111
  30 H :    0.034142
  31 H :    0.022516
  32 H :    0.035438
  33 H :    0.057221
Sum of atomic charges:   -0.0000000

LOEWDIN ATOMIC CHARGES
----------------------
   0 S :    0.401560
   1 C :   -0.182588
   2 C :   -0.062898
   3 C :   -0.060628
   4 C :   -0.199014
   5 H :    0.029532
   6 C :   -0.017889
   7 H :    0.032238
   8 H :    0.019514
   9 C :   -0.036821
  10 H :    0.021848
  11 H :    0.020366
  12 C :   -0.064775
  13 H :    0.020321
  14 H :    0.024051
  15 H :    0.033202
  16 S :    0.397708
  17 C :   -0.173496
  18 C :   -0.070607
  19 C :   -0.067393
  20 C :   -0.193291
  21 H :    0.032537
  22 C :   -0.027124
  23 H :    0.017424
  24 H :    0.039448
  25 C :   -0.036655
  26 H :    0.028202
  27 H :    0.019403
  28 C :   -0.064521
  29 H :    0.027337
  30 H :    0.023121
  31 H :    0.020472
  32 H :    0.019553
  33 H :    0.029863

  Mayer bond orders larger than 0.100000
B(  0-S ,  1-C ) :   1.1548 B(  0-S ,  4-C ) :   1.1356 B(  1-C ,  2-C ) :   1.5823
B(  1-C ,  4-C ) :   0.1058 B(  1-C , 32-H ) :   0.9706 B(  2-C ,  3-C ) :   1.2785
B(  2-C ,  6-C ) :   1.0082 B(  3-C ,  4-C ) :   1.5594 B(  3-C ,  5-H ) :   0.9871
B(  4-C , 20-C ) :   1.0418 B(  6-C ,  7-H ) :   0.9356 B(  6-C ,  8-H ) :   0.9486
B(  6-C ,  9-C ) :   1.0550 B(  9-C , 10-H ) :   0.9493 B(  9-C , 11-H ) :   0.9633
B(  9-C , 12-C ) :   1.0872 B( 12-C , 13-H ) :   0.9772 B( 12-C , 14-H ) :   0.9704
B( 12-C , 15-H ) :   0.9743 B( 16-S , 17-C ) :   1.1271 B( 16-S , 20-C ) :   1.1568
B( 17-C , 18-C ) :   1.6185 B( 17-C , 33-H ) :   0.9749 B( 18-C , 19-C ) :   1.2111
B( 18-C , 21-H ) :   0.9907 B( 19-C , 20-C ) :   1.6026 B( 19-C , 22-C ) :   1.0553
B( 22-C , 23-H ) :   0.9275 B( 22-C , 24-H ) :   0.9283 B( 22-C , 25-C ) :   1.0672
B( 25-C , 26-H ) :   0.9556 B( 25-C , 27-H ) :   0.9502 B( 25-C , 28-C ) :   1.0655
B( 28-C , 29-H ) :   0.9728 B( 28-C , 30-H ) :   0.9752 B( 28-C , 31-H ) :   0.9756

Dispersion correction           -0.014278187
FINAL SINGLE POINT ENERGY     -1339.868446162063

DIPOLE MOMENT
-------------
                                X             Y             Z
Electronic contribution:     -4.17642      14.06180     -24.08041
Nuclear contribution   :      4.45158     -14.30484      24.68431
                        -----------------------------------------
Total Dipole Moment    :      0.27515      -0.24303       0.60390
                        -----------------------------------------
Magnitude (a.u.)       :      0.70673
Magnitude (Debye)      :      1.79636

Rotational constants in cm-1:     0.019729     0.008267     0.006392
Rotational constants in MHz :   591.458941   247.844423   191.624970

                             ****ORCA TERMINATED NORMALLY****
TOTAL RUN TIME: 0 days 0 hours 0 minutes 35 seconds 236 msec
