                         Program Version 4.2.1 -  RELEASE  -
|  1> ! wB97X-D3 SP def2-SVP
|  2> %pal
|  3> nprocs 16
|  4> end
|  5>
|  6> * xyz 0 1
|  7> S 	 -34.9018 	 71.3226 	 142.004
|  8> C 	 -33.2359 	 71.6796 	 142.608
|  9> C 	 -32.9892 	 70.9462 	 143.784
| 10> C 	 -34.1972 	 70.2607 	 144.204
| 11> C 	 -35.27 	 70.2951 	 143.318
| 12> H 	 -34.2375 	 69.5868 	 145.04
| 13> C 	 -31.6604 	 70.8543 	 144.599
| 14> H 	 -30.9958 	 71.5501 	 144.09
| 15> H 	 -31.2455 	 69.8927 	 144.431
| 16> C 	 -31.7601 	 71.146 	 146.138
| 17> H 	 -32.5529 	 70.59 	 146.592
| 18> H 	 -30.8593 	 70.8602 	 146.76
| 19> C 	 -31.9716 	 72.6151 	 146.415
| 20> H 	 -31.1073 	 73.1937 	 145.952
| 21> H 	 -32.8782 	 72.9774 	 145.856
| 22> H 	 -32.0864 	 72.8878 	 147.496
| 23> S 	 -37.9317 	 70.3171 	 142.86
| 24> C 	 -38.7855 	 68.8322 	 142.568
| 25> C 	 -38.1043 	 67.8008 	 143.191
| 26> C 	 -36.7558 	 68.1731 	 143.558
| 27> C 	 -36.4986 	 69.53 	 143.439
| 28> H 	 -38.4877 	 66.8314 	 143.442
| 29> C 	 -35.7752 	 67.0191 	 143.865
| 30> H 	 -34.8374 	 67.4777 	 143.531
| 31> H 	 -35.9285 	 66.0998 	 143.19
| 32> C 	 -35.7654 	 66.5685 	 145.321
| 33> H 	 -36.7848 	 66.2547 	 145.608
| 34> H 	 -35.4409 	 67.4283 	 146
| 35> C 	 -34.7223 	 65.5429 	 145.577
| 36> H 	 -33.7787 	 65.8531 	 145.183
| 37> H 	 -34.9757 	 64.531 	 145.175
| 38> H 	 -34.6026 	 65.4889 	 146.614
| 39> H 	 -32.4871 	 71.9664 	 141.987
| 40> H 	 -39.8356 	 68.7334 	 142.174
| 41> *
| 42>
| 43>                          ****END OF INPUT****

CARTESIAN COORDINATES (ANGSTROEM)
---------------------------------
  S    -34.901800   71.322600  142.004000
  C    -33.235900   71.679600  142.608000
  C    -32.989200   70.946200  143.784000
  C    -34.197200   70.260700  144.204000
  C    -35.270000   70.295100  143.318000
  H    -34.237500   69.586800  145.040000
  C    -31.660400   70.854300  144.599000
  H    -30.995800   71.550100  144.090000
  H    -31.245500   69.892700  144.431000
  C    -31.760100   71.146000  146.138000
  H    -32.552900   70.590000  146.592000
  H    -30.859300   70.860200  146.760000
  C    -31.971600   72.615100  146.415000
  H    -31.107300   73.193700  145.952000
  H    -32.878200   72.977400  145.856000
  H    -32.086400   72.887800  147.496000
  S    -37.931700   70.317100  142.860000
  C    -38.785500   68.832200  142.568000
  C    -38.104300   67.800800  143.191000
  C    -36.755800   68.173100  143.558000
  C    -36.498600   69.530000  143.439000
  H    -38.487700   66.831400  143.442000
  C    -35.775200   67.019100  143.865000
  H    -34.837400   67.477700  143.531000
  H    -35.928500   66.099800  143.190000
  C    -35.765400   66.568500  145.321000
  H    -36.784800   66.254700  145.608000
  H    -35.440900   67.428300  146.000000
  C    -34.722300   65.542900  145.577000
  H    -33.778700   65.853100  145.183000
  H    -34.975700   64.531000  145.175000
  H    -34.602600   65.488900  146.614000
  H    -32.487100   71.966400  141.987000
  H    -39.835600   68.733400  142.174000

 Total Charge           Charge          ....    0
 Multiplicity           Mult            ....    1
 Number of Electrons    NEL             ....  134
 Basis Dimension        Dim             ....  322

ORBITAL ENERGIES
----------------

  NO   OCC          E(Eh)            E(eV)
   0   2.0000     -88.967828     -2420.9377
   1   2.0000     -88.964046     -2420.8348
   2   2.0000     -10.331779      -281.1420
   3   2.0000     -10.328000      -281.0392
   4   2.0000     -10.324672      -280.9486
   5   2.0000     -10.314430      -280.6699
   6   2.0000     -10.313725      -280.6507
   7   2.0000     -10.306478      -280.4535
   8   2.0000     -10.300975      -280.3038
   9   2.0000     -10.298142      -280.2267
  10   2.0000     -10.295500      -280.1548
  11   2.0000     -10.293355      -280.0964
  12   2.0000     -10.293093      -280.0893
  13   2.0000     -10.291946      -280.0581
  14   2.0000     -10.283155      -279.8189
  15   2.0000     -10.272422      -279.5268
  16   2.0000      -8.082191      -219.9276
  17   2.0000      -8.079531      -219.8552
  18   2.0000      -6.040763      -164.3775
  19   2.0000      -6.038116      -164.3055
  20   2.0000      -6.036637      -164.2652
  21   2.0000      -6.033887      -164.1904
  22   2.0000      -6.032964      -164.1653
  23   2.0000      -6.030181      -164.0896
  24   2.0000      -1.010228       -27.4897
  25   2.0000      -0.982486       -26.7348
  26   2.0000      -0.914505       -24.8849
  27   2.0000      -0.909121       -24.7384
  28   2.0000      -0.871113       -23.7042
  29   2.0000      -0.855478       -23.2787
  30   2.0000      -0.841044       -22.8860
  31   2.0000      -0.814662       -22.1681
  32   2.0000      -0.781349       -21.2616
  33   2.0000      -0.773981       -21.0611
  34   2.0000      -0.706073       -19.2132
  35   2.0000      -0.695659       -18.9298
  36   2.0000      -0.691513       -18.8170
  37   2.0000      -0.664793       -18.0899
  38   2.0000      -0.642770       -17.4907
  39   2.0000      -0.618980       -16.8433
  40   2.0000      -0.594064       -16.1653
  41   2.0000      -0.570529       -15.5249
  42   2.0000      -0.565614       -15.3911
  43   2.0000      -0.555490       -15.1157
  44   2.0000      -0.539374       -14.6771
  45   2.0000      -0.531588       -14.4652
  46   2.0000      -0.519285       -14.1305
  47   2.0000      -0.514159       -13.9910
  48   2.0000      -0.509013       -13.8510
  49   2.0000      -0.505690       -13.7605
  50   2.0000      -0.485739       -13.2176
  51   2.0000      -0.478909       -13.0318
  52   2.0000      -0.472685       -12.8624
  53   2.0000      -0.461944       -12.5701
  54   2.0000      -0.454926       -12.3792
  55   2.0000      -0.444914       -12.1067
  56   2.0000      -0.441493       -12.0136
  57   2.0000      -0.439076       -11.9479
  58   2.0000      -0.435253       -11.8438
  59   2.0000      -0.429202       -11.6792
  60   2.0000      -0.416333       -11.3290
  61   2.0000      -0.412195       -11.2164
  62   2.0000      -0.411252       -11.1907
  63   2.0000      -0.350904        -9.5486
  64   2.0000      -0.332104        -9.0370
  65   2.0000      -0.325663        -8.8617
  66   2.0000      -0.294345        -8.0095
  67   0.0000       0.023607         0.6424
  68   0.0000       0.068763         1.8711
  69   0.0000       0.108695         2.9577
  70   0.0000       0.114170         3.1067
  71   0.0000       0.123409         3.3581

MULLIKEN ATOMIC CHARGES
-----------------------
   0 S :    0.110836
   1 C :   -0.081173
   2 C :   -0.132787
   3 C :    0.017979
   4 C :   -0.122636
   5 H :   -0.001516
   6 C :    0.099758
   7 H :    0.015232
   8 H :    0.035437
   9 C :   -0.070871
  10 H :    0.027614
  11 H :    0.038356
  12 C :   -0.100337
  13 H :    0.033884
  14 H :    0.046764
  15 H :    0.048358
  16 S :    0.092173
  17 C :   -0.111087
  18 C :   -0.007383
  19 C :   -0.062688
  20 C :   -0.135593
  21 H :    0.016989
  22 C :    0.012838
  23 H :    0.026431
  24 H :    0.043235
  25 C :   -0.097464
  26 H :    0.031066
  27 H :    0.035471
  28 C :    0.010982
  29 H :    0.016495
  30 H :    0.033221
  31 H :    0.018697
  32 H :    0.027490
  33 H :    0.084228
Sum of atomic charges:    0.0000000

LOEWDIN ATOMIC CHARGES
----------------------
   0 S :    0.409820
   1 C :   -0.180788
   2 C :   -0.045892
   3 C :   -0.074078
   4 C :   -0.204084
   5 H :    0.021770
   6 C :   -0.021559
   7 H :    0.029161
   8 H :    0.029634
   9 C :   -0.046678
  10 H :    0.018817
  11 H :    0.032798
  12 C :   -0.077782
  13 H :    0.028298
  14 H :    0.030369
  15 H :    0.029700
  16 S :    0.413319
  17 C :   -0.192896
  18 C :   -0.069357
  19 C :   -0.050750
  20 C :   -0.207853
  21 H :    0.026844
  22 C :   -0.038795
  23 H :    0.029005
  24 H :    0.038282
  25 C :   -0.045778
  26 H :    0.024630
  27 H :    0.031067
  28 C :   -0.059381
  29 H :    0.022506
  30 H :    0.027442
  31 H :    0.020057
  32 H :    0.007689
  33 H :    0.044462

  Mayer bond orders larger than 0.100000
B(  0-S ,  1-C ) :   1.1248 B(  0-S ,  4-C ) :   1.1669 B(  1-C ,  2-C ) :   1.6155
B(  1-C , 32-H ) :   0.9686 B(  2-C ,  3-C ) :   1.2388 B(  2-C ,  6-C ) :   1.0106
B(  3-C ,  4-C ) :   1.5575 B(  3-C ,  5-H ) :   0.9955 B(  4-C , 20-C ) :   1.0408
B(  6-C ,  7-H ) :   0.9463 B(  6-C ,  8-H ) :   0.9383 B(  6-C ,  9-C ) :   1.0568
B(  9-C , 10-H ) :   0.9565 B(  9-C , 11-H ) :   0.9564 B(  9-C , 12-C ) :   1.0734
B( 12-C , 13-H ) :   0.9737 B( 12-C , 14-H ) :   0.9757 B( 12-C , 15-H ) :   0.9736
B( 16-S , 17-C ) :   1.1623 B( 16-S , 20-C ) :   1.1240 B( 17-C , 18-C ) :   1.5864
B( 17-C , 33-H ) :   0.9605 B( 18-C , 19-C ) :   1.2593 B( 18-C , 21-H ) :   0.9889
B( 19-C , 20-C ) :   1.5959 B( 19-C , 22-C ) :   1.0249 B( 22-C , 23-H ) :   0.9299
B( 22-C , 24-H ) :   0.9462 B( 22-C , 25-C ) :   1.0680 B( 25-C , 26-H ) :   0.9528
B( 25-C , 27-H ) :   0.9509 B( 25-C , 28-C ) :   1.0916 B( 28-C , 29-H ) :   0.9683
B( 28-C , 30-H ) :   0.9701 B( 28-C , 31-H ) :   0.9723

Dispersion correction           -0.014150820
FINAL SINGLE POINT ENERGY     -1339.863377496486

DIPOLE MOMENT
-------------
                                X             Y             Z
Electronic contribution:    -18.50586      11.31935     -19.35493
Nuclear contribution   :     18.85346     -12.01912      19.66366
                        -----------------------------------------
Total Dipole Moment    :      0.34760      -0.69976       0.30873
                        -----------------------------------------
Magnitude (a.u.)       :      0.84013
Magnitude (Debye)      :      2.13543

Rotational constants in cm-1:     0.016996     0.009297     0.006742
Rotational constants in MHz :   509.538252   278.720190   202.113370

                             ****ORCA TERMINATED NORMALLY****
TOTAL RUN TIME: 0 days 0 hours 0 minutes 34 seconds 272 msec
