                         Program Version 4.2.1 -  RELEASE  -
|  1> ! wB97X-D3 SP def2-SVP
|  2> %pal
|  3> nprocs 16
|  4> end
|  5>
|  6> * xyz 0 1
|  7> S 	 -4.72173 	 -9.65732 	 85.1647
|  8> C 	 -3.53085 	 -10.8407 	 85.5151
|  9> C 	 -2.92407 	 -10.6001 	 86.7471
| 10> C 	 -3.47017 	 -9.46928 	 87.4301
| 11> C 	 -4.4853 	 -8.86387 	 86.686
| 12> H 	 -3.07003 	 -8.98782 	 88.3503
| 13> C 	 -1.97836 	 -11.531 	 87.4243
| 14> H 	 -1.5619 	 -11.038 	 88.3265
| 15> H 	 -1.06363 	 -11.7162 	 86.8115
| 16> C 	 -2.51885 	 -12.9264 	 87.8232
| 17> H 	 -3.41998 	 -13.0336 	 88.4816
| 18> H 	 -2.87566 	 -13.443 	 86.866
| 19> C 	 -1.50036 	 -13.935 	 88.3898
| 20> H 	 -1.81727 	 -14.9107 	 88.077
| 21> H 	 -0.510053 	 -13.9137 	 87.9823
| 22> H 	 -1.39676 	 -13.8595 	 89.4752
| 23> S 	 -6.21977 	 -6.88352 	 85.8871
| 24> C 	 -6.62845 	 -5.58057 	 87.0109
| 25> C 	 -5.9088 	 -5.71742 	 88.1603
| 26> C 	 -5.09035 	 -6.8664 	 88.2369
| 27> C 	 -5.14707 	 -7.58447 	 87.0728
| 28> H 	 -6.08012 	 -5.01382 	 88.8944
| 29> C 	 -4.34552 	 -7.04925 	 89.54
| 30> H 	 -4.44907 	 -6.04698 	 89.9857
| 31> H 	 -3.29734 	 -7.12436 	 89.2966
| 32> C 	 -4.83361 	 -8.22452 	 90.3439
| 33> H 	 -5.09877 	 -9.17909 	 89.7389
| 34> H 	 -5.81113 	 -7.98074 	 90.6631
| 35> C 	 -3.77585 	 -8.62808 	 91.3527
| 36> H 	 -2.84046 	 -8.78189 	 90.8623
| 37> H 	 -4.01182 	 -9.63022 	 91.7728
| 38> H 	 -3.65938 	 -7.87737 	 92.1778
| 39> H 	 -3.34423 	 -11.7835 	 85.0229
| 40> H 	 -7.42719 	 -4.73259 	 86.8956
| 41> *
| 42>
| 43>                          ****END OF INPUT****

CARTESIAN COORDINATES (ANGSTROEM)
---------------------------------
  S     -4.721730   -9.657320   85.164700
  C     -3.530850  -10.840700   85.515100
  C     -2.924070  -10.600100   86.747100
  C     -3.470170   -9.469280   87.430100
  C     -4.485300   -8.863870   86.686000
  H     -3.070030   -8.987820   88.350300
  C     -1.978360  -11.531000   87.424300
  H     -1.561900  -11.038000   88.326500
  H     -1.063630  -11.716200   86.811500
  C     -2.518850  -12.926400   87.823200
  H     -3.419980  -13.033600   88.481600
  H     -2.875660  -13.443000   86.866000
  C     -1.500360  -13.935000   88.389800
  H     -1.817270  -14.910700   88.077000
  H     -0.510053  -13.913700   87.982300
  H     -1.396760  -13.859500   89.475200
  S     -6.219770   -6.883520   85.887100
  C     -6.628450   -5.580570   87.010900
  C     -5.908800   -5.717420   88.160300
  C     -5.090350   -6.866400   88.236900
  C     -5.147070   -7.584470   87.072800
  H     -6.080120   -5.013820   88.894400
  C     -4.345520   -7.049250   89.540000
  H     -4.449070   -6.046980   89.985700
  H     -3.297340   -7.124360   89.296600
  C     -4.833610   -8.224520   90.343900
  H     -5.098770   -9.179090   89.738900
  H     -5.811130   -7.980740   90.663100
  C     -3.775850   -8.628080   91.352700
  H     -2.840460   -8.781890   90.862300
  H     -4.011820   -9.630220   91.772800
  H     -3.659380   -7.877370   92.177800
  H     -3.344230  -11.783500   85.022900
  H     -7.427190   -4.732590   86.895600

 Total Charge           Charge          ....    0
 Multiplicity           Mult            ....    1
 Number of Electrons    NEL             ....  134
 Basis Dimension        Dim             ....  322

ORBITAL ENERGIES
----------------

  NO   OCC          E(Eh)            E(eV)
   0   2.0000     -88.971729     -2421.0438
   1   2.0000     -88.966225     -2420.8941
   2   2.0000     -10.331708      -281.1401
   3   2.0000     -10.328946      -281.0649
   4   2.0000     -10.321925      -280.8739
   5   2.0000     -10.310811      -280.5714
   6   2.0000     -10.299505      -280.2638
   7   2.0000     -10.297300      -280.2038
   8   2.0000     -10.297151      -280.1997
   9   2.0000     -10.296847      -280.1915
  10   2.0000     -10.295486      -280.1544
  11   2.0000     -10.292425      -280.0711
  12   2.0000     -10.287902      -279.9480
  13   2.0000     -10.283114      -279.8177
  14   2.0000     -10.282875      -279.8112
  15   2.0000     -10.275377      -279.6072
  16   2.0000      -8.086759      -220.0519
  17   2.0000      -8.080778      -219.8892
  18   2.0000      -6.045261      -164.4999
  19   2.0000      -6.041179      -164.3889
  20   2.0000      -6.039423      -164.3410
  21   2.0000      -6.037572      -164.2907
  22   2.0000      -6.035373      -164.2309
  23   2.0000      -6.031370      -164.1219
  24   2.0000      -1.010539       -27.4982
  25   2.0000      -0.988903       -26.9094
  26   2.0000      -0.918268       -24.9873
  27   2.0000      -0.908048       -24.7092
  28   2.0000      -0.868105       -23.6223
  29   2.0000      -0.856521       -23.3071
  30   2.0000      -0.851133       -23.1605
  31   2.0000      -0.815240       -22.1838
  32   2.0000      -0.781686       -21.2707
  33   2.0000      -0.773093       -21.0369
  34   2.0000      -0.710962       -19.3463
  35   2.0000      -0.700328       -19.0569
  36   2.0000      -0.691177       -18.8079
  37   2.0000      -0.668986       -18.2040
  38   2.0000      -0.634021       -17.2526
  39   2.0000      -0.620265       -16.8783
  40   2.0000      -0.593047       -16.1376
  41   2.0000      -0.570547       -15.5254
  42   2.0000      -0.563772       -15.3410
  43   2.0000      -0.553200       -15.0533
  44   2.0000      -0.531231       -14.4555
  45   2.0000      -0.522383       -14.2148
  46   2.0000      -0.518113       -14.0986
  47   2.0000      -0.513027       -13.9602
  48   2.0000      -0.507443       -13.8082
  49   2.0000      -0.499389       -13.5891
  50   2.0000      -0.492871       -13.4117
  51   2.0000      -0.485241       -13.2041
  52   2.0000      -0.474201       -12.9037
  53   2.0000      -0.466990       -12.7075
  54   2.0000      -0.463201       -12.6044
  55   2.0000      -0.451155       -12.2765
  56   2.0000      -0.446744       -12.1565
  57   2.0000      -0.438050       -11.9199
  58   2.0000      -0.433763       -11.8033
  59   2.0000      -0.425928       -11.5901
  60   2.0000      -0.422735       -11.5032
  61   2.0000      -0.408466       -11.1149
  62   2.0000      -0.404224       -10.9995
  63   2.0000      -0.361048        -9.8246
  64   2.0000      -0.337611        -9.1869
  65   2.0000      -0.328718        -8.9449
  66   2.0000      -0.282055        -7.6751
  67   0.0000       0.021453         0.5838
  68   0.0000       0.090209         2.4547
  69   0.0000       0.092647         2.5210
  70   0.0000       0.123638         3.3644
  71   0.0000       0.127159         3.4602

MULLIKEN ATOMIC CHARGES
-----------------------
   0 S :    0.122610
   1 C :   -0.106018
   2 C :   -0.076025
   3 C :   -0.022605
   4 C :   -0.101949
   5 H :    0.011618
   6 C :    0.066642
   7 H :    0.019733
   8 H :    0.033442
   9 C :   -0.118163
  10 H :    0.042410
  11 H :    0.023106
  12 C :   -0.033948
  13 H :    0.022935
  14 H :    0.014928
  15 H :    0.039887
  16 S :    0.091334
  17 C :   -0.118772
  18 C :   -0.021068
  19 C :   -0.086229
  20 C :   -0.111119
  21 H :   -0.014848
  22 C :    0.077351
  23 H :    0.024659
  24 H :    0.025771
  25 C :   -0.084285
  26 H :    0.056429
  27 H :    0.012475
  28 C :   -0.021183
  29 H :    0.019896
  30 H :    0.033583
  31 H :    0.042239
  32 H :    0.048087
  33 H :    0.087076
Sum of atomic charges:   -0.0000000

LOEWDIN ATOMIC CHARGES
----------------------
   0 S :    0.431796
   1 C :   -0.212847
   2 C :   -0.064966
   3 C :   -0.072805
   4 C :   -0.193115
   5 H :    0.037284
   6 C :   -0.041500
   7 H :    0.029822
   8 H :    0.037310
   9 C :   -0.048406
  10 H :    0.031453
  11 H :    0.025036
  12 C :   -0.068317
  13 H :    0.026903
  14 H :    0.019995
  15 H :    0.024957
  16 S :    0.390860
  17 C :   -0.195692
  18 C :   -0.071894
  19 C :   -0.061651
  20 C :   -0.185711
  21 H :    0.018374
  22 C :   -0.029292
  23 H :    0.036473
  24 H :    0.023932
  25 C :   -0.049837
  26 H :    0.041418
  27 H :    0.020176
  28 C :   -0.063831
  29 H :    0.018029
  30 H :    0.029975
  31 H :    0.030393
  32 H :    0.030492
  33 H :    0.055186

  Mayer bond orders larger than 0.100000
B(  0-S ,  1-C ) :   1.1406 B(  0-S ,  4-C ) :   1.1657 B(  1-C ,  2-C ) :   1.5882
B(  1-C , 32-H ) :   0.9663 B(  2-C ,  3-C ) :   1.2760 B(  2-C ,  6-C ) :   1.0411
B(  3-C ,  4-C ) :   1.5422 B(  3-C ,  5-H ) :   0.9786 B(  4-C , 20-C ) :   1.0630
B(  6-C ,  7-H ) :   0.9430 B(  6-C ,  8-H ) :   0.9304 B(  6-C ,  9-C ) :   1.0533
B(  9-C , 10-H ) :   0.9576 B(  9-C , 11-H ) :   0.9605 B(  9-C , 12-C ) :   1.0756
B( 12-C , 13-H ) :   0.9749 B( 12-C , 14-H ) :   0.9721 B( 12-C , 15-H ) :   0.9782
B( 16-S , 17-C ) :   1.1352 B( 16-S , 20-C ) :   1.1288 B( 17-C , 18-C ) :   1.6425
B( 17-C , 33-H ) :   0.9505 B( 18-C , 19-C ) :   1.2444 B( 18-C , 21-H ) :   0.9943
B( 19-C , 20-C ) :   1.6132 B( 19-C , 22-C ) :   1.0223 B( 22-C , 23-H ) :   0.9267
B( 22-C , 24-H ) :   0.9344 B( 22-C , 25-C ) :   1.0400 B( 25-C , 26-H ) :   0.9619
B( 25-C , 27-H ) :   0.9470 B( 25-C , 28-C ) :   1.0692 B( 28-C , 29-H ) :   0.9726
B( 28-C , 30-H ) :   0.9723 B( 28-C , 31-H ) :   0.9720

Dispersion correction           -0.014326424
FINAL SINGLE POINT ENERGY     -1339.869243344545

DIPOLE MOMENT
-------------
                                X             Y             Z
Electronic contribution:    -15.24270      16.42080     -24.02638
Nuclear contribution   :     15.46913     -16.56298      24.66884
                        -----------------------------------------
Total Dipole Moment    :      0.22643      -0.14218       0.64246
                        -----------------------------------------
Magnitude (a.u.)       :      0.69587
Magnitude (Debye)      :      1.76877

Rotational constants in cm-1:     0.020001     0.008892     0.006369
Rotational constants in MHz :   599.621660   266.561826   190.949050

                             ****ORCA TERMINATED NORMALLY****
TOTAL RUN TIME: 0 days 0 hours 0 minutes 33 seconds 413 msec
