                         Program Version 4.2.1 -  RELEASE  -
|  1> ! wB97X-D3 SP def2-SVP
|  2> %pal
|  3> nprocs 16
|  4> end
|  5>
|  6> * xyz 0 1
|  7> S 	 0.52475 	 15.4551 	 89.1216
|  8> C 	 -0.761581 	 15.3526 	 87.9776
|  9> C 	 -2.00268 	 15.0976 	 88.4892
| 10> C 	 -1.89134 	 14.8952 	 89.9117
| 11> C 	 -0.609987 	 14.8294 	 90.386
| 12> H 	 -2.69114 	 14.9376 	 90.5789
| 13> C 	 -3.32922 	 15.4537 	 87.7874
| 14> H 	 -4.13918 	 14.9556 	 88.3744
| 15> H 	 -3.21567 	 14.9112 	 86.8145
| 16> C 	 -3.76838 	 16.9228 	 87.5959
| 17> H 	 -3.93514 	 17.3566 	 88.5634
| 18> H 	 -2.91928 	 17.4501 	 87.1045
| 19> C 	 -5.04671 	 17.0324 	 86.8041
| 20> H 	 -5.37 	 18.0499 	 86.7574
| 21> H 	 -4.94901 	 16.6624 	 85.7132
| 22> H 	 -5.74774 	 16.4159 	 87.329
| 23> S 	 0.466463 	 16.1837 	 92.5141
| 24> C 	 0.480402 	 15.503 	 94.0812
| 25> C 	 0.16948 	 14.1706 	 94.0554
| 26> C 	 -0.372521 	 13.7503 	 92.768
| 27> C 	 -0.298098 	 14.7249 	 91.7928
| 28> H 	 0.332932 	 13.7114 	 94.9793
| 29> C 	 -0.984536 	 12.413 	 92.5808
| 30> H 	 -2.0056 	 12.5212 	 92.2775
| 31> H 	 -0.951418 	 11.9453 	 93.6275
| 32> C 	 -0.262668 	 11.4366 	 91.5975
| 33> H 	 -0.48684 	 11.7467 	 90.5909
| 34> H 	 -0.786767 	 10.4704 	 91.5953
| 35> C 	 1.24858 	 11.313 	 91.9112
| 36> H 	 1.44846 	 10.8367 	 92.8789
| 37> H 	 1.60369 	 12.3061 	 92.0517
| 38> H 	 1.90657 	 10.8211 	 91.1896
| 39> H 	 -0.55726 	 15.6725 	 86.9517
| 40> H 	 0.794968 	 15.9394 	 94.9612
| 41> *
| 42>
| 43>                          ****END OF INPUT****

CARTESIAN COORDINATES (ANGSTROEM)
---------------------------------
  S      0.524750   15.455100   89.121600
  C     -0.761581   15.352600   87.977600
  C     -2.002680   15.097600   88.489200
  C     -1.891340   14.895200   89.911700
  C     -0.609987   14.829400   90.386000
  H     -2.691140   14.937600   90.578900
  C     -3.329220   15.453700   87.787400
  H     -4.139180   14.955600   88.374400
  H     -3.215670   14.911200   86.814500
  C     -3.768380   16.922800   87.595900
  H     -3.935140   17.356600   88.563400
  H     -2.919280   17.450100   87.104500
  C     -5.046710   17.032400   86.804100
  H     -5.370000   18.049900   86.757400
  H     -4.949010   16.662400   85.713200
  H     -5.747740   16.415900   87.329000
  S      0.466463   16.183700   92.514100
  C      0.480402   15.503000   94.081200
  C      0.169480   14.170600   94.055400
  C     -0.372521   13.750300   92.768000
  C     -0.298098   14.724900   91.792800
  H      0.332932   13.711400   94.979300
  C     -0.984536   12.413000   92.580800
  H     -2.005600   12.521200   92.277500
  H     -0.951418   11.945300   93.627500
  C     -0.262668   11.436600   91.597500
  H     -0.486840   11.746700   90.590900
  H     -0.786767   10.470400   91.595300
  C      1.248580   11.313000   91.911200
  H      1.448460   10.836700   92.878900
  H      1.603690   12.306100   92.051700
  H      1.906570   10.821100   91.189600
  H     -0.557260   15.672500   86.951700
  H      0.794968   15.939400   94.961200

 Total Charge           Charge          ....    0
 Multiplicity           Mult            ....    1
 Number of Electrons    NEL             ....  134
 Basis Dimension        Dim             ....  322

ORBITAL ENERGIES
----------------

  NO   OCC          E(Eh)            E(eV)
   0   2.0000     -88.968867     -2420.9660
   1   2.0000     -88.958864     -2420.6938
   2   2.0000     -10.330412      -281.1048
   3   2.0000     -10.326127      -280.9882
   4   2.0000     -10.315532      -280.6999
   5   2.0000     -10.307314      -280.4763
   6   2.0000     -10.306382      -280.4509
   7   2.0000     -10.301371      -280.3146
   8   2.0000     -10.300658      -280.2952
   9   2.0000     -10.291564      -280.0477
  10   2.0000     -10.290672      -280.0234
  11   2.0000     -10.289087      -279.9803
  12   2.0000     -10.288644      -279.9682
  13   2.0000     -10.283127      -279.8181
  14   2.0000     -10.282186      -279.7925
  15   2.0000     -10.269269      -279.4410
  16   2.0000      -8.083305      -219.9579
  17   2.0000      -8.074103      -219.7075
  18   2.0000      -6.041861      -164.4074
  19   2.0000      -6.038108      -164.3053
  20   2.0000      -6.033774      -164.1873
  21   2.0000      -6.032676      -164.1575
  22   2.0000      -6.028518      -164.0443
  23   2.0000      -6.024772      -163.9424
  24   2.0000      -1.005842       -27.3704
  25   2.0000      -0.984820       -26.7983
  26   2.0000      -0.910885       -24.7864
  27   2.0000      -0.905032       -24.6272
  28   2.0000      -0.875248       -23.8167
  29   2.0000      -0.853776       -23.2324
  30   2.0000      -0.840696       -22.8765
  31   2.0000      -0.817987       -22.2586
  32   2.0000      -0.779739       -21.2178
  33   2.0000      -0.769771       -20.9465
  34   2.0000      -0.713951       -19.4276
  35   2.0000      -0.698196       -18.9989
  36   2.0000      -0.691765       -18.8239
  37   2.0000      -0.663727       -18.0609
  38   2.0000      -0.646899       -17.6030
  39   2.0000      -0.619193       -16.8491
  40   2.0000      -0.583314       -15.8728
  41   2.0000      -0.577229       -15.7072
  42   2.0000      -0.563394       -15.3307
  43   2.0000      -0.549979       -14.9657
  44   2.0000      -0.542494       -14.7620
  45   2.0000      -0.528449       -14.3798
  46   2.0000      -0.511852       -13.9282
  47   2.0000      -0.510941       -13.9034
  48   2.0000      -0.503983       -13.7141
  49   2.0000      -0.500599       -13.6220
  50   2.0000      -0.480880       -13.0854
  51   2.0000      -0.475979       -12.9520
  52   2.0000      -0.473229       -12.8772
  53   2.0000      -0.464795       -12.6477
  54   2.0000      -0.458911       -12.4876
  55   2.0000      -0.449697       -12.2369
  56   2.0000      -0.440142       -11.9769
  57   2.0000      -0.437638       -11.9087
  58   2.0000      -0.427603       -11.6357
  59   2.0000      -0.427060       -11.6209
  60   2.0000      -0.423449       -11.5226
  61   2.0000      -0.421810       -11.4780
  62   2.0000      -0.405316       -11.0292
  63   2.0000      -0.346840        -9.4380
  64   2.0000      -0.329021        -8.9531
  65   2.0000      -0.325400        -8.8546
  66   2.0000      -0.294748        -8.0205
  67   0.0000       0.030065         0.8181
  68   0.0000       0.055909         1.5213
  69   0.0000       0.106347         2.8939
  70   0.0000       0.122704         3.3389
  71   0.0000       0.128498         3.4966

MULLIKEN ATOMIC CHARGES
-----------------------
   0 S :    0.111200
   1 C :   -0.132942
   2 C :   -0.044862
   3 C :    0.031500
   4 C :   -0.136015
   5 H :    0.001492
   6 C :   -0.001314
   7 H :    0.024197
   8 H :    0.038104
   9 C :   -0.040766
  10 H :    0.026390
  11 H :    0.029199
  12 C :   -0.042176
  13 H :    0.037024
  14 H :    0.041998
  15 H :    0.024309
  16 S :    0.087969
  17 C :   -0.053191
  18 C :   -0.029835
  19 C :   -0.048453
  20 C :   -0.161771
  21 H :   -0.001613
  22 C :    0.049627
  23 H :    0.033393
  24 H :    0.027375
  25 C :   -0.048895
  26 H :    0.027759
  27 H :    0.023503
  28 C :   -0.044451
  29 H :    0.021080
  30 H :    0.031710
  31 H :    0.039034
  32 H :    0.055084
  33 H :    0.024338
Sum of atomic charges:   -0.0000000

LOEWDIN ATOMIC CHARGES
----------------------
   0 S :    0.390763
   1 C :   -0.188714
   2 C :   -0.074934
   3 C :   -0.041933
   4 C :   -0.185212
   5 H :    0.022616
   6 C :   -0.037549
   7 H :    0.028524
   8 H :    0.036094
   9 C :   -0.039823
  10 H :    0.023658
  11 H :    0.024815
  12 C :   -0.062372
  13 H :    0.024661
  14 H :    0.034621
  15 H :    0.021747
  16 S :    0.391701
  17 C :   -0.176982
  18 C :   -0.071595
  19 C :   -0.055049
  20 C :   -0.182641
  21 H :    0.024474
  22 C :   -0.033640
  23 H :    0.031087
  24 H :    0.036639
  25 C :   -0.037475
  26 H :    0.021878
  27 H :    0.023981
  28 C :   -0.068107
  29 H :    0.025047
  30 H :    0.022933
  31 H :    0.027824
  32 H :    0.026822
  33 H :    0.016140

  Mayer bond orders larger than 0.100000
B(  0-S ,  1-C ) :   1.1535 B(  0-S ,  4-C ) :   1.1129 B(  1-C ,  2-C ) :   1.6146
B(  1-C , 32-H ) :   0.9626 B(  2-C ,  3-C ) :   1.2245 B(  2-C ,  6-C ) :   1.0280
B(  3-C ,  4-C ) :   1.5991 B(  3-C ,  5-H ) :   0.9974 B(  4-C , 20-C ) :   1.0689
B(  6-C ,  7-H ) :   0.9418 B(  6-C ,  8-H ) :   0.9398 B(  6-C ,  9-C ) :   1.0603
B(  9-C , 10-H ) :   0.9518 B(  9-C , 11-H ) :   0.9527 B(  9-C , 12-C ) :   1.0842
B( 12-C , 13-H ) :   0.9723 B( 12-C , 14-H ) :   0.9740 B( 12-C , 15-H ) :   0.9732
B( 16-S , 17-C ) :   1.1595 B( 16-S , 20-C ) :   1.1151 B( 17-C , 18-C ) :   1.6465
B( 17-C , 33-H ) :   0.9703 B( 18-C , 19-C ) :   1.1882 B( 18-C , 21-H ) :   1.0017
B( 19-C , 20-C ) :   1.6132 B( 19-C , 22-C ) :   1.0459 B( 22-C , 23-H ) :   0.9343
B( 22-C , 24-H ) :   0.9374 B( 22-C , 25-C ) :   1.0710 B( 25-C , 26-H ) :   0.9552
B( 25-C , 27-H ) :   0.9565 B( 25-C , 28-C ) :   1.0589 B( 28-C , 29-H ) :   0.9754
B( 28-C , 30-H ) :   0.9742 B( 28-C , 31-H ) :   0.9769

Dispersion correction           -0.014564657
FINAL SINGLE POINT ENERGY     -1339.864324074864

DIPOLE MOMENT
-------------
                                X             Y             Z
Electronic contribution:     15.17625       9.42739       7.79527
Nuclear contribution   :    -15.66079      -9.41131      -7.78248
                        -----------------------------------------
Total Dipole Moment    :     -0.48454       0.01608       0.01280
                        -----------------------------------------
Magnitude (a.u.)       :      0.48497
Magnitude (Debye)      :      1.23270

Rotational constants in cm-1:     0.022140     0.007429     0.006853
Rotational constants in MHz :   663.728677   222.728509   205.440886

                             ****ORCA TERMINATED NORMALLY****
TOTAL RUN TIME: 0 days 0 hours 0 minutes 35 seconds 710 msec
