                         Program Version 4.2.1 -  RELEASE  -
|  1> ! wB97X-D3 SP def2-SVP
|  2> %pal
|  3> nprocs 16
|  4> end
|  5>
|  6> * xyz 0 1
|  7> S 	 51.5534 	 5.72311 	 83.9315
|  8> C 	 52.8253 	 6.3969 	 82.9406
|  9> C 	 52.8559 	 5.76802 	 81.7321
| 10> C 	 51.6956 	 4.92059 	 81.4903
| 11> C 	 50.8892 	 4.77389 	 82.5989
| 12> H 	 51.4837 	 4.36824 	 80.5458
| 13> C 	 53.9728 	 5.88842 	 80.7642
| 14> H 	 53.9215 	 6.9117 	 80.2559
| 15> H 	 53.7549 	 5.12276 	 79.9905
| 16> C 	 55.3681 	 5.62751 	 81.2645
| 17> H 	 55.6483 	 6.3061 	 82.0941
| 18> H 	 55.4191 	 4.64463 	 81.7203
| 19> C 	 56.4121 	 5.66975 	 80.1651
| 20> H 	 56.2412 	 6.32285 	 79.3637
| 21> H 	 57.3925 	 5.7989 	 80.6077
| 22> H 	 56.3405 	 4.66518 	 79.631
| 23> S 	 48.4295 	 4.42091 	 83.6416
| 24> C 	 47.5904 	 2.87769 	 83.4511
| 25> C 	 48.3294 	 1.94597 	 82.779
| 26> C 	 49.5965 	 2.52025 	 82.3348
| 27> C 	 49.7756 	 3.86376 	 82.7347
| 28> H 	 47.9682 	 0.91675 	 82.8366
| 29> C 	 50.6853 	 1.58533 	 81.6898
| 30> H 	 51.3731 	 1.09865 	 82.4577
| 31> H 	 51.2923 	 2.25662 	 81.1172
| 32> C 	 50.1405 	 0.415125 	 80.8623
| 33> H 	 49.4685 	 0.825826 	 80.107
| 34> H 	 49.6128 	 -0.353124 	 81.5096
| 35> C 	 51.1198 	 -0.329999 	 79.9986
| 36> H 	 50.8068 	 -1.23792 	 79.6105
| 37> H 	 51.9087 	 -0.685543 	 80.6372
| 38> H 	 51.4686 	 0.201266 	 79.1394
| 39> H 	 53.5832 	 6.97036 	 83.3844
| 40> H 	 46.6314 	 2.59929 	 83.8001
| 41> *
| 42>
| 43>                          ****END OF INPUT****

CARTESIAN COORDINATES (ANGSTROEM)
---------------------------------
  S     51.553400    5.723110   83.931500
  C     52.825300    6.396900   82.940600
  C     52.855900    5.768020   81.732100
  C     51.695600    4.920590   81.490300
  C     50.889200    4.773890   82.598900
  H     51.483700    4.368240   80.545800
  C     53.972800    5.888420   80.764200
  H     53.921500    6.911700   80.255900
  H     53.754900    5.122760   79.990500
  C     55.368100    5.627510   81.264500
  H     55.648300    6.306100   82.094100
  H     55.419100    4.644630   81.720300
  C     56.412100    5.669750   80.165100
  H     56.241200    6.322850   79.363700
  H     57.392500    5.798900   80.607700
  H     56.340500    4.665180   79.631000
  S     48.429500    4.420910   83.641600
  C     47.590400    2.877690   83.451100
  C     48.329400    1.945970   82.779000
  C     49.596500    2.520250   82.334800
  C     49.775600    3.863760   82.734700
  H     47.968200    0.916750   82.836600
  C     50.685300    1.585330   81.689800
  H     51.373100    1.098650   82.457700
  H     51.292300    2.256620   81.117200
  C     50.140500    0.415125   80.862300
  H     49.468500    0.825826   80.107000
  H     49.612800   -0.353124   81.509600
  C     51.119800   -0.329999   79.998600
  H     50.806800   -1.237920   79.610500
  H     51.908700   -0.685543   80.637200
  H     51.468600    0.201266   79.139400
  H     53.583200    6.970360   83.384400
  H     46.631400    2.599290   83.800100

 Total Charge           Charge          ....    0
 Multiplicity           Mult            ....    1
 Number of Electrons    NEL             ....  134
 Basis Dimension        Dim             ....  322

ORBITAL ENERGIES
----------------

  NO   OCC          E(Eh)            E(eV)
   0   2.0000     -88.967490     -2420.9285
   1   2.0000     -88.963624     -2420.8233
   2   2.0000     -10.331421      -281.1323
   3   2.0000     -10.329241      -281.0729
   4   2.0000     -10.314264      -280.6654
   5   2.0000     -10.313974      -280.6575
   6   2.0000     -10.308316      -280.5036
   7   2.0000     -10.299880      -280.2740
   8   2.0000     -10.298682      -280.2414
   9   2.0000     -10.297867      -280.2192
  10   2.0000     -10.296411      -280.1796
  11   2.0000     -10.294254      -280.1209
  12   2.0000     -10.289160      -279.9823
  13   2.0000     -10.285647      -279.8867
  14   2.0000     -10.277955      -279.6774
  15   2.0000     -10.267146      -279.3832
  16   2.0000      -8.082476      -219.9354
  17   2.0000      -8.078391      -219.8242
  18   2.0000      -6.041001      -164.3840
  19   2.0000      -6.036999      -164.2751
  20   2.0000      -6.036923      -164.2730
  21   2.0000      -6.033218      -164.1722
  22   2.0000      -6.032899      -164.1635
  23   2.0000      -6.029026      -164.0582
  24   2.0000      -1.007496       -27.4153
  25   2.0000      -0.983955       -26.7748
  26   2.0000      -0.917596       -24.9691
  27   2.0000      -0.907753       -24.7012
  28   2.0000      -0.876336       -23.8463
  29   2.0000      -0.852680       -23.2026
  30   2.0000      -0.846681       -23.0394
  31   2.0000      -0.820672       -22.3316
  32   2.0000      -0.781628       -21.2692
  33   2.0000      -0.771336       -20.9891
  34   2.0000      -0.709437       -19.3048
  35   2.0000      -0.703259       -19.1366
  36   2.0000      -0.694592       -18.9008
  37   2.0000      -0.656089       -17.8531
  38   2.0000      -0.641097       -17.4451
  39   2.0000      -0.616993       -16.7892
  40   2.0000      -0.591531       -16.0964
  41   2.0000      -0.575759       -15.6672
  42   2.0000      -0.574248       -15.6261
  43   2.0000      -0.563408       -15.3311
  44   2.0000      -0.529880       -14.4188
  45   2.0000      -0.526201       -14.3187
  46   2.0000      -0.517944       -14.0940
  47   2.0000      -0.516306       -14.0494
  48   2.0000      -0.506044       -13.7701
  49   2.0000      -0.502487       -13.6734
  50   2.0000      -0.498143       -13.5551
  51   2.0000      -0.479671       -13.0525
  52   2.0000      -0.475837       -12.9482
  53   2.0000      -0.465114       -12.6564
  54   2.0000      -0.459079       -12.4922
  55   2.0000      -0.452482       -12.3126
  56   2.0000      -0.445692       -12.1279
  57   2.0000      -0.437442       -11.9034
  58   2.0000      -0.428128       -11.6499
  59   2.0000      -0.423447       -11.5226
  60   2.0000      -0.418850       -11.3975
  61   2.0000      -0.410601       -11.1730
  62   2.0000      -0.408709       -11.1215
  63   2.0000      -0.355802        -9.6819
  64   2.0000      -0.331549        -9.0219
  65   2.0000      -0.325909        -8.8684
  66   2.0000      -0.290240        -7.8978
  67   0.0000       0.026045         0.7087
  68   0.0000       0.075530         2.0553
  69   0.0000       0.106601         2.9008
  70   0.0000       0.118641         3.2284
  71   0.0000       0.124241         3.3808

MULLIKEN ATOMIC CHARGES
-----------------------
   0 S :    0.096856
   1 C :   -0.101925
   2 C :   -0.089408
   3 C :    0.000633
   4 C :   -0.122733
   5 H :    0.038485
   6 C :    0.042686
   7 H :    0.053447
   8 H :    0.015103
   9 C :   -0.088701
  10 H :    0.026641
  11 H :    0.029867
  12 C :   -0.028953
  13 H :    0.018192
  14 H :    0.040066
  15 H :    0.029356
  16 S :    0.113489
  17 C :   -0.066957
  18 C :   -0.053007
  19 C :   -0.046820
  20 C :   -0.154937
  21 H :    0.036325
  22 C :    0.091961
  23 H :    0.049817
  24 H :   -0.005825
  25 C :   -0.125198
  26 H :    0.028969
  27 H :    0.042909
  28 C :    0.013373
  29 H :    0.005375
  30 H :    0.009239
  31 H :    0.026760
  32 H :    0.038436
  33 H :    0.036478
Sum of atomic charges:    0.0000000

LOEWDIN ATOMIC CHARGES
----------------------
   0 S :    0.394594
   1 C :   -0.186572
   2 C :   -0.064273
   3 C :   -0.069546
   4 C :   -0.188188
   5 H :    0.037906
   6 C :   -0.042131
   7 H :    0.042408
   8 H :    0.030341
   9 C :   -0.046232
  10 H :    0.020768
  11 H :    0.027038
  12 C :   -0.062122
  13 H :    0.015463
  14 H :    0.028873
  15 H :    0.034015
  16 S :    0.418314
  17 C :   -0.174311
  18 C :   -0.072806
  19 C :   -0.049375
  20 C :   -0.212618
  21 H :    0.039996
  22 C :   -0.031942
  23 H :    0.040811
  24 H :    0.019302
  25 C :   -0.049957
  26 H :    0.025252
  27 H :    0.030053
  28 C :   -0.060777
  29 H :    0.019516
  30 H :    0.022212
  31 H :    0.023169
  32 H :    0.018320
  33 H :    0.022497

  Mayer bond orders larger than 0.100000
B(  0-S ,  1-C ) :   1.1225 B(  0-S ,  4-C ) :   1.1489 B(  1-C ,  2-C ) :   1.6162
B(  1-C , 32-H ) :   0.9790 B(  2-C ,  3-C ) :   1.2309 B(  2-C ,  6-C ) :   1.0256
B(  3-C ,  4-C ) :   1.5854 B(  3-C ,  5-H ) :   0.9797 B(  4-C , 20-C ) :   1.0584
B(  6-C ,  7-H ) :   0.9277 B(  6-C ,  8-H ) :   0.9443 B(  6-C ,  9-C ) :   1.0729
B(  9-C , 10-H ) :   0.9540 B(  9-C , 11-H ) :   0.9549 B(  9-C , 12-C ) :   1.0802
B( 12-C , 13-H ) :   0.9766 B( 12-C , 14-H ) :   0.9742 B( 12-C , 15-H ) :   0.9737
B( 16-S , 17-C ) :   1.1443 B( 16-S , 20-C ) :   1.1460 B( 17-C , 18-C ) :   1.6496
B( 17-C , 33-H ) :   0.9644 B( 18-C , 19-C ) :   1.2244 B( 18-C , 21-H ) :   0.9845
B( 19-C , 20-C ) :   1.5853 B( 19-C , 22-C ) :   1.0294 B( 22-C , 23-H ) :   0.9303
B( 22-C , 24-H ) :   0.9336 B( 22-C , 25-C ) :   1.0714 B( 25-C , 26-H ) :   0.9590
B( 25-C , 27-H ) :   0.9465 B( 25-C , 28-C ) :   1.0978 B( 28-C , 29-H ) :   0.9663
B( 28-C , 30-H ) :   0.9660 B( 28-C , 31-H ) :   0.9732

Dispersion correction           -0.013256504
FINAL SINGLE POINT ENERGY     -1339.868496745300

DIPOLE MOMENT
-------------
                                X             Y             Z
Electronic contribution:    -21.04259      14.11951      19.82225
Nuclear contribution   :     21.45272     -14.68009     -20.18769
                        -----------------------------------------
Total Dipole Moment    :      0.41013      -0.56057      -0.36544
                        -----------------------------------------
Magnitude (a.u.)       :      0.78485
Magnitude (Debye)      :      1.99494

Rotational constants in cm-1:     0.017232     0.008443     0.005894
Rotational constants in MHz :   516.603636   253.128379   176.682890

                             ****ORCA TERMINATED NORMALLY****
TOTAL RUN TIME: 0 days 0 hours 0 minutes 28 seconds 845 msec
