                         Program Version 4.2.1 -  RELEASE  -
|  1> ! wB97X-D3 SP def2-SVP
|  2> %pal
|  3> nprocs 16
|  4> end
|  5>
|  6> * xyz 0 1
|  7> S 	 -38.58 	 72.1951 	 165.767
|  8> C 	 -38.2807 	 73.1426 	 164.309
|  9> C 	 -37.9702 	 74.4504 	 164.667
| 10> C 	 -38.2497 	 74.7243 	 166.034
| 11> C 	 -38.7308 	 73.6366 	 166.727
| 12> H 	 -38.1128 	 75.6596 	 166.442
| 13> C 	 -37.3757 	 75.5161 	 163.796
| 14> H 	 -37.4105 	 75.1541 	 162.722
| 15> H 	 -36.2772 	 75.7184 	 164.102
| 16> C 	 -38.1386 	 76.8843 	 163.888
| 17> H 	 -39.1984 	 76.819 	 163.597
| 18> H 	 -38.0812 	 77.2886 	 164.912
| 19> C 	 -37.5405 	 77.8698 	 162.841
| 20> H 	 -37.8635 	 77.5874 	 161.827
| 21> H 	 -37.818 	 78.8922 	 163.045
| 22> H 	 -36.424 	 77.8999 	 162.922
| 23> S 	 -37.9181 	 72.8661 	 169.274
| 24> C 	 -38.8818 	 73.2081 	 170.662
| 25> C 	 -39.8214 	 74.1451 	 170.332
| 26> C 	 -39.9531 	 74.431 	 168.923
| 27> C 	 -39.0013 	 73.6952 	 168.161
| 28> H 	 -40.3144 	 74.6369 	 171.171
| 29> C 	 -40.9707 	 75.442 	 168.299
| 30> H 	 -41.9947 	 75.1491 	 168.545
| 31> H 	 -40.8709 	 75.4435 	 167.211
| 32> C 	 -40.9322 	 76.9803 	 168.7
| 33> H 	 -41.0868 	 77.6149 	 167.832
| 34> H 	 -39.8649 	 77.1518 	 168.965
| 35> C 	 -41.9431 	 77.2287 	 169.831
| 36> H 	 -42.0017 	 76.454 	 170.582
| 37> H 	 -42.9103 	 77.2019 	 169.337
| 38> H 	 -41.7915 	 78.2117 	 170.281
| 39> H 	 -38.0421 	 72.7845 	 163.311
| 40> H 	 -38.4434 	 73.0052 	 171.718
| 41> *
| 42>
| 43>                          ****END OF INPUT****

CARTESIAN COORDINATES (ANGSTROEM)
---------------------------------
  S    -38.580000   72.195100  165.767000
  C    -38.280700   73.142600  164.309000
  C    -37.970200   74.450400  164.667000
  C    -38.249700   74.724300  166.034000
  C    -38.730800   73.636600  166.727000
  H    -38.112800   75.659600  166.442000
  C    -37.375700   75.516100  163.796000
  H    -37.410500   75.154100  162.722000
  H    -36.277200   75.718400  164.102000
  C    -38.138600   76.884300  163.888000
  H    -39.198400   76.819000  163.597000
  H    -38.081200   77.288600  164.912000
  C    -37.540500   77.869800  162.841000
  H    -37.863500   77.587400  161.827000
  H    -37.818000   78.892200  163.045000
  H    -36.424000   77.899900  162.922000
  S    -37.918100   72.866100  169.274000
  C    -38.881800   73.208100  170.662000
  C    -39.821400   74.145100  170.332000
  C    -39.953100   74.431000  168.923000
  C    -39.001300   73.695200  168.161000
  H    -40.314400   74.636900  171.171000
  C    -40.970700   75.442000  168.299000
  H    -41.994700   75.149100  168.545000
  H    -40.870900   75.443500  167.211000
  C    -40.932200   76.980300  168.700000
  H    -41.086800   77.614900  167.832000
  H    -39.864900   77.151800  168.965000
  C    -41.943100   77.228700  169.831000
  H    -42.001700   76.454000  170.582000
  H    -42.910300   77.201900  169.337000
  H    -41.791500   78.211700  170.281000
  H    -38.042100   72.784500  163.311000
  H    -38.443400   73.005200  171.718000

 Total Charge           Charge          ....    0
 Multiplicity           Mult            ....    1
 Number of Electrons    NEL             ....  134
 Basis Dimension        Dim             ....  322

ORBITAL ENERGIES
----------------

  NO   OCC          E(Eh)            E(eV)
   0   2.0000     -88.969668     -2420.9877
   1   2.0000     -88.961500     -2420.7655
   2   2.0000     -10.332074      -281.1500
   3   2.0000     -10.329725      -281.0861
   4   2.0000     -10.320312      -280.8300
   5   2.0000     -10.316882      -280.7366
   6   2.0000     -10.313928      -280.6563
   7   2.0000     -10.307119      -280.4710
   8   2.0000     -10.298973      -280.2493
   9   2.0000     -10.295785      -280.1625
  10   2.0000     -10.295607      -280.1577
  11   2.0000     -10.294393      -280.1247
  12   2.0000     -10.290966      -280.0314
  13   2.0000     -10.286959      -279.9224
  14   2.0000     -10.284170      -279.8465
  15   2.0000     -10.279364      -279.7157
  16   2.0000      -8.084042      -219.9780
  17   2.0000      -8.076792      -219.7807
  18   2.0000      -6.042676      -164.4296
  19   2.0000      -6.038726      -164.3221
  20   2.0000      -6.035274      -164.2281
  21   2.0000      -6.034537      -164.2081
  22   2.0000      -6.031175      -164.1166
  23   2.0000      -6.027585      -164.0189
  24   2.0000      -1.006897       -27.3991
  25   2.0000      -0.985005       -26.8034
  26   2.0000      -0.909038       -24.7362
  27   2.0000      -0.900129       -24.4938
  28   2.0000      -0.870144       -23.6778
  29   2.0000      -0.850028       -23.1304
  30   2.0000      -0.842268       -22.9193
  31   2.0000      -0.813634       -22.1401
  32   2.0000      -0.778164       -21.1749
  33   2.0000      -0.768169       -20.9029
  34   2.0000      -0.710233       -19.3264
  35   2.0000      -0.696847       -18.9622
  36   2.0000      -0.690867       -18.7995
  37   2.0000      -0.650754       -17.7079
  38   2.0000      -0.638892       -17.3851
  39   2.0000      -0.625564       -17.0225
  40   2.0000      -0.592939       -16.1347
  41   2.0000      -0.571246       -15.5444
  42   2.0000      -0.564335       -15.3563
  43   2.0000      -0.546086       -14.8598
  44   2.0000      -0.538245       -14.6464
  45   2.0000      -0.523255       -14.2385
  46   2.0000      -0.512529       -13.9466
  47   2.0000      -0.506593       -13.7851
  48   2.0000      -0.503098       -13.6900
  49   2.0000      -0.498805       -13.5732
  50   2.0000      -0.492825       -13.4105
  51   2.0000      -0.479807       -13.0562
  52   2.0000      -0.472613       -12.8605
  53   2.0000      -0.467915       -12.7326
  54   2.0000      -0.464285       -12.6338
  55   2.0000      -0.444408       -12.0930
  56   2.0000      -0.442944       -12.0531
  57   2.0000      -0.434325       -11.8186
  58   2.0000      -0.432631       -11.7725
  59   2.0000      -0.430672       -11.7192
  60   2.0000      -0.421484       -11.4692
  61   2.0000      -0.416066       -11.3217
  62   2.0000      -0.409309       -11.1379
  63   2.0000      -0.341573        -9.2947
  64   2.0000      -0.328164        -8.9298
  65   2.0000      -0.325356        -8.8534
  66   2.0000      -0.299178        -8.1410
  67   0.0000       0.030795         0.8380
  68   0.0000       0.060613         1.6494
  69   0.0000       0.108251         2.9457
  70   0.0000       0.113863         3.0984
  71   0.0000       0.133079         3.6213

MULLIKEN ATOMIC CHARGES
-----------------------
   0 S :    0.122248
   1 C :   -0.105354
   2 C :   -0.079472
   3 C :    0.064045
   4 C :   -0.137938
   5 H :   -0.021673
   6 C :    0.011551
   7 H :    0.029449
   8 H :    0.062571
   9 C :   -0.113350
  10 H :    0.042568
  11 H :    0.040837
  12 C :   -0.050031
  13 H :    0.040963
  14 H :    0.029329
  15 H :    0.028227
  16 S :    0.098714
  17 C :   -0.129637
  18 C :   -0.050102
  19 C :   -0.002202
  20 C :   -0.179294
  21 H :    0.028369
  22 C :    0.037257
  23 H :    0.026769
  24 H :    0.027983
  25 C :   -0.081802
  26 H :    0.033873
  27 H :    0.030430
  28 C :   -0.050734
  29 H :    0.033159
  30 H :    0.031203
  31 H :    0.039977
  32 H :    0.046282
  33 H :    0.095784
Sum of atomic charges:    0.0000000

LOEWDIN ATOMIC CHARGES
----------------------
   0 S :    0.414284
   1 C :   -0.197412
   2 C :   -0.067070
   3 C :   -0.045431
   4 C :   -0.199954
   5 H :    0.016012
   6 C :   -0.039858
   7 H :    0.033869
   8 H :    0.045855
   9 C :   -0.043901
  10 H :    0.028787
  11 H :    0.022190
  12 C :   -0.068119
  13 H :    0.027080
  14 H :    0.022556
  15 H :    0.025867
  16 S :    0.407832
  17 C :   -0.212654
  18 C :   -0.080972
  19 C :   -0.053018
  20 C :   -0.193528
  21 H :    0.032976
  22 C :   -0.031265
  23 H :    0.027396
  24 H :    0.030206
  25 C :   -0.041480
  26 H :    0.024360
  27 H :    0.022356
  28 C :   -0.065417
  29 H :    0.021397
  30 H :    0.027852
  31 H :    0.027076
  32 H :    0.030242
  33 H :    0.051888

  Mayer bond orders larger than 0.100000
B(  0-S ,  1-C ) :   1.1309 B(  0-S ,  4-C ) :   1.1538 B(  1-C ,  2-C ) :   1.6076
B(  1-C , 32-H ) :   0.9651 B(  2-C ,  3-C ) :   1.2460 B(  2-C ,  6-C ) :   1.0348
B(  3-C ,  4-C ) :   1.5438 B(  3-C ,  5-H ) :   1.0097 B(  4-C , 20-C ) :   1.0444
B(  6-C ,  7-H ) :   0.9460 B(  6-C ,  8-H ) :   0.9327 B(  6-C ,  9-C ) :   1.0558
B(  9-C , 10-H ) :   0.9598 B(  9-C , 11-H ) :   0.9541 B(  9-C , 12-C ) :   1.0813
B( 12-C , 13-H ) :   0.9774 B( 12-C , 14-H ) :   0.9745 B( 12-C , 15-H ) :   0.9735
B( 16-S , 17-C ) :   1.1582 B( 16-S , 20-C ) :   1.1667 B( 17-C , 18-C ) :   1.6051
B( 17-C , 20-C ) :   0.1009 B( 17-C , 33-H ) :   0.9521 B( 18-C , 19-C ) :   1.2443
B( 18-C , 21-H ) :   0.9860 B( 19-C , 20-C ) :   1.5650 B( 19-C , 22-C ) :   1.0545
B( 22-C , 23-H ) :   0.9459 B( 22-C , 24-H ) :   0.9357 B( 22-C , 25-C ) :   1.0381
B( 25-C , 26-H ) :   0.9632 B( 25-C , 27-H ) :   0.9634 B( 25-C , 28-C ) :   1.0646
B( 28-C , 29-H ) :   0.9800 B( 28-C , 30-H ) :   0.9731 B( 28-C , 31-H ) :   0.9733

Dispersion correction           -0.013890425
FINAL SINGLE POINT ENERGY     -1339.869079017449

DIPOLE MOMENT
-------------
                                X             Y             Z
Electronic contribution:      7.54312     -28.60534       7.97841
Nuclear contribution   :     -7.49803      29.42578      -8.11219
                        -----------------------------------------
Total Dipole Moment    :      0.04509       0.82044      -0.13378
                        -----------------------------------------
Magnitude (a.u.)       :      0.83249
Magnitude (Debye)      :      2.11603

Rotational constants in cm-1:     0.016299     0.009000     0.006446
Rotational constants in MHz :   488.632349   269.805545   193.241276

                             ****ORCA TERMINATED NORMALLY****
TOTAL RUN TIME: 0 days 0 hours 0 minutes 34 seconds 188 msec
