                         Program Version 4.2.1 -  RELEASE  -
|  1> ! wB97X-D3 SP def2-SVP
|  2> %pal
|  3> nprocs 16
|  4> end
|  5>
|  6> * xyz 0 1
|  7> S 	 -1.63456 	 24.3227 	 33.902
|  8> C 	 -2.3104 	 24.4475 	 32.3326
|  9> C 	 -1.72953 	 23.7364 	 31.3322
| 10> C 	 -0.616495 	 23.0362 	 31.8999
| 11> C 	 -0.540243 	 23.1854 	 33.2867
| 12> H 	 0.162366 	 22.4506 	 31.3845
| 13> C 	 -2.16373 	 23.6984 	 29.8546
| 14> H 	 -1.59107 	 22.8615 	 29.3451
| 15> H 	 -1.81312 	 24.6027 	 29.4746
| 16> C 	 -3.65592 	 23.6956 	 29.5259
| 17> H 	 -4.11126 	 22.9822 	 30.1982
| 18> H 	 -4.23297 	 24.6037 	 29.7438
| 19> C 	 -4.00209 	 23.4844 	 28.0192
| 20> H 	 -3.51984 	 22.7711 	 27.4095
| 21> H 	 -5.07508 	 23.3422 	 28.0202
| 22> H 	 -3.66502 	 24.3668 	 27.5336
| 23> S 	 1.15713 	 23.7081 	 35.3884
| 24> C 	 2.28407 	 22.4771 	 35.9959
| 25> C 	 2.07393 	 21.2771 	 35.3969
| 26> C 	 1.0891 	 21.3429 	 34.3042
| 27> C 	 0.4475 	 22.5606 	 34.2022
| 28> H 	 2.85067 	 20.46 	 35.5727
| 29> C 	 0.83356 	 20.1859 	 33.3468
| 30> H 	 1.7886 	 20.0834 	 32.8208
| 31> H 	 0.0647485 	 20.4777 	 32.6019
| 32> C 	 0.198975 	 18.9095 	 33.9039
| 33> H 	 1.01418 	 18.4254 	 34.4257
| 34> H 	 0.0396194 	 18.2272 	 33.082
| 35> C 	 -1.0581 	 18.9964 	 34.7282
| 36> H 	 -1.24058 	 18.034 	 35.2692
| 37> H 	 -2.04538 	 19.2522 	 34.2925
| 38> H 	 -0.910393 	 19.7184 	 35.5455
| 39> H 	 -3.14616 	 25.1347 	 32.1687
| 40> H 	 3.16005 	 22.6299 	 36.629
| 41> *
| 42>
| 43>                          ****END OF INPUT****

CARTESIAN COORDINATES (ANGSTROEM)
---------------------------------
  S     -1.634560   24.322700   33.902000
  C     -2.310400   24.447500   32.332600
  C     -1.729530   23.736400   31.332200
  C     -0.616495   23.036200   31.899900
  C     -0.540243   23.185400   33.286700
  H      0.162366   22.450600   31.384500
  C     -2.163730   23.698400   29.854600
  H     -1.591070   22.861500   29.345100
  H     -1.813120   24.602700   29.474600
  C     -3.655920   23.695600   29.525900
  H     -4.111260   22.982200   30.198200
  H     -4.232970   24.603700   29.743800
  C     -4.002090   23.484400   28.019200
  H     -3.519840   22.771100   27.409500
  H     -5.075080   23.342200   28.020200
  H     -3.665020   24.366800   27.533600
  S      1.157130   23.708100   35.388400
  C      2.284070   22.477100   35.995900
  C      2.073930   21.277100   35.396900
  C      1.089100   21.342900   34.304200
  C      0.447500   22.560600   34.202200
  H      2.850670   20.460000   35.572700
  C      0.833560   20.185900   33.346800
  H      1.788600   20.083400   32.820800
  H      0.064749   20.477700   32.601900
  C      0.198975   18.909500   33.903900
  H      1.014180   18.425400   34.425700
  H      0.039619   18.227200   33.082000
  C     -1.058100   18.996400   34.728200
  H     -1.240580   18.034000   35.269200
  H     -2.045380   19.252200   34.292500
  H     -0.910393   19.718400   35.545500
  H     -3.146160   25.134700   32.168700
  H      3.160050   22.629900   36.629000

 Total Charge           Charge          ....    0
 Multiplicity           Mult            ....    1
 Number of Electrons    NEL             ....  134
 Basis Dimension        Dim             ....  322

ORBITAL ENERGIES
----------------

  NO   OCC          E(Eh)            E(eV)
   0   2.0000     -88.968679     -2420.9608
   1   2.0000     -88.959610     -2420.7140
   2   2.0000     -10.330221      -281.0996
   3   2.0000     -10.327002      -281.0120
   4   2.0000     -10.318628      -280.7841
   5   2.0000     -10.307370      -280.4778
   6   2.0000     -10.306202      -280.4460
   7   2.0000     -10.301892      -280.3287
   8   2.0000     -10.300895      -280.3016
   9   2.0000     -10.297078      -280.1977
  10   2.0000     -10.296344      -280.1778
  11   2.0000     -10.290910      -280.0299
  12   2.0000     -10.290583      -280.0210
  13   2.0000     -10.281870      -279.7839
  14   2.0000     -10.277477      -279.6644
  15   2.0000     -10.276106      -279.6271
  16   2.0000      -8.085167      -220.0086
  17   2.0000      -8.073685      -219.6961
  18   2.0000      -6.043350      -164.4479
  19   2.0000      -6.039652      -164.3473
  20   2.0000      -6.035937      -164.2462
  21   2.0000      -6.032430      -164.1508
  22   2.0000      -6.028347      -164.0397
  23   2.0000      -6.024162      -163.9258
  24   2.0000      -1.012009       -27.5382
  25   2.0000      -0.980859       -26.6905
  26   2.0000      -0.913097       -24.8466
  27   2.0000      -0.905689       -24.6451
  28   2.0000      -0.869607       -23.6632
  29   2.0000      -0.854637       -23.2559
  30   2.0000      -0.839209       -22.8360
  31   2.0000      -0.814550       -22.1650
  32   2.0000      -0.787237       -21.4218
  33   2.0000      -0.774167       -21.0662
  34   2.0000      -0.710931       -19.3454
  35   2.0000      -0.701857       -19.0985
  36   2.0000      -0.687581       -18.7100
  37   2.0000      -0.657134       -17.8815
  38   2.0000      -0.637384       -17.3441
  39   2.0000      -0.615597       -16.7512
  40   2.0000      -0.587781       -15.9943
  41   2.0000      -0.567511       -15.4428
  42   2.0000      -0.564148       -15.3512
  43   2.0000      -0.554046       -15.0764
  44   2.0000      -0.539687       -14.6856
  45   2.0000      -0.533575       -14.5193
  46   2.0000      -0.515435       -14.0257
  47   2.0000      -0.510270       -13.8852
  48   2.0000      -0.500464       -13.6183
  49   2.0000      -0.491396       -13.3716
  50   2.0000      -0.487175       -13.2567
  51   2.0000      -0.479123       -13.0376
  52   2.0000      -0.473008       -12.8712
  53   2.0000      -0.463437       -12.6108
  54   2.0000      -0.460887       -12.5414
  55   2.0000      -0.454763       -12.3747
  56   2.0000      -0.446794       -12.1579
  57   2.0000      -0.441331       -12.0092
  58   2.0000      -0.432529       -11.7697
  59   2.0000      -0.426689       -11.6108
  60   2.0000      -0.417499       -11.3607
  61   2.0000      -0.406137       -11.0515
  62   2.0000      -0.400151       -10.8887
  63   2.0000      -0.352855        -9.6017
  64   2.0000      -0.333964        -9.0876
  65   2.0000      -0.326498        -8.8845
  66   2.0000      -0.289115        -7.8672
  67   0.0000       0.034059         0.9268
  68   0.0000       0.074397         2.0244
  69   0.0000       0.103361         2.8126
  70   0.0000       0.119667         3.2563
  71   0.0000       0.134736         3.6663

MULLIKEN ATOMIC CHARGES
-----------------------
   0 S :    0.136277
   1 C :   -0.141492
   2 C :   -0.069566
   3 C :   -0.007785
   4 C :   -0.147636
   5 H :    0.025453
   6 C :    0.111342
   7 H :    0.038300
   8 H :    0.021512
   9 C :   -0.108318
  10 H :    0.028992
  11 H :    0.030901
  12 C :   -0.021644
  13 H :    0.019225
  14 H :    0.042528
  15 H :    0.017837
  16 S :    0.062752
  17 C :   -0.089372
  18 C :   -0.047485
  19 C :   -0.083898
  20 C :   -0.116527
  21 H :    0.048987
  22 C :    0.028560
  23 H :    0.042045
  24 H :    0.025971
  25 C :   -0.038755
  26 H :    0.014875
  27 H :    0.021832
  28 C :   -0.064732
  29 H :    0.033579
  30 H :    0.042481
  31 H :    0.038640
  32 H :    0.040703
  33 H :    0.064418
Sum of atomic charges:    0.0000000

LOEWDIN ATOMIC CHARGES
----------------------
   0 S :    0.447516
   1 C :   -0.210318
   2 C :   -0.061406
   3 C :   -0.067206
   4 C :   -0.211840
   5 H :    0.034287
   6 C :   -0.028526
   7 H :    0.040454
   8 H :    0.026982
   9 C :   -0.041591
  10 H :    0.019416
  11 H :    0.028386
  12 C :   -0.057893
  13 H :    0.017458
  14 H :    0.032061
  15 H :    0.022874
  16 S :    0.354631
  17 C :   -0.175304
  18 C :   -0.085201
  19 C :   -0.061101
  20 C :   -0.176777
  21 H :    0.045057
  22 C :   -0.038615
  23 H :    0.035725
  24 H :    0.032060
  25 C :   -0.045273
  26 H :    0.020831
  27 H :    0.024390
  28 C :   -0.073961
  29 H :    0.033952
  30 H :    0.029991
  31 H :    0.029261
  32 H :    0.023081
  33 H :    0.036598

  Mayer bond orders larger than 0.100000
B(  0-S ,  1-C ) :   1.1479 B(  0-S ,  4-C ) :   1.1781 B(  1-C ,  2-C ) :   1.6227
B(  1-C , 32-H ) :   0.9642 B(  2-C ,  3-C ) :   1.2448 B(  2-C ,  6-C ) :   1.0045
B(  3-C ,  4-C ) :   1.5675 B(  3-C ,  5-H ) :   0.9878 B(  4-C , 20-C ) :   1.0120
B(  6-C ,  7-H ) :   0.9476 B(  6-C ,  8-H ) :   0.9239 B(  6-C ,  9-C ) :   1.0644
B(  9-C , 10-H ) :   0.9668 B(  9-C , 11-H ) :   0.9487 B(  9-C , 12-C ) :   1.0679
B( 12-C , 13-H ) :   0.9799 B( 12-C , 14-H ) :   0.9764 B( 12-C , 15-H ) :   0.9745
B( 16-S , 17-C ) :   1.1288 B( 16-S , 20-C ) :   1.1036 B( 17-C , 18-C ) :   1.6805
B( 17-C , 33-H ) :   0.9616 B( 18-C , 19-C ) :   1.1768 B( 18-C , 21-H ) :   0.9730
B( 19-C , 20-C ) :   1.6695 B( 19-C , 22-C ) :   1.0369 B( 22-C , 23-H ) :   0.9359
B( 22-C , 24-H ) :   0.9383 B( 22-C , 25-C ) :   1.0683 B( 25-C , 26-H ) :   0.9518
B( 25-C , 27-H ) :   0.9530 B( 25-C , 28-C ) :   1.0773 B( 28-C , 29-H ) :   0.9704
B( 28-C , 30-H ) :   0.9757 B( 28-C , 31-H ) :   0.9706

Dispersion correction           -0.013821974
FINAL SINGLE POINT ENERGY     -1339.864273158871

DIPOLE MOMENT
-------------
                                X             Y             Z
Electronic contribution:     11.01171      15.78821      19.52811
Nuclear contribution   :    -10.95730     -16.10374     -20.14800
                        -----------------------------------------
Total Dipole Moment    :      0.05441      -0.31553      -0.61989
                        -----------------------------------------
Magnitude (a.u.)       :      0.69770
Magnitude (Debye)      :      1.77341

Rotational constants in cm-1:     0.021312     0.007555     0.006197
Rotational constants in MHz :   638.910200   226.507376   185.786019

                             ****ORCA TERMINATED NORMALLY****
TOTAL RUN TIME: 0 days 0 hours 0 minutes 34 seconds 434 msec
