                         Program Version 4.2.1 -  RELEASE  -
|  1> ! wB97X-D3 SP def2-SVP
|  2> %pal
|  3> nprocs 16
|  4> end
|  5>
|  6> * xyz 0 1
|  7> S 	 -18.0672 	 33.1639 	 42.7971
|  8> C 	 -16.4076 	 33.5169 	 43.2832
|  9> C 	 -15.5647 	 33.883 	 42.229
| 10> C 	 -16.2644 	 34.1247 	 41.0354
| 11> C 	 -17.5937 	 33.6998 	 41.1686
| 12> H 	 -15.9244 	 34.5693 	 40.1513
| 13> C 	 -14.0889 	 34.1035 	 42.3632
| 14> H 	 -13.8785 	 34.9599 	 42.9432
| 15> H 	 -13.7186 	 34.4587 	 41.4081
| 16> C 	 -13.2863 	 32.8319 	 42.7609
| 17> H 	 -13.7056 	 32.5259 	 43.7069
| 18> H 	 -13.4756 	 32.058 	 41.9573
| 19> C 	 -11.799 	 32.9808 	 42.7742
| 20> H 	 -11.4248 	 33.631 	 43.6055
| 21> H 	 -11.2667 	 32.0707 	 42.7591
| 22> H 	 -11.542 	 33.5547 	 41.8067
| 23> S 	 -19.704 	 35.1834 	 40.3428
| 24> C 	 -20.6218 	 34.7318 	 38.8998
| 25> C 	 -19.9106 	 33.7991 	 38.1883
| 26> C 	 -18.835 	 33.1936 	 38.96
| 27> C 	 -18.6097 	 33.8686 	 40.1587
| 28> H 	 -20.2233 	 33.5223 	 37.2261
| 29> C 	 -17.9437 	 32.1432 	 38.2949
| 30> H 	 -18.5355 	 31.3709 	 37.8267
| 31> H 	 -17.4153 	 31.7676 	 39.1587
| 32> C 	 -16.9178 	 32.8829 	 37.2642
| 33> H 	 -16.4617 	 33.7897 	 37.7195
| 34> H 	 -17.5295 	 33.1468 	 36.4297
| 35> C 	 -15.7943 	 31.9984 	 36.874
| 36> H 	 -14.9977 	 32.455 	 36.2089
| 37> H 	 -16.2003 	 31.0946 	 36.4753
| 38> H 	 -15.2593 	 31.5908 	 37.7729
| 39> H 	 -16.156 	 33.6004 	 44.3554
| 40> H 	 -21.4034 	 35.2948 	 38.4372
| 41> *
| 42>
| 43>                          ****END OF INPUT****

CARTESIAN COORDINATES (ANGSTROEM)
---------------------------------
  S    -18.067200   33.163900   42.797100
  C    -16.407600   33.516900   43.283200
  C    -15.564700   33.883000   42.229000
  C    -16.264400   34.124700   41.035400
  C    -17.593700   33.699800   41.168600
  H    -15.924400   34.569300   40.151300
  C    -14.088900   34.103500   42.363200
  H    -13.878500   34.959900   42.943200
  H    -13.718600   34.458700   41.408100
  C    -13.286300   32.831900   42.760900
  H    -13.705600   32.525900   43.706900
  H    -13.475600   32.058000   41.957300
  C    -11.799000   32.980800   42.774200
  H    -11.424800   33.631000   43.605500
  H    -11.266700   32.070700   42.759100
  H    -11.542000   33.554700   41.806700
  S    -19.704000   35.183400   40.342800
  C    -20.621800   34.731800   38.899800
  C    -19.910600   33.799100   38.188300
  C    -18.835000   33.193600   38.960000
  C    -18.609700   33.868600   40.158700
  H    -20.223300   33.522300   37.226100
  C    -17.943700   32.143200   38.294900
  H    -18.535500   31.370900   37.826700
  H    -17.415300   31.767600   39.158700
  C    -16.917800   32.882900   37.264200
  H    -16.461700   33.789700   37.719500
  H    -17.529500   33.146800   36.429700
  C    -15.794300   31.998400   36.874000
  H    -14.997700   32.455000   36.208900
  H    -16.200300   31.094600   36.475300
  H    -15.259300   31.590800   37.772900
  H    -16.156000   33.600400   44.355400
  H    -21.403400   35.294800   38.437200

 Total Charge           Charge          ....    0
 Multiplicity           Mult            ....    1
 Number of Electrons    NEL             ....  134
 Basis Dimension        Dim             ....  322

ORBITAL ENERGIES
----------------

  NO   OCC          E(Eh)            E(eV)
   0   2.0000     -88.970900     -2421.0213
   1   2.0000     -88.959812     -2420.7196
   2   2.0000     -10.328638      -281.0565
   3   2.0000     -10.318503      -280.7807
   4   2.0000     -10.317500      -280.7534
   5   2.0000     -10.311995      -280.6036
   6   2.0000     -10.301388      -280.3150
   7   2.0000     -10.301114      -280.3076
   8   2.0000     -10.295407      -280.1523
   9   2.0000     -10.293144      -280.0907
  10   2.0000     -10.290043      -280.0063
  11   2.0000     -10.289131      -279.9815
  12   2.0000     -10.287396      -279.9343
  13   2.0000     -10.286850      -279.9194
  14   2.0000     -10.282671      -279.8057
  15   2.0000     -10.278452      -279.6909
  16   2.0000      -8.084836      -219.9996
  17   2.0000      -8.074940      -219.7303
  18   2.0000      -6.043138      -164.4422
  19   2.0000      -6.039597      -164.3458
  20   2.0000      -6.035720      -164.2403
  21   2.0000      -6.033497      -164.1798
  22   2.0000      -6.029399      -164.0683
  23   2.0000      -6.025605      -163.9650
  24   2.0000      -1.004365       -27.3302
  25   2.0000      -0.980158       -26.6714
  26   2.0000      -0.913158       -24.8483
  27   2.0000      -0.902464       -24.5573
  28   2.0000      -0.868915       -23.6444
  29   2.0000      -0.857002       -23.3202
  30   2.0000      -0.847936       -23.0735
  31   2.0000      -0.815060       -22.1789
  32   2.0000      -0.780222       -21.2309
  33   2.0000      -0.761776       -20.7290
  34   2.0000      -0.703633       -19.1468
  35   2.0000      -0.698233       -18.9999
  36   2.0000      -0.693716       -18.8770
  37   2.0000      -0.661388       -17.9973
  38   2.0000      -0.647265       -17.6130
  39   2.0000      -0.617454       -16.8018
  40   2.0000      -0.585171       -15.9233
  41   2.0000      -0.573008       -15.5923
  42   2.0000      -0.567283       -15.4366
  43   2.0000      -0.558582       -15.1998
  44   2.0000      -0.529927       -14.4200
  45   2.0000      -0.527784       -14.3617
  46   2.0000      -0.519063       -14.1244
  47   2.0000      -0.513867       -13.9830
  48   2.0000      -0.508835       -13.8461
  49   2.0000      -0.501913       -13.6578
  50   2.0000      -0.487656       -13.2698
  51   2.0000      -0.478193       -13.0123
  52   2.0000      -0.473401       -12.8819
  53   2.0000      -0.461640       -12.5619
  54   2.0000      -0.454875       -12.3778
  55   2.0000      -0.448947       -12.2165
  56   2.0000      -0.438227       -11.9248
  57   2.0000      -0.436056       -11.8657
  58   2.0000      -0.428876       -11.6703
  59   2.0000      -0.426521       -11.6062
  60   2.0000      -0.422955       -11.5092
  61   2.0000      -0.415629       -11.3098
  62   2.0000      -0.413737       -11.2584
  63   2.0000      -0.342663        -9.3243
  64   2.0000      -0.326156        -8.8752
  65   2.0000      -0.315278        -8.5791
  66   2.0000      -0.301437        -8.2025
  67   0.0000       0.031877         0.8674
  68   0.0000       0.060580         1.6485
  69   0.0000       0.107177         2.9164
  70   0.0000       0.116825         3.1790
  71   0.0000       0.127055         3.4573

MULLIKEN ATOMIC CHARGES
-----------------------
   0 S :    0.128618
   1 C :   -0.146725
   2 C :   -0.069552
   3 C :    0.061502
   4 C :   -0.184362
   5 H :    0.000114
   6 C :    0.097135
   7 H :    0.022073
   8 H :   -0.009527
   9 C :   -0.082161
  10 H :    0.028642
  11 H :    0.039155
  12 C :   -0.045334
  13 H :    0.035795
  14 H :    0.037152
  15 H :    0.027319
  16 S :    0.108631
  17 C :   -0.075029
  18 C :   -0.027852
  19 C :   -0.046514
  20 C :   -0.184542
  21 H :   -0.000015
  22 C :    0.068807
  23 H :    0.032797
  24 H :    0.025965
  25 C :   -0.067568
  26 H :    0.034688
  27 H :    0.027259
  28 C :   -0.043071
  29 H :    0.050534
  30 H :    0.015027
  31 H :    0.026230
  32 H :    0.064838
  33 H :    0.049971
Sum of atomic charges:   -0.0000000

LOEWDIN ATOMIC CHARGES
----------------------
   0 S :    0.400924
   1 C :   -0.195610
   2 C :   -0.059793
   3 C :   -0.040676
   4 C :   -0.188651
   5 H :    0.026439
   6 C :   -0.032362
   7 H :    0.025844
   8 H :    0.023324
   9 C :   -0.039478
  10 H :    0.018567
  11 H :    0.034902
  12 C :   -0.069808
  13 H :    0.027385
  14 H :    0.021066
  15 H :    0.032989
  16 S :    0.408089
  17 C :   -0.179246
  18 C :   -0.063701
  19 C :   -0.054095
  20 C :   -0.223380
  21 H :    0.019765
  22 C :   -0.023188
  23 H :    0.028171
  24 H :    0.027608
  25 C :   -0.032472
  26 H :    0.026557
  27 H :    0.019172
  28 C :   -0.076628
  29 H :    0.033648
  30 H :    0.018980
  31 H :    0.029053
  32 H :    0.030584
  33 H :    0.026021

  Mayer bond orders larger than 0.100000
B(  0-S ,  1-C ) :   1.1456 B(  0-S ,  4-C ) :   1.1573 B(  1-C ,  2-C ) :   1.5894
B(  1-C ,  4-C ) :   0.1024 B(  1-C , 32-H ) :   0.9637 B(  2-C ,  3-C ) :   1.2537
B(  2-C ,  6-C ) :   1.0273 B(  3-C ,  4-C ) :   1.5664 B(  3-C ,  5-H ) :   0.9994
B(  4-C , 20-C ) :   1.0267 B(  6-C ,  7-H ) :   0.9311 B(  6-C ,  8-H ) :   0.9306
B(  6-C ,  9-C ) :   1.0518 B(  9-C , 10-H ) :   0.9583 B(  9-C , 11-H ) :   0.9555
B(  9-C , 12-C ) :   1.0892 B( 12-C , 13-H ) :   0.9721 B( 12-C , 14-H ) :   0.9752
B( 12-C , 15-H ) :   0.9689 B( 16-S , 17-C ) :   1.1389 B( 16-S , 20-C ) :   1.1579
B( 17-C , 18-C ) :   1.6339 B( 17-C , 33-H ) :   0.9675 B( 18-C , 19-C ) :   1.2187
B( 18-C , 21-H ) :   0.9919 B( 19-C , 20-C ) :   1.5971 B( 19-C , 22-C ) :   1.0581
B( 22-C , 23-H ) :   0.9359 B( 22-C , 24-H ) :   0.9328 B( 22-C , 25-C ) :   1.0438
B( 25-C , 26-H ) :   0.9589 B( 25-C , 27-H ) :   0.9545 B( 25-C , 28-C ) :   1.0929
B( 28-C , 29-H ) :   0.9715 B( 28-C , 30-H ) :   0.9665 B( 28-C , 31-H ) :   0.9711

Dispersion correction           -0.014282877
FINAL SINGLE POINT ENERGY     -1339.863968395231

DIPOLE MOMENT
-------------
                                X             Y             Z
Electronic contribution:    -27.56298       8.50182       9.97907
Nuclear contribution   :     28.11198      -8.50161     -10.33504
                        -----------------------------------------
Total Dipole Moment    :      0.54900       0.00021      -0.35597
                        -----------------------------------------
Magnitude (a.u.)       :      0.65430
Magnitude (Debye)      :      1.66310

Rotational constants in cm-1:     0.018740     0.008587     0.006464
Rotational constants in MHz :   561.806379   257.437871   193.798426

                             ****ORCA TERMINATED NORMALLY****
TOTAL RUN TIME: 0 days 0 hours 0 minutes 34 seconds 166 msec
