                         Program Version 4.2.1 -  RELEASE  -
|  1> ! wB97X-D3 SP def2-SVP
|  2> %pal
|  3> nprocs 16
|  4> end
|  5>
|  6> * xyz 0 1
|  7> S 	 -93.7018 	 56.0353 	 132.552
|  8> C 	 -92.4666 	 57.3001 	 132.545
|  9> C 	 -92.9584 	 58.4595 	 132.94
| 10> C 	 -94.4046 	 58.4259 	 133.124
| 11> C 	 -94.9999 	 57.1731 	 132.879
| 12> H 	 -95.0788 	 59.2412 	 133.306
| 13> C 	 -92.1466 	 59.7224 	 133.204
| 14> H 	 -91.1375 	 59.4232 	 133.393
| 15> H 	 -92.5447 	 60.1712 	 134.032
| 16> C 	 -92.1851 	 60.6215 	 131.992
| 17> H 	 -91.8619 	 60.1014 	 131.087
| 18> H 	 -93.2415 	 60.7791 	 131.83
| 19> C 	 -91.5803 	 62.0142 	 132.08
| 20> H 	 -91.8504 	 62.6335 	 131.238
| 21> H 	 -91.8684 	 62.4288 	 133.038
| 22> H 	 -90.5122 	 61.9934 	 132.056
| 23> S 	 -96.7655 	 55.1967 	 133.622
| 24> C 	 -98.4383 	 55.453 	 133.509
| 25> C 	 -98.6744 	 56.7189 	 133.026
| 26> C 	 -97.4963 	 57.4689 	 132.73
| 27> C 	 -96.3748 	 56.8245 	 133.02
| 28> H 	 -99.6699 	 57.0725 	 132.746
| 29> C 	 -97.5957 	 58.8998 	 132.072
| 30> H 	 -96.7538 	 59.4656 	 132.19
| 31> H 	 -98.4175 	 59.3643 	 132.566
| 32> C 	 -97.8977 	 58.8116 	 130.561
| 33> H 	 -98.8731 	 58.3232 	 130.413
| 34> H 	 -97.1002 	 58.1157 	 130.214
| 35> C 	 -97.853 	 60.1706 	 129.9
| 36> H 	 -96.8314 	 60.5506 	 130.056
| 37> H 	 -98.4419 	 60.9545 	 130.352
| 38> H 	 -98.0296 	 60.0509 	 128.811
| 39> H 	 -91.4137 	 57.2369 	 132.318
| 40> H 	 -99.2765 	 54.6904 	 133.71
| 41> *
| 42>
| 43>                          ****END OF INPUT****

CARTESIAN COORDINATES (ANGSTROEM)
---------------------------------
  S    -93.701800   56.035300  132.552000
  C    -92.466600   57.300100  132.545000
  C    -92.958400   58.459500  132.940000
  C    -94.404600   58.425900  133.124000
  C    -94.999900   57.173100  132.879000
  H    -95.078800   59.241200  133.306000
  C    -92.146600   59.722400  133.204000
  H    -91.137500   59.423200  133.393000
  H    -92.544700   60.171200  134.032000
  C    -92.185100   60.621500  131.992000
  H    -91.861900   60.101400  131.087000
  H    -93.241500   60.779100  131.830000
  C    -91.580300   62.014200  132.080000
  H    -91.850400   62.633500  131.238000
  H    -91.868400   62.428800  133.038000
  H    -90.512200   61.993400  132.056000
  S    -96.765500   55.196700  133.622000
  C    -98.438300   55.453000  133.509000
  C    -98.674400   56.718900  133.026000
  C    -97.496300   57.468900  132.730000
  C    -96.374800   56.824500  133.020000
  H    -99.669900   57.072500  132.746000
  C    -97.595700   58.899800  132.072000
  H    -96.753800   59.465600  132.190000
  H    -98.417500   59.364300  132.566000
  C    -97.897700   58.811600  130.561000
  H    -98.873100   58.323200  130.413000
  H    -97.100200   58.115700  130.214000
  C    -97.853000   60.170600  129.900000
  H    -96.831400   60.550600  130.056000
  H    -98.441900   60.954500  130.352000
  H    -98.029600   60.050900  128.811000
  H    -91.413700   57.236900  132.318000
  H    -99.276500   54.690400  133.710000

 Total Charge           Charge          ....    0
 Multiplicity           Mult            ....    1
 Number of Electrons    NEL             ....  134
 Basis Dimension        Dim             ....  322

ORBITAL ENERGIES
----------------

  NO   OCC          E(Eh)            E(eV)
   0   2.0000     -88.965022     -2420.8613
   1   2.0000     -88.963240     -2420.8128
   2   2.0000     -10.332780      -281.1692
   3   2.0000     -10.322979      -280.9025
   4   2.0000     -10.322461      -280.8884
   5   2.0000     -10.308543      -280.5097
   6   2.0000     -10.300049      -280.2786
   7   2.0000     -10.297028      -280.1964
   8   2.0000     -10.296016      -280.1688
   9   2.0000     -10.293108      -280.0897
  10   2.0000     -10.287077      -279.9256
  11   2.0000     -10.286500      -279.9099
  12   2.0000     -10.284328      -279.8508
  13   2.0000     -10.281177      -279.7651
  14   2.0000     -10.280212      -279.7388
  15   2.0000     -10.274795      -279.5914
  16   2.0000      -8.079296      -219.8488
  17   2.0000      -8.078898      -219.8380
  18   2.0000      -6.038163      -164.3068
  19   2.0000      -6.037452      -164.2874
  20   2.0000      -6.033855      -164.1895
  21   2.0000      -6.033287      -164.1741
  22   2.0000      -6.029711      -164.0768
  23   2.0000      -6.029518      -164.0715
  24   2.0000      -1.013896       -27.5895
  25   2.0000      -0.989242       -26.9186
  26   2.0000      -0.920001       -25.0345
  27   2.0000      -0.912279       -24.8244
  28   2.0000      -0.878950       -23.9175
  29   2.0000      -0.854628       -23.2556
  30   2.0000      -0.841474       -22.8977
  31   2.0000      -0.814350       -22.1596
  32   2.0000      -0.788069       -21.4445
  33   2.0000      -0.782511       -21.2932
  34   2.0000      -0.710016       -19.3205
  35   2.0000      -0.701667       -19.0933
  36   2.0000      -0.696278       -18.9467
  37   2.0000      -0.666780       -18.1440
  38   2.0000      -0.638675       -17.3792
  39   2.0000      -0.618966       -16.8429
  40   2.0000      -0.598083       -16.2747
  41   2.0000      -0.579046       -15.7566
  42   2.0000      -0.568922       -15.4812
  43   2.0000      -0.560225       -15.2445
  44   2.0000      -0.532070       -14.4784
  45   2.0000      -0.529024       -14.3955
  46   2.0000      -0.516716       -14.0605
  47   2.0000      -0.513088       -13.9618
  48   2.0000      -0.510470       -13.8906
  49   2.0000      -0.509667       -13.8688
  50   2.0000      -0.494997       -13.4696
  51   2.0000      -0.490813       -13.3557
  52   2.0000      -0.477422       -12.9913
  53   2.0000      -0.468290       -12.7428
  54   2.0000      -0.465968       -12.6796
  55   2.0000      -0.449842       -12.2408
  56   2.0000      -0.442686       -12.0461
  57   2.0000      -0.438816       -11.9408
  58   2.0000      -0.432618       -11.7721
  59   2.0000      -0.421014       -11.4564
  60   2.0000      -0.420020       -11.4293
  61   2.0000      -0.415520       -11.3069
  62   2.0000      -0.410421       -11.1681
  63   2.0000      -0.364706        -9.9241
  64   2.0000      -0.332912        -9.0590
  65   2.0000      -0.327700        -8.9172
  66   2.0000      -0.290772        -7.9123
  67   0.0000       0.026448         0.7197
  68   0.0000       0.081534         2.2187
  69   0.0000       0.109935         2.9915
  70   0.0000       0.123547         3.3619
  71   0.0000       0.130289         3.5454

MULLIKEN ATOMIC CHARGES
-----------------------
   0 S :    0.099475
   1 C :   -0.110194
   2 C :   -0.103611
   3 C :    0.008509
   4 C :   -0.139107
   5 H :    0.008791
   6 C :    0.164577
   7 H :    0.007079
   8 H :    0.000226
   9 C :   -0.101147
  10 H :    0.021902
  11 H :    0.010351
  12 C :    0.003335
  13 H :    0.035892
  14 H :    0.021261
  15 H :    0.018673
  16 S :    0.101307
  17 C :   -0.107116
  18 C :   -0.040300
  19 C :   -0.074562
  20 C :   -0.137764
  21 H :    0.016498
  22 C :    0.133232
  23 H :   -0.025099
  24 H :    0.014535
  25 C :   -0.100859
  26 H :    0.028610
  27 H :    0.044796
  28 C :   -0.028622
  29 H :    0.022056
  30 H :    0.028541
  31 H :    0.050005
  32 H :    0.036375
  33 H :    0.092356
Sum of atomic charges:   -0.0000000

LOEWDIN ATOMIC CHARGES
----------------------
   0 S :    0.386832
   1 C :   -0.188613
   2 C :   -0.059034
   3 C :   -0.065000
   4 C :   -0.183530
   5 H :    0.022826
   6 C :   -0.012285
   7 H :    0.024210
   8 H :    0.019285
   9 C :   -0.043579
  10 H :    0.023783
  11 H :    0.020588
  12 C :   -0.060017
  13 H :    0.028935
  14 H :    0.024039
  15 H :    0.019189
  16 S :    0.407783
  17 C :   -0.209606
  18 C :   -0.079879
  19 C :   -0.054650
  20 C :   -0.189716
  21 H :    0.029650
  22 C :   -0.010673
  23 H :    0.007520
  24 H :    0.024894
  25 C :   -0.040523
  26 H :    0.021070
  27 H :    0.033259
  28 C :   -0.069345
  29 H :    0.026944
  30 H :    0.023792
  31 H :    0.034052
  32 H :    0.033022
  33 H :    0.054777

  Mayer bond orders larger than 0.100000
B(  0-S ,  1-C ) :   1.1052 B(  0-S ,  4-C ) :   1.1289 B(  1-C ,  2-C ) :   1.6841
B(  1-C , 32-H ) :   0.9606 B(  2-C ,  3-C ) :   1.2012 B(  2-C ,  6-C ) :   1.0216
B(  3-C ,  4-C ) :   1.5817 B(  3-C ,  5-H ) :   0.9909 B(  4-C , 20-C ) :   1.0890
B(  6-C ,  7-H ) :   0.9347 B(  6-C ,  8-H ) :   0.9265 B(  6-C ,  9-C ) :   1.0718
B(  9-C , 10-H ) :   0.9529 B(  9-C , 11-H ) :   0.9556 B(  9-C , 12-C ) :   1.0854
B( 12-C , 13-H ) :   0.9725 B( 12-C , 14-H ) :   0.9711 B( 12-C , 15-H ) :   0.9734
B( 16-S , 17-C ) :   1.1642 B( 16-S , 20-C ) :   1.1076 B( 17-C , 18-C ) :   1.6038
B( 17-C , 33-H ) :   0.9557 B( 18-C , 19-C ) :   1.2457 B( 18-C , 21-H ) :   0.9861
B( 19-C , 20-C ) :   1.6487 B( 19-C , 22-C ) :   1.0313 B( 22-C , 23-H ) :   0.9357
B( 22-C , 24-H ) :   0.9275 B( 22-C , 25-C ) :   1.0659 B( 25-C , 26-H ) :   0.9557
B( 25-C , 27-H ) :   0.9560 B( 25-C , 28-C ) :   1.0848 B( 28-C , 29-H ) :   0.9700
B( 28-C , 30-H ) :   0.9720 B( 28-C , 31-H ) :   0.9723

Dispersion correction           -0.013816573
FINAL SINGLE POINT ENERGY     -1339.874362986121

DIPOLE MOMENT
-------------
                                X             Y             Z
Electronic contribution:     -2.72355     -29.69255      11.35198
Nuclear contribution   :      2.58735      30.40753     -11.55420
                        -----------------------------------------
Total Dipole Moment    :     -0.13620       0.71498      -0.20222
                        -----------------------------------------
Magnitude (a.u.)       :      0.75540
Magnitude (Debye)      :      1.92009

Rotational constants in cm-1:     0.017978     0.008925     0.006470
Rotational constants in MHz :   538.971902   267.562232   193.959973

                             ****ORCA TERMINATED NORMALLY****
TOTAL RUN TIME: 0 days 0 hours 0 minutes 32 seconds 581 msec
