                         Program Version 4.2.1 -  RELEASE  -
|  1> ! wB97X-D3 SP def2-SVP
|  2> %pal
|  3> nprocs 16
|  4> end
|  5>
|  6> * xyz 0 1
|  7> S 	 -25.953 	 51.1142 	 65.043
|  8> C 	 -25.0139 	 50.8009 	 63.6028
|  9> C 	 -23.633 	 50.6265 	 63.8188
| 10> C 	 -23.3107 	 50.9176 	 65.1772
| 11> C 	 -24.4162 	 51.2563 	 65.9658
| 12> H 	 -22.4156 	 50.6724 	 65.6553
| 13> C 	 -22.6238 	 50.213 	 62.7963
| 14> H 	 -22.1194 	 51.1281 	 62.5098
| 15> H 	 -23.1486 	 49.8115 	 61.9439
| 16> C 	 -21.5409 	 49.1346 	 63.0966
| 17> H 	 -20.877 	 49.0398 	 62.1532
| 18> H 	 -20.7572 	 49.489 	 63.8132
| 19> C 	 -22.1021 	 47.8253 	 63.5492
| 20> H 	 -22.5434 	 47.9601 	 64.5717
| 21> H 	 -22.9818 	 47.5527 	 62.9945
| 22> H 	 -21.4065 	 46.9569 	 63.5807
| 23> S 	 -23.6946 	 53.0033 	 67.8827
| 24> C 	 -23.9369 	 52.5705 	 69.5579
| 25> C 	 -24.6679 	 51.3986 	 69.7321
| 26> C 	 -24.8987 	 50.7791 	 68.467
| 27> C 	 -24.4485 	 51.4936 	 67.3865
| 28> H 	 -24.7693 	 51.0402 	 70.6981
| 29> C 	 -25.5604 	 49.433 	 68.2579
| 30> H 	 -26.4851 	 49.6961 	 67.7071
| 31> H 	 -25.8619 	 49.0378 	 69.235
| 32> C 	 -24.5943 	 48.4274 	 67.6245
| 33> H 	 -23.9071 	 48.3174 	 68.4473
| 34> H 	 -24.1627 	 48.851 	 66.7255
| 35> C 	 -25.263 	 47.0861 	 67.1604
| 36> H 	 -25.9598 	 46.648 	 67.8899
| 37> H 	 -24.5 	 46.3756 	 66.9645
| 38> H 	 -25.7977 	 47.1834 	 66.2302
| 39> H 	 -25.406 	 50.6224 	 62.6285
| 40> H 	 -23.5665 	 53.0325 	 70.3851
| 41> *
| 42>
| 43>                          ****END OF INPUT****

CARTESIAN COORDINATES (ANGSTROEM)
---------------------------------
  S    -25.953000   51.114200   65.043000
  C    -25.013900   50.800900   63.602800
  C    -23.633000   50.626500   63.818800
  C    -23.310700   50.917600   65.177200
  C    -24.416200   51.256300   65.965800
  H    -22.415600   50.672400   65.655300
  C    -22.623800   50.213000   62.796300
  H    -22.119400   51.128100   62.509800
  H    -23.148600   49.811500   61.943900
  C    -21.540900   49.134600   63.096600
  H    -20.877000   49.039800   62.153200
  H    -20.757200   49.489000   63.813200
  C    -22.102100   47.825300   63.549200
  H    -22.543400   47.960100   64.571700
  H    -22.981800   47.552700   62.994500
  H    -21.406500   46.956900   63.580700
  S    -23.694600   53.003300   67.882700
  C    -23.936900   52.570500   69.557900
  C    -24.667900   51.398600   69.732100
  C    -24.898700   50.779100   68.467000
  C    -24.448500   51.493600   67.386500
  H    -24.769300   51.040200   70.698100
  C    -25.560400   49.433000   68.257900
  H    -26.485100   49.696100   67.707100
  H    -25.861900   49.037800   69.235000
  C    -24.594300   48.427400   67.624500
  H    -23.907100   48.317400   68.447300
  H    -24.162700   48.851000   66.725500
  C    -25.263000   47.086100   67.160400
  H    -25.959800   46.648000   67.889900
  H    -24.500000   46.375600   66.964500
  H    -25.797700   47.183400   66.230200
  H    -25.406000   50.622400   62.628500
  H    -23.566500   53.032500   70.385100

 Total Charge           Charge          ....    0
 Multiplicity           Mult            ....    1
 Number of Electrons    NEL             ....  134
 Basis Dimension        Dim             ....  322

ORBITAL ENERGIES
----------------

  NO   OCC          E(Eh)            E(eV)
   0   2.0000     -88.972146     -2421.0552
   1   2.0000     -88.964300     -2420.8417
   2   2.0000     -10.332985      -281.1748
   3   2.0000     -10.317803      -280.7617
   4   2.0000     -10.316168      -280.7172
   5   2.0000     -10.309674      -280.5405
   6   2.0000     -10.304817      -280.4083
   7   2.0000     -10.299966      -280.2763
   8   2.0000     -10.299608      -280.2666
   9   2.0000     -10.294742      -280.1342
  10   2.0000     -10.294448      -280.1262
  11   2.0000     -10.289496      -279.9914
  12   2.0000     -10.286831      -279.9189
  13   2.0000     -10.281519      -279.7743
  14   2.0000     -10.280965      -279.7593
  15   2.0000     -10.271730      -279.5080
  16   2.0000      -8.085623      -220.0210
  17   2.0000      -8.078912      -219.8384
  18   2.0000      -6.044088      -164.4680
  19   2.0000      -6.040419      -164.3682
  20   2.0000      -6.037348      -164.2846
  21   2.0000      -6.036403      -164.2589
  22   2.0000      -6.033422      -164.1778
  23   2.0000      -6.029775      -164.0785
  24   2.0000      -1.004568       -27.3357
  25   2.0000      -0.980452       -26.6795
  26   2.0000      -0.913645       -24.8615
  27   2.0000      -0.905116       -24.6295
  28   2.0000      -0.871024       -23.7018
  29   2.0000      -0.852149       -23.1882
  30   2.0000      -0.844296       -22.9744
  31   2.0000      -0.817800       -22.2535
  32   2.0000      -0.784526       -21.3480
  33   2.0000      -0.770165       -20.9572
  34   2.0000      -0.713007       -19.4019
  35   2.0000      -0.697562       -18.9816
  36   2.0000      -0.689263       -18.7558
  37   2.0000      -0.670885       -18.2557
  38   2.0000      -0.642033       -17.4706
  39   2.0000      -0.621993       -16.9253
  40   2.0000      -0.586619       -15.9627
  41   2.0000      -0.571299       -15.5458
  42   2.0000      -0.566640       -15.4191
  43   2.0000      -0.561816       -15.2878
  44   2.0000      -0.536346       -14.5947
  45   2.0000      -0.522139       -14.2081
  46   2.0000      -0.515682       -14.0324
  47   2.0000      -0.509819       -13.8729
  48   2.0000      -0.504728       -13.7343
  49   2.0000      -0.495691       -13.4884
  50   2.0000      -0.485071       -13.1995
  51   2.0000      -0.480218       -13.0674
  52   2.0000      -0.476620       -12.9695
  53   2.0000      -0.470219       -12.7953
  54   2.0000      -0.459210       -12.4957
  55   2.0000      -0.449147       -12.2219
  56   2.0000      -0.445029       -12.1099
  57   2.0000      -0.438830       -11.9412
  58   2.0000      -0.431629       -11.7452
  59   2.0000      -0.426496       -11.6055
  60   2.0000      -0.423200       -11.5158
  61   2.0000      -0.414207       -11.2712
  62   2.0000      -0.407776       -11.0961
  63   2.0000      -0.337774        -9.1913
  64   2.0000      -0.333773        -9.0824
  65   2.0000      -0.324627        -8.8336
  66   2.0000      -0.296004        -8.0547
  67   0.0000       0.029672         0.8074
  68   0.0000       0.061954         1.6859
  69   0.0000       0.099738         2.7140
  70   0.0000       0.114197         3.1075
  71   0.0000       0.130449         3.5497

MULLIKEN ATOMIC CHARGES
-----------------------
   0 S :    0.123636
   1 C :   -0.096955
   2 C :   -0.114592
   3 C :    0.077977
   4 C :   -0.193504
   5 H :    0.003304
   6 C :    0.081801
   7 H :    0.046204
   8 H :    0.016356
   9 C :   -0.114275
  10 H :    0.039112
  11 H :    0.033483
  12 C :   -0.043798
  13 H :    0.035565
  14 H :    0.019641
  15 H :    0.047516
  16 S :    0.121010
  17 C :   -0.050359
  18 C :   -0.023149
  19 C :   -0.034145
  20 C :   -0.187651
  21 H :   -0.005771
  22 C :    0.082517
  23 H :    0.034491
  24 H :    0.006473
  25 C :   -0.083294
  26 H :    0.028972
  27 H :    0.051700
  28 C :   -0.023247
  29 H :    0.026063
  30 H :    0.022970
  31 H :    0.028754
  32 H :    0.029526
  33 H :    0.013670
Sum of atomic charges:   -0.0000000

LOEWDIN ATOMIC CHARGES
----------------------
   0 S :    0.398033
   1 C :   -0.193377
   2 C :   -0.063520
   3 C :   -0.048171
   4 C :   -0.183625
   5 H :    0.023726
   6 C :   -0.031866
   7 H :    0.039204
   8 H :    0.028816
   9 C :   -0.052119
  10 H :    0.034356
  11 H :    0.023761
  12 C :   -0.074694
  13 H :    0.032657
  14 H :    0.021671
  15 H :    0.032402
  16 S :    0.412333
  17 C :   -0.164940
  18 C :   -0.063414
  19 C :   -0.052961
  20 C :   -0.209676
  21 H :    0.021946
  22 C :   -0.034237
  23 H :    0.027956
  24 H :    0.024839
  25 C :   -0.033636
  26 H :    0.025281
  27 H :    0.025296
  28 C :   -0.062915
  29 H :    0.023601
  30 H :    0.020763
  31 H :    0.025130
  32 H :    0.019366
  33 H :    0.008015

  Mayer bond orders larger than 0.100000
B(  0-S ,  1-C ) :   1.1464 B(  0-S ,  4-C ) :   1.1354 B(  1-C ,  2-C ) :   1.6083
B(  1-C ,  4-C ) :   0.1008 B(  1-C , 32-H ) :   0.9643 B(  2-C ,  3-C ) :   1.2390
B(  2-C ,  6-C ) :   1.0254 B(  3-C ,  4-C ) :   1.5788 B(  3-C ,  5-H ) :   0.9926
B(  4-C , 20-C ) :   1.0389 B(  6-C ,  7-H ) :   0.9311 B(  6-C ,  8-H ) :   0.9393
B(  6-C ,  9-C ) :   1.0765 B(  9-C , 10-H ) :   0.9523 B(  9-C , 11-H ) :   0.9508
B(  9-C , 12-C ) :   1.0746 B( 12-C , 13-H ) :   0.9658 B( 12-C , 14-H ) :   0.9737
B( 12-C , 15-H ) :   0.9721 B( 16-S , 17-C ) :   1.1659 B( 16-S , 20-C ) :   1.1336
B( 17-C , 18-C ) :   1.6177 B( 17-C , 33-H ) :   0.9720 B( 18-C , 19-C ) :   1.2307
B( 18-C , 21-H ) :   1.0017 B( 19-C , 20-C ) :   1.6030 B( 19-C , 22-C ) :   1.0301
B( 22-C , 23-H ) :   0.9334 B( 22-C , 24-H ) :   0.9315 B( 22-C , 25-C ) :   1.0516
B( 25-C , 26-H ) :   0.9553 B( 25-C , 27-H ) :   0.9578 B( 25-C , 28-C ) :   1.0822
B( 28-C , 29-H ) :   0.9753 B( 28-C , 30-H ) :   0.9743 B( 28-C , 31-H ) :   0.9751

Dispersion correction           -0.016248708
FINAL SINGLE POINT ENERGY     -1339.873064373187

DIPOLE MOMENT
-------------
                                X             Y             Z
Electronic contribution:     -7.92404      24.47090       7.10535
Nuclear contribution   :      8.24915     -25.01106      -7.15701
                        -----------------------------------------
Total Dipole Moment    :      0.32511      -0.54016      -0.05166
                        -----------------------------------------
Magnitude (a.u.)       :      0.63256
Magnitude (Debye)      :      1.60784

Rotational constants in cm-1:     0.018843     0.009597     0.008321
Rotational constants in MHz :   564.901088   287.704494   249.455362

                             ****ORCA TERMINATED NORMALLY****
TOTAL RUN TIME: 0 days 0 hours 0 minutes 38 seconds 23 msec
