                         Program Version 4.2.1 -  RELEASE  -
|  1> ! wB97X-D3 SP def2-SVP
|  2> %pal
|  3> nprocs 16
|  4> end
|  5>
|  6> * xyz 0 1
|  7> S 	 0.635741 	 -15.9167 	 87.009
|  8> C 	 -0.517935 	 -17.2906 	 86.9371
|  9> C 	 -0.331884 	 -17.9905 	 85.7811
| 10> C 	 0.896245 	 -17.6126 	 85.0791
| 11> C 	 1.52612 	 -16.5688 	 85.7086
| 12> H 	 1.21488 	 -18.1424 	 84.1885
| 13> C 	 -1.14672 	 -19.1454 	 85.2574
| 14> H 	 -0.802874 	 -19.2872 	 84.25
| 15> H 	 -2.16751 	 -18.8958 	 85.261
| 16> C 	 -1.20417 	 -20.5105 	 86.0157
| 17> H 	 -0.176301 	 -20.7563 	 86.2042
| 18> H 	 -1.71238 	 -20.4693 	 86.9186
| 19> C 	 -1.91225 	 -21.689 	 85.2682
| 20> H 	 -2.98097 	 -21.4982 	 85.2073
| 21> H 	 -1.48526 	 -21.8389 	 84.2827
| 22> H 	 -1.89325 	 -22.7081 	 85.7145
| 23> S 	 2.98113 	 -14.2358 	 85.8698
| 24> C 	 4.29327 	 -13.8451 	 84.8498
| 25> C 	 4.61099 	 -15.0027 	 84.0953
| 26> C 	 3.77316 	 -16.1485 	 84.3543
| 27> C 	 2.73829 	 -15.8676 	 85.2631
| 28> H 	 5.4009 	 -15.0805 	 83.3602
| 29> C 	 4.11607 	 -17.4596 	 83.673
| 30> H 	 4.79295 	 -17.4213 	 82.8616
| 31> H 	 3.23489 	 -17.7148 	 83.1201
| 32> C 	 4.51647 	 -18.5986 	 84.6532
| 33> H 	 3.76449 	 -18.8274 	 85.3585
| 34> H 	 5.40002 	 -18.2753 	 85.1636
| 35> C 	 4.73123 	 -19.9337 	 83.8714
| 36> H 	 5.09694 	 -20.5936 	 84.5876
| 37> H 	 5.45957 	 -19.7912 	 83.0496
| 38> H 	 3.83406 	 -20.3068 	 83.4484
| 39> H 	 -1.25221 	 -17.6368 	 87.6317
| 40> H 	 4.7729 	 -12.8841 	 84.8569
| 41> *
| 42>
| 43>                          ****END OF INPUT****

CARTESIAN COORDINATES (ANGSTROEM)
---------------------------------
  S      0.635741  -15.916700   87.009000
  C     -0.517935  -17.290600   86.937100
  C     -0.331884  -17.990500   85.781100
  C      0.896245  -17.612600   85.079100
  C      1.526120  -16.568800   85.708600
  H      1.214880  -18.142400   84.188500
  C     -1.146720  -19.145400   85.257400
  H     -0.802874  -19.287200   84.250000
  H     -2.167510  -18.895800   85.261000
  C     -1.204170  -20.510500   86.015700
  H     -0.176301  -20.756300   86.204200
  H     -1.712380  -20.469300   86.918600
  C     -1.912250  -21.689000   85.268200
  H     -2.980970  -21.498200   85.207300
  H     -1.485260  -21.838900   84.282700
  H     -1.893250  -22.708100   85.714500
  S      2.981130  -14.235800   85.869800
  C      4.293270  -13.845100   84.849800
  C      4.610990  -15.002700   84.095300
  C      3.773160  -16.148500   84.354300
  C      2.738290  -15.867600   85.263100
  H      5.400900  -15.080500   83.360200
  C      4.116070  -17.459600   83.673000
  H      4.792950  -17.421300   82.861600
  H      3.234890  -17.714800   83.120100
  C      4.516470  -18.598600   84.653200
  H      3.764490  -18.827400   85.358500
  H      5.400020  -18.275300   85.163600
  C      4.731230  -19.933700   83.871400
  H      5.096940  -20.593600   84.587600
  H      5.459570  -19.791200   83.049600
  H      3.834060  -20.306800   83.448400
  H     -1.252210  -17.636800   87.631700
  H      4.772900  -12.884100   84.856900

 Total Charge           Charge          ....    0
 Multiplicity           Mult            ....    1
 Number of Electrons    NEL             ....  134
 Basis Dimension        Dim             ....  322

ORBITAL ENERGIES
----------------

  NO   OCC          E(Eh)            E(eV)
   0   2.0000     -88.968094     -2420.9449
   1   2.0000     -88.965078     -2420.8629
   2   2.0000     -10.332589      -281.1640
   3   2.0000     -10.331462      -281.1334
   4   2.0000     -10.320506      -280.8352
   5   2.0000     -10.312257      -280.6108
   6   2.0000     -10.306855      -280.4638
   7   2.0000     -10.301468      -280.3172
   8   2.0000     -10.297359      -280.2054
   9   2.0000     -10.295328      -280.1501
  10   2.0000     -10.288577      -279.9664
  11   2.0000     -10.287887      -279.9476
  12   2.0000     -10.285391      -279.8797
  13   2.0000     -10.283606      -279.8311
  14   2.0000     -10.281608      -279.7768
  15   2.0000     -10.272860      -279.5387
  16   2.0000      -8.082955      -219.9484
  17   2.0000      -8.080473      -219.8809
  18   2.0000      -6.041762      -164.4047
  19   2.0000      -6.038965      -164.3286
  20   2.0000      -6.037550      -164.2901
  21   2.0000      -6.034669      -164.2117
  22   2.0000      -6.033269      -164.1736
  23   2.0000      -6.031447      -164.1240
  24   2.0000      -1.009977       -27.4829
  25   2.0000      -0.984355       -26.7857
  26   2.0000      -0.912197       -24.8221
  27   2.0000      -0.909201       -24.7406
  28   2.0000      -0.868345       -23.6289
  29   2.0000      -0.854403       -23.2495
  30   2.0000      -0.843118       -22.9424
  31   2.0000      -0.812684       -22.1142
  32   2.0000      -0.783995       -21.3336
  33   2.0000      -0.778011       -21.1708
  34   2.0000      -0.712716       -19.3940
  35   2.0000      -0.708694       -19.2845
  36   2.0000      -0.696256       -18.9461
  37   2.0000      -0.668191       -18.1824
  38   2.0000      -0.633904       -17.2494
  39   2.0000      -0.623861       -16.9761
  40   2.0000      -0.600834       -16.3495
  41   2.0000      -0.574366       -15.6293
  42   2.0000      -0.566673       -15.4200
  43   2.0000      -0.562707       -15.3120
  44   2.0000      -0.530984       -14.4488
  45   2.0000      -0.520812       -14.1720
  46   2.0000      -0.517910       -14.0931
  47   2.0000      -0.514820       -14.0090
  48   2.0000      -0.510218       -13.8837
  49   2.0000      -0.502489       -13.6734
  50   2.0000      -0.495678       -13.4881
  51   2.0000      -0.484078       -13.1724
  52   2.0000      -0.476895       -12.9770
  53   2.0000      -0.467351       -12.7173
  54   2.0000      -0.460341       -12.5265
  55   2.0000      -0.454534       -12.3685
  56   2.0000      -0.445905       -12.1337
  57   2.0000      -0.438422       -11.9301
  58   2.0000      -0.434987       -11.8366
  59   2.0000      -0.428787       -11.6679
  60   2.0000      -0.421548       -11.4709
  61   2.0000      -0.415918       -11.3177
  62   2.0000      -0.409066       -11.1312
  63   2.0000      -0.359080        -9.7711
  64   2.0000      -0.334253        -9.0955
  65   2.0000      -0.324033        -8.8174
  66   2.0000      -0.282797        -7.6953
  67   0.0000       0.018967         0.5161
  68   0.0000       0.080529         2.1913
  69   0.0000       0.092241         2.5100
  70   0.0000       0.119942         3.2638
  71   0.0000       0.130282         3.5451

MULLIKEN ATOMIC CHARGES
-----------------------
   0 S :    0.100282
   1 C :   -0.102249
   2 C :   -0.097027
   3 C :   -0.019106
   4 C :   -0.067827
   5 H :    0.007517
   6 C :    0.092620
   7 H :    0.011158
   8 H :    0.016637
   9 C :   -0.038354
  10 H :    0.023879
  11 H :    0.016115
  12 C :   -0.082472
  13 H :    0.029777
  14 H :    0.029083
  15 H :    0.041177
  16 S :    0.086860
  17 C :   -0.083410
  18 C :   -0.027274
  19 C :   -0.065627
  20 C :   -0.119481
  21 H :    0.012371
  22 C :    0.077876
  23 H :   -0.003790
  24 H :    0.008508
  25 C :   -0.061069
  26 H :    0.030433
  27 H :    0.030549
  28 C :   -0.020698
  29 H :    0.025634
  30 H :    0.027739
  31 H :    0.021016
  32 H :    0.033533
  33 H :    0.065617
Sum of atomic charges:    0.0000000

LOEWDIN ATOMIC CHARGES
----------------------
   0 S :    0.401639
   1 C :   -0.185252
   2 C :   -0.053904
   3 C :   -0.071746
   4 C :   -0.190926
   5 H :    0.028903
   6 C :   -0.027627
   7 H :    0.027658
   8 H :    0.026750
   9 C :   -0.028717
  10 H :    0.019535
  11 H :    0.014101
  12 C :   -0.071032
  13 H :    0.023509
  14 H :    0.021506
  15 H :    0.033626
  16 S :    0.421331
  17 C :   -0.199360
  18 C :   -0.072400
  19 C :   -0.054840
  20 C :   -0.195271
  21 H :    0.026658
  22 C :   -0.031927
  23 H :    0.023331
  24 H :    0.025508
  25 C :   -0.023122
  26 H :    0.020194
  27 H :    0.022990
  28 C :   -0.053634
  29 H :    0.019696
  30 H :    0.025092
  31 H :    0.018361
  32 H :    0.028066
  33 H :    0.031302

  Mayer bond orders larger than 0.100000
B(  0-S ,  1-C ) :   1.0947 B(  0-S ,  4-C ) :   1.1501 B(  1-C ,  2-C ) :   1.6595
B(  1-C , 32-H ) :   0.9730 B(  2-C ,  3-C ) :   1.2065 B(  2-C ,  6-C ) :   1.0370
B(  3-C ,  4-C ) :   1.5679 B(  3-C ,  5-H ) :   0.9944 B(  4-C , 20-C ) :   1.0675
B(  6-C ,  7-H ) :   0.9383 B(  6-C ,  8-H ) :   0.9313 B(  6-C ,  9-C ) :   1.0586
B(  9-C , 10-H ) :   0.9603 B(  9-C , 11-H ) :   0.9570 B(  9-C , 12-C ) :   1.0757
B( 12-C , 13-H ) :   0.9770 B( 12-C , 14-H ) :   0.9779 B( 12-C , 15-H ) :   0.9755
B( 16-S , 17-C ) :   1.1860 B( 16-S , 20-C ) :   1.1472 B( 17-C , 18-C ) :   1.5220
B( 17-C , 20-C ) :   0.1072 B( 17-C , 33-H ) :   0.9779 B( 18-C , 19-C ) :   1.3057
B( 18-C , 21-H ) :   0.9909 B( 19-C , 20-C ) :   1.5409 B( 19-C , 22-C ) :   1.0396
B( 22-C , 23-H ) :   0.9330 B( 22-C , 24-H ) :   0.9257 B( 22-C , 25-C ) :   1.0604
B( 25-C , 26-H ) :   0.9561 B( 25-C , 27-H ) :   0.9578 B( 25-C , 28-C ) :   1.0827
B( 28-C , 29-H ) :   0.9744 B( 28-C , 30-H ) :   0.9761 B( 28-C , 31-H ) :   0.9763

Dispersion correction           -0.013765435
FINAL SINGLE POINT ENERGY     -1339.863144169892

DIPOLE MOMENT
-------------
                                X             Y             Z
Electronic contribution:      2.43697      31.42850      10.50550
Nuclear contribution   :     -2.40743     -32.04809     -10.88502
                        -----------------------------------------
Total Dipole Moment    :      0.02954      -0.61958      -0.37953
                        -----------------------------------------
Magnitude (a.u.)       :      0.72718
Magnitude (Debye)      :      1.84836

Rotational constants in cm-1:     0.018807     0.008563     0.006187
Rotational constants in MHz :   563.822844   256.709893   185.481165

                             ****ORCA TERMINATED NORMALLY****
TOTAL RUN TIME: 0 days 0 hours 0 minutes 30 seconds 994 msec
