                         Program Version 4.2.1 -  RELEASE  -
|  1> ! wB97X-D3 SP def2-SVP
|  2> %pal
|  3> nprocs 16
|  4> end
|  5>
|  6> * xyz 0 1
|  7> S 	 11.0272 	 24.8143 	 65.9894
|  8> C 	 11.6197 	 23.7568 	 67.2133
|  9> C 	 10.7816 	 22.6949 	 67.3679
| 10> C 	 9.48982 	 22.9199 	 66.7677
| 11> C 	 9.50311 	 23.9987 	 65.9515
| 12> H 	 8.56306 	 22.3871 	 66.7397
| 13> C 	 11.1232 	 21.5006 	 68.2769
| 14> H 	 10.3516 	 21.6317 	 68.9618
| 15> H 	 12.0576 	 21.8899 	 68.8428
| 16> C 	 11.2224 	 20.0524 	 67.7748
| 17> H 	 11.6194 	 19.7114 	 68.7418
| 18> H 	 10.2567 	 19.5026 	 67.5241
| 19> C 	 12.1506 	 19.7278 	 66.6172
| 20> H 	 12.3479 	 18.6452 	 66.7114
| 21> H 	 11.7508 	 20.0303 	 65.627
| 22> H 	 13.118 	 20.219 	 66.7535
| 23> S 	 8.46964 	 26.2162 	 64.7198
| 24> C 	 7.0788 	 26.1712 	 63.6303
| 25> C 	 6.6093 	 24.8364 	 63.6387
| 26> C 	 7.46009 	 23.9484 	 64.3841
| 27> C 	 8.46622 	 24.5522 	 65.1272
| 28> H 	 5.75502 	 24.4907 	 63.0468
| 29> C 	 7.17191 	 22.4434 	 64.3095
| 30> H 	 8.05765 	 21.8835 	 64.5776
| 31> H 	 7.00597 	 22.2023 	 63.187
| 32> C 	 5.90885 	 21.9748 	 65.1314
| 33> H 	 4.9463 	 22.3121 	 64.7175
| 34> H 	 5.90837 	 22.4557 	 66.0236
| 35> C 	 5.93165 	 20.457 	 65.4347
| 36> H 	 6.47283 	 20.3103 	 66.3174
| 37> H 	 6.44511 	 19.7742 	 64.7353
| 38> H 	 4.94086 	 20.0775 	 65.739
| 39> H 	 12.5919 	 23.8993 	 67.6252
| 40> H 	 6.61375 	 27.0385 	 63.1524
| 41> *
| 42>
| 43>                          ****END OF INPUT****

CARTESIAN COORDINATES (ANGSTROEM)
---------------------------------
  S     11.027200   24.814300   65.989400
  C     11.619700   23.756800   67.213300
  C     10.781600   22.694900   67.367900
  C      9.489820   22.919900   66.767700
  C      9.503110   23.998700   65.951500
  H      8.563060   22.387100   66.739700
  C     11.123200   21.500600   68.276900
  H     10.351600   21.631700   68.961800
  H     12.057600   21.889900   68.842800
  C     11.222400   20.052400   67.774800
  H     11.619400   19.711400   68.741800
  H     10.256700   19.502600   67.524100
  C     12.150600   19.727800   66.617200
  H     12.347900   18.645200   66.711400
  H     11.750800   20.030300   65.627000
  H     13.118000   20.219000   66.753500
  S      8.469640   26.216200   64.719800
  C      7.078800   26.171200   63.630300
  C      6.609300   24.836400   63.638700
  C      7.460090   23.948400   64.384100
  C      8.466220   24.552200   65.127200
  H      5.755020   24.490700   63.046800
  C      7.171910   22.443400   64.309500
  H      8.057650   21.883500   64.577600
  H      7.005970   22.202300   63.187000
  C      5.908850   21.974800   65.131400
  H      4.946300   22.312100   64.717500
  H      5.908370   22.455700   66.023600
  C      5.931650   20.457000   65.434700
  H      6.472830   20.310300   66.317400
  H      6.445110   19.774200   64.735300
  H      4.940860   20.077500   65.739000
  H     12.591900   23.899300   67.625200
  H      6.613750   27.038500   63.152400

 Total Charge           Charge          ....    0
 Multiplicity           Mult            ....    1
 Number of Electrons    NEL             ....  134
 Basis Dimension        Dim             ....  322

ORBITAL ENERGIES
----------------

  NO   OCC          E(Eh)            E(eV)
   0   2.0000     -88.964466     -2420.8462
   1   2.0000     -88.958952     -2420.6961
   2   2.0000     -10.326495      -280.9982
   3   2.0000     -10.324799      -280.9521
   4   2.0000     -10.324325      -280.9392
   5   2.0000     -10.306504      -280.4542
   6   2.0000     -10.303253      -280.3658
   7   2.0000     -10.301430      -280.3162
   8   2.0000     -10.300753      -280.2977
   9   2.0000     -10.300365      -280.2872
  10   2.0000     -10.296288      -280.1763
  11   2.0000     -10.295510      -280.1551
  12   2.0000     -10.290859      -280.0285
  13   2.0000     -10.285646      -279.8867
  14   2.0000     -10.281341      -279.7695
  15   2.0000     -10.278176      -279.6834
  16   2.0000      -8.079437      -219.8527
  17   2.0000      -8.075265      -219.7391
  18   2.0000      -6.037996      -164.3022
  19   2.0000      -6.033722      -164.1859
  20   2.0000      -6.033656      -164.1841
  21   2.0000      -6.030345      -164.0940
  22   2.0000      -6.029652      -164.0752
  23   2.0000      -6.025866      -163.9721
  24   2.0000      -1.015794       -27.6412
  25   2.0000      -0.987913       -26.8825
  26   2.0000      -0.910738       -24.7824
  27   2.0000      -0.902858       -24.5680
  28   2.0000      -0.875284       -23.8177
  29   2.0000      -0.854195       -23.2438
  30   2.0000      -0.844440       -22.9784
  31   2.0000      -0.821025       -22.3412
  32   2.0000      -0.783120       -21.3098
  33   2.0000      -0.771376       -20.9902
  34   2.0000      -0.712758       -19.3951
  35   2.0000      -0.702855       -19.1257
  36   2.0000      -0.695637       -18.9292
  37   2.0000      -0.663716       -18.0606
  38   2.0000      -0.647668       -17.6239
  39   2.0000      -0.614875       -16.7316
  40   2.0000      -0.592651       -16.1269
  41   2.0000      -0.565672       -15.3927
  42   2.0000      -0.556821       -15.1519
  43   2.0000      -0.552338       -15.0299
  44   2.0000      -0.542032       -14.7494
  45   2.0000      -0.527678       -14.3588
  46   2.0000      -0.524394       -14.2695
  47   2.0000      -0.513935       -13.9849
  48   2.0000      -0.511784       -13.9264
  49   2.0000      -0.499432       -13.5902
  50   2.0000      -0.488040       -13.2802
  51   2.0000      -0.485220       -13.2035
  52   2.0000      -0.473874       -12.8948
  53   2.0000      -0.465084       -12.6556
  54   2.0000      -0.461153       -12.5486
  55   2.0000      -0.450321       -12.2539
  56   2.0000      -0.447930       -12.1888
  57   2.0000      -0.440189       -11.9781
  58   2.0000      -0.434935       -11.8352
  59   2.0000      -0.422446       -11.4953
  60   2.0000      -0.418007       -11.3745
  61   2.0000      -0.407745       -11.0953
  62   2.0000      -0.402141       -10.9428
  63   2.0000      -0.359243        -9.7755
  64   2.0000      -0.329112        -8.9556
  65   2.0000      -0.325151        -8.8478
  66   2.0000      -0.288794        -7.8585
  67   0.0000       0.024634         0.6703
  68   0.0000       0.086326         2.3490
  69   0.0000       0.107774         2.9327
  70   0.0000       0.117532         3.1982
  71   0.0000       0.129539         3.5249

MULLIKEN ATOMIC CHARGES
-----------------------
   0 S :    0.097497
   1 C :   -0.122741
   2 C :   -0.082129
   3 C :    0.020904
   4 C :   -0.130534
   5 H :   -0.007846
   6 C :    0.052100
   7 H :    0.021586
   8 H :    0.027138
   9 C :   -0.080029
  10 H :    0.037430
  11 H :    0.045001
  12 C :   -0.048715
  13 H :    0.040971
  14 H :    0.053184
  15 H :    0.023348
  16 S :    0.094585
  17 C :   -0.105224
  18 C :   -0.023080
  19 C :   -0.079466
  20 C :   -0.103540
  21 H :    0.030075
  22 C :    0.000188
  23 H :    0.025829
  24 H :    0.045938
  25 C :   -0.013232
  26 H :    0.026343
  27 H :    0.003731
  28 C :   -0.046495
  29 H :    0.007487
  30 H :    0.039763
  31 H :    0.031957
  32 H :    0.042296
  33 H :    0.075682
Sum of atomic charges:    0.0000000

LOEWDIN ATOMIC CHARGES
----------------------
   0 S :    0.410096
   1 C :   -0.201365
   2 C :   -0.062761
   3 C :   -0.070165
   4 C :   -0.183991
   5 H :    0.030581
   6 C :   -0.037786
   7 H :    0.026815
   8 H :    0.039617
   9 C :   -0.051483
  10 H :    0.034467
  11 H :    0.033650
  12 C :   -0.069304
  13 H :    0.032997
  14 H :    0.032008
  15 H :    0.023494
  16 S :    0.417681
  17 C :   -0.186002
  18 C :   -0.070075
  19 C :   -0.065086
  20 C :   -0.216184
  21 H :    0.033551
  22 C :   -0.035324
  23 H :    0.023491
  24 H :    0.041205
  25 C :   -0.032966
  26 H :    0.025791
  27 H :    0.010168
  28 C :   -0.069348
  29 H :    0.016697
  30 H :    0.028931
  31 H :    0.030806
  32 H :    0.022179
  33 H :    0.037615

  Mayer bond orders larger than 0.100000
B(  0-S ,  1-C ) :   1.1294 B(  0-S ,  4-C ) :   1.1443 B(  1-C ,  2-C ) :   1.6239
B(  1-C , 32-H ) :   0.9741 B(  2-C ,  3-C ) :   1.1781 B(  2-C ,  6-C ) :   1.0006
B(  3-C ,  4-C ) :   1.6080 B(  3-C ,  5-H ) :   1.0002 B(  4-C , 20-C ) :   1.0667
B(  6-C ,  7-H ) :   0.9347 B(  6-C ,  8-H ) :   0.9459 B(  6-C ,  9-C ) :   1.0516
B(  9-C , 10-H ) :   0.9525 B(  9-C , 11-H ) :   0.9543 B(  9-C , 12-C ) :   1.0824
B( 12-C , 13-H ) :   0.9722 B( 12-C , 14-H ) :   0.9727 B( 12-C , 15-H ) :   0.9743
B( 16-S , 17-C ) :   1.1652 B( 16-S , 20-C ) :   1.1410 B( 17-C , 18-C ) :   1.5547
B( 17-C , 20-C ) :   0.1025 B( 17-C , 33-H ) :   0.9715 B( 18-C , 19-C ) :   1.2802
B( 18-C , 21-H ) :   0.9868 B( 19-C , 20-C ) :   1.5486 B( 19-C , 22-C ) :   1.0510
B( 22-C , 23-H ) :   0.9446 B( 22-C , 24-H ) :   0.9348 B( 22-C , 25-C ) :   1.0409
B( 25-C , 26-H ) :   0.9579 B( 25-C , 27-H ) :   0.9566 B( 25-C , 28-C ) :   1.0752
B( 28-C , 29-H ) :   0.9752 B( 28-C , 30-H ) :   0.9774 B( 28-C , 31-H ) :   0.9724

Dispersion correction           -0.014158893
FINAL SINGLE POINT ENERGY     -1339.855804393784

DIPOLE MOMENT
-------------
                                X             Y             Z
Electronic contribution:      4.62187      30.17972      -5.47618
Nuclear contribution   :     -4.85446     -30.82028       5.62667
                        -----------------------------------------
Total Dipole Moment    :     -0.23259      -0.64055       0.15049
                        -----------------------------------------
Magnitude (a.u.)       :      0.69789
Magnitude (Debye)      :      1.77390

Rotational constants in cm-1:     0.017589     0.009722     0.006675
Rotational constants in MHz :   527.296083   291.458802   200.117078

                             ****ORCA TERMINATED NORMALLY****
TOTAL RUN TIME: 0 days 0 hours 0 minutes 33 seconds 411 msec
