                         Program Version 4.2.1 -  RELEASE  -
|  1> ! wB97X-D3 SP def2-SVP
|  2> %pal
|  3> nprocs 16
|  4> end
|  5>
|  6> * xyz 0 1
|  7> S 	 -40.8458 	 36.6841 	 79.7813
|  8> C 	 -41.1776 	 37.4478 	 78.2625
|  9> C 	 -42.3345 	 37.0273 	 77.6466
| 10> C 	 -43.1403 	 36.2187 	 78.5488
| 11> C 	 -42.4944 	 36.0828 	 79.7524
| 12> H 	 -43.9697 	 35.6796 	 78.3075
| 13> C 	 -42.8022 	 37.5215 	 76.2941
| 14> H 	 -43.8716 	 37.4353 	 76.3382
| 15> H 	 -42.5505 	 36.8997 	 75.4358
| 16> C 	 -42.3083 	 38.9863 	 76.0679
| 17> H 	 -42.7749 	 39.5372 	 76.8636
| 18> H 	 -41.2019 	 39.0417 	 76.2502
| 19> C 	 -42.7571 	 39.6306 	 74.795
| 20> H 	 -42.3363 	 40.5935 	 74.6747
| 21> H 	 -42.4149 	 39.1286 	 73.88
| 22> H 	 -43.8496 	 39.6601 	 74.8175
| 23> S 	 -43.713 	 35.9932 	 82.2262
| 24> C 	 -43.8259 	 34.4344 	 82.9442
| 25> C 	 -43.2395 	 33.3657 	 82.281
| 26> C 	 -42.7917 	 33.8582 	 81.0603
| 27> C 	 -42.8939 	 35.2344 	 80.8833
| 28> H 	 -43.1382 	 32.3933 	 82.6543
| 29> C 	 -42.1667 	 32.9694 	 80.0819
| 30> H 	 -41.3474 	 32.5287 	 80.6332
| 31> H 	 -41.5945 	 33.4515 	 79.3535
| 32> C 	 -43.1004 	 31.9774 	 79.4633
| 33> H 	 -43.6925 	 32.3119 	 78.6116
| 34> H 	 -43.8988 	 31.5901 	 80.1238
| 35> C 	 -42.2553 	 30.746 	 79.049
| 36> H 	 -41.5684 	 30.9876 	 78.2109
| 37> H 	 -42.895 	 30.0447 	 78.6584
| 38> H 	 -41.7275 	 30.2427 	 79.8781
| 39> H 	 -40.3903 	 38.1485 	 77.9139
| 40> H 	 -44.3778 	 34.2767 	 83.9198
| 41> *
| 42>
| 43>                          ****END OF INPUT****

CARTESIAN COORDINATES (ANGSTROEM)
---------------------------------
  S    -40.845800   36.684100   79.781300
  C    -41.177600   37.447800   78.262500
  C    -42.334500   37.027300   77.646600
  C    -43.140300   36.218700   78.548800
  C    -42.494400   36.082800   79.752400
  H    -43.969700   35.679600   78.307500
  C    -42.802200   37.521500   76.294100
  H    -43.871600   37.435300   76.338200
  H    -42.550500   36.899700   75.435800
  C    -42.308300   38.986300   76.067900
  H    -42.774900   39.537200   76.863600
  H    -41.201900   39.041700   76.250200
  C    -42.757100   39.630600   74.795000
  H    -42.336300   40.593500   74.674700
  H    -42.414900   39.128600   73.880000
  H    -43.849600   39.660100   74.817500
  S    -43.713000   35.993200   82.226200
  C    -43.825900   34.434400   82.944200
  C    -43.239500   33.365700   82.281000
  C    -42.791700   33.858200   81.060300
  C    -42.893900   35.234400   80.883300
  H    -43.138200   32.393300   82.654300
  C    -42.166700   32.969400   80.081900
  H    -41.347400   32.528700   80.633200
  H    -41.594500   33.451500   79.353500
  C    -43.100400   31.977400   79.463300
  H    -43.692500   32.311900   78.611600
  H    -43.898800   31.590100   80.123800
  C    -42.255300   30.746000   79.049000
  H    -41.568400   30.987600   78.210900
  H    -42.895000   30.044700   78.658400
  H    -41.727500   30.242700   79.878100
  H    -40.390300   38.148500   77.913900
  H    -44.377800   34.276700   83.919800

 Total Charge           Charge          ....    0
 Multiplicity           Mult            ....    1
 Number of Electrons    NEL             ....  134
 Basis Dimension        Dim             ....  322

ORBITAL ENERGIES
----------------

  NO   OCC          E(Eh)            E(eV)
   0   2.0000     -88.964453     -2420.8458
   1   2.0000     -88.961536     -2420.7665
   2   2.0000     -10.322788      -280.8973
   3   2.0000     -10.316504      -280.7263
   4   2.0000     -10.312601      -280.6201
   5   2.0000     -10.310526      -280.5637
   6   2.0000     -10.301162      -280.3089
   7   2.0000     -10.290210      -280.0108
   8   2.0000     -10.289906      -280.0026
   9   2.0000     -10.289809      -279.9999
  10   2.0000     -10.285808      -279.8911
  11   2.0000     -10.284854      -279.8651
  12   2.0000     -10.284288      -279.8497
  13   2.0000     -10.273607      -279.5591
  14   2.0000     -10.272244      -279.5220
  15   2.0000     -10.271505      -279.5019
  16   2.0000      -8.079819      -219.8630
  17   2.0000      -8.076933      -219.7845
  18   2.0000      -6.037975      -164.3017
  19   2.0000      -6.035198      -164.2261
  20   2.0000      -6.034394      -164.2042
  21   2.0000      -6.031674      -164.1302
  22   2.0000      -6.030773      -164.1057
  23   2.0000      -6.027605      -164.0195
  24   2.0000      -1.007239       -27.4084
  25   2.0000      -0.985951       -26.8291
  26   2.0000      -0.916532       -24.9401
  27   2.0000      -0.911482       -24.8027
  28   2.0000      -0.864243       -23.5172
  29   2.0000      -0.854415       -23.2498
  30   2.0000      -0.852815       -23.2063
  31   2.0000      -0.814306       -22.1584
  32   2.0000      -0.783853       -21.3297
  33   2.0000      -0.762262       -20.7422
  34   2.0000      -0.707937       -19.2639
  35   2.0000      -0.703528       -19.1440
  36   2.0000      -0.683280       -18.5930
  37   2.0000      -0.663823       -18.0635
  38   2.0000      -0.649177       -17.6650
  39   2.0000      -0.616003       -16.7623
  40   2.0000      -0.602362       -16.3911
  41   2.0000      -0.572993       -15.5919
  42   2.0000      -0.564495       -15.3607
  43   2.0000      -0.551167       -14.9980
  44   2.0000      -0.532029       -14.4772
  45   2.0000      -0.530191       -14.4272
  46   2.0000      -0.516005       -14.0412
  47   2.0000      -0.512928       -13.9575
  48   2.0000      -0.508019       -13.8239
  49   2.0000      -0.497062       -13.5257
  50   2.0000      -0.485301       -13.2057
  51   2.0000      -0.477388       -12.9904
  52   2.0000      -0.463448       -12.6111
  53   2.0000      -0.460878       -12.5411
  54   2.0000      -0.456845       -12.4314
  55   2.0000      -0.452659       -12.3175
  56   2.0000      -0.449459       -12.2304
  57   2.0000      -0.446956       -12.1623
  58   2.0000      -0.434159       -11.8141
  59   2.0000      -0.425357       -11.5746
  60   2.0000      -0.418021       -11.3749
  61   2.0000      -0.416745       -11.3402
  62   2.0000      -0.405529       -11.0350
  63   2.0000      -0.336652        -9.1608
  64   2.0000      -0.328806        -8.9473
  65   2.0000      -0.312558        -8.5051
  66   2.0000      -0.305052        -8.3009
  67   0.0000       0.050172         1.3652
  68   0.0000       0.058199         1.5837
  69   0.0000       0.105956         2.8832
  70   0.0000       0.122912         3.3446
  71   0.0000       0.131908         3.5894

MULLIKEN ATOMIC CHARGES
-----------------------
   0 S :    0.114740
   1 C :   -0.160225
   2 C :   -0.085131
   3 C :    0.090261
   4 C :   -0.173442
   5 H :   -0.020699
   6 C :    0.103079
   7 H :    0.008155
   8 H :    0.033661
   9 C :   -0.137846
  10 H :    0.031912
  11 H :    0.042148
  12 C :    0.001517
  13 H :    0.022216
  14 H :    0.022767
  15 H :    0.031599
  16 S :    0.130873
  17 C :   -0.110189
  18 C :   -0.011866
  19 C :   -0.008297
  20 C :   -0.203384
  21 H :    0.000316
  22 C :    0.126379
  23 H :    0.017130
  24 H :   -0.001867
  25 C :   -0.083149
  26 H :    0.027554
  27 H :    0.028841
  28 C :   -0.041684
  29 H :    0.033414
  30 H :    0.003502
  31 H :    0.036974
  32 H :    0.063838
  33 H :    0.066901
Sum of atomic charges:    0.0000000

LOEWDIN ATOMIC CHARGES
----------------------
   0 S :    0.405977
   1 C :   -0.204224
   2 C :   -0.060033
   3 C :   -0.040979
   4 C :   -0.187793
   5 H :    0.018125
   6 C :   -0.029951
   7 H :    0.025010
   8 H :    0.030207
   9 C :   -0.042219
  10 H :    0.025861
  11 H :    0.025679
  12 C :   -0.063436
  13 H :    0.023107
  14 H :    0.024174
  15 H :    0.028558
  16 S :    0.424688
  17 C :   -0.190509
  18 C :   -0.066593
  19 C :   -0.050974
  20 C :   -0.226465
  21 H :    0.027362
  22 C :   -0.034185
  23 H :    0.035553
  24 H :    0.023379
  25 C :   -0.035690
  26 H :    0.026068
  27 H :    0.024825
  28 C :   -0.061071
  29 H :    0.028205
  30 H :    0.010098
  31 H :    0.026937
  32 H :    0.027371
  33 H :    0.032939

  Mayer bond orders larger than 0.100000
B(  0-S ,  1-C ) :   1.1351 B(  0-S ,  4-C ) :   1.1606 B(  1-C ,  2-C ) :   1.6231
B(  1-C , 32-H ) :   0.9631 B(  2-C ,  3-C ) :   1.2073 B(  2-C ,  6-C ) :   1.0183
B(  3-C ,  4-C ) :   1.6161 B(  3-C ,  5-H ) :   1.0135 B(  4-C , 20-C ) :   0.9863
B(  6-C ,  7-H ) :   0.9413 B(  6-C ,  8-H ) :   0.9276 B(  6-C ,  9-C ) :   1.0699
B(  9-C , 10-H ) :   0.9578 B(  9-C , 11-H ) :   0.9486 B(  9-C , 12-C ) :   1.0947
B( 12-C , 13-H ) :   0.9681 B( 12-C , 14-H ) :   0.9714 B( 12-C , 15-H ) :   0.9720
B( 16-S , 17-C ) :   1.1924 B( 16-S , 20-C ) :   1.1397 B( 17-C , 18-C ) :   1.5742
B( 17-C , 33-H ) :   0.9550 B( 18-C , 19-C ) :   1.2515 B( 18-C , 21-H ) :   1.0067
B( 19-C , 20-C ) :   1.6009 B( 19-C , 22-C ) :   1.0452 B( 22-C , 23-H ) :   0.9419
B( 22-C , 24-H ) :   0.9123 B( 22-C , 25-C ) :   1.0423 B( 25-C , 26-H ) :   0.9494
B( 25-C , 27-H ) :   0.9656 B( 25-C , 28-C ) :   1.0828 B( 28-C , 29-H ) :   0.9732
B( 28-C , 30-H ) :   0.9709 B( 28-C , 31-H ) :   0.9779

Dispersion correction           -0.014074504
FINAL SINGLE POINT ENERGY     -1339.861526333473

DIPOLE MOMENT
-------------
                                X             Y             Z
Electronic contribution:      1.28536       6.53872      22.68251
Nuclear contribution   :     -1.37963      -6.84652     -23.13285
                        -----------------------------------------
Total Dipole Moment    :     -0.09427      -0.30781      -0.45034
                        -----------------------------------------
Magnitude (a.u.)       :      0.55357
Magnitude (Debye)      :      1.40706

Rotational constants in cm-1:     0.021007     0.007430     0.006273
Rotational constants in MHz :   629.772652   222.742939   188.053779

                             ****ORCA TERMINATED NORMALLY****
TOTAL RUN TIME: 0 days 0 hours 0 minutes 29 seconds 436 msec
