                         Program Version 4.2.1 -  RELEASE  -
|  1> ! wB97X-D3 SP def2-SVP
|  2> %pal
|  3> nprocs 16
|  4> end
|  5>
|  6> * xyz 0 1
|  7> S 	 53.5413 	 22.2927 	 93.9247
|  8> C 	 51.7956 	 22.2237 	 94.1416
|  9> C 	 51.1963 	 21.0496 	 93.7234
| 10> C 	 52.1739 	 20.2976 	 93.0236
| 11> C 	 53.4731 	 20.8449 	 92.9398
| 12> H 	 52.0632 	 19.3024 	 92.5443
| 13> C 	 49.8091 	 20.6415 	 94.075
| 14> H 	 49.2072 	 21.055 	 93.2884
| 15> H 	 49.5221 	 20.9958 	 95.0373
| 16> C 	 49.2838 	 19.2288 	 93.9932
| 17> H 	 48.2039 	 19.2971 	 94.0141
| 18> H 	 49.4904 	 18.6778 	 93.0338
| 19> C 	 49.73 	 18.2567 	 95.1846
| 20> H 	 49.3505 	 18.7467 	 96.0836
| 21> H 	 49.2015 	 17.3088 	 95.0493
| 22> H 	 50.7259 	 18.273 	 95.3508
| 23> S 	 55.4872 	 21.2434 	 91.1558
| 24> C 	 56.4219 	 19.9417 	 90.5246
| 25> C 	 55.9943 	 18.7325 	 91.1097
| 26> C 	 55.0587 	 18.8793 	 92.1301
| 27> C 	 54.6328 	 20.2223 	 92.2943
| 28> H 	 56.3462 	 17.8715 	 90.5493
| 29> C 	 54.5092 	 17.618 	 92.7509
| 30> H 	 54.6184 	 16.8033 	 92.075
| 31> H 	 53.4256 	 17.6315 	 92.8033
| 32> C 	 55.065 	 17.3392 	 94.1731
| 33> H 	 54.5723 	 16.4816 	 94.7411
| 34> H 	 55.0056 	 18.2556 	 94.822
| 35> C 	 56.6033 	 16.9422 	 94.1935
| 36> H 	 56.7814 	 15.9913 	 93.7352
| 37> H 	 56.964 	 16.949 	 95.1845
| 38> H 	 57.2112 	 17.6789 	 93.5979
| 39> H 	 51.2507 	 23.0178 	 94.666
| 40> H 	 57.079 	 20.067 	 89.6451
| 41> *
| 42>
| 43>                          ****END OF INPUT****

CARTESIAN COORDINATES (ANGSTROEM)
---------------------------------
  S     53.541300   22.292700   93.924700
  C     51.795600   22.223700   94.141600
  C     51.196300   21.049600   93.723400
  C     52.173900   20.297600   93.023600
  C     53.473100   20.844900   92.939800
  H     52.063200   19.302400   92.544300
  C     49.809100   20.641500   94.075000
  H     49.207200   21.055000   93.288400
  H     49.522100   20.995800   95.037300
  C     49.283800   19.228800   93.993200
  H     48.203900   19.297100   94.014100
  H     49.490400   18.677800   93.033800
  C     49.730000   18.256700   95.184600
  H     49.350500   18.746700   96.083600
  H     49.201500   17.308800   95.049300
  H     50.725900   18.273000   95.350800
  S     55.487200   21.243400   91.155800
  C     56.421900   19.941700   90.524600
  C     55.994300   18.732500   91.109700
  C     55.058700   18.879300   92.130100
  C     54.632800   20.222300   92.294300
  H     56.346200   17.871500   90.549300
  C     54.509200   17.618000   92.750900
  H     54.618400   16.803300   92.075000
  H     53.425600   17.631500   92.803300
  C     55.065000   17.339200   94.173100
  H     54.572300   16.481600   94.741100
  H     55.005600   18.255600   94.822000
  C     56.603300   16.942200   94.193500
  H     56.781400   15.991300   93.735200
  H     56.964000   16.949000   95.184500
  H     57.211200   17.678900   93.597900
  H     51.250700   23.017800   94.666000
  H     57.079000   20.067000   89.645100

 Total Charge           Charge          ....    0
 Multiplicity           Mult            ....    1
 Number of Electrons    NEL             ....  134
 Basis Dimension        Dim             ....  322

ORBITAL ENERGIES
----------------

  NO   OCC          E(Eh)            E(eV)
   0   2.0000     -88.968467     -2420.9551
   1   2.0000     -88.966655     -2420.9058
   2   2.0000     -10.331558      -281.1360
   3   2.0000     -10.331130      -281.1244
   4   2.0000     -10.319185      -280.7993
   5   2.0000     -10.313977      -280.6576
   6   2.0000     -10.307266      -280.4750
   7   2.0000     -10.303276      -280.3664
   8   2.0000     -10.297148      -280.1996
   9   2.0000     -10.295975      -280.1677
  10   2.0000     -10.294281      -280.1216
  11   2.0000     -10.293775      -280.1079
  12   2.0000     -10.291135      -280.0360
  13   2.0000     -10.290215      -280.0110
  14   2.0000     -10.272666      -279.5334
  15   2.0000     -10.270653      -279.4787
  16   2.0000      -8.082773      -219.9434
  17   2.0000      -8.081750      -219.9156
  18   2.0000      -6.041190      -164.3891
  19   2.0000      -6.039949      -164.3554
  20   2.0000      -6.037462      -164.2877
  21   2.0000      -6.035970      -164.2471
  22   2.0000      -6.033542      -164.1810
  23   2.0000      -6.033036      -164.1672
  24   2.0000      -1.005772       -27.3685
  25   2.0000      -0.985174       -26.8080
  26   2.0000      -0.916609       -24.9422
  27   2.0000      -0.903582       -24.5877
  28   2.0000      -0.867430       -23.6040
  29   2.0000      -0.845535       -23.0082
  30   2.0000      -0.843485       -22.9524
  31   2.0000      -0.810403       -22.0522
  32   2.0000      -0.789729       -21.4896
  33   2.0000      -0.776709       -21.1353
  34   2.0000      -0.710849       -19.3432
  35   2.0000      -0.696578       -18.9549
  36   2.0000      -0.685115       -18.6429
  37   2.0000      -0.660867       -17.9831
  38   2.0000      -0.636349       -17.3159
  39   2.0000      -0.621227       -16.9045
  40   2.0000      -0.596525       -16.2323
  41   2.0000      -0.570793       -15.5321
  42   2.0000      -0.557300       -15.1649
  43   2.0000      -0.545880       -14.8541
  44   2.0000      -0.543362       -14.7856
  45   2.0000      -0.541645       -14.7389
  46   2.0000      -0.522418       -14.2157
  47   2.0000      -0.506695       -13.7879
  48   2.0000      -0.497658       -13.5420
  49   2.0000      -0.493508       -13.4290
  50   2.0000      -0.490313       -13.3421
  51   2.0000      -0.482467       -13.1286
  52   2.0000      -0.472179       -12.8487
  53   2.0000      -0.466722       -12.7002
  54   2.0000      -0.458913       -12.4877
  55   2.0000      -0.450691       -12.2639
  56   2.0000      -0.440729       -11.9928
  57   2.0000      -0.437011       -11.8917
  58   2.0000      -0.430993       -11.7279
  59   2.0000      -0.420821       -11.4511
  60   2.0000      -0.418135       -11.3780
  61   2.0000      -0.416277       -11.3275
  62   2.0000      -0.408418       -11.1136
  63   2.0000      -0.340772        -9.2729
  64   2.0000      -0.333807        -9.0833
  65   2.0000      -0.329849        -8.9756
  66   2.0000      -0.287249        -7.8164
  67   0.0000       0.024130         0.6566
  68   0.0000       0.065254         1.7757
  69   0.0000       0.106834         2.9071
  70   0.0000       0.115280         3.1369
  71   0.0000       0.132472         3.6047

MULLIKEN ATOMIC CHARGES
-----------------------
   0 S :    0.123047
   1 C :   -0.152532
   2 C :   -0.048440
   3 C :   -0.000213
   4 C :   -0.150986
   5 H :    0.016676
   6 C :    0.102216
   7 H :    0.040101
   8 H :    0.022552
   9 C :   -0.124792
  10 H :    0.028329
  11 H :    0.031693
  12 C :   -0.013771
  13 H :    0.010316
  14 H :    0.046434
  15 H :    0.019583
  16 S :    0.114482
  17 C :   -0.125847
  18 C :   -0.062768
  19 C :   -0.017249
  20 C :   -0.155691
  21 H :    0.029441
  22 C :    0.111802
  23 H :    0.009177
  24 H :    0.010698
  25 C :   -0.113190
  26 H :    0.042932
  27 H :    0.049413
  28 C :   -0.057461
  29 H :    0.021239
  30 H :    0.028973
  31 H :    0.039004
  32 H :    0.049981
  33 H :    0.074851
Sum of atomic charges:    0.0000000

LOEWDIN ATOMIC CHARGES
----------------------
   0 S :    0.405264
   1 C :   -0.194147
   2 C :   -0.063770
   3 C :   -0.065364
   4 C :   -0.206163
   5 H :    0.031675
   6 C :   -0.033789
   7 H :    0.044977
   8 H :    0.030067
   9 C :   -0.039121
  10 H :    0.025797
  11 H :    0.024201
  12 C :   -0.058069
  13 H :    0.023873
  14 H :    0.030771
  15 H :    0.009285
  16 S :    0.434848
  17 C :   -0.204036
  18 C :   -0.077212
  19 C :   -0.055201
  20 C :   -0.203456
  21 H :    0.035688
  22 C :   -0.030020
  23 H :    0.026839
  24 H :    0.027443
  25 C :   -0.041444
  26 H :    0.029605
  27 H :    0.031957
  28 C :   -0.067959
  29 H :    0.016602
  30 H :    0.018720
  31 H :    0.029120
  32 H :    0.027186
  33 H :    0.035835

  Mayer bond orders larger than 0.100000
B(  0-S ,  1-C ) :   1.1504 B(  0-S ,  4-C ) :   1.1535 B(  1-C ,  2-C ) :   1.5903
B(  1-C ,  4-C ) :   0.1039 B(  1-C , 32-H ) :   0.9672 B(  2-C ,  3-C ) :   1.2584
B(  2-C ,  6-C ) :   1.0147 B(  3-C ,  4-C ) :   1.5617 B(  3-C ,  5-H ) :   0.9830
B(  4-C , 20-C ) :   1.0386 B(  6-C ,  7-H ) :   0.9169 B(  6-C ,  8-H ) :   0.9463
B(  6-C ,  9-C ) :   1.0921 B(  9-C , 10-H ) :   0.9541 B(  9-C , 11-H ) :   0.9495
B(  9-C , 12-C ) :   1.0675 B( 12-C , 13-H ) :   0.9719 B( 12-C , 14-H ) :   0.9767
B( 12-C , 15-H ) :   0.9817 B( 16-S , 17-C ) :   1.1952 B( 16-S , 20-C ) :   1.1781
B( 17-C , 18-C ) :   1.5454 B( 17-C , 20-C ) :   0.1174 B( 17-C , 33-H ) :   0.9652
B( 18-C , 19-C ) :   1.2860 B( 18-C , 21-H ) :   0.9944 B( 19-C , 20-C ) :   1.5237
B( 19-C , 22-C ) :   1.0330 B( 22-C , 23-H ) :   0.9385 B( 22-C , 24-H ) :   0.9325
B( 22-C , 25-C ) :   1.0531 B( 25-C , 26-H ) :   0.9594 B( 25-C , 27-H ) :   0.9623
B( 25-C , 28-C ) :   1.0680 B( 28-C , 29-H ) :   0.9776 B( 28-C , 30-H ) :   0.9771
B( 28-C , 31-H ) :   0.9759

Dispersion correction           -0.014516923
FINAL SINGLE POINT ENERGY     -1339.857657332653

DIPOLE MOMENT
-------------
                                X             Y             Z
Electronic contribution:     11.72537      23.18482     -10.88878
Nuclear contribution   :    -12.23207     -23.71913      10.82317
                        -----------------------------------------
Total Dipole Moment    :     -0.50670      -0.53431      -0.06561
                        -----------------------------------------
Magnitude (a.u.)       :      0.73929
Magnitude (Debye)      :      1.87911

Rotational constants in cm-1:     0.017737     0.009266     0.007095
Rotational constants in MHz :   531.728432   277.800416   212.716684

                             ****ORCA TERMINATED NORMALLY****
TOTAL RUN TIME: 0 days 0 hours 0 minutes 31 seconds 381 msec
