                         Program Version 4.2.1 -  RELEASE  -
|  1> ! wB97X-D3 SP def2-SVP
|  2> %pal
|  3> nprocs 16
|  4> end
|  5>
|  6> * xyz 0 1
|  7> S 	 -54.6261 	 32.7065 	 90.7291
|  8> C 	 -56.3692 	 32.5099 	 90.6376
|  9> C 	 -56.9319 	 33.4271 	 91.4747
| 10> C 	 -55.9364 	 34.1954 	 92.1175
| 11> C 	 -54.6925 	 34.0953 	 91.7277
| 12> H 	 -56.1887 	 34.8757 	 92.9305
| 13> C 	 -58.3114 	 33.3899 	 91.9664
| 14> H 	 -58.9831 	 33.1399 	 91.2143
| 15> H 	 -58.4657 	 34.396 	 92.2145
| 16> C 	 -58.7087 	 32.5125 	 93.1673
| 17> H 	 -57.8975 	 32.7227 	 93.8643
| 18> H 	 -59.6094 	 32.9255 	 93.5105
| 19> C 	 -58.8767 	 31.0262 	 92.8715
| 20> H 	 -57.9656 	 30.5249 	 92.6668
| 21> H 	 -59.3549 	 30.5996 	 93.7463
| 22> H 	 -59.6096 	 30.9085 	 92.0143
| 23> S 	 -52.3045 	 33.8565 	 93.1531
| 24> C 	 -51.4364 	 35.3201 	 93.5237
| 25> C 	 -51.9303 	 36.4184 	 92.8216
| 26> C 	 -53.1999 	 36.1226 	 92.2348
| 27> C 	 -53.4935 	 34.7528 	 92.2327
| 28> H 	 -51.4737 	 37.3933 	 92.9456
| 29> C 	 -54.0814 	 37.2794 	 91.7556
| 30> H 	 -55.1534 	 36.8614 	 91.5305
| 31> H 	 -53.7342 	 37.4407 	 90.7467
| 32> C 	 -54.1138 	 38.491 	 92.6649
| 33> H 	 -53.2222 	 39.1058 	 92.5562
| 34> H 	 -54.13 	 38.1809 	 93.6998
| 35> C 	 -55.25 	 39.4712 	 92.324
| 36> H 	 -55.3776 	 40.215 	 93.0694
| 37> H 	 -56.1818 	 38.931 	 92.2106
| 38> H 	 -55.1023 	 40.0631 	 91.3998
| 39> H 	 -56.8633 	 31.5857 	 90.4523
| 40> H 	 -50.5766 	 35.3362 	 94.2268
| 41> *
| 42>
| 43>                          ****END OF INPUT****

CARTESIAN COORDINATES (ANGSTROEM)
---------------------------------
  S    -54.626100   32.706500   90.729100
  C    -56.369200   32.509900   90.637600
  C    -56.931900   33.427100   91.474700
  C    -55.936400   34.195400   92.117500
  C    -54.692500   34.095300   91.727700
  H    -56.188700   34.875700   92.930500
  C    -58.311400   33.389900   91.966400
  H    -58.983100   33.139900   91.214300
  H    -58.465700   34.396000   92.214500
  C    -58.708700   32.512500   93.167300
  H    -57.897500   32.722700   93.864300
  H    -59.609400   32.925500   93.510500
  C    -58.876700   31.026200   92.871500
  H    -57.965600   30.524900   92.666800
  H    -59.354900   30.599600   93.746300
  H    -59.609600   30.908500   92.014300
  S    -52.304500   33.856500   93.153100
  C    -51.436400   35.320100   93.523700
  C    -51.930300   36.418400   92.821600
  C    -53.199900   36.122600   92.234800
  C    -53.493500   34.752800   92.232700
  H    -51.473700   37.393300   92.945600
  C    -54.081400   37.279400   91.755600
  H    -55.153400   36.861400   91.530500
  H    -53.734200   37.440700   90.746700
  C    -54.113800   38.491000   92.664900
  H    -53.222200   39.105800   92.556200
  H    -54.130000   38.180900   93.699800
  C    -55.250000   39.471200   92.324000
  H    -55.377600   40.215000   93.069400
  H    -56.181800   38.931000   92.210600
  H    -55.102300   40.063100   91.399800
  H    -56.863300   31.585700   90.452300
  H    -50.576600   35.336200   94.226800

 Total Charge           Charge          ....    0
 Multiplicity           Mult            ....    1
 Number of Electrons    NEL             ....  134
 Basis Dimension        Dim             ....  322

ORBITAL ENERGIES
----------------

  NO   OCC          E(Eh)            E(eV)
   0   2.0000     -88.968853     -2420.9656
   1   2.0000     -88.955121     -2420.5919
   2   2.0000     -10.326558      -280.9999
   3   2.0000     -10.324220      -280.9363
   4   2.0000     -10.318496      -280.7805
   5   2.0000     -10.308038      -280.4960
   6   2.0000     -10.305197      -280.4187
   7   2.0000     -10.297462      -280.2082
   8   2.0000     -10.296771      -280.1894
   9   2.0000     -10.289702      -279.9970
  10   2.0000     -10.289107      -279.9808
  11   2.0000     -10.282104      -279.7903
  12   2.0000     -10.280743      -279.7532
  13   2.0000     -10.280106      -279.7359
  14   2.0000     -10.277391      -279.6620
  15   2.0000     -10.273194      -279.5478
  16   2.0000      -8.083592      -219.9657
  17   2.0000      -8.071098      -219.6257
  18   2.0000      -6.042075      -164.4132
  19   2.0000      -6.038045      -164.3036
  20   2.0000      -6.034436      -164.2054
  21   2.0000      -6.029598      -164.0737
  22   2.0000      -6.025471      -163.9614
  23   2.0000      -6.021708      -163.8590
  24   2.0000      -1.016503       -27.6604
  25   2.0000      -0.990367       -26.9493
  26   2.0000      -0.920611       -25.0511
  27   2.0000      -0.910661       -24.7804
  28   2.0000      -0.872792       -23.7499
  29   2.0000      -0.853221       -23.2173
  30   2.0000      -0.846542       -23.0356
  31   2.0000      -0.818603       -22.2753
  32   2.0000      -0.787369       -21.4254
  33   2.0000      -0.775863       -21.1123
  34   2.0000      -0.710892       -19.3444
  35   2.0000      -0.703297       -19.1377
  36   2.0000      -0.697736       -18.9864
  37   2.0000      -0.655477       -17.8364
  38   2.0000      -0.642792       -17.4913
  39   2.0000      -0.626453       -17.0466
  40   2.0000      -0.597703       -16.2643
  41   2.0000      -0.578599       -15.7445
  42   2.0000      -0.567404       -15.4399
  43   2.0000      -0.551387       -15.0040
  44   2.0000      -0.544974       -14.8295
  45   2.0000      -0.529072       -14.3968
  46   2.0000      -0.523007       -14.2317
  47   2.0000      -0.515393       -14.0246
  48   2.0000      -0.508500       -13.8370
  49   2.0000      -0.497891       -13.5483
  50   2.0000      -0.488741       -13.2993
  51   2.0000      -0.479765       -13.0551
  52   2.0000      -0.470882       -12.8134
  53   2.0000      -0.468097       -12.7376
  54   2.0000      -0.461640       -12.5619
  55   2.0000      -0.454315       -12.3625
  56   2.0000      -0.445735       -12.1291
  57   2.0000      -0.441154       -12.0044
  58   2.0000      -0.435065       -11.8387
  59   2.0000      -0.426384       -11.6025
  60   2.0000      -0.420301       -11.4370
  61   2.0000      -0.415513       -11.3067
  62   2.0000      -0.408661       -11.1202
  63   2.0000      -0.343811        -9.3556
  64   2.0000      -0.330836        -9.0025
  65   2.0000      -0.321989        -8.7618
  66   2.0000      -0.299271        -8.1436
  67   0.0000       0.036363         0.9895
  68   0.0000       0.063540         1.7290
  69   0.0000       0.122158         3.3241
  70   0.0000       0.122402         3.3307
  71   0.0000       0.127114         3.4589

MULLIKEN ATOMIC CHARGES
-----------------------
   0 S :    0.073689
   1 C :   -0.089501
   2 C :   -0.115358
   3 C :    0.005927
   4 C :   -0.138537
   5 H :    0.005780
   6 C :    0.090493
   7 H :   -0.003268
   8 H :    0.004128
   9 C :   -0.031895
  10 H :    0.021437
  11 H :    0.018690
  12 C :   -0.048602
  13 H :    0.038830
  14 H :    0.036865
  15 H :    0.030869
  16 S :    0.123612
  17 C :   -0.120406
  18 C :   -0.019713
  19 C :   -0.061376
  20 C :   -0.142194
  21 H :    0.025931
  22 C :    0.054848
  23 H :    0.034414
  24 H :    0.036704
  25 C :   -0.070745
  26 H :    0.030254
  27 H :    0.038475
  28 C :   -0.033336
  29 H :    0.023630
  30 H :    0.024614
  31 H :    0.033469
  32 H :    0.048165
  33 H :    0.074109
Sum of atomic charges:    0.0000000

LOEWDIN ATOMIC CHARGES
----------------------
   0 S :    0.405342
   1 C :   -0.191378
   2 C :   -0.067887
   3 C :   -0.073626
   4 C :   -0.202074
   5 H :    0.028442
   6 C :   -0.030734
   7 H :    0.019756
   8 H :    0.026008
   9 C :   -0.026809
  10 H :    0.024362
  11 H :    0.019354
  12 C :   -0.062624
  13 H :    0.020328
  14 H :    0.029903
  15 H :    0.030166
  16 S :    0.414712
  17 C :   -0.184734
  18 C :   -0.073390
  19 C :   -0.044487
  20 C :   -0.212578
  21 H :    0.032982
  22 C :   -0.040157
  23 H :    0.039927
  24 H :    0.035172
  25 C :   -0.042611
  26 H :    0.025953
  27 H :    0.026983
  28 C :   -0.060937
  29 H :    0.021297
  30 H :    0.021571
  31 H :    0.029878
  32 H :    0.026030
  33 H :    0.035861

  Mayer bond orders larger than 0.100000
B(  0-S ,  1-C ) :   1.1398 B(  0-S ,  4-C ) :   1.1398 B(  1-C ,  2-C ) :   1.6031
B(  1-C , 32-H ) :   0.9660 B(  2-C ,  3-C ) :   1.2538 B(  2-C ,  6-C ) :   1.0476
B(  3-C ,  4-C ) :   1.6010 B(  3-C ,  5-H ) :   0.9928 B(  4-C , 20-C ) :   1.0115
B(  6-C ,  7-H ) :   0.9287 B(  6-C ,  8-H ) :   0.9252 B(  6-C ,  9-C ) :   1.0707
B(  9-C , 10-H ) :   0.9523 B(  9-C , 11-H ) :   0.9524 B(  9-C , 12-C ) :   1.0851
B( 12-C , 13-H ) :   0.9751 B( 12-C , 14-H ) :   0.9711 B( 12-C , 15-H ) :   0.9732
B( 16-S , 17-C ) :   1.1755 B( 16-S , 20-C ) :   1.1393 B( 17-C , 18-C ) :   1.5925
B( 17-C , 20-C ) :   0.1023 B( 17-C , 33-H ) :   0.9630 B( 18-C , 19-C ) :   1.2443
B( 18-C , 21-H ) :   0.9868 B( 19-C , 20-C ) :   1.6008 B( 19-C , 22-C ) :   1.0358
B( 22-C , 23-H ) :   0.9377 B( 22-C , 24-H ) :   0.9232 B( 22-C , 25-C ) :   1.0566
B( 25-C , 26-H ) :   0.9422 B( 25-C , 27-H ) :   0.9622 B( 25-C , 28-C ) :   1.0899
B( 28-C , 29-H ) :   0.9734 B( 28-C , 30-H ) :   0.9760 B( 28-C , 31-H ) :   0.9744

Dispersion correction           -0.014033367
FINAL SINGLE POINT ENERGY     -1339.858729062656

DIPOLE MOMENT
-------------
                                X             Y             Z
Electronic contribution:     20.94628     -12.31311      -4.71051
Nuclear contribution   :    -21.32506      12.83387       5.24910
                        -----------------------------------------
Total Dipole Moment    :     -0.37879       0.52075       0.53859
                        -----------------------------------------
Magnitude (a.u.)       :      0.83949
Magnitude (Debye)      :      2.13382

Rotational constants in cm-1:     0.018808     0.008217     0.006573
Rotational constants in MHz :   563.853207   246.354085   197.062575

                             ****ORCA TERMINATED NORMALLY****
TOTAL RUN TIME: 0 days 0 hours 0 minutes 29 seconds 987 msec
