                         Program Version 4.2.1 -  RELEASE  -
|  1> ! wB97X-D3 SP def2-SVP
|  2> %pal
|  3> nprocs 16
|  4> end
|  5>
|  6> * xyz 0 1
|  7> S 	 -42.4098 	 22.7245 	 92.1371
|  8> C 	 -42.7138 	 21.3868 	 91.0791
|  9> C 	 -41.6414 	 21.1763 	 90.211
| 10> C 	 -40.7605 	 22.2891 	 90.1943
| 11> C 	 -41.0083 	 23.2137 	 91.2153
| 12> H 	 -39.8934 	 22.3411 	 89.5644
| 13> C 	 -41.5233 	 19.9734 	 89.2151
| 14> H 	 -42.069 	 19.1461 	 89.6822
| 15> H 	 -40.4712 	 19.7451 	 89.2719
| 16> C 	 -41.8803 	 20.1729 	 87.7061
| 17> H 	 -41.5005 	 19.3162 	 87.1739
| 18> H 	 -42.981 	 20.3757 	 87.5754
| 19> C 	 -40.8953 	 21.2309 	 87.1887
| 20> H 	 -40.9734 	 21.4191 	 86.1341
| 21> H 	 -41.0264 	 22.1779 	 87.6967
| 22> H 	 -39.893 	 20.9543 	 87.1824
| 23> S 	 -41.4582 	 25.9055 	 91.5619
| 24> C 	 -40.0674 	 26.9692 	 91.5813
| 25> C 	 -38.8883 	 26.3062 	 91.2375
| 26> C 	 -39.0398 	 24.9169 	 90.9571
| 27> C 	 -40.299 	 24.4775 	 91.2921
| 28> H 	 -37.9784 	 26.7862 	 90.9918
| 29> C 	 -37.7722 	 24.0879 	 90.5906
| 30> H 	 -37.9824 	 23.05 	 90.7208
| 31> H 	 -37.0526 	 24.2384 	 91.461
| 32> C 	 -37.0587 	 24.3754 	 89.2213
| 33> H 	 -36.0986 	 23.8789 	 89.3173
| 34> H 	 -36.7593 	 25.4995 	 89.2769
| 35> C 	 -37.7511 	 23.9621 	 87.9532
| 36> H 	 -37.1281 	 24.2693 	 87.0927
| 37> H 	 -38.7629 	 24.3426 	 88.0011
| 38> H 	 -37.7121 	 22.8765 	 87.7967
| 39> H 	 -43.4731 	 20.6671 	 91.172
| 40> H 	 -40.0431 	 28.0991 	 91.7396
| 41> *
| 42>
| 43>                          ****END OF INPUT****

CARTESIAN COORDINATES (ANGSTROEM)
---------------------------------
  S    -42.409800   22.724500   92.137100
  C    -42.713800   21.386800   91.079100
  C    -41.641400   21.176300   90.211000
  C    -40.760500   22.289100   90.194300
  C    -41.008300   23.213700   91.215300
  H    -39.893400   22.341100   89.564400
  C    -41.523300   19.973400   89.215100
  H    -42.069000   19.146100   89.682200
  H    -40.471200   19.745100   89.271900
  C    -41.880300   20.172900   87.706100
  H    -41.500500   19.316200   87.173900
  H    -42.981000   20.375700   87.575400
  C    -40.895300   21.230900   87.188700
  H    -40.973400   21.419100   86.134100
  H    -41.026400   22.177900   87.696700
  H    -39.893000   20.954300   87.182400
  S    -41.458200   25.905500   91.561900
  C    -40.067400   26.969200   91.581300
  C    -38.888300   26.306200   91.237500
  C    -39.039800   24.916900   90.957100
  C    -40.299000   24.477500   91.292100
  H    -37.978400   26.786200   90.991800
  C    -37.772200   24.087900   90.590600
  H    -37.982400   23.050000   90.720800
  H    -37.052600   24.238400   91.461000
  C    -37.058700   24.375400   89.221300
  H    -36.098600   23.878900   89.317300
  H    -36.759300   25.499500   89.276900
  C    -37.751100   23.962100   87.953200
  H    -37.128100   24.269300   87.092700
  H    -38.762900   24.342600   88.001100
  H    -37.712100   22.876500   87.796700
  H    -43.473100   20.667100   91.172000
  H    -40.043100   28.099100   91.739600

 Total Charge           Charge          ....    0
 Multiplicity           Mult            ....    1
 Number of Electrons    NEL             ....  134
 Basis Dimension        Dim             ....  322

ORBITAL ENERGIES
----------------

  NO   OCC          E(Eh)            E(eV)
   0   2.0000     -88.971730     -2421.0439
   1   2.0000     -88.964657     -2420.8514
   2   2.0000     -10.334172      -281.2071
   3   2.0000     -10.329179      -281.0713
   4   2.0000     -10.323329      -280.9121
   5   2.0000     -10.310207      -280.5550
   6   2.0000     -10.305592      -280.4294
   7   2.0000     -10.301866      -280.3280
   8   2.0000     -10.301526      -280.3188
   9   2.0000     -10.299103      -280.2528
  10   2.0000     -10.295014      -280.1416
  11   2.0000     -10.294586      -280.1299
  12   2.0000     -10.290425      -280.0167
  13   2.0000     -10.289185      -279.9830
  14   2.0000     -10.283894      -279.8390
  15   2.0000     -10.267901      -279.4038
  16   2.0000      -8.086139      -220.0350
  17   2.0000      -8.077934      -219.8118
  18   2.0000      -6.044649      -164.4833
  19   2.0000      -6.040635      -164.3740
  20   2.0000      -6.036972      -164.2744
  21   2.0000      -6.036632      -164.2651
  22   2.0000      -6.032858      -164.1624
  23   2.0000      -6.028354      -164.0399
  24   2.0000      -1.002914       -27.2907
  25   2.0000      -0.977202       -26.5910
  26   2.0000      -0.909385       -24.7456
  27   2.0000      -0.904260       -24.6062
  28   2.0000      -0.867482       -23.6054
  29   2.0000      -0.854001       -23.2386
  30   2.0000      -0.844781       -22.9877
  31   2.0000      -0.807889       -21.9838
  32   2.0000      -0.786768       -21.4090
  33   2.0000      -0.774699       -21.0806
  34   2.0000      -0.706286       -19.2190
  35   2.0000      -0.704352       -19.1664
  36   2.0000      -0.690342       -18.7852
  37   2.0000      -0.661518       -18.0008
  38   2.0000      -0.638849       -17.3840
  39   2.0000      -0.613619       -16.6974
  40   2.0000      -0.589455       -16.0399
  41   2.0000      -0.573154       -15.5963
  42   2.0000      -0.561169       -15.2702
  43   2.0000      -0.548483       -14.9250
  44   2.0000      -0.544812       -14.8251
  45   2.0000      -0.531183       -14.4542
  46   2.0000      -0.512668       -13.9504
  47   2.0000      -0.505487       -13.7550
  48   2.0000      -0.500433       -13.6175
  49   2.0000      -0.497583       -13.5399
  50   2.0000      -0.490604       -13.3500
  51   2.0000      -0.481126       -13.0921
  52   2.0000      -0.475093       -12.9280
  53   2.0000      -0.461642       -12.5619
  54   2.0000      -0.459229       -12.4963
  55   2.0000      -0.450556       -12.2603
  56   2.0000      -0.446831       -12.1589
  57   2.0000      -0.437296       -11.8994
  58   2.0000      -0.431465       -11.7408
  59   2.0000      -0.426888       -11.6162
  60   2.0000      -0.416589       -11.3360
  61   2.0000      -0.413432       -11.2501
  62   2.0000      -0.411119       -11.1871
  63   2.0000      -0.350585        -9.5399
  64   2.0000      -0.333476        -9.0744
  65   2.0000      -0.329009        -8.9528
  66   2.0000      -0.282500        -7.6872
  67   0.0000       0.020842         0.5671
  68   0.0000       0.072633         1.9764
  69   0.0000       0.096565         2.6277
  70   0.0000       0.109643         2.9835
  71   0.0000       0.125653         3.4192

MULLIKEN ATOMIC CHARGES
-----------------------
   0 S :    0.131113
   1 C :   -0.102407
   2 C :   -0.117505
   3 C :    0.011038
   4 C :   -0.125895
   5 H :   -0.004202
   6 C :    0.055924
   7 H :    0.022140
   8 H :    0.017045
   9 C :   -0.020374
  10 H :    0.029402
  11 H :    0.055185
  12 C :   -0.067110
  13 H :    0.016697
  14 H :    0.048319
  15 H :    0.009633
  16 S :    0.081281
  17 C :   -0.097143
  18 C :   -0.019278
  19 C :   -0.033392
  20 C :   -0.142552
  21 H :    0.002036
  22 C :    0.008669
  23 H :    0.012373
  24 H :    0.048112
  25 C :   -0.096184
  26 H :    0.027043
  27 H :    0.037066
  28 C :   -0.024288
  29 H :    0.040314
  30 H :    0.057640
  31 H :    0.029911
  32 H :    0.028786
  33 H :    0.080604
Sum of atomic charges:   -0.0000000

LOEWDIN ATOMIC CHARGES
----------------------
   0 S :    0.422678
   1 C :   -0.199426
   2 C :   -0.061317
   3 C :   -0.062077
   4 C :   -0.204867
   5 H :    0.024129
   6 C :   -0.030272
   7 H :    0.026190
   8 H :    0.028138
   9 C :   -0.031932
  10 H :    0.027798
  11 H :    0.034466
  12 C :   -0.067887
  13 H :    0.024161
  14 H :    0.026413
  15 H :    0.016158
  16 S :    0.357433
  17 C :   -0.193627
  18 C :   -0.071897
  19 C :   -0.061244
  20 C :   -0.151812
  21 H :    0.021744
  22 C :   -0.036189
  23 H :    0.020113
  24 H :    0.045120
  25 C :   -0.047024
  26 H :    0.024472
  27 H :    0.030584
  28 C :   -0.069637
  29 H :    0.036596
  30 H :    0.031019
  31 H :    0.027016
  32 H :    0.018643
  33 H :    0.046336

  Mayer bond orders larger than 0.100000
B(  0-S ,  1-C ) :   1.1483 B(  0-S ,  4-C ) :   1.1536 B(  1-C ,  2-C ) :   1.5815
B(  1-C , 32-H ) :   0.9702 B(  2-C ,  3-C ) :   1.2767 B(  2-C ,  6-C ) :   1.0180
B(  3-C ,  4-C ) :   1.5267 B(  3-C ,  5-H ) :   0.9816 B(  4-C , 20-C ) :   1.0707
B(  6-C ,  7-H ) :   0.9435 B(  6-C ,  8-H ) :   0.9372 B(  6-C ,  9-C ) :   1.0690
B(  9-C , 10-H ) :   0.9508 B(  9-C , 11-H ) :   0.9586 B(  9-C , 12-C ) :   1.0738
B( 12-C , 13-H ) :   0.9647 B( 12-C , 14-H ) :   0.9705 B( 12-C , 15-H ) :   0.9705
B( 16-S , 17-C ) :   1.1364 B( 16-S , 20-C ) :   1.1042 B( 17-C , 18-C ) :   1.6314
B( 17-C , 33-H ) :   0.9549 B( 18-C , 19-C ) :   1.2238 B( 18-C , 21-H ) :   0.9844
B( 19-C , 20-C ) :   1.6260 B( 19-C , 22-C ) :   1.0212 B( 22-C , 23-H ) :   0.9395
B( 22-C , 24-H ) :   0.9436 B( 22-C , 25-C ) :   1.0635 B( 25-C , 26-H ) :   0.9495
B( 25-C , 27-H ) :   0.9545 B( 25-C , 28-C ) :   1.0851 B( 28-C , 29-H ) :   0.9652
B( 28-C , 30-H ) :   0.9724 B( 28-C , 31-H ) :   0.9654

Dispersion correction           -0.015428614
FINAL SINGLE POINT ENERGY     -1339.854962502192

DIPOLE MOMENT
-------------
                                X             Y             Z
Electronic contribution:    -16.02465      11.61528      22.98203
Nuclear contribution   :     16.63364     -11.98439     -23.58607
                        -----------------------------------------
Total Dipole Moment    :      0.60899      -0.36911      -0.60404
                        -----------------------------------------
Magnitude (a.u.)       :      0.93380
Magnitude (Debye)      :      2.37353

Rotational constants in cm-1:     0.016801     0.010720     0.007321
Rotational constants in MHz :   503.678831   321.362839   219.472368

                             ****ORCA TERMINATED NORMALLY****
TOTAL RUN TIME: 0 days 0 hours 0 minutes 30 seconds 101 msec
