                         Program Version 4.2.1 -  RELEASE  -
|  1> ! wB97X-D3 SP def2-SVP
|  2> %pal
|  3> nprocs 16
|  4> end
|  5>
|  6> * xyz 0 1
|  7> S 	 9.96087 	 -12.3661 	 77.8204
|  8> C 	 8.65335 	 -13.4741 	 78.1216
|  9> C 	 8.39583 	 -14.3517 	 77.1016
| 10> C 	 9.4179 	 -14.2363 	 76.0783
| 11> C 	 10.4023 	 -13.3171 	 76.3465
| 12> H 	 9.42275 	 -14.6211 	 75.1229
| 13> C 	 7.31165 	 -15.3718 	 77.0855
| 14> H 	 7.11677 	 -15.5421 	 76.0571
| 15> H 	 6.39305 	 -14.9471 	 77.483
| 16> C 	 7.69651 	 -16.7261 	 77.7552
| 17> H 	 8.72883 	 -17.0606 	 77.5769
| 18> H 	 7.75434 	 -16.5501 	 78.829
| 19> C 	 6.71136 	 -17.7687 	 77.3024
| 20> H 	 6.82041 	 -17.9724 	 76.2465
| 21> H 	 6.94799 	 -18.6251 	 77.8383
| 22> H 	 5.71674 	 -17.528 	 77.6988
| 23> S 	 11.6702 	 -11.1535 	 75.1181
| 24> C 	 13.0623 	 -11.4988 	 74.0929
| 25> C 	 13.5701 	 -12.7566 	 74.3204
| 26> C 	 12.6134 	 -13.5579 	 75.026
| 27> C 	 11.5299 	 -12.8422 	 75.5447
| 28> H 	 14.4574 	 -13.0085 	 73.7938
| 29> C 	 12.7958 	 -15.0609 	 75.2002
| 30> H 	 13.462 	 -15.4104 	 74.4448
| 31> H 	 11.8771 	 -15.5158 	 75.003
| 32> C 	 13.2627 	 -15.5721 	 76.5668
| 33> H 	 12.6182 	 -15.3815 	 77.497
| 34> H 	 14.185 	 -15.0989 	 76.8703
| 35> C 	 13.4618 	 -17.0557 	 76.5442
| 36> H 	 14.1032 	 -17.4526 	 77.3825
| 37> H 	 13.6347 	 -17.3859 	 75.5757
| 38> H 	 12.5388 	 -17.6473 	 76.6322
| 39> H 	 8.10744 	 -13.5489 	 79.1397
| 40> H 	 13.4962 	 -10.8997 	 73.3331
| 41> *
| 42>
| 43>                          ****END OF INPUT****

CARTESIAN COORDINATES (ANGSTROEM)
---------------------------------
  S      9.960870  -12.366100   77.820400
  C      8.653350  -13.474100   78.121600
  C      8.395830  -14.351700   77.101600
  C      9.417900  -14.236300   76.078300
  C     10.402300  -13.317100   76.346500
  H      9.422750  -14.621100   75.122900
  C      7.311650  -15.371800   77.085500
  H      7.116770  -15.542100   76.057100
  H      6.393050  -14.947100   77.483000
  C      7.696510  -16.726100   77.755200
  H      8.728830  -17.060600   77.576900
  H      7.754340  -16.550100   78.829000
  C      6.711360  -17.768700   77.302400
  H      6.820410  -17.972400   76.246500
  H      6.947990  -18.625100   77.838300
  H      5.716740  -17.528000   77.698800
  S     11.670200  -11.153500   75.118100
  C     13.062300  -11.498800   74.092900
  C     13.570100  -12.756600   74.320400
  C     12.613400  -13.557900   75.026000
  C     11.529900  -12.842200   75.544700
  H     14.457400  -13.008500   73.793800
  C     12.795800  -15.060900   75.200200
  H     13.462000  -15.410400   74.444800
  H     11.877100  -15.515800   75.003000
  C     13.262700  -15.572100   76.566800
  H     12.618200  -15.381500   77.497000
  H     14.185000  -15.098900   76.870300
  C     13.461800  -17.055700   76.544200
  H     14.103200  -17.452600   77.382500
  H     13.634700  -17.385900   75.575700
  H     12.538800  -17.647300   76.632200
  H      8.107440  -13.548900   79.139700
  H     13.496200  -10.899700   73.333100

 Total Charge           Charge          ....    0
 Multiplicity           Mult            ....    1
 Number of Electrons    NEL             ....  134
 Basis Dimension        Dim             ....  322

ORBITAL ENERGIES
----------------

  NO   OCC          E(Eh)            E(eV)
   0   2.0000     -88.967071     -2420.9171
   1   2.0000     -88.961660     -2420.7698
   2   2.0000     -10.332500      -281.1616
   3   2.0000     -10.326245      -280.9914
   4   2.0000     -10.315484      -280.6986
   5   2.0000     -10.315465      -280.6981
   6   2.0000     -10.305291      -280.4212
   7   2.0000     -10.298539      -280.2375
   8   2.0000     -10.292951      -280.0854
   9   2.0000     -10.290625      -280.0222
  10   2.0000     -10.286974      -279.9228
  11   2.0000     -10.286868      -279.9199
  12   2.0000     -10.284502      -279.8555
  13   2.0000     -10.282446      -279.7996
  14   2.0000     -10.272946      -279.5411
  15   2.0000     -10.270135      -279.4646
  16   2.0000      -8.081507      -219.9090
  17   2.0000      -8.076074      -219.7611
  18   2.0000      -6.040047      -164.3580
  19   2.0000      -6.036133      -164.2515
  20   2.0000      -6.034656      -164.2113
  21   2.0000      -6.032161      -164.1435
  22   2.0000      -6.030807      -164.1066
  23   2.0000      -6.026608      -163.9923
  24   2.0000      -1.003166       -27.2975
  25   2.0000      -0.981173       -26.6991
  26   2.0000      -0.914575       -24.8869
  27   2.0000      -0.910713       -24.7818
  28   2.0000      -0.871624       -23.7181
  29   2.0000      -0.852781       -23.2054
  30   2.0000      -0.848456       -23.0877
  31   2.0000      -0.820658       -22.3312
  32   2.0000      -0.782230       -21.2855
  33   2.0000      -0.767303       -20.8794
  34   2.0000      -0.707357       -19.2482
  35   2.0000      -0.704365       -19.1667
  36   2.0000      -0.694846       -18.9077
  37   2.0000      -0.663040       -18.0422
  38   2.0000      -0.640218       -17.4212
  39   2.0000      -0.619875       -16.8677
  40   2.0000      -0.595724       -16.2105
  41   2.0000      -0.573994       -15.6192
  42   2.0000      -0.565760       -15.3951
  43   2.0000      -0.557125       -15.1601
  44   2.0000      -0.534250       -14.5377
  45   2.0000      -0.527402       -14.3513
  46   2.0000      -0.515921       -14.0389
  47   2.0000      -0.514407       -13.9977
  48   2.0000      -0.509298       -13.8587
  49   2.0000      -0.498302       -13.5595
  50   2.0000      -0.488052       -13.2806
  51   2.0000      -0.478314       -13.0156
  52   2.0000      -0.465428       -12.6649
  53   2.0000      -0.463403       -12.6098
  54   2.0000      -0.461164       -12.5489
  55   2.0000      -0.452246       -12.3062
  56   2.0000      -0.447518       -12.1776
  57   2.0000      -0.438845       -11.9416
  58   2.0000      -0.435079       -11.8391
  59   2.0000      -0.424510       -11.5515
  60   2.0000      -0.421458       -11.4685
  61   2.0000      -0.417316       -11.3557
  62   2.0000      -0.396483       -10.7889
  63   2.0000      -0.350462        -9.5366
  64   2.0000      -0.331433        -9.0188
  65   2.0000      -0.324952        -8.8424
  66   2.0000      -0.286069        -7.7843
  67   0.0000       0.032358         0.8805
  68   0.0000       0.058314         1.5868
  69   0.0000       0.107044         2.9128
  70   0.0000       0.119903         3.2627
  71   0.0000       0.131086         3.5670

MULLIKEN ATOMIC CHARGES
-----------------------
   0 S :    0.088352
   1 C :   -0.149040
   2 C :   -0.091222
   3 C :    0.058808
   4 C :   -0.159547
   5 H :   -0.010373
   6 C :    0.092869
   7 H :    0.003721
   8 H :    0.026786
   9 C :   -0.091771
  10 H :    0.027674
  11 H :    0.019648
  12 C :    0.008860
  13 H :    0.043265
  14 H :    0.008797
  15 H :    0.028992
  16 S :    0.114601
  17 C :   -0.093276
  18 C :   -0.015075
  19 C :   -0.059505
  20 C :   -0.136839
  21 H :    0.012461
  22 C :    0.122242
  23 H :    0.009064
  24 H :   -0.002625
  25 C :   -0.073289
  26 H :    0.046014
  27 H :    0.019419
  28 C :   -0.024886
  29 H :    0.048583
  30 H :   -0.006135
  31 H :    0.010867
  32 H :    0.075980
  33 H :    0.046579
Sum of atomic charges:    0.0000000

LOEWDIN ATOMIC CHARGES
----------------------
   0 S :    0.370729
   1 C :   -0.210125
   2 C :   -0.065673
   3 C :   -0.054158
   4 C :   -0.161151
   5 H :    0.019618
   6 C :   -0.029323
   7 H :    0.024642
   8 H :    0.032330
   9 C :   -0.037578
  10 H :    0.025527
  11 H :    0.022074
  12 C :   -0.058460
  13 H :    0.028973
  14 H :    0.018345
  15 H :    0.030104
  16 S :    0.401640
  17 C :   -0.171726
  18 C :   -0.065681
  19 C :   -0.048969
  20 C :   -0.208430
  21 H :    0.029668
  22 C :   -0.025016
  23 H :    0.027470
  24 H :    0.022238
  25 C :   -0.044657
  26 H :    0.036954
  27 H :    0.019938
  28 C :   -0.075039
  29 H :    0.036723
  30 H :    0.012178
  31 H :    0.025974
  32 H :    0.045427
  33 H :    0.025432

  Mayer bond orders larger than 0.100000
B(  0-S ,  1-C ) :   1.1289 B(  0-S ,  4-C ) :   1.1152 B(  1-C ,  2-C ) :   1.6516
B(  1-C , 32-H ) :   0.9514 B(  2-C ,  3-C ) :   1.1946 B(  2-C ,  6-C ) :   1.0348
B(  3-C ,  4-C ) :   1.6300 B(  3-C ,  5-H ) :   0.9969 B(  4-C , 20-C ) :   1.0432
B(  6-C ,  7-H ) :   0.9367 B(  6-C ,  8-H ) :   0.9354 B(  6-C ,  9-C ) :   1.0481
B(  9-C , 10-H ) :   0.9594 B(  9-C , 11-H ) :   0.9523 B(  9-C , 12-C ) :   1.0867
B( 12-C , 13-H ) :   0.9749 B( 12-C , 14-H ) :   0.9671 B( 12-C , 15-H ) :   0.9694
B( 16-S , 17-C ) :   1.1538 B( 16-S , 20-C ) :   1.1263 B( 17-C , 18-C ) :   1.6232
B( 17-C , 33-H ) :   0.9696 B( 18-C , 19-C ) :   1.2305 B( 18-C , 21-H ) :   0.9936
B( 19-C , 20-C ) :   1.5952 B( 19-C , 22-C ) :   1.0492 B( 22-C , 23-H ) :   0.9261
B( 22-C , 24-H ) :   0.9244 B( 22-C , 25-C ) :   1.0654 B( 25-C , 26-H ) :   0.9533
B( 25-C , 27-H ) :   0.9561 B( 25-C , 28-C ) :   1.0828 B( 28-C , 29-H ) :   0.9718
B( 28-C , 30-H ) :   0.9636 B( 28-C , 31-H ) :   0.9647

Dispersion correction           -0.014062571
FINAL SINGLE POINT ENERGY     -1339.851374272875

DIPOLE MOMENT
-------------
                                X             Y             Z
Electronic contribution:      4.24528      30.94719      -3.11475
Nuclear contribution   :     -4.30875     -31.68098       2.87961
                        -----------------------------------------
Total Dipole Moment    :     -0.06347      -0.73379      -0.23514
                        -----------------------------------------
Magnitude (a.u.)       :      0.77315
Magnitude (Debye)      :      1.96520

Rotational constants in cm-1:     0.018569     0.008722     0.006711
Rotational constants in MHz :   556.687622   261.467104   201.183507

                             ****ORCA TERMINATED NORMALLY****
TOTAL RUN TIME: 0 days 0 hours 0 minutes 29 seconds 972 msec
