                         Program Version 4.2.1 -  RELEASE  -
|  1> ! wB97X-D3 SP def2-SVP
|  2> %pal
|  3> nprocs 16
|  4> end
|  5>
|  6> * xyz 0 1
|  7> S 	 -42.3391 	 34.5828 	 79.414
|  8> C 	 -43.818 	 33.8275 	 79.101
|  9> C 	 -44.071 	 32.8258 	 80.0109
| 10> C 	 -42.9794 	 32.6621 	 80.9016
| 11> C 	 -41.9663 	 33.5052 	 80.6959
| 12> H 	 -42.8907 	 31.9148 	 81.6498
| 13> C 	 -45.3006 	 31.9702 	 79.8992
| 14> H 	 -45.0529 	 31.1389 	 80.5852
| 15> H 	 -45.4727 	 31.4885 	 78.9448
| 16> C 	 -46.6712 	 32.6462 	 80.3431
| 17> H 	 -47.3411 	 31.8557 	 80.633
| 18> H 	 -46.629 	 33.3917 	 81.1792
| 19> C 	 -47.5463 	 33.2213 	 79.1787
| 20> H 	 -48.5845 	 33.5264 	 79.473
| 21> H 	 -47.0611 	 34.0646 	 78.6522
| 22> H 	 -47.3897 	 32.5158 	 78.3954
| 23> S 	 -39.8851 	 35.1134 	 81.671
| 24> C 	 -38.6985 	 34.3652 	 82.6157
| 25> C 	 -38.9083 	 33.0089 	 82.7876
| 26> C 	 -39.9983 	 32.5127 	 82.0014
| 27> C 	 -40.7103 	 33.5864 	 81.402
| 28> H 	 -38.2439 	 32.3151 	 83.3279
| 29> C 	 -40.2958 	 30.9889 	 82.0158
| 30> H 	 -41.3045 	 30.788 	 82.41
| 31> H 	 -39.6042 	 30.6459 	 82.7686
| 32> C 	 -39.9667 	 30.447 	 80.6282
| 33> H 	 -38.9507 	 30.7381 	 80.2726
| 34> H 	 -40.6306 	 30.7302 	 79.8117
| 35> C 	 -40.0846 	 28.9173 	 80.617
| 36> H 	 -39.6886 	 28.4799 	 81.5455
| 37> H 	 -39.4298 	 28.5408 	 79.7462
| 38> H 	 -41.0619 	 28.5439 	 80.3568
| 39> H 	 -44.5512 	 34.2732 	 78.4715
| 40> H 	 -37.8602 	 34.9303 	 83.1629
| 41> *
| 42>
| 43>                          ****END OF INPUT****

CARTESIAN COORDINATES (ANGSTROEM)
---------------------------------
  S    -42.339100   34.582800   79.414000
  C    -43.818000   33.827500   79.101000
  C    -44.071000   32.825800   80.010900
  C    -42.979400   32.662100   80.901600
  C    -41.966300   33.505200   80.695900
  H    -42.890700   31.914800   81.649800
  C    -45.300600   31.970200   79.899200
  H    -45.052900   31.138900   80.585200
  H    -45.472700   31.488500   78.944800
  C    -46.671200   32.646200   80.343100
  H    -47.341100   31.855700   80.633000
  H    -46.629000   33.391700   81.179200
  C    -47.546300   33.221300   79.178700
  H    -48.584500   33.526400   79.473000
  H    -47.061100   34.064600   78.652200
  H    -47.389700   32.515800   78.395400
  S    -39.885100   35.113400   81.671000
  C    -38.698500   34.365200   82.615700
  C    -38.908300   33.008900   82.787600
  C    -39.998300   32.512700   82.001400
  C    -40.710300   33.586400   81.402000
  H    -38.243900   32.315100   83.327900
  C    -40.295800   30.988900   82.015800
  H    -41.304500   30.788000   82.410000
  H    -39.604200   30.645900   82.768600
  C    -39.966700   30.447000   80.628200
  H    -38.950700   30.738100   80.272600
  H    -40.630600   30.730200   79.811700
  C    -40.084600   28.917300   80.617000
  H    -39.688600   28.479900   81.545500
  H    -39.429800   28.540800   79.746200
  H    -41.061900   28.543900   80.356800
  H    -44.551200   34.273200   78.471500
  H    -37.860200   34.930300   83.162900

 Total Charge           Charge          ....    0
 Multiplicity           Mult            ....    1
 Number of Electrons    NEL             ....  134
 Basis Dimension        Dim             ....  322

ORBITAL ENERGIES
----------------

  NO   OCC          E(Eh)            E(eV)
   0   2.0000     -88.970737     -2421.0168
   1   2.0000     -88.960045     -2420.7259
   2   2.0000     -10.326378      -280.9950
   3   2.0000     -10.320124      -280.8248
   4   2.0000     -10.318631      -280.7842
   5   2.0000     -10.304534      -280.4006
   6   2.0000     -10.302295      -280.3397
   7   2.0000     -10.299422      -280.2615
   8   2.0000     -10.297859      -280.2190
   9   2.0000     -10.295934      -280.1666
  10   2.0000     -10.294217      -280.1199
  11   2.0000     -10.292680      -280.0781
  12   2.0000     -10.287769      -279.9444
  13   2.0000     -10.284301      -279.8500
  14   2.0000     -10.282588      -279.8034
  15   2.0000     -10.280009      -279.7333
  16   2.0000      -8.086070      -220.0331
  17   2.0000      -8.077038      -219.7874
  18   2.0000      -6.044501      -164.4792
  19   2.0000      -6.040402      -164.3677
  20   2.0000      -6.036995      -164.2750
  21   2.0000      -6.035306      -164.2290
  22   2.0000      -6.031184      -164.1169
  23   2.0000      -6.027977      -164.0296
  24   2.0000      -1.017603       -27.6904
  25   2.0000      -0.992011       -26.9940
  26   2.0000      -0.911702       -24.8087
  27   2.0000      -0.906251       -24.6603
  28   2.0000      -0.870455       -23.6863
  29   2.0000      -0.856197       -23.2983
  30   2.0000      -0.849010       -23.1027
  31   2.0000      -0.813316       -22.1314
  32   2.0000      -0.783549       -21.3214
  33   2.0000      -0.769246       -20.9323
  34   2.0000      -0.703229       -19.1358
  35   2.0000      -0.699341       -19.0300
  36   2.0000      -0.688980       -18.7481
  37   2.0000      -0.665049       -18.0969
  38   2.0000      -0.641729       -17.4623
  39   2.0000      -0.624720       -16.9995
  40   2.0000      -0.595302       -16.1990
  41   2.0000      -0.568873       -15.4798
  42   2.0000      -0.565394       -15.3851
  43   2.0000      -0.543917       -14.8007
  44   2.0000      -0.534893       -14.5552
  45   2.0000      -0.527656       -14.3582
  46   2.0000      -0.521648       -14.1948
  47   2.0000      -0.508684       -13.8420
  48   2.0000      -0.503036       -13.6883
  49   2.0000      -0.499676       -13.5969
  50   2.0000      -0.496346       -13.5063
  51   2.0000      -0.481025       -13.0894
  52   2.0000      -0.478972       -13.0335
  53   2.0000      -0.468680       -12.7534
  54   2.0000      -0.455930       -12.4065
  55   2.0000      -0.448470       -12.2035
  56   2.0000      -0.446225       -12.1424
  57   2.0000      -0.440002       -11.9731
  58   2.0000      -0.430742       -11.7211
  59   2.0000      -0.424201       -11.5431
  60   2.0000      -0.423485       -11.5236
  61   2.0000      -0.409139       -11.1332
  62   2.0000      -0.403025       -10.9669
  63   2.0000      -0.356554        -9.7023
  64   2.0000      -0.335457        -9.1283
  65   2.0000      -0.329893        -8.9769
  66   2.0000      -0.283546        -7.7157
  67   0.0000       0.027957         0.7608
  68   0.0000       0.082592         2.2474
  69   0.0000       0.110308         3.0016
  70   0.0000       0.120806         3.2873
  71   0.0000       0.139836         3.8051

MULLIKEN ATOMIC CHARGES
-----------------------
   0 S :    0.105878
   1 C :   -0.106851
   2 C :   -0.074415
   3 C :    0.019036
   4 C :   -0.121822
   5 H :   -0.028660
   6 C :    0.048721
   7 H :    0.020463
   8 H :    0.036798
   9 C :   -0.080414
  10 H :    0.028560
  11 H :    0.046475
  12 C :   -0.060109
  13 H :    0.060274
  14 H :    0.015129
  15 H :    0.008275
  16 S :    0.132990
  17 C :   -0.113121
  18 C :   -0.041066
  19 C :   -0.091146
  20 C :   -0.140430
  21 H :    0.026463
  22 C :    0.090728
  23 H :    0.044918
  24 H :    0.009875
  25 C :   -0.085194
  26 H :    0.039966
  27 H :    0.044602
  28 C :   -0.059865
  29 H :    0.030232
  30 H :    0.033380
  31 H :    0.033455
  32 H :    0.040994
  33 H :    0.085880
Sum of atomic charges:    0.0000000

LOEWDIN ATOMIC CHARGES
----------------------
   0 S :    0.435789
   1 C :   -0.208024
   2 C :   -0.067068
   3 C :   -0.065920
   4 C :   -0.198930
   5 H :    0.023498
   6 C :   -0.030884
   7 H :    0.033870
   8 H :    0.031754
   9 C :   -0.040466
  10 H :    0.023606
  11 H :    0.028631
  12 C :   -0.075543
  13 H :    0.036078
  14 H :    0.019049
  15 H :    0.018374
  16 S :    0.434476
  17 C :   -0.219459
  18 C :   -0.083906
  19 C :   -0.048648
  20 C :   -0.205956
  21 H :    0.033163
  22 C :   -0.024361
  23 H :    0.030940
  24 H :    0.028167
  25 C :   -0.043515
  26 H :    0.031930
  27 H :    0.031084
  28 C :   -0.072196
  29 H :    0.020839
  30 H :    0.034168
  31 H :    0.020211
  32 H :    0.020922
  33 H :    0.048325

  Mayer bond orders larger than 0.100000
B(  0-S ,  1-C ) :   1.1610 B(  0-S ,  4-C ) :   1.1589 B(  1-C ,  2-C ) :   1.5827
B(  1-C , 32-H ) :   0.9725 B(  2-C ,  3-C ) :   1.2612 B(  2-C ,  6-C ) :   1.0184
B(  3-C ,  4-C ) :   1.5701 B(  3-C ,  5-H ) :   1.0052 B(  4-C , 20-C ) :   1.0666
B(  6-C ,  7-H ) :   0.9409 B(  6-C ,  8-H ) :   0.9473 B(  6-C ,  9-C ) :   1.0550
B(  9-C , 10-H ) :   0.9585 B(  9-C , 11-H ) :   0.9635 B(  9-C , 12-C ) :   1.0626
B( 12-C , 13-H ) :   0.9732 B( 12-C , 14-H ) :   0.9733 B( 12-C , 15-H ) :   0.9710
B( 16-S , 17-C ) :   1.1781 B( 16-S , 20-C ) :   1.1499 B( 17-C , 18-C ) :   1.5764
B( 17-C , 20-C ) :   0.1004 B( 17-C , 33-H ) :   0.9537 B( 18-C , 19-C ) :   1.2965
B( 18-C , 21-H ) :   0.9779 B( 19-C , 20-C ) :   1.5457 B( 19-C , 22-C ) :   1.0286
B( 22-C , 23-H ) :   0.9371 B( 22-C , 24-H ) :   0.9285 B( 22-C , 25-C ) :   1.0599
B( 25-C , 26-H ) :   0.9587 B( 25-C , 27-H ) :   0.9564 B( 25-C , 28-C ) :   1.0791
B( 28-C , 29-H ) :   0.9744 B( 28-C , 30-H ) :   0.9754 B( 28-C , 31-H ) :   0.9775

Dispersion correction           -0.014173913
FINAL SINGLE POINT ENERGY     -1339.869126867969

DIPOLE MOMENT
-------------
                                X             Y             Z
Electronic contribution:     15.01373      22.43755       2.47108
Nuclear contribution   :    -15.15057     -22.99776      -2.30437
                        -----------------------------------------
Total Dipole Moment    :     -0.13684      -0.56020       0.16671
                        -----------------------------------------
Magnitude (a.u.)       :      0.60029
Magnitude (Debye)      :      1.52580

Rotational constants in cm-1:     0.019996     0.008272     0.006472
Rotational constants in MHz :   599.457028   247.995965   194.014796

                             ****ORCA TERMINATED NORMALLY****
TOTAL RUN TIME: 0 days 0 hours 0 minutes 30 seconds 727 msec
