                         Program Version 4.2.1 -  RELEASE  -
|  1> ! wB97X-D3 SP def2-SVP
|  2> %pal
|  3> nprocs 16
|  4> end
|  5>
|  6> * xyz 0 1
|  7> S 	 -86.5889 	 49.4939 	 130.949
|  8> C 	 -88.2098 	 50.0204 	 131.399
|  9> C 	 -88.6342 	 51.1903 	 130.779
| 10> C 	 -87.5988 	 51.6833 	 129.958
| 11> C 	 -86.4431 	 50.8857 	 129.875
| 12> H 	 -87.6491 	 52.5744 	 129.467
| 13> C 	 -90.0231 	 51.7612 	 130.982
| 14> H 	 -90.7547 	 50.9133 	 131.285
| 15> H 	 -90.5338 	 52.0937 	 130.064
| 16> C 	 -90.164 	 52.8717 	 132.073
| 17> H 	 -91.2812 	 52.9709 	 132.232
| 18> H 	 -89.867 	 52.6119 	 133.098
| 19> C 	 -89.5805 	 54.2169 	 131.601
| 20> H 	 -89.8051 	 55.0829 	 132.221
| 21> H 	 -88.4843 	 54.1287 	 131.458
| 22> H 	 -90.0178 	 54.5454 	 130.651
| 23> S 	 -84.2381 	 49.9897 	 128.571
| 24> C 	 -82.8193 	 50.9713 	 128.553
| 25> C 	 -83.0294 	 52.2342 	 129.063
| 26> C 	 -84.3616 	 52.4264 	 129.549
| 27> C 	 -85.1619 	 51.2737 	 129.351
| 28> H 	 -82.2479 	 52.9154 	 129.063
| 29> C 	 -84.9165 	 53.6888 	 130.293
| 30> H 	 -86.0024 	 53.6774 	 130.453
| 31> H 	 -84.7785 	 54.4606 	 129.585
| 32> C 	 -84.1525 	 53.8922 	 131.588
| 33> H 	 -83.8166 	 54.8794 	 131.609
| 34> H 	 -83.2784 	 53.2809 	 131.641
| 35> C 	 -85.0492 	 53.5019 	 132.826
| 36> H 	 -84.4828 	 53.5128 	 133.761
| 37> H 	 -85.3855 	 52.5065 	 132.747
| 38> H 	 -85.8088 	 54.2396 	 132.851
| 39> H 	 -88.9166 	 49.4346 	 131.892
| 40> H 	 -81.9231 	 50.5804 	 128.071
| 41> *
| 42>
| 43>                          ****END OF INPUT****

CARTESIAN COORDINATES (ANGSTROEM)
---------------------------------
  S    -86.588900   49.493900  130.949000
  C    -88.209800   50.020400  131.399000
  C    -88.634200   51.190300  130.779000
  C    -87.598800   51.683300  129.958000
  C    -86.443100   50.885700  129.875000
  H    -87.649100   52.574400  129.467000
  C    -90.023100   51.761200  130.982000
  H    -90.754700   50.913300  131.285000
  H    -90.533800   52.093700  130.064000
  C    -90.164000   52.871700  132.073000
  H    -91.281200   52.970900  132.232000
  H    -89.867000   52.611900  133.098000
  C    -89.580500   54.216900  131.601000
  H    -89.805100   55.082900  132.221000
  H    -88.484300   54.128700  131.458000
  H    -90.017800   54.545400  130.651000
  S    -84.238100   49.989700  128.571000
  C    -82.819300   50.971300  128.553000
  C    -83.029400   52.234200  129.063000
  C    -84.361600   52.426400  129.549000
  C    -85.161900   51.273700  129.351000
  H    -82.247900   52.915400  129.063000
  C    -84.916500   53.688800  130.293000
  H    -86.002400   53.677400  130.453000
  H    -84.778500   54.460600  129.585000
  C    -84.152500   53.892200  131.588000
  H    -83.816600   54.879400  131.609000
  H    -83.278400   53.280900  131.641000
  C    -85.049200   53.501900  132.826000
  H    -84.482800   53.512800  133.761000
  H    -85.385500   52.506500  132.747000
  H    -85.808800   54.239600  132.851000
  H    -88.916600   49.434600  131.892000
  H    -81.923100   50.580400  128.071000

 Total Charge           Charge          ....    0
 Multiplicity           Mult            ....    1
 Number of Electrons    NEL             ....  134
 Basis Dimension        Dim             ....  322

ORBITAL ENERGIES
----------------

  NO   OCC          E(Eh)            E(eV)
   0   2.0000     -88.969353     -2420.9792
   1   2.0000     -88.962280     -2420.7867
   2   2.0000     -10.328277      -281.0467
   3   2.0000     -10.324047      -280.9316
   4   2.0000     -10.317816      -280.7620
   5   2.0000     -10.310891      -280.5736
   6   2.0000     -10.309135      -280.5258
   7   2.0000     -10.306282      -280.4482
   8   2.0000     -10.300947      -280.3030
   9   2.0000     -10.297087      -280.1980
  10   2.0000     -10.293433      -280.0986
  11   2.0000     -10.289734      -279.9979
  12   2.0000     -10.287838      -279.9463
  13   2.0000     -10.282792      -279.8090
  14   2.0000     -10.275666      -279.6151
  15   2.0000     -10.268962      -279.4327
  16   2.0000      -8.083189      -219.9547
  17   2.0000      -8.077666      -219.8045
  18   2.0000      -6.041661      -164.4020
  19   2.0000      -6.037807      -164.2971
  20   2.0000      -6.035981      -164.2474
  21   2.0000      -6.034045      -164.1947
  22   2.0000      -6.032044      -164.1403
  23   2.0000      -6.028648      -164.0479
  24   2.0000      -1.004110       -27.3232
  25   2.0000      -0.980810       -26.6892
  26   2.0000      -0.908125       -24.7113
  27   2.0000      -0.906831       -24.6761
  28   2.0000      -0.868708       -23.6387
  29   2.0000      -0.848789       -23.0967
  30   2.0000      -0.843150       -22.9433
  31   2.0000      -0.812723       -22.1153
  32   2.0000      -0.785188       -21.3661
  33   2.0000      -0.771012       -20.9803
  34   2.0000      -0.709083       -19.2951
  35   2.0000      -0.701015       -19.0756
  36   2.0000      -0.699107       -19.0237
  37   2.0000      -0.660049       -17.9609
  38   2.0000      -0.642806       -17.4916
  39   2.0000      -0.622770       -16.9464
  40   2.0000      -0.601579       -16.3698
  41   2.0000      -0.572738       -15.5850
  42   2.0000      -0.559324       -15.2200
  43   2.0000      -0.545910       -14.8550
  44   2.0000      -0.542669       -14.7668
  45   2.0000      -0.532681       -14.4950
  46   2.0000      -0.514204       -13.9922
  47   2.0000      -0.505175       -13.7465
  48   2.0000      -0.498291       -13.5592
  49   2.0000      -0.496804       -13.5187
  50   2.0000      -0.486462       -13.2373
  51   2.0000      -0.482240       -13.1224
  52   2.0000      -0.474769       -12.9191
  53   2.0000      -0.464993       -12.6531
  54   2.0000      -0.459261       -12.4971
  55   2.0000      -0.448390       -12.2013
  56   2.0000      -0.442342       -12.0367
  57   2.0000      -0.441083       -12.0025
  58   2.0000      -0.436295       -11.8722
  59   2.0000      -0.425074       -11.5669
  60   2.0000      -0.421626       -11.4730
  61   2.0000      -0.416073       -11.3219
  62   2.0000      -0.407704       -11.0942
  63   2.0000      -0.343553        -9.3486
  64   2.0000      -0.335871        -9.1395
  65   2.0000      -0.331305        -9.0153
  66   2.0000      -0.286293        -7.7904
  67   0.0000       0.026267         0.7148
  68   0.0000       0.067906         1.8478
  69   0.0000       0.114386         3.1126
  70   0.0000       0.117686         3.2024
  71   0.0000       0.127193         3.4611

MULLIKEN ATOMIC CHARGES
-----------------------
   0 S :    0.117091
   1 C :   -0.093320
   2 C :   -0.050073
   3 C :    0.034770
   4 C :   -0.111562
   5 H :   -0.026522
   6 C :    0.007035
   7 H :    0.034533
   8 H :    0.037409
   9 C :   -0.066820
  10 H :    0.029217
  11 H :    0.034830
  12 C :   -0.061110
  13 H :    0.035607
  14 H :    0.042622
  15 H :    0.020323
  16 S :    0.094897
  17 C :   -0.098820
  18 C :   -0.002039
  19 C :   -0.050872
  20 C :   -0.184826
  21 H :   -0.008217
  22 C :    0.099673
  23 H :    0.014647
  24 H :    0.019450
  25 C :   -0.050378
  26 H :    0.010948
  27 H :    0.029540
  28 C :   -0.033289
  29 H :    0.026918
  30 H :    0.034284
  31 H :    0.028710
  32 H :    0.020219
  33 H :    0.065126
Sum of atomic charges:   -0.0000000

LOEWDIN ATOMIC CHARGES
----------------------
   0 S :    0.403126
   1 C :   -0.181780
   2 C :   -0.062936
   3 C :   -0.051857
   4 C :   -0.193981
   5 H :    0.010792
   6 C :   -0.037857
   7 H :    0.041003
   8 H :    0.033567
   9 C :   -0.043824
  10 H :    0.028756
  11 H :    0.025727
  12 C :   -0.074715
  13 H :    0.027084
  14 H :    0.026052
  15 H :    0.024363
  16 S :    0.404821
  17 C :   -0.184061
  18 C :   -0.067710
  19 C :   -0.037777
  20 C :   -0.206887
  21 H :    0.020981
  22 C :   -0.022559
  23 H :    0.029943
  24 H :    0.026211
  25 C :   -0.030663
  26 H :    0.014407
  27 H :    0.021506
  28 C :   -0.049800
  29 H :    0.025790
  30 H :    0.022806
  31 H :    0.017521
  32 H :    0.012131
  33 H :    0.029823

  Mayer bond orders larger than 0.100000
B(  0-S ,  1-C ) :   1.1488 B(  0-S ,  4-C ) :   1.1400 B(  1-C ,  2-C ) :   1.6001
B(  1-C ,  4-C ) :   0.1049 B(  1-C , 32-H ) :   0.9638 B(  2-C ,  3-C ) :   1.2596
B(  2-C ,  6-C ) :   1.0186 B(  3-C ,  4-C ) :   1.5413 B(  3-C ,  5-H ) :   1.0127
B(  4-C , 20-C ) :   1.0557 B(  6-C ,  7-H ) :   0.9417 B(  6-C ,  8-H ) :   0.9468
B(  6-C ,  9-C ) :   1.0661 B(  9-C , 10-H ) :   0.9531 B(  9-C , 11-H ) :   0.9583
B(  9-C , 12-C ) :   1.0722 B( 12-C , 13-H ) :   0.9723 B( 12-C , 14-H ) :   0.9752
B( 12-C , 15-H ) :   0.9711 B( 16-S , 17-C ) :   1.1725 B( 16-S , 20-C ) :   1.1397
B( 17-C , 18-C ) :   1.5815 B( 17-C , 33-H ) :   0.9676 B( 18-C , 19-C ) :   1.2482
B( 18-C , 21-H ) :   1.0069 B( 19-C , 20-C ) :   1.5641 B( 19-C , 22-C ) :   1.0284
B( 22-C , 23-H ) :   0.9417 B( 22-C , 24-H ) :   0.9302 B( 22-C , 25-C ) :   1.0418
B( 25-C , 26-H ) :   0.9537 B( 25-C , 27-H ) :   0.9669 B( 25-C , 28-C ) :   1.0807
B( 28-C , 29-H ) :   0.9740 B( 28-C , 30-H ) :   0.9760 B( 28-C , 31-H ) :   0.9797

Dispersion correction           -0.015936386
FINAL SINGLE POINT ENERGY     -1339.872142026995

DIPOLE MOMENT
-------------
                                X             Y             Z
Electronic contribution:     12.26527     -23.14930     -13.77384
Nuclear contribution   :    -12.42858      23.77212      13.95856
                        -----------------------------------------
Total Dipole Moment    :     -0.16330       0.62282       0.18473
                        -----------------------------------------
Magnitude (a.u.)       :      0.66985
Magnitude (Debye)      :      1.70261

Rotational constants in cm-1:     0.020121     0.009794     0.007623
Rotational constants in MHz :   603.216788   293.630241   228.543229

                             ****ORCA TERMINATED NORMALLY****
TOTAL RUN TIME: 0 days 0 hours 0 minutes 37 seconds 132 msec
