                         Program Version 4.2.1 -  RELEASE  -
|  1> ! wB97X-D3 SP def2-SVP
|  2> %pal
|  3> nprocs 16
|  4> end
|  5>
|  6> * xyz 0 1
|  7> S 	 42.7273 	 9.41059 	 80.5618
|  8> C 	 43.6586 	 10.824 	 80.9258
|  9> C 	 43.1257 	 11.9141 	 80.2322
| 10> C 	 41.8755 	 11.5847 	 79.5859
| 11> C 	 41.5265 	 10.2594 	 79.6526
| 12> H 	 41.31 	 12.229 	 78.9116
| 13> C 	 43.7303 	 13.3342 	 80.2931
| 14> H 	 44.1545 	 13.6411 	 79.295
| 15> H 	 44.6532 	 13.2166 	 80.7359
| 16> C 	 42.9429 	 14.4592 	 80.8567
| 17> H 	 42.5172 	 14.0593 	 81.8282
| 18> H 	 43.5607 	 15.4039 	 80.9678
| 19> C 	 41.6888 	 14.8388 	 80.0484
| 20> H 	 41.8112 	 14.761 	 78.9545
| 21> H 	 40.7888 	 14.1963 	 80.2095
| 22> H 	 41.3973 	 15.8997 	 80.2771
| 23> S 	 39.9735 	 10.1189 	 77.3955
| 24> C 	 38.5881 	 9.10946 	 77.3201
| 25> C 	 38.3561 	 8.39278 	 78.4852
| 26> C 	 39.417 	 8.63122 	 79.4695
| 27> C 	 40.3588 	 9.55415 	 79.037
| 28> H 	 37.5716 	 7.60964 	 78.4933
| 29> C 	 39.2819 	 8.10116 	 80.9365
| 30> H 	 40.2466 	 8.23998 	 81.3859
| 31> H 	 39.1897 	 7.03265 	 81.0189
| 32> C 	 38.2494 	 8.87369 	 81.7796
| 33> H 	 38.7902 	 9.82122 	 81.9029
| 34> H 	 38.3313 	 8.3665 	 82.6977
| 35> C 	 36.8433 	 8.90825 	 81.2856
| 36> H 	 36.8603 	 9.59688 	 80.3923
| 37> H 	 36.2642 	 9.42458 	 81.9952
| 38> H 	 36.3022 	 8.03084 	 81.0991
| 39> H 	 44.5395 	 10.7687 	 81.5022
| 40> H 	 37.958 	 8.9817 	 76.4842
| 41> *
| 42>
| 43>                          ****END OF INPUT****

CARTESIAN COORDINATES (ANGSTROEM)
---------------------------------
  S     42.727300    9.410590   80.561800
  C     43.658600   10.824000   80.925800
  C     43.125700   11.914100   80.232200
  C     41.875500   11.584700   79.585900
  C     41.526500   10.259400   79.652600
  H     41.310000   12.229000   78.911600
  C     43.730300   13.334200   80.293100
  H     44.154500   13.641100   79.295000
  H     44.653200   13.216600   80.735900
  C     42.942900   14.459200   80.856700
  H     42.517200   14.059300   81.828200
  H     43.560700   15.403900   80.967800
  C     41.688800   14.838800   80.048400
  H     41.811200   14.761000   78.954500
  H     40.788800   14.196300   80.209500
  H     41.397300   15.899700   80.277100
  S     39.973500   10.118900   77.395500
  C     38.588100    9.109460   77.320100
  C     38.356100    8.392780   78.485200
  C     39.417000    8.631220   79.469500
  C     40.358800    9.554150   79.037000
  H     37.571600    7.609640   78.493300
  C     39.281900    8.101160   80.936500
  H     40.246600    8.239980   81.385900
  H     39.189700    7.032650   81.018900
  C     38.249400    8.873690   81.779600
  H     38.790200    9.821220   81.902900
  H     38.331300    8.366500   82.697700
  C     36.843300    8.908250   81.285600
  H     36.860300    9.596880   80.392300
  H     36.264200    9.424580   81.995200
  H     36.302200    8.030840   81.099100
  H     44.539500   10.768700   81.502200
  H     37.958000    8.981700   76.484200

 Total Charge           Charge          ....    0
 Multiplicity           Mult            ....    1
 Number of Electrons    NEL             ....  134
 Basis Dimension        Dim             ....  322

ORBITAL ENERGIES
----------------

  NO   OCC          E(Eh)            E(eV)
   0   2.0000     -88.966737     -2420.9080
   1   2.0000     -88.965319     -2420.8694
   2   2.0000     -10.334431      -281.2142
   3   2.0000     -10.333142      -281.1791
   4   2.0000     -10.315202      -280.6909
   5   2.0000     -10.314709      -280.6775
   6   2.0000     -10.311372      -280.5867
   7   2.0000     -10.309147      -280.5262
   8   2.0000     -10.299910      -280.2748
   9   2.0000     -10.295064      -280.1429
  10   2.0000     -10.294190      -280.1192
  11   2.0000     -10.287620      -279.9404
  12   2.0000     -10.285819      -279.8914
  13   2.0000     -10.281635      -279.7775
  14   2.0000     -10.278482      -279.6917
  15   2.0000     -10.268339      -279.4157
  16   2.0000      -8.081563      -219.9105
  17   2.0000      -8.080525      -219.8823
  18   2.0000      -6.040058      -164.3583
  19   2.0000      -6.038987      -164.3292
  20   2.0000      -6.036036      -164.2489
  21   2.0000      -6.034757      -164.2141
  22   2.0000      -6.032365      -164.1490
  23   2.0000      -6.031512      -164.1258
  24   2.0000      -1.006876       -27.3985
  25   2.0000      -0.985039       -26.8043
  26   2.0000      -0.912643       -24.8343
  27   2.0000      -0.909326       -24.7440
  28   2.0000      -0.868788       -23.6409
  29   2.0000      -0.848118       -23.0785
  30   2.0000      -0.839424       -22.8419
  31   2.0000      -0.817600       -22.2480
  32   2.0000      -0.791013       -21.5246
  33   2.0000      -0.778123       -21.1738
  34   2.0000      -0.704638       -19.1742
  35   2.0000      -0.693609       -18.8741
  36   2.0000      -0.686479       -18.6800
  37   2.0000      -0.666504       -18.1365
  38   2.0000      -0.642000       -17.4697
  39   2.0000      -0.618704       -16.8358
  40   2.0000      -0.594414       -16.1748
  41   2.0000      -0.574767       -15.6402
  42   2.0000      -0.555559       -15.1175
  43   2.0000      -0.545865       -14.8537
  44   2.0000      -0.543506       -14.7895
  45   2.0000      -0.540749       -14.7145
  46   2.0000      -0.520177       -14.1547
  47   2.0000      -0.509681       -13.8691
  48   2.0000      -0.503729       -13.7072
  49   2.0000      -0.497220       -13.5300
  50   2.0000      -0.488321       -13.2879
  51   2.0000      -0.485099       -13.2002
  52   2.0000      -0.474966       -12.9245
  53   2.0000      -0.468704       -12.7541
  54   2.0000      -0.461342       -12.5538
  55   2.0000      -0.443306       -12.0630
  56   2.0000      -0.435474       -11.8499
  57   2.0000      -0.433215       -11.7884
  58   2.0000      -0.424691       -11.5564
  59   2.0000      -0.422649       -11.5009
  60   2.0000      -0.419581       -11.4174
  61   2.0000      -0.408745       -11.1225
  62   2.0000      -0.405460       -11.0331
  63   2.0000      -0.352284        -9.5861
  64   2.0000      -0.330803        -9.0016
  65   2.0000      -0.330133        -8.9834
  66   2.0000      -0.295972        -8.0538
  67   0.0000       0.031382         0.8540
  68   0.0000       0.075334         2.0499
  69   0.0000       0.107292         2.9196
  70   0.0000       0.122487         3.3330
  71   0.0000       0.129678         3.5287

MULLIKEN ATOMIC CHARGES
-----------------------
   0 S :    0.110344
   1 C :   -0.116265
   2 C :   -0.103584
   3 C :    0.011418
   4 C :   -0.127761
   5 H :    0.016804
   6 C :    0.108446
   7 H :    0.024374
   8 H :   -0.017915
   9 C :   -0.068234
  10 H :    0.042724
  11 H :    0.049643
  12 C :   -0.099503
  13 H :    0.027917
  14 H :    0.045387
  15 H :    0.040699
  16 S :    0.101732
  17 C :   -0.069847
  18 C :   -0.053882
  19 C :   -0.061449
  20 C :   -0.145701
  21 H :    0.038723
  22 C :    0.063124
  23 H :   -0.002918
  24 H :    0.020105
  25 C :   -0.045554
  26 H :    0.033841
  27 H :    0.014757
  28 C :   -0.007650
  29 H :    0.047261
  30 H :    0.016568
  31 H :    0.022418
  32 H :    0.042078
  33 H :    0.041895
Sum of atomic charges:   -0.0000000

LOEWDIN ATOMIC CHARGES
----------------------
   0 S :    0.428822
   1 C :   -0.195653
   2 C :   -0.055060
   3 C :   -0.078097
   4 C :   -0.199152
   5 H :    0.028319
   6 C :   -0.040324
   7 H :    0.035968
   8 H :    0.018748
   9 C :   -0.048467
  10 H :    0.035763
  11 H :    0.037171
  12 C :   -0.081699
  13 H :    0.020453
  14 H :    0.028560
  15 H :    0.031211
  16 S :    0.410709
  17 C :   -0.187295
  18 C :   -0.074464
  19 C :   -0.051089
  20 C :   -0.190371
  21 H :    0.038655
  22 C :   -0.032155
  23 H :    0.016537
  24 H :    0.023433
  25 C :   -0.033565
  26 H :    0.033944
  27 H :    0.018341
  28 C :   -0.064336
  29 H :    0.038861
  30 H :    0.023495
  31 H :    0.019272
  32 H :    0.021441
  33 H :    0.022026

  Mayer bond orders larger than 0.100000
B(  0-S ,  1-C ) :   1.1562 B(  0-S ,  4-C ) :   1.1668 B(  1-C ,  2-C ) :   1.5799
B(  1-C , 32-H ) :   0.9776 B(  2-C ,  3-C ) :   1.2481 B(  2-C ,  6-C ) :   1.0280
B(  3-C ,  4-C ) :   1.5780 B(  3-C ,  5-H ) :   0.9823 B(  4-C , 20-C ) :   1.0042
B(  6-C ,  7-H ) :   0.9268 B(  6-C ,  8-H ) :   0.9256 B(  6-C ,  9-C ) :   1.0781
B(  9-C , 10-H ) :   0.9518 B(  9-C , 11-H ) :   0.9532 B(  9-C , 12-C ) :   1.0690
B( 12-C , 13-H ) :   0.9749 B( 12-C , 14-H ) :   0.9712 B( 12-C , 15-H ) :   0.9731
B( 16-S , 17-C ) :   1.1619 B( 16-S , 20-C ) :   1.1288 B( 17-C , 18-C ) :   1.6276
B( 17-C , 33-H ) :   0.9690 B( 18-C , 19-C ) :   1.2178 B( 18-C , 21-H ) :   0.9804
B( 19-C , 20-C ) :   1.6237 B( 19-C , 22-C ) :   1.0379 B( 22-C , 23-H ) :   0.9291
B( 22-C , 24-H ) :   0.9374 B( 22-C , 25-C ) :   1.0685 B( 25-C , 26-H ) :   0.9539
B( 25-C , 27-H ) :   0.9505 B( 25-C , 28-C ) :   1.0939 B( 28-C , 29-H ) :   0.9623
B( 28-C , 30-H ) :   0.9648 B( 28-C , 31-H ) :   0.9730

Dispersion correction           -0.014766008
FINAL SINGLE POINT ENERGY     -1339.869212672041

DIPOLE MOMENT
-------------
                                X             Y             Z
Electronic contribution:      8.08484     -12.31800     -11.42081
Nuclear contribution   :     -8.24383      12.45855      11.62957
                        -----------------------------------------
Total Dipole Moment    :     -0.15900       0.14055       0.20877
                        -----------------------------------------
Magnitude (a.u.)       :      0.29769
Magnitude (Debye)      :      0.75666

Rotational constants in cm-1:     0.019909     0.008056     0.007621
Rotational constants in MHz :   596.844142   241.501538   228.476005

                             ****ORCA TERMINATED NORMALLY****
TOTAL RUN TIME: 0 days 0 hours 0 minutes 30 seconds 323 msec
