                         Program Version 4.2.1 -  RELEASE  -
|  1> ! wB97X-D3 SP def2-SVP
|  2> %pal
|  3> nprocs 16
|  4> end
|  5>
|  6> * xyz 0 1
|  7> S 	 -22.2779 	 50.9337 	 65.0113
|  8> C 	 -22.7065 	 49.3503 	 64.4293
|  9> C 	 -22.8301 	 48.3692 	 65.4195
| 10> C 	 -22.556 	 48.9852 	 66.7192
| 11> C 	 -22.2157 	 50.311 	 66.6934
| 12> H 	 -22.6148 	 48.4757 	 67.6124
| 13> C 	 -23.1848 	 46.9141 	 65.1492
| 14> H 	 -22.4869 	 46.3485 	 65.8316
| 15> H 	 -22.868 	 46.6308 	 64.1038
| 16> C 	 -24.64 	 46.5055 	 65.505
| 17> H 	 -24.8247 	 45.4 	 65.2629
| 18> H 	 -24.711 	 46.6607 	 66.5726
| 19> C 	 -25.7121 	 47.2715 	 64.7931
| 20> H 	 -25.6408 	 48.3353 	 64.9791
| 21> H 	 -25.6657 	 47.146 	 63.7325
| 22> H 	 -26.6993 	 47.076 	 65.1823
| 23> S 	 -23.1369 	 52.7278 	 67.7886
| 24> C 	 -22.788 	 53.0879 	 69.3978
| 25> C 	 -21.8904 	 52.1675 	 70.0103
| 26> C 	 -21.5209 	 51.116 	 69.1036
| 27> C 	 -22.1081 	 51.2403 	 67.7924
| 28> H 	 -21.5251 	 52.3084 	 71.035
| 29> C 	 -20.4214 	 50.0808 	 69.4667
| 30> H 	 -19.6941 	 50.6161 	 70.1488
| 31> H 	 -19.949 	 49.808 	 68.6143
| 32> C 	 -20.9942 	 48.7845 	 70.1049
| 33> H 	 -21.5928 	 48.2557 	 69.4134
| 34> H 	 -21.588 	 49.0748 	 70.9255
| 35> C 	 -19.924 	 47.7864 	 70.6701
| 36> H 	 -19.3704 	 47.4021 	 69.8078
| 37> H 	 -20.3186 	 46.9418 	 71.1725
| 38> H 	 -19.181 	 48.2518 	 71.2622
| 39> H 	 -22.8692 	 49.1438 	 63.3881
| 40> H 	 -23.1169 	 53.9438 	 69.9326
| 41> *
| 42>
| 43>                          ****END OF INPUT****

CARTESIAN COORDINATES (ANGSTROEM)
---------------------------------
  S    -22.277900   50.933700   65.011300
  C    -22.706500   49.350300   64.429300
  C    -22.830100   48.369200   65.419500
  C    -22.556000   48.985200   66.719200
  C    -22.215700   50.311000   66.693400
  H    -22.614800   48.475700   67.612400
  C    -23.184800   46.914100   65.149200
  H    -22.486900   46.348500   65.831600
  H    -22.868000   46.630800   64.103800
  C    -24.640000   46.505500   65.505000
  H    -24.824700   45.400000   65.262900
  H    -24.711000   46.660700   66.572600
  C    -25.712100   47.271500   64.793100
  H    -25.640800   48.335300   64.979100
  H    -25.665700   47.146000   63.732500
  H    -26.699300   47.076000   65.182300
  S    -23.136900   52.727800   67.788600
  C    -22.788000   53.087900   69.397800
  C    -21.890400   52.167500   70.010300
  C    -21.520900   51.116000   69.103600
  C    -22.108100   51.240300   67.792400
  H    -21.525100   52.308400   71.035000
  C    -20.421400   50.080800   69.466700
  H    -19.694100   50.616100   70.148800
  H    -19.949000   49.808000   68.614300
  C    -20.994200   48.784500   70.104900
  H    -21.592800   48.255700   69.413400
  H    -21.588000   49.074800   70.925500
  C    -19.924000   47.786400   70.670100
  H    -19.370400   47.402100   69.807800
  H    -20.318600   46.941800   71.172500
  H    -19.181000   48.251800   71.262200
  H    -22.869200   49.143800   63.388100
  H    -23.116900   53.943800   69.932600

 Total Charge           Charge          ....    0
 Multiplicity           Mult            ....    1
 Number of Electrons    NEL             ....  134
 Basis Dimension        Dim             ....  322

ORBITAL ENERGIES
----------------

  NO   OCC          E(Eh)            E(eV)
   0   2.0000     -88.969794     -2420.9912
   1   2.0000     -88.966065     -2420.8897
   2   2.0000     -10.333532      -281.1897
   3   2.0000     -10.332981      -281.1747
   4   2.0000     -10.317930      -280.7651
   5   2.0000     -10.315838      -280.7082
   6   2.0000     -10.312900      -280.6283
   7   2.0000     -10.307833      -280.4904
   8   2.0000     -10.304712      -280.4055
   9   2.0000     -10.300054      -280.2787
  10   2.0000     -10.294912      -280.1388
  11   2.0000     -10.292818      -280.0818
  12   2.0000     -10.291736      -280.0524
  13   2.0000     -10.282550      -279.8024
  14   2.0000     -10.272983      -279.5421
  15   2.0000     -10.268069      -279.4084
  16   2.0000      -8.084453      -219.9891
  17   2.0000      -8.080492      -219.8814
  18   2.0000      -6.042813      -164.4333
  19   2.0000      -6.039071      -164.3315
  20   2.0000      -6.038782      -164.3236
  21   2.0000      -6.035556      -164.2358
  22   2.0000      -6.035123      -164.2241
  23   2.0000      -6.031129      -164.1154
  24   2.0000      -1.000040       -27.2125
  25   2.0000      -0.977953       -26.6115
  26   2.0000      -0.910444       -24.7744
  27   2.0000      -0.905753       -24.6468
  28   2.0000      -0.868153       -23.6236
  29   2.0000      -0.851414       -23.1682
  30   2.0000      -0.846118       -23.0240
  31   2.0000      -0.812080       -22.0978
  32   2.0000      -0.786226       -21.3943
  33   2.0000      -0.771672       -20.9983
  34   2.0000      -0.710315       -19.3287
  35   2.0000      -0.700891       -19.0722
  36   2.0000      -0.691921       -18.8281
  37   2.0000      -0.659509       -17.9461
  38   2.0000      -0.642417       -17.4811
  39   2.0000      -0.622813       -16.9476
  40   2.0000      -0.594515       -16.1776
  41   2.0000      -0.568556       -15.4712
  42   2.0000      -0.563519       -15.3341
  43   2.0000      -0.553001       -15.0479
  44   2.0000      -0.542704       -14.7677
  45   2.0000      -0.522630       -14.2215
  46   2.0000      -0.516593       -14.0572
  47   2.0000      -0.510138       -13.8816
  48   2.0000      -0.508280       -13.8310
  49   2.0000      -0.499572       -13.5940
  50   2.0000      -0.490994       -13.3606
  51   2.0000      -0.477430       -12.9915
  52   2.0000      -0.469985       -12.7889
  53   2.0000      -0.464403       -12.6371
  54   2.0000      -0.463149       -12.6029
  55   2.0000      -0.450725       -12.2649
  56   2.0000      -0.443120       -12.0579
  57   2.0000      -0.438367       -11.9286
  58   2.0000      -0.436228       -11.8704
  59   2.0000      -0.426679       -11.6105
  60   2.0000      -0.423184       -11.5154
  61   2.0000      -0.416750       -11.3403
  62   2.0000      -0.414759       -11.2862
  63   2.0000      -0.352820        -9.6007
  64   2.0000      -0.332551        -9.0492
  65   2.0000      -0.328525        -8.9396
  66   2.0000      -0.284713        -7.7474
  67   0.0000       0.023388         0.6364
  68   0.0000       0.065201         1.7742
  69   0.0000       0.106887         2.9085
  70   0.0000       0.118832         3.2336
  71   0.0000       0.127031         3.4567

MULLIKEN ATOMIC CHARGES
-----------------------
   0 S :    0.095658
   1 C :   -0.108579
   2 C :   -0.108342
   3 C :    0.064505
   4 C :   -0.134193
   5 H :   -0.038148
   6 C :    0.037657
   7 H :    0.038371
   8 H :    0.035775
   9 C :   -0.075567
  10 H :    0.045448
  11 H :    0.027196
  12 C :   -0.028536
  13 H :    0.029706
  14 H :    0.023715
  15 H :    0.027353
  16 S :    0.120828
  17 C :   -0.080539
  18 C :   -0.051844
  19 C :   -0.050972
  20 C :   -0.140821
  21 H :    0.029455
  22 C :    0.085085
  23 H :    0.036353
  24 H :    0.002379
  25 C :   -0.059933
  26 H :    0.020228
  27 H :    0.017611
  28 C :   -0.023755
  29 H :    0.019392
  30 H :    0.031630
  31 H :    0.019321
  32 H :    0.042573
  33 H :    0.050990
Sum of atomic charges:    0.0000000

LOEWDIN ATOMIC CHARGES
----------------------
   0 S :    0.383669
   1 C :   -0.188964
   2 C :   -0.063088
   3 C :   -0.046706
   4 C :   -0.180193
   5 H :    0.013445
   6 C :   -0.038105
   7 H :    0.038334
   8 H :    0.034074
   9 C :   -0.043647
  10 H :    0.034149
  11 H :    0.022773
  12 C :   -0.067761
  13 H :    0.026180
  14 H :    0.020928
  15 H :    0.027135
  16 S :    0.423869
  17 C :   -0.200131
  18 C :   -0.080066
  19 C :   -0.044151
  20 C :   -0.198687
  21 H :    0.035076
  22 C :   -0.016969
  23 H :    0.038506
  24 H :    0.013375
  25 C :   -0.027598
  26 H :    0.014849
  27 H :    0.016074
  28 C :   -0.059753
  29 H :    0.025580
  30 H :    0.022023
  31 H :    0.018014
  32 H :    0.022727
  33 H :    0.025041

  Mayer bond orders larger than 0.100000
B(  0-S ,  1-C ) :   1.1444 B(  0-S ,  4-C ) :   1.1174 B(  1-C ,  2-C ) :   1.6196
B(  1-C , 32-H ) :   0.9661 B(  2-C ,  3-C ) :   1.2211 B(  2-C ,  6-C ) :   1.0153
B(  3-C ,  4-C ) :   1.5946 B(  3-C ,  5-H ) :   1.0023 B(  4-C , 20-C ) :   1.0642
B(  6-C ,  7-H ) :   0.9406 B(  6-C ,  8-H ) :   0.9475 B(  6-C ,  9-C ) :   1.0605
B(  9-C , 10-H ) :   0.9556 B(  9-C , 11-H ) :   0.9550 B(  9-C , 12-C ) :   1.0882
B( 12-C , 13-H ) :   0.9683 B( 12-C , 14-H ) :   0.9748 B( 12-C , 15-H ) :   0.9698
B( 16-S , 17-C ) :   1.2000 B( 16-S , 20-C ) :   1.1316 B( 17-C , 18-C ) :   1.5503
B( 17-C , 20-C ) :   0.1066 B( 17-C , 33-H ) :   0.9688 B( 18-C , 19-C ) :   1.2875
B( 18-C , 21-H ) :   0.9872 B( 19-C , 20-C ) :   1.5426 B( 19-C , 22-C ) :   1.0359
B( 22-C , 23-H ) :   0.9470 B( 22-C , 24-H ) :   0.9354 B( 22-C , 25-C ) :   1.0573
B( 25-C , 26-H ) :   0.9542 B( 25-C , 27-H ) :   0.9589 B( 25-C , 28-C ) :   1.0830
B( 28-C , 29-H ) :   0.9739 B( 28-C , 30-H ) :   0.9760 B( 28-C , 31-H ) :   0.9769

Dispersion correction           -0.014366380
FINAL SINGLE POINT ENERGY     -1339.876828694009

DIPOLE MOMENT
-------------
                                X             Y             Z
Electronic contribution:      0.03538      25.55698      -7.72260
Nuclear contribution   :     -0.06442     -26.04282       8.06062
                        -----------------------------------------
Total Dipole Moment    :     -0.02903      -0.48584       0.33802
                        -----------------------------------------
Magnitude (a.u.)       :      0.59257
Magnitude (Debye)      :      1.50621

Rotational constants in cm-1:     0.016576     0.009132     0.006912
Rotational constants in MHz :   496.925700   273.781935   207.215060

                             ****ORCA TERMINATED NORMALLY****
TOTAL RUN TIME: 0 days 0 hours 0 minutes 33 seconds 393 msec
