                         Program Version 4.2.1 -  RELEASE  -
|  1> ! wB97X-D3 SP def2-SVP
|  2> %pal
|  3> nprocs 16
|  4> end
|  5>
|  6> * xyz 0 1
|  7> S 	 -18.9089 	 -0.187437 	 77.2261
|  8> C 	 -17.3768 	 0.171025 	 76.6235
|  9> C 	 -16.3377 	 -0.100031 	 77.5078
| 10> C 	 -16.8173 	 -0.798831 	 78.6645
| 11> C 	 -18.1593 	 -1.07594 	 78.6151
| 12> H 	 -16.2364 	 -1.16209 	 79.4151
| 13> C 	 -14.8696 	 0.294776 	 77.2575
| 14> H 	 -14.8156 	 0.759391 	 76.2515
| 15> H 	 -14.3494 	 -0.711262 	 77.2899
| 16> C 	 -14.2759 	 1.23952 	 78.2717
| 17> H 	 -14.5827 	 2.31031 	 78.1227
| 18> H 	 -14.633 	 0.994888 	 79.2519
| 19> C 	 -12.7201 	 1.1823 	 78.2899
| 20> H 	 -12.4069 	 0.171182 	 78.4781
| 21> H 	 -12.3577 	 1.42198 	 77.352
| 22> H 	 -12.1789 	 1.86618 	 78.9527
| 23> S 	 -20.4969 	 -1.14892 	 80.138
| 24> C 	 -20.7344 	 -2.52634 	 81.1794
| 25> C 	 -19.7661 	 -3.46564 	 81.0051
| 26> C 	 -18.7395 	 -3.11996 	 80.0875
| 27> C 	 -19.0402 	 -1.89269 	 79.4948
| 28> H 	 -19.8227 	 -4.34893 	 81.6475
| 29> C 	 -17.6482 	 -4.08729 	 79.683
| 30> H 	 -16.8401 	 -4.14135 	 80.3518
| 31> H 	 -17.3038 	 -3.47838 	 78.8436
| 32> C 	 -18.1898 	 -5.47277 	 79.2416
| 33> H 	 -19.0399 	 -5.46222 	 78.541
| 34> H 	 -18.4663 	 -5.88853 	 80.1923
| 35> C 	 -17.047 	 -6.17172 	 78.5879
| 36> H 	 -17.1107 	 -7.29852 	 78.7145
| 37> H 	 -16.1234 	 -5.93516 	 79.0052
| 38> H 	 -16.9751 	 -5.97499 	 77.4448
| 39> H 	 -17.2353 	 0.698729 	 75.6765
| 40> H 	 -21.6363 	 -2.85331 	 81.7433
| 41> *
| 42>
| 43>                          ****END OF INPUT****

CARTESIAN COORDINATES (ANGSTROEM)
---------------------------------
  S    -18.908900   -0.187437   77.226100
  C    -17.376800    0.171025   76.623500
  C    -16.337700   -0.100031   77.507800
  C    -16.817300   -0.798831   78.664500
  C    -18.159300   -1.075940   78.615100
  H    -16.236400   -1.162090   79.415100
  C    -14.869600    0.294776   77.257500
  H    -14.815600    0.759391   76.251500
  H    -14.349400   -0.711262   77.289900
  C    -14.275900    1.239520   78.271700
  H    -14.582700    2.310310   78.122700
  H    -14.633000    0.994888   79.251900
  C    -12.720100    1.182300   78.289900
  H    -12.406900    0.171182   78.478100
  H    -12.357700    1.421980   77.352000
  H    -12.178900    1.866180   78.952700
  S    -20.496900   -1.148920   80.138000
  C    -20.734400   -2.526340   81.179400
  C    -19.766100   -3.465640   81.005100
  C    -18.739500   -3.119960   80.087500
  C    -19.040200   -1.892690   79.494800
  H    -19.822700   -4.348930   81.647500
  C    -17.648200   -4.087290   79.683000
  H    -16.840100   -4.141350   80.351800
  H    -17.303800   -3.478380   78.843600
  C    -18.189800   -5.472770   79.241600
  H    -19.039900   -5.462220   78.541000
  H    -18.466300   -5.888530   80.192300
  C    -17.047000   -6.171720   78.587900
  H    -17.110700   -7.298520   78.714500
  H    -16.123400   -5.935160   79.005200
  H    -16.975100   -5.974990   77.444800
  H    -17.235300    0.698729   75.676500
  H    -21.636300   -2.853310   81.743300

 Total Charge           Charge          ....    0
 Multiplicity           Mult            ....    1
 Number of Electrons    NEL             ....  134
 Basis Dimension        Dim             ....  322

ORBITAL ENERGIES
----------------

  NO   OCC          E(Eh)            E(eV)
   0   2.0000     -88.967068     -2420.9170
   1   2.0000     -88.962690     -2420.7979
   2   2.0000     -10.333447      -281.1874
   3   2.0000     -10.328833      -281.0618
   4   2.0000     -10.313493      -280.6444
   5   2.0000     -10.311123      -280.5799
   6   2.0000     -10.301725      -280.3242
   7   2.0000     -10.300820      -280.2996
   8   2.0000     -10.300515      -280.2913
   9   2.0000     -10.291963      -280.0585
  10   2.0000     -10.288780      -279.9719
  11   2.0000     -10.287182      -279.9284
  12   2.0000     -10.286514      -279.9103
  13   2.0000     -10.286203      -279.9018
  14   2.0000     -10.280352      -279.7426
  15   2.0000     -10.272509      -279.5292
  16   2.0000      -8.081692      -219.9140
  17   2.0000      -8.078175      -219.8183
  18   2.0000      -6.040244      -164.3634
  19   2.0000      -6.036517      -164.2620
  20   2.0000      -6.036305      -164.2562
  21   2.0000      -6.032731      -164.1590
  22   2.0000      -6.032319      -164.1477
  23   2.0000      -6.028922      -164.0553
  24   2.0000      -1.005689       -27.3662
  25   2.0000      -0.986145       -26.8344
  26   2.0000      -0.915584       -24.9143
  27   2.0000      -0.910126       -24.7658
  28   2.0000      -0.868662       -23.6375
  29   2.0000      -0.855369       -23.2758
  30   2.0000      -0.849032       -23.1033
  31   2.0000      -0.817908       -22.2564
  32   2.0000      -0.780359       -21.2347
  33   2.0000      -0.766265       -20.8511
  34   2.0000      -0.707921       -19.2635
  35   2.0000      -0.703458       -19.1421
  36   2.0000      -0.691235       -18.8095
  37   2.0000      -0.657021       -17.8784
  38   2.0000      -0.643222       -17.5030
  39   2.0000      -0.626452       -17.0466
  40   2.0000      -0.594632       -16.1808
  41   2.0000      -0.571041       -15.5388
  42   2.0000      -0.567377       -15.4391
  43   2.0000      -0.558429       -15.1956
  44   2.0000      -0.527120       -14.3437
  45   2.0000      -0.521191       -14.1823
  46   2.0000      -0.514886       -14.0108
  47   2.0000      -0.507654       -13.8140
  48   2.0000      -0.505796       -13.7634
  49   2.0000      -0.503203       -13.6929
  50   2.0000      -0.494522       -13.4566
  51   2.0000      -0.479311       -13.0427
  52   2.0000      -0.471061       -12.8182
  53   2.0000      -0.468179       -12.7398
  54   2.0000      -0.456321       -12.4171
  55   2.0000      -0.451270       -12.2797
  56   2.0000      -0.443396       -12.0654
  57   2.0000      -0.442310       -12.0359
  58   2.0000      -0.435292       -11.8449
  59   2.0000      -0.423471       -11.5232
  60   2.0000      -0.418996       -11.4015
  61   2.0000      -0.417987       -11.3740
  62   2.0000      -0.410741       -11.1768
  63   2.0000      -0.351779        -9.5724
  64   2.0000      -0.333196        -9.0667
  65   2.0000      -0.328104        -8.9282
  66   2.0000      -0.288371        -7.8470
  67   0.0000       0.030097         0.8190
  68   0.0000       0.070998         1.9319
  69   0.0000       0.109826         2.9885
  70   0.0000       0.125965         3.4277
  71   0.0000       0.136156         3.7050

MULLIKEN ATOMIC CHARGES
-----------------------
   0 S :    0.101805
   1 C :   -0.114090
   2 C :   -0.113071
   3 C :    0.077697
   4 C :   -0.165581
   5 H :   -0.027712
   6 C :    0.054244
   7 H :    0.027651
   8 H :    0.044008
   9 C :   -0.071447
  10 H :    0.037781
  11 H :    0.022099
  12 C :   -0.018249
  13 H :    0.018726
  14 H :    0.005938
  15 H :    0.034478
  16 S :    0.109902
  17 C :   -0.092233
  18 C :   -0.065243
  19 C :   -0.043117
  20 C :   -0.138512
  21 H :    0.021736
  22 C :    0.057345
  23 H :    0.026245
  24 H :    0.024579
  25 C :   -0.046834
  26 H :    0.047410
  27 H :    0.027111
  28 C :   -0.055928
  29 H :    0.032416
  30 H :    0.011049
  31 H :    0.053038
  32 H :    0.050686
  33 H :    0.066072
Sum of atomic charges:   -0.0000000

LOEWDIN ATOMIC CHARGES
----------------------
   0 S :    0.398766
   1 C :   -0.213396
   2 C :   -0.067946
   3 C :   -0.047752
   4 C :   -0.168324
   5 H :    0.015584
   6 C :   -0.032177
   7 H :    0.033363
   8 H :    0.039106
   9 C :   -0.041477
  10 H :    0.031422
  11 H :    0.017647
  12 C :   -0.058786
  13 H :    0.020741
  14 H :    0.013082
  15 H :    0.028689
  16 S :    0.402662
  17 C :   -0.200096
  18 C :   -0.077008
  19 C :   -0.056984
  20 C :   -0.199868
  21 H :    0.032219
  22 C :   -0.030201
  23 H :    0.023441
  24 H :    0.033194
  25 C :   -0.034206
  26 H :    0.034706
  27 H :    0.021067
  28 C :   -0.069310
  29 H :    0.029978
  30 H :    0.011351
  31 H :    0.039506
  32 H :    0.029128
  33 H :    0.041879

  Mayer bond orders larger than 0.100000
B(  0-S ,  1-C ) :   1.1583 B(  0-S ,  4-C ) :   1.1390 B(  1-C ,  2-C ) :   1.6215
B(  1-C , 32-H ) :   0.9620 B(  2-C ,  3-C ) :   1.2225 B(  2-C ,  6-C ) :   1.0175
B(  3-C ,  4-C ) :   1.5836 B(  3-C ,  5-H ) :   1.0131 B(  4-C , 20-C ) :   1.0096
B(  6-C ,  7-H ) :   0.9395 B(  6-C ,  8-H ) :   0.9426 B(  6-C ,  9-C ) :   1.0587
B(  9-C , 10-H ) :   0.9531 B(  9-C , 11-H ) :   0.9630 B(  9-C , 12-C ) :   1.0728
B( 12-C , 13-H ) :   0.9768 B( 12-C , 14-H ) :   0.9739 B( 12-C , 15-H ) :   0.9756
B( 16-S , 17-C ) :   1.1367 B( 16-S , 20-C ) :   1.1433 B( 17-C , 18-C ) :   1.6549
B( 17-C , 33-H ) :   0.9532 B( 18-C , 19-C ) :   1.2234 B( 18-C , 21-H ) :   0.9830
B( 19-C , 20-C ) :   1.6090 B( 19-C , 22-C ) :   1.0241 B( 22-C , 23-H ) :   0.9261
B( 22-C , 24-H ) :   0.9373 B( 22-C , 25-C ) :   1.0614 B( 25-C , 26-H ) :   0.9587
B( 25-C , 27-H ) :   0.9503 B( 25-C , 28-C ) :   1.0898 B( 28-C , 29-H ) :   0.9707
B( 28-C , 30-H ) :   0.9702 B( 28-C , 31-H ) :   0.9740

Dispersion correction           -0.013479424
FINAL SINGLE POINT ENERGY     -1339.865151172811

DIPOLE MOMENT
-------------
                                X             Y             Z
Electronic contribution:    -26.31021       9.87554       1.59600
Nuclear contribution   :     26.89472     -10.21217      -1.52153
                        -----------------------------------------
Total Dipole Moment    :      0.58451      -0.33663       0.07447
                        -----------------------------------------
Magnitude (a.u.)       :      0.67862
Magnitude (Debye)      :      1.72490

Rotational constants in cm-1:     0.017364     0.008004     0.006518
Rotational constants in MHz :   520.551944   239.947435   195.417941

                             ****ORCA TERMINATED NORMALLY****
TOTAL RUN TIME: 0 days 0 hours 0 minutes 32 seconds 287 msec
