                         Program Version 4.2.1 -  RELEASE  -
|  1> ! wB97X-D3 SP def2-SVP
|  2> %pal
|  3> nprocs 16
|  4> end
|  5>
|  6> * xyz 0 1
|  7> S 	 23.5827 	 0.000482451 	 83.239
|  8> C 	 24.9443 	 0.615042 	 82.3557
|  9> C 	 24.4883 	 1.50835 	 81.411
| 10> C 	 23.092 	 1.72308 	 81.3606
| 11> C 	 22.3708 	 0.862308 	 82.1948
| 12> H 	 22.4748 	 2.36054 	 80.7018
| 13> C 	 25.3788 	 2.18077 	 80.4145
| 14> H 	 24.7366 	 2.60891 	 79.6933
| 15> H 	 26.0642 	 1.51178 	 79.8661
| 16> C 	 26.1402 	 3.38146 	 80.9078
| 17> H 	 25.4018 	 3.83653 	 81.5013
| 18> H 	 26.9141 	 3.1887 	 81.6808
| 19> C 	 26.6281 	 4.25551 	 79.7858
| 20> H 	 27.4254 	 3.76698 	 79.2889
| 21> H 	 25.8456 	 4.50173 	 79.0305
| 22> H 	 26.8764 	 5.1891 	 80.2295
| 23> S 	 20.4007 	 0.977071 	 83.993
| 24> C 	 18.7427 	 1.09093 	 83.539
| 25> C 	 18.6626 	 0.998679 	 82.1812
| 26> C 	 19.9359 	 1.05296 	 81.5102
| 27> C 	 20.9856 	 0.877771 	 82.3748
| 28> H 	 17.7583 	 1.01626 	 81.5309
| 29> C 	 20.0085 	 1.0774 	 80.0172
| 30> H 	 21.0122 	 0.920667 	 79.6293
| 31> H 	 19.8349 	 2.14558 	 79.8445
| 32> C 	 18.8666 	 0.168831 	 79.3269
| 33> H 	 17.799 	 0.470415 	 79.438
| 34> H 	 18.9178 	 -0.777851 	 79.7064
| 35> C 	 19.0694 	 0.191999 	 77.808
| 36> H 	 18.2831 	 -0.38738 	 77.2971
| 37> H 	 20.0122 	 -0.321517 	 77.5932
| 38> H 	 19.1263 	 1.22708 	 77.374
| 39> H 	 26.0064 	 0.445775 	 82.6514
| 40> H 	 17.9286 	 1.1824 	 84.2016
| 41> *
| 42>
| 43>                          ****END OF INPUT****

CARTESIAN COORDINATES (ANGSTROEM)
---------------------------------
  S     23.582700    0.000482   83.239000
  C     24.944300    0.615042   82.355700
  C     24.488300    1.508350   81.411000
  C     23.092000    1.723080   81.360600
  C     22.370800    0.862308   82.194800
  H     22.474800    2.360540   80.701800
  C     25.378800    2.180770   80.414500
  H     24.736600    2.608910   79.693300
  H     26.064200    1.511780   79.866100
  C     26.140200    3.381460   80.907800
  H     25.401800    3.836530   81.501300
  H     26.914100    3.188700   81.680800
  C     26.628100    4.255510   79.785800
  H     27.425400    3.766980   79.288900
  H     25.845600    4.501730   79.030500
  H     26.876400    5.189100   80.229500
  S     20.400700    0.977071   83.993000
  C     18.742700    1.090930   83.539000
  C     18.662600    0.998679   82.181200
  C     19.935900    1.052960   81.510200
  C     20.985600    0.877771   82.374800
  H     17.758300    1.016260   81.530900
  C     20.008500    1.077400   80.017200
  H     21.012200    0.920667   79.629300
  H     19.834900    2.145580   79.844500
  C     18.866600    0.168831   79.326900
  H     17.799000    0.470415   79.438000
  H     18.917800   -0.777851   79.706400
  C     19.069400    0.191999   77.808000
  H     18.283100   -0.387380   77.297100
  H     20.012200   -0.321517   77.593200
  H     19.126300    1.227080   77.374000
  H     26.006400    0.445775   82.651400
  H     17.928600    1.182400   84.201600

 Total Charge           Charge          ....    0
 Multiplicity           Mult            ....    1
 Number of Electrons    NEL             ....  134
 Basis Dimension        Dim             ....  322

ORBITAL ENERGIES
----------------

  NO   OCC          E(Eh)            E(eV)
   0   2.0000     -88.965787     -2420.8821
   1   2.0000     -88.959771     -2420.7184
   2   2.0000     -10.331834      -281.1435
   3   2.0000     -10.318220      -280.7730
   4   2.0000     -10.317106      -280.7427
   5   2.0000     -10.313818      -280.6532
   6   2.0000     -10.299492      -280.2634
   7   2.0000     -10.298817      -280.2450
   8   2.0000     -10.298139      -280.2266
   9   2.0000     -10.297763      -280.2164
  10   2.0000     -10.293539      -280.1014
  11   2.0000     -10.291709      -280.0517
  12   2.0000     -10.283260      -279.8217
  13   2.0000     -10.279705      -279.7250
  14   2.0000     -10.274965      -279.5960
  15   2.0000     -10.273110      -279.5455
  16   2.0000      -8.079619      -219.8576
  17   2.0000      -8.075905      -219.7565
  18   2.0000      -6.038288      -164.3102
  19   2.0000      -6.034503      -164.2072
  20   2.0000      -6.034134      -164.1971
  21   2.0000      -6.030372      -164.0948
  22   2.0000      -6.030138      -164.0884
  23   2.0000      -6.026536      -163.9904
  24   2.0000      -1.014350       -27.6019
  25   2.0000      -0.986810       -26.8525
  26   2.0000      -0.919685       -25.0259
  27   2.0000      -0.908643       -24.7254
  28   2.0000      -0.881762       -23.9940
  29   2.0000      -0.855231       -23.2720
  30   2.0000      -0.847403       -23.0590
  31   2.0000      -0.815988       -22.2042
  32   2.0000      -0.778953       -21.1964
  33   2.0000      -0.769215       -20.9314
  34   2.0000      -0.713040       -19.4028
  35   2.0000      -0.708752       -19.2861
  36   2.0000      -0.700414       -19.0592
  37   2.0000      -0.663919       -18.0661
  38   2.0000      -0.641659       -17.4604
  39   2.0000      -0.617639       -16.8068
  40   2.0000      -0.602140       -16.3851
  41   2.0000      -0.569949       -15.5091
  42   2.0000      -0.565058       -15.3760
  43   2.0000      -0.563679       -15.3385
  44   2.0000      -0.533269       -14.5110
  45   2.0000      -0.528309       -14.3760
  46   2.0000      -0.523029       -14.2323
  47   2.0000      -0.518704       -14.1146
  48   2.0000      -0.512353       -13.9418
  49   2.0000      -0.501699       -13.6519
  50   2.0000      -0.490840       -13.3564
  51   2.0000      -0.477659       -12.9978
  52   2.0000      -0.471940       -12.8421
  53   2.0000      -0.466943       -12.7062
  54   2.0000      -0.462704       -12.5908
  55   2.0000      -0.456623       -12.4253
  56   2.0000      -0.447602       -12.1799
  57   2.0000      -0.436278       -11.8717
  58   2.0000      -0.433368       -11.7926
  59   2.0000      -0.424659       -11.5556
  60   2.0000      -0.416352       -11.3295
  61   2.0000      -0.414067       -11.2673
  62   2.0000      -0.405826       -11.0431
  63   2.0000      -0.359246        -9.7756
  64   2.0000      -0.329070        -8.9544
  65   2.0000      -0.324513        -8.8304
  66   2.0000      -0.285976        -7.7818
  67   0.0000       0.023352         0.6354
  68   0.0000       0.076286         2.0759
  69   0.0000       0.115782         3.1506
  70   0.0000       0.120538         3.2800
  71   0.0000       0.135555         3.6886

MULLIKEN ATOMIC CHARGES
-----------------------
   0 S :    0.098837
   1 C :   -0.123517
   2 C :   -0.086521
   3 C :    0.007976
   4 C :   -0.148167
   5 H :    0.028076
   6 C :    0.089645
   7 H :   -0.012751
   8 H :    0.029884
   9 C :   -0.075644
  10 H :    0.002991
  11 H :    0.024664
  12 C :   -0.011880
  13 H :    0.029180
  14 H :    0.027013
  15 H :    0.028850
  16 S :    0.097547
  17 C :   -0.056157
  18 C :   -0.028974
  19 C :   -0.088069
  20 C :   -0.132156
  21 H :    0.024173
  22 C :    0.047611
  23 H :    0.029044
  24 H :    0.038213
  25 C :   -0.065903
  26 H :    0.040919
  27 H :    0.025401
  28 C :   -0.065370
  29 H :    0.037375
  30 H :    0.029757
  31 H :    0.040636
  32 H :    0.072847
  33 H :    0.044472
Sum of atomic charges:   -0.0000000

LOEWDIN ATOMIC CHARGES
----------------------
   0 S :    0.385177
   1 C :   -0.203291
   2 C :   -0.071458
   3 C :   -0.064357
   4 C :   -0.172830
   5 H :    0.037176
   6 C :   -0.031768
   7 H :    0.021744
   8 H :    0.028878
   9 C :   -0.045241
  10 H :    0.016413
  11 H :    0.024040
  12 C :   -0.056379
  13 H :    0.021771
  14 H :    0.028807
  15 H :    0.025732
  16 S :    0.423947
  17 C :   -0.182296
  18 C :   -0.075718
  19 C :   -0.060283
  20 C :   -0.213497
  21 H :    0.035106
  22 C :   -0.031294
  23 H :    0.029355
  24 H :    0.038260
  25 C :   -0.029987
  26 H :    0.029604
  27 H :    0.013922
  28 C :   -0.070151
  29 H :    0.026597
  30 H :    0.023479
  31 H :    0.030124
  32 H :    0.043747
  33 H :    0.024671

  Mayer bond orders larger than 0.100000
B(  0-S ,  1-C ) :   1.1348 B(  0-S ,  4-C ) :   1.1339 B(  1-C ,  2-C ) :   1.5865
B(  1-C ,  4-C ) :   0.1019 B(  1-C , 32-H ) :   0.9674 B(  2-C ,  3-C ) :   1.2557
B(  2-C ,  6-C ) :   1.0321 B(  3-C ,  4-C ) :   1.5443 B(  3-C ,  5-H ) :   0.9827
B(  4-C , 20-C ) :   1.1081 B(  6-C ,  7-H ) :   0.9326 B(  6-C ,  8-H ) :   0.9407
B(  6-C ,  9-C ) :   1.0613 B(  9-C , 10-H ) :   0.9486 B(  9-C , 11-H ) :   0.9495
B(  9-C , 12-C ) :   1.0906 B( 12-C , 13-H ) :   0.9746 B( 12-C , 14-H ) :   0.9716
B( 12-C , 15-H ) :   0.9714 B( 16-S , 17-C ) :   1.1589 B( 16-S , 20-C ) :   1.1290
B( 17-C , 18-C ) :   1.5739 B( 17-C , 33-H ) :   0.9777 B( 18-C , 19-C ) :   1.2634
B( 18-C , 21-H ) :   0.9792 B( 19-C , 20-C ) :   1.5766 B( 19-C , 22-C ) :   1.0478
B( 22-C , 23-H ) :   0.9454 B( 22-C , 24-H ) :   0.9157 B( 22-C , 25-C ) :   1.0462
B( 25-C , 26-H ) :   0.9508 B( 25-C , 27-H ) :   0.9621 B( 25-C , 28-C ) :   1.0876
B( 28-C , 29-H ) :   0.9744 B( 28-C , 30-H ) :   0.9750 B( 28-C , 31-H ) :   0.9751

Dispersion correction           -0.013377636
FINAL SINGLE POINT ENERGY     -1339.861580749108

DIPOLE MOMENT
-------------
                                X             Y             Z
Electronic contribution:     -4.70582     -10.01400      26.32422
Nuclear contribution   :      4.56194      10.35842     -26.95508
                        -----------------------------------------
Total Dipole Moment    :     -0.14389       0.34442      -0.63085
                        -----------------------------------------
Magnitude (a.u.)       :      0.73301
Magnitude (Debye)      :      1.86316

Rotational constants in cm-1:     0.017609     0.008040     0.006253
Rotational constants in MHz :   527.907358   241.042012   187.465649

                             ****ORCA TERMINATED NORMALLY****
TOTAL RUN TIME: 0 days 0 hours 0 minutes 32 seconds 116 msec
