                         Program Version 4.2.1 -  RELEASE  -
|  1> ! wB97X-D3 SP def2-SVP
|  2> %pal
|  3> nprocs 16
|  4> end
|  5>
|  6> * xyz 0 1
|  7> S 	 39.3079 	 27.8294 	 95.5754
|  8> C 	 39.3117 	 29.0433 	 94.2643
|  9> C 	 39.2682 	 28.5141 	 93.013
| 10> C 	 39.2034 	 27.0953 	 93.0599
| 11> C 	 39.146 	 26.5649 	 94.3724
| 12> H 	 39.1218 	 26.5092 	 92.233
| 13> C 	 39.4705 	 29.2863 	 91.6631
| 14> H 	 39.5738 	 28.5944 	 90.9755
| 15> H 	 40.3677 	 29.8406 	 91.743
| 16> C 	 38.4574 	 30.3992 	 91.4187
| 17> H 	 38.3098 	 31.1729 	 92.2136
| 18> H 	 38.8264 	 30.894 	 90.5476
| 19> C 	 36.9798 	 29.9253 	 91.3308
| 20> H 	 36.2866 	 30.7623 	 91.4582
| 21> H 	 36.8068 	 29.6705 	 90.2392
| 22> H 	 36.8537 	 29.1131 	 92.0618
| 23> S 	 37.5536 	 24.7542 	 95.7453
| 24> C 	 38.0409 	 23.055 	 95.7329
| 25> C 	 39.1218 	 22.8416 	 94.91
| 26> C 	 39.723 	 24.0256 	 94.3846
| 27> C 	 38.9696 	 25.139 	 94.672
| 28> H 	 39.499 	 21.8574 	 94.7584
| 29> C 	 41.0097 	 24.0612 	 93.692
| 30> H 	 41.7384 	 23.6584 	 94.2896
| 31> H 	 41.3922 	 25.067 	 93.4873
| 32> C 	 40.9104 	 23.3442 	 92.3136
| 33> H 	 40.171 	 23.8615 	 91.6603
| 34> H 	 40.6494 	 22.3087 	 92.5904
| 35> C 	 42.2679 	 23.3798 	 91.6493
| 36> H 	 42.3133 	 22.8274 	 90.6947
| 37> H 	 42.9639 	 22.8664 	 92.2788
| 38> H 	 42.4589 	 24.4479 	 91.5389
| 39> H 	 39.7657 	 29.9786 	 94.3914
| 40> H 	 37.5606 	 22.1557 	 96.1392
| 41> *
| 42>
| 43>                          ****END OF INPUT****

CARTESIAN COORDINATES (ANGSTROEM)
---------------------------------
  S     39.307900   27.829400   95.575400
  C     39.311700   29.043300   94.264300
  C     39.268200   28.514100   93.013000
  C     39.203400   27.095300   93.059900
  C     39.146000   26.564900   94.372400
  H     39.121800   26.509200   92.233000
  C     39.470500   29.286300   91.663100
  H     39.573800   28.594400   90.975500
  H     40.367700   29.840600   91.743000
  C     38.457400   30.399200   91.418700
  H     38.309800   31.172900   92.213600
  H     38.826400   30.894000   90.547600
  C     36.979800   29.925300   91.330800
  H     36.286600   30.762300   91.458200
  H     36.806800   29.670500   90.239200
  H     36.853700   29.113100   92.061800
  S     37.553600   24.754200   95.745300
  C     38.040900   23.055000   95.732900
  C     39.121800   22.841600   94.910000
  C     39.723000   24.025600   94.384600
  C     38.969600   25.139000   94.672000
  H     39.499000   21.857400   94.758400
  C     41.009700   24.061200   93.692000
  H     41.738400   23.658400   94.289600
  H     41.392200   25.067000   93.487300
  C     40.910400   23.344200   92.313600
  H     40.171000   23.861500   91.660300
  H     40.649400   22.308700   92.590400
  C     42.267900   23.379800   91.649300
  H     42.313300   22.827400   90.694700
  H     42.963900   22.866400   92.278800
  H     42.458900   24.447900   91.538900
  H     39.765700   29.978600   94.391400
  H     37.560600   22.155700   96.139200

 Total Charge           Charge          ....    0
 Multiplicity           Mult            ....    1
 Number of Electrons    NEL             ....  134
 Basis Dimension        Dim             ....  322

ORBITAL ENERGIES
----------------

  NO   OCC          E(Eh)            E(eV)
   0   2.0000     -88.970502     -2421.0104
   1   2.0000     -88.964618     -2420.8503
   2   2.0000     -10.334169      -281.2070
   3   2.0000     -10.328073      -281.0412
   4   2.0000     -10.318704      -280.7862
   5   2.0000     -10.307108      -280.4707
   6   2.0000     -10.300317      -280.2859
   7   2.0000     -10.299752      -280.2705
   8   2.0000     -10.290144      -280.0090
   9   2.0000     -10.290078      -280.0073
  10   2.0000     -10.289801      -279.9997
  11   2.0000     -10.286531      -279.9107
  12   2.0000     -10.285916      -279.8940
  13   2.0000     -10.281264      -279.7674
  14   2.0000     -10.278309      -279.6870
  15   2.0000     -10.276542      -279.6389
  16   2.0000      -8.084337      -219.9860
  17   2.0000      -8.078071      -219.8155
  18   2.0000      -6.042875      -164.4350
  19   2.0000      -6.038979      -164.3290
  20   2.0000      -6.036777      -164.2691
  21   2.0000      -6.035119      -164.2239
  22   2.0000      -6.032878      -164.1629
  23   2.0000      -6.028568      -164.0457
  24   2.0000      -1.000693       -27.2302
  25   2.0000      -0.979934       -26.6654
  26   2.0000      -0.917188       -24.9580
  27   2.0000      -0.912980       -24.8434
  28   2.0000      -0.865597       -23.5541
  29   2.0000      -0.854290       -23.2464
  30   2.0000      -0.845602       -23.0100
  31   2.0000      -0.811623       -22.0854
  32   2.0000      -0.789809       -21.4918
  33   2.0000      -0.774184       -21.0666
  34   2.0000      -0.707051       -19.2398
  35   2.0000      -0.697650       -18.9840
  36   2.0000      -0.694605       -18.9012
  37   2.0000      -0.661980       -18.0134
  38   2.0000      -0.642097       -17.4724
  39   2.0000      -0.615519       -16.7491
  40   2.0000      -0.598843       -16.2953
  41   2.0000      -0.578917       -15.7531
  42   2.0000      -0.575434       -15.6584
  43   2.0000      -0.553783       -15.0692
  44   2.0000      -0.542899       -14.7730
  45   2.0000      -0.525556       -14.3011
  46   2.0000      -0.523292       -14.2395
  47   2.0000      -0.515504       -14.0276
  48   2.0000      -0.512654       -13.9500
  49   2.0000      -0.492696       -13.4069
  50   2.0000      -0.486433       -13.2365
  51   2.0000      -0.482488       -13.1292
  52   2.0000      -0.468485       -12.7481
  53   2.0000      -0.465075       -12.6553
  54   2.0000      -0.458099       -12.4655
  55   2.0000      -0.450972       -12.2716
  56   2.0000      -0.442672       -12.0457
  57   2.0000      -0.437658       -11.9093
  58   2.0000      -0.435540       -11.8516
  59   2.0000      -0.426882       -11.6160
  60   2.0000      -0.421674       -11.4743
  61   2.0000      -0.414424       -11.2770
  62   2.0000      -0.401514       -10.9258
  63   2.0000      -0.340414        -9.2631
  64   2.0000      -0.337424        -9.1818
  65   2.0000      -0.328637        -8.9427
  66   2.0000      -0.292875        -7.9695
  67   0.0000       0.029198         0.7945
  68   0.0000       0.061264         1.6671
  69   0.0000       0.107077         2.9137
  70   0.0000       0.116740         3.1766
  71   0.0000       0.128969         3.5094

MULLIKEN ATOMIC CHARGES
-----------------------
   0 S :    0.120097
   1 C :   -0.102008
   2 C :   -0.141017
   3 C :    0.068639
   4 C :   -0.156426
   5 H :   -0.035085
   6 C :    0.203387
   7 H :   -0.026999
   8 H :    0.022870
   9 C :   -0.108510
  10 H :    0.038736
  11 H :    0.024222
  12 C :   -0.074576
  13 H :    0.033314
  14 H :    0.029005
  15 H :    0.062239
  16 S :    0.095371
  17 C :   -0.076820
  18 C :   -0.043181
  19 C :    0.007366
  20 C :   -0.179172
  21 H :    0.006714
  22 C :    0.087618
  23 H :    0.005856
  24 H :    0.015465
  25 C :   -0.127651
  26 H :    0.043824
  27 H :    0.028498
  28 C :   -0.004427
  29 H :    0.038117
  30 H :    0.019141
  31 H :    0.029420
  32 H :    0.036035
  33 H :    0.059939
Sum of atomic charges:   -0.0000000

LOEWDIN ATOMIC CHARGES
----------------------
   0 S :    0.399239
   1 C :   -0.187713
   2 C :   -0.055597
   3 C :   -0.051574
   4 C :   -0.190527
   5 H :    0.010602
   6 C :   -0.003242
   7 H :    0.006273
   8 H :    0.035033
   9 C :   -0.043672
  10 H :    0.031134
  11 H :    0.018809
  12 C :   -0.072691
  13 H :    0.023943
  14 H :    0.027665
  15 H :    0.032051
  16 S :    0.366011
  17 C :   -0.180810
  18 C :   -0.069257
  19 C :   -0.050826
  20 C :   -0.174399
  21 H :    0.024461
  22 C :   -0.026361
  23 H :    0.020771
  24 H :    0.029736
  25 C :   -0.034315
  26 H :    0.027477
  27 H :    0.020634
  28 C :   -0.063502
  29 H :    0.028089
  30 H :    0.020728
  31 H :    0.026523
  32 H :    0.017227
  33 H :    0.038082

  Mayer bond orders larger than 0.100000
B(  0-S ,  1-C ) :   1.1270 B(  0-S ,  4-C ) :   1.1651 B(  1-C ,  2-C ) :   1.6338
B(  1-C , 32-H ) :   0.9589 B(  2-C ,  3-C ) :   1.2501 B(  2-C ,  6-C ) :   1.0008
B(  3-C ,  4-C ) :   1.5389 B(  3-C ,  5-H ) :   1.0097 B(  4-C , 20-C ) :   1.0387
B(  6-C ,  7-H ) :   0.9380 B(  6-C ,  8-H ) :   0.9314 B(  6-C ,  9-C ) :   1.0647
B(  9-C , 10-H ) :   0.9654 B(  9-C , 11-H ) :   0.9604 B(  9-C , 12-C ) :   1.0581
B( 12-C , 13-H ) :   0.9802 B( 12-C , 14-H ) :   0.9776 B( 12-C , 15-H ) :   0.9745
B( 16-S , 17-C ) :   1.1294 B( 16-S , 20-C ) :   1.1083 B( 17-C , 18-C ) :   1.6636
B( 17-C , 33-H ) :   0.9580 B( 18-C , 19-C ) :   1.1978 B( 18-C , 21-H ) :   0.9853
B( 19-C , 20-C ) :   1.6389 B( 19-C , 22-C ) :   1.0570 B( 22-C , 23-H ) :   0.9242
B( 22-C , 24-H ) :   0.9266 B( 22-C , 25-C ) :   1.0514 B( 25-C , 26-H ) :   0.9572
B( 25-C , 27-H ) :   0.9572 B( 25-C , 28-C ) :   1.0883 B( 28-C , 29-H ) :   0.9719
B( 28-C , 30-H ) :   0.9710 B( 28-C , 31-H ) :   0.9715

Dispersion correction           -0.014153672
FINAL SINGLE POINT ENERGY     -1339.845884149461

DIPOLE MOMENT
-------------
                                X             Y             Z
Electronic contribution:     -8.20478      -3.28136      23.92971
Nuclear contribution   :      8.75822       3.16971     -24.54428
                        -----------------------------------------
Total Dipole Moment    :      0.55344      -0.11164      -0.61457
                        -----------------------------------------
Magnitude (a.u.)       :      0.83454
Magnitude (Debye)      :      2.12123

Rotational constants in cm-1:     0.017992     0.008482     0.006742
Rotational constants in MHz :   539.375330   254.281638   202.114192

                             ****ORCA TERMINATED NORMALLY****
TOTAL RUN TIME: 0 days 0 hours 0 minutes 29 seconds 881 msec
