                         Program Version 4.2.1 -  RELEASE  -
|  1> ! wB97X-D3 SP def2-SVP
|  2> %pal
|  3> nprocs 16
|  4> end
|  5>
|  6> * xyz 0 1
|  7> S 	 2.12523 	 78.713 	 49.3907
|  8> C 	 2.41045 	 79.8114 	 50.7285
|  9> C 	 2.37114 	 79.22 	 51.9652
| 10> C 	 1.91478 	 77.8307 	 51.8105
| 11> C 	 1.64242 	 77.4772 	 50.5031
| 12> H 	 1.7017 	 77.2156 	 52.6557
| 13> C 	 2.81999 	 79.7603 	 53.3061
| 14> H 	 3.42926 	 80.5919 	 53.0248
| 15> H 	 3.51799 	 79.0522 	 53.7801
| 16> C 	 1.5392 	 80.1401 	 54.0736
| 17> H 	 0.967214 	 80.9488 	 53.6693
| 18> H 	 0.869976 	 79.3528 	 54.0796
| 19> C 	 1.82392 	 80.5083 	 55.5616
| 20> H 	 0.874708 	 80.6514 	 56.0336
| 21> H 	 2.41968 	 79.7713 	 56.1452
| 22> H 	 2.33242 	 81.4521 	 55.5879
| 23> S 	 2.13255 	 75.1113 	 49.0846
| 24> C 	 0.840825 	 73.9887 	 48.978
| 25> C 	 -0.245782 	 74.2895 	 49.7972
| 26> C 	 -0.0402497 	 75.5152 	 50.5112
| 27> C 	 1.1741 	 76.1529 	 50.1443
| 28> H 	 -1.12124 	 73.6661 	 49.7816
| 29> C 	 -1.16017 	 76.0781 	 51.4341
| 30> H 	 -1.98311 	 76.0614 	 50.7628
| 31> H 	 -1.03185 	 77.1157 	 51.6533
| 32> C 	 -1.38469 	 75.2748 	 52.6779
| 33> H 	 -1.41406 	 74.2303 	 52.3748
| 34> H 	 -2.35592 	 75.4974 	 53.2223
| 35> C 	 -0.23912 	 75.3812 	 53.7075
| 36> H 	 0.0234973 	 76.4212 	 54.0214
| 37> H 	 0.664379 	 74.8132 	 53.4211
| 38> H 	 -0.372933 	 74.7991 	 54.6307
| 39> H 	 2.83011 	 80.8062 	 50.5406
| 40> H 	 0.908479 	 73.1227 	 48.308
| 41> *
| 42>
| 43>                          ****END OF INPUT****

CARTESIAN COORDINATES (ANGSTROEM)
---------------------------------
  S      2.125230   78.713000   49.390700
  C      2.410450   79.811400   50.728500
  C      2.371140   79.220000   51.965200
  C      1.914780   77.830700   51.810500
  C      1.642420   77.477200   50.503100
  H      1.701700   77.215600   52.655700
  C      2.819990   79.760300   53.306100
  H      3.429260   80.591900   53.024800
  H      3.517990   79.052200   53.780100
  C      1.539200   80.140100   54.073600
  H      0.967214   80.948800   53.669300
  H      0.869976   79.352800   54.079600
  C      1.823920   80.508300   55.561600
  H      0.874708   80.651400   56.033600
  H      2.419680   79.771300   56.145200
  H      2.332420   81.452100   55.587900
  S      2.132550   75.111300   49.084600
  C      0.840825   73.988700   48.978000
  C     -0.245782   74.289500   49.797200
  C     -0.040250   75.515200   50.511200
  C      1.174100   76.152900   50.144300
  H     -1.121240   73.666100   49.781600
  C     -1.160170   76.078100   51.434100
  H     -1.983110   76.061400   50.762800
  H     -1.031850   77.115700   51.653300
  C     -1.384690   75.274800   52.677900
  H     -1.414060   74.230300   52.374800
  H     -2.355920   75.497400   53.222300
  C     -0.239120   75.381200   53.707500
  H      0.023497   76.421200   54.021400
  H      0.664379   74.813200   53.421100
  H     -0.372933   74.799100   54.630700
  H      2.830110   80.806200   50.540600
  H      0.908479   73.122700   48.308000

 Total Charge           Charge          ....    0
 Multiplicity           Mult            ....    1
 Number of Electrons    NEL             ....  134
 Basis Dimension        Dim             ....  322

ORBITAL ENERGIES
----------------

  NO   OCC          E(Eh)            E(eV)
   0   2.0000     -88.965264     -2420.8679
   1   2.0000     -88.964252     -2420.8404
   2   2.0000     -10.325746      -280.9778
   3   2.0000     -10.323536      -280.9177
   4   2.0000     -10.316742      -280.7328
   5   2.0000     -10.311688      -280.5953
   6   2.0000     -10.308053      -280.4964
   7   2.0000     -10.299341      -280.2593
   8   2.0000     -10.294465      -280.1266
   9   2.0000     -10.294448      -280.1262
  10   2.0000     -10.292179      -280.0644
  11   2.0000     -10.288822      -279.9731
  12   2.0000     -10.286449      -279.9085
  13   2.0000     -10.283171      -279.8193
  14   2.0000     -10.282031      -279.7883
  15   2.0000     -10.275631      -279.6141
  16   2.0000      -8.080404      -219.8790
  17   2.0000      -8.079376      -219.8510
  18   2.0000      -6.038750      -164.3227
  19   2.0000      -6.037976      -164.3017
  20   2.0000      -6.034814      -164.2156
  21   2.0000      -6.034002      -164.1935
  22   2.0000      -6.031380      -164.1222
  23   2.0000      -6.029849      -164.0805
  24   2.0000      -1.002800       -27.2876
  25   2.0000      -0.981110       -26.6974
  26   2.0000      -0.913508       -24.8578
  27   2.0000      -0.910671       -24.7806
  28   2.0000      -0.866204       -23.5706
  29   2.0000      -0.847041       -23.0492
  30   2.0000      -0.844445       -22.9785
  31   2.0000      -0.808600       -22.0031
  32   2.0000      -0.785466       -21.3736
  33   2.0000      -0.772446       -21.0193
  34   2.0000      -0.711204       -19.3529
  35   2.0000      -0.701740       -19.0953
  36   2.0000      -0.690523       -18.7901
  37   2.0000      -0.655167       -17.8280
  38   2.0000      -0.638185       -17.3659
  39   2.0000      -0.620069       -16.8729
  40   2.0000      -0.598148       -16.2764
  41   2.0000      -0.566895       -15.4260
  42   2.0000      -0.558026       -15.1847
  43   2.0000      -0.550742       -14.9865
  44   2.0000      -0.543144       -14.7797
  45   2.0000      -0.533449       -14.5159
  46   2.0000      -0.518772       -14.1165
  47   2.0000      -0.506278       -13.7765
  48   2.0000      -0.501224       -13.6390
  49   2.0000      -0.493146       -13.4192
  50   2.0000      -0.487478       -13.2650
  51   2.0000      -0.476918       -12.9776
  52   2.0000      -0.466078       -12.6826
  53   2.0000      -0.464617       -12.6429
  54   2.0000      -0.454572       -12.3695
  55   2.0000      -0.453237       -12.3332
  56   2.0000      -0.447187       -12.1686
  57   2.0000      -0.441683       -12.0188
  58   2.0000      -0.436676       -11.8826
  59   2.0000      -0.427137       -11.6230
  60   2.0000      -0.423538       -11.5250
  61   2.0000      -0.417367       -11.3571
  62   2.0000      -0.410421       -11.1681
  63   2.0000      -0.338022        -9.1980
  64   2.0000      -0.332005        -9.0343
  65   2.0000      -0.324837        -8.8393
  66   2.0000      -0.292329        -7.9547
  67   0.0000       0.035502         0.9661
  68   0.0000       0.070993         1.9318
  69   0.0000       0.114120         3.1054
  70   0.0000       0.118526         3.2252
  71   0.0000       0.129860         3.5337

MULLIKEN ATOMIC CHARGES
-----------------------
   0 S :    0.114697
   1 C :   -0.136186
   2 C :   -0.120368
   3 C :    0.051049
   4 C :   -0.150232
   5 H :   -0.019969
   6 C :    0.110334
   7 H :    0.009182
   8 H :    0.043106
   9 C :   -0.055077
  10 H :    0.026372
  11 H :    0.008655
  12 C :   -0.034558
  13 H :    0.025119
  14 H :    0.036227
  15 H :    0.024621
  16 S :    0.117528
  17 C :   -0.105839
  18 C :   -0.037450
  19 C :   -0.050809
  20 C :   -0.174776
  21 H :    0.020107
  22 C :    0.120833
  23 H :    0.022002
  24 H :    0.018108
  25 C :   -0.062147
  26 H :    0.022965
  27 H :    0.044604
  28 C :   -0.089575
  29 H :    0.045149
  30 H :    0.039022
  31 H :    0.025392
  32 H :    0.047881
  33 H :    0.064032
Sum of atomic charges:    0.0000000

LOEWDIN ATOMIC CHARGES
----------------------
   0 S :    0.405069
   1 C :   -0.201844
   2 C :   -0.058065
   3 C :   -0.051953
   4 C :   -0.205267
   5 H :    0.021869
   6 C :   -0.024821
   7 H :    0.026938
   8 H :    0.038642
   9 C :   -0.027310
  10 H :    0.028657
  11 H :    0.012059
  12 C :   -0.063660
  13 H :    0.022029
  14 H :    0.026313
  15 H :    0.020541
  16 S :    0.412381
  17 C :   -0.195060
  18 C :   -0.076742
  19 C :   -0.043135
  20 C :   -0.200764
  21 H :    0.030881
  22 C :   -0.025772
  23 H :    0.030678
  24 H :    0.025563
  25 C :   -0.042617
  26 H :    0.024478
  27 H :    0.032699
  28 C :   -0.081706
  29 H :    0.023893
  30 H :    0.030896
  31 H :    0.028791
  32 H :    0.026251
  33 H :    0.030089

  Mayer bond orders larger than 0.100000
B(  0-S ,  1-C ) :   1.1281 B(  0-S ,  4-C ) :   1.1402 B(  1-C ,  2-C ) :   1.6508
B(  1-C , 32-H ) :   0.9596 B(  2-C ,  3-C ) :   1.2147 B(  2-C ,  6-C ) :   1.0171
B(  3-C ,  4-C ) :   1.5835 B(  3-C ,  5-H ) :   0.9934 B(  4-C , 20-C ) :   1.0566
B(  6-C ,  7-H ) :   0.9324 B(  6-C ,  8-H ) :   0.9485 B(  6-C ,  9-C ) :   1.0470
B(  9-C , 10-H ) :   0.9511 B(  9-C , 11-H ) :   0.9651 B(  9-C , 12-C ) :   1.0844
B( 12-C , 13-H ) :   0.9744 B( 12-C , 14-H ) :   0.9776 B( 12-C , 15-H ) :   0.9751
B( 16-S , 17-C ) :   1.1729 B( 16-S , 20-C ) :   1.1461 B( 17-C , 18-C ) :   1.5920
B( 17-C , 33-H ) :   0.9644 B( 18-C , 19-C ) :   1.2480 B( 18-C , 21-H ) :   0.9923
B( 19-C , 20-C ) :   1.5778 B( 19-C , 22-C ) :   1.0197 B( 22-C , 23-H ) :   0.9346
B( 22-C , 24-H ) :   0.9377 B( 22-C , 25-C ) :   1.0691 B( 25-C , 26-H ) :   0.9539
B( 25-C , 27-H ) :   0.9564 B( 25-C , 28-C ) :   1.0790 B( 28-C , 29-H ) :   0.9685
B( 28-C , 30-H ) :   0.9664 B( 28-C , 31-H ) :   0.9668

Dispersion correction           -0.015143593
FINAL SINGLE POINT ENERGY     -1339.880332613269

DIPOLE MOMENT
-------------
                                X             Y             Z
Electronic contribution:      9.23391      -5.94885     -29.17147
Nuclear contribution   :     -9.49558       5.94579      29.72490
                        -----------------------------------------
Total Dipole Moment    :     -0.26167      -0.00307       0.55342
                        -----------------------------------------
Magnitude (a.u.)       :      0.61218
Magnitude (Debye)      :      1.55603

Rotational constants in cm-1:     0.018926     0.009344     0.006853
Rotational constants in MHz :   567.388332   280.121498   205.450650

                             ****ORCA TERMINATED NORMALLY****
TOTAL RUN TIME: 0 days 0 hours 0 minutes 34 seconds 905 msec
