                         Program Version 4.2.1 -  RELEASE  -
|  1> ! wB97X-D3 SP def2-SVP
|  2> %pal
|  3> nprocs 16
|  4> end
|  5>
|  6> * xyz 0 1
|  7> S 	 -0.336176 	 80.1571 	 48.6152
|  8> C 	 -1.35077 	 79.0214 	 49.4266
|  9> C 	 -0.8445 	 77.7294 	 49.3455
| 10> C 	 0.248326 	 77.7156 	 48.4524
| 11> C 	 0.639315 	 78.9206 	 47.8095
| 12> H 	 0.77226 	 76.8667 	 48.1188
| 13> C 	 -1.39436 	 76.5001 	 50.0659
| 14> H 	 -1.75345 	 75.9404 	 49.2075
| 15> H 	 -2.31525 	 76.6831 	 50.6091
| 16> C 	 -0.369696 	 75.6059 	 50.8033
| 17> H 	 -0.854442 	 74.688 	 51.1156
| 18> H 	 0.42381 	 75.2438 	 50.1663
| 19> C 	 0.28273 	 76.1293 	 52.1269
| 20> H 	 0.768616 	 77.1392 	 52.0289
| 21> H 	 -0.525247 	 76.1961 	 52.8875
| 22> H 	 1.05238 	 75.4686 	 52.6213
| 23> S 	 1.28421 	 78.6058 	 45.1629
| 24> C 	 2.57015 	 79.5158 	 44.5148
| 25> C 	 3.20239 	 80.3403 	 45.4247
| 26> C 	 2.51698 	 80.2655 	 46.6836
| 27> C 	 1.5611 	 79.2199 	 46.7481
| 28> H 	 3.90354 	 81.0892 	 45.0899
| 29> C 	 2.82755 	 81.2621 	 47.7625
| 30> H 	 2.07416 	 81.2384 	 48.563
| 31> H 	 3.00487 	 82.2605 	 47.2964
| 32> C 	 4.15081 	 80.8783 	 48.4592
| 33> H 	 4.55315 	 81.7596 	 49.0249
| 34> H 	 4.83471 	 80.6487 	 47.7049
| 35> C 	 4.07133 	 79.6979 	 49.4533
| 36> H 	 3.69987 	 78.9014 	 48.9232
| 37> H 	 3.39486 	 79.8379 	 50.2598
| 38> H 	 5.0822 	 79.4713 	 49.813
| 39> H 	 -2.19279 	 79.2402 	 50.0818
| 40> H 	 2.93713 	 79.4995 	 43.4494
| 41> *
| 42>
| 43>                          ****END OF INPUT****

CARTESIAN COORDINATES (ANGSTROEM)
---------------------------------
  S     -0.336176   80.157100   48.615200
  C     -1.350770   79.021400   49.426600
  C     -0.844500   77.729400   49.345500
  C      0.248326   77.715600   48.452400
  C      0.639315   78.920600   47.809500
  H      0.772260   76.866700   48.118800
  C     -1.394360   76.500100   50.065900
  H     -1.753450   75.940400   49.207500
  H     -2.315250   76.683100   50.609100
  C     -0.369696   75.605900   50.803300
  H     -0.854442   74.688000   51.115600
  H      0.423810   75.243800   50.166300
  C      0.282730   76.129300   52.126900
  H      0.768616   77.139200   52.028900
  H     -0.525247   76.196100   52.887500
  H      1.052380   75.468600   52.621300
  S      1.284210   78.605800   45.162900
  C      2.570150   79.515800   44.514800
  C      3.202390   80.340300   45.424700
  C      2.516980   80.265500   46.683600
  C      1.561100   79.219900   46.748100
  H      3.903540   81.089200   45.089900
  C      2.827550   81.262100   47.762500
  H      2.074160   81.238400   48.563000
  H      3.004870   82.260500   47.296400
  C      4.150810   80.878300   48.459200
  H      4.553150   81.759600   49.024900
  H      4.834710   80.648700   47.704900
  C      4.071330   79.697900   49.453300
  H      3.699870   78.901400   48.923200
  H      3.394860   79.837900   50.259800
  H      5.082200   79.471300   49.813000
  H     -2.192790   79.240200   50.081800
  H      2.937130   79.499500   43.449400

 Total Charge           Charge          ....    0
 Multiplicity           Mult            ....    1
 Number of Electrons    NEL             ....  134
 Basis Dimension        Dim             ....  322

ORBITAL ENERGIES
----------------

  NO   OCC          E(Eh)            E(eV)
   0   2.0000     -88.970896     -2421.0212
   1   2.0000     -88.963422     -2420.8178
   2   2.0000     -10.332117      -281.1512
   3   2.0000     -10.326095      -280.9873
   4   2.0000     -10.320349      -280.8310
   5   2.0000     -10.313024      -280.6316
   6   2.0000     -10.306903      -280.4651
   7   2.0000     -10.302198      -280.3370
   8   2.0000     -10.299002      -280.2501
   9   2.0000     -10.294470      -280.1268
  10   2.0000     -10.292743      -280.0798
  11   2.0000     -10.292046      -280.0608
  12   2.0000     -10.290697      -280.0241
  13   2.0000     -10.286470      -279.9091
  14   2.0000     -10.278264      -279.6858
  15   2.0000     -10.260778      -279.2100
  16   2.0000      -8.086533      -220.0458
  17   2.0000      -8.077786      -219.8077
  18   2.0000      -6.044955      -164.4916
  19   2.0000      -6.040852      -164.3799
  20   2.0000      -6.037384      -164.2856
  21   2.0000      -6.036208      -164.2536
  22   2.0000      -6.032231      -164.1454
  23   2.0000      -6.028750      -164.0506
  24   2.0000      -1.010782       -27.5048
  25   2.0000      -0.987778       -26.8788
  26   2.0000      -0.910970       -24.7887
  27   2.0000      -0.906835       -24.6762
  28   2.0000      -0.871509       -23.7150
  29   2.0000      -0.849003       -23.1026
  30   2.0000      -0.840917       -22.8825
  31   2.0000      -0.814216       -22.1560
  32   2.0000      -0.785540       -21.3756
  33   2.0000      -0.772294       -21.0152
  34   2.0000      -0.710218       -19.3260
  35   2.0000      -0.698340       -19.0028
  36   2.0000      -0.687150       -18.6983
  37   2.0000      -0.661291       -17.9947
  38   2.0000      -0.638159       -17.3652
  39   2.0000      -0.622232       -16.9318
  40   2.0000      -0.598352       -16.2820
  41   2.0000      -0.570071       -15.5124
  42   2.0000      -0.550686       -14.9849
  43   2.0000      -0.545387       -14.8407
  44   2.0000      -0.542843       -14.7715
  45   2.0000      -0.534893       -14.5552
  46   2.0000      -0.516243       -14.0477
  47   2.0000      -0.512134       -13.9359
  48   2.0000      -0.500665       -13.6238
  49   2.0000      -0.498832       -13.5739
  50   2.0000      -0.490849       -13.3567
  51   2.0000      -0.472193       -12.8490
  52   2.0000      -0.471260       -12.8236
  53   2.0000      -0.470033       -12.7903
  54   2.0000      -0.463756       -12.6194
  55   2.0000      -0.448336       -12.1998
  56   2.0000      -0.444580       -12.0976
  57   2.0000      -0.434346       -11.8192
  58   2.0000      -0.431657       -11.7460
  59   2.0000      -0.426413       -11.6033
  60   2.0000      -0.421891       -11.4802
  61   2.0000      -0.411562       -11.1992
  62   2.0000      -0.408900       -11.1267
  63   2.0000      -0.345396        -9.3987
  64   2.0000      -0.330109        -8.9827
  65   2.0000      -0.326345        -8.8803
  66   2.0000      -0.289355        -7.8737
  67   0.0000       0.030053         0.8178
  68   0.0000       0.062726         1.7069
  69   0.0000       0.104900         2.8545
  70   0.0000       0.115731         3.1492
  71   0.0000       0.136703         3.7199

MULLIKEN ATOMIC CHARGES
-----------------------
   0 S :    0.108343
   1 C :   -0.123576
   2 C :   -0.082110
   3 C :    0.037160
   4 C :   -0.185662
   5 H :   -0.015556
   6 C :    0.098452
   7 H :    0.036286
   8 H :    0.017082
   9 C :   -0.062613
  10 H :    0.025229
  11 H :    0.030811
  12 C :   -0.097410
  13 H :    0.050156
  14 H :    0.027463
  15 H :    0.043960
  16 S :    0.142692
  17 C :   -0.110701
  18 C :   -0.029083
  19 C :   -0.084850
  20 C :   -0.127375
  21 H :    0.026360
  22 C :    0.072064
  23 H :    0.024220
  24 H :    0.039892
  25 C :   -0.089238
  26 H :    0.030100
  27 H :    0.008385
  28 C :    0.003314
  29 H :    0.007536
  30 H :    0.023552
  31 H :    0.032593
  32 H :    0.048071
  33 H :    0.074453
Sum of atomic charges:   -0.0000000

LOEWDIN ATOMIC CHARGES
----------------------
   0 S :    0.417808
   1 C :   -0.205072
   2 C :   -0.069788
   3 C :   -0.059525
   4 C :   -0.193757
   5 H :    0.018298
   6 C :   -0.028099
   7 H :    0.041626
   8 H :    0.030128
   9 C :   -0.042116
  10 H :    0.027144
  11 H :    0.023297
  12 C :   -0.079818
  13 H :    0.029542
  14 H :    0.023430
  15 H :    0.032355
  16 S :    0.451782
  17 C :   -0.203912
  18 C :   -0.077728
  19 C :   -0.043948
  20 C :   -0.232423
  21 H :    0.034386
  22 C :   -0.036791
  23 H :    0.018353
  24 H :    0.040096
  25 C :   -0.033358
  26 H :    0.023455
  27 H :    0.010925
  28 C :   -0.053361
  29 H :    0.013419
  30 H :    0.020698
  31 H :    0.029532
  32 H :    0.030989
  33 H :    0.042432

  Mayer bond orders larger than 0.100000
B(  0-S ,  1-C ) :   1.1687 B(  0-S ,  4-C ) :   1.1387 B(  1-C ,  2-C ) :   1.5736
B(  1-C ,  4-C ) :   0.1086 B(  1-C , 32-H ) :   0.9646 B(  2-C ,  3-C ) :   1.2589
B(  2-C ,  6-C ) :   1.0103 B(  3-C ,  4-C ) :   1.5508 B(  3-C ,  5-H ) :   1.0036
B(  4-C , 20-C ) :   1.0674 B(  6-C ,  7-H ) :   0.9294 B(  6-C ,  8-H ) :   0.9457
B(  6-C ,  9-C ) :   1.0765 B(  9-C , 10-H ) :   0.9537 B(  9-C , 11-H ) :   0.9562
B(  9-C , 12-C ) :   1.0632 B( 12-C , 13-H ) :   0.9783 B( 12-C , 14-H ) :   0.9769
B( 12-C , 15-H ) :   0.9759 B( 16-S , 17-C ) :   1.1897 B( 16-S , 20-C ) :   1.1471
B( 17-C , 18-C ) :   1.5913 B( 17-C , 33-H ) :   0.9550 B( 18-C , 19-C ) :   1.2643
B( 18-C , 21-H ) :   0.9860 B( 19-C , 20-C ) :   1.5331 B( 19-C , 22-C ) :   1.0622
B( 22-C , 23-H ) :   0.9306 B( 22-C , 24-H ) :   0.9310 B( 22-C , 25-C ) :   1.0661
B( 25-C , 26-H ) :   0.9567 B( 25-C , 27-H ) :   0.9570 B( 25-C , 28-C ) :   1.0810
B( 28-C , 29-H ) :   0.9731 B( 28-C , 30-H ) :   0.9740 B( 28-C , 31-H ) :   0.9722

Dispersion correction           -0.014982813
FINAL SINGLE POINT ENERGY     -1339.871230141872

DIPOLE MOMENT
-------------
                                X             Y             Z
Electronic contribution:     -8.33847       7.47149     -20.64368
Nuclear contribution   :      8.43157      -7.63859      20.74032
                        -----------------------------------------
Total Dipole Moment    :      0.09311      -0.16710       0.09664
                        -----------------------------------------
Magnitude (a.u.)       :      0.21431
Magnitude (Debye)      :      0.54474

Rotational constants in cm-1:     0.020593     0.008488     0.007510
Rotational constants in MHz :   617.365978   254.460883   225.154272

                             ****ORCA TERMINATED NORMALLY****
TOTAL RUN TIME: 0 days 0 hours 0 minutes 34 seconds 964 msec
