                         Program Version 4.2.1 -  RELEASE  -
|  1> ! wB97X-D3 SP def2-SVP
|  2> %pal
|  3> nprocs 16
|  4> end
|  5>
|  6> * xyz 0 1
|  7> S 	 -12.3062 	 -6.59463 	 74.7547
|  8> C 	 -10.8033 	 -7.33435 	 75.0769
|  9> C 	 -11.0238 	 -8.51455 	 75.7371
| 10> C 	 -12.4273 	 -8.7186 	 76.0735
| 11> C 	 -13.2555 	 -7.80676 	 75.5346
| 12> H 	 -12.832 	 -9.39692 	 76.7864
| 13> C 	 -9.91228 	 -9.26278 	 76.4477
| 14> H 	 -8.9876 	 -9.36312 	 75.8655
| 15> H 	 -10.3683 	 -10.2871 	 76.4914
| 16> C 	 -9.54903 	 -8.7563 	 77.9003
| 17> H 	 -9.50204 	 -7.67192 	 77.8618
| 18> H 	 -10.4779 	 -8.90702 	 78.5341
| 19> C 	 -8.18883 	 -9.29155 	 78.4352
| 20> H 	 -7.31765 	 -8.71598 	 78.061
| 21> H 	 -8.20512 	 -9.29393 	 79.5442
| 22> H 	 -8.0422 	 -10.3144 	 78.0294
| 23> S 	 -15.5495 	 -6.36905 	 75.5741
| 24> C 	 -17.0416 	 -7.12906 	 75.2074
| 25> C 	 -16.9463 	 -8.42088 	 74.8301
| 26> C 	 -15.5701 	 -8.90496 	 75.0009
| 27> C 	 -14.7316 	 -7.88246 	 75.3855
| 28> H 	 -17.8529 	 -8.93057 	 74.4224
| 29> C 	 -15.0823 	 -10.3052 	 74.7394
| 30> H 	 -15.8164 	 -11.09 	 74.9688
| 31> H 	 -14.3105 	 -10.525 	 75.441
| 32> C 	 -14.5805 	 -10.5711 	 73.2801
| 33> H 	 -13.9586 	 -9.71172 	 72.9864
| 34> H 	 -15.542 	 -10.6159 	 72.6794
| 35> C 	 -13.8273 	 -11.9088 	 73.111
| 36> H 	 -14.4872 	 -12.7149 	 73.0118
| 37> H 	 -13.1541 	 -12.1723 	 73.9264
| 38> H 	 -13.1771 	 -11.943 	 72.2472
| 39> H 	 -9.84565 	 -6.8822 	 74.8374
| 40> H 	 -17.9738 	 -6.60477 	 75.2043
| 41> *
| 42>
| 43>                          ****END OF INPUT****

CARTESIAN COORDINATES (ANGSTROEM)
---------------------------------
  S    -12.306200   -6.594630   74.754700
  C    -10.803300   -7.334350   75.076900
  C    -11.023800   -8.514550   75.737100
  C    -12.427300   -8.718600   76.073500
  C    -13.255500   -7.806760   75.534600
  H    -12.832000   -9.396920   76.786400
  C     -9.912280   -9.262780   76.447700
  H     -8.987600   -9.363120   75.865500
  H    -10.368300  -10.287100   76.491400
  C     -9.549030   -8.756300   77.900300
  H     -9.502040   -7.671920   77.861800
  H    -10.477900   -8.907020   78.534100
  C     -8.188830   -9.291550   78.435200
  H     -7.317650   -8.715980   78.061000
  H     -8.205120   -9.293930   79.544200
  H     -8.042200  -10.314400   78.029400
  S    -15.549500   -6.369050   75.574100
  C    -17.041600   -7.129060   75.207400
  C    -16.946300   -8.420880   74.830100
  C    -15.570100   -8.904960   75.000900
  C    -14.731600   -7.882460   75.385500
  H    -17.852900   -8.930570   74.422400
  C    -15.082300  -10.305200   74.739400
  H    -15.816400  -11.090000   74.968800
  H    -14.310500  -10.525000   75.441000
  C    -14.580500  -10.571100   73.280100
  H    -13.958600   -9.711720   72.986400
  H    -15.542000  -10.615900   72.679400
  C    -13.827300  -11.908800   73.111000
  H    -14.487200  -12.714900   73.011800
  H    -13.154100  -12.172300   73.926400
  H    -13.177100  -11.943000   72.247200
  H     -9.845650   -6.882200   74.837400
  H    -17.973800   -6.604770   75.204300

 Total Charge           Charge          ....    0
 Multiplicity           Mult            ....    1
 Number of Electrons    NEL             ....  134
 Basis Dimension        Dim             ....  322

ORBITAL ENERGIES
----------------

  NO   OCC          E(Eh)            E(eV)
   0   2.0000     -88.963920     -2420.8313
   1   2.0000     -88.961065     -2420.7536
   2   2.0000     -10.326273      -280.9922
   3   2.0000     -10.325182      -280.9625
   4   2.0000     -10.311830      -280.5992
   5   2.0000     -10.310169      -280.5540
   6   2.0000     -10.308769      -280.5159
   7   2.0000     -10.300565      -280.2926
   8   2.0000     -10.298363      -280.2327
   9   2.0000     -10.295000      -280.1412
  10   2.0000     -10.293647      -280.1044
  11   2.0000     -10.291092      -280.0349
  12   2.0000     -10.289150      -279.9820
  13   2.0000     -10.288876      -279.9745
  14   2.0000     -10.287144      -279.9274
  15   2.0000     -10.271099      -279.4908
  16   2.0000      -8.080087      -219.8704
  17   2.0000      -8.077323      -219.7951
  18   2.0000      -6.038475      -164.3153
  19   2.0000      -6.035796      -164.2423
  20   2.0000      -6.034527      -164.2078
  21   2.0000      -6.031438      -164.1238
  22   2.0000      -6.030769      -164.1056
  23   2.0000      -6.028189      -164.0354
  24   2.0000      -1.015613       -27.6362
  25   2.0000      -0.993351       -27.0305
  26   2.0000      -0.904529       -24.6135
  27   2.0000      -0.902450       -24.5569
  28   2.0000      -0.871333       -23.7102
  29   2.0000      -0.851018       -23.1574
  30   2.0000      -0.843356       -22.9489
  31   2.0000      -0.822562       -22.3831
  32   2.0000      -0.781109       -21.2551
  33   2.0000      -0.768295       -20.9064
  34   2.0000      -0.703940       -19.1552
  35   2.0000      -0.697644       -18.9839
  36   2.0000      -0.691778       -18.8242
  37   2.0000      -0.662090       -18.0164
  38   2.0000      -0.647040       -17.6069
  39   2.0000      -0.620846       -16.8941
  40   2.0000      -0.596688       -16.2367
  41   2.0000      -0.568183       -15.4611
  42   2.0000      -0.560101       -15.2411
  43   2.0000      -0.548576       -14.9275
  44   2.0000      -0.522841       -14.2272
  45   2.0000      -0.520062       -14.1516
  46   2.0000      -0.514755       -14.0072
  47   2.0000      -0.510528       -13.8922
  48   2.0000      -0.505070       -13.7436
  49   2.0000      -0.501887       -13.6570
  50   2.0000      -0.500505       -13.6194
  51   2.0000      -0.482046       -13.1171
  52   2.0000      -0.471173       -12.8213
  53   2.0000      -0.465160       -12.6577
  54   2.0000      -0.458580       -12.4786
  55   2.0000      -0.451403       -12.2833
  56   2.0000      -0.445617       -12.1259
  57   2.0000      -0.436036       -11.8651
  58   2.0000      -0.428431       -11.6582
  59   2.0000      -0.424811       -11.5597
  60   2.0000      -0.423332       -11.5195
  61   2.0000      -0.416454       -11.3323
  62   2.0000      -0.402080       -10.9412
  63   2.0000      -0.355224        -9.6661
  64   2.0000      -0.331326        -9.0158
  65   2.0000      -0.325754        -8.8642
  66   2.0000      -0.296679        -8.0731
  67   0.0000       0.035282         0.9601
  68   0.0000       0.077193         2.1005
  69   0.0000       0.114874         3.1259
  70   0.0000       0.117335         3.1928
  71   0.0000       0.134843         3.6693

MULLIKEN ATOMIC CHARGES
-----------------------
   0 S :    0.102536
   1 C :   -0.108877
   2 C :   -0.081925
   3 C :   -0.011735
   4 C :   -0.097518
   5 H :    0.021314
   6 C :    0.009086
   7 H :    0.027069
   8 H :    0.031168
   9 C :   -0.076178
  10 H :    0.024539
  11 H :    0.034843
  12 C :   -0.060765
  13 H :    0.044027
  14 H :    0.049446
  15 H :    0.037135
  16 S :    0.107496
  17 C :   -0.073876
  18 C :   -0.047525
  19 C :   -0.040056
  20 C :   -0.165486
  21 H :    0.038981
  22 C :    0.073770
  23 H :    0.017999
  24 H :   -0.005992
  25 C :   -0.090839
  26 H :    0.047702
  27 H :    0.038283
  28 C :   -0.016241
  29 H :    0.015875
  30 H :    0.023402
  31 H :    0.030023
  32 H :    0.056800
  33 H :    0.045518
Sum of atomic charges:    0.0000000

LOEWDIN ATOMIC CHARGES
----------------------
   0 S :    0.423820
   1 C :   -0.201975
   2 C :   -0.071541
   3 C :   -0.071771
   4 C :   -0.200943
   5 H :    0.028608
   6 C :   -0.042003
   7 H :    0.026606
   8 H :    0.032479
   9 C :   -0.047612
  10 H :    0.020543
  11 H :    0.030020
  12 C :   -0.071320
  13 H :    0.030558
  14 H :    0.033246
  15 H :    0.027672
  16 S :    0.420138
  17 C :   -0.187601
  18 C :   -0.075397
  19 C :   -0.047673
  20 C :   -0.199949
  21 H :    0.043812
  22 C :   -0.037210
  23 H :    0.030079
  24 H :    0.020214
  25 C :   -0.035281
  26 H :    0.028027
  27 H :    0.030876
  28 C :   -0.065739
  29 H :    0.017140
  30 H :    0.025352
  31 H :    0.028580
  32 H :    0.033697
  33 H :    0.024548

  Mayer bond orders larger than 0.100000
B(  0-S ,  1-C ) :   1.1509 B(  0-S ,  4-C ) :   1.1557 B(  1-C ,  2-C ) :   1.5907
B(  1-C , 32-H ) :   0.9761 B(  2-C ,  3-C ) :   1.2242 B(  2-C ,  6-C ) :   1.0436
B(  3-C ,  4-C ) :   1.6045 B(  3-C ,  5-H ) :   0.9971 B(  4-C , 20-C ) :   1.0001
B(  6-C ,  7-H ) :   0.9496 B(  6-C ,  8-H ) :   0.9367 B(  6-C ,  9-C ) :   1.0459
B(  9-C , 10-H ) :   0.9615 B(  9-C , 11-H ) :   0.9576 B(  9-C , 12-C ) :   1.0605
B( 12-C , 13-H ) :   0.9751 B( 12-C , 14-H ) :   0.9753 B( 12-C , 15-H ) :   0.9787
B( 16-S , 17-C ) :   1.1535 B( 16-S , 20-C ) :   1.1393 B( 17-C , 18-C ) :   1.6519
B( 17-C , 33-H ) :   0.9663 B( 18-C , 19-C ) :   1.1973 B( 18-C , 21-H ) :   0.9871
B( 19-C , 20-C ) :   1.6320 B( 19-C , 22-C ) :   1.0542 B( 22-C , 23-H ) :   0.9312
B( 22-C , 24-H ) :   0.9304 B( 22-C , 25-C ) :   1.0497 B( 25-C , 26-H ) :   0.9628
B( 25-C , 27-H ) :   0.9586 B( 25-C , 28-C ) :   1.0728 B( 28-C , 29-H ) :   0.9749
B( 28-C , 30-H ) :   0.9752 B( 28-C , 31-H ) :   0.9747

Dispersion correction           -0.014312759
FINAL SINGLE POINT ENERGY     -1339.881610608758

DIPOLE MOMENT
-------------
                                X             Y             Z
Electronic contribution:    -15.27355      22.92756      -3.23679
Nuclear contribution   :     15.38539     -23.39783       3.31242
                        -----------------------------------------
Total Dipole Moment    :      0.11183      -0.47027       0.07563
                        -----------------------------------------
Magnitude (a.u.)       :      0.48927
Magnitude (Debye)      :      1.24363

Rotational constants in cm-1:     0.019367     0.008275     0.006718
Rotational constants in MHz :   580.609028   248.071506   201.387309

                             ****ORCA TERMINATED NORMALLY****
TOTAL RUN TIME: 0 days 0 hours 0 minutes 33 seconds 842 msec
