                         Program Version 4.2.1 -  RELEASE  -
|  1> ! wB97X-D3 SP def2-SVP
|  2> %pal
|  3> nprocs 16
|  4> end
|  5>
|  6> * xyz 0 1
|  7> S 	 3.01205 	 -1.40353 	 83.6459
|  8> C 	 1.90753 	 -2.76974 	 83.8795
|  9> C 	 0.563195 	 -2.40564 	 83.6766
| 10> C 	 0.493415 	 -1.01598 	 83.2357
| 11> C 	 1.69561 	 -0.333964 	 83.3073
| 12> H 	 -0.424042 	 -0.431241 	 83.0371
| 13> C 	 -0.709512 	 -3.1608 	 84.0033
| 14> H 	 -1.16835 	 -3.64719 	 83.1536
| 15> H 	 -1.41852 	 -2.34575 	 84.2707
| 16> C 	 -0.639748 	 -4.22082 	 85.0985
| 17> H 	 -1.59534 	 -4.80003 	 85.1092
| 18> H 	 0.163098 	 -4.98253 	 84.8801
| 19> C 	 -0.380361 	 -3.72005 	 86.5315
| 20> H 	 0.522434 	 -3.17072 	 86.4564
| 21> H 	 -1.25598 	 -3.05238 	 86.8074
| 22> H 	 -0.343092 	 -4.32327 	 87.4738
| 23> S 	 3.21077 	 1.40474 	 81.8801
| 24> C 	 2.88528 	 3.1001 	 81.9518
| 25> C 	 1.86511 	 3.43685 	 82.771
| 26> C 	 1.35476 	 2.29371 	 83.476
| 27> C 	 1.91935 	 1.12315 	 83.0347
| 28> H 	 1.43105 	 4.47599 	 82.878
| 29> C 	 0.139797 	 2.32048 	 84.3342
| 30> H 	 0.349466 	 3.00955 	 85.1161
| 31> H 	 -0.0401058 	 1.35281 	 84.8223
| 32> C 	 -1.20634 	 2.71511 	 83.6147
| 33> H 	 -1.22817 	 2.00891 	 82.7044
| 34> H 	 -1.17973 	 3.73766 	 83.1455
| 35> C 	 -2.52053 	 2.76437 	 84.4522
| 36> H 	 -3.44487 	 3.02584 	 83.9324
| 37> H 	 -2.37423 	 3.53089 	 85.2098
| 38> H 	 -2.65257 	 1.78232 	 84.9291
| 39> H 	 2.21324 	 -3.62133 	 84.4663
| 40> H 	 3.35917 	 3.88674 	 81.4653
| 41> *
| 42>
| 43>                          ****END OF INPUT****

CARTESIAN COORDINATES (ANGSTROEM)
---------------------------------
  S      3.012050   -1.403530   83.645900
  C      1.907530   -2.769740   83.879500
  C      0.563195   -2.405640   83.676600
  C      0.493415   -1.015980   83.235700
  C      1.695610   -0.333964   83.307300
  H     -0.424042   -0.431241   83.037100
  C     -0.709512   -3.160800   84.003300
  H     -1.168350   -3.647190   83.153600
  H     -1.418520   -2.345750   84.270700
  C     -0.639748   -4.220820   85.098500
  H     -1.595340   -4.800030   85.109200
  H      0.163098   -4.982530   84.880100
  C     -0.380361   -3.720050   86.531500
  H      0.522434   -3.170720   86.456400
  H     -1.255980   -3.052380   86.807400
  H     -0.343092   -4.323270   87.473800
  S      3.210770    1.404740   81.880100
  C      2.885280    3.100100   81.951800
  C      1.865110    3.436850   82.771000
  C      1.354760    2.293710   83.476000
  C      1.919350    1.123150   83.034700
  H      1.431050    4.475990   82.878000
  C      0.139797    2.320480   84.334200
  H      0.349466    3.009550   85.116100
  H     -0.040106    1.352810   84.822300
  C     -1.206340    2.715110   83.614700
  H     -1.228170    2.008910   82.704400
  H     -1.179730    3.737660   83.145500
  C     -2.520530    2.764370   84.452200
  H     -3.444870    3.025840   83.932400
  H     -2.374230    3.530890   85.209800
  H     -2.652570    1.782320   84.929100
  H      2.213240   -3.621330   84.466300
  H      3.359170    3.886740   81.465300

 Total Charge           Charge          ....    0
 Multiplicity           Mult            ....    1
 Number of Electrons    NEL             ....  134
 Basis Dimension        Dim             ....  322

ORBITAL ENERGIES
----------------

  NO   OCC          E(Eh)            E(eV)
   0   2.0000     -88.968382     -2420.9527
   1   2.0000     -88.966013     -2420.8883
   2   2.0000     -10.333483      -281.1884
   3   2.0000     -10.328265      -281.0464
   4   2.0000     -10.318541      -280.7818
   5   2.0000     -10.312736      -280.6238
   6   2.0000     -10.308622      -280.5119
   7   2.0000     -10.301758      -280.3251
   8   2.0000     -10.301464      -280.3171
   9   2.0000     -10.300794      -280.2989
  10   2.0000     -10.299033      -280.2509
  11   2.0000     -10.298022      -280.2234
  12   2.0000     -10.295840      -280.1641
  13   2.0000     -10.291630      -280.0495
  14   2.0000     -10.285600      -279.8854
  15   2.0000     -10.280831      -279.7556
  16   2.0000      -8.083085      -219.9519
  17   2.0000      -8.081240      -219.9017
  18   2.0000      -6.041676      -164.4024
  19   2.0000      -6.039758      -164.3502
  20   2.0000      -6.037593      -164.2913
  21   2.0000      -6.035766      -164.2415
  22   2.0000      -6.033754      -164.1868
  23   2.0000      -6.031861      -164.1353
  24   2.0000      -1.009279       -27.4639
  25   2.0000      -0.985351       -26.8128
  26   2.0000      -0.913947       -24.8698
  27   2.0000      -0.905337       -24.6355
  28   2.0000      -0.865939       -23.5634
  29   2.0000      -0.852300       -23.1923
  30   2.0000      -0.845933       -23.0190
  31   2.0000      -0.814678       -22.1685
  32   2.0000      -0.786163       -21.3926
  33   2.0000      -0.776243       -21.1226
  34   2.0000      -0.705975       -19.2106
  35   2.0000      -0.698910       -19.0183
  36   2.0000      -0.692618       -18.8471
  37   2.0000      -0.662280       -18.0216
  38   2.0000      -0.639915       -17.4130
  39   2.0000      -0.610062       -16.6006
  40   2.0000      -0.596868       -16.2416
  41   2.0000      -0.577852       -15.7242
  42   2.0000      -0.561047       -15.2669
  43   2.0000      -0.553637       -15.0652
  44   2.0000      -0.538768       -14.6606
  45   2.0000      -0.520031       -14.1508
  46   2.0000      -0.518283       -14.1032
  47   2.0000      -0.513351       -13.9690
  48   2.0000      -0.508688       -13.8421
  49   2.0000      -0.493852       -13.4384
  50   2.0000      -0.490522       -13.3478
  51   2.0000      -0.477607       -12.9963
  52   2.0000      -0.469219       -12.7681
  53   2.0000      -0.467960       -12.7338
  54   2.0000      -0.462148       -12.5757
  55   2.0000      -0.457589       -12.4516
  56   2.0000      -0.445990       -12.1360
  57   2.0000      -0.441569       -12.0157
  58   2.0000      -0.429539       -11.6884
  59   2.0000      -0.421433       -11.4678
  60   2.0000      -0.419648       -11.4192
  61   2.0000      -0.414803       -11.2874
  62   2.0000      -0.411075       -11.1859
  63   2.0000      -0.347455        -9.4547
  64   2.0000      -0.332273        -9.0416
  65   2.0000      -0.329730        -8.9724
  66   2.0000      -0.297427        -8.0934
  67   0.0000       0.034308         0.9336
  68   0.0000       0.067331         1.8322
  69   0.0000       0.104057         2.8315
  70   0.0000       0.113408         3.0860
  71   0.0000       0.126419         3.4400

MULLIKEN ATOMIC CHARGES
-----------------------
   0 S :    0.108016
   1 C :   -0.120622
   2 C :   -0.098791
   3 C :    0.014966
   4 C :   -0.138949
   5 H :    0.021602
   6 C :    0.080832
   7 H :    0.047587
   8 H :    0.029064
   9 C :   -0.109992
  10 H :    0.035478
  11 H :    0.039957
  12 C :   -0.074029
  13 H :    0.030298
  14 H :    0.026331
  15 H :    0.047928
  16 S :    0.109374
  17 C :   -0.038235
  18 C :   -0.068703
  19 C :   -0.033596
  20 C :   -0.164185
  21 H :    0.042715
  22 C :    0.081021
  23 H :    0.014642
  24 H :    0.028734
  25 C :   -0.139056
  26 H :    0.040167
  27 H :    0.030807
  28 C :   -0.035549
  29 H :    0.045020
  30 H :    0.031612
  31 H :    0.031527
  32 H :    0.058811
  33 H :    0.025217
Sum of atomic charges:   -0.0000000

LOEWDIN ATOMIC CHARGES
----------------------
   0 S :    0.404749
   1 C :   -0.200200
   2 C :   -0.052834
   3 C :   -0.070644
   4 C :   -0.197968
   5 H :    0.033991
   6 C :   -0.032547
   7 H :    0.039580
   8 H :    0.037179
   9 C :   -0.048616
  10 H :    0.028938
  11 H :    0.027350
  12 C :   -0.081633
  13 H :    0.017861
  14 H :    0.028893
  15 H :    0.034012
  16 S :    0.409095
  17 C :   -0.180664
  18 C :   -0.072960
  19 C :   -0.060310
  20 C :   -0.188443
  21 H :    0.043930
  22 C :   -0.032741
  23 H :    0.024990
  24 H :    0.032067
  25 C :   -0.050580
  26 H :    0.025719
  27 H :    0.023983
  28 C :   -0.067296
  29 H :    0.030805
  30 H :    0.026395
  31 H :    0.024022
  32 H :    0.024648
  33 H :    0.019227

  Mayer bond orders larger than 0.100000
B(  0-S ,  1-C ) :   1.1260 B(  0-S ,  4-C ) :   1.1623 B(  1-C ,  2-C ) :   1.6231
B(  1-C , 32-H ) :   0.9606 B(  2-C ,  3-C ) :   1.2215 B(  2-C ,  6-C ) :   1.0055
B(  3-C ,  4-C ) :   1.5996 B(  3-C ,  5-H ) :   0.9835 B(  4-C , 20-C ) :   0.9912
B(  6-C ,  7-H ) :   0.9296 B(  6-C ,  8-H ) :   0.9446 B(  6-C ,  9-C ) :   1.0774
B(  9-C , 10-H ) :   0.9559 B(  9-C , 11-H ) :   0.9532 B(  9-C , 12-C ) :   1.0577
B( 12-C , 13-H ) :   0.9779 B( 12-C , 14-H ) :   0.9735 B( 12-C , 15-H ) :   0.9780
B( 16-S , 17-C ) :   1.1412 B( 16-S , 20-C ) :   1.1344 B( 17-C , 18-C ) :   1.6514
B( 17-C , 33-H ) :   0.9676 B( 18-C , 19-C ) :   1.2112 B( 18-C , 21-H ) :   0.9781
B( 19-C , 20-C ) :   1.6394 B( 19-C , 22-C ) :   1.0703 B( 22-C , 23-H ) :   0.9178
B( 22-C , 24-H ) :   0.9353 B( 22-C , 25-C ) :   1.0431 B( 25-C , 26-H ) :   0.9568
B( 25-C , 27-H ) :   0.9550 B( 25-C , 28-C ) :   1.0687 B( 28-C , 29-H ) :   0.9757
B( 28-C , 30-H ) :   0.9743 B( 28-C , 31-H ) :   0.9772

Dispersion correction           -0.014431806
FINAL SINGLE POINT ENERGY     -1339.873018127159

DIPOLE MOMENT
-------------
                                X             Y             Z
Electronic contribution:     26.71892       3.39880     -14.05800
Nuclear contribution   :    -27.44403      -3.20697      14.36684
                        -----------------------------------------
Total Dipole Moment    :     -0.72511       0.19183       0.30885
                        -----------------------------------------
Magnitude (a.u.)       :      0.81116
Magnitude (Debye)      :      2.06180

Rotational constants in cm-1:     0.018052     0.009063     0.006465
Rotational constants in MHz :   541.174742   271.699875   193.813434

                             ****ORCA TERMINATED NORMALLY****
TOTAL RUN TIME: 0 days 0 hours 0 minutes 34 seconds 347 msec
