                         Program Version 4.2.1 -  RELEASE  -
|  1> ! wB97X-D3 SP def2-SVP
|  2> %pal
|  3> nprocs 16
|  4> end
|  5>
|  6> * xyz 0 1
|  7> S 	 -33.6376 	 46.6953 	 97.476
|  8> C 	 -32.337 	 45.7815 	 96.8574
|  9> C 	 -31.9387 	 46.2983 	 95.6465
| 10> C 	 -32.6737 	 47.5939 	 95.3055
| 11> C 	 -33.4976 	 48.02 	 96.3023
| 12> H 	 -32.5067 	 48.2587 	 94.4378
| 13> C 	 -30.9113 	 45.6697 	 94.7191
| 14> H 	 -30.4947 	 44.8104 	 95.3172
| 15> H 	 -30.1776 	 46.3805 	 94.4914
| 16> C 	 -31.4951 	 45.1734 	 93.4053
| 17> H 	 -32.2531 	 44.4155 	 93.6213
| 18> H 	 -32.0368 	 45.9865 	 92.9024
| 19> C 	 -30.4914 	 44.6904 	 92.3228
| 20> H 	 -30.9812 	 44.339 	 91.4072
| 21> H 	 -29.7281 	 45.4567 	 92.1082
| 22> H 	 -29.876 	 43.9941 	 92.8093
| 23> S 	 -35.9935 	 49.047 	 97.2241
| 24> C 	 -36.176 	 50.7353 	 97.1485
| 25> C 	 -35.0746 	 51.4426 	 96.736
| 26> C 	 -34.029 	 50.5395 	 96.3786
| 27> C 	 -34.3808 	 49.2172 	 96.4923
| 28> H 	 -35.0799 	 52.549 	 96.7009
| 29> C 	 -32.6399 	 51.0527 	 95.9426
| 30> H 	 -32.8328 	 52.0486 	 95.5352
| 31> H 	 -32.2821 	 50.3197 	 95.1661
| 32> C 	 -31.4927 	 51.173 	 97.0135
| 33> H 	 -31.2246 	 50.1911 	 97.2754
| 34> H 	 -31.8924 	 51.8312 	 97.8028
| 35> C 	 -30.1796 	 51.7874 	 96.3745
| 36> H 	 -29.4512 	 51.8562 	 97.1882
| 37> H 	 -30.2866 	 52.8433 	 96.0151
| 38> H 	 -29.755 	 51.107 	 95.5941
| 39> H 	 -32.1016 	 44.8348 	 97.252
| 40> H 	 -37.095 	 51.3133 	 97.4574
| 41> *
| 42>
| 43>                          ****END OF INPUT****

CARTESIAN COORDINATES (ANGSTROEM)
---------------------------------
  S    -33.637600   46.695300   97.476000
  C    -32.337000   45.781500   96.857400
  C    -31.938700   46.298300   95.646500
  C    -32.673700   47.593900   95.305500
  C    -33.497600   48.020000   96.302300
  H    -32.506700   48.258700   94.437800
  C    -30.911300   45.669700   94.719100
  H    -30.494700   44.810400   95.317200
  H    -30.177600   46.380500   94.491400
  C    -31.495100   45.173400   93.405300
  H    -32.253100   44.415500   93.621300
  H    -32.036800   45.986500   92.902400
  C    -30.491400   44.690400   92.322800
  H    -30.981200   44.339000   91.407200
  H    -29.728100   45.456700   92.108200
  H    -29.876000   43.994100   92.809300
  S    -35.993500   49.047000   97.224100
  C    -36.176000   50.735300   97.148500
  C    -35.074600   51.442600   96.736000
  C    -34.029000   50.539500   96.378600
  C    -34.380800   49.217200   96.492300
  H    -35.079900   52.549000   96.700900
  C    -32.639900   51.052700   95.942600
  H    -32.832800   52.048600   95.535200
  H    -32.282100   50.319700   95.166100
  C    -31.492700   51.173000   97.013500
  H    -31.224600   50.191100   97.275400
  H    -31.892400   51.831200   97.802800
  C    -30.179600   51.787400   96.374500
  H    -29.451200   51.856200   97.188200
  H    -30.286600   52.843300   96.015100
  H    -29.755000   51.107000   95.594100
  H    -32.101600   44.834800   97.252000
  H    -37.095000   51.313300   97.457400

 Total Charge           Charge          ....    0
 Multiplicity           Mult            ....    1
 Number of Electrons    NEL             ....  134
 Basis Dimension        Dim             ....  322

ORBITAL ENERGIES
----------------

  NO   OCC          E(Eh)            E(eV)
   0   2.0000     -88.971714     -2421.0434
   1   2.0000     -88.955767     -2420.6095
   2   2.0000     -10.335514      -281.2436
   3   2.0000     -10.330022      -281.0942
   4   2.0000     -10.319512      -280.8082
   5   2.0000     -10.310843      -280.5723
   6   2.0000     -10.310305      -280.5577
   7   2.0000     -10.304520      -280.4003
   8   2.0000     -10.303709      -280.3782
   9   2.0000     -10.296349      -280.1779
  10   2.0000     -10.295935      -280.1666
  11   2.0000     -10.292743      -280.0798
  12   2.0000     -10.289520      -279.9921
  13   2.0000     -10.287380      -279.9338
  14   2.0000     -10.285530      -279.8835
  15   2.0000     -10.277428      -279.6630
  16   2.0000      -8.086702      -220.0503
  17   2.0000      -8.071702      -219.6422
  18   2.0000      -6.045165      -164.4973
  19   2.0000      -6.041321      -164.3927
  20   2.0000      -6.037344      -164.2845
  21   2.0000      -6.030426      -164.0962
  22   2.0000      -6.026020      -163.9763
  23   2.0000      -6.022181      -163.8719
  24   2.0000      -1.007700       -27.4209
  25   2.0000      -0.986716       -26.8499
  26   2.0000      -0.910735       -24.7824
  27   2.0000      -0.900626       -24.5073
  28   2.0000      -0.869754       -23.6672
  29   2.0000      -0.851920       -23.1819
  30   2.0000      -0.839075       -22.8324
  31   2.0000      -0.819222       -22.2922
  32   2.0000      -0.779679       -21.2161
  33   2.0000      -0.769046       -20.9268
  34   2.0000      -0.705107       -19.1869
  35   2.0000      -0.696169       -18.9437
  36   2.0000      -0.686247       -18.6737
  37   2.0000      -0.660790       -17.9810
  38   2.0000      -0.646593       -17.5947
  39   2.0000      -0.614833       -16.7305
  40   2.0000      -0.587302       -15.9813
  41   2.0000      -0.572512       -15.5789
  42   2.0000      -0.571536       -15.5523
  43   2.0000      -0.559232       -15.2175
  44   2.0000      -0.530672       -14.4403
  45   2.0000      -0.515611       -14.0305
  46   2.0000      -0.514663       -14.0047
  47   2.0000      -0.507565       -13.8115
  48   2.0000      -0.505961       -13.7679
  49   2.0000      -0.499252       -13.5853
  50   2.0000      -0.491568       -13.3763
  51   2.0000      -0.481488       -13.1019
  52   2.0000      -0.468166       -12.7395
  53   2.0000      -0.464228       -12.6323
  54   2.0000      -0.460307       -12.5256
  55   2.0000      -0.452826       -12.3220
  56   2.0000      -0.450499       -12.2587
  57   2.0000      -0.436391       -11.8748
  58   2.0000      -0.431714       -11.7475
  59   2.0000      -0.425398       -11.5757
  60   2.0000      -0.419509       -11.4154
  61   2.0000      -0.415120       -11.2960
  62   2.0000      -0.404311       -11.0019
  63   2.0000      -0.359247        -9.7756
  64   2.0000      -0.335547        -9.1307
  65   2.0000      -0.319222        -8.6865
  66   2.0000      -0.294190        -8.0053
  67   0.0000       0.031773         0.8646
  68   0.0000       0.072636         1.9765
  69   0.0000       0.109004         2.9662
  70   0.0000       0.115837         3.1521
  71   0.0000       0.134475         3.6593

MULLIKEN ATOMIC CHARGES
-----------------------
   0 S :    0.068792
   1 C :   -0.080826
   2 C :   -0.129047
   3 C :    0.011580
   4 C :   -0.141080
   5 H :    0.035567
   6 C :    0.097717
   7 H :    0.026662
   8 H :    0.014247
   9 C :   -0.111948
  10 H :    0.030167
  11 H :    0.027600
  12 C :   -0.015787
  13 H :    0.053132
  14 H :    0.020378
  15 H :    0.008073
  16 S :    0.127024
  17 C :   -0.103216
  18 C :   -0.046991
  19 C :   -0.043371
  20 C :   -0.139080
  21 H :    0.031466
  22 C :    0.047165
  23 H :    0.018481
  24 H :    0.015678
  25 C :   -0.040042
  26 H :    0.032976
  27 H :    0.038702
  28 C :   -0.084628
  29 H :    0.036461
  30 H :    0.039652
  31 H :    0.043676
  32 H :    0.038951
  33 H :    0.071866
Sum of atomic charges:   -0.0000000

LOEWDIN ATOMIC CHARGES
----------------------
   0 S :    0.388277
   1 C :   -0.200683
   2 C :   -0.056379
   3 C :   -0.076482
   4 C :   -0.171599
   5 H :    0.033717
   6 C :   -0.030517
   7 H :    0.035795
   8 H :    0.021788
   9 C :   -0.043771
  10 H :    0.024364
  11 H :    0.022545
  12 C :   -0.064383
  13 H :    0.032786
  14 H :    0.026694
  15 H :    0.015478
  16 S :    0.417880
  17 C :   -0.200851
  18 C :   -0.082392
  19 C :   -0.052407
  20 C :   -0.199713
  21 H :    0.039553
  22 C :   -0.034033
  23 H :    0.025954
  24 H :    0.030655
  25 C :   -0.026601
  26 H :    0.021273
  27 H :    0.027578
  28 C :   -0.072502
  29 H :    0.026392
  30 H :    0.027089
  31 H :    0.029790
  32 H :    0.022576
  33 H :    0.042128

  Mayer bond orders larger than 0.100000
B(  0-S ,  1-C ) :   1.1297 B(  0-S ,  4-C ) :   1.1285 B(  1-C ,  2-C ) :   1.6480
B(  1-C , 32-H ) :   0.9748 B(  2-C ,  3-C ) :   1.1666 B(  2-C ,  6-C ) :   1.0409
B(  3-C ,  4-C ) :   1.6485 B(  3-C ,  5-H ) :   0.9780 B(  4-C , 20-C ) :   1.0233
B(  6-C ,  7-H ) :   0.9387 B(  6-C ,  8-H ) :   0.9327 B(  6-C ,  9-C ) :   1.0657
B(  9-C , 10-H ) :   0.9553 B(  9-C , 11-H ) :   0.9581 B(  9-C , 12-C ) :   1.0769
B( 12-C , 13-H ) :   0.9747 B( 12-C , 14-H ) :   0.9711 B( 12-C , 15-H ) :   0.9724
B( 16-S , 17-C ) :   1.1724 B( 16-S , 20-C ) :   1.1207 B( 17-C , 18-C ) :   1.6208
B( 17-C , 33-H ) :   0.9529 B( 18-C , 19-C ) :   1.2425 B( 18-C , 21-H ) :   0.9865
B( 19-C , 20-C ) :   1.6217 B( 19-C , 22-C ) :   1.0314 B( 22-C , 23-H ) :   0.9377
B( 22-C , 24-H ) :   0.9324 B( 22-C , 25-C ) :   1.0688 B( 25-C , 26-H ) :   0.9547
B( 25-C , 27-H ) :   0.9569 B( 25-C , 28-C ) :   1.0793 B( 28-C , 29-H ) :   0.9759
B( 28-C , 30-H ) :   0.9758 B( 28-C , 31-H ) :   0.9750

Dispersion correction           -0.013682014
FINAL SINGLE POINT ENERGY     -1339.873921451912

DIPOLE MOMENT
-------------
                                X             Y             Z
Electronic contribution:    -24.58460      -1.91305      15.89303
Nuclear contribution   :     24.99105       2.20082     -16.17267
                        -----------------------------------------
Total Dipole Moment    :      0.40644       0.28777      -0.27964
                        -----------------------------------------
Magnitude (a.u.)       :      0.57114
Magnitude (Debye)      :      1.45173

Rotational constants in cm-1:     0.017820     0.008170     0.006516
Rotational constants in MHz :   534.221070   244.919618   195.332800

                             ****ORCA TERMINATED NORMALLY****
TOTAL RUN TIME: 0 days 0 hours 0 minutes 29 seconds 51 msec
