                         Program Version 4.2.1 -  RELEASE  -
|  1> ! wB97X-D3 SP def2-SVP
|  2> %pal
|  3> nprocs 16
|  4> end
|  5>
|  6> * xyz 0 1
|  7> S 	 -46.0763 	 28.3798 	 91.3348
|  8> C 	 -45.4646 	 28.7392 	 92.9565
|  9> C 	 -45.4079 	 30.1152 	 93.0727
| 10> C 	 -46.0477 	 30.8252 	 91.9828
| 11> C 	 -46.2968 	 30.0094 	 90.8826
| 12> H 	 -46.319 	 31.8605 	 91.9074
| 13> C 	 -45.0372 	 30.7643 	 94.3763
| 14> H 	 -45.5826 	 30.1642 	 95.214
| 15> H 	 -45.4277 	 31.8211 	 94.2369
| 16> C 	 -43.5658 	 30.7252 	 94.8311
| 17> H 	 -43.3133 	 29.6882 	 95.2358
| 18> H 	 -42.8455 	 31.023 	 94.0498
| 19> C 	 -43.2642 	 31.723 	 95.951
| 20> H 	 -43.6241 	 32.7348 	 95.747
| 21> H 	 -43.7655 	 31.4209 	 96.8891
| 22> H 	 -42.2475 	 31.6277 	 96.3523
| 23> S 	 -47.9691 	 29.4576 	 88.6702
| 24> C 	 -47.814 	 30.4885 	 87.2656
| 25> C 	 -46.9551 	 31.5333 	 87.5363
| 26> C 	 -46.302 	 31.5032 	 88.7898
| 27> C 	 -46.7101 	 30.4409 	 89.5437
| 28> H 	 -46.8439 	 32.2489 	 86.748
| 29> C 	 -45.3147 	 32.6216 	 89.1924
| 30> H 	 -44.9085 	 32.9355 	 88.2508
| 31> H 	 -44.6191 	 32.0473 	 89.8345
| 32> C 	 -45.9809 	 33.9002 	 89.741
| 33> H 	 -45.3864 	 34.6035 	 90.322
| 34> H 	 -46.6059 	 33.5875 	 90.5842
| 35> C 	 -46.9109 	 34.7001 	 88.7525
| 36> H 	 -46.2909 	 35.0483 	 87.8613
| 37> H 	 -47.387 	 35.5798 	 89.1347
| 38> H 	 -47.6532 	 34.001 	 88.2927
| 39> H 	 -45.203 	 28.0898 	 93.7076
| 40> H 	 -48.477 	 30.3048 	 86.4677
| 41> *
| 42>
| 43>                          ****END OF INPUT****

CARTESIAN COORDINATES (ANGSTROEM)
---------------------------------
  S    -46.076300   28.379800   91.334800
  C    -45.464600   28.739200   92.956500
  C    -45.407900   30.115200   93.072700
  C    -46.047700   30.825200   91.982800
  C    -46.296800   30.009400   90.882600
  H    -46.319000   31.860500   91.907400
  C    -45.037200   30.764300   94.376300
  H    -45.582600   30.164200   95.214000
  H    -45.427700   31.821100   94.236900
  C    -43.565800   30.725200   94.831100
  H    -43.313300   29.688200   95.235800
  H    -42.845500   31.023000   94.049800
  C    -43.264200   31.723000   95.951000
  H    -43.624100   32.734800   95.747000
  H    -43.765500   31.420900   96.889100
  H    -42.247500   31.627700   96.352300
  S    -47.969100   29.457600   88.670200
  C    -47.814000   30.488500   87.265600
  C    -46.955100   31.533300   87.536300
  C    -46.302000   31.503200   88.789800
  C    -46.710100   30.440900   89.543700
  H    -46.843900   32.248900   86.748000
  C    -45.314700   32.621600   89.192400
  H    -44.908500   32.935500   88.250800
  H    -44.619100   32.047300   89.834500
  C    -45.980900   33.900200   89.741000
  H    -45.386400   34.603500   90.322000
  H    -46.605900   33.587500   90.584200
  C    -46.910900   34.700100   88.752500
  H    -46.290900   35.048300   87.861300
  H    -47.387000   35.579800   89.134700
  H    -47.653200   34.001000   88.292700
  H    -45.203000   28.089800   93.707600
  H    -48.477000   30.304800   86.467700

 Total Charge           Charge          ....    0
 Multiplicity           Mult            ....    1
 Number of Electrons    NEL             ....  134
 Basis Dimension        Dim             ....  322

ORBITAL ENERGIES
----------------

  NO   OCC          E(Eh)            E(eV)
   0   2.0000     -88.965057     -2420.8623
   1   2.0000     -88.963953     -2420.8322
   2   2.0000     -10.333437      -281.1871
   3   2.0000     -10.329730      -281.0862
   4   2.0000     -10.318703      -280.7862
   5   2.0000     -10.310092      -280.5519
   6   2.0000     -10.306488      -280.4538
   7   2.0000     -10.303250      -280.3657
   8   2.0000     -10.302477      -280.3446
   9   2.0000     -10.300821      -280.2996
  10   2.0000     -10.295632      -280.1584
  11   2.0000     -10.295173      -280.1459
  12   2.0000     -10.295115      -280.1443
  13   2.0000     -10.294366      -280.1239
  14   2.0000     -10.289503      -279.9916
  15   2.0000     -10.279752      -279.7263
  16   2.0000      -8.080095      -219.8706
  17   2.0000      -8.078172      -219.8182
  18   2.0000      -6.038643      -164.3198
  19   2.0000      -6.036671      -164.2662
  20   2.0000      -6.034364      -164.2034
  21   2.0000      -6.032796      -164.1607
  22   2.0000      -6.030966      -164.1109
  23   2.0000      -6.028931      -164.0556
  24   2.0000      -1.007713       -27.4213
  25   2.0000      -0.985572       -26.8188
  26   2.0000      -0.910535       -24.7769
  27   2.0000      -0.907665       -24.6988
  28   2.0000      -0.871164       -23.7056
  29   2.0000      -0.850913       -23.1545
  30   2.0000      -0.842488       -22.9253
  31   2.0000      -0.815976       -22.2038
  32   2.0000      -0.785910       -21.3857
  33   2.0000      -0.771818       -21.0022
  34   2.0000      -0.713423       -19.4132
  35   2.0000      -0.701672       -19.0935
  36   2.0000      -0.695307       -18.9203
  37   2.0000      -0.668207       -18.1828
  38   2.0000      -0.645330       -17.5603
  39   2.0000      -0.612646       -16.6710
  40   2.0000      -0.591325       -16.0908
  41   2.0000      -0.570571       -15.5260
  42   2.0000      -0.568593       -15.4722
  43   2.0000      -0.561522       -15.2798
  44   2.0000      -0.547383       -14.8950
  45   2.0000      -0.521827       -14.1996
  46   2.0000      -0.520002       -14.1500
  47   2.0000      -0.513361       -13.9693
  48   2.0000      -0.509181       -13.8555
  49   2.0000      -0.494105       -13.4453
  50   2.0000      -0.487182       -13.2569
  51   2.0000      -0.483432       -13.1549
  52   2.0000      -0.469158       -12.7664
  53   2.0000      -0.466479       -12.6935
  54   2.0000      -0.462106       -12.5745
  55   2.0000      -0.455004       -12.3813
  56   2.0000      -0.444385       -12.0923
  57   2.0000      -0.435757       -11.8576
  58   2.0000      -0.431684       -11.7467
  59   2.0000      -0.428504       -11.6602
  60   2.0000      -0.414178       -11.2703
  61   2.0000      -0.408958       -11.1283
  62   2.0000      -0.405028       -11.0214
  63   2.0000      -0.350371        -9.5341
  64   2.0000      -0.334780        -9.1098
  65   2.0000      -0.326753        -8.8914
  66   2.0000      -0.293047        -7.9742
  67   0.0000       0.022840         0.6215
  68   0.0000       0.073565         2.0018
  69   0.0000       0.104895         2.8543
  70   0.0000       0.116180         3.1614
  71   0.0000       0.127727         3.4756

MULLIKEN ATOMIC CHARGES
-----------------------
   0 S :    0.110537
   1 C :   -0.081914
   2 C :   -0.059888
   3 C :    0.012079
   4 C :   -0.133092
   5 H :   -0.000017
   6 C :   -0.011247
   7 H :    0.054316
   8 H :    0.033675
   9 C :   -0.077446
  10 H :    0.036300
  11 H :    0.039956
  12 C :   -0.055273
  13 H :    0.038231
  14 H :    0.011519
  15 H :    0.035462
  16 S :    0.085154
  17 C :   -0.083388
  18 C :   -0.034773
  19 C :   -0.050081
  20 C :   -0.160612
  21 H :    0.015437
  22 C :    0.112444
  23 H :    0.014316
  24 H :    0.056056
  25 C :   -0.058169
  26 H :    0.028710
  27 H :    0.016699
  28 C :   -0.088463
  29 H :    0.030725
  30 H :    0.042309
  31 H :    0.050535
  32 H :    0.018896
  33 H :    0.051008
Sum of atomic charges:    0.0000000

LOEWDIN ATOMIC CHARGES
----------------------
   0 S :    0.421205
   1 C :   -0.180613
   2 C :   -0.064712
   3 C :   -0.072024
   4 C :   -0.204835
   5 H :    0.025557
   6 C :   -0.044820
   7 H :    0.046070
   8 H :    0.035279
   9 C :   -0.048137
  10 H :    0.030401
  11 H :    0.026352
  12 C :   -0.075844
  13 H :    0.024721
  14 H :    0.022964
  15 H :    0.030252
  16 S :    0.369921
  17 C :   -0.165883
  18 C :   -0.073733
  19 C :   -0.052460
  20 C :   -0.173459
  21 H :    0.028003
  22 C :   -0.021559
  23 H :    0.027062
  24 H :    0.042601
  25 C :   -0.047526
  26 H :    0.026333
  27 H :    0.019841
  28 C :   -0.070631
  29 H :    0.027733
  30 H :    0.025150
  31 H :    0.031413
  32 H :    0.014558
  33 H :    0.020819

  Mayer bond orders larger than 0.100000
B(  0-S ,  1-C ) :   1.1305 B(  0-S ,  4-C ) :   1.1739 B(  1-C ,  2-C ) :   1.5838
B(  1-C , 32-H ) :   0.9878 B(  2-C ,  3-C ) :   1.2402 B(  2-C ,  6-C ) :   1.0274
B(  3-C ,  4-C ) :   1.5414 B(  3-C ,  5-H ) :   0.9951 B(  4-C , 20-C ) :   1.0464
B(  6-C ,  7-H ) :   0.9433 B(  6-C ,  8-H ) :   0.9475 B(  6-C ,  9-C ) :   1.0553
B(  9-C , 10-H ) :   0.9516 B(  9-C , 11-H ) :   0.9595 B(  9-C , 12-C ) :   1.0862
B( 12-C , 13-H ) :   0.9751 B( 12-C , 14-H ) :   0.9692 B( 12-C , 15-H ) :   0.9717
B( 16-S , 17-C ) :   1.1537 B( 16-S , 20-C ) :   1.1274 B( 17-C , 18-C ) :   1.6028
B( 17-C , 20-C ) :   0.1008 B( 17-C , 33-H ) :   0.9763 B( 18-C , 19-C ) :   1.2243
B( 18-C , 21-H ) :   0.9906 B( 19-C , 20-C ) :   1.6229 B( 19-C , 22-C ) :   1.0231
B( 22-C , 23-H ) :   0.9338 B( 22-C , 24-H ) :   0.9305 B( 22-C , 25-C ) :   1.0521
B( 25-C , 26-H ) :   0.9578 B( 25-C , 27-H ) :   0.9464 B( 25-C , 28-C ) :   1.0721
B( 28-C , 29-H ) :   0.9751 B( 28-C , 30-H ) :   0.9746 B( 28-C , 31-H ) :   0.9712

Dispersion correction           -0.014229799
FINAL SINGLE POINT ENERGY     -1339.861686404173

DIPOLE MOMENT
-------------
                                X             Y             Z
Electronic contribution:    -11.97201     -23.26553     -14.62449
Nuclear contribution   :     12.11255      23.88185      14.82313
                        -----------------------------------------
Total Dipole Moment    :      0.14054       0.61632       0.19864
                        -----------------------------------------
Magnitude (a.u.)       :      0.66262
Magnitude (Debye)      :      1.68424

Rotational constants in cm-1:     0.019955     0.008238     0.006087
Rotational constants in MHz :   598.237692   246.980783   182.492709

                             ****ORCA TERMINATED NORMALLY****
TOTAL RUN TIME: 0 days 0 hours 0 minutes 28 seconds 467 msec
