                         Program Version 4.2.1 -  RELEASE  -
|  1> ! wB97X-D3 SP def2-SVP
|  2> %pal
|  3> nprocs 16
|  4> end
|  5>
|  6> * xyz 0 1
|  7> S 	 -14.8046 	 -5.04651 	 78.6637
|  8> C 	 -13.5691 	 -4.22942 	 79.5667
|  9> C 	 -13.3057 	 -4.91133 	 80.7384
| 10> C 	 -13.9561 	 -6.19336 	 80.796
| 11> C 	 -14.7584 	 -6.48671 	 79.6857
| 12> H 	 -13.7363 	 -7.02114 	 81.5105
| 13> C 	 -12.2287 	 -4.44964 	 81.7018
| 14> H 	 -12.7905 	 -3.95913 	 82.5216
| 15> H 	 -11.6935 	 -3.73 	 81.092
| 16> C 	 -11.1504 	 -5.50183 	 82.1129
| 17> H 	 -11.5348 	 -6.30511 	 82.7041
| 18> H 	 -10.8433 	 -6.00434 	 81.2333
| 19> C 	 -9.98963 	 -4.82716 	 82.7711
| 20> H 	 -10.2457 	 -4.16785 	 83.5766
| 21> H 	 -9.23525 	 -5.62952 	 83.1475
| 22> H 	 -9.4845 	 -4.1965 	 82.0626
| 23> S 	 -17.3938 	 -7.44564 	 79.2959
| 24> C 	 -17.5342 	 -9.19345 	 79.0413
| 25> C 	 -16.334 	 -9.81423 	 79.0323
| 26> C 	 -15.2193 	 -9.00638 	 79.3561
| 27> C 	 -15.6225 	 -7.68465 	 79.4208
| 28> H 	 -16.2397 	 -10.8907 	 78.7657
| 29> C 	 -13.8181 	 -9.54236 	 79.3178
| 30> H 	 -13.0585 	 -8.75801 	 79.2929
| 31> H 	 -13.6147 	 -10.1066 	 78.4597
| 32> C 	 -13.6163 	 -10.4463 	 80.5049
| 33> H 	 -12.8587 	 -11.1711 	 80.1532
| 34> H 	 -14.4446 	 -11.1119 	 80.5124
| 35> C 	 -13.1781 	 -9.73468 	 81.7895
| 36> H 	 -12.858 	 -10.4026 	 82.5394
| 37> H 	 -13.9561 	 -9.17092 	 82.3035
| 38> H 	 -12.427 	 -9.03748 	 81.4322
| 39> H 	 -12.9718 	 -3.33326 	 79.2828
| 40> H 	 -18.4301 	 -9.74207 	 78.6125
| 41> *
| 42>
| 43>                          ****END OF INPUT****

CARTESIAN COORDINATES (ANGSTROEM)
---------------------------------
  S    -14.804600   -5.046510   78.663700
  C    -13.569100   -4.229420   79.566700
  C    -13.305700   -4.911330   80.738400
  C    -13.956100   -6.193360   80.796000
  C    -14.758400   -6.486710   79.685700
  H    -13.736300   -7.021140   81.510500
  C    -12.228700   -4.449640   81.701800
  H    -12.790500   -3.959130   82.521600
  H    -11.693500   -3.730000   81.092000
  C    -11.150400   -5.501830   82.112900
  H    -11.534800   -6.305110   82.704100
  H    -10.843300   -6.004340   81.233300
  C     -9.989630   -4.827160   82.771100
  H    -10.245700   -4.167850   83.576600
  H     -9.235250   -5.629520   83.147500
  H     -9.484500   -4.196500   82.062600
  S    -17.393800   -7.445640   79.295900
  C    -17.534200   -9.193450   79.041300
  C    -16.334000   -9.814230   79.032300
  C    -15.219300   -9.006380   79.356100
  C    -15.622500   -7.684650   79.420800
  H    -16.239700  -10.890700   78.765700
  C    -13.818100   -9.542360   79.317800
  H    -13.058500   -8.758010   79.292900
  H    -13.614700  -10.106600   78.459700
  C    -13.616300  -10.446300   80.504900
  H    -12.858700  -11.171100   80.153200
  H    -14.444600  -11.111900   80.512400
  C    -13.178100   -9.734680   81.789500
  H    -12.858000  -10.402600   82.539400
  H    -13.956100   -9.170920   82.303500
  H    -12.427000   -9.037480   81.432200
  H    -12.971800   -3.333260   79.282800
  H    -18.430100   -9.742070   78.612500

 Total Charge           Charge          ....    0
 Multiplicity           Mult            ....    1
 Number of Electrons    NEL             ....  134
 Basis Dimension        Dim             ....  322

ORBITAL ENERGIES
----------------

  NO   OCC          E(Eh)            E(eV)
   0   2.0000     -88.968131     -2420.9459
   1   2.0000     -88.963344     -2420.8157
   2   2.0000     -10.332714      -281.1675
   3   2.0000     -10.332641      -281.1654
   4   2.0000     -10.318654      -280.7849
   5   2.0000     -10.314485      -280.6714
   6   2.0000     -10.300459      -280.2897
   7   2.0000     -10.299028      -280.2508
   8   2.0000     -10.297801      -280.2174
   9   2.0000     -10.294201      -280.1194
  10   2.0000     -10.292468      -280.0723
  11   2.0000     -10.285303      -279.8773
  12   2.0000     -10.283145      -279.8186
  13   2.0000     -10.282754      -279.8080
  14   2.0000     -10.280953      -279.7590
  15   2.0000     -10.278689      -279.6974
  16   2.0000      -8.081852      -219.9184
  17   2.0000      -8.077923      -219.8115
  18   2.0000      -6.040502      -164.3704
  19   2.0000      -6.036766      -164.2687
  20   2.0000      -6.036461      -164.2605
  21   2.0000      -6.032329      -164.1480
  22   2.0000      -6.032244      -164.1457
  23   2.0000      -6.028776      -164.0513
  24   2.0000      -1.001669       -27.2568
  25   2.0000      -0.983390       -26.7594
  26   2.0000      -0.919976       -25.0338
  27   2.0000      -0.912649       -24.8344
  28   2.0000      -0.866847       -23.5881
  29   2.0000      -0.850187       -23.1348
  30   2.0000      -0.844361       -22.9762
  31   2.0000      -0.815021       -22.1779
  32   2.0000      -0.788857       -21.4659
  33   2.0000      -0.767974       -20.8976
  34   2.0000      -0.713983       -19.4285
  35   2.0000      -0.703051       -19.1310
  36   2.0000      -0.690902       -18.8004
  37   2.0000      -0.651962       -17.7408
  38   2.0000      -0.636313       -17.3150
  39   2.0000      -0.614583       -16.7237
  40   2.0000      -0.601841       -16.3769
  41   2.0000      -0.572142       -15.5688
  42   2.0000      -0.566983       -15.4284
  43   2.0000      -0.560954       -15.2643
  44   2.0000      -0.540449       -14.7064
  45   2.0000      -0.525186       -14.2910
  46   2.0000      -0.515648       -14.0315
  47   2.0000      -0.506306       -13.7773
  48   2.0000      -0.499005       -13.5786
  49   2.0000      -0.494731       -13.4623
  50   2.0000      -0.489640       -13.3238
  51   2.0000      -0.477861       -13.0033
  52   2.0000      -0.477380       -12.9902
  53   2.0000      -0.468439       -12.7469
  54   2.0000      -0.458227       -12.4690
  55   2.0000      -0.445868       -12.1327
  56   2.0000      -0.444021       -12.0824
  57   2.0000      -0.441998       -12.0274
  58   2.0000      -0.434615       -11.8265
  59   2.0000      -0.431096       -11.7307
  60   2.0000      -0.425087       -11.5672
  61   2.0000      -0.413915       -11.2632
  62   2.0000      -0.410257       -11.1637
  63   2.0000      -0.342758        -9.3269
  64   2.0000      -0.333553        -9.0764
  65   2.0000      -0.326575        -8.8866
  66   2.0000      -0.295514        -8.0413
  67   0.0000       0.034140         0.9290
  68   0.0000       0.063844         1.7373
  69   0.0000       0.110151         2.9973
  70   0.0000       0.122963         3.3460
  71   0.0000       0.131395         3.5754

MULLIKEN ATOMIC CHARGES
-----------------------
   0 S :    0.103661
   1 C :   -0.132588
   2 C :   -0.115368
   3 C :    0.042859
   4 C :   -0.178917
   5 H :   -0.000225
   6 C :    0.058882
   7 H :    0.054655
   8 H :    0.006659
   9 C :   -0.049963
  10 H :    0.027640
  11 H :    0.018395
  12 C :   -0.050180
  13 H :    0.028308
  14 H :    0.045472
  15 H :    0.022650
  16 S :    0.109950
  17 C :   -0.101776
  18 C :   -0.050216
  19 C :   -0.014726
  20 C :   -0.161251
  21 H :    0.031659
  22 C :    0.078186
  23 H :    0.021868
  24 H :    0.016106
  25 C :   -0.080253
  26 H :    0.014571
  27 H :    0.007208
  28 C :   -0.002647
  29 H :    0.029286
  30 H :    0.046498
  31 H :    0.031142
  32 H :    0.065844
  33 H :    0.076610
Sum of atomic charges:   -0.0000000

LOEWDIN ATOMIC CHARGES
----------------------
   0 S :    0.401364
   1 C :   -0.213041
   2 C :   -0.070609
   3 C :   -0.071256
   4 C :   -0.190378
   5 H :    0.034340
   6 C :   -0.028771
   7 H :    0.038948
   8 H :    0.027375
   9 C :   -0.040123
  10 H :    0.018601
  11 H :    0.022231
  12 C :   -0.064423
  13 H :    0.021876
  14 H :    0.038264
  15 H :    0.020939
  16 S :    0.377767
  17 C :   -0.193042
  18 C :   -0.073572
  19 C :   -0.055654
  20 C :   -0.180988
  21 H :    0.036934
  22 C :   -0.023197
  23 H :    0.029046
  24 H :    0.027319
  25 C :   -0.039397
  26 H :    0.025939
  27 H :    0.015792
  28 C :   -0.057740
  29 H :    0.024129
  30 H :    0.027677
  31 H :    0.027276
  32 H :    0.040628
  33 H :    0.045747

  Mayer bond orders larger than 0.100000
B(  0-S ,  1-C ) :   1.1435 B(  0-S ,  4-C ) :   1.1526 B(  1-C ,  2-C ) :   1.6127
B(  1-C , 32-H ) :   0.9583 B(  2-C ,  3-C ) :   1.2383 B(  2-C ,  6-C ) :   1.0175
B(  3-C ,  4-C ) :   1.5754 B(  3-C ,  5-H ) :   0.9808 B(  4-C , 20-C ) :   1.0114
B(  6-C ,  7-H ) :   0.9285 B(  6-C ,  8-H ) :   0.9496 B(  6-C ,  9-C ) :   1.0635
B(  9-C , 10-H ) :   0.9493 B(  9-C , 11-H ) :   0.9537 B(  9-C , 12-C ) :   1.0948
B( 12-C , 13-H ) :   0.9738 B( 12-C , 14-H ) :   0.9715 B( 12-C , 15-H ) :   0.9736
B( 16-S , 17-C ) :   1.1198 B( 16-S , 20-C ) :   1.1338 B( 17-C , 18-C ) :   1.6730
B( 17-C , 33-H ) :   0.9500 B( 18-C , 19-C ) :   1.2156 B( 18-C , 21-H ) :   0.9706
B( 19-C , 20-C ) :   1.6272 B( 19-C , 22-C ) :   1.0440 B( 22-C , 23-H ) :   0.9350
B( 22-C , 24-H ) :   0.9376 B( 22-C , 25-C ) :   1.0783 B( 25-C , 26-H ) :   0.9505
B( 25-C , 27-H ) :   0.9538 B( 25-C , 28-C ) :   1.0673 B( 28-C , 29-H ) :   0.9680
B( 28-C , 30-H ) :   0.9643 B( 28-C , 31-H ) :   0.9681

Dispersion correction           -0.015042334
FINAL SINGLE POINT ENERGY     -1339.869406447655

DIPOLE MOMENT
-------------
                                X             Y             Z
Electronic contribution:    -25.90062       7.20006     -16.28813
Nuclear contribution   :     26.56071      -7.65235      16.45956
                        -----------------------------------------
Total Dipole Moment    :      0.66009      -0.45229       0.17143
                        -----------------------------------------
Magnitude (a.u.)       :      0.81833
Magnitude (Debye)      :      2.08004

Rotational constants in cm-1:     0.019437     0.009146     0.006723
Rotational constants in MHz :   582.698759   274.203686   201.559422

                             ****ORCA TERMINATED NORMALLY****
TOTAL RUN TIME: 0 days 0 hours 0 minutes 35 seconds 399 msec
