                         Program Version 4.2.1 -  RELEASE  -
|  1> ! wB97X-D3 SP def2-SVP
|  2> %pal
|  3> nprocs 16
|  4> end
|  5>
|  6> * xyz 0 1
|  7> S 	 58.5047 	 3.63951 	 79.1411
|  8> C 	 57.0442 	 3.57781 	 78.1995
|  9> C 	 55.9602 	 3.91592 	 78.9955
| 10> C 	 56.2932 	 4.08801 	 80.3542
| 11> C 	 57.6528 	 4.04605 	 80.6258
| 12> H 	 55.6411 	 4.40173 	 81.1736
| 13> C 	 54.4742 	 4.0314 	 78.495
| 14> H 	 54.6146 	 4.88372 	 77.7902
| 15> H 	 53.7701 	 4.5005 	 79.205
| 16> C 	 53.9925 	 2.86847 	 77.5637
| 17> H 	 52.9988 	 3.10631 	 77.1421
| 18> H 	 54.6193 	 2.82551 	 76.6396
| 19> C 	 53.8062 	 1.5457 	 78.3519
| 20> H 	 53.3497 	 0.766709 	 77.7458
| 21> H 	 54.739 	 1.08576 	 78.742
| 22> H 	 53.1617 	 1.6407 	 79.2361
| 23> S 	 59.0877 	 5.79123 	 82.0016
| 24> C 	 59.7533 	 5.34358 	 83.5784
| 25> C 	 59.3329 	 4.11273 	 83.9714
| 26> C 	 58.7087 	 3.3986 	 82.8906
| 27> C 	 58.436 	 4.22382 	 81.8254
| 28> H 	 59.5755 	 3.66091 	 84.92
| 29> C 	 58.563 	 1.88114 	 83.0081
| 30> H 	 57.7498 	 1.51574 	 82.3565
| 31> H 	 58.1451 	 1.75442 	 83.9519
| 32> C 	 59.9559 	 1.19036 	 82.879
| 33> H 	 60.6456 	 1.59869 	 83.6289
| 34> H 	 60.2956 	 1.38446 	 81.8745
| 35> C 	 59.7692 	 -0.34911 	 83.1953
| 36> H 	 59.1519 	 -0.831179 	 82.4317
| 37> H 	 59.2952 	 -0.563353 	 84.1547
| 38> H 	 60.6545 	 -0.911778 	 83.0798
| 39> H 	 57.0617 	 3.56342 	 77.1262
| 40> H 	 60.2792 	 5.96623 	 84.227
| 41> *
| 42>
| 43>                          ****END OF INPUT****

CARTESIAN COORDINATES (ANGSTROEM)
---------------------------------
  S     58.504700    3.639510   79.141100
  C     57.044200    3.577810   78.199500
  C     55.960200    3.915920   78.995500
  C     56.293200    4.088010   80.354200
  C     57.652800    4.046050   80.625800
  H     55.641100    4.401730   81.173600
  C     54.474200    4.031400   78.495000
  H     54.614600    4.883720   77.790200
  H     53.770100    4.500500   79.205000
  C     53.992500    2.868470   77.563700
  H     52.998800    3.106310   77.142100
  H     54.619300    2.825510   76.639600
  C     53.806200    1.545700   78.351900
  H     53.349700    0.766709   77.745800
  H     54.739000    1.085760   78.742000
  H     53.161700    1.640700   79.236100
  S     59.087700    5.791230   82.001600
  C     59.753300    5.343580   83.578400
  C     59.332900    4.112730   83.971400
  C     58.708700    3.398600   82.890600
  C     58.436000    4.223820   81.825400
  H     59.575500    3.660910   84.920000
  C     58.563000    1.881140   83.008100
  H     57.749800    1.515740   82.356500
  H     58.145100    1.754420   83.951900
  C     59.955900    1.190360   82.879000
  H     60.645600    1.598690   83.628900
  H     60.295600    1.384460   81.874500
  C     59.769200   -0.349110   83.195300
  H     59.151900   -0.831179   82.431700
  H     59.295200   -0.563353   84.154700
  H     60.654500   -0.911778   83.079800
  H     57.061700    3.563420   77.126200
  H     60.279200    5.966230   84.227000

 Total Charge           Charge          ....    0
 Multiplicity           Mult            ....    1
 Number of Electrons    NEL             ....  134
 Basis Dimension        Dim             ....  322

ORBITAL ENERGIES
----------------

  NO   OCC          E(Eh)            E(eV)
   0   2.0000     -88.962945     -2420.8048
   1   2.0000     -88.960747     -2420.7450
   2   2.0000     -10.325336      -280.9667
   3   2.0000     -10.317487      -280.7531
   4   2.0000     -10.311354      -280.5862
   5   2.0000     -10.311033      -280.5775
   6   2.0000     -10.304069      -280.3880
   7   2.0000     -10.300499      -280.2908
   8   2.0000     -10.299363      -280.2599
   9   2.0000     -10.298805      -280.2447
  10   2.0000     -10.292918      -280.0845
  11   2.0000     -10.292360      -280.0693
  12   2.0000     -10.290254      -280.0121
  13   2.0000     -10.286908      -279.9210
  14   2.0000     -10.277259      -279.6584
  15   2.0000     -10.275490      -279.6103
  16   2.0000      -8.078390      -219.8242
  17   2.0000      -8.075667      -219.7501
  18   2.0000      -6.036911      -164.2727
  19   2.0000      -6.034062      -164.1952
  20   2.0000      -6.032822      -164.1614
  21   2.0000      -6.029986      -164.0843
  22   2.0000      -6.029054      -164.0589
  23   2.0000      -6.026701      -163.9949
  24   2.0000      -1.009533       -27.4708
  25   2.0000      -0.984814       -26.7982
  26   2.0000      -0.904181       -24.6040
  27   2.0000      -0.899960       -24.4891
  28   2.0000      -0.869654       -23.6645
  29   2.0000      -0.844086       -22.9687
  30   2.0000      -0.842509       -22.9258
  31   2.0000      -0.813960       -22.1490
  32   2.0000      -0.780584       -21.2408
  33   2.0000      -0.769220       -20.9315
  34   2.0000      -0.707571       -19.2540
  35   2.0000      -0.701633       -19.0924
  36   2.0000      -0.697197       -18.9717
  37   2.0000      -0.666771       -18.1438
  38   2.0000      -0.644080       -17.5263
  39   2.0000      -0.608261       -16.5516
  40   2.0000      -0.593089       -16.1388
  41   2.0000      -0.568918       -15.4810
  42   2.0000      -0.561232       -15.2719
  43   2.0000      -0.542386       -14.7591
  44   2.0000      -0.537360       -14.6223
  45   2.0000      -0.520174       -14.1546
  46   2.0000      -0.515761       -14.0346
  47   2.0000      -0.509117       -13.8538
  48   2.0000      -0.505485       -13.7550
  49   2.0000      -0.499024       -13.5791
  50   2.0000      -0.483291       -13.1510
  51   2.0000      -0.479242       -13.0408
  52   2.0000      -0.469385       -12.7726
  53   2.0000      -0.461922       -12.5695
  54   2.0000      -0.453747       -12.3471
  55   2.0000      -0.450793       -12.2667
  56   2.0000      -0.439684       -11.9644
  57   2.0000      -0.434628       -11.8268
  58   2.0000      -0.430106       -11.7038
  59   2.0000      -0.427908       -11.6440
  60   2.0000      -0.422674       -11.5015
  61   2.0000      -0.417226       -11.3533
  62   2.0000      -0.411108       -11.1868
  63   2.0000      -0.338039        -9.1985
  64   2.0000      -0.328702        -8.9444
  65   2.0000      -0.315148        -8.5756
  66   2.0000      -0.308487        -8.3944
  67   0.0000       0.045712         1.2439
  68   0.0000       0.056954         1.5498
  69   0.0000       0.120286         3.2732
  70   0.0000       0.126591         3.4447
  71   0.0000       0.127889         3.4800

MULLIKEN ATOMIC CHARGES
-----------------------
   0 S :    0.104861
   1 C :   -0.122764
   2 C :   -0.080719
   3 C :    0.050879
   4 C :   -0.191919
   5 H :    0.015934
   6 C :    0.031750
   7 H :    0.034283
   8 H :    0.035051
   9 C :   -0.063118
  10 H :    0.029415
  11 H :    0.036251
  12 C :   -0.059394
  13 H :    0.029469
  14 H :    0.041933
  15 H :    0.029127
  16 S :    0.119668
  17 C :   -0.057560
  18 C :   -0.033424
  19 C :   -0.041525
  20 C :   -0.190321
  21 H :    0.017326
  22 C :    0.099763
  23 H :    0.030351
  24 H :   -0.003588
  25 C :   -0.063039
  26 H :    0.038485
  27 H :    0.038986
  28 C :   -0.033508
  29 H :    0.022907
  30 H :    0.033100
  31 H :    0.022897
  32 H :    0.048923
  33 H :    0.029521
Sum of atomic charges:    0.0000000

LOEWDIN ATOMIC CHARGES
----------------------
   0 S :    0.409923
   1 C :   -0.204906
   2 C :   -0.062813
   3 C :   -0.067755
   4 C :   -0.197607
   5 H :    0.036381
   6 C :   -0.040733
   7 H :    0.039516
   8 H :    0.033413
   9 C :   -0.042140
  10 H :    0.027661
  11 H :    0.028527
  12 C :   -0.074844
  13 H :    0.023218
  14 H :    0.028746
  15 H :    0.026869
  16 S :    0.419349
  17 C :   -0.166957
  18 C :   -0.063965
  19 C :   -0.050100
  20 C :   -0.230069
  21 H :    0.030001
  22 C :   -0.027355
  23 H :    0.033951
  24 H :    0.018561
  25 C :   -0.023792
  26 H :    0.026433
  27 H :    0.026651
  28 C :   -0.067944
  29 H :    0.026765
  30 H :    0.025686
  31 H :    0.018931
  32 H :    0.024609
  33 H :    0.015788

  Mayer bond orders larger than 0.100000
B(  0-S ,  1-C ) :   1.1535 B(  0-S ,  4-C ) :   1.1726 B(  1-C ,  2-C ) :   1.5876
B(  1-C ,  4-C ) :   0.1153 B(  1-C , 32-H ) :   0.9713 B(  2-C ,  3-C ) :   1.2561
B(  2-C ,  6-C ) :   0.9930 B(  3-C ,  4-C ) :   1.5825 B(  3-C ,  5-H ) :   0.9979
B(  4-C , 20-C ) :   0.9858 B(  6-C ,  7-H ) :   0.9351 B(  6-C ,  8-H ) :   0.9551
B(  6-C ,  9-C ) :   1.0760 B(  9-C , 10-H ) :   0.9541 B(  9-C , 11-H ) :   0.9538
B(  9-C , 12-C ) :   1.0656 B( 12-C , 13-H ) :   0.9767 B( 12-C , 14-H ) :   0.9768
B( 12-C , 15-H ) :   0.9752 B( 16-S , 17-C ) :   1.1393 B( 16-S , 20-C ) :   1.1540
B( 17-C , 18-C ) :   1.6381 B( 17-C , 33-H ) :   0.9731 B( 18-C , 19-C ) :   1.2217
B( 18-C , 21-H ) :   0.9845 B( 19-C , 20-C ) :   1.6315 B( 19-C , 22-C ) :   1.0427
B( 22-C , 23-H ) :   0.9354 B( 22-C , 24-H ) :   0.9247 B( 22-C , 25-C ) :   1.0508
B( 25-C , 26-H ) :   0.9590 B( 25-C , 27-H ) :   0.9572 B( 25-C , 28-C ) :   1.0752
B( 28-C , 29-H ) :   0.9738 B( 28-C , 30-H ) :   0.9773 B( 28-C , 31-H ) :   0.9751

Dispersion correction           -0.014153770
FINAL SINGLE POINT ENERGY     -1339.872781438371

DIPOLE MOMENT
-------------
                                X             Y             Z
Electronic contribution:     12.36849      20.64433       0.50139
Nuclear contribution   :    -12.69829     -20.88694      -0.31547
                        -----------------------------------------
Total Dipole Moment    :     -0.32980      -0.24260       0.18593
                        -----------------------------------------
Magnitude (a.u.)       :      0.44966
Magnitude (Debye)      :      1.14294

Rotational constants in cm-1:     0.019558     0.008007     0.006571
Rotational constants in MHz :   586.324893   240.041857   196.997043

                             ****ORCA TERMINATED NORMALLY****
TOTAL RUN TIME: 0 days 0 hours 0 minutes 29 seconds 45 msec
