                         Program Version 4.2.1 -  RELEASE  -
|  1> ! wB97X-D3 SP def2-SVP
|  2> %pal
|  3> nprocs 16
|  4> end
|  5>
|  6> * xyz 0 1
|  7> S 	 10.1468 	 -8.85801 	 63.5069
|  8> C 	 9.01549 	 -8.06293 	 64.6086
|  9> C 	 9.20226 	 -8.48767 	 65.8989
| 10> C 	 10.36 	 -9.27374 	 66.0218
| 11> C 	 10.8838 	 -9.70319 	 64.8532
| 12> H 	 10.8307 	 -9.45014 	 66.9637
| 13> C 	 8.43476 	 -8.0948 	 67.1824
| 14> H 	 7.48339 	 -8.59037 	 67.115
| 15> H 	 8.30054 	 -7.04428 	 66.986
| 16> C 	 9.13202 	 -8.30358 	 68.5014
| 17> H 	 9.46639 	 -9.31711 	 68.6199
| 18> H 	 9.98159 	 -7.56704 	 68.6059
| 19> C 	 8.17921 	 -8.048 	 69.5561
| 20> H 	 8.65611 	 -8.40882 	 70.4102
| 21> H 	 7.90167 	 -6.99253 	 69.3965
| 22> H 	 7.22946 	 -8.59732 	 69.3882
| 23> S 	 13.6514 	 -9.72509 	 65.0466
| 24> C 	 14.4115 	 -11.2949 	 64.8569
| 25> C 	 13.6049 	 -12.3194 	 64.49
| 26> C 	 12.2328 	 -11.8786 	 64.3556
| 27> C 	 12.0613 	 -10.5177 	 64.7406
| 28> H 	 13.9578 	 -13.2592 	 64.1783
| 29> C 	 11.1104 	 -12.8125 	 64.0976
| 30> H 	 11.4385 	 -13.4086 	 63.2916
| 31> H 	 10.2509 	 -12.3858 	 63.5679
| 32> C 	 10.622 	 -13.6029 	 65.3537
| 33> H 	 10.3451 	 -12.9333 	 66.1664
| 34> H 	 11.3804 	 -14.2663 	 65.7978
| 35> C 	 9.43279 	 -14.5241 	 65.0122
| 36> H 	 8.56471 	 -14.0024 	 64.5406
| 37> H 	 9.0086 	 -15.0209 	 65.8963
| 38> H 	 9.57206 	 -15.3368 	 64.3058
| 39> H 	 8.11426 	 -7.43128 	 64.3235
| 40> H 	 15.4622 	 -11.3269 	 64.9212
| 41> *
| 42>
| 43>                          ****END OF INPUT****

CARTESIAN COORDINATES (ANGSTROEM)
---------------------------------
  S     10.146800   -8.858010   63.506900
  C      9.015490   -8.062930   64.608600
  C      9.202260   -8.487670   65.898900
  C     10.360000   -9.273740   66.021800
  C     10.883800   -9.703190   64.853200
  H     10.830700   -9.450140   66.963700
  C      8.434760   -8.094800   67.182400
  H      7.483390   -8.590370   67.115000
  H      8.300540   -7.044280   66.986000
  C      9.132020   -8.303580   68.501400
  H      9.466390   -9.317110   68.619900
  H      9.981590   -7.567040   68.605900
  C      8.179210   -8.048000   69.556100
  H      8.656110   -8.408820   70.410200
  H      7.901670   -6.992530   69.396500
  H      7.229460   -8.597320   69.388200
  S     13.651400   -9.725090   65.046600
  C     14.411500  -11.294900   64.856900
  C     13.604900  -12.319400   64.490000
  C     12.232800  -11.878600   64.355600
  C     12.061300  -10.517700   64.740600
  H     13.957800  -13.259200   64.178300
  C     11.110400  -12.812500   64.097600
  H     11.438500  -13.408600   63.291600
  H     10.250900  -12.385800   63.567900
  C     10.622000  -13.602900   65.353700
  H     10.345100  -12.933300   66.166400
  H     11.380400  -14.266300   65.797800
  C      9.432790  -14.524100   65.012200
  H      8.564710  -14.002400   64.540600
  H      9.008600  -15.020900   65.896300
  H      9.572060  -15.336800   64.305800
  H      8.114260   -7.431280   64.323500
  H     15.462200  -11.326900   64.921200

 Total Charge           Charge          ....    0
 Multiplicity           Mult            ....    1
 Number of Electrons    NEL             ....  134
 Basis Dimension        Dim             ....  322

ORBITAL ENERGIES
----------------

  NO   OCC          E(Eh)            E(eV)
   0   2.0000     -88.964301     -2420.8417
   1   2.0000     -88.962721     -2420.7987
   2   2.0000     -10.324996      -280.9574
   3   2.0000     -10.318591      -280.7831
   4   2.0000     -10.314839      -280.6810
   5   2.0000     -10.312188      -280.6089
   6   2.0000     -10.305263      -280.4205
   7   2.0000     -10.293021      -280.0873
   8   2.0000     -10.290720      -280.0247
   9   2.0000     -10.290238      -280.0116
  10   2.0000     -10.288039      -279.9518
  11   2.0000     -10.285708      -279.8884
  12   2.0000     -10.282425      -279.7990
  13   2.0000     -10.280197      -279.7384
  14   2.0000     -10.277444      -279.6635
  15   2.0000     -10.271097      -279.4908
  16   2.0000      -8.078487      -219.8268
  17   2.0000      -8.076888      -219.7833
  18   2.0000      -6.037083      -164.2774
  19   2.0000      -6.035309      -164.2291
  20   2.0000      -6.033109      -164.1692
  21   2.0000      -6.031662      -164.1299
  22   2.0000      -6.029143      -164.0613
  23   2.0000      -6.027614      -164.0197
  24   2.0000      -1.003289       -27.3009
  25   2.0000      -0.978874       -26.6365
  26   2.0000      -0.929522       -25.2936
  27   2.0000      -0.903725       -24.5916
  28   2.0000      -0.874054       -23.7842
  29   2.0000      -0.851347       -23.1663
  30   2.0000      -0.846321       -23.0296
  31   2.0000      -0.813568       -22.1383
  32   2.0000      -0.783259       -21.3136
  33   2.0000      -0.765944       -20.8424
  34   2.0000      -0.710921       -19.3451
  35   2.0000      -0.702501       -19.1160
  36   2.0000      -0.684795       -18.6342
  37   2.0000      -0.662075       -18.0160
  38   2.0000      -0.632625       -17.2146
  39   2.0000      -0.621888       -16.9224
  40   2.0000      -0.602092       -16.3837
  41   2.0000      -0.588585       -16.0162
  42   2.0000      -0.571736       -15.5577
  43   2.0000      -0.552336       -15.0298
  44   2.0000      -0.535212       -14.5639
  45   2.0000      -0.523735       -14.2515
  46   2.0000      -0.517370       -14.0784
  47   2.0000      -0.510801       -13.8996
  48   2.0000      -0.502120       -13.6634
  49   2.0000      -0.495612       -13.4863
  50   2.0000      -0.488696       -13.2981
  51   2.0000      -0.474521       -12.9124
  52   2.0000      -0.465893       -12.6776
  53   2.0000      -0.459033       -12.4909
  54   2.0000      -0.454809       -12.3760
  55   2.0000      -0.450391       -12.2558
  56   2.0000      -0.445204       -12.1146
  57   2.0000      -0.440179       -11.9779
  58   2.0000      -0.432125       -11.7587
  59   2.0000      -0.428698       -11.6655
  60   2.0000      -0.424291       -11.5455
  61   2.0000      -0.411453       -11.1962
  62   2.0000      -0.409078       -11.1316
  63   2.0000      -0.335066        -9.1176
  64   2.0000      -0.327500        -8.9117
  65   2.0000      -0.320167        -8.7122
  66   2.0000      -0.302361        -8.2277
  67   0.0000       0.043587         1.1861
  68   0.0000       0.053677         1.4606
  69   0.0000       0.109307         2.9744
  70   0.0000       0.123914         3.3719
  71   0.0000       0.130326         3.5463

MULLIKEN ATOMIC CHARGES
-----------------------
   0 S :    0.116522
   1 C :   -0.167229
   2 C :   -0.089677
   3 C :    0.003530
   4 C :   -0.125164
   5 H :    0.012757
   6 C :    0.065048
   7 H :    0.034406
   8 H :    0.025335
   9 C :   -0.106632
  10 H :    0.030392
  11 H :    0.044882
  12 C :    0.022481
  13 H :    0.024195
  14 H :    0.024383
  15 H :    0.020550
  16 S :    0.100366
  17 C :   -0.067574
  18 C :    0.003140
  19 C :   -0.033914
  20 C :   -0.189848
  21 H :    0.002045
  22 C :    0.088143
  23 H :    0.003208
  24 H :    0.016689
  25 C :   -0.037899
  26 H :    0.034750
  27 H :    0.030968
  28 C :   -0.074190
  29 H :    0.027592
  30 H :    0.031033
  31 H :    0.025057
  32 H :    0.064279
  33 H :    0.040374
Sum of atomic charges:   -0.0000000

LOEWDIN ATOMIC CHARGES
----------------------
   0 S :    0.398186
   1 C :   -0.210658
   2 C :   -0.066334
   3 C :   -0.060198
   4 C :   -0.202879
   5 H :    0.028153
   6 C :   -0.028413
   7 H :    0.031377
   8 H :    0.033142
   9 C :   -0.048076
  10 H :    0.019820
  11 H :    0.035452
  12 C :   -0.055745
  13 H :    0.020974
  14 H :    0.030543
  15 H :    0.025920
  16 S :    0.379059
  17 C :   -0.163046
  18 C :   -0.064965
  19 C :   -0.042831
  20 C :   -0.186818
  21 H :    0.026628
  22 C :   -0.039157
  23 H :    0.026942
  24 H :    0.033891
  25 C :   -0.030872
  26 H :    0.028797
  27 H :    0.027179
  28 C :   -0.078301
  29 H :    0.026474
  30 H :    0.026877
  31 H :    0.021913
  32 H :    0.041418
  33 H :    0.015547

  Mayer bond orders larger than 0.100000
B(  0-S ,  1-C ) :   1.1298 B(  0-S ,  4-C ) :   1.1379 B(  1-C ,  2-C ) :   1.6408
B(  1-C , 32-H ) :   0.9588 B(  2-C ,  3-C ) :   1.2549 B(  2-C ,  6-C ) :   0.9725
B(  3-C ,  4-C ) :   1.5751 B(  3-C ,  5-H ) :   0.9920 B(  4-C , 20-C ) :   1.0482
B(  6-C ,  7-H ) :   0.9330 B(  6-C ,  8-H ) :   0.9340 B(  6-C ,  9-C ) :   1.1103
B(  9-C , 10-H ) :   0.9389 B(  9-C , 11-H ) :   0.9442 B(  9-C , 12-C ) :   1.0935
B( 12-C , 13-H ) :   0.9677 B( 12-C , 14-H ) :   0.9677 B( 12-C , 15-H ) :   0.9721
B( 16-S , 17-C ) :   1.1524 B( 16-S , 20-C ) :   1.1247 B( 17-C , 18-C ) :   1.6244
B( 17-C , 33-H ) :   0.9697 B( 18-C , 19-C ) :   1.2168 B( 18-C , 21-H ) :   0.9979
B( 19-C , 20-C ) :   1.5993 B( 19-C , 22-C ) :   1.0748 B( 22-C , 23-H ) :   0.9177
B( 22-C , 24-H ) :   0.9270 B( 22-C , 25-C ) :   1.0494 B( 25-C , 26-H ) :   0.9562
B( 25-C , 27-H ) :   0.9565 B( 25-C , 28-C ) :   1.0766 B( 28-C , 29-H ) :   0.9742
B( 28-C , 30-H ) :   0.9742 B( 28-C , 31-H ) :   0.9769

Dispersion correction           -0.013917407
FINAL SINGLE POINT ENERGY     -1339.857464829713

DIPOLE MOMENT
-------------
                                X             Y             Z
Electronic contribution:     16.82951      10.57369     -16.38188
Nuclear contribution   :    -17.09185     -10.85648      16.77041
                        -----------------------------------------
Total Dipole Moment    :     -0.26234      -0.28279       0.38852
                        -----------------------------------------
Magnitude (a.u.)       :      0.54749
Magnitude (Debye)      :      1.39161

Rotational constants in cm-1:     0.016249     0.008519     0.007560
Rotational constants in MHz :   487.119024   255.403911   226.639723

                             ****ORCA TERMINATED NORMALLY****
TOTAL RUN TIME: 0 days 0 hours 0 minutes 33 seconds 604 msec
