                         Program Version 4.2.1 -  RELEASE  -
|  1> ! wB97X-D3 SP def2-SVP
|  2> %pal
|  3> nprocs 16
|  4> end
|  5>
|  6> * xyz 0 1
|  7> S 	 11.47 	 -13.5011 	 78.6335
|  8> C 	 9.79625 	 -13.7576 	 78.5598
|  9> C 	 9.34514 	 -14.0126 	 77.2596
| 10> C 	 10.375 	 -13.8979 	 76.2635
| 11> C 	 11.6316 	 -13.6582 	 76.8177
| 12> H 	 10.2686 	 -13.8806 	 75.1875
| 13> C 	 7.93571 	 -14.5245 	 76.948
| 14> H 	 7.46505 	 -14.1429 	 76.0791
| 15> H 	 7.34406 	 -14.1859 	 77.7201
| 16> C 	 7.84695 	 -16.0532 	 77.1211
| 17> H 	 8.65938 	 -16.5322 	 76.4748
| 18> H 	 7.99999 	 -16.3382 	 78.1667
| 19> C 	 6.45577 	 -16.6333 	 76.8429
| 20> H 	 6.18403 	 -16.5986 	 75.8052
| 21> H 	 6.43364 	 -17.6745 	 77.1769
| 22> H 	 5.67877 	 -16.0341 	 77.3959
| 23> S 	 13.9023 	 -12.0859 	 76.6995
| 24> C 	 15.1474 	 -12.4142 	 75.5755
| 25> C 	 14.7853 	 -13.4745 	 74.7225
| 26> C 	 13.559 	 -14.0408 	 75.0909
| 27> C 	 12.9275 	 -13.4291 	 76.1293
| 28> H 	 15.4366 	 -13.6718 	 73.9044
| 29> C 	 13.0391 	 -15.2695 	 74.426
| 30> H 	 13.6253 	 -15.5184 	 73.5313
| 31> H 	 12.1237 	 -14.8947 	 74.0718
| 32> C 	 12.8757 	 -16.5168 	 75.3165
| 33> H 	 12.601 	 -16.1819 	 76.2906
| 34> H 	 13.9308 	 -16.7931 	 75.4685
| 35> C 	 11.87 	 -17.5387 	 74.8752
| 36> H 	 11.8927 	 -18.584 	 75.3555
| 37> H 	 12.112 	 -17.7654 	 73.8905
| 38> H 	 10.8198 	 -17.081 	 74.9872
| 39> H 	 9.10027 	 -13.6888 	 79.3988
| 40> H 	 15.8931 	 -11.7689 	 75.1776
| 41> *
| 42>
| 43>                          ****END OF INPUT****

CARTESIAN COORDINATES (ANGSTROEM)
---------------------------------
  S     11.470000  -13.501100   78.633500
  C      9.796250  -13.757600   78.559800
  C      9.345140  -14.012600   77.259600
  C     10.375000  -13.897900   76.263500
  C     11.631600  -13.658200   76.817700
  H     10.268600  -13.880600   75.187500
  C      7.935710  -14.524500   76.948000
  H      7.465050  -14.142900   76.079100
  H      7.344060  -14.185900   77.720100
  C      7.846950  -16.053200   77.121100
  H      8.659380  -16.532200   76.474800
  H      7.999990  -16.338200   78.166700
  C      6.455770  -16.633300   76.842900
  H      6.184030  -16.598600   75.805200
  H      6.433640  -17.674500   77.176900
  H      5.678770  -16.034100   77.395900
  S     13.902300  -12.085900   76.699500
  C     15.147400  -12.414200   75.575500
  C     14.785300  -13.474500   74.722500
  C     13.559000  -14.040800   75.090900
  C     12.927500  -13.429100   76.129300
  H     15.436600  -13.671800   73.904400
  C     13.039100  -15.269500   74.426000
  H     13.625300  -15.518400   73.531300
  H     12.123700  -14.894700   74.071800
  C     12.875700  -16.516800   75.316500
  H     12.601000  -16.181900   76.290600
  H     13.930800  -16.793100   75.468500
  C     11.870000  -17.538700   74.875200
  H     11.892700  -18.584000   75.355500
  H     12.112000  -17.765400   73.890500
  H     10.819800  -17.081000   74.987200
  H      9.100270  -13.688800   79.398800
  H     15.893100  -11.768900   75.177600

 Total Charge           Charge          ....    0
 Multiplicity           Mult            ....    1
 Number of Electrons    NEL             ....  134
 Basis Dimension        Dim             ....  322

ORBITAL ENERGIES
----------------

  NO   OCC          E(Eh)            E(eV)
   0   2.0000     -88.969749     -2420.9899
   1   2.0000     -88.967280     -2420.9228
   2   2.0000     -10.340304      -281.3740
   3   2.0000     -10.326389      -280.9953
   4   2.0000     -10.315153      -280.6896
   5   2.0000     -10.312037      -280.6048
   6   2.0000     -10.305162      -280.4177
   7   2.0000     -10.300263      -280.2844
   8   2.0000     -10.297968      -280.2220
   9   2.0000     -10.291067      -280.0342
  10   2.0000     -10.290261      -280.0122
  11   2.0000     -10.284102      -279.8446
  12   2.0000     -10.282460      -279.8000
  13   2.0000     -10.282231      -279.7937
  14   2.0000     -10.280386      -279.7435
  15   2.0000     -10.277117      -279.6546
  16   2.0000      -8.083960      -219.9757
  17   2.0000      -8.082391      -219.9330
  18   2.0000      -6.042494      -164.4246
  19   2.0000      -6.040819      -164.3791
  20   2.0000      -6.038521      -164.3165
  21   2.0000      -6.036678      -164.2664
  22   2.0000      -6.034738      -164.2136
  23   2.0000      -6.033365      -164.1762
  24   2.0000      -1.009158       -27.4606
  25   2.0000      -0.986017       -26.8309
  26   2.0000      -0.913413       -24.8552
  27   2.0000      -0.910660       -24.7803
  28   2.0000      -0.868465       -23.6321
  29   2.0000      -0.856510       -23.3068
  30   2.0000      -0.848885       -23.0993
  31   2.0000      -0.818284       -22.2667
  32   2.0000      -0.782375       -21.2895
  33   2.0000      -0.769419       -20.9369
  34   2.0000      -0.708212       -19.2714
  35   2.0000      -0.693903       -18.8821
  36   2.0000      -0.693215       -18.8633
  37   2.0000      -0.668588       -18.1932
  38   2.0000      -0.645346       -17.5607
  39   2.0000      -0.621783       -16.9196
  40   2.0000      -0.590016       -16.0552
  41   2.0000      -0.572960       -15.5910
  42   2.0000      -0.567829       -15.4514
  43   2.0000      -0.561328       -15.2745
  44   2.0000      -0.526660       -14.3311
  45   2.0000      -0.522544       -14.2192
  46   2.0000      -0.520915       -14.1748
  47   2.0000      -0.509799       -13.8723
  48   2.0000      -0.504519       -13.7287
  49   2.0000      -0.503806       -13.7093
  50   2.0000      -0.500578       -13.6214
  51   2.0000      -0.482338       -13.1251
  52   2.0000      -0.475052       -12.9268
  53   2.0000      -0.467947       -12.7335
  54   2.0000      -0.459782       -12.5113
  55   2.0000      -0.446570       -12.1518
  56   2.0000      -0.436492       -11.8776
  57   2.0000      -0.433327       -11.7914
  58   2.0000      -0.426588       -11.6081
  59   2.0000      -0.424119       -11.5409
  60   2.0000      -0.420602       -11.4452
  61   2.0000      -0.416736       -11.3400
  62   2.0000      -0.412781       -11.2323
  63   2.0000      -0.354055        -9.6343
  64   2.0000      -0.332946        -9.0599
  65   2.0000      -0.328831        -8.9480
  66   2.0000      -0.288122        -7.8402
  67   0.0000       0.024266         0.6603
  68   0.0000       0.067294         1.8312
  69   0.0000       0.109628         2.9831
  70   0.0000       0.116639         3.1739
  71   0.0000       0.131734         3.5847

MULLIKEN ATOMIC CHARGES
-----------------------
   0 S :    0.114964
   1 C :   -0.111227
   2 C :   -0.116208
   3 C :    0.036025
   4 C :   -0.158714
   5 H :    0.024187
   6 C :    0.130092
   7 H :    0.017493
   8 H :   -0.015638
   9 C :   -0.115372
  10 H :    0.046067
  11 H :    0.029531
  12 C :   -0.045916
  13 H :    0.027786
  14 H :    0.041646
  15 H :    0.030828
  16 S :    0.117548
  17 C :   -0.073813
  18 C :   -0.073429
  19 C :   -0.038637
  20 C :   -0.162151
  21 H :    0.011207
  22 C :    0.101266
  23 H :    0.012877
  24 H :   -0.004929
  25 C :   -0.044464
  26 H :    0.025385
  27 H :    0.023065
  28 C :   -0.050677
  29 H :    0.047457
  30 H :    0.013680
  31 H :    0.050288
  32 H :    0.056346
  33 H :    0.053437
Sum of atomic charges:    0.0000000

LOEWDIN ATOMIC CHARGES
----------------------
   0 S :    0.400120
   1 C :   -0.215210
   2 C :   -0.059559
   3 C :   -0.061149
   4 C :   -0.169481
   5 H :    0.033762
   6 C :   -0.027581
   7 H :    0.024229
   8 H :    0.018974
   9 C :   -0.041260
  10 H :    0.027367
  11 H :    0.025579
  12 C :   -0.068045
  13 H :    0.018374
  14 H :    0.029383
  15 H :    0.028793
  16 S :    0.430667
  17 C :   -0.201318
  18 C :   -0.068000
  19 C :   -0.058885
  20 C :   -0.201311
  21 H :    0.028289
  22 C :   -0.027470
  23 H :    0.028392
  24 H :    0.019014
  25 C :   -0.042841
  26 H :    0.019781
  27 H :    0.027805
  28 C :   -0.069181
  29 H :    0.039117
  30 H :    0.012448
  31 H :    0.036702
  32 H :    0.033845
  33 H :    0.028652

  Mayer bond orders larger than 0.100000
B(  0-S ,  1-C ) :   1.1493 B(  0-S ,  4-C ) :   1.1354 B(  1-C ,  2-C ) :   1.6041
B(  1-C , 32-H ) :   0.9611 B(  2-C ,  3-C ) :   1.2404 B(  2-C ,  6-C ) :   1.0392
B(  3-C ,  4-C ) :   1.5750 B(  3-C ,  5-H ) :   0.9919 B(  4-C , 20-C ) :   1.0399
B(  6-C ,  7-H ) :   0.9479 B(  6-C ,  8-H ) :   0.9203 B(  6-C ,  9-C ) :   1.0538
B(  9-C , 10-H ) :   0.9552 B(  9-C , 11-H ) :   0.9575 B(  9-C , 12-C ) :   1.0800
B( 12-C , 13-H ) :   0.9761 B( 12-C , 14-H ) :   0.9749 B( 12-C , 15-H ) :   0.9713
B( 16-S , 17-C ) :   1.1833 B( 16-S , 20-C ) :   1.1446 B( 17-C , 18-C ) :   1.5800
B( 17-C , 20-C ) :   0.1023 B( 17-C , 33-H ) :   0.9613 B( 18-C , 19-C ) :   1.2714
B( 18-C , 21-H ) :   0.9981 B( 19-C , 20-C ) :   1.5795 B( 19-C , 22-C ) :   1.0262
B( 22-C , 23-H ) :   0.9291 B( 22-C , 24-H ) :   0.9228 B( 22-C , 25-C ) :   1.0509
B( 25-C , 26-H ) :   0.9619 B( 25-C , 27-H ) :   0.9505 B( 25-C , 28-C ) :   1.0692
B( 28-C , 29-H ) :   0.9714 B( 28-C , 30-H ) :   0.9740 B( 28-C , 31-H ) :   0.9691

Dispersion correction           -0.015015893
FINAL SINGLE POINT ENERGY     -1339.863851109648

DIPOLE MOMENT
-------------
                                X             Y             Z
Electronic contribution:     18.96745      23.09439      10.06164
Nuclear contribution   :    -19.34138     -23.35997     -10.51968
                        -----------------------------------------
Total Dipole Moment    :     -0.37393      -0.26559      -0.45805
                        -----------------------------------------
Magnitude (a.u.)       :      0.64820
Magnitude (Debye)      :      1.64760

Rotational constants in cm-1:     0.021185     0.008792     0.006776
Rotational constants in MHz :   635.106188   263.574446   203.151165

                             ****ORCA TERMINATED NORMALLY****
TOTAL RUN TIME: 0 days 0 hours 0 minutes 29 seconds 279 msec
