                         Program Version 4.2.1 -  RELEASE  -
|  1> ! wB97X-D3 SP def2-SVP
|  2> %pal
|  3> nprocs 16
|  4> end
|  5>
|  6> * xyz 0 1
|  7> S 	 -23.2069 	 -5.33304 	 97.9978
|  8> C 	 -24.1067 	 -6.64269 	 98.7394
|  9> C 	 -24.8227 	 -6.25728 	 99.8373
| 10> C 	 -24.9067 	 -4.82438 	 99.9729
| 11> C 	 -24.0745 	 -4.23357 	 99.0581
| 12> H 	 -25.4734 	 -4.21604 	 100.653
| 13> C 	 -25.4614 	 -7.23969 	 100.842
| 14> H 	 -26.1777 	 -6.72224 	 101.42
| 15> H 	 -24.6194 	 -7.49109 	 101.54
| 16> C 	 -26.1471 	 -8.52511 	 100.322
| 17> H 	 -25.6023 	 -9.23037 	 99.6681
| 18> H 	 -26.4817 	 -9.09936 	 101.165
| 19> C 	 -27.3463 	 -8.02002 	 99.4032
| 20> H 	 -27.8347 	 -7.1831 	 99.8696
| 21> H 	 -27.0646 	 -7.6347 	 98.4322
| 22> H 	 -28.0367 	 -8.81734 	 99.357
| 23> S 	 -23.2196 	 -1.97667 	 100.327
| 24> C 	 -23.5165 	 -0.414446 	 99.5845
| 25> C 	 -24.041 	 -0.539975 	 98.3068
| 26> C 	 -24.3795 	 -1.90557 	 97.9944
| 27> C 	 -23.9067 	 -2.809 	 98.9349
| 28> H 	 -24.3459 	 0.372592 	 97.7615
| 29> C 	 -25.0203 	 -2.24034 	 96.6753
| 30> H 	 -24.17 	 -2.606 	 95.9793
| 31> H 	 -25.3406 	 -1.27985 	 96.2408
| 32> C 	 -26.2765 	 -3.18365 	 96.7603
| 33> H 	 -26.9977 	 -2.75395 	 97.4136
| 34> H 	 -26.0608 	 -4.14815 	 97.1582
| 35> C 	 -26.7634 	 -3.54329 	 95.3598
| 36> H 	 -27.3301 	 -4.53368 	 95.3516
| 37> H 	 -25.9597 	 -3.83342 	 94.7268
| 38> H 	 -27.3693 	 -2.80967 	 94.9339
| 39> H 	 -23.9065 	 -7.66272 	 98.4987
| 40> H 	 -23.1916 	 0.453412 	 99.9909
| 41> *
| 42>
| 43>                          ****END OF INPUT****

CARTESIAN COORDINATES (ANGSTROEM)
---------------------------------
  S    -23.206900   -5.333040   97.997800
  C    -24.106700   -6.642690   98.739400
  C    -24.822700   -6.257280   99.837300
  C    -24.906700   -4.824380   99.972900
  C    -24.074500   -4.233570   99.058100
  H    -25.473400   -4.216040  100.653000
  C    -25.461400   -7.239690  100.842000
  H    -26.177700   -6.722240  101.420000
  H    -24.619400   -7.491090  101.540000
  C    -26.147100   -8.525110  100.322000
  H    -25.602300   -9.230370   99.668100
  H    -26.481700   -9.099360  101.165000
  C    -27.346300   -8.020020   99.403200
  H    -27.834700   -7.183100   99.869600
  H    -27.064600   -7.634700   98.432200
  H    -28.036700   -8.817340   99.357000
  S    -23.219600   -1.976670  100.327000
  C    -23.516500   -0.414446   99.584500
  C    -24.041000   -0.539975   98.306800
  C    -24.379500   -1.905570   97.994400
  C    -23.906700   -2.809000   98.934900
  H    -24.345900    0.372592   97.761500
  C    -25.020300   -2.240340   96.675300
  H    -24.170000   -2.606000   95.979300
  H    -25.340600   -1.279850   96.240800
  C    -26.276500   -3.183650   96.760300
  H    -26.997700   -2.753950   97.413600
  H    -26.060800   -4.148150   97.158200
  C    -26.763400   -3.543290   95.359800
  H    -27.330100   -4.533680   95.351600
  H    -25.959700   -3.833420   94.726800
  H    -27.369300   -2.809670   94.933900
  H    -23.906500   -7.662720   98.498700
  H    -23.191600    0.453412   99.990900

 Total Charge           Charge          ....    0
 Multiplicity           Mult            ....    1
 Number of Electrons    NEL             ....  134
 Basis Dimension        Dim             ....  322

ORBITAL ENERGIES
----------------

  NO   OCC          E(Eh)            E(eV)
   0   2.0000     -88.967360     -2420.9249
   1   2.0000     -88.963031     -2420.8072
   2   2.0000     -10.324765      -280.9511
   3   2.0000     -10.319284      -280.8020
   4   2.0000     -10.309880      -280.5461
   5   2.0000     -10.307651      -280.4854
   6   2.0000     -10.303494      -280.3723
   7   2.0000     -10.300818      -280.2995
   8   2.0000     -10.296692      -280.1872
   9   2.0000     -10.295684      -280.1598
  10   2.0000     -10.295310      -280.1496
  11   2.0000     -10.294434      -280.1258
  12   2.0000     -10.293134      -280.0904
  13   2.0000     -10.277427      -279.6630
  14   2.0000     -10.270944      -279.4866
  15   2.0000     -10.268755      -279.4270
  16   2.0000      -8.081802      -219.9170
  17   2.0000      -8.077569      -219.8018
  18   2.0000      -6.040272      -164.3641
  19   2.0000      -6.036528      -164.2623
  20   2.0000      -6.036083      -164.2502
  21   2.0000      -6.032463      -164.1517
  22   2.0000      -6.032036      -164.1400
  23   2.0000      -6.028423      -164.0417
  24   2.0000      -1.005897       -27.3719
  25   2.0000      -0.980837       -26.6899
  26   2.0000      -0.906911       -24.6783
  27   2.0000      -0.901552       -24.5325
  28   2.0000      -0.868193       -23.6247
  29   2.0000      -0.850757       -23.1503
  30   2.0000      -0.846803       -23.0427
  31   2.0000      -0.809636       -22.0313
  32   2.0000      -0.780372       -21.2350
  33   2.0000      -0.766769       -20.8648
  34   2.0000      -0.709735       -19.3129
  35   2.0000      -0.708611       -19.2823
  36   2.0000      -0.691409       -18.8142
  37   2.0000      -0.664054       -18.0698
  38   2.0000      -0.645038       -17.5524
  39   2.0000      -0.604766       -16.4565
  40   2.0000      -0.587814       -15.9952
  41   2.0000      -0.571500       -15.5513
  42   2.0000      -0.566098       -15.4043
  43   2.0000      -0.551653       -15.0112
  44   2.0000      -0.536977       -14.6119
  45   2.0000      -0.519886       -14.1468
  46   2.0000      -0.514682       -14.0052
  47   2.0000      -0.509300       -13.8588
  48   2.0000      -0.505697       -13.7607
  49   2.0000      -0.493172       -13.4199
  50   2.0000      -0.489784       -13.3277
  51   2.0000      -0.479222       -13.0403
  52   2.0000      -0.474571       -12.9137
  53   2.0000      -0.463312       -12.6073
  54   2.0000      -0.460307       -12.5256
  55   2.0000      -0.448631       -12.2079
  56   2.0000      -0.443103       -12.0574
  57   2.0000      -0.439234       -11.9522
  58   2.0000      -0.432716       -11.7748
  59   2.0000      -0.424996       -11.5647
  60   2.0000      -0.417737       -11.3672
  61   2.0000      -0.411656       -11.2017
  62   2.0000      -0.409094       -11.1320
  63   2.0000      -0.337929        -9.1955
  64   2.0000      -0.331603        -9.0234
  65   2.0000      -0.323500        -8.8029
  66   2.0000      -0.299727        -8.1560
  67   0.0000       0.037296         1.0149
  68   0.0000       0.064525         1.7558
  69   0.0000       0.106028         2.8852
  70   0.0000       0.118773         3.2320
  71   0.0000       0.123798         3.3687

MULLIKEN ATOMIC CHARGES
-----------------------
   0 S :    0.118115
   1 C :   -0.119482
   2 C :   -0.083460
   3 C :    0.034066
   4 C :   -0.178176
   5 H :    0.014686
   6 C :    0.069701
   7 H :    0.012222
   8 H :    0.050740
   9 C :   -0.074877
  10 H :    0.036816
  11 H :    0.031998
  12 C :   -0.043311
  13 H :    0.013911
  14 H :    0.041851
  15 H :    0.024959
  16 S :    0.102449
  17 C :   -0.056322
  18 C :   -0.034761
  19 C :   -0.031223
  20 C :   -0.168115
  21 H :    0.035327
  22 C :    0.026163
  23 H :    0.057394
  24 H :    0.014850
  25 C :   -0.051667
  26 H :    0.024678
  27 H :    0.038971
  28 C :   -0.029896
  29 H :    0.026866
  30 H :    0.019434
  31 H :    0.024245
  32 H :    0.034981
  33 H :    0.016866
Sum of atomic charges:    0.0000000

LOEWDIN ATOMIC CHARGES
----------------------
   0 S :    0.399732
   1 C :   -0.197331
   2 C :   -0.055769
   3 C :   -0.056021
   4 C :   -0.189336
   5 H :    0.032979
   6 C :   -0.029774
   7 H :    0.021943
   8 H :    0.039585
   9 C :   -0.036425
  10 H :    0.024752
  11 H :    0.024099
  12 C :   -0.058613
  13 H :    0.019481
  14 H :    0.026129
  15 H :    0.017809
  16 S :    0.401683
  17 C :   -0.165178
  18 C :   -0.072758
  19 C :   -0.058700
  20 C :   -0.204453
  21 H :    0.037981
  22 C :   -0.037349
  23 H :    0.044230
  24 H :    0.028058
  25 C :   -0.034043
  26 H :    0.022145
  27 H :    0.023768
  28 C :   -0.061665
  29 H :    0.033530
  30 H :    0.022510
  31 H :    0.012878
  32 H :    0.019353
  33 H :    0.004769

  Mayer bond orders larger than 0.100000
B(  0-S ,  1-C ) :   1.1189 B(  0-S ,  4-C ) :   1.1449 B(  1-C ,  2-C ) :   1.6514
B(  1-C , 32-H ) :   0.9691 B(  2-C ,  3-C ) :   1.1943 B(  2-C ,  6-C ) :   1.0070
B(  3-C ,  4-C ) :   1.6158 B(  3-C ,  5-H ) :   0.9976 B(  4-C , 20-C ) :   1.0186
B(  6-C ,  7-H ) :   0.9462 B(  6-C ,  8-H ) :   0.9328 B(  6-C ,  9-C ) :   1.0773
B(  9-C , 10-H ) :   0.9577 B(  9-C , 11-H ) :   0.9574 B(  9-C , 12-C ) :   1.0615
B( 12-C , 13-H ) :   0.9794 B( 12-C , 14-H ) :   0.9760 B( 12-C , 15-H ) :   0.9769
B( 16-S , 17-C ) :   1.1612 B( 16-S , 20-C ) :   1.1343 B( 17-C , 18-C ) :   1.6143
B( 17-C , 33-H ) :   0.9766 B( 18-C , 19-C ) :   1.2373 B( 18-C , 21-H ) :   0.9795
B( 19-C , 20-C ) :   1.5995 B( 19-C , 22-C ) :   1.0430 B( 22-C , 23-H ) :   0.9366
B( 22-C , 24-H ) :   0.9346 B( 22-C , 25-C ) :   1.0520 B( 25-C , 26-H ) :   0.9598
B( 25-C , 27-H ) :   0.9559 B( 25-C , 28-C ) :   1.0824 B( 28-C , 29-H ) :   0.9752
B( 28-C , 30-H ) :   0.9697 B( 28-C , 31-H ) :   0.9778

Dispersion correction           -0.015415124
FINAL SINGLE POINT ENERGY     -1339.870754541781

DIPOLE MOMENT
-------------
                                X             Y             Z
Electronic contribution:     20.66855      12.81368       7.66025
Nuclear contribution   :    -21.07636     -12.94025      -7.61741
                        -----------------------------------------
Total Dipole Moment    :     -0.40780      -0.12658       0.04284
                        -----------------------------------------
Magnitude (a.u.)       :      0.42914
Magnitude (Debye)      :      1.09079

Rotational constants in cm-1:     0.019778     0.009031     0.007357
Rotational constants in MHz :   592.938458   270.740529   220.565590

                             ****ORCA TERMINATED NORMALLY****
TOTAL RUN TIME: 0 days 0 hours 0 minutes 29 seconds 791 msec
