                         Program Version 4.2.1 -  RELEASE  -
|  1> ! wB97X-D3 SP def2-SVP
|  2> %pal
|  3> nprocs 16
|  4> end
|  5>
|  6> * xyz 0 1
|  7> S 	 -85.1485 	 48.6232 	 130.759
|  8> C 	 -86.3597 	 47.327 	 130.835
|  9> C 	 -86.7043 	 46.9742 	 129.556
| 10> C 	 -86.0391 	 47.719 	 128.507
| 11> C 	 -85.2514 	 48.7199 	 129
| 12> H 	 -86.1981 	 47.4577 	 127.547
| 13> C 	 -87.5331 	 45.7915 	 129.234
| 14> H 	 -87.6516 	 45.7757 	 128.122
| 15> H 	 -88.5654 	 46.06 	 129.624
| 16> C 	 -87.098 	 44.4057 	 129.69
| 17> H 	 -86.9826 	 44.3647 	 130.755
| 18> H 	 -87.9468 	 43.7751 	 129.445
| 19> C 	 -85.8363 	 43.8083 	 129.088
| 20> H 	 -84.9453 	 44.3207 	 129.138
| 21> H 	 -85.6922 	 42.9063 	 129.684
| 22> H 	 -86.063 	 43.5121 	 128.021
| 23> S 	 -82.8509 	 50.0128 	 128.88
| 24> C 	 -82.3211 	 51.0794 	 127.538
| 25> C 	 -83.4171 	 51.1416 	 126.687
| 26> C 	 -84.5498 	 50.3063 	 127.022
| 27> C 	 -84.4518 	 49.6937 	 128.29
| 28> H 	 -83.2764 	 51.5948 	 125.71
| 29> C 	 -85.553 	 49.9647 	 126.011
| 30> H 	 -85.7818 	 48.9551 	 125.984
| 31> H 	 -85.007 	 49.9946 	 125.083
| 32> C 	 -86.6735 	 50.8856 	 125.746
| 33> H 	 -87.1801 	 50.5173 	 124.797
| 34> H 	 -86.4072 	 51.932 	 125.44
| 35> C 	 -87.7674 	 51.0155 	 126.868
| 36> H 	 -87.4151 	 51.0952 	 127.879
| 37> H 	 -88.2728 	 50.0631 	 126.908
| 38> H 	 -88.4705 	 51.7265 	 126.639
| 39> H 	 -86.6466 	 46.7449 	 131.738
| 40> H 	 -81.3398 	 51.4422 	 127.257
| 41> *
| 42>
| 43>                          ****END OF INPUT****

CARTESIAN COORDINATES (ANGSTROEM)
---------------------------------
  S    -85.148500   48.623200  130.759000
  C    -86.359700   47.327000  130.835000
  C    -86.704300   46.974200  129.556000
  C    -86.039100   47.719000  128.507000
  C    -85.251400   48.719900  129.000000
  H    -86.198100   47.457700  127.547000
  C    -87.533100   45.791500  129.234000
  H    -87.651600   45.775700  128.122000
  H    -88.565400   46.060000  129.624000
  C    -87.098000   44.405700  129.690000
  H    -86.982600   44.364700  130.755000
  H    -87.946800   43.775100  129.445000
  C    -85.836300   43.808300  129.088000
  H    -84.945300   44.320700  129.138000
  H    -85.692200   42.906300  129.684000
  H    -86.063000   43.512100  128.021000
  S    -82.850900   50.012800  128.880000
  C    -82.321100   51.079400  127.538000
  C    -83.417100   51.141600  126.687000
  C    -84.549800   50.306300  127.022000
  C    -84.451800   49.693700  128.290000
  H    -83.276400   51.594800  125.710000
  C    -85.553000   49.964700  126.011000
  H    -85.781800   48.955100  125.984000
  H    -85.007000   49.994600  125.083000
  C    -86.673500   50.885600  125.746000
  H    -87.180100   50.517300  124.797000
  H    -86.407200   51.932000  125.440000
  C    -87.767400   51.015500  126.868000
  H    -87.415100   51.095200  127.879000
  H    -88.272800   50.063100  126.908000
  H    -88.470500   51.726500  126.639000
  H    -86.646600   46.744900  131.738000
  H    -81.339800   51.442200  127.257000

 Total Charge           Charge          ....    0
 Multiplicity           Mult            ....    1
 Number of Electrons    NEL             ....  134
 Basis Dimension        Dim             ....  322

ORBITAL ENERGIES
----------------

  NO   OCC          E(Eh)            E(eV)
   0   2.0000     -88.965900     -2420.8852
   1   2.0000     -88.963551     -2420.8213
   2   2.0000     -10.335511      -281.2436
   3   2.0000     -10.331096      -281.1234
   4   2.0000     -10.325107      -280.9604
   5   2.0000     -10.316438      -280.7246
   6   2.0000     -10.304775      -280.4072
   7   2.0000     -10.298074      -280.2248
   8   2.0000     -10.296779      -280.1896
   9   2.0000     -10.294076      -280.1160
  10   2.0000     -10.291374      -280.0425
  11   2.0000     -10.289454      -279.9903
  12   2.0000     -10.286147      -279.9003
  13   2.0000     -10.279182      -279.7108
  14   2.0000     -10.275285      -279.6047
  15   2.0000     -10.261863      -279.2395
  16   2.0000      -8.080015      -219.8684
  17   2.0000      -8.077784      -219.8077
  18   2.0000      -6.038772      -164.3233
  19   2.0000      -6.036476      -164.2609
  20   2.0000      -6.034581      -164.2093
  21   2.0000      -6.032160      -164.1434
  22   2.0000      -6.030572      -164.1002
  23   2.0000      -6.028514      -164.0442
  24   2.0000      -1.007399       -27.4127
  25   2.0000      -0.982648       -26.7392
  26   2.0000      -0.917745       -24.9731
  27   2.0000      -0.914325       -24.8800
  28   2.0000      -0.873657       -23.7734
  29   2.0000      -0.851912       -23.1817
  30   2.0000      -0.841648       -22.9024
  31   2.0000      -0.822001       -22.3678
  32   2.0000      -0.785896       -21.3853
  33   2.0000      -0.777542       -21.1580
  34   2.0000      -0.712234       -19.3809
  35   2.0000      -0.707258       -19.2455
  36   2.0000      -0.695125       -18.9153
  37   2.0000      -0.662634       -18.0312
  38   2.0000      -0.639900       -17.4126
  39   2.0000      -0.621076       -16.9003
  40   2.0000      -0.600629       -16.3439
  41   2.0000      -0.578078       -15.7303
  42   2.0000      -0.556664       -15.1476
  43   2.0000      -0.550216       -14.9721
  44   2.0000      -0.549046       -14.9403
  45   2.0000      -0.530596       -14.4382
  46   2.0000      -0.523180       -14.2364
  47   2.0000      -0.517831       -14.0909
  48   2.0000      -0.509898       -13.8750
  49   2.0000      -0.501258       -13.6399
  50   2.0000      -0.498648       -13.5689
  51   2.0000      -0.479669       -13.0525
  52   2.0000      -0.475567       -12.9408
  53   2.0000      -0.468270       -12.7423
  54   2.0000      -0.461938       -12.5700
  55   2.0000      -0.450783       -12.2664
  56   2.0000      -0.443026       -12.0553
  57   2.0000      -0.436981       -11.8909
  58   2.0000      -0.429104       -11.6765
  59   2.0000      -0.420631       -11.4459
  60   2.0000      -0.415156       -11.2970
  61   2.0000      -0.403756       -10.9868
  62   2.0000      -0.401080       -10.9140
  63   2.0000      -0.359315        -9.7775
  64   2.0000      -0.330150        -8.9838
  65   2.0000      -0.322885        -8.7862
  66   2.0000      -0.288808        -7.8589
  67   0.0000       0.019077         0.5191
  68   0.0000       0.075221         2.0469
  69   0.0000       0.098892         2.6910
  70   0.0000       0.112026         3.0484
  71   0.0000       0.133931         3.6444

MULLIKEN ATOMIC CHARGES
-----------------------
   0 S :    0.097425
   1 C :   -0.134174
   2 C :   -0.096981
   3 C :    0.048131
   4 C :   -0.086506
   5 H :   -0.044476
   6 C :    0.026047
   7 H :    0.013140
   8 H :    0.045517
   9 C :   -0.051166
  10 H :    0.015429
  11 H :    0.028993
  12 C :   -0.032784
  13 H :    0.032754
  14 H :    0.029568
  15 H :    0.032665
  16 S :    0.078824
  17 C :   -0.090867
  18 C :   -0.029570
  19 C :   -0.062612
  20 C :   -0.099396
  21 H :    0.023509
  22 C :    0.109098
  23 H :   -0.002239
  24 H :    0.004235
  25 C :   -0.101424
  26 H :    0.025982
  27 H :    0.028387
  28 C :   -0.002204
  29 H :    0.036655
  30 H :    0.007220
  31 H :    0.018203
  32 H :    0.065563
  33 H :    0.067054
Sum of atomic charges:    0.0000000

LOEWDIN ATOMIC CHARGES
----------------------
   0 S :    0.389382
   1 C :   -0.197503
   2 C :   -0.065689
   3 C :   -0.052387
   4 C :   -0.175177
   5 H :    0.008470
   6 C :   -0.045225
   7 H :    0.028520
   8 H :    0.042946
   9 C :   -0.039066
  10 H :    0.017083
  11 H :    0.029416
  12 C :   -0.058293
  13 H :    0.015270
  14 H :    0.031730
  15 H :    0.030611
  16 S :    0.395969
  17 C :   -0.179335
  18 C :   -0.068279
  19 C :   -0.058006
  20 C :   -0.198755
  21 H :    0.030178
  22 C :   -0.041834
  23 H :    0.023087
  24 H :    0.041424
  25 C :   -0.038910
  26 H :    0.029171
  27 H :    0.024662
  28 C :   -0.061138
  29 H :    0.026832
  30 H :    0.022452
  31 H :    0.013888
  32 H :    0.039780
  33 H :    0.038724

  Mayer bond orders larger than 0.100000
B(  0-S ,  1-C ) :   1.1116 B(  0-S ,  4-C ) :   1.1474 B(  1-C ,  2-C ) :   1.6235
B(  1-C , 32-H ) :   0.9665 B(  2-C ,  3-C ) :   1.2378 B(  2-C ,  6-C ) :   1.0275
B(  3-C ,  4-C ) :   1.5438 B(  3-C ,  5-H ) :   1.0178 B(  4-C , 20-C ) :   1.0594
B(  6-C ,  7-H ) :   0.9405 B(  6-C ,  8-H ) :   0.9276 B(  6-C ,  9-C ) :   1.0812
B(  9-C , 10-H ) :   0.9565 B(  9-C , 11-H ) :   0.9496 B(  9-C , 12-C ) :   1.0771
B( 12-C , 13-H ) :   0.9794 B( 12-C , 14-H ) :   0.9717 B( 12-C , 15-H ) :   0.9742
B( 16-S , 17-C ) :   1.1431 B( 16-S , 20-C ) :   1.1412 B( 17-C , 18-C ) :   1.6000
B( 17-C , 20-C ) :   0.1016 B( 17-C , 33-H ) :   0.9704 B( 18-C , 19-C ) :   1.2744
B( 18-C , 21-H ) :   0.9778 B( 19-C , 20-C ) :   1.5444 B( 19-C , 22-C ) :   1.0455
B( 22-C , 23-H ) :   0.9348 B( 22-C , 24-H ) :   0.9055 B( 22-C , 25-C ) :   1.0847
B( 25-C , 26-H ) :   0.9503 B( 25-C , 27-H ) :   0.9570 B( 25-C , 28-C ) :   1.0700
B( 28-C , 29-H ) :   0.9782 B( 28-C , 30-H ) :   0.9713 B( 28-C , 31-H ) :   0.9757

Dispersion correction           -0.014656440
FINAL SINGLE POINT ENERGY     -1339.849380556041

DIPOLE MOMENT
-------------
                                X             Y             Z
Electronic contribution:     17.17015      12.26986      12.64392
Nuclear contribution   :    -17.40828     -12.80459     -13.29945
                        -----------------------------------------
Total Dipole Moment    :     -0.23813      -0.53473      -0.65553
                        -----------------------------------------
Magnitude (a.u.)       :      0.87884
Magnitude (Debye)      :      2.23384

Rotational constants in cm-1:     0.019831     0.008655     0.007254
Rotational constants in MHz :   594.513908   259.466999   217.462136

                             ****ORCA TERMINATED NORMALLY****
TOTAL RUN TIME: 0 days 0 hours 0 minutes 37 seconds 183 msec
