                         Program Version 4.2.1 -  RELEASE  -
|  1> ! wB97X-D3 SP def2-SVP
|  2> %pal
|  3> nprocs 16
|  4> end
|  5>
|  6> * xyz 0 1
|  7> S 	 -30.3284 	 58.9507 	 115.212
|  8> C 	 -31.6975 	 58.0883 	 115.744
|  9> C 	 -32.6018 	 58.891 	 116.427
| 10> C 	 -32.2009 	 60.2125 	 116.514
| 11> C 	 -30.9752 	 60.4194 	 115.918
| 12> H 	 -32.7922 	 60.9548 	 116.934
| 13> C 	 -34.0648 	 58.5183 	 116.733
| 14> H 	 -34.2212 	 59.1774 	 117.675
| 15> H 	 -34.0798 	 57.5192 	 117.027
| 16> C 	 -35.0594 	 58.9394 	 115.692
| 17> H 	 -34.785 	 59.9623 	 115.272
| 18> H 	 -35.0841 	 58.3528 	 114.766
| 19> C 	 -36.5118 	 58.9184 	 116.197
| 20> H 	 -36.7272 	 59.6536 	 117.024
| 21> H 	 -37.2057 	 59.2077 	 115.443
| 22> H 	 -36.8908 	 57.9487 	 116.555
| 23> S 	 -29.6502 	 62.2191 	 114.319
| 24> C 	 -28.4422 	 63.3126 	 115.035
| 25> C 	 -28.6562 	 63.4475 	 116.379
| 26> C 	 -29.5651 	 62.437 	 116.855
| 27> C 	 -30.2217 	 61.7353 	 115.884
| 28> H 	 -28.1918 	 64.186 	 117.002
| 29> C 	 -29.783 	 62.1605 	 118.377
| 30> H 	 -30.675 	 61.4738 	 118.595
| 31> H 	 -30.155 	 63.022 	 118.97
| 32> C 	 -28.5577 	 61.554 	 119.092
| 33> H 	 -27.6932 	 62.2325 	 118.832
| 34> H 	 -28.387 	 60.5689 	 118.646
| 35> C 	 -28.7896 	 61.5231 	 120.609
| 36> H 	 -29.6021 	 60.9633 	 120.934
| 37> H 	 -28.9988 	 62.5309 	 120.793
| 38> H 	 -27.8979 	 61.3189 	 121.211
| 39> H 	 -32.0679 	 57.0653 	 115.588
| 40> H 	 -27.7064 	 63.9524 	 114.49
| 41> *
| 42>
| 43>                          ****END OF INPUT****

CARTESIAN COORDINATES (ANGSTROEM)
---------------------------------
  S    -30.328400   58.950700  115.212000
  C    -31.697500   58.088300  115.744000
  C    -32.601800   58.891000  116.427000
  C    -32.200900   60.212500  116.514000
  C    -30.975200   60.419400  115.918000
  H    -32.792200   60.954800  116.934000
  C    -34.064800   58.518300  116.733000
  H    -34.221200   59.177400  117.675000
  H    -34.079800   57.519200  117.027000
  C    -35.059400   58.939400  115.692000
  H    -34.785000   59.962300  115.272000
  H    -35.084100   58.352800  114.766000
  C    -36.511800   58.918400  116.197000
  H    -36.727200   59.653600  117.024000
  H    -37.205700   59.207700  115.443000
  H    -36.890800   57.948700  116.555000
  S    -29.650200   62.219100  114.319000
  C    -28.442200   63.312600  115.035000
  C    -28.656200   63.447500  116.379000
  C    -29.565100   62.437000  116.855000
  C    -30.221700   61.735300  115.884000
  H    -28.191800   64.186000  117.002000
  C    -29.783000   62.160500  118.377000
  H    -30.675000   61.473800  118.595000
  H    -30.155000   63.022000  118.970000
  C    -28.557700   61.554000  119.092000
  H    -27.693200   62.232500  118.832000
  H    -28.387000   60.568900  118.646000
  C    -28.789600   61.523100  120.609000
  H    -29.602100   60.963300  120.934000
  H    -28.998800   62.530900  120.793000
  H    -27.897900   61.318900  121.211000
  H    -32.067900   57.065300  115.588000
  H    -27.706400   63.952400  114.490000

 Total Charge           Charge          ....    0
 Multiplicity           Mult            ....    1
 Number of Electrons    NEL             ....  134
 Basis Dimension        Dim             ....  322

ORBITAL ENERGIES
----------------

  NO   OCC          E(Eh)            E(eV)
   0   2.0000     -88.973860     -2421.1018
   1   2.0000     -88.963195     -2420.8116
   2   2.0000     -10.331726      -281.1406
   3   2.0000     -10.325824      -280.9799
   4   2.0000     -10.324287      -280.9381
   5   2.0000     -10.309581      -280.5380
   6   2.0000     -10.305888      -280.4375
   7   2.0000     -10.296431      -280.1801
   8   2.0000     -10.295857      -280.1645
   9   2.0000     -10.294014      -280.1144
  10   2.0000     -10.293340      -280.0960
  11   2.0000     -10.290474      -280.0180
  12   2.0000     -10.286625      -279.9133
  13   2.0000     -10.283926      -279.8398
  14   2.0000     -10.280404      -279.7440
  15   2.0000     -10.267293      -279.3872
  16   2.0000      -8.088511      -220.0996
  17   2.0000      -8.078019      -219.8141
  18   2.0000      -6.046998      -164.5472
  19   2.0000      -6.042939      -164.4367
  20   2.0000      -6.039370      -164.3396
  21   2.0000      -6.036651      -164.2656
  22   2.0000      -6.032475      -164.1520
  23   2.0000      -6.028670      -164.0485
  24   2.0000      -1.009920       -27.4813
  25   2.0000      -0.989361       -26.9219
  26   2.0000      -0.912048       -24.8181
  27   2.0000      -0.902805       -24.5666
  28   2.0000      -0.866085       -23.5674
  29   2.0000      -0.856548       -23.3079
  30   2.0000      -0.844591       -22.9825
  31   2.0000      -0.817443       -22.2437
  32   2.0000      -0.778910       -21.1952
  33   2.0000      -0.768669       -20.9165
  34   2.0000      -0.702753       -19.1229
  35   2.0000      -0.698217       -18.9994
  36   2.0000      -0.690610       -18.7925
  37   2.0000      -0.662602       -18.0303
  38   2.0000      -0.639689       -17.4068
  39   2.0000      -0.625965       -17.0334
  40   2.0000      -0.595174       -16.1955
  41   2.0000      -0.571624       -15.5547
  42   2.0000      -0.562422       -15.3043
  43   2.0000      -0.557094       -15.1593
  44   2.0000      -0.526865       -14.3367
  45   2.0000      -0.520227       -14.1561
  46   2.0000      -0.516046       -14.0423
  47   2.0000      -0.510226       -13.8840
  48   2.0000      -0.501521       -13.6471
  49   2.0000      -0.494971       -13.4689
  50   2.0000      -0.492061       -13.3897
  51   2.0000      -0.474568       -12.9136
  52   2.0000      -0.469794       -12.7837
  53   2.0000      -0.464189       -12.6312
  54   2.0000      -0.461034       -12.5454
  55   2.0000      -0.450659       -12.2631
  56   2.0000      -0.448277       -12.1982
  57   2.0000      -0.445120       -12.1123
  58   2.0000      -0.427955       -11.6452
  59   2.0000      -0.421992       -11.4830
  60   2.0000      -0.416427       -11.3316
  61   2.0000      -0.410723       -11.1763
  62   2.0000      -0.409415       -11.1407
  63   2.0000      -0.344026        -9.3614
  64   2.0000      -0.333653        -9.0792
  65   2.0000      -0.331270        -9.0143
  66   2.0000      -0.298623        -8.1259
  67   0.0000       0.035142         0.9563
  68   0.0000       0.066576         1.8116
  69   0.0000       0.109530         2.9805
  70   0.0000       0.123663         3.3650
  71   0.0000       0.131812         3.5868

MULLIKEN ATOMIC CHARGES
-----------------------
   0 S :    0.154336
   1 C :   -0.102941
   2 C :   -0.122017
   3 C :    0.052328
   4 C :   -0.135887
   5 H :   -0.012053
   6 C :    0.068728
   7 H :    0.032515
   8 H :    0.010035
   9 C :   -0.055074
  10 H :    0.036195
  11 H :    0.028723
  12 C :   -0.061105
  13 H :    0.031031
  14 H :    0.025069
  15 H :    0.031940
  16 S :    0.083572
  17 C :   -0.107400
  18 C :   -0.007026
  19 C :   -0.015800
  20 C :   -0.158132
  21 H :    0.021739
  22 C :   -0.014032
  23 H :    0.025874
  24 H :    0.023817
  25 C :   -0.090793
  26 H :    0.032143
  27 H :    0.039139
  28 C :    0.011482
  29 H :    0.021541
  30 H :    0.000853
  31 H :    0.035880
  32 H :    0.041879
  33 H :    0.073440
Sum of atomic charges:   -0.0000000

LOEWDIN ATOMIC CHARGES
----------------------
   0 S :    0.441312
   1 C :   -0.224355
   2 C :   -0.072886
   3 C :   -0.054471
   4 C :   -0.191588
   5 H :    0.022572
   6 C :   -0.027828
   7 H :    0.040989
   8 H :    0.018078
   9 C :   -0.047628
  10 H :    0.034559
  11 H :    0.027228
  12 C :   -0.071708
  13 H :    0.027190
  14 H :    0.022097
  15 H :    0.025768
  16 S :    0.391227
  17 C :   -0.174832
  18 C :   -0.068199
  19 C :   -0.053647
  20 C :   -0.204817
  21 H :    0.031637
  22 C :   -0.045253
  23 H :    0.033431
  24 H :    0.026280
  25 C :   -0.039743
  26 H :    0.026154
  27 H :    0.023890
  28 C :   -0.057796
  29 H :    0.017260
  30 H :    0.018659
  31 H :    0.030350
  32 H :    0.036183
  33 H :    0.039887

  Mayer bond orders larger than 0.100000
B(  0-S ,  1-C ) :   1.1523 B(  0-S ,  4-C ) :   1.1654 B(  1-C ,  2-C ) :   1.5990
B(  1-C , 32-H ) :   0.9569 B(  2-C ,  3-C ) :   1.2820 B(  2-C ,  6-C ) :   1.0244
B(  3-C ,  4-C ) :   1.5447 B(  3-C ,  5-H ) :   1.0074 B(  4-C , 20-C ) :   0.9887
B(  6-C ,  7-H ) :   0.9433 B(  6-C ,  8-H ) :   0.9363 B(  6-C ,  9-C ) :   1.0584
B(  9-C , 10-H ) :   0.9527 B(  9-C , 11-H ) :   0.9509 B(  9-C , 12-C ) :   1.0792
B( 12-C , 13-H ) :   0.9755 B( 12-C , 14-H ) :   0.9732 B( 12-C , 15-H ) :   0.9749
B( 16-S , 17-C ) :   1.1497 B( 16-S , 20-C ) :   1.1224 B( 17-C , 18-C ) :   1.6196
B( 17-C , 33-H ) :   0.9602 B( 18-C , 19-C ) :   1.2255 B( 18-C , 21-H ) :   0.9906
B( 19-C , 20-C ) :   1.6494 B( 19-C , 22-C ) :   1.0170 B( 22-C , 23-H ) :   0.9426
B( 22-C , 24-H ) :   0.9458 B( 22-C , 25-C ) :   1.0494 B( 25-C , 26-H ) :   0.9605
B( 25-C , 27-H ) :   0.9556 B( 25-C , 28-C ) :   1.0693 B( 28-C , 29-H ) :   0.9763
B( 28-C , 30-H ) :   0.9701 B( 28-C , 31-H ) :   0.9730

Dispersion correction           -0.013875283
FINAL SINGLE POINT ENERGY     -1339.863280217236

DIPOLE MOMENT
-------------
                                X             Y             Z
Electronic contribution:     14.81954       2.07460     -19.91915
Nuclear contribution   :    -15.08651      -1.97012      20.30454
                        -----------------------------------------
Total Dipole Moment    :     -0.26697       0.10449       0.38539
                        -----------------------------------------
Magnitude (a.u.)       :      0.48033
Magnitude (Debye)      :      1.22089

Rotational constants in cm-1:     0.018447     0.007882     0.006686
Rotational constants in MHz :   553.032664   236.305955   200.431211

                             ****ORCA TERMINATED NORMALLY****
TOTAL RUN TIME: 0 days 0 hours 0 minutes 29 seconds 37 msec
