                         Program Version 4.2.1 -  RELEASE  -
|  1> ! wB97X-D3 SP def2-SVP
|  2> %pal
|  3> nprocs 16
|  4> end
|  5>
|  6> * xyz 0 1
|  7> S 	 -1.29583 	 46.622 	 45.7128
|  8> C 	 -0.0843342 	 47.7097 	 45.1304
|  9> C 	 -0.583132 	 49.0163 	 45.0537
| 10> C 	 -1.96567 	 49.1853 	 45.4404
| 11> C 	 -2.47833 	 47.9663 	 45.869
| 12> H 	 -2.52732 	 50.0844 	 45.3731
| 13> C 	 0.247694 	 50.1945 	 44.5678
| 14> H 	 1.3468 	 50.0404 	 44.6969
| 15> H 	 -0.0323968 	 50.9983 	 45.2563
| 16> C 	 0.0229808 	 50.7419 	 43.1636
| 17> H 	 -1.04531 	 51.0025 	 43.0386
| 18> H 	 0.587508 	 51.6989 	 43.0246
| 19> C 	 0.146066 	 49.7121 	 42.0364
| 20> H 	 -0.611473 	 48.9609 	 42.0835
| 21> H 	 -0.0123539 	 50.2068 	 41.0853
| 22> H 	 1.09176 	 49.2092 	 42.1983
| 23> S 	 -5.1697 	 48.1865 	 45.2466
| 24> C 	 -6.2388 	 48.2838 	 46.5343
| 25> C 	 -5.66323 	 48.0285 	 47.7719
| 26> C 	 -4.28332 	 47.6943 	 47.6692
| 27> C 	 -3.84354 	 47.7793 	 46.3599
| 28> H 	 -6.23476 	 48.1569 	 48.7288
| 29> C 	 -3.34214 	 47.4915 	 48.8526
| 30> H 	 -3.06471 	 48.4192 	 49.4227
| 31> H 	 -2.38869 	 47.0594 	 48.5919
| 32> C 	 -3.89141 	 46.5111 	 49.9144
| 33> H 	 -3.99376 	 45.5243 	 49.4896
| 34> H 	 -4.88579 	 46.8575 	 50.2354
| 35> C 	 -2.97774 	 46.3475 	 51.1426
| 36> H 	 -3.24322 	 45.4828 	 51.7771
| 37> H 	 -2.96801 	 47.1862 	 51.8046
| 38> H 	 -1.97284 	 46.2262 	 50.825
| 39> H 	 0.96434 	 47.5208 	 44.9814
| 40> H 	 -7.28018 	 48.6519 	 46.3901
| 41> *
| 42>
| 43>                          ****END OF INPUT****

CARTESIAN COORDINATES (ANGSTROEM)
---------------------------------
  S     -1.295830   46.622000   45.712800
  C     -0.084334   47.709700   45.130400
  C     -0.583132   49.016300   45.053700
  C     -1.965670   49.185300   45.440400
  C     -2.478330   47.966300   45.869000
  H     -2.527320   50.084400   45.373100
  C      0.247694   50.194500   44.567800
  H      1.346800   50.040400   44.696900
  H     -0.032397   50.998300   45.256300
  C      0.022981   50.741900   43.163600
  H     -1.045310   51.002500   43.038600
  H      0.587508   51.698900   43.024600
  C      0.146066   49.712100   42.036400
  H     -0.611473   48.960900   42.083500
  H     -0.012354   50.206800   41.085300
  H      1.091760   49.209200   42.198300
  S     -5.169700   48.186500   45.246600
  C     -6.238800   48.283800   46.534300
  C     -5.663230   48.028500   47.771900
  C     -4.283320   47.694300   47.669200
  C     -3.843540   47.779300   46.359900
  H     -6.234760   48.156900   48.728800
  C     -3.342140   47.491500   48.852600
  H     -3.064710   48.419200   49.422700
  H     -2.388690   47.059400   48.591900
  C     -3.891410   46.511100   49.914400
  H     -3.993760   45.524300   49.489600
  H     -4.885790   46.857500   50.235400
  C     -2.977740   46.347500   51.142600
  H     -3.243220   45.482800   51.777100
  H     -2.968010   47.186200   51.804600
  H     -1.972840   46.226200   50.825000
  H      0.964340   47.520800   44.981400
  H     -7.280180   48.651900   46.390100

 Total Charge           Charge          ....    0
 Multiplicity           Mult            ....    1
 Number of Electrons    NEL             ....  134
 Basis Dimension        Dim             ....  322

ORBITAL ENERGIES
----------------

  NO   OCC          E(Eh)            E(eV)
   0   2.0000     -88.969037     -2420.9706
   1   2.0000     -88.967768     -2420.9361
   2   2.0000     -10.334039      -281.2035
   3   2.0000     -10.324015      -280.9307
   4   2.0000     -10.318403      -280.7780
   5   2.0000     -10.312959      -280.6299
   6   2.0000     -10.306950      -280.4664
   7   2.0000     -10.302952      -280.3576
   8   2.0000     -10.298644      -280.2404
   9   2.0000     -10.297540      -280.2103
  10   2.0000     -10.293302      -280.0950
  11   2.0000     -10.291618      -280.0492
  12   2.0000     -10.286449      -279.9085
  13   2.0000     -10.283989      -279.8416
  14   2.0000     -10.272414      -279.5266
  15   2.0000     -10.269269      -279.4410
  16   2.0000      -8.083555      -219.9647
  17   2.0000      -8.082852      -219.9456
  18   2.0000      -6.041810      -164.4060
  19   2.0000      -6.041420      -164.3954
  20   2.0000      -6.037881      -164.2991
  21   2.0000      -6.037439      -164.2871
  22   2.0000      -6.034547      -164.2084
  23   2.0000      -6.033655      -164.1841
  24   2.0000      -1.007423       -27.4134
  25   2.0000      -0.983184       -26.7538
  26   2.0000      -0.909260       -24.7422
  27   2.0000      -0.907099       -24.6834
  28   2.0000      -0.868445       -23.6316
  29   2.0000      -0.854007       -23.2387
  30   2.0000      -0.846776       -23.0419
  31   2.0000      -0.809380       -22.0243
  32   2.0000      -0.783854       -21.3297
  33   2.0000      -0.771199       -20.9854
  34   2.0000      -0.701780       -19.0964
  35   2.0000      -0.697098       -18.9690
  36   2.0000      -0.687352       -18.7038
  37   2.0000      -0.654588       -17.8122
  38   2.0000      -0.640061       -17.4169
  39   2.0000      -0.618592       -16.8328
  40   2.0000      -0.603668       -16.4267
  41   2.0000      -0.564158       -15.3515
  42   2.0000      -0.560674       -15.2567
  43   2.0000      -0.552320       -15.0294
  44   2.0000      -0.540483       -14.7073
  45   2.0000      -0.518354       -14.1051
  46   2.0000      -0.516661       -14.0591
  47   2.0000      -0.512599       -13.9485
  48   2.0000      -0.505988       -13.7686
  49   2.0000      -0.496085       -13.4992
  50   2.0000      -0.490557       -13.3487
  51   2.0000      -0.470466       -12.8020
  52   2.0000      -0.470034       -12.7903
  53   2.0000      -0.468611       -12.7516
  54   2.0000      -0.459082       -12.4923
  55   2.0000      -0.456376       -12.4186
  56   2.0000      -0.450231       -12.2514
  57   2.0000      -0.438298       -11.9267
  58   2.0000      -0.428519       -11.6606
  59   2.0000      -0.426287       -11.5999
  60   2.0000      -0.419246       -11.4083
  61   2.0000      -0.416343       -11.3293
  62   2.0000      -0.400645       -10.9021
  63   2.0000      -0.343790        -9.3550
  64   2.0000      -0.332140        -9.0380
  65   2.0000      -0.323942        -8.8149
  66   2.0000      -0.300115        -8.1666
  67   0.0000       0.034816         0.9474
  68   0.0000       0.062286         1.6949
  69   0.0000       0.109608         2.9826
  70   0.0000       0.112651         3.0654
  71   0.0000       0.129261         3.5174

MULLIKEN ATOMIC CHARGES
-----------------------
   0 S :    0.114686
   1 C :   -0.105127
   2 C :   -0.104929
   3 C :    0.050372
   4 C :   -0.165070
   5 H :    0.014687
   6 C :    0.037229
   7 H :    0.029525
   8 H :    0.027235
   9 C :   -0.094589
  10 H :    0.017082
  11 H :    0.042889
  12 C :   -0.024536
  13 H :    0.032413
  14 H :    0.034909
  15 H :    0.019569
  16 S :    0.124975
  17 C :   -0.111861
  18 C :   -0.058499
  19 C :    0.017059
  20 C :   -0.181741
  21 H :    0.040793
  22 C :    0.070586
  23 H :    0.041779
  24 H :    0.010933
  25 C :   -0.103980
  26 H :    0.032306
  27 H :    0.024667
  28 C :   -0.024829
  29 H :    0.037003
  30 H :    0.019369
  31 H :    0.016166
  32 H :    0.045015
  33 H :    0.073914
Sum of atomic charges:   -0.0000000

LOEWDIN ATOMIC CHARGES
----------------------
   0 S :    0.399109
   1 C :   -0.210542
   2 C :   -0.060457
   3 C :   -0.051224
   4 C :   -0.176591
   5 H :    0.030728
   6 C :   -0.042083
   7 H :    0.030522
   8 H :    0.033399
   9 C :   -0.049765
  10 H :    0.022453
  11 H :    0.029615
  12 C :   -0.060986
  13 H :    0.023791
  14 H :    0.027807
  15 H :    0.019080
  16 S :    0.431870
  17 C :   -0.210537
  18 C :   -0.082708
  19 C :   -0.046154
  20 C :   -0.202139
  21 H :    0.040270
  22 C :   -0.031747
  23 H :    0.038469
  24 H :    0.021834
  25 C :   -0.037943
  26 H :    0.023650
  27 H :    0.018082
  28 C :   -0.063595
  29 H :    0.031704
  30 H :    0.019049
  31 H :    0.019226
  32 H :    0.028646
  33 H :    0.037167

  Mayer bond orders larger than 0.100000
B(  0-S ,  1-C ) :   1.1314 B(  0-S ,  4-C ) :   1.1429 B(  1-C ,  2-C ) :   1.6153
B(  1-C , 32-H ) :   0.9675 B(  2-C ,  3-C ) :   1.2240 B(  2-C ,  6-C ) :   1.0269
B(  3-C ,  4-C ) :   1.5808 B(  3-C ,  5-H ) :   0.9983 B(  4-C , 20-C ) :   1.0150
B(  6-C ,  7-H ) :   0.9451 B(  6-C ,  8-H ) :   0.9353 B(  6-C ,  9-C ) :   1.0800
B(  9-C , 10-H ) :   0.9534 B(  9-C , 11-H ) :   0.9560 B(  9-C , 12-C ) :   1.0684
B( 12-C , 13-H ) :   0.9722 B( 12-C , 14-H ) :   0.9737 B( 12-C , 15-H ) :   0.9782
B( 16-S , 17-C ) :   1.1891 B( 16-S , 20-C ) :   1.1458 B( 17-C , 18-C ) :   1.5865
B( 17-C , 33-H ) :   0.9588 B( 18-C , 19-C ) :   1.2576 B( 18-C , 21-H ) :   0.9837
B( 19-C , 20-C ) :   1.5867 B( 19-C , 22-C ) :   1.0422 B( 22-C , 23-H ) :   0.9390
B( 22-C , 24-H ) :   0.9308 B( 22-C , 25-C ) :   1.0514 B( 25-C , 26-H ) :   0.9587
B( 25-C , 27-H ) :   0.9580 B( 25-C , 28-C ) :   1.0853 B( 28-C , 29-H ) :   0.9742
B( 28-C , 30-H ) :   0.9739 B( 28-C , 31-H ) :   0.9719

Dispersion correction           -0.014223463
FINAL SINGLE POINT ENERGY     -1339.887471356215

DIPOLE MOMENT
-------------
                                X             Y             Z
Electronic contribution:    -10.71572      -6.43593      -7.12322
Nuclear contribution   :     10.74603       6.92182       7.40516
                        -----------------------------------------
Total Dipole Moment    :      0.03031       0.48589       0.28194
                        -----------------------------------------
Magnitude (a.u.)       :      0.56258
Magnitude (Debye)      :      1.42997

Rotational constants in cm-1:     0.020899     0.007858     0.006433
Rotational constants in MHz :   626.549195   235.574486   192.854237

                             ****ORCA TERMINATED NORMALLY****
TOTAL RUN TIME: 0 days 0 hours 0 minutes 34 seconds 694 msec
