                         Program Version 4.2.1 -  RELEASE  -
|  1> ! wB97X-D3 SP def2-SVP
|  2> %pal
|  3> nprocs 16
|  4> end
|  5>
|  6> * xyz 0 1
|  7> S 	 -12.0261 	 52.5991 	 30.3141
|  8> C 	 -10.9476 	 51.7148 	 29.34
|  9> C 	 -10.1489 	 50.9996 	 30.1678
| 10> C 	 -10.414 	 51.1293 	 31.5635
| 11> C 	 -11.4386 	 51.9822 	 31.8376
| 12> H 	 -9.89617 	 50.7746 	 32.3913
| 13> C 	 -8.92147 	 50.2222 	 29.7159
| 14> H 	 -8.1316 	 50.4995 	 30.3641
| 15> H 	 -8.68693 	 50.5949 	 28.747
| 16> C 	 -9.21038 	 48.7334 	 29.52
| 17> H 	 -9.60572 	 48.2262 	 30.4375
| 18> H 	 -9.9946 	 48.6944 	 28.784
| 19> C 	 -7.96191 	 47.952 	 29.0512
| 20> H 	 -7.63381 	 48.2326 	 28.0591
| 21> H 	 -7.22833 	 48.1646 	 29.8549
| 22> H 	 -8.14084 	 46.8707 	 28.8884
| 23> S 	 -11.9514 	 54.2055 	 33.3573
| 24> C 	 -11.9472 	 54.0197 	 35.1086
| 25> C 	 -11.845 	 52.703 	 35.4873
| 26> C 	 -11.7004 	 51.8028 	 34.4065
| 27> C 	 -11.7949 	 52.508 	 33.1366
| 28> H 	 -11.9691 	 52.4316 	 36.5178
| 29> C 	 -11.6755 	 50.2688 	 34.6494
| 30> H 	 -11.1399 	 50.0678 	 35.6379
| 31> H 	 -11.1243 	 49.5734 	 33.9946
| 32> C 	 -13.1054 	 49.7731 	 34.7713
| 33> H 	 -13.6717 	 50.2269 	 33.9321
| 34> H 	 -13.4688 	 50.2537 	 35.6203
| 35> C 	 -13.4608 	 48.2772 	 34.8796
| 36> H 	 -12.889 	 47.7739 	 35.7081
| 37> H 	 -13.3336 	 47.6576 	 33.9046
| 38> H 	 -14.5686 	 48.2342 	 34.9879
| 39> H 	 -10.8533 	 51.7155 	 28.3118
| 40> H 	 -11.9579 	 54.8111 	 35.8612
| 41> *
| 42>
| 43>                          ****END OF INPUT****

CARTESIAN COORDINATES (ANGSTROEM)
---------------------------------
  S    -12.026100   52.599100   30.314100
  C    -10.947600   51.714800   29.340000
  C    -10.148900   50.999600   30.167800
  C    -10.414000   51.129300   31.563500
  C    -11.438600   51.982200   31.837600
  H     -9.896170   50.774600   32.391300
  C     -8.921470   50.222200   29.715900
  H     -8.131600   50.499500   30.364100
  H     -8.686930   50.594900   28.747000
  C     -9.210380   48.733400   29.520000
  H     -9.605720   48.226200   30.437500
  H     -9.994600   48.694400   28.784000
  C     -7.961910   47.952000   29.051200
  H     -7.633810   48.232600   28.059100
  H     -7.228330   48.164600   29.854900
  H     -8.140840   46.870700   28.888400
  S    -11.951400   54.205500   33.357300
  C    -11.947200   54.019700   35.108600
  C    -11.845000   52.703000   35.487300
  C    -11.700400   51.802800   34.406500
  C    -11.794900   52.508000   33.136600
  H    -11.969100   52.431600   36.517800
  C    -11.675500   50.268800   34.649400
  H    -11.139900   50.067800   35.637900
  H    -11.124300   49.573400   33.994600
  C    -13.105400   49.773100   34.771300
  H    -13.671700   50.226900   33.932100
  H    -13.468800   50.253700   35.620300
  C    -13.460800   48.277200   34.879600
  H    -12.889000   47.773900   35.708100
  H    -13.333600   47.657600   33.904600
  H    -14.568600   48.234200   34.987900
  H    -10.853300   51.715500   28.311800
  H    -11.957900   54.811100   35.861200

 Total Charge           Charge          ....    0
 Multiplicity           Mult            ....    1
 Number of Electrons    NEL             ....  134
 Basis Dimension        Dim             ....  322

ORBITAL ENERGIES
----------------

  NO   OCC          E(Eh)            E(eV)
   0   2.0000     -88.974351     -2421.1152
   1   2.0000     -88.960044     -2420.7259
   2   2.0000     -10.333638      -281.1926
   3   2.0000     -10.325208      -280.9632
   4   2.0000     -10.319549      -280.8092
   5   2.0000     -10.314035      -280.6592
   6   2.0000     -10.304480      -280.3992
   7   2.0000     -10.301428      -280.3161
   8   2.0000     -10.294847      -280.1370
   9   2.0000     -10.293728      -280.1066
  10   2.0000     -10.291847      -280.0554
  11   2.0000     -10.286367      -279.9063
  12   2.0000     -10.282649      -279.8051
  13   2.0000     -10.282266      -279.7947
  14   2.0000     -10.280598      -279.7493
  15   2.0000     -10.279345      -279.7152
  16   2.0000      -8.088985      -220.1125
  17   2.0000      -8.075992      -219.7589
  18   2.0000      -6.047400      -164.5581
  19   2.0000      -6.043445      -164.4505
  20   2.0000      -6.039895      -164.3539
  21   2.0000      -6.034546      -164.2083
  22   2.0000      -6.030157      -164.0889
  23   2.0000      -6.026797      -163.9975
  24   2.0000      -1.014265       -27.5996
  25   2.0000      -0.990329       -26.9482
  26   2.0000      -0.912403       -24.8278
  27   2.0000      -0.907992       -24.7077
  28   2.0000      -0.877774       -23.8854
  29   2.0000      -0.852332       -23.1931
  30   2.0000      -0.844031       -22.9672
  31   2.0000      -0.817851       -22.2549
  32   2.0000      -0.780752       -21.2453
  33   2.0000      -0.769533       -20.9401
  34   2.0000      -0.708511       -19.2796
  35   2.0000      -0.698413       -19.0048
  36   2.0000      -0.689516       -18.7627
  37   2.0000      -0.664209       -18.0741
  38   2.0000      -0.648016       -17.6334
  39   2.0000      -0.622997       -16.9526
  40   2.0000      -0.599522       -16.3138
  41   2.0000      -0.575378       -15.6568
  42   2.0000      -0.565732       -15.3944
  43   2.0000      -0.556920       -15.1546
  44   2.0000      -0.526417       -14.3245
  45   2.0000      -0.523378       -14.2418
  46   2.0000      -0.520457       -14.1624
  47   2.0000      -0.512199       -13.9376
  48   2.0000      -0.507499       -13.8097
  49   2.0000      -0.504717       -13.7340
  50   2.0000      -0.491531       -13.3752
  51   2.0000      -0.485125       -13.2009
  52   2.0000      -0.474517       -12.9123
  53   2.0000      -0.466279       -12.6881
  54   2.0000      -0.459826       -12.5125
  55   2.0000      -0.447179       -12.1684
  56   2.0000      -0.439433       -11.9576
  57   2.0000      -0.434381       -11.8201
  58   2.0000      -0.430961       -11.7271
  59   2.0000      -0.426963       -11.6182
  60   2.0000      -0.421878       -11.4799
  61   2.0000      -0.409123       -11.1328
  62   2.0000      -0.405138       -11.0244
  63   2.0000      -0.362180        -9.8554
  64   2.0000      -0.337648        -9.1879
  65   2.0000      -0.324765        -8.8373
  66   2.0000      -0.285627        -7.7723
  67   0.0000       0.022866         0.6222
  68   0.0000       0.080853         2.2001
  69   0.0000       0.113224         3.0810
  70   0.0000       0.124523         3.3884
  71   0.0000       0.133392         3.6298

MULLIKEN ATOMIC CHARGES
-----------------------
   0 S :    0.089867
   1 C :   -0.064612
   2 C :   -0.114848
   3 C :    0.040188
   4 C :   -0.124739
   5 H :   -0.012687
   6 C :    0.105248
   7 H :    0.019993
   8 H :   -0.005253
   9 C :   -0.078264
  10 H :    0.033757
  11 H :    0.015977
  12 C :   -0.045001
  13 H :    0.023612
  14 H :    0.040649
  15 H :    0.038014
  16 S :    0.131401
  17 C :   -0.099747
  18 C :   -0.023813
  19 C :   -0.046077
  20 C :   -0.140041
  21 H :    0.018190
  22 C :    0.033226
  23 H :    0.025970
  24 H :    0.027430
  25 C :   -0.064379
  26 H :    0.037411
  27 H :    0.003847
  28 C :   -0.071130
  29 H :    0.044111
  30 H :    0.044092
  31 H :    0.043532
  32 H :    0.015389
  33 H :    0.058687
Sum of atomic charges:    0.0000000

LOEWDIN ATOMIC CHARGES
----------------------
   0 S :    0.413331
   1 C :   -0.199422
   2 C :   -0.060667
   3 C :   -0.058016
   4 C :   -0.191769
   5 H :    0.020992
   6 C :   -0.023326
   7 H :    0.023987
   8 H :    0.023179
   9 C :   -0.039236
  10 H :    0.025804
  11 H :    0.018529
  12 C :   -0.070576
  13 H :    0.020391
  14 H :    0.030371
  15 H :    0.029202
  16 S :    0.433911
  17 C :   -0.190637
  18 C :   -0.067466
  19 C :   -0.049811
  20 C :   -0.209284
  21 H :    0.031864
  22 C :   -0.040022
  23 H :    0.033603
  24 H :    0.026807
  25 C :   -0.048558
  26 H :    0.032085
  27 H :    0.014112
  28 C :   -0.078626
  29 H :    0.028553
  30 H :    0.033228
  31 H :    0.034495
  32 H :    0.019187
  33 H :    0.033784

  Mayer bond orders larger than 0.100000
B(  0-S ,  1-C ) :   1.1303 B(  0-S ,  4-C ) :   1.1487 B(  1-C ,  2-C ) :   1.6102
B(  1-C , 32-H ) :   0.9816 B(  2-C ,  3-C ) :   1.2364 B(  2-C ,  6-C ) :   1.0229
B(  3-C ,  4-C ) :   1.5709 B(  3-C ,  5-H ) :   1.0057 B(  4-C , 20-C ) :   1.0552
B(  6-C ,  7-H ) :   0.9438 B(  6-C ,  8-H ) :   0.9361 B(  6-C ,  9-C ) :   1.0566
B(  9-C , 10-H ) :   0.9607 B(  9-C , 11-H ) :   0.9539 B(  9-C , 12-C ) :   1.0775
B( 12-C , 13-H ) :   0.9744 B( 12-C , 14-H ) :   0.9761 B( 12-C , 15-H ) :   0.9744
B( 16-S , 17-C ) :   1.1570 B( 16-S , 20-C ) :   1.1730 B( 17-C , 18-C ) :   1.5908
B( 17-C , 20-C ) :   0.1047 B( 17-C , 33-H ) :   0.9646 B( 18-C , 19-C ) :   1.2899
B( 18-C , 21-H ) :   0.9870 B( 19-C , 20-C ) :   1.5204 B( 19-C , 22-C ) :   1.0355
B( 22-C , 23-H ) :   0.9351 B( 22-C , 24-H ) :   0.9469 B( 22-C , 25-C ) :   1.0546
B( 25-C , 26-H ) :   0.9544 B( 25-C , 27-H ) :   0.9528 B( 25-C , 28-C ) :   1.0813
B( 28-C , 29-H ) :   0.9720 B( 28-C , 30-H ) :   0.9733 B( 28-C , 31-H ) :   0.9707

Dispersion correction           -0.013648065
FINAL SINGLE POINT ENERGY     -1339.866732591829

DIPOLE MOMENT
-------------
                                X             Y             Z
Electronic contribution:     -7.70144      28.74551      -1.12902
Nuclear contribution   :      8.00536     -29.13740       1.39358
                        -----------------------------------------
Total Dipole Moment    :      0.30392      -0.39189       0.26457
                        -----------------------------------------
Magnitude (a.u.)       :      0.56209
Magnitude (Debye)      :      1.42871

Rotational constants in cm-1:     0.017294     0.008542     0.006545
Rotational constants in MHz :   518.450076   256.086839   196.225056

                             ****ORCA TERMINATED NORMALLY****
TOTAL RUN TIME: 0 days 0 hours 0 minutes 34 seconds 666 msec
