                         Program Version 4.2.1 -  RELEASE  -
|  1> ! wB97X-D3 SP def2-SVP
|  2> %pal
|  3> nprocs 16
|  4> end
|  5>
|  6> * xyz 0 1
|  7> S 	 -34.7294 	 61.642 	 107.928
|  8> C 	 -35.4825 	 60.0792 	 108.034
|  9> C 	 -35.3546 	 59.4125 	 106.839
| 10> C 	 -34.8869 	 60.2339 	 105.788
| 11> C 	 -34.4655 	 61.4952 	 106.249
| 12> H 	 -34.7897 	 59.9884 	 104.765
| 13> C 	 -36.0489 	 58.0568 	 106.563
| 14> H 	 -36.5558 	 58.1193 	 105.613
| 15> H 	 -36.7897 	 57.9338 	 107.379
| 16> C 	 -35.2037 	 56.8458 	 106.634
| 17> H 	 -34.9511 	 56.7232 	 107.669
| 18> H 	 -35.7665 	 55.945 	 106.437
| 19> C 	 -34.0431 	 56.9173 	 105.587
| 20> H 	 -33.607 	 55.8683 	 105.45
| 21> H 	 -34.6427 	 57.2695 	 104.672
| 22> H 	 -33.3081 	 57.6474 	 105.821
| 23> S 	 -32.4135 	 63.3528 	 105.894
| 24> C 	 -32.1125 	 63.8595 	 104.251
| 25> C 	 -33.2006 	 63.5633 	 103.449
| 26> C 	 -34.2386 	 62.977 	 104.133
| 27> C 	 -33.8941 	 62.5667 	 105.409
| 28> H 	 -33.2045 	 63.7758 	 102.399
| 29> C 	 -35.5862 	 62.5914 	 103.405
| 30> H 	 -35.826 	 61.5233 	 103.589
| 31> H 	 -35.5063 	 62.5869 	 102.284
| 32> C 	 -36.8053 	 63.4515 	 103.809
| 33> H 	 -36.4663 	 64.4511 	 103.579
| 34> H 	 -36.8852 	 63.4525 	 104.943
| 35> C 	 -38.1183 	 63.018 	 103.156
| 36> H 	 -38.3556 	 62.0081 	 103.524
| 37> H 	 -37.9101 	 63.0356 	 102.082
| 38> H 	 -38.9809 	 63.6728 	 103.298
| 39> H 	 -35.8612 	 59.6555 	 108.965
| 40> H 	 -31.1738 	 64.2772 	 103.904
| 41> *
| 42>
| 43>                          ****END OF INPUT****

CARTESIAN COORDINATES (ANGSTROEM)
---------------------------------
  S    -34.729400   61.642000  107.928000
  C    -35.482500   60.079200  108.034000
  C    -35.354600   59.412500  106.839000
  C    -34.886900   60.233900  105.788000
  C    -34.465500   61.495200  106.249000
  H    -34.789700   59.988400  104.765000
  C    -36.048900   58.056800  106.563000
  H    -36.555800   58.119300  105.613000
  H    -36.789700   57.933800  107.379000
  C    -35.203700   56.845800  106.634000
  H    -34.951100   56.723200  107.669000
  H    -35.766500   55.945000  106.437000
  C    -34.043100   56.917300  105.587000
  H    -33.607000   55.868300  105.450000
  H    -34.642700   57.269500  104.672000
  H    -33.308100   57.647400  105.821000
  S    -32.413500   63.352800  105.894000
  C    -32.112500   63.859500  104.251000
  C    -33.200600   63.563300  103.449000
  C    -34.238600   62.977000  104.133000
  C    -33.894100   62.566700  105.409000
  H    -33.204500   63.775800  102.399000
  C    -35.586200   62.591400  103.405000
  H    -35.826000   61.523300  103.589000
  H    -35.506300   62.586900  102.284000
  C    -36.805300   63.451500  103.809000
  H    -36.466300   64.451100  103.579000
  H    -36.885200   63.452500  104.943000
  C    -38.118300   63.018000  103.156000
  H    -38.355600   62.008100  103.524000
  H    -37.910100   63.035600  102.082000
  H    -38.980900   63.672800  103.298000
  H    -35.861200   59.655500  108.965000
  H    -31.173800   64.277200  103.904000

 Total Charge           Charge          ....    0
 Multiplicity           Mult            ....    1
 Number of Electrons    NEL             ....  134
 Basis Dimension        Dim             ....  322

ORBITAL ENERGIES
----------------

  NO   OCC          E(Eh)            E(eV)
   0   2.0000     -88.968246     -2420.9491
   1   2.0000     -88.967529     -2420.9295
   2   2.0000     -10.331397      -281.1316
   3   2.0000     -10.328567      -281.0546
   4   2.0000     -10.317856      -280.7631
   5   2.0000     -10.314426      -280.6698
   6   2.0000     -10.302527      -280.3460
   7   2.0000     -10.300811      -280.2993
   8   2.0000     -10.298742      -280.2430
   9   2.0000     -10.292438      -280.0715
  10   2.0000     -10.290221      -280.0112
  11   2.0000     -10.289288      -279.9858
  12   2.0000     -10.285943      -279.8947
  13   2.0000     -10.285638      -279.8864
  14   2.0000     -10.280594      -279.7492
  15   2.0000     -10.278482      -279.6917
  16   2.0000      -8.083934      -219.9750
  17   2.0000      -8.082610      -219.9390
  18   2.0000      -6.042300      -164.4193
  19   2.0000      -6.040963      -164.3830
  20   2.0000      -6.038184      -164.3073
  21   2.0000      -6.037071      -164.2770
  22   2.0000      -6.034920      -164.2185
  23   2.0000      -6.033515      -164.1803
  24   2.0000      -1.013391       -27.5758
  25   2.0000      -0.992846       -27.0167
  26   2.0000      -0.917404       -24.9638
  27   2.0000      -0.901764       -24.5382
  28   2.0000      -0.868697       -23.6384
  29   2.0000      -0.853361       -23.2211
  30   2.0000      -0.845468       -23.0064
  31   2.0000      -0.811890       -22.0926
  32   2.0000      -0.780610       -21.2415
  33   2.0000      -0.771497       -20.9935
  34   2.0000      -0.702365       -19.1123
  35   2.0000      -0.700455       -19.0603
  36   2.0000      -0.688216       -18.7273
  37   2.0000      -0.666013       -18.1231
  38   2.0000      -0.644335       -17.5332
  39   2.0000      -0.614767       -16.7287
  40   2.0000      -0.596385       -16.2285
  41   2.0000      -0.579341       -15.7647
  42   2.0000      -0.560568       -15.2538
  43   2.0000      -0.549634       -14.9563
  44   2.0000      -0.547442       -14.8967
  45   2.0000      -0.520069       -14.1518
  46   2.0000      -0.517758       -14.0889
  47   2.0000      -0.511282       -13.9127
  48   2.0000      -0.506593       -13.7851
  49   2.0000      -0.497602       -13.5404
  50   2.0000      -0.490106       -13.3365
  51   2.0000      -0.479669       -13.0525
  52   2.0000      -0.473360       -12.8808
  53   2.0000      -0.466107       -12.6834
  54   2.0000      -0.464090       -12.6285
  55   2.0000      -0.449391       -12.2286
  56   2.0000      -0.443070       -12.0566
  57   2.0000      -0.434192       -11.8150
  58   2.0000      -0.427016       -11.6197
  59   2.0000      -0.424874       -11.5614
  60   2.0000      -0.416314       -11.3285
  61   2.0000      -0.413358       -11.2480
  62   2.0000      -0.409850       -11.1526
  63   2.0000      -0.348224        -9.4756
  64   2.0000      -0.337851        -9.1934
  65   2.0000      -0.334317        -9.0972
  66   2.0000      -0.287415        -7.8209
  67   0.0000       0.024920         0.6781
  68   0.0000       0.066379         1.8063
  69   0.0000       0.110270         3.0006
  70   0.0000       0.114133         3.1057
  71   0.0000       0.142055         3.8655

MULLIKEN ATOMIC CHARGES
-----------------------
   0 S :    0.119886
   1 C :   -0.134131
   2 C :   -0.057421
   3 C :    0.023231
   4 C :   -0.144320
   5 H :    0.005336
   6 C :    0.029140
   7 H :    0.027878
   8 H :    0.021268
   9 C :   -0.034572
  10 H :    0.012051
  11 H :    0.022249
  12 C :   -0.087556
  13 H :    0.053075
  14 H :    0.031398
  15 H :    0.053486
  16 S :    0.112251
  17 C :   -0.098079
  18 C :   -0.034685
  19 C :   -0.011206
  20 C :   -0.148322
  21 H :    0.015205
  22 C :    0.018844
  23 H :    0.013468
  24 H :    0.020818
  25 C :   -0.082404
  26 H :    0.020374
  27 H :    0.041696
  28 C :   -0.032953
  29 H :    0.039854
  30 H :    0.026564
  31 H :    0.042706
  32 H :    0.055653
  33 H :    0.059215
Sum of atomic charges:   -0.0000000

LOEWDIN ATOMIC CHARGES
----------------------
   0 S :    0.432536
   1 C :   -0.202669
   2 C :   -0.063514
   3 C :   -0.060358
   4 C :   -0.203554
   5 H :    0.023366
   6 C :   -0.028838
   7 H :    0.024619
   8 H :    0.032917
   9 C :   -0.045751
  10 H :    0.017203
  11 H :    0.023310
  12 C :   -0.067832
  13 H :    0.035086
  14 H :    0.031601
  15 H :    0.020671
  16 S :    0.412854
  17 C :   -0.185475
  18 C :   -0.069188
  19 C :   -0.059654
  20 C :   -0.197419
  21 H :    0.031634
  22 C :   -0.034059
  23 H :    0.023888
  24 H :    0.027453
  25 C :   -0.046891
  26 H :    0.018720
  27 H :    0.029652
  28 C :   -0.065808
  29 H :    0.029809
  30 H :    0.025634
  31 H :    0.029150
  32 H :    0.030930
  33 H :    0.029976

  Mayer bond orders larger than 0.100000
B(  0-S ,  1-C ) :   1.1495 B(  0-S ,  4-C ) :   1.1810 B(  1-C ,  2-C ) :   1.5945
B(  1-C ,  4-C ) :   0.1036 B(  1-C , 32-H ) :   0.9664 B(  2-C ,  3-C ) :   1.2572
B(  2-C ,  6-C ) :   1.0040 B(  3-C ,  4-C ) :   1.5395 B(  3-C ,  5-H ) :   0.9995
B(  4-C , 20-C ) :   1.0279 B(  6-C ,  7-H ) :   0.9493 B(  6-C ,  8-H ) :   0.9457
B(  6-C ,  9-C ) :   1.0899 B(  9-C , 10-H ) :   0.9507 B(  9-C , 11-H ) :   0.9531
B(  9-C , 12-C ) :   1.0583 B( 12-C , 13-H ) :   0.9753 B( 12-C , 14-H ) :   0.9738
B( 12-C , 15-H ) :   0.9756 B( 16-S , 17-C ) :   1.1647 B( 16-S , 20-C ) :   1.1542
B( 17-C , 18-C ) :   1.5671 B( 17-C , 20-C ) :   0.1113 B( 17-C , 33-H ) :   0.9711
B( 18-C , 19-C ) :   1.2864 B( 18-C , 21-H ) :   0.9975 B( 19-C , 20-C ) :   1.5595
B( 19-C , 22-C ) :   1.0205 B( 22-C , 23-H ) :   0.9397 B( 22-C , 24-H ) :   0.9451
B( 22-C , 25-C ) :   1.0464 B( 25-C , 26-H ) :   0.9549 B( 25-C , 27-H ) :   0.9590
B( 25-C , 28-C ) :   1.0720 B( 28-C , 29-H ) :   0.9744 B( 28-C , 30-H ) :   0.9735
B( 28-C , 31-H ) :   0.9748

Dispersion correction           -0.014443422
FINAL SINGLE POINT ENERGY     -1339.874124929108

DIPOLE MOMENT
-------------
                                X             Y             Z
Electronic contribution:     15.62947      15.78883      13.76206
Nuclear contribution   :    -15.89958     -16.16346     -14.17112
                        -----------------------------------------
Total Dipole Moment    :     -0.27011      -0.37464      -0.40906
                        -----------------------------------------
Magnitude (a.u.)       :      0.61696
Magnitude (Debye)      :      1.56820

Rotational constants in cm-1:     0.016784     0.009023     0.007616
Rotational constants in MHz :   503.158903   270.508438   228.307195

                             ****ORCA TERMINATED NORMALLY****
TOTAL RUN TIME: 0 days 0 hours 0 minutes 30 seconds 607 msec
