                         Program Version 4.2.1 -  RELEASE  -
|  1> ! wB97X-D3 SP def2-SVP
|  2> %pal
|  3> nprocs 16
|  4> end
|  5>
|  6> * xyz 0 1
|  7> S 	 -105.805 	 45.5992 	 120.646
|  8> C 	 -106.306 	 46.6293 	 121.925
|  9> C 	 -105.328 	 46.7099 	 122.892
| 10> C 	 -104.269 	 45.7168 	 122.731
| 11> C 	 -104.477 	 44.9767 	 121.557
| 12> H 	 -103.427 	 45.5144 	 123.438
| 13> C 	 -105.364 	 47.6844 	 124.076
| 14> H 	 -105.389 	 47.0119 	 124.921
| 15> H 	 -106.293 	 48.3164 	 124.064
| 16> C 	 -104.192 	 48.7065 	 124.07
| 17> H 	 -104.141 	 49.3868 	 124.94
| 18> H 	 -103.17 	 48.3037 	 124.121
| 19> C 	 -104.235 	 49.558 	 122.771
| 20> H 	 -103.679 	 50.4699 	 122.896
| 21> H 	 -103.696 	 49.0222 	 121.986
| 22> H 	 -105.237 	 49.7943 	 122.424
| 23> S 	 -104.578 	 42.7529 	 119.932
| 24> C 	 -103.156 	 41.8217 	 119.688
| 25> C 	 -102.054 	 42.3142 	 120.292
| 26> C 	 -102.316 	 43.4311 	 121.159
| 27> C 	 -103.639 	 43.8726 	 120.953
| 28> H 	 -101.16 	 41.7678 	 120.114
| 29> C 	 -101.216 	 44.0679 	 121.945
| 30> H 	 -101.315 	 45.098 	 121.977
| 31> H 	 -100.252 	 44.0163 	 121.412
| 32> C 	 -100.998 	 43.5856 	 123.379
| 33> H 	 -100.764 	 42.5082 	 123.303
| 34> H 	 -101.867 	 43.6423 	 124.025
| 35> C 	 -99.9457 	 44.4207 	 124.14
| 36> H 	 -100.352 	 45.4553 	 124.283
| 37> H 	 -99.0334 	 44.4857 	 123.567
| 38> H 	 -99.8755 	 44.1082 	 125.135
| 39> H 	 -107.029 	 47.4472 	 121.879
| 40> H 	 -103.123 	 41.0998 	 118.88
| 41> *
| 42>
| 43>                          ****END OF INPUT****

CARTESIAN COORDINATES (ANGSTROEM)
---------------------------------
  S    -105.805000   45.599200  120.646000
  C    -106.306000   46.629300  121.925000
  C    -105.328000   46.709900  122.892000
  C    -104.269000   45.716800  122.731000
  C    -104.477000   44.976700  121.557000
  H    -103.427000   45.514400  123.438000
  C    -105.364000   47.684400  124.076000
  H    -105.389000   47.011900  124.921000
  H    -106.293000   48.316400  124.064000
  C    -104.192000   48.706500  124.070000
  H    -104.141000   49.386800  124.940000
  H    -103.170000   48.303700  124.121000
  C    -104.235000   49.558000  122.771000
  H    -103.679000   50.469900  122.896000
  H    -103.696000   49.022200  121.986000
  H    -105.237000   49.794300  122.424000
  S    -104.578000   42.752900  119.932000
  C    -103.156000   41.821700  119.688000
  C    -102.054000   42.314200  120.292000
  C    -102.316000   43.431100  121.159000
  C    -103.639000   43.872600  120.953000
  H    -101.160000   41.767800  120.114000
  C    -101.216000   44.067900  121.945000
  H    -101.315000   45.098000  121.977000
  H    -100.252000   44.016300  121.412000
  C    -100.998000   43.585600  123.379000
  H    -100.764000   42.508200  123.303000
  H    -101.867000   43.642300  124.025000
  C    -99.945700   44.420700  124.140000
  H    -100.352000   45.455300  124.283000
  H    -99.033400   44.485700  123.567000
  H    -99.875500   44.108200  125.135000
  H    -107.029000   47.447200  121.879000
  H    -103.123000   41.099800  118.880000

 Total Charge           Charge          ....    0
 Multiplicity           Mult            ....    1
 Number of Electrons    NEL             ....  134
 Basis Dimension        Dim             ....  322

ORBITAL ENERGIES
----------------

  NO   OCC          E(Eh)            E(eV)
   0   2.0000     -88.967016     -2420.9156
   1   2.0000     -88.964722     -2420.8532
   2   2.0000     -10.337235      -281.2905
   3   2.0000     -10.335987      -281.2565
   4   2.0000     -10.310672      -280.5677
   5   2.0000     -10.309377      -280.5324
   6   2.0000     -10.308836      -280.5177
   7   2.0000     -10.304254      -280.3930
   8   2.0000     -10.302332      -280.3407
   9   2.0000     -10.299650      -280.2677
  10   2.0000     -10.292355      -280.0692
  11   2.0000     -10.289697      -279.9969
  12   2.0000     -10.288918      -279.9757
  13   2.0000     -10.288518      -279.9648
  14   2.0000     -10.280474      -279.7459
  15   2.0000     -10.273516      -279.5566
  16   2.0000      -8.082507      -219.9362
  17   2.0000      -8.079889      -219.8650
  18   2.0000      -6.041007      -164.3842
  19   2.0000      -6.038350      -164.3119
  20   2.0000      -6.036977      -164.2745
  21   2.0000      -6.034378      -164.2038
  22   2.0000      -6.033152      -164.1704
  23   2.0000      -6.030619      -164.1015
  24   2.0000      -1.007553       -27.4169
  25   2.0000      -0.987432       -26.8694
  26   2.0000      -0.915304       -24.9067
  27   2.0000      -0.907498       -24.6943
  28   2.0000      -0.864609       -23.5272
  29   2.0000      -0.856606       -23.3094
  30   2.0000      -0.842079       -22.9141
  31   2.0000      -0.815690       -22.1961
  32   2.0000      -0.785979       -21.3876
  33   2.0000      -0.773857       -21.0577
  34   2.0000      -0.708759       -19.2863
  35   2.0000      -0.700922       -19.0731
  36   2.0000      -0.689724       -18.7684
  37   2.0000      -0.660817       -17.9817
  38   2.0000      -0.632205       -17.2032
  39   2.0000      -0.622307       -16.9338
  40   2.0000      -0.604342       -16.4450
  41   2.0000      -0.570234       -15.5169
  42   2.0000      -0.562195       -15.2981
  43   2.0000      -0.557443       -15.1688
  44   2.0000      -0.537057       -14.6141
  45   2.0000      -0.528765       -14.3884
  46   2.0000      -0.521010       -14.1774
  47   2.0000      -0.508433       -13.8352
  48   2.0000      -0.501247       -13.6396
  49   2.0000      -0.491595       -13.3770
  50   2.0000      -0.488492       -13.2925
  51   2.0000      -0.483660       -13.1611
  52   2.0000      -0.471637       -12.8339
  53   2.0000      -0.464596       -12.6423
  54   2.0000      -0.454449       -12.3662
  55   2.0000      -0.451150       -12.2764
  56   2.0000      -0.444417       -12.0932
  57   2.0000      -0.442484       -12.0406
  58   2.0000      -0.436409       -11.8753
  59   2.0000      -0.433494       -11.7960
  60   2.0000      -0.424520       -11.5518
  61   2.0000      -0.413266       -11.2455
  62   2.0000      -0.411372       -11.1940
  63   2.0000      -0.357536        -9.7291
  64   2.0000      -0.333976        -9.0880
  65   2.0000      -0.327192        -8.9033
  66   2.0000      -0.288336        -7.8460
  67   0.0000       0.023426         0.6374
  68   0.0000       0.081829         2.2267
  69   0.0000       0.103720         2.8224
  70   0.0000       0.117767         3.2046
  71   0.0000       0.119261         3.2453

MULLIKEN ATOMIC CHARGES
-----------------------
   0 S :    0.106871
   1 C :   -0.091572
   2 C :   -0.137336
   3 C :   -0.003949
   4 C :   -0.109306
   5 H :    0.024236
   6 C :    0.063775
   7 H :    0.040163
   8 H :    0.032363
   9 C :   -0.086311
  10 H :    0.031097
  11 H :    0.023525
  12 C :   -0.053925
  13 H :    0.025865
  14 H :    0.042149
  15 H :    0.025026
  16 S :    0.092584
  17 C :   -0.079966
  18 C :   -0.026287
  19 C :   -0.017440
  20 C :   -0.127659
  21 H :    0.008502
  22 C :    0.061785
  23 H :   -0.006606
  24 H :    0.021626
  25 C :   -0.089609
  26 H :    0.029793
  27 H :    0.027211
  28 C :   -0.019524
  29 H :    0.022759
  30 H :    0.034946
  31 H :    0.027804
  32 H :    0.051212
  33 H :    0.056197
Sum of atomic charges:    0.0000000

LOEWDIN ATOMIC CHARGES
----------------------
   0 S :    0.425093
   1 C :   -0.223053
   2 C :   -0.057691
   3 C :   -0.078532
   4 C :   -0.191130
   5 H :    0.037702
   6 C :   -0.029415
   7 H :    0.031060
   8 H :    0.034546
   9 C :   -0.047311
  10 H :    0.024143
  11 H :    0.022792
  12 C :   -0.064169
  13 H :    0.023123
  14 H :    0.029514
  15 H :    0.019765
  16 S :    0.400109
  17 C :   -0.191896
  18 C :   -0.067346
  19 C :   -0.049326
  20 C :   -0.178000
  21 H :    0.029728
  22 C :   -0.036313
  23 H :    0.018307
  24 H :    0.037052
  25 C :   -0.038922
  26 H :    0.024526
  27 H :    0.020727
  28 C :   -0.058091
  29 H :    0.029346
  30 H :    0.022949
  31 H :    0.021140
  32 H :    0.032455
  33 H :    0.027116

  Mayer bond orders larger than 0.100000
B(  0-S ,  1-C ) :   1.1262 B(  0-S ,  4-C ) :   1.1775 B(  1-C ,  2-C ) :   1.6332
B(  1-C , 32-H ) :   0.9586 B(  2-C ,  3-C ) :   1.2258 B(  2-C ,  6-C ) :   1.0139
B(  3-C ,  4-C ) :   1.5653 B(  3-C ,  5-H ) :   0.9874 B(  4-C , 20-C ) :   1.0195
B(  6-C ,  7-H ) :   0.9455 B(  6-C ,  8-H ) :   0.9509 B(  6-C ,  9-C ) :   1.0567
B(  9-C , 10-H ) :   0.9657 B(  9-C , 11-H ) :   0.9578 B(  9-C , 12-C ) :   1.0623
B( 12-C , 13-H ) :   0.9745 B( 12-C , 14-H ) :   0.9753 B( 12-C , 15-H ) :   0.9806
B( 16-S , 17-C ) :   1.1475 B( 16-S , 20-C ) :   1.1457 B( 17-C , 18-C ) :   1.6482
B( 17-C , 33-H ) :   0.9587 B( 18-C , 19-C ) :   1.2079 B( 18-C , 21-H ) :   0.9946
B( 19-C , 20-C ) :   1.6038 B( 19-C , 22-C ) :   1.0466 B( 22-C , 23-H ) :   0.9318
B( 22-C , 24-H ) :   0.9335 B( 22-C , 25-C ) :   1.0558 B( 25-C , 26-H ) :   0.9530
B( 25-C , 27-H ) :   0.9552 B( 25-C , 28-C ) :   1.0840 B( 28-C , 29-H ) :   0.9702
B( 28-C , 30-H ) :   0.9755 B( 28-C , 31-H ) :   0.9724

Dispersion correction           -0.014524262
FINAL SINGLE POINT ENERGY     -1339.877429127592

DIPOLE MOMENT
-------------
                                X             Y             Z
Electronic contribution:    -17.05709     -15.69018     -19.35100
Nuclear contribution   :     17.65983      15.96445      19.69899
                        -----------------------------------------
Total Dipole Moment    :      0.60274       0.27427       0.34799
                        -----------------------------------------
Magnitude (a.u.)       :      0.74808
Magnitude (Debye)      :      1.90146

Rotational constants in cm-1:     0.017213     0.009849     0.006701
Rotational constants in MHz :   516.034084   295.272240   200.877876

                             ****ORCA TERMINATED NORMALLY****
TOTAL RUN TIME: 0 days 0 hours 0 minutes 33 seconds 700 msec
