                         Program Version 4.2.1 -  RELEASE  -
|  1> ! wB97X-D3 SP def2-SVP
|  2> %pal
|  3> nprocs 16
|  4> end
|  5>
|  6> * xyz 0 1
|  7> S 	 0.620812 	 -24.8661 	 58.4851
|  8> C 	 -0.680074 	 -25.6049 	 59.3455
|  9> C 	 -1.60481 	 -26.1798 	 58.4699
| 10> C 	 -1.3718 	 -25.8529 	 57.0801
| 11> C 	 -0.196744 	 -25.1046 	 56.937
| 12> H 	 -2.02317 	 -26.1111 	 56.2159
| 13> C 	 -2.87926 	 -26.9326 	 58.8839
| 14> H 	 -3.00573 	 -26.75 	 59.9296
| 15> H 	 -2.72603 	 -27.9908 	 58.6611
| 16> C 	 -4.1376 	 -26.4541 	 58.1553
| 17> H 	 -4.18198 	 -25.3463 	 58.0847
| 18> H 	 -4.15837 	 -26.6277 	 57.1185
| 19> C 	 -5.53313 	 -26.8296 	 58.5944
| 20> H 	 -5.57377 	 -27.9079 	 58.4876
| 21> H 	 -5.84429 	 -26.5581 	 59.5613
| 22> H 	 -6.27931 	 -26.5013 	 57.9038
| 23> S 	 2.00856 	 -24.5334 	 55.4333
| 24> C 	 1.77219 	 -24.046 	 53.7592
| 25> C 	 0.483233 	 -23.6744 	 53.497
| 26> C 	 -0.441006 	 -24.1053 	 54.5221
| 27> C 	 0.215278 	 -24.5407 	 55.6957
| 28> H 	 0.220322 	 -23.078 	 52.6238
| 29> C 	 -1.89097 	 -23.7173 	 54.4797
| 30> H 	 -2.39798 	 -23.8391 	 55.418
| 31> H 	 -2.37203 	 -24.3346 	 53.7505
| 32> C 	 -2.301 	 -22.3038 	 53.9829
| 33> H 	 -3.41108 	 -22.3402 	 53.8915
| 34> H 	 -2.08654 	 -22.0689 	 53.0368
| 35> C 	 -1.8992 	 -21.1681 	 54.9112
| 36> H 	 -2.47598 	 -21.222 	 55.8927
| 37> H 	 -2.094 	 -20.2088 	 54.5163
| 38> H 	 -0.830587 	 -21.2016 	 54.9816
| 39> H 	 -0.678142 	 -25.73 	 60.4043
| 40> H 	 2.558 	 -23.8476 	 53.0537
| 41> *
| 42>
| 43>                          ****END OF INPUT****

CARTESIAN COORDINATES (ANGSTROEM)
---------------------------------
  S      0.620812  -24.866100   58.485100
  C     -0.680074  -25.604900   59.345500
  C     -1.604810  -26.179800   58.469900
  C     -1.371800  -25.852900   57.080100
  C     -0.196744  -25.104600   56.937000
  H     -2.023170  -26.111100   56.215900
  C     -2.879260  -26.932600   58.883900
  H     -3.005730  -26.750000   59.929600
  H     -2.726030  -27.990800   58.661100
  C     -4.137600  -26.454100   58.155300
  H     -4.181980  -25.346300   58.084700
  H     -4.158370  -26.627700   57.118500
  C     -5.533130  -26.829600   58.594400
  H     -5.573770  -27.907900   58.487600
  H     -5.844290  -26.558100   59.561300
  H     -6.279310  -26.501300   57.903800
  S      2.008560  -24.533400   55.433300
  C      1.772190  -24.046000   53.759200
  C      0.483233  -23.674400   53.497000
  C     -0.441006  -24.105300   54.522100
  C      0.215278  -24.540700   55.695700
  H      0.220322  -23.078000   52.623800
  C     -1.890970  -23.717300   54.479700
  H     -2.397980  -23.839100   55.418000
  H     -2.372030  -24.334600   53.750500
  C     -2.301000  -22.303800   53.982900
  H     -3.411080  -22.340200   53.891500
  H     -2.086540  -22.068900   53.036800
  C     -1.899200  -21.168100   54.911200
  H     -2.475980  -21.222000   55.892700
  H     -2.094000  -20.208800   54.516300
  H     -0.830587  -21.201600   54.981600
  H     -0.678142  -25.730000   60.404300
  H      2.558000  -23.847600   53.053700

 Total Charge           Charge          ....    0
 Multiplicity           Mult            ....    1
 Number of Electrons    NEL             ....  134
 Basis Dimension        Dim             ....  322

ORBITAL ENERGIES
----------------

  NO   OCC          E(Eh)            E(eV)
   0   2.0000     -88.969283     -2420.9773
   1   2.0000     -88.963206     -2420.8119
   2   2.0000     -10.332403      -281.1590
   3   2.0000     -10.331066      -281.1226
   4   2.0000     -10.317373      -280.7500
   5   2.0000     -10.314084      -280.6605
   6   2.0000     -10.308764      -280.5157
   7   2.0000     -10.305750      -280.4337
   8   2.0000     -10.298966      -280.2491
   9   2.0000     -10.296324      -280.1772
  10   2.0000     -10.294558      -280.1292
  11   2.0000     -10.288141      -279.9546
  12   2.0000     -10.281627      -279.7773
  13   2.0000     -10.279365      -279.7157
  14   2.0000     -10.271199      -279.4935
  15   2.0000     -10.270888      -279.4851
  16   2.0000      -8.084017      -219.9773
  17   2.0000      -8.077298      -219.7945
  18   2.0000      -6.042673      -164.4295
  19   2.0000      -6.038558      -164.3175
  20   2.0000      -6.035970      -164.2471
  21   2.0000      -6.034596      -164.2097
  22   2.0000      -6.032058      -164.1406
  23   2.0000      -6.027776      -164.0241
  24   2.0000      -1.003016       -27.2934
  25   2.0000      -0.978729       -26.6326
  26   2.0000      -0.912965       -24.8430
  27   2.0000      -0.909882       -24.7591
  28   2.0000      -0.874978       -23.8094
  29   2.0000      -0.854374       -23.2487
  30   2.0000      -0.845316       -23.0022
  31   2.0000      -0.814831       -22.1727
  32   2.0000      -0.785791       -21.3825
  33   2.0000      -0.774048       -21.0629
  34   2.0000      -0.716035       -19.4843
  35   2.0000      -0.701421       -19.0866
  36   2.0000      -0.696210       -18.9448
  37   2.0000      -0.657908       -17.9026
  38   2.0000      -0.639412       -17.3993
  39   2.0000      -0.619139       -16.8476
  40   2.0000      -0.599864       -16.3231
  41   2.0000      -0.570187       -15.5156
  42   2.0000      -0.563577       -15.3357
  43   2.0000      -0.556926       -15.1547
  44   2.0000      -0.539475       -14.6799
  45   2.0000      -0.528455       -14.3800
  46   2.0000      -0.518088       -14.0979
  47   2.0000      -0.514615       -14.0034
  48   2.0000      -0.506513       -13.7829
  49   2.0000      -0.501584       -13.6488
  50   2.0000      -0.488680       -13.2977
  51   2.0000      -0.483059       -13.1447
  52   2.0000      -0.477828       -13.0024
  53   2.0000      -0.467221       -12.7137
  54   2.0000      -0.460466       -12.5299
  55   2.0000      -0.450691       -12.2639
  56   2.0000      -0.441382       -12.0106
  57   2.0000      -0.435454       -11.8493
  58   2.0000      -0.432647       -11.7729
  59   2.0000      -0.426679       -11.6105
  60   2.0000      -0.423662       -11.5284
  61   2.0000      -0.410964       -11.1829
  62   2.0000      -0.405495       -11.0341
  63   2.0000      -0.358715        -9.7611
  64   2.0000      -0.332319        -9.0428
  65   2.0000      -0.326480        -8.8840
  66   2.0000      -0.279497        -7.6055
  67   0.0000       0.019960         0.5431
  68   0.0000       0.069448         1.8898
  69   0.0000       0.106461         2.8969
  70   0.0000       0.116842         3.1794
  71   0.0000       0.130738         3.5576

MULLIKEN ATOMIC CHARGES
-----------------------
   0 S :    0.118225
   1 C :   -0.114903
   2 C :   -0.109274
   3 C :   -0.025256
   4 C :   -0.097570
   5 H :    0.040980
   6 C :    0.149941
   7 H :    0.013508
   8 H :    0.043776
   9 C :   -0.128867
  10 H :    0.021663
  11 H :    0.007174
  12 C :   -0.003303
  13 H :    0.013630
  14 H :    0.024016
  15 H :    0.021442
  16 S :    0.077898
  17 C :   -0.071591
  18 C :   -0.040106
  19 C :   -0.039710
  20 C :   -0.146648
  21 H :    0.028750
  22 C :    0.063228
  23 H :    0.024852
  24 H :    0.022054
  25 C :   -0.058864
  26 H :    0.017986
  27 H :   -0.012651
  28 C :   -0.027750
  29 H :    0.042925
  30 H :    0.015302
  31 H :    0.033720
  32 H :    0.042914
  33 H :    0.052509
Sum of atomic charges:    0.0000000

LOEWDIN ATOMIC CHARGES
----------------------
   0 S :    0.408639
   1 C :   -0.205505
   2 C :   -0.056106
   3 C :   -0.065249
   4 C :   -0.190641
   5 H :    0.040996
   6 C :   -0.023124
   7 H :    0.027566
   8 H :    0.036576
   9 C :   -0.053292
  10 H :    0.026320
  11 H :    0.016279
  12 C :   -0.056173
  13 H :    0.023056
  14 H :    0.015365
  15 H :    0.027663
  16 S :    0.366934
  17 C :   -0.173452
  18 C :   -0.071039
  19 C :   -0.055697
  20 C :   -0.168975
  21 H :    0.035114
  22 C :   -0.029455
  23 H :    0.028621
  24 H :    0.031336
  25 C :   -0.034562
  26 H :    0.030069
  27 H :    0.000996
  28 C :   -0.062184
  29 H :    0.035166
  30 H :    0.017815
  31 H :    0.025313
  32 H :    0.024243
  33 H :    0.027385

  Mayer bond orders larger than 0.100000
B(  0-S ,  1-C ) :   1.1316 B(  0-S ,  4-C ) :   1.1430 B(  1-C ,  2-C ) :   1.6155
B(  1-C , 32-H ) :   0.9710 B(  2-C ,  3-C ) :   1.2320 B(  2-C ,  6-C ) :   1.0255
B(  3-C ,  4-C ) :   1.5497 B(  3-C ,  5-H ) :   0.9874 B(  4-C , 20-C ) :   1.0923
B(  6-C ,  7-H ) :   0.9437 B(  6-C ,  8-H ) :   0.9284 B(  6-C ,  9-C ) :   1.0559
B(  9-C , 10-H ) :   0.9570 B(  9-C , 11-H ) :   0.9444 B(  9-C , 12-C ) :   1.1026
B( 12-C , 13-H ) :   0.9707 B( 12-C , 14-H ) :   0.9762 B( 12-C , 15-H ) :   0.9688
B( 16-S , 17-C ) :   1.1465 B( 16-S , 20-C ) :   1.1042 B( 17-C , 18-C ) :   1.6384
B( 17-C , 33-H ) :   0.9644 B( 18-C , 19-C ) :   1.2131 B( 18-C , 21-H ) :   0.9827
B( 19-C , 20-C ) :   1.5882 B( 19-C , 22-C ) :   1.0517 B( 22-C , 23-H ) :   0.9461
B( 22-C , 24-H ) :   0.9141 B( 22-C , 25-C ) :   1.0845 B( 25-C , 26-H ) :   0.9483
B( 25-C , 27-H ) :   0.9467 B( 25-C , 28-C ) :   1.0823 B( 28-C , 29-H ) :   0.9742
B( 28-C , 30-H ) :   0.9723 B( 28-C , 31-H ) :   0.9751

Dispersion correction           -0.014207029
FINAL SINGLE POINT ENERGY     -1339.858752568128

DIPOLE MOMENT
-------------
                                X             Y             Z
Electronic contribution:     29.72803      -3.02822       2.56293
Nuclear contribution   :    -30.44647       3.13092      -2.85607
                        -----------------------------------------
Total Dipole Moment    :     -0.71844       0.10270      -0.29315
                        -----------------------------------------
Magnitude (a.u.)       :      0.78272
Magnitude (Debye)      :      1.98951

Rotational constants in cm-1:     0.017813     0.008986     0.006814
Rotational constants in MHz :   534.025601   269.385933   204.281960

                             ****ORCA TERMINATED NORMALLY****
TOTAL RUN TIME: 0 days 0 hours 0 minutes 35 seconds 208 msec
