                         Program Version 4.2.1 -  RELEASE  -
|  1> ! wB97X-D3 SP def2-SVP
|  2> %pal
|  3> nprocs 16
|  4> end
|  5>
|  6> * xyz 0 1
|  7> S 	 62.9498 	 -4.89302 	 91.7715
|  8> C 	 61.5785 	 -4.55314 	 92.7744
|  9> C 	 61.918 	 -4.60869 	 94.0845
| 10> C 	 63.3039 	 -4.88448 	 94.3229
| 11> C 	 64.0058 	 -4.9581 	 93.1423
| 12> H 	 63.7614 	 -4.98046 	 95.2909
| 13> C 	 60.8875 	 -4.63857 	 95.2444
| 14> H 	 60.3289 	 -3.7237 	 95.1294
| 15> H 	 61.3442 	 -4.6092 	 96.1987
| 16> C 	 59.9902 	 -5.9298 	 95.1902
| 17> H 	 59.1389 	 -5.7775 	 95.9215
| 18> H 	 59.4892 	 -6.07898 	 94.2415
| 19> C 	 60.8836 	 -7.16616 	 95.4584
| 20> H 	 60.2088 	 -8.0146 	 95.3026
| 21> H 	 61.7448 	 -7.1991 	 94.7708
| 22> H 	 61.3677 	 -7.06992 	 96.4174
| 23> S 	 65.7284 	 -6.90785 	 92.1485
| 24> C 	 67.3948 	 -6.56685 	 92.0915
| 25> C 	 67.7142 	 -5.30191 	 92.6599
| 26> C 	 66.5784 	 -4.6268 	 93.1455
| 27> C 	 65.3801 	 -5.37122 	 92.9172
| 28> H 	 68.7087 	 -4.94872 	 92.8155
| 29> C 	 66.7031 	 -3.19219 	 93.6493
| 30> H 	 67.2022 	 -3.12439 	 94.5799
| 31> H 	 65.6655 	 -2.83997 	 93.757
| 32> C 	 67.3868 	 -2.23907 	 92.597
| 33> H 	 67.1862 	 -2.71903 	 91.6424
| 34> H 	 68.4382 	 -2.26742 	 92.7488
| 35> C 	 66.779 	 -0.815604 	 92.5922
| 36> H 	 67.0988 	 -0.281142 	 93.5059
| 37> H 	 65.6953 	 -0.751023 	 92.5381
| 38> H 	 67.2653 	 -0.27001 	 91.7906
| 39> H 	 60.5465 	 -4.62275 	 92.4523
| 40> H 	 68.263 	 -7.23715 	 91.8758
| 41> *
| 42>
| 43>                          ****END OF INPUT****

CARTESIAN COORDINATES (ANGSTROEM)
---------------------------------
  S     62.949800   -4.893020   91.771500
  C     61.578500   -4.553140   92.774400
  C     61.918000   -4.608690   94.084500
  C     63.303900   -4.884480   94.322900
  C     64.005800   -4.958100   93.142300
  H     63.761400   -4.980460   95.290900
  C     60.887500   -4.638570   95.244400
  H     60.328900   -3.723700   95.129400
  H     61.344200   -4.609200   96.198700
  C     59.990200   -5.929800   95.190200
  H     59.138900   -5.777500   95.921500
  H     59.489200   -6.078980   94.241500
  C     60.883600   -7.166160   95.458400
  H     60.208800   -8.014600   95.302600
  H     61.744800   -7.199100   94.770800
  H     61.367700   -7.069920   96.417400
  S     65.728400   -6.907850   92.148500
  C     67.394800   -6.566850   92.091500
  C     67.714200   -5.301910   92.659900
  C     66.578400   -4.626800   93.145500
  C     65.380100   -5.371220   92.917200
  H     68.708700   -4.948720   92.815500
  C     66.703100   -3.192190   93.649300
  H     67.202200   -3.124390   94.579900
  H     65.665500   -2.839970   93.757000
  C     67.386800   -2.239070   92.597000
  H     67.186200   -2.719030   91.642400
  H     68.438200   -2.267420   92.748800
  C     66.779000   -0.815604   92.592200
  H     67.098800   -0.281142   93.505900
  H     65.695300   -0.751023   92.538100
  H     67.265300   -0.270010   91.790600
  H     60.546500   -4.622750   92.452300
  H     68.263000   -7.237150   91.875800

 Total Charge           Charge          ....    0
 Multiplicity           Mult            ....    1
 Number of Electrons    NEL             ....  134
 Basis Dimension        Dim             ....  322

ORBITAL ENERGIES
----------------

  NO   OCC          E(Eh)            E(eV)
   0   2.0000     -88.973234     -2421.0848
   1   2.0000     -88.963580     -2420.8221
   2   2.0000     -10.325824      -280.9800
   3   2.0000     -10.325541      -280.9723
   4   2.0000     -10.319951      -280.8201
   5   2.0000     -10.306625      -280.4575
   6   2.0000     -10.302496      -280.3452
   7   2.0000     -10.296652      -280.1861
   8   2.0000     -10.292754      -280.0801
   9   2.0000     -10.291984      -280.0591
  10   2.0000     -10.290062      -280.0068
  11   2.0000     -10.289252      -279.9848
  12   2.0000     -10.286500      -279.9099
  13   2.0000     -10.283124      -279.8180
  14   2.0000     -10.278168      -279.6832
  15   2.0000     -10.276556      -279.6393
  16   2.0000      -8.087967      -220.0848
  17   2.0000      -8.079115      -219.8439
  18   2.0000      -6.046301      -164.5282
  19   2.0000      -6.042338      -164.4204
  20   2.0000      -6.039050      -164.3309
  21   2.0000      -6.037596      -164.2913
  22   2.0000      -6.033481      -164.1794
  23   2.0000      -6.029878      -164.0813
  24   2.0000      -1.009643       -27.4738
  25   2.0000      -0.986167       -26.8350
  26   2.0000      -0.906700       -24.6726
  27   2.0000      -0.904383       -24.6095
  28   2.0000      -0.865255       -23.5448
  29   2.0000      -0.850445       -23.1418
  30   2.0000      -0.843317       -22.9478
  31   2.0000      -0.809492       -22.0274
  32   2.0000      -0.781699       -21.2711
  33   2.0000      -0.768038       -20.8994
  34   2.0000      -0.702869       -19.1260
  35   2.0000      -0.701174       -19.0799
  36   2.0000      -0.693423       -18.8690
  37   2.0000      -0.655712       -17.8428
  38   2.0000      -0.641438       -17.4544
  39   2.0000      -0.614158       -16.7121
  40   2.0000      -0.592465       -16.1218
  41   2.0000      -0.572016       -15.5653
  42   2.0000      -0.565910       -15.3992
  43   2.0000      -0.552372       -15.0308
  44   2.0000      -0.535030       -14.5589
  45   2.0000      -0.518244       -14.1021
  46   2.0000      -0.515253       -14.0207
  47   2.0000      -0.512486       -13.9454
  48   2.0000      -0.501152       -13.6370
  49   2.0000      -0.494363       -13.4523
  50   2.0000      -0.486814       -13.2469
  51   2.0000      -0.478367       -13.0170
  52   2.0000      -0.477052       -12.9812
  53   2.0000      -0.468040       -12.7360
  54   2.0000      -0.459662       -12.5080
  55   2.0000      -0.448961       -12.2169
  56   2.0000      -0.437414       -11.9026
  57   2.0000      -0.435747       -11.8573
  58   2.0000      -0.429443       -11.6857
  59   2.0000      -0.425914       -11.5897
  60   2.0000      -0.421330       -11.4650
  61   2.0000      -0.416851       -11.3431
  62   2.0000      -0.411829       -11.2064
  63   2.0000      -0.338807        -9.2194
  64   2.0000      -0.333912        -9.0862
  65   2.0000      -0.326606        -8.8874
  66   2.0000      -0.296331        -8.0636
  67   0.0000       0.035564         0.9678
  68   0.0000       0.060427         1.6443
  69   0.0000       0.121701         3.3116
  70   0.0000       0.124487         3.3875
  71   0.0000       0.132322         3.6007

MULLIKEN ATOMIC CHARGES
-----------------------
   0 S :    0.107092
   1 C :   -0.112334
   2 C :   -0.125834
   3 C :    0.051633
   4 C :   -0.175550
   5 H :    0.009301
   6 C :    0.091749
   7 H :    0.029566
   8 H :    0.009058
   9 C :   -0.097710
  10 H :    0.039252
  11 H :    0.025174
  12 C :   -0.050381
  13 H :    0.044517
  14 H :    0.049025
  15 H :    0.024668
  16 S :    0.149832
  17 C :   -0.106428
  18 C :   -0.040496
  19 C :   -0.046750
  20 C :   -0.184917
  21 H :    0.008957
  22 C :    0.090097
  23 H :    0.029225
  24 H :    0.024138
  25 C :   -0.091524
  26 H :    0.040449
  27 H :    0.026716
  28 C :   -0.051924
  29 H :    0.027766
  30 H :    0.048151
  31 H :    0.033202
  32 H :    0.049558
  33 H :    0.074722
Sum of atomic charges:   -0.0000000

LOEWDIN ATOMIC CHARGES
----------------------
   0 S :    0.420345
   1 C :   -0.207382
   2 C :   -0.065724
   3 C :   -0.060498
   4 C :   -0.200943
   5 H :    0.031362
   6 C :   -0.024727
   7 H :    0.028677
   8 H :    0.020793
   9 C :   -0.039885
  10 H :    0.027574
  11 H :    0.017199
  12 C :   -0.064521
  13 H :    0.029882
  14 H :    0.031579
  15 H :    0.021517
  16 S :    0.443433
  17 C :   -0.216988
  18 C :   -0.072679
  19 C :   -0.049513
  20 C :   -0.220316
  21 H :    0.025617
  22 C :   -0.027741
  23 H :    0.024627
  24 H :    0.031234
  25 C :   -0.034852
  26 H :    0.025820
  27 H :    0.017661
  28 C :   -0.064399
  29 H :    0.026138
  30 H :    0.027805
  31 H :    0.027082
  32 H :    0.029364
  33 H :    0.042461

  Mayer bond orders larger than 0.100000
B(  0-S ,  1-C ) :   1.1343 B(  0-S ,  4-C ) :   1.1709 B(  1-C ,  2-C ) :   1.6289
B(  1-C , 32-H ) :   0.9667 B(  2-C ,  3-C ) :   1.2411 B(  2-C ,  6-C ) :   1.0109
B(  3-C ,  4-C ) :   1.5648 B(  3-C ,  5-H ) :   1.0024 B(  4-C , 20-C ) :   1.0212
B(  6-C ,  7-H ) :   0.9395 B(  6-C ,  8-H ) :   0.9493 B(  6-C ,  9-C ) :   1.0644
B(  9-C , 10-H ) :   0.9579 B(  9-C , 11-H ) :   0.9615 B(  9-C , 12-C ) :   1.0595
B( 12-C , 13-H ) :   0.9744 B( 12-C , 14-H ) :   0.9741 B( 12-C , 15-H ) :   0.9766
B( 16-S , 17-C ) :   1.1865 B( 16-S , 20-C ) :   1.1643 B( 17-C , 18-C ) :   1.5525
B( 17-C , 20-C ) :   0.1101 B( 17-C , 33-H ) :   0.9583 B( 18-C , 19-C ) :   1.3033
B( 18-C , 21-H ) :   0.9899 B( 19-C , 20-C ) :   1.5380 B( 19-C , 22-C ) :   1.0527
B( 22-C , 23-H ) :   0.9315 B( 22-C , 24-H ) :   0.9362 B( 22-C , 25-C ) :   1.0506
B( 25-C , 26-H ) :   0.9646 B( 25-C , 27-H ) :   0.9521 B( 25-C , 28-C ) :   1.0878
B( 28-C , 29-H ) :   0.9751 B( 28-C , 30-H ) :   0.9758 B( 28-C , 31-H ) :   0.9742

Dispersion correction           -0.014604302
FINAL SINGLE POINT ENERGY     -1339.881536371047

DIPOLE MOMENT
-------------
                                X             Y             Z
Electronic contribution:      3.92416     -11.38521     -12.54781
Nuclear contribution   :     -3.85114      11.51503      12.96854
                        -----------------------------------------
Total Dipole Moment    :      0.07302       0.12982       0.42073
                        -----------------------------------------
Magnitude (a.u.)       :      0.44632
Magnitude (Debye)      :      1.13445

Rotational constants in cm-1:     0.020582     0.008272     0.006941
Rotational constants in MHz :   617.033281   247.988226   208.095883

                             ****ORCA TERMINATED NORMALLY****
TOTAL RUN TIME: 0 days 0 hours 0 minutes 30 seconds 460 msec
