                         Program Version 4.2.1 -  RELEASE  -
|  1> ! wB97X-D3 SP def2-SVP
|  2> %pal
|  3> nprocs 16
|  4> end
|  5>
|  6> * xyz 0 1
|  7> S 	 -11.3134 	 34.6903 	 34.2738
|  8> C 	 -10.1909 	 35.1516 	 33.1599
|  9> C 	 -10.1389 	 36.5497 	 33.1143
| 10> C 	 -11.2536 	 37.1822 	 33.7494
| 11> C 	 -12.0622 	 36.2541 	 34.3602
| 12> H 	 -11.5511 	 38.2659 	 33.8018
| 13> C 	 -9.25134 	 37.2846 	 32.1993
| 14> H 	 -8.48269 	 36.6161 	 31.8531
| 15> H 	 -8.90416 	 38.033 	 32.8146
| 16> C 	 -9.98588 	 37.8094 	 30.9685
| 17> H 	 -10.6204 	 37.0817 	 30.4812
| 18> H 	 -10.6339 	 38.6043 	 31.2752
| 19> C 	 -9.06497 	 38.4041 	 29.8565
| 20> H 	 -8.34725 	 37.6242 	 29.3553
| 21> H 	 -9.82529 	 38.769 	 29.0712
| 22> H 	 -8.57384 	 39.3307 	 30.2494
| 23> S 	 -13.3291 	 37.9025 	 36.1157
| 24> C 	 -14.8847 	 37.4439 	 36.823
| 25> C 	 -15.3605 	 36.2724 	 36.2225
| 26> C 	 -14.4305 	 35.7133 	 35.2626
| 27> C 	 -13.2997 	 36.4827 	 35.0745
| 28> H 	 -16.3097 	 35.8483 	 36.5933
| 29> C 	 -14.8232 	 34.5043 	 34.4275
| 30> H 	 -15.0255 	 33.8067 	 35.1933
| 31> H 	 -13.9963 	 34.0153 	 33.9372
| 32> C 	 -16.0269 	 34.8328 	 33.4836
| 33> H 	 -15.6344 	 35.3219 	 32.606
| 34> H 	 -16.7585 	 35.3939 	 34.015
| 35> C 	 -16.8286 	 33.5888 	 32.9254
| 36> H 	 -16.0823 	 32.8394 	 32.4518
| 37> H 	 -17.5975 	 34.0371 	 32.2018
| 38> H 	 -17.2626 	 33.0069 	 33.7548
| 39> H 	 -9.48153 	 34.4957 	 32.7616
| 40> H 	 -15.4749 	 38.0409 	 37.5113
| 41> *
| 42>
| 43>                          ****END OF INPUT****

CARTESIAN COORDINATES (ANGSTROEM)
---------------------------------
  S    -11.313400   34.690300   34.273800
  C    -10.190900   35.151600   33.159900
  C    -10.138900   36.549700   33.114300
  C    -11.253600   37.182200   33.749400
  C    -12.062200   36.254100   34.360200
  H    -11.551100   38.265900   33.801800
  C     -9.251340   37.284600   32.199300
  H     -8.482690   36.616100   31.853100
  H     -8.904160   38.033000   32.814600
  C     -9.985880   37.809400   30.968500
  H    -10.620400   37.081700   30.481200
  H    -10.633900   38.604300   31.275200
  C     -9.064970   38.404100   29.856500
  H     -8.347250   37.624200   29.355300
  H     -9.825290   38.769000   29.071200
  H     -8.573840   39.330700   30.249400
  S    -13.329100   37.902500   36.115700
  C    -14.884700   37.443900   36.823000
  C    -15.360500   36.272400   36.222500
  C    -14.430500   35.713300   35.262600
  C    -13.299700   36.482700   35.074500
  H    -16.309700   35.848300   36.593300
  C    -14.823200   34.504300   34.427500
  H    -15.025500   33.806700   35.193300
  H    -13.996300   34.015300   33.937200
  C    -16.026900   34.832800   33.483600
  H    -15.634400   35.321900   32.606000
  H    -16.758500   35.393900   34.015000
  C    -16.828600   33.588800   32.925400
  H    -16.082300   32.839400   32.451800
  H    -17.597500   34.037100   32.201800
  H    -17.262600   33.006900   33.754800
  H     -9.481530   34.495700   32.761600
  H    -15.474900   38.040900   37.511300

 Total Charge           Charge          ....    0
 Multiplicity           Mult            ....    1
 Number of Electrons    NEL             ....  134
 Basis Dimension        Dim             ....  322

ORBITAL ENERGIES
----------------

  NO   OCC          E(Eh)            E(eV)
   0   2.0000     -88.964123     -2420.8369
   1   2.0000     -88.962446     -2420.7912
   2   2.0000     -10.325698      -280.9765
   3   2.0000     -10.325054      -280.9590
   4   2.0000     -10.323082      -280.9054
   5   2.0000     -10.306036      -280.4415
   6   2.0000     -10.301973      -280.3309
   7   2.0000     -10.301474      -280.3174
   8   2.0000     -10.296354      -280.1780
   9   2.0000     -10.295841      -280.1641
  10   2.0000     -10.294724      -280.1337
  11   2.0000     -10.291912      -280.0572
  12   2.0000     -10.285734      -279.8891
  13   2.0000     -10.284983      -279.8686
  14   2.0000     -10.281626      -279.7773
  15   2.0000     -10.276236      -279.6306
  16   2.0000      -8.079298      -219.8489
  17   2.0000      -8.078411      -219.8247
  18   2.0000      -6.037473      -164.2880
  19   2.0000      -6.037040      -164.2762
  20   2.0000      -6.033493      -164.1797
  21   2.0000      -6.032912      -164.1639
  22   2.0000      -6.030269      -164.0920
  23   2.0000      -6.029148      -164.0615
  24   2.0000      -1.015526       -27.6339
  25   2.0000      -0.986340       -26.8397
  26   2.0000      -0.915665       -24.9165
  27   2.0000      -0.901502       -24.5311
  28   2.0000      -0.874655       -23.8006
  29   2.0000      -0.849605       -23.1189
  30   2.0000      -0.841154       -22.8890
  31   2.0000      -0.816149       -22.2085
  32   2.0000      -0.778135       -21.1741
  33   2.0000      -0.763982       -20.7890
  34   2.0000      -0.703717       -19.1491
  35   2.0000      -0.696515       -18.9531
  36   2.0000      -0.690248       -18.7826
  37   2.0000      -0.669355       -18.2141
  38   2.0000      -0.642619       -17.4865
  39   2.0000      -0.616785       -16.7836
  40   2.0000      -0.593366       -16.1463
  41   2.0000      -0.571529       -15.5521
  42   2.0000      -0.564065       -15.3490
  43   2.0000      -0.556178       -15.1344
  44   2.0000      -0.528609       -14.3842
  45   2.0000      -0.525878       -14.3099
  46   2.0000      -0.517595       -14.0845
  47   2.0000      -0.513252       -13.9663
  48   2.0000      -0.512822       -13.9546
  49   2.0000      -0.500423       -13.6172
  50   2.0000      -0.492009       -13.3882
  51   2.0000      -0.473233       -12.8773
  52   2.0000      -0.470085       -12.7917
  53   2.0000      -0.459816       -12.5122
  54   2.0000      -0.458765       -12.4836
  55   2.0000      -0.443937       -12.0801
  56   2.0000      -0.439656       -11.9636
  57   2.0000      -0.434654       -11.8275
  58   2.0000      -0.431752       -11.7486
  59   2.0000      -0.426772       -11.6130
  60   2.0000      -0.425728       -11.5847
  61   2.0000      -0.411664       -11.2019
  62   2.0000      -0.405971       -11.0470
  63   2.0000      -0.355819        -9.6823
  64   2.0000      -0.329199        -8.9580
  65   2.0000      -0.324068        -8.8183
  66   2.0000      -0.287011        -7.8100
  67   0.0000       0.025953         0.7062
  68   0.0000       0.080811         2.1990
  69   0.0000       0.107689         2.9304
  70   0.0000       0.120094         3.2679
  71   0.0000       0.133095         3.6217

MULLIKEN ATOMIC CHARGES
-----------------------
   0 S :    0.131815
   1 C :   -0.103057
   2 C :   -0.107998
   3 C :   -0.029905
   4 C :   -0.126148
   5 H :    0.039250
   6 C :    0.145624
   7 H :    0.003790
   8 H :    0.010438
   9 C :   -0.081492
  10 H :    0.029706
  11 H :    0.018998
  12 C :   -0.108367
  13 H :    0.058061
  14 H :    0.044329
  15 H :    0.043202
  16 S :    0.087232
  17 C :   -0.092884
  18 C :   -0.056164
  19 C :   -0.075264
  20 C :   -0.131135
  21 H :    0.035146
  22 C :    0.104732
  23 H :    0.008601
  24 H :    0.011218
  25 C :   -0.054330
  26 H :    0.040304
  27 H :    0.028149
  28 C :   -0.109864
  29 H :    0.043669
  30 H :    0.060594
  31 H :    0.037128
  32 H :    0.033084
  33 H :    0.061538
Sum of atomic charges:   -0.0000000

LOEWDIN ATOMIC CHARGES
----------------------
   0 S :    0.463332
   1 C :   -0.226449
   2 C :   -0.059455
   3 C :   -0.076028
   4 C :   -0.196498
   5 H :    0.040432
   6 C :   -0.028326
   7 H :    0.026246
   8 H :    0.024159
   9 C :   -0.039105
  10 H :    0.023922
  11 H :    0.020058
  12 C :   -0.082365
  13 H :    0.034905
  14 H :    0.034963
  15 H :    0.026915
  16 S :    0.390998
  17 C :   -0.178155
  18 C :   -0.072183
  19 C :   -0.054951
  20 C :   -0.196107
  21 H :    0.036898
  22 C :   -0.034028
  23 H :    0.025582
  24 H :    0.017462
  25 C :   -0.030469
  26 H :    0.027683
  27 H :    0.019090
  28 C :   -0.079594
  29 H :    0.031351
  30 H :    0.038170
  31 H :    0.021600
  32 H :    0.018566
  33 H :    0.031383

  Mayer bond orders larger than 0.100000
B(  0-S ,  1-C ) :   1.1742 B(  0-S ,  4-C ) :   1.1710 B(  1-C ,  2-C ) :   1.5501
B(  1-C , 32-H ) :   0.9783 B(  2-C ,  3-C ) :   1.2445 B(  2-C ,  6-C ) :   1.0570
B(  3-C ,  4-C ) :   1.5401 B(  3-C ,  5-H ) :   0.9871 B(  4-C , 20-C ) :   1.0711
B(  6-C ,  7-H ) :   0.9377 B(  6-C ,  8-H ) :   0.9183 B(  6-C ,  9-C ) :   1.0708
B(  9-C , 10-H ) :   0.9599 B(  9-C , 11-H ) :   0.9488 B(  9-C , 12-C ) :   1.0831
B( 12-C , 13-H ) :   0.9727 B( 12-C , 14-H ) :   0.9744 B( 12-C , 15-H ) :   0.9741
B( 16-S , 17-C ) :   1.1492 B( 16-S , 20-C ) :   1.1189 B( 17-C , 18-C ) :   1.6230
B( 17-C , 33-H ) :   0.9670 B( 18-C , 19-C ) :   1.2159 B( 18-C , 21-H ) :   0.9835
B( 19-C , 20-C ) :   1.5988 B( 19-C , 22-C ) :   1.0415 B( 22-C , 23-H ) :   0.9264
B( 22-C , 24-H ) :   0.9291 B( 22-C , 25-C ) :   1.0529 B( 25-C , 26-H ) :   0.9587
B( 25-C , 27-H ) :   0.9617 B( 25-C , 28-C ) :   1.0696 B( 28-C , 29-H ) :   0.9758
B( 28-C , 30-H ) :   0.9739 B( 28-C , 31-H ) :   0.9775

Dispersion correction           -0.013668407
FINAL SINGLE POINT ENERGY     -1339.863354643229

DIPOLE MOMENT
-------------
                                X             Y             Z
Electronic contribution:      3.32469       1.36681      20.66788
Nuclear contribution   :     -3.52161      -1.37319     -20.90015
                        -----------------------------------------
Total Dipole Moment    :     -0.19692      -0.00638      -0.23227
                        -----------------------------------------
Magnitude (a.u.)       :      0.30458
Magnitude (Debye)      :      0.77417

Rotational constants in cm-1:     0.019027     0.007660     0.006665
Rotational constants in MHz :   570.407390   229.651145   199.805377

                             ****ORCA TERMINATED NORMALLY****
TOTAL RUN TIME: 0 days 0 hours 0 minutes 30 seconds 818 msec
