                         Program Version 4.2.1 -  RELEASE  -
|  1> ! wB97X-D3 SP def2-SVP
|  2> %pal
|  3> nprocs 16
|  4> end
|  5>
|  6> * xyz 0 1
|  7> S 	 -2.55323 	 7.43453 	 83.0653
|  8> C 	 -1.97195 	 6.91328 	 81.4948
|  9> C 	 -2.9286 	 6.67388 	 80.5654
| 10> C 	 -4.22833 	 6.9586 	 81.0593
| 11> C 	 -4.2229 	 7.35279 	 82.4294
| 12> H 	 -5.1443 	 6.84456 	 80.5368
| 13> C 	 -2.65708 	 6.22188 	 79.131
| 14> H 	 -3.05022 	 5.24962 	 79.0345
| 15> H 	 -1.53851 	 6.20296 	 78.9847
| 16> C 	 -3.2556 	 7.11924 	 78.036
| 17> H 	 -3.2405 	 6.55643 	 77.1697
| 18> H 	 -4.26666 	 7.50225 	 78.319
| 19> C 	 -2.24247 	 8.24944 	 77.6267
| 20> H 	 -1.26702 	 7.8391 	 77.507
| 21> H 	 -2.43027 	 8.61403 	 76.5825
| 22> H 	 -2.32062 	 9.21279 	 78.2448
| 23> S 	 -5.22234 	 8.95459 	 84.4858
| 24> C 	 -6.8365 	 8.83133 	 84.9523
| 25> C 	 -7.48534 	 7.93709 	 84.1741
| 26> C 	 -6.73682 	 7.28353 	 83.1609
| 27> C 	 -5.38481 	 7.7514 	 83.1997
| 28> H 	 -8.52487 	 7.78717 	 84.3987
| 29> C 	 -7.39772 	 6.31424 	 82.1042
| 30> H 	 -8.13428 	 5.73278 	 82.6647
| 31> H 	 -6.55781 	 5.57917 	 81.8564
| 32> C 	 -8.1198 	 6.91169 	 80.9288
| 33> H 	 -7.44525 	 7.62668 	 80.4103
| 34> H 	 -9.12375 	 7.46977 	 81.0481
| 35> C 	 -8.46784 	 5.88394 	 79.821
| 36> H 	 -7.62372 	 5.41338 	 79.3092
| 37> H 	 -8.9536 	 6.42221 	 79.0151
| 38> H 	 -9.13218 	 5.13752 	 80.2113
| 39> H 	 -0.946093 	 6.94551 	 81.263
| 40> H 	 -7.25057 	 9.38373 	 85.8281
| 41> *
| 42>
| 43>                          ****END OF INPUT****

CARTESIAN COORDINATES (ANGSTROEM)
---------------------------------
  S     -2.553230    7.434530   83.065300
  C     -1.971950    6.913280   81.494800
  C     -2.928600    6.673880   80.565400
  C     -4.228330    6.958600   81.059300
  C     -4.222900    7.352790   82.429400
  H     -5.144300    6.844560   80.536800
  C     -2.657080    6.221880   79.131000
  H     -3.050220    5.249620   79.034500
  H     -1.538510    6.202960   78.984700
  C     -3.255600    7.119240   78.036000
  H     -3.240500    6.556430   77.169700
  H     -4.266660    7.502250   78.319000
  C     -2.242470    8.249440   77.626700
  H     -1.267020    7.839100   77.507000
  H     -2.430270    8.614030   76.582500
  H     -2.320620    9.212790   78.244800
  S     -5.222340    8.954590   84.485800
  C     -6.836500    8.831330   84.952300
  C     -7.485340    7.937090   84.174100
  C     -6.736820    7.283530   83.160900
  C     -5.384810    7.751400   83.199700
  H     -8.524870    7.787170   84.398700
  C     -7.397720    6.314240   82.104200
  H     -8.134280    5.732780   82.664700
  H     -6.557810    5.579170   81.856400
  C     -8.119800    6.911690   80.928800
  H     -7.445250    7.626680   80.410300
  H     -9.123750    7.469770   81.048100
  C     -8.467840    5.883940   79.821000
  H     -7.623720    5.413380   79.309200
  H     -8.953600    6.422210   79.015100
  H     -9.132180    5.137520   80.211300
  H     -0.946093    6.945510   81.263000
  H     -7.250570    9.383730   85.828100

 Total Charge           Charge          ....    0
 Multiplicity           Mult            ....    1
 Number of Electrons    NEL             ....  134
 Basis Dimension        Dim             ....  322

ORBITAL ENERGIES
----------------

  NO   OCC          E(Eh)            E(eV)
   0   2.0000     -88.968193     -2420.9476
   1   2.0000     -88.963893     -2420.8306
   2   2.0000     -10.336097      -281.2595
   3   2.0000     -10.331730      -281.1407
   4   2.0000     -10.311997      -280.6037
   5   2.0000     -10.310145      -280.5533
   6   2.0000     -10.306380      -280.4509
   7   2.0000     -10.305337      -280.4225
   8   2.0000     -10.298832      -280.2455
   9   2.0000     -10.297173      -280.2003
  10   2.0000     -10.295161      -280.1456
  11   2.0000     -10.293797      -280.1085
  12   2.0000     -10.288681      -279.9692
  13   2.0000     -10.286431      -279.9080
  14   2.0000     -10.284579      -279.8576
  15   2.0000     -10.278884      -279.7027
  16   2.0000      -8.082202      -219.9279
  17   2.0000      -8.079711      -219.8601
  18   2.0000      -6.040770      -164.3777
  19   2.0000      -6.038097      -164.3050
  20   2.0000      -6.036939      -164.2735
  21   2.0000      -6.033920      -164.1913
  22   2.0000      -6.032831      -164.1617
  23   2.0000      -6.030687      -164.1033
  24   2.0000      -1.005439       -27.3594
  25   2.0000      -0.984312       -26.7845
  26   2.0000      -0.910838       -24.7852
  27   2.0000      -0.908296       -24.7160
  28   2.0000      -0.869284       -23.6544
  29   2.0000      -0.853253       -23.2182
  30   2.0000      -0.844214       -22.9722
  31   2.0000      -0.810419       -22.0526
  32   2.0000      -0.785248       -21.3677
  33   2.0000      -0.773479       -21.0474
  34   2.0000      -0.710632       -19.3373
  35   2.0000      -0.695600       -18.9282
  36   2.0000      -0.691255       -18.8100
  37   2.0000      -0.658459       -17.9176
  38   2.0000      -0.635526       -17.2935
  39   2.0000      -0.623742       -16.9729
  40   2.0000      -0.596225       -16.2241
  41   2.0000      -0.570863       -15.5340
  42   2.0000      -0.565265       -15.3816
  43   2.0000      -0.551712       -15.0129
  44   2.0000      -0.541143       -14.7252
  45   2.0000      -0.529986       -14.4217
  46   2.0000      -0.518188       -14.1006
  47   2.0000      -0.509711       -13.8699
  48   2.0000      -0.502477       -13.6731
  49   2.0000      -0.495171       -13.4743
  50   2.0000      -0.485468       -13.2103
  51   2.0000      -0.483648       -13.1607
  52   2.0000      -0.472043       -12.8450
  53   2.0000      -0.466328       -12.6894
  54   2.0000      -0.457748       -12.4560
  55   2.0000      -0.447054       -12.1650
  56   2.0000      -0.445641       -12.1265
  57   2.0000      -0.436502       -11.8778
  58   2.0000      -0.434166       -11.8143
  59   2.0000      -0.430830       -11.7235
  60   2.0000      -0.418193       -11.3796
  61   2.0000      -0.413480       -11.2514
  62   2.0000      -0.411581       -11.1997
  63   2.0000      -0.355921        -9.6851
  64   2.0000      -0.334361        -9.0984
  65   2.0000      -0.332385        -9.0447
  66   2.0000      -0.280789        -7.6407
  67   0.0000       0.019404         0.5280
  68   0.0000       0.084628         2.3028
  69   0.0000       0.108926         2.9640
  70   0.0000       0.124815         3.3964
  71   0.0000       0.127645         3.4734

MULLIKEN ATOMIC CHARGES
-----------------------
   0 S :    0.108072
   1 C :   -0.117705
   2 C :   -0.054617
   3 C :    0.013069
   4 C :   -0.133958
   5 H :   -0.017298
   6 C :    0.078015
   7 H :    0.029872
   8 H :    0.021262
   9 C :   -0.045678
  10 H :    0.014133
  11 H :    0.046244
  12 C :   -0.090821
  13 H :    0.021575
  14 H :    0.027486
  15 H :    0.059380
  16 S :    0.106662
  17 C :   -0.104723
  18 C :   -0.033593
  19 C :   -0.029255
  20 C :   -0.160368
  21 H :    0.006017
  22 C :    0.052640
  23 H :    0.022503
  24 H :    0.051372
  25 C :   -0.093391
  26 H :    0.031750
  27 H :    0.051449
  28 C :   -0.052191
  29 H :    0.028447
  30 H :    0.029179
  31 H :    0.031379
  32 H :    0.027710
  33 H :    0.075381
Sum of atomic charges:   -0.0000000

LOEWDIN ATOMIC CHARGES
----------------------
   0 S :    0.386695
   1 C :   -0.187658
   2 C :   -0.063157
   3 C :   -0.058528
   4 C :   -0.174177
   5 H :    0.021374
   6 C :   -0.023087
   7 H :    0.026132
   8 H :    0.033979
   9 C :   -0.034008
  10 H :    0.017153
  11 H :    0.029925
  12 C :   -0.073568
  13 H :    0.017855
  14 H :    0.027051
  15 H :    0.035948
  16 S :    0.423628
  17 C :   -0.212829
  18 C :   -0.080651
  19 C :   -0.053269
  20 C :   -0.196304
  21 H :    0.027933
  22 C :   -0.039241
  23 H :    0.031172
  24 H :    0.043521
  25 C :   -0.052990
  26 H :    0.023180
  27 H :    0.040345
  28 C :   -0.064140
  29 H :    0.021743
  30 H :    0.026704
  31 H :    0.020147
  32 H :    0.016662
  33 H :    0.042457

  Mayer bond orders larger than 0.100000
B(  0-S ,  1-C ) :   1.1255 B(  0-S ,  4-C ) :   1.1427 B(  1-C ,  2-C ) :   1.6362
B(  1-C , 32-H ) :   0.9646 B(  2-C ,  3-C ) :   1.2384 B(  2-C ,  6-C ) :   1.0144
B(  3-C ,  4-C ) :   1.5440 B(  3-C ,  5-H ) :   0.9934 B(  4-C , 20-C ) :   1.1093
B(  6-C ,  7-H ) :   0.9335 B(  6-C ,  8-H ) :   0.9454 B(  6-C ,  9-C ) :   1.0767
B(  9-C , 10-H ) :   0.9514 B(  9-C , 11-H ) :   0.9588 B(  9-C , 12-C ) :   1.0703
B( 12-C , 13-H ) :   0.9726 B( 12-C , 14-H ) :   0.9781 B( 12-C , 15-H ) :   0.9783
B( 16-S , 17-C ) :   1.1667 B( 16-S , 20-C ) :   1.1570 B( 17-C , 18-C ) :   1.5855
B( 17-C , 33-H ) :   0.9619 B( 18-C , 19-C ) :   1.2753 B( 18-C , 21-H ) :   0.9952
B( 19-C , 20-C ) :   1.5240 B( 19-C , 22-C ) :   1.0343 B( 22-C , 23-H ) :   0.9283
B( 22-C , 24-H ) :   0.9351 B( 22-C , 25-C ) :   1.0586 B( 25-C , 26-H ) :   0.9540
B( 25-C , 27-H ) :   0.9534 B( 25-C , 28-C ) :   1.0804 B( 28-C , 29-H ) :   0.9757
B( 28-C , 30-H ) :   0.9740 B( 28-C , 31-H ) :   0.9764

Dispersion correction           -0.014022896
FINAL SINGLE POINT ENERGY     -1339.871696139927

DIPOLE MOMENT
-------------
                                X             Y             Z
Electronic contribution:      8.94596       7.37093      28.89705
Nuclear contribution   :     -9.34429      -7.57398     -29.49438
                        -----------------------------------------
Total Dipole Moment    :     -0.39833      -0.20305      -0.59733
                        -----------------------------------------
Magnitude (a.u.)       :      0.74612
Magnitude (Debye)      :      1.89649

Rotational constants in cm-1:     0.016536     0.009632     0.006717
Rotational constants in MHz :   495.742812   288.771032   201.374004

                             ****ORCA TERMINATED NORMALLY****
TOTAL RUN TIME: 0 days 0 hours 0 minutes 34 seconds 652 msec
