                         Program Version 4.2.1 -  RELEASE  -
|  1> ! wB97X-D3 SP def2-SVP
|  2> %pal
|  3> nprocs 16
|  4> end
|  5>
|  6> * xyz 0 1
|  7> S 	 -11.082 	 36.0607 	 54.5816
|  8> C 	 -9.44329 	 35.4485 	 54.5394
|  9> C 	 -8.98421 	 35.0739 	 53.2976
| 10> C 	 -10.1005 	 35.1312 	 52.344
| 11> C 	 -11.2225 	 35.6609 	 52.8716
| 12> H 	 -10.1238 	 34.8663 	 51.2873
| 13> C 	 -7.63371 	 34.5245 	 52.9238
| 14> H 	 -7.73997 	 33.8494 	 52.058
| 15> H 	 -7.30897 	 33.8773 	 53.7244
| 16> C 	 -6.54838 	 35.6287 	 52.5128
| 17> H 	 -5.80551 	 35.1823 	 51.8436
| 18> H 	 -7.04362 	 36.389 	 51.9593
| 19> C 	 -5.86695 	 36.1796 	 53.7613
| 20> H 	 -6.58018 	 36.9383 	 54.1973
| 21> H 	 -5.73038 	 35.374 	 54.4742
| 22> H 	 -5.01993 	 36.7368 	 53.5236
| 23> S 	 -12.9118 	 37.6552 	 52.3323
| 24> C 	 -14.0851 	 37.5141 	 51.0313
| 25> C 	 -13.9175 	 36.277 	 50.3691
| 26> C 	 -12.9097 	 35.4374 	 50.915
| 27> C 	 -12.3877 	 36.0089 	 52.0937
| 28> H 	 -14.4948 	 36.0028 	 49.559
| 29> C 	 -12.5999 	 34.0437 	 50.4087
| 30> H 	 -13.5204 	 33.4883 	 50.5566
| 31> H 	 -11.8894 	 33.5372 	 50.982
| 32> C 	 -12.1998 	 34.0538 	 48.8879
| 33> H 	 -11.2554 	 34.635 	 48.7458
| 34> H 	 -13.0007 	 34.6184 	 48.3172
| 35> C 	 -11.9277 	 32.7166 	 48.1787
| 36> H 	 -11.1789 	 32.0179 	 48.5959
| 37> H 	 -11.661 	 32.8178 	 47.157
| 38> H 	 -12.8996 	 32.1271 	 48.1622
| 39> H 	 -8.83176 	 35.3671 	 55.4219
| 40> H 	 -14.8491 	 38.2986 	 50.908
| 41> *
| 42>
| 43>                          ****END OF INPUT****

CARTESIAN COORDINATES (ANGSTROEM)
---------------------------------
  S    -11.082000   36.060700   54.581600
  C     -9.443290   35.448500   54.539400
  C     -8.984210   35.073900   53.297600
  C    -10.100500   35.131200   52.344000
  C    -11.222500   35.660900   52.871600
  H    -10.123800   34.866300   51.287300
  C     -7.633710   34.524500   52.923800
  H     -7.739970   33.849400   52.058000
  H     -7.308970   33.877300   53.724400
  C     -6.548380   35.628700   52.512800
  H     -5.805510   35.182300   51.843600
  H     -7.043620   36.389000   51.959300
  C     -5.866950   36.179600   53.761300
  H     -6.580180   36.938300   54.197300
  H     -5.730380   35.374000   54.474200
  H     -5.019930   36.736800   53.523600
  S    -12.911800   37.655200   52.332300
  C    -14.085100   37.514100   51.031300
  C    -13.917500   36.277000   50.369100
  C    -12.909700   35.437400   50.915000
  C    -12.387700   36.008900   52.093700
  H    -14.494800   36.002800   49.559000
  C    -12.599900   34.043700   50.408700
  H    -13.520400   33.488300   50.556600
  H    -11.889400   33.537200   50.982000
  C    -12.199800   34.053800   48.887900
  H    -11.255400   34.635000   48.745800
  H    -13.000700   34.618400   48.317200
  C    -11.927700   32.716600   48.178700
  H    -11.178900   32.017900   48.595900
  H    -11.661000   32.817800   47.157000
  H    -12.899600   32.127100   48.162200
  H     -8.831760   35.367100   55.421900
  H    -14.849100   38.298600   50.908000

 Total Charge           Charge          ....    0
 Multiplicity           Mult            ....    1
 Number of Electrons    NEL             ....  134
 Basis Dimension        Dim             ....  322

ORBITAL ENERGIES
----------------

  NO   OCC          E(Eh)            E(eV)
   0   2.0000     -88.967045     -2420.9164
   1   2.0000     -88.963780     -2420.8275
   2   2.0000     -10.323493      -280.9165
   3   2.0000     -10.322094      -280.8784
   4   2.0000     -10.321727      -280.8685
   5   2.0000     -10.312339      -280.6130
   6   2.0000     -10.304553      -280.4011
   7   2.0000     -10.304337      -280.3953
   8   2.0000     -10.300863      -280.3007
   9   2.0000     -10.295619      -280.1580
  10   2.0000     -10.293932      -280.1121
  11   2.0000     -10.292986      -280.0864
  12   2.0000     -10.291109      -280.0353
  13   2.0000     -10.287097      -279.9261
  14   2.0000     -10.284123      -279.8452
  15   2.0000     -10.273882      -279.5665
  16   2.0000      -8.081685      -219.9138
  17   2.0000      -8.078665      -219.8317
  18   2.0000      -6.040234      -164.3631
  19   2.0000      -6.037073      -164.2771
  20   2.0000      -6.036460      -164.2604
  21   2.0000      -6.033063      -164.1680
  22   2.0000      -6.032165      -164.1436
  23   2.0000      -6.029619      -164.0743
  24   2.0000      -1.007142       -27.4057
  25   2.0000      -0.979980       -26.6666
  26   2.0000      -0.908239       -24.7144
  27   2.0000      -0.905053       -24.6277
  28   2.0000      -0.868991       -23.6465
  29   2.0000      -0.853981       -23.2380
  30   2.0000      -0.846406       -23.0319
  31   2.0000      -0.811382       -22.0788
  32   2.0000      -0.784295       -21.3418
  33   2.0000      -0.771828       -21.0025
  34   2.0000      -0.705668       -19.2022
  35   2.0000      -0.700020       -19.0485
  36   2.0000      -0.692924       -18.8554
  37   2.0000      -0.666163       -18.1272
  38   2.0000      -0.641338       -17.4517
  39   2.0000      -0.617234       -16.7958
  40   2.0000      -0.599443       -16.3117
  41   2.0000      -0.565590       -15.3905
  42   2.0000      -0.561069       -15.2675
  43   2.0000      -0.548159       -14.9162
  44   2.0000      -0.537561       -14.6278
  45   2.0000      -0.526280       -14.3208
  46   2.0000      -0.520158       -14.1542
  47   2.0000      -0.514617       -14.0034
  48   2.0000      -0.502527       -13.6745
  49   2.0000      -0.493343       -13.4246
  50   2.0000      -0.487858       -13.2753
  51   2.0000      -0.486120       -13.2280
  52   2.0000      -0.472323       -12.8526
  53   2.0000      -0.465320       -12.6620
  54   2.0000      -0.459660       -12.5080
  55   2.0000      -0.452535       -12.3141
  56   2.0000      -0.442891       -12.0517
  57   2.0000      -0.440637       -11.9903
  58   2.0000      -0.432274       -11.7628
  59   2.0000      -0.425821       -11.5872
  60   2.0000      -0.424115       -11.5407
  61   2.0000      -0.418106       -11.3772
  62   2.0000      -0.414222       -11.2715
  63   2.0000      -0.352270        -9.5858
  64   2.0000      -0.330947        -9.0055
  65   2.0000      -0.327896        -8.9225
  66   2.0000      -0.284778        -7.7492
  67   0.0000       0.028682         0.7805
  68   0.0000       0.073177         1.9912
  69   0.0000       0.105810         2.8792
  70   0.0000       0.114258         3.1091
  71   0.0000       0.127369         3.4659

MULLIKEN ATOMIC CHARGES
-----------------------
   0 S :    0.111764
   1 C :   -0.112197
   2 C :   -0.072874
   3 C :   -0.000398
   4 C :   -0.140739
   5 H :    0.015341
   6 C :    0.032258
   7 H :    0.024649
   8 H :    0.028793
   9 C :   -0.057769
  10 H :    0.030651
  11 H :    0.028171
  12 C :   -0.033188
  13 H :    0.036357
  14 H :    0.029300
  15 H :    0.026385
  16 S :    0.093140
  17 C :   -0.110739
  18 C :   -0.000898
  19 C :   -0.050786
  20 C :   -0.128465
  21 H :   -0.009878
  22 C :    0.109291
  23 H :    0.034391
  24 H :    0.008462
  25 C :   -0.129062
  26 H :    0.039018
  27 H :    0.040924
  28 C :   -0.051620
  29 H :    0.037051
  30 H :    0.031309
  31 H :    0.029148
  32 H :    0.038477
  33 H :    0.073733
Sum of atomic charges:   -0.0000000

LOEWDIN ATOMIC CHARGES
----------------------
   0 S :    0.390233
   1 C :   -0.191845
   2 C :   -0.058762
   3 C :   -0.061172
   4 C :   -0.193355
   5 H :    0.033926
   6 C :   -0.031431
   7 H :    0.032641
   8 H :    0.028029
   9 C :   -0.030095
  10 H :    0.021902
  11 H :    0.021031
  12 C :   -0.062935
  13 H :    0.034377
  14 H :    0.022520
  15 H :    0.016914
  16 S :    0.408546
  17 C :   -0.189959
  18 C :   -0.057593
  19 C :   -0.057067
  20 C :   -0.194827
  21 H :    0.016307
  22 C :   -0.024678
  23 H :    0.036259
  24 H :    0.019644
  25 C :   -0.045402
  26 H :    0.026581
  27 H :    0.030569
  28 C :   -0.076138
  29 H :    0.027306
  30 H :    0.022967
  31 H :    0.029511
  32 H :    0.023064
  33 H :    0.032932

  Mayer bond orders larger than 0.100000
B(  0-S ,  1-C ) :   1.1207 B(  0-S ,  4-C ) :   1.1191 B(  1-C ,  2-C ) :   1.6561
B(  1-C , 32-H ) :   0.9654 B(  2-C ,  3-C ) :   1.1908 B(  2-C ,  6-C ) :   1.0235
B(  3-C ,  4-C ) :   1.6420 B(  3-C ,  5-H ) :   0.9830 B(  4-C , 20-C ) :   1.0297
B(  6-C ,  7-H ) :   0.9439 B(  6-C ,  8-H ) :   0.9489 B(  6-C ,  9-C ) :   1.0523
B(  9-C , 10-H ) :   0.9607 B(  9-C , 11-H ) :   0.9593 B(  9-C , 12-C ) :   1.0763
B( 12-C , 13-H ) :   0.9740 B( 12-C , 14-H ) :   0.9785 B( 12-C , 15-H ) :   0.9736
B( 16-S , 17-C ) :   1.1605 B( 16-S , 20-C ) :   1.1650 B( 17-C , 18-C ) :   1.5586
B( 17-C , 20-C ) :   0.1109 B( 17-C , 33-H ) :   0.9703 B( 18-C , 19-C ) :   1.2633
B( 18-C , 21-H ) :   1.0014 B( 19-C , 20-C ) :   1.5623 B( 19-C , 22-C ) :   1.0396
B( 22-C , 23-H ) :   0.9329 B( 22-C , 24-H ) :   0.9391 B( 22-C , 25-C ) :   1.0422
B( 25-C , 26-H ) :   0.9575 B( 25-C , 27-H ) :   0.9565 B( 25-C , 28-C ) :   1.0840
B( 28-C , 29-H ) :   0.9745 B( 28-C , 30-H ) :   0.9736 B( 28-C , 31-H ) :   0.9729

Dispersion correction           -0.014013530
FINAL SINGLE POINT ENERGY     -1339.878874127793

DIPOLE MOMENT
-------------
                                X             Y             Z
Electronic contribution:    -17.25457      14.10594      15.37533
Nuclear contribution   :     17.58125     -14.47360     -15.88724
                        -----------------------------------------
Total Dipole Moment    :      0.32668      -0.36766      -0.51191
                        -----------------------------------------
Magnitude (a.u.)       :      0.70989
Magnitude (Debye)      :      1.80440

Rotational constants in cm-1:     0.017273     0.008761     0.006536
Rotational constants in MHz :   517.834693   262.644717   195.938459

                             ****ORCA TERMINATED NORMALLY****
TOTAL RUN TIME: 0 days 0 hours 0 minutes 32 seconds 256 msec
