                         Program Version 4.2.1 -  RELEASE  -
|  1> ! wB97X-D3 SP def2-SVP
|  2> %pal
|  3> nprocs 16
|  4> end
|  5>
|  6> * xyz 0 1
|  7> S 	 -89.0399 	 48.8177 	 129.813
|  8> C 	 -90.1715 	 48.6185 	 128.46
|  9> C 	 -89.4895 	 48.354 	 127.301
| 10> C 	 -88.1186 	 47.9926 	 127.558
| 11> C 	 -87.7179 	 48.1069 	 128.881
| 12> H 	 -87.5638 	 47.6082 	 126.794
| 13> C 	 -90.1783 	 48.412 	 125.952
| 14> H 	 -89.7895 	 49.2692 	 125.356
| 15> H 	 -91.2086 	 48.6576 	 126.22
| 16> C 	 -90.1879 	 47.1331 	 125.095
| 17> H 	 -90.8198 	 47.4218 	 124.315
| 18> H 	 -89.1965 	 46.8977 	 124.645
| 19> C 	 -90.6077 	 45.7871 	 125.798
| 20> H 	 -91.3879 	 45.9798 	 126.536
| 21> H 	 -90.9219 	 45.0334 	 125.111
| 22> H 	 -89.7278 	 45.406 	 126.311
| 23> S 	 -86.6257 	 46.1982 	 130.464
| 24> C 	 -84.8765 	 46.1952 	 130.827
| 25> C 	 -84.3019 	 47.2925 	 130.236
| 26> C 	 -85.1756 	 48.0589 	 129.444
| 27> C 	 -86.5071 	 47.6354 	 129.559
| 28> H 	 -83.2752 	 47.4405 	 130.362
| 29> C 	 -84.6552 	 49.0815 	 128.436
| 30> H 	 -83.7741 	 49.4043 	 128.919
| 31> H 	 -85.3113 	 49.9585 	 128.363
| 32> C 	 -84.3623 	 48.3995 	 127.045
| 33> H 	 -85.216 	 47.8068 	 126.583
| 34> H 	 -83.53 	 47.686 	 127.118
| 35> C 	 -83.9636 	 49.4388 	 126.001
| 36> H 	 -83.941 	 48.9849 	 124.981
| 37> H 	 -83.0056 	 49.8078 	 126.129
| 38> H 	 -84.6957 	 50.1963 	 125.982
| 39> H 	 -91.2183 	 49.0133 	 128.446
| 40> H 	 -84.2439 	 45.4689 	 131.339
| 41> *
| 42>
| 43>                          ****END OF INPUT****

CARTESIAN COORDINATES (ANGSTROEM)
---------------------------------
  S    -89.039900   48.817700  129.813000
  C    -90.171500   48.618500  128.460000
  C    -89.489500   48.354000  127.301000
  C    -88.118600   47.992600  127.558000
  C    -87.717900   48.106900  128.881000
  H    -87.563800   47.608200  126.794000
  C    -90.178300   48.412000  125.952000
  H    -89.789500   49.269200  125.356000
  H    -91.208600   48.657600  126.220000
  C    -90.187900   47.133100  125.095000
  H    -90.819800   47.421800  124.315000
  H    -89.196500   46.897700  124.645000
  C    -90.607700   45.787100  125.798000
  H    -91.387900   45.979800  126.536000
  H    -90.921900   45.033400  125.111000
  H    -89.727800   45.406000  126.311000
  S    -86.625700   46.198200  130.464000
  C    -84.876500   46.195200  130.827000
  C    -84.301900   47.292500  130.236000
  C    -85.175600   48.058900  129.444000
  C    -86.507100   47.635400  129.559000
  H    -83.275200   47.440500  130.362000
  C    -84.655200   49.081500  128.436000
  H    -83.774100   49.404300  128.919000
  H    -85.311300   49.958500  128.363000
  C    -84.362300   48.399500  127.045000
  H    -85.216000   47.806800  126.583000
  H    -83.530000   47.686000  127.118000
  C    -83.963600   49.438800  126.001000
  H    -83.941000   48.984900  124.981000
  H    -83.005600   49.807800  126.129000
  H    -84.695700   50.196300  125.982000
  H    -91.218300   49.013300  128.446000
  H    -84.243900   45.468900  131.339000

 Total Charge           Charge          ....    0
 Multiplicity           Mult            ....    1
 Number of Electrons    NEL             ....  134
 Basis Dimension        Dim             ....  322

ORBITAL ENERGIES
----------------

  NO   OCC          E(Eh)            E(eV)
   0   2.0000     -88.966387     -2420.8985
   1   2.0000     -88.961902     -2420.7764
   2   2.0000     -10.332945      -281.1737
   3   2.0000     -10.322430      -280.8876
   4   2.0000     -10.317990      -280.7668
   5   2.0000     -10.315248      -280.6922
   6   2.0000     -10.299992      -280.2770
   7   2.0000     -10.298112      -280.2259
   8   2.0000     -10.297227      -280.2018
   9   2.0000     -10.294300      -280.1221
  10   2.0000     -10.292720      -280.0792
  11   2.0000     -10.290689      -280.0239
  12   2.0000     -10.287397      -279.9343
  13   2.0000     -10.286288      -279.9041
  14   2.0000     -10.275797      -279.6186
  15   2.0000     -10.268915      -279.4314
  16   2.0000      -8.081070      -219.8971
  17   2.0000      -8.076195      -219.7644
  18   2.0000      -6.039567      -164.3450
  19   2.0000      -6.035482      -164.2338
  20   2.0000      -6.034802      -164.2153
  21   2.0000      -6.031911      -164.1366
  22   2.0000      -6.030830      -164.1072
  23   2.0000      -6.026795      -163.9974
  24   2.0000      -1.005952       -27.3733
  25   2.0000      -0.982577       -26.7373
  26   2.0000      -0.908551       -24.7229
  27   2.0000      -0.904408       -24.6102
  28   2.0000      -0.869449       -23.6589
  29   2.0000      -0.850785       -23.1510
  30   2.0000      -0.839996       -22.8575
  31   2.0000      -0.819324       -22.2949
  32   2.0000      -0.784384       -21.3442
  33   2.0000      -0.769500       -20.9392
  34   2.0000      -0.711722       -19.3669
  35   2.0000      -0.698602       -19.0099
  36   2.0000      -0.689770       -18.7696
  37   2.0000      -0.663409       -18.0523
  38   2.0000      -0.636242       -17.3130
  39   2.0000      -0.626915       -17.0592
  40   2.0000      -0.589693       -16.0464
  41   2.0000      -0.568143       -15.4600
  42   2.0000      -0.562934       -15.3182
  43   2.0000      -0.553647       -15.0655
  44   2.0000      -0.541014       -14.7217
  45   2.0000      -0.523351       -14.2411
  46   2.0000      -0.521274       -14.1846
  47   2.0000      -0.512144       -13.9362
  48   2.0000      -0.509337       -13.8598
  49   2.0000      -0.494531       -13.4569
  50   2.0000      -0.488714       -13.2986
  51   2.0000      -0.478367       -13.0170
  52   2.0000      -0.472026       -12.8445
  53   2.0000      -0.461296       -12.5525
  54   2.0000      -0.460208       -12.5229
  55   2.0000      -0.444216       -12.0877
  56   2.0000      -0.443081       -12.0568
  57   2.0000      -0.438385       -11.9291
  58   2.0000      -0.436300       -11.8723
  59   2.0000      -0.426208       -11.5977
  60   2.0000      -0.417834       -11.3698
  61   2.0000      -0.416079       -11.3221
  62   2.0000      -0.414804       -11.2874
  63   2.0000      -0.344040        -9.3618
  64   2.0000      -0.324810        -8.8385
  65   2.0000      -0.322514        -8.7760
  66   2.0000      -0.303007        -8.2453
  67   0.0000       0.036610         0.9962
  68   0.0000       0.059181         1.6104
  69   0.0000       0.109636         2.9834
  70   0.0000       0.123898         3.3714
  71   0.0000       0.133463         3.6317

MULLIKEN ATOMIC CHARGES
-----------------------
   0 S :    0.102598
   1 C :   -0.141688
   2 C :   -0.125028
   3 C :    0.105380
   4 C :   -0.157535
   5 H :   -0.041540
   6 C :    0.062903
   7 H :    0.050083
   8 H :    0.009835
   9 C :   -0.080889
  10 H :    0.021126
  11 H :    0.031846
  12 C :   -0.038291
  13 H :    0.031427
  14 H :    0.034949
  15 H :    0.036951
  16 S :    0.128357
  17 C :   -0.097780
  18 C :   -0.026141
  19 C :   -0.033037
  20 C :   -0.170390
  21 H :   -0.003752
  22 C :    0.108894
  23 H :    0.007122
  24 H :    0.034235
  25 C :   -0.103280
  26 H :    0.042062
  27 H :    0.027423
  28 C :   -0.003436
  29 H :    0.026797
  30 H :    0.016225
  31 H :    0.020277
  32 H :    0.066749
  33 H :    0.057546
Sum of atomic charges:   -0.0000000

LOEWDIN ATOMIC CHARGES
----------------------
   0 S :    0.384808
   1 C :   -0.197821
   2 C :   -0.067396
   3 C :   -0.048229
   4 C :   -0.183968
   5 H :    0.010226
   6 C :   -0.031727
   7 H :    0.040749
   8 H :    0.028705
   9 C :   -0.040945
  10 H :    0.016667
  11 H :    0.024497
  12 C :   -0.061078
  13 H :    0.024826
  14 H :    0.024129
  15 H :    0.028680
  16 S :    0.427924
  17 C :   -0.181815
  18 C :   -0.068178
  19 C :   -0.054273
  20 C :   -0.225481
  21 H :    0.022595
  22 C :   -0.023296
  23 H :    0.024924
  24 H :    0.033038
  25 C :   -0.037932
  26 H :    0.030158
  27 H :    0.024309
  28 C :   -0.058600
  29 H :    0.030969
  30 H :    0.013289
  31 H :    0.017487
  32 H :    0.036582
  33 H :    0.036177

  Mayer bond orders larger than 0.100000
B(  0-S ,  1-C ) :   1.1285 B(  0-S ,  4-C ) :   1.1493 B(  1-C ,  2-C ) :   1.6373
B(  1-C , 32-H ) :   0.9516 B(  2-C ,  3-C ) :   1.2267 B(  2-C ,  6-C ) :   1.0267
B(  3-C ,  4-C ) :   1.5825 B(  3-C ,  5-H ) :   1.0103 B(  4-C , 20-C ) :   1.0064
B(  6-C ,  7-H ) :   0.9359 B(  6-C ,  8-H ) :   0.9364 B(  6-C ,  9-C ) :   1.0720
B(  9-C , 10-H ) :   0.9578 B(  9-C , 11-H ) :   0.9579 B(  9-C , 12-C ) :   1.0669
B( 12-C , 13-H ) :   0.9798 B( 12-C , 14-H ) :   0.9761 B( 12-C , 15-H ) :   0.9739
B( 16-S , 17-C ) :   1.1515 B( 16-S , 20-C ) :   1.1713 B( 17-C , 18-C ) :   1.6045
B( 17-C , 20-C ) :   0.1037 B( 17-C , 33-H ) :   0.9651 B( 18-C , 19-C ) :   1.2682
B( 18-C , 21-H ) :   0.9936 B( 19-C , 20-C ) :   1.5652 B( 19-C , 22-C ) :   1.0505
B( 22-C , 23-H ) :   0.9276 B( 22-C , 24-H ) :   0.9340 B( 22-C , 25-C ) :   1.0509
B( 25-C , 26-H ) :   0.9609 B( 25-C , 27-H ) :   0.9539 B( 25-C , 28-C ) :   1.0875
B( 28-C , 29-H ) :   0.9723 B( 28-C , 30-H ) :   0.9752 B( 28-C , 31-H ) :   0.9750

Dispersion correction           -0.014744337
FINAL SINGLE POINT ENERGY     -1339.869849849823

DIPOLE MOMENT
-------------
                                X             Y             Z
Electronic contribution:     -2.72214      -1.60234      25.33095
Nuclear contribution   :      3.04379       1.64959     -26.03844
                        -----------------------------------------
Total Dipole Moment    :      0.32165       0.04724      -0.70749
                        -----------------------------------------
Magnitude (a.u.)       :      0.77861
Magnitude (Debye)      :      1.97907

Rotational constants in cm-1:     0.017317     0.009144     0.007496
Rotational constants in MHz :   519.165139   274.129653   224.735914

                             ****ORCA TERMINATED NORMALLY****
TOTAL RUN TIME: 0 days 0 hours 0 minutes 34 seconds 834 msec
