                         Program Version 4.2.1 -  RELEASE  -
|  1> ! wB97X-D3 SP def2-SVP
|  2> %pal
|  3> nprocs 16
|  4> end
|  5>
|  6> * xyz 0 1
|  7> S 	 -10.3256 	 31.257 	 55.1274
|  8> C 	 -9.55525 	 29.7955 	 55.5829
|  9> C 	 -8.22935 	 29.6812 	 55.1229
| 10> C 	 -7.79715 	 30.8273 	 54.4343
| 11> C 	 -8.84755 	 31.789 	 54.3687
| 12> H 	 -6.80276 	 31.056 	 53.9876
| 13> C 	 -7.35879 	 28.4469 	 55.4701
| 14> H 	 -6.61024 	 28.3283 	 54.6182
| 15> H 	 -7.99336 	 27.531 	 55.4795
| 16> C 	 -6.59425 	 28.4376 	 56.7692
| 17> H 	 -5.89162 	 27.6022 	 56.7417
| 18> H 	 -6.00231 	 29.3196 	 56.8364
| 19> C 	 -7.39059 	 28.1374 	 58.0599
| 20> H 	 -7.82323 	 28.9979 	 58.47
| 21> H 	 -7.98603 	 27.2719 	 57.9569
| 22> H 	 -6.71788 	 27.7343 	 58.8738
| 23> S 	 -8.87383 	 34.5529 	 54.7201
| 24> C 	 -8.83363 	 35.549 	 53.2855
| 25> C 	 -8.31719 	 34.8717 	 52.2047
| 26> C 	 -8.27119 	 33.4772 	 52.4755
| 27> C 	 -8.63766 	 33.0966 	 53.7488
| 28> H 	 -8.26835 	 35.3943 	 51.2734
| 29> C 	 -7.78447 	 32.531 	 51.3758
| 30> H 	 -7.7266 	 31.5647 	 51.9039
| 31> H 	 -6.76542 	 32.7037 	 51.1397
| 32> C 	 -8.69153 	 32.5869 	 50.0918
| 33> H 	 -8.92149 	 33.5338 	 49.6008
| 34> H 	 -9.66425 	 32.231 	 50.4445
| 35> C 	 -8.12745 	 31.5458 	 49.0536
| 36> H 	 -8.24893 	 30.5136 	 49.3592
| 37> H 	 -7.02905 	 31.577 	 48.8993
| 38> H 	 -8.68973 	 31.5553 	 48.0919
| 39> H 	 -10.0433 	 28.9543 	 56.2019
| 40> H 	 -9.00923 	 36.5936 	 53.2996
| 41> *
| 42>
| 43>                          ****END OF INPUT****

CARTESIAN COORDINATES (ANGSTROEM)
---------------------------------
  S    -10.325600   31.257000   55.127400
  C     -9.555250   29.795500   55.582900
  C     -8.229350   29.681200   55.122900
  C     -7.797150   30.827300   54.434300
  C     -8.847550   31.789000   54.368700
  H     -6.802760   31.056000   53.987600
  C     -7.358790   28.446900   55.470100
  H     -6.610240   28.328300   54.618200
  H     -7.993360   27.531000   55.479500
  C     -6.594250   28.437600   56.769200
  H     -5.891620   27.602200   56.741700
  H     -6.002310   29.319600   56.836400
  C     -7.390590   28.137400   58.059900
  H     -7.823230   28.997900   58.470000
  H     -7.986030   27.271900   57.956900
  H     -6.717880   27.734300   58.873800
  S     -8.873830   34.552900   54.720100
  C     -8.833630   35.549000   53.285500
  C     -8.317190   34.871700   52.204700
  C     -8.271190   33.477200   52.475500
  C     -8.637660   33.096600   53.748800
  H     -8.268350   35.394300   51.273400
  C     -7.784470   32.531000   51.375800
  H     -7.726600   31.564700   51.903900
  H     -6.765420   32.703700   51.139700
  C     -8.691530   32.586900   50.091800
  H     -8.921490   33.533800   49.600800
  H     -9.664250   32.231000   50.444500
  C     -8.127450   31.545800   49.053600
  H     -8.248930   30.513600   49.359200
  H     -7.029050   31.577000   48.899300
  H     -8.689730   31.555300   48.091900
  H    -10.043300   28.954300   56.201900
  H     -9.009230   36.593600   53.299600

 Total Charge           Charge          ....    0
 Multiplicity           Mult            ....    1
 Number of Electrons    NEL             ....  134
 Basis Dimension        Dim             ....  322

ORBITAL ENERGIES
----------------

  NO   OCC          E(Eh)            E(eV)
   0   2.0000     -88.977002     -2421.1873
   1   2.0000     -88.959310     -2420.7059
   2   2.0000     -10.331868      -281.1444
   3   2.0000     -10.322830      -280.8985
   4   2.0000     -10.319937      -280.8198
   5   2.0000     -10.312168      -280.6084
   6   2.0000     -10.304073      -280.3881
   7   2.0000     -10.302913      -280.3565
   8   2.0000     -10.299685      -280.2687
   9   2.0000     -10.299144      -280.2540
  10   2.0000     -10.292193      -280.0648
  11   2.0000     -10.288446      -279.9629
  12   2.0000     -10.288004      -279.9508
  13   2.0000     -10.282796      -279.8091
  14   2.0000     -10.280055      -279.7345
  15   2.0000     -10.274129      -279.5733
  16   2.0000      -8.091671      -220.1856
  17   2.0000      -8.074309      -219.7131
  18   2.0000      -6.049877      -164.6255
  19   2.0000      -6.046158      -164.5243
  20   2.0000      -6.042789      -164.4326
  21   2.0000      -6.032808      -164.1611
  22   2.0000      -6.028912      -164.0550
  23   2.0000      -6.024942      -163.9470
  24   2.0000      -1.006180       -27.3796
  25   2.0000      -0.985122       -26.8065
  26   2.0000      -0.909911       -24.7599
  27   2.0000      -0.898243       -24.4424
  28   2.0000      -0.866813       -23.5872
  29   2.0000      -0.855546       -23.2806
  30   2.0000      -0.841450       -22.8970
  31   2.0000      -0.809495       -22.0275
  32   2.0000      -0.783128       -21.3100
  33   2.0000      -0.766644       -20.8614
  34   2.0000      -0.708336       -19.2748
  35   2.0000      -0.700738       -19.0681
  36   2.0000      -0.691602       -18.8194
  37   2.0000      -0.659109       -17.9353
  38   2.0000      -0.637380       -17.3440
  39   2.0000      -0.616702       -16.7813
  40   2.0000      -0.591807       -16.1039
  41   2.0000      -0.572678       -15.5834
  42   2.0000      -0.552917       -15.0456
  43   2.0000      -0.550744       -14.9865
  44   2.0000      -0.540603       -14.7105
  45   2.0000      -0.526249       -14.3200
  46   2.0000      -0.516098       -14.0437
  47   2.0000      -0.504391       -13.7252
  48   2.0000      -0.497631       -13.5412
  49   2.0000      -0.492918       -13.4130
  50   2.0000      -0.486305       -13.2330
  51   2.0000      -0.481748       -13.1090
  52   2.0000      -0.468537       -12.7495
  53   2.0000      -0.466423       -12.6920
  54   2.0000      -0.459572       -12.5056
  55   2.0000      -0.452985       -12.3263
  56   2.0000      -0.444625       -12.0989
  57   2.0000      -0.434721       -11.8294
  58   2.0000      -0.432691       -11.7741
  59   2.0000      -0.430675       -11.7193
  60   2.0000      -0.416793       -11.3415
  61   2.0000      -0.409966       -11.1557
  62   2.0000      -0.407521       -11.0892
  63   2.0000      -0.344248        -9.3675
  64   2.0000      -0.332472        -9.0470
  65   2.0000      -0.326354        -8.8805
  66   2.0000      -0.292105        -7.9486
  67   0.0000       0.028245         0.7686
  68   0.0000       0.068381         1.8607
  69   0.0000       0.110726         3.0130
  70   0.0000       0.114621         3.1190
  71   0.0000       0.133631         3.6363

MULLIKEN ATOMIC CHARGES
-----------------------
   0 S :    0.161187
   1 C :   -0.154615
   2 C :   -0.070056
   3 C :    0.012855
   4 C :   -0.180436
   5 H :    0.041619
   6 C :    0.033045
   7 H :    0.033620
   8 H :    0.024406
   9 C :   -0.040671
  10 H :    0.023733
  11 H :    0.020010
  12 C :   -0.039997
  13 H :    0.038616
  14 H :    0.014459
  15 H :    0.025371
  16 S :    0.092079
  17 C :   -0.090551
  18 C :   -0.012761
  19 C :   -0.048341
  20 C :   -0.170719
  21 H :    0.021382
  22 C :    0.082051
  23 H :    0.012013
  24 H :    0.021670
  25 C :   -0.073331
  26 H :    0.042705
  27 H :    0.033085
  28 C :   -0.065422
  29 H :    0.021533
  30 H :    0.031251
  31 H :    0.037832
  32 H :    0.077930
  33 H :    0.044449
Sum of atomic charges:   -0.0000000

LOEWDIN ATOMIC CHARGES
----------------------
   0 S :    0.447151
   1 C :   -0.226587
   2 C :   -0.071608
   3 C :   -0.059865
   4 C :   -0.206775
   5 H :    0.042173
   6 C :   -0.036078
   7 H :    0.037046
   8 H :    0.030515
   9 C :   -0.040273
  10 H :    0.027282
  11 H :    0.019866
  12 C :   -0.064957
  13 H :    0.018658
  14 H :    0.018640
  15 H :    0.035427
  16 S :    0.387393
  17 C :   -0.168571
  18 C :   -0.071737
  19 C :   -0.054727
  20 C :   -0.203044
  21 H :    0.031548
  22 C :   -0.029520
  23 H :    0.031753
  24 H :    0.022877
  25 C :   -0.035773
  26 H :    0.024850
  27 H :    0.029422
  28 C :   -0.078037
  29 H :    0.023203
  30 H :    0.025486
  31 H :    0.028503
  32 H :    0.045922
  33 H :    0.019839

  Mayer bond orders larger than 0.100000
B(  0-S ,  1-C ) :   1.1640 B(  0-S ,  4-C ) :   1.1808 B(  1-C ,  2-C ) :   1.5683
B(  1-C ,  4-C ) :   0.1046 B(  1-C , 32-H ) :   0.9530 B(  2-C ,  3-C ) :   1.2957
B(  2-C ,  6-C ) :   1.0142 B(  3-C ,  4-C ) :   1.5093 B(  3-C ,  5-H ) :   0.9833
B(  4-C , 20-C ) :   1.0514 B(  6-C ,  7-H ) :   0.9411 B(  6-C ,  8-H ) :   0.9424
B(  6-C ,  9-C ) :   1.0829 B(  9-C , 10-H ) :   0.9532 B(  9-C , 11-H ) :   0.9539
B(  9-C , 12-C ) :   1.0826 B( 12-C , 13-H ) :   0.9782 B( 12-C , 14-H ) :   0.9703
B( 12-C , 15-H ) :   0.9719 B( 16-S , 17-C ) :   1.1607 B( 16-S , 20-C ) :   1.1238
B( 17-C , 18-C ) :   1.6182 B( 17-C , 33-H ) :   0.9696 B( 18-C , 19-C ) :   1.2233
B( 18-C , 21-H ) :   0.9933 B( 19-C , 20-C ) :   1.6163 B( 19-C , 22-C ) :   1.0414
B( 22-C , 23-H ) :   0.9323 B( 22-C , 24-H ) :   0.9385 B( 22-C , 25-C ) :   1.0386
B( 25-C , 26-H ) :   0.9671 B( 25-C , 27-H ) :   0.9551 B( 25-C , 28-C ) :   1.0719
B( 28-C , 29-H ) :   0.9754 B( 28-C , 30-H ) :   0.9763 B( 28-C , 31-H ) :   0.9758

Dispersion correction           -0.013925332
FINAL SINGLE POINT ENERGY     -1339.865814394488

DIPOLE MOMENT
-------------
                                X             Y             Z
Electronic contribution:    -11.96935      18.23945       8.32626
Nuclear contribution   :     12.26550     -18.60629      -8.51928
                        -----------------------------------------
Total Dipole Moment    :      0.29615      -0.36684      -0.19302
                        -----------------------------------------
Magnitude (a.u.)       :      0.50945
Magnitude (Debye)      :      1.29491

Rotational constants in cm-1:     0.019427     0.007804     0.006424
Rotational constants in MHz :   582.396008   233.947668   192.574108

                             ****ORCA TERMINATED NORMALLY****
TOTAL RUN TIME: 0 days 0 hours 0 minutes 34 seconds 608 msec
