                         Program Version 4.2.1 -  RELEASE  -
|  1> ! wB97X-D3 SP def2-SVP
|  2> %pal
|  3> nprocs 16
|  4> end
|  5>
|  6> * xyz 0 1
|  7> S 	 9.26592 	 23.8916 	 68.8056
|  8> C 	 8.33096 	 22.9849 	 67.6391
|  9> C 	 8.13392 	 23.7383 	 66.4745
| 10> C 	 8.62901 	 25.0787 	 66.6152
| 11> C 	 9.34549 	 25.2852 	 67.7867
| 12> H 	 8.57006 	 25.8673 	 65.8974
| 13> C 	 7.35731 	 23.2883 	 65.2388
| 14> H 	 8.02587 	 23.1703 	 64.3606
| 15> H 	 6.77269 	 24.2475 	 64.9378
| 16> C 	 6.30418 	 22.2186 	 65.4061
| 17> H 	 6.10118 	 21.7496 	 64.4096
| 18> H 	 6.76396 	 21.311 	 65.9009
| 19> C 	 5.0463 	 22.6643 	 66.2135
| 20> H 	 4.52949 	 23.3996 	 65.6336
| 21> H 	 4.40404 	 21.7639 	 66.3412
| 22> H 	 5.23944 	 23.2071 	 67.1598
| 23> S 	 10.2591 	 26.9724 	 69.7329
| 24> C 	 11.0437 	 28.4648 	 69.2839
| 25> C 	 11.5317 	 28.365 	 68.013
| 26> C 	 10.9887 	 27.2553 	 67.2856
| 27> C 	 10.2066 	 26.4212 	 68.1066
| 28> H 	 12.16 	 29.1373 	 67.6004
| 29> C 	 11.3597 	 27.074 	 65.8495
| 30> H 	 11.856 	 27.9023 	 65.4079
| 31> H 	 10.4215 	 27.0941 	 65.2446
| 32> C 	 12.1315 	 25.8396 	 65.4167
| 33> H 	 11.8268 	 25.6544 	 64.3584
| 34> H 	 11.8441 	 25.0515 	 66.165
| 35> C 	 13.6597 	 26.056 	 65.5199
| 36> H 	 14.0471 	 26.7626 	 64.8335
| 37> H 	 14.2064 	 25.1091 	 65.2745
| 38> H 	 13.9423 	 26.335 	 66.5508
| 39> H 	 7.96256 	 21.9242 	 67.7836
| 40> H 	 11.3019 	 29.1972 	 70.0391
| 41> *
| 42>
| 43>                          ****END OF INPUT****

CARTESIAN COORDINATES (ANGSTROEM)
---------------------------------
  S      9.265920   23.891600   68.805600
  C      8.330960   22.984900   67.639100
  C      8.133920   23.738300   66.474500
  C      8.629010   25.078700   66.615200
  C      9.345490   25.285200   67.786700
  H      8.570060   25.867300   65.897400
  C      7.357310   23.288300   65.238800
  H      8.025870   23.170300   64.360600
  H      6.772690   24.247500   64.937800
  C      6.304180   22.218600   65.406100
  H      6.101180   21.749600   64.409600
  H      6.763960   21.311000   65.900900
  C      5.046300   22.664300   66.213500
  H      4.529490   23.399600   65.633600
  H      4.404040   21.763900   66.341200
  H      5.239440   23.207100   67.159800
  S     10.259100   26.972400   69.732900
  C     11.043700   28.464800   69.283900
  C     11.531700   28.365000   68.013000
  C     10.988700   27.255300   67.285600
  C     10.206600   26.421200   68.106600
  H     12.160000   29.137300   67.600400
  C     11.359700   27.074000   65.849500
  H     11.856000   27.902300   65.407900
  H     10.421500   27.094100   65.244600
  C     12.131500   25.839600   65.416700
  H     11.826800   25.654400   64.358400
  H     11.844100   25.051500   66.165000
  C     13.659700   26.056000   65.519900
  H     14.047100   26.762600   64.833500
  H     14.206400   25.109100   65.274500
  H     13.942300   26.335000   66.550800
  H      7.962560   21.924200   67.783600
  H     11.301900   29.197200   70.039100

 Total Charge           Charge          ....    0
 Multiplicity           Mult            ....    1
 Number of Electrons    NEL             ....  134
 Basis Dimension        Dim             ....  322

ORBITAL ENERGIES
----------------

  NO   OCC          E(Eh)            E(eV)
   0   2.0000     -88.966531     -2420.9024
   1   2.0000     -88.964050     -2420.8349
   2   2.0000     -10.329417      -281.0777
   3   2.0000     -10.328345      -281.0485
   4   2.0000     -10.319268      -280.8016
   5   2.0000     -10.316775      -280.7337
   6   2.0000     -10.306034      -280.4415
   7   2.0000     -10.305745      -280.4336
   8   2.0000     -10.301465      -280.3171
   9   2.0000     -10.296841      -280.1913
  10   2.0000     -10.293957      -280.1128
  11   2.0000     -10.292557      -280.0747
  12   2.0000     -10.288471      -279.9635
  13   2.0000     -10.285441      -279.8811
  14   2.0000     -10.282841      -279.8103
  15   2.0000     -10.275758      -279.6176
  16   2.0000      -8.081557      -219.9103
  17   2.0000      -8.079855      -219.8640
  18   2.0000      -6.040071      -164.3587
  19   2.0000      -6.038298      -164.3104
  20   2.0000      -6.035955      -164.2467
  21   2.0000      -6.034241      -164.2001
  22   2.0000      -6.032384      -164.1495
  23   2.0000      -6.030604      -164.1011
  24   2.0000      -1.010891       -27.5077
  25   2.0000      -0.986614       -26.8471
  26   2.0000      -0.911386       -24.8001
  27   2.0000      -0.909593       -24.7513
  28   2.0000      -0.868098       -23.6221
  29   2.0000      -0.850004       -23.1298
  30   2.0000      -0.843580       -22.9550
  31   2.0000      -0.811507       -22.0822
  32   2.0000      -0.782565       -21.2947
  33   2.0000      -0.773443       -21.0465
  34   2.0000      -0.706970       -19.2376
  35   2.0000      -0.702353       -19.1120
  36   2.0000      -0.683203       -18.5909
  37   2.0000      -0.666915       -18.1477
  38   2.0000      -0.636333       -17.3155
  39   2.0000      -0.610549       -16.6139
  40   2.0000      -0.601206       -16.3597
  41   2.0000      -0.572151       -15.5690
  42   2.0000      -0.554046       -15.0764
  43   2.0000      -0.550833       -14.9889
  44   2.0000      -0.542001       -14.7486
  45   2.0000      -0.528200       -14.3731
  46   2.0000      -0.514019       -13.9872
  47   2.0000      -0.508724       -13.8431
  48   2.0000      -0.504406       -13.7256
  49   2.0000      -0.493958       -13.4413
  50   2.0000      -0.490679       -13.3521
  51   2.0000      -0.482493       -13.1293
  52   2.0000      -0.475313       -12.9339
  53   2.0000      -0.468247       -12.7416
  54   2.0000      -0.461394       -12.5552
  55   2.0000      -0.447027       -12.1642
  56   2.0000      -0.441097       -12.0028
  57   2.0000      -0.435916       -11.8619
  58   2.0000      -0.430695       -11.7198
  59   2.0000      -0.424166       -11.5422
  60   2.0000      -0.421975       -11.4825
  61   2.0000      -0.409487       -11.1427
  62   2.0000      -0.405842       -11.0435
  63   2.0000      -0.354339        -9.6421
  64   2.0000      -0.332003        -9.0343
  65   2.0000      -0.325970        -8.8701
  66   2.0000      -0.286086        -7.7848
  67   0.0000       0.023062         0.6275
  68   0.0000       0.076142         2.0719
  69   0.0000       0.102719         2.7951
  70   0.0000       0.119471         3.2510
  71   0.0000       0.134748         3.6667

MULLIKEN ATOMIC CHARGES
-----------------------
   0 S :    0.107579
   1 C :   -0.144513
   2 C :   -0.087390
   3 C :    0.015460
   4 C :   -0.117528
   5 H :   -0.002097
   6 C :    0.022740
   7 H :    0.049116
   8 H :    0.032069
   9 C :   -0.090577
  10 H :    0.032478
  11 H :    0.023073
  12 C :   -0.051735
  13 H :    0.023301
  14 H :    0.047548
  15 H :    0.053912
  16 S :    0.100521
  17 C :   -0.097933
  18 C :   -0.017751
  19 C :   -0.049027
  20 C :   -0.136903
  21 H :    0.018902
  22 C :    0.061890
  23 H :   -0.006052
  24 H :    0.023261
  25 C :   -0.073451
  26 H :    0.034171
  27 H :    0.054788
  28 C :   -0.057582
  29 H :    0.020130
  30 H :    0.036775
  31 H :    0.036866
  32 H :    0.075045
  33 H :    0.062912
Sum of atomic charges:   -0.0000000

LOEWDIN ATOMIC CHARGES
----------------------
   0 S :    0.412806
   1 C :   -0.215490
   2 C :   -0.063016
   3 C :   -0.065117
   4 C :   -0.197566
   5 H :    0.025325
   6 C :   -0.045168
   7 H :    0.037159
   8 H :    0.039185
   9 C :   -0.054526
  10 H :    0.032144
  11 H :    0.021993
  12 C :   -0.066512
  13 H :    0.020320
  14 H :    0.033570
  15 H :    0.034266
  16 S :    0.419288
  17 C :   -0.182246
  18 C :   -0.067722
  19 C :   -0.055589
  20 C :   -0.209837
  21 H :    0.031829
  22 C :   -0.043725
  23 H :    0.022621
  24 H :    0.034957
  25 C :   -0.039888
  26 H :    0.029462
  27 H :    0.035842
  28 C :   -0.069481
  29 H :    0.014709
  30 H :    0.030538
  31 H :    0.028253
  32 H :    0.042414
  33 H :    0.029201

  Mayer bond orders larger than 0.100000
B(  0-S ,  1-C ) :   1.1333 B(  0-S ,  4-C ) :   1.1607 B(  1-C ,  2-C ) :   1.6042
B(  1-C , 32-H ) :   0.9573 B(  2-C ,  3-C ) :   1.2463 B(  2-C ,  6-C ) :   1.0036
B(  3-C ,  4-C ) :   1.5673 B(  3-C ,  5-H ) :   1.0008 B(  4-C , 20-C ) :   1.0376
B(  6-C ,  7-H ) :   0.9339 B(  6-C ,  8-H ) :   0.9493 B(  6-C ,  9-C ) :   1.0792
B(  9-C , 10-H ) :   0.9505 B(  9-C , 11-H ) :   0.9506 B(  9-C , 12-C ) :   1.0607
B( 12-C , 13-H ) :   0.9741 B( 12-C , 14-H ) :   0.9751 B( 12-C , 15-H ) :   0.9766
B( 16-S , 17-C ) :   1.1649 B( 16-S , 20-C ) :   1.1518 B( 17-C , 18-C ) :   1.5814
B( 17-C , 20-C ) :   0.1013 B( 17-C , 33-H ) :   0.9698 B( 18-C , 19-C ) :   1.2605
B( 18-C , 21-H ) :   0.9933 B( 19-C , 20-C ) :   1.5501 B( 19-C , 22-C ) :   1.0600
B( 22-C , 23-H ) :   0.9250 B( 22-C , 24-H ) :   0.9265 B( 22-C , 25-C ) :   1.0552
B( 25-C , 26-H ) :   0.9524 B( 25-C , 27-H ) :   0.9602 B( 25-C , 28-C ) :   1.0828
B( 28-C , 29-H ) :   0.9746 B( 28-C , 30-H ) :   0.9745 B( 28-C , 31-H ) :   0.9765

Dispersion correction           -0.014689335
FINAL SINGLE POINT ENERGY     -1339.881752942358

DIPOLE MOMENT
-------------
                                X             Y             Z
Electronic contribution:      2.92153       6.79567      22.45284
Nuclear contribution   :     -2.90096      -6.67941     -23.12256
                        -----------------------------------------
Total Dipole Moment    :      0.02056       0.11626      -0.66972
                        -----------------------------------------
Magnitude (a.u.)       :      0.68005
Magnitude (Debye)      :      1.72854

Rotational constants in cm-1:     0.021673     0.008089     0.006719
Rotational constants in MHz :   649.754376   242.502260   201.424687

                             ****ORCA TERMINATED NORMALLY****
TOTAL RUN TIME: 0 days 0 hours 0 minutes 35 seconds 160 msec
