                         Program Version 4.2.1 -  RELEASE  -
|  1> ! wB97X-D3 SP def2-SVP
|  2> %pal
|  3> nprocs 16
|  4> end
|  5>
|  6> * xyz 0 1
|  7> S 	 -40.7674 	 36.2647 	 80.1551
|  8> C 	 -40.4023 	 38.0061 	 80.3877
|  9> C 	 -41.5333 	 38.704 	 80.6214
| 10> C 	 -42.6598 	 37.8542 	 80.9288
| 11> C 	 -42.4518 	 36.4993 	 80.6864
| 12> H 	 -43.6886 	 38.1715 	 81.1696
| 13> C 	 -41.5679 	 40.2308 	 80.7453
| 14> H 	 -40.7577 	 40.6923 	 81.3277
| 15> H 	 -42.494 	 40.3407 	 81.2975
| 16> C 	 -41.9538 	 40.9908 	 79.4204
| 17> H 	 -42.207 	 42.0089 	 79.6115
| 18> H 	 -40.9742 	 40.9242 	 78.9506
| 19> C 	 -43.0161 	 40.2938 	 78.5855
| 20> H 	 -43.2643 	 40.7419 	 77.6059
| 21> H 	 -42.7111 	 39.2741 	 78.4128
| 22> H 	 -43.977 	 40.3769 	 79.071
| 23> S 	 -43.9746 	 34.6323 	 79.4823
| 24> C 	 -45.0854 	 33.6541 	 80.3374
| 25> C 	 -45.0085 	 33.9066 	 81.6929
| 26> C 	 -44.1254 	 35.0067 	 82.0146
| 27> C 	 -43.3793 	 35.414 	 80.9566
| 28> H 	 -45.5356 	 33.1763 	 82.3711
| 29> C 	 -43.6463 	 35.4067 	 83.465
| 30> H 	 -42.6255 	 35.7463 	 83.5369
| 31> H 	 -43.6563 	 34.533 	 84.0684
| 32> C 	 -44.5083 	 36.5979 	 83.9854
| 33> H 	 -44.191 	 37.5756 	 83.6523
| 34> H 	 -44.3581 	 36.5288 	 85.0569
| 35> C 	 -46.0175 	 36.4276 	 83.7276
| 36> H 	 -46.2646 	 36.6399 	 82.6592
| 37> H 	 -46.7544 	 37.0761 	 84.2559
| 38> H 	 -46.2742 	 35.4086 	 83.9441
| 39> H 	 -39.4141 	 38.4512 	 80.1975
| 40> H 	 -45.5511 	 32.7878 	 79.8837
| 41> *
| 42>
| 43>                          ****END OF INPUT****

CARTESIAN COORDINATES (ANGSTROEM)
---------------------------------
  S    -40.767400   36.264700   80.155100
  C    -40.402300   38.006100   80.387700
  C    -41.533300   38.704000   80.621400
  C    -42.659800   37.854200   80.928800
  C    -42.451800   36.499300   80.686400
  H    -43.688600   38.171500   81.169600
  C    -41.567900   40.230800   80.745300
  H    -40.757700   40.692300   81.327700
  H    -42.494000   40.340700   81.297500
  C    -41.953800   40.990800   79.420400
  H    -42.207000   42.008900   79.611500
  H    -40.974200   40.924200   78.950600
  C    -43.016100   40.293800   78.585500
  H    -43.264300   40.741900   77.605900
  H    -42.711100   39.274100   78.412800
  H    -43.977000   40.376900   79.071000
  S    -43.974600   34.632300   79.482300
  C    -45.085400   33.654100   80.337400
  C    -45.008500   33.906600   81.692900
  C    -44.125400   35.006700   82.014600
  C    -43.379300   35.414000   80.956600
  H    -45.535600   33.176300   82.371100
  C    -43.646300   35.406700   83.465000
  H    -42.625500   35.746300   83.536900
  H    -43.656300   34.533000   84.068400
  C    -44.508300   36.597900   83.985400
  H    -44.191000   37.575600   83.652300
  H    -44.358100   36.528800   85.056900
  C    -46.017500   36.427600   83.727600
  H    -46.264600   36.639900   82.659200
  H    -46.754400   37.076100   84.255900
  H    -46.274200   35.408600   83.944100
  H    -39.414100   38.451200   80.197500
  H    -45.551100   32.787800   79.883700

 Total Charge           Charge          ....    0
 Multiplicity           Mult            ....    1
 Number of Electrons    NEL             ....  134
 Basis Dimension        Dim             ....  322

ORBITAL ENERGIES
----------------

  NO   OCC          E(Eh)            E(eV)
   0   2.0000     -88.965577     -2420.8764
   1   2.0000     -88.957579     -2420.6588
   2   2.0000     -10.334384      -281.2129
   3   2.0000     -10.325042      -280.9587
   4   2.0000     -10.318810      -280.7891
   5   2.0000     -10.315403      -280.6964
   6   2.0000     -10.308204      -280.5005
   7   2.0000     -10.304173      -280.3908
   8   2.0000     -10.302003      -280.3318
   9   2.0000     -10.301435      -280.3163
  10   2.0000     -10.294741      -280.1341
  11   2.0000     -10.293042      -280.0879
  12   2.0000     -10.285541      -279.8838
  13   2.0000     -10.284124      -279.8452
  14   2.0000     -10.275623      -279.6139
  15   2.0000     -10.274113      -279.5728
  16   2.0000      -8.079310      -219.8492
  17   2.0000      -8.073492      -219.6909
  18   2.0000      -6.038025      -164.3030
  19   2.0000      -6.033984      -164.1930
  20   2.0000      -6.031942      -164.1375
  21   2.0000      -6.029864      -164.0809
  22   2.0000      -6.027677      -164.0214
  23   2.0000      -6.024386      -163.9319
  24   2.0000      -1.006556       -27.3898
  25   2.0000      -0.983456       -26.7612
  26   2.0000      -0.910262       -24.7695
  27   2.0000      -0.903769       -24.5928
  28   2.0000      -0.871160       -23.7055
  29   2.0000      -0.842915       -22.9369
  30   2.0000      -0.838260       -22.8102
  31   2.0000      -0.813731       -22.1427
  32   2.0000      -0.783856       -21.3298
  33   2.0000      -0.777002       -21.1433
  34   2.0000      -0.706831       -19.2339
  35   2.0000      -0.701181       -19.0801
  36   2.0000      -0.690421       -18.7873
  37   2.0000      -0.660479       -17.9725
  38   2.0000      -0.638772       -17.3819
  39   2.0000      -0.610377       -16.6092
  40   2.0000      -0.590447       -16.0669
  41   2.0000      -0.576085       -15.6761
  42   2.0000      -0.559115       -15.2143
  43   2.0000      -0.550837       -14.9890
  44   2.0000      -0.544651       -14.8207
  45   2.0000      -0.537658       -14.6304
  46   2.0000      -0.515373       -14.0240
  47   2.0000      -0.508502       -13.8370
  48   2.0000      -0.502673       -13.6784
  49   2.0000      -0.492888       -13.4122
  50   2.0000      -0.485911       -13.2223
  51   2.0000      -0.477663       -12.9979
  52   2.0000      -0.469372       -12.7722
  53   2.0000      -0.463974       -12.6254
  54   2.0000      -0.460525       -12.5315
  55   2.0000      -0.449036       -12.2189
  56   2.0000      -0.445505       -12.1228
  57   2.0000      -0.439962       -11.9720
  58   2.0000      -0.431122       -11.7314
  59   2.0000      -0.426445       -11.6042
  60   2.0000      -0.418309       -11.3828
  61   2.0000      -0.400098       -10.8872
  62   2.0000      -0.396816       -10.7979
  63   2.0000      -0.340770        -9.2728
  64   2.0000      -0.332728        -9.0540
  65   2.0000      -0.327312        -8.9066
  66   2.0000      -0.304480        -8.2853
  67   0.0000       0.033677         0.9164
  68   0.0000       0.062234         1.6935
  69   0.0000       0.114555         3.1172
  70   0.0000       0.116917         3.1815
  71   0.0000       0.123237         3.3535

MULLIKEN ATOMIC CHARGES
-----------------------
   0 S :    0.094279
   1 C :   -0.132241
   2 C :   -0.104376
   3 C :    0.031336
   4 C :   -0.140514
   5 H :    0.030931
   6 C :    0.057019
   7 H :    0.048902
   8 H :    0.007069
   9 C :   -0.054591
  10 H :    0.031998
  11 H :    0.022431
  12 C :   -0.057386
  13 H :    0.034666
  14 H :    0.056050
  15 H :    0.022675
  16 S :    0.086365
  17 C :   -0.090192
  18 C :   -0.063230
  19 C :   -0.040944
  20 C :   -0.161991
  21 H :    0.046105
  22 C :    0.075144
  23 H :    0.037366
  24 H :    0.020406
  25 C :   -0.067020
  26 H :    0.030528
  27 H :    0.022916
  28 C :   -0.059759
  29 H :    0.039470
  30 H :    0.037546
  31 H :    0.014429
  32 H :    0.060118
  33 H :    0.064495
Sum of atomic charges:   -0.0000000

LOEWDIN ATOMIC CHARGES
----------------------
   0 S :    0.369606
   1 C :   -0.177548
   2 C :   -0.071246
   3 C :   -0.058356
   4 C :   -0.190731
   5 H :    0.035724
   6 C :   -0.032093
   7 H :    0.034817
   8 H :    0.025246
   9 C :   -0.034154
  10 H :    0.019728
  11 H :    0.020555
  12 C :   -0.066915
  13 H :    0.031399
  14 H :    0.029989
  15 H :    0.022553
  16 S :    0.404925
  17 C :   -0.195423
  18 C :   -0.082162
  19 C :   -0.054539
  20 C :   -0.190036
  21 H :    0.042060
  22 C :   -0.014789
  23 H :    0.034421
  24 H :    0.024879
  25 C :   -0.037639
  26 H :    0.018983
  27 H :    0.023465
  28 C :   -0.074098
  29 H :    0.028617
  30 H :    0.028248
  31 H :    0.018078
  32 H :    0.035100
  33 H :    0.031335

  Mayer bond orders larger than 0.100000
B(  0-S ,  1-C ) :   1.1210 B(  0-S ,  4-C ) :   1.1281 B(  1-C ,  2-C ) :   1.6431
B(  1-C , 32-H ) :   0.9671 B(  2-C ,  3-C ) :   1.2095 B(  2-C ,  6-C ) :   1.0024
B(  3-C ,  4-C ) :   1.6172 B(  3-C ,  5-H ) :   0.9812 B(  4-C , 20-C ) :   1.0001
B(  6-C ,  7-H ) :   0.9585 B(  6-C ,  8-H ) :   0.9354 B(  6-C ,  9-C ) :   1.0411
B(  9-C , 10-H ) :   0.9619 B(  9-C , 11-H ) :   0.9599 B(  9-C , 12-C ) :   1.0881
B( 12-C , 13-H ) :   0.9714 B( 12-C , 14-H ) :   0.9660 B( 12-C , 15-H ) :   0.9743
B( 16-S , 17-C ) :   1.1705 B( 16-S , 20-C ) :   1.1368 B( 17-C , 18-C ) :   1.6235
B( 17-C , 33-H ) :   0.9647 B( 18-C , 19-C ) :   1.2020 B( 18-C , 21-H ) :   0.9784
B( 19-C , 20-C ) :   1.6484 B( 19-C , 22-C ) :   1.0172 B( 22-C , 23-H ) :   0.9507
B( 22-C , 24-H ) :   0.9467 B( 22-C , 25-C ) :   1.0577 B( 25-C , 26-H ) :   0.9585
B( 25-C , 27-H ) :   0.9529 B( 25-C , 28-C ) :   1.0862 B( 28-C , 29-H ) :   0.9667
B( 28-C , 30-H ) :   0.9751 B( 28-C , 31-H ) :   0.9739

Dispersion correction           -0.015688129
FINAL SINGLE POINT ENERGY     -1339.863758369507

DIPOLE MOMENT
-------------
                                X             Y             Z
Electronic contribution:      9.20164     -18.23351      -9.80340
Nuclear contribution   :     -9.35078      18.55562      10.18633
                        -----------------------------------------
Total Dipole Moment    :     -0.14913       0.32211       0.38293
                        -----------------------------------------
Magnitude (a.u.)       :      0.52214
Magnitude (Debye)      :      1.32718

Rotational constants in cm-1:     0.019443     0.008942     0.007814
Rotational constants in MHz :   582.895438   268.062973   234.270513

                             ****ORCA TERMINATED NORMALLY****
TOTAL RUN TIME: 0 days 0 hours 0 minutes 31 seconds 708 msec
