                         Program Version 4.2.1 -  RELEASE  -
|  1> ! wB97X-D3 SP def2-SVP
|  2> %pal
|  3> nprocs 16
|  4> end
|  5>
|  6> * xyz 0 1
|  7> S 	 17.8368 	 2.17092 	 86.4961
|  8> C 	 18.6515 	 3.36549 	 85.4856
|  9> C 	 18.551 	 4.63322 	 85.994
| 10> C 	 17.8546 	 4.64748 	 87.209
| 11> C 	 17.3657 	 3.44896 	 87.5396
| 12> H 	 17.7068 	 5.44197 	 87.9045
| 13> C 	 19.217 	 5.87029 	 85.4281
| 14> H 	 19.9743 	 5.62932 	 84.6828
| 15> H 	 19.8056 	 6.26982 	 86.2631
| 16> C 	 18.1907 	 6.9387 	 84.9879
| 17> H 	 17.5506 	 7.06048 	 85.8812
| 18> H 	 18.6873 	 7.89967 	 84.8059
| 19> C 	 17.2761 	 6.60926 	 83.7886
| 20> H 	 17.7895 	 6.86158 	 82.8802
| 21> H 	 17.2048 	 5.51916 	 83.7893
| 22> H 	 16.2992 	 7.0709 	 83.9042
| 23> S 	 17.1686 	 3.58473 	 90.3996
| 24> C 	 15.6065 	 3.35423 	 91.1223
| 25> C 	 14.6699 	 3.09325 	 90.0962
| 26> C 	 15.1437 	 3.21529 	 88.7545
| 27> C 	 16.5231 	 3.20835 	 88.7282
| 28> H 	 13.6661 	 2.90516 	 90.3579
| 29> C 	 14.2357 	 3.19081 	 87.5188
| 30> H 	 14.0289 	 2.14632 	 87.1995
| 31> H 	 14.7418 	 3.51859 	 86.66
| 32> C 	 12.974 	 4.09402 	 87.7572
| 33> H 	 13.3551 	 5.07053 	 88.1258
| 34> H 	 12.3133 	 3.67336 	 88.5394
| 35> C 	 12.1888 	 4.24602 	 86.4389
| 36> H 	 12.922 	 4.60132 	 85.6618
| 37> H 	 11.4329 	 5.0931 	 86.4847
| 38> H 	 11.6334 	 3.32861 	 86.191
| 39> H 	 19.2985 	 3.09704 	 84.6946
| 40> H 	 15.4776 	 3.32372 	 92.1684
| 41> *
| 42>
| 43>                          ****END OF INPUT****

CARTESIAN COORDINATES (ANGSTROEM)
---------------------------------
  S     17.836800    2.170920   86.496100
  C     18.651500    3.365490   85.485600
  C     18.551000    4.633220   85.994000
  C     17.854600    4.647480   87.209000
  C     17.365700    3.448960   87.539600
  H     17.706800    5.441970   87.904500
  C     19.217000    5.870290   85.428100
  H     19.974300    5.629320   84.682800
  H     19.805600    6.269820   86.263100
  C     18.190700    6.938700   84.987900
  H     17.550600    7.060480   85.881200
  H     18.687300    7.899670   84.805900
  C     17.276100    6.609260   83.788600
  H     17.789500    6.861580   82.880200
  H     17.204800    5.519160   83.789300
  H     16.299200    7.070900   83.904200
  S     17.168600    3.584730   90.399600
  C     15.606500    3.354230   91.122300
  C     14.669900    3.093250   90.096200
  C     15.143700    3.215290   88.754500
  C     16.523100    3.208350   88.728200
  H     13.666100    2.905160   90.357900
  C     14.235700    3.190810   87.518800
  H     14.028900    2.146320   87.199500
  H     14.741800    3.518590   86.660000
  C     12.974000    4.094020   87.757200
  H     13.355100    5.070530   88.125800
  H     12.313300    3.673360   88.539400
  C     12.188800    4.246020   86.438900
  H     12.922000    4.601320   85.661800
  H     11.432900    5.093100   86.484700
  H     11.633400    3.328610   86.191000
  H     19.298500    3.097040   84.694600
  H     15.477600    3.323720   92.168400

 Total Charge           Charge          ....    0
 Multiplicity           Mult            ....    1
 Number of Electrons    NEL             ....  134
 Basis Dimension        Dim             ....  322

ORBITAL ENERGIES
----------------

  NO   OCC          E(Eh)            E(eV)
   0   2.0000     -88.966610     -2420.9045
   1   2.0000     -88.963149     -2420.8104
   2   2.0000     -10.326164      -280.9892
   3   2.0000     -10.319601      -280.8106
   4   2.0000     -10.319252      -280.8011
   5   2.0000     -10.309031      -280.5230
   6   2.0000     -10.304557      -280.4012
   7   2.0000     -10.297630      -280.2128
   8   2.0000     -10.294541      -280.1287
   9   2.0000     -10.293291      -280.0947
  10   2.0000     -10.293146      -280.0907
  11   2.0000     -10.292784      -280.0809
  12   2.0000     -10.288340      -279.9600
  13   2.0000     -10.287594      -279.9397
  14   2.0000     -10.283165      -279.8191
  15   2.0000     -10.273251      -279.5494
  16   2.0000      -8.081776      -219.9163
  17   2.0000      -8.076909      -219.7839
  18   2.0000      -6.040083      -164.3590
  19   2.0000      -6.036387      -164.2584
  20   2.0000      -6.035493      -164.2341
  21   2.0000      -6.032561      -164.1543
  22   2.0000      -6.031545      -164.1267
  23   2.0000      -6.027677      -164.0214
  24   2.0000      -1.010762       -27.5042
  25   2.0000      -0.981446       -26.7065
  26   2.0000      -0.911108       -24.7925
  27   2.0000      -0.904141       -24.6029
  28   2.0000      -0.866421       -23.5765
  29   2.0000      -0.851234       -23.1633
  30   2.0000      -0.844861       -22.9898
  31   2.0000      -0.809518       -22.0281
  32   2.0000      -0.784024       -21.3344
  33   2.0000      -0.773006       -21.0346
  34   2.0000      -0.703127       -19.1331
  35   2.0000      -0.700035       -19.0489
  36   2.0000      -0.690371       -18.7860
  37   2.0000      -0.658522       -17.9193
  38   2.0000      -0.643279       -17.5045
  39   2.0000      -0.621172       -16.9030
  40   2.0000      -0.601310       -16.3625
  41   2.0000      -0.566250       -15.4084
  42   2.0000      -0.564507       -15.3610
  43   2.0000      -0.549837       -14.9618
  44   2.0000      -0.541927       -14.7466
  45   2.0000      -0.524945       -14.2845
  46   2.0000      -0.519216       -14.1286
  47   2.0000      -0.511466       -13.9177
  48   2.0000      -0.508905       -13.8480
  49   2.0000      -0.491452       -13.3731
  50   2.0000      -0.482448       -13.1281
  51   2.0000      -0.479462       -13.0468
  52   2.0000      -0.469876       -12.7860
  53   2.0000      -0.462818       -12.5939
  54   2.0000      -0.457527       -12.4499
  55   2.0000      -0.448001       -12.1907
  56   2.0000      -0.447181       -12.1684
  57   2.0000      -0.441789       -12.0217
  58   2.0000      -0.429830       -11.6963
  59   2.0000      -0.425499       -11.5784
  60   2.0000      -0.422142       -11.4871
  61   2.0000      -0.413930       -11.2636
  62   2.0000      -0.411931       -11.2092
  63   2.0000      -0.339720        -9.2443
  64   2.0000      -0.331105        -9.0098
  65   2.0000      -0.324227        -8.8227
  66   2.0000      -0.304167        -8.2768
  67   0.0000       0.041458         1.1281
  68   0.0000       0.057062         1.5527
  69   0.0000       0.106192         2.8896
  70   0.0000       0.120030         3.2662
  71   0.0000       0.130645         3.5550

MULLIKEN ATOMIC CHARGES
-----------------------
   0 S :    0.115010
   1 C :   -0.119238
   2 C :   -0.070762
   3 C :    0.025053
   4 C :   -0.178338
   5 H :    0.005939
   6 C :    0.082291
   7 H :    0.016898
   8 H :    0.032951
   9 C :   -0.104688
  10 H :    0.025824
  11 H :    0.033277
  12 C :   -0.023384
  13 H :    0.027000
  14 H :    0.026526
  15 H :    0.043779
  16 S :    0.083381
  17 C :   -0.086393
  18 C :   -0.004055
  19 C :   -0.033359
  20 C :   -0.157386
  21 H :    0.000859
  22 C :    0.103282
  23 H :    0.041532
  24 H :    0.005918
  25 C :   -0.122293
  26 H :    0.044252
  27 H :    0.042845
  28 C :   -0.068741
  29 H :    0.041056
  30 H :    0.039795
  31 H :    0.046950
  32 H :    0.030816
  33 H :    0.053406
Sum of atomic charges:   -0.0000000

LOEWDIN ATOMIC CHARGES
----------------------
   0 S :    0.412387
   1 C :   -0.188529
   2 C :   -0.060744
   3 C :   -0.062713
   4 C :   -0.200061
   5 H :    0.029869
   6 C :   -0.030479
   7 H :    0.024982
   8 H :    0.037676
   9 C :   -0.043237
  10 H :    0.024076
  11 H :    0.022618
  12 C :   -0.063770
  13 H :    0.022421
  14 H :    0.026475
  15 H :    0.029569
  16 S :    0.374132
  17 C :   -0.177735
  18 C :   -0.066000
  19 C :   -0.047786
  20 C :   -0.182355
  21 H :    0.019251
  22 C :   -0.028568
  23 H :    0.038710
  24 H :    0.021555
  25 C :   -0.041828
  26 H :    0.030108
  27 H :    0.024266
  28 C :   -0.075033
  29 H :    0.031290
  30 H :    0.030441
  31 H :    0.028542
  32 H :    0.018138
  33 H :    0.022332

  Mayer bond orders larger than 0.100000
B(  0-S ,  1-C ) :   1.1304 B(  0-S ,  4-C ) :   1.1540 B(  1-C ,  2-C ) :   1.6225
B(  1-C , 32-H ) :   0.9739 B(  2-C ,  3-C ) :   1.2085 B(  2-C ,  6-C ) :   1.0184
B(  3-C ,  4-C ) :   1.6232 B(  3-C ,  5-H ) :   1.0001 B(  4-C , 20-C ) :   0.9814
B(  6-C ,  7-H ) :   0.9461 B(  6-C ,  8-H ) :   0.9368 B(  6-C ,  9-C ) :   1.0654
B(  9-C , 10-H ) :   0.9599 B(  9-C , 11-H ) :   0.9593 B(  9-C , 12-C ) :   1.0672
B( 12-C , 13-H ) :   0.9756 B( 12-C , 14-H ) :   0.9769 B( 12-C , 15-H ) :   0.9758
B( 16-S , 17-C ) :   1.1633 B( 16-S , 20-C ) :   1.1225 B( 17-C , 18-C ) :   1.5913
B( 17-C , 20-C ) :   0.1050 B( 17-C , 33-H ) :   0.9759 B( 18-C , 19-C ) :   1.2351
B( 18-C , 21-H ) :   0.9956 B( 19-C , 20-C ) :   1.6071 B( 19-C , 22-C ) :   1.0419
B( 22-C , 23-H ) :   0.9351 B( 22-C , 24-H ) :   0.9271 B( 22-C , 25-C ) :   1.0436
B( 25-C , 26-H ) :   0.9606 B( 25-C , 27-H ) :   0.9546 B( 25-C , 28-C ) :   1.0838
B( 28-C , 29-H ) :   0.9736 B( 28-C , 30-H ) :   0.9750 B( 28-C , 31-H ) :   0.9738

Dispersion correction           -0.014597331
FINAL SINGLE POINT ENERGY     -1339.879691523261

DIPOLE MOMENT
-------------
                                X             Y             Z
Electronic contribution:     13.46273     -15.71540      16.96199
Nuclear contribution   :    -13.73253      16.11157     -17.15769
                        -----------------------------------------
Total Dipole Moment    :     -0.26980       0.39618      -0.19571
                        -----------------------------------------
Magnitude (a.u.)       :      0.51773
Magnitude (Debye)      :      1.31598

Rotational constants in cm-1:     0.016454     0.009403     0.007517
Rotational constants in MHz :   493.266362   281.881183   225.357034

                             ****ORCA TERMINATED NORMALLY****
TOTAL RUN TIME: 0 days 0 hours 0 minutes 33 seconds 532 msec
