                         Program Version 4.2.1 -  RELEASE  -
|  1> ! wB97X-D3 SP def2-SVP
|  2> %pal
|  3> nprocs 16
|  4> end
|  5>
|  6> * xyz 0 1
|  7> S 	 -62.2258 	 43.0066 	 131.67
|  8> C 	 -63.1659 	 42.7688 	 133.112
|  9> C 	 -62.5826 	 41.8554 	 134.008
| 10> C 	 -61.3384 	 41.3684 	 133.514
| 11> C 	 -61.0374 	 41.8885 	 132.294
| 12> H 	 -60.7298 	 40.6732 	 134.101
| 13> C 	 -63.2279 	 41.343 	 135.259
| 14> H 	 -64.2241 	 41.8027 	 135.38
| 15> H 	 -62.5239 	 41.6979 	 136.042
| 16> C 	 -63.4948 	 39.8314 	 135.415
| 17> H 	 -64.1616 	 39.5235 	 134.669
| 18> H 	 -62.66 	 39.1873 	 135.358
| 19> C 	 -64.2129 	 39.4934 	 136.775
| 20> H 	 -65.2917 	 39.3064 	 136.625
| 21> H 	 -63.75 	 38.6004 	 137.234
| 22> H 	 -64.1187 	 40.2954 	 137.487
| 23> S 	 -60.1355 	 40.3148 	 130.363
| 24> C 	 -58.3724 	 40.1501 	 130.157
| 25> C 	 -57.6768 	 40.96 	 130.99
| 26> C 	 -58.5184 	 41.691 	 131.886
| 27> C 	 -59.862 	 41.4803 	 131.603
| 28> H 	 -56.6298 	 41.0131 	 131.016
| 29> C 	 -58.0196 	 42.5379 	 133.11
| 30> H 	 -57.2928 	 41.7587 	 133.498
| 31> H 	 -58.9241 	 42.4778 	 133.797
| 32> C 	 -57.6286 	 43.995 	 132.922
| 33> H 	 -56.7613 	 43.9712 	 132.255
| 34> H 	 -57.2904 	 44.2322 	 133.883
| 35> C 	 -58.7543 	 45.0139 	 132.406
| 36> H 	 -59.5249 	 45.1139 	 133.1
| 37> H 	 -59.2092 	 44.8155 	 131.426
| 38> H 	 -58.1962 	 45.948 	 132.386
| 39> H 	 -64.1739 	 43.1935 	 133.149
| 40> H 	 -57.9748 	 39.6039 	 129.314
| 41> *
| 42>
| 43>                          ****END OF INPUT****

CARTESIAN COORDINATES (ANGSTROEM)
---------------------------------
  S    -62.225800   43.006600  131.670000
  C    -63.165900   42.768800  133.112000
  C    -62.582600   41.855400  134.008000
  C    -61.338400   41.368400  133.514000
  C    -61.037400   41.888500  132.294000
  H    -60.729800   40.673200  134.101000
  C    -63.227900   41.343000  135.259000
  H    -64.224100   41.802700  135.380000
  H    -62.523900   41.697900  136.042000
  C    -63.494800   39.831400  135.415000
  H    -64.161600   39.523500  134.669000
  H    -62.660000   39.187300  135.358000
  C    -64.212900   39.493400  136.775000
  H    -65.291700   39.306400  136.625000
  H    -63.750000   38.600400  137.234000
  H    -64.118700   40.295400  137.487000
  S    -60.135500   40.314800  130.363000
  C    -58.372400   40.150100  130.157000
  C    -57.676800   40.960000  130.990000
  C    -58.518400   41.691000  131.886000
  C    -59.862000   41.480300  131.603000
  H    -56.629800   41.013100  131.016000
  C    -58.019600   42.537900  133.110000
  H    -57.292800   41.758700  133.498000
  H    -58.924100   42.477800  133.797000
  C    -57.628600   43.995000  132.922000
  H    -56.761300   43.971200  132.255000
  H    -57.290400   44.232200  133.883000
  C    -58.754300   45.013900  132.406000
  H    -59.524900   45.113900  133.100000
  H    -59.209200   44.815500  131.426000
  H    -58.196200   45.948000  132.386000
  H    -64.173900   43.193500  133.149000
  H    -57.974800   39.603900  129.314000

 Total Charge           Charge          ....    0
 Multiplicity           Mult            ....    1
 Number of Electrons    NEL             ....  134
 Basis Dimension        Dim             ....  322

ORBITAL ENERGIES
----------------

  NO   OCC          E(Eh)            E(eV)
   0   2.0000     -88.968329     -2420.9513
   1   2.0000     -88.958654     -2420.6880
   2   2.0000     -10.319941      -280.8199
   3   2.0000     -10.313699      -280.6500
   4   2.0000     -10.313179      -280.6359
   5   2.0000     -10.312563      -280.6191
   6   2.0000     -10.300327      -280.2861
   7   2.0000     -10.297737      -280.2157
   8   2.0000     -10.297141      -280.1995
   9   2.0000     -10.296001      -280.1684
  10   2.0000     -10.291127      -280.0358
  11   2.0000     -10.287151      -279.9276
  12   2.0000     -10.287123      -279.9268
  13   2.0000     -10.281691      -279.7790
  14   2.0000     -10.280842      -279.7559
  15   2.0000     -10.276075      -279.6262
  16   2.0000      -8.083176      -219.9544
  17   2.0000      -8.073925      -219.7027
  18   2.0000      -6.041510      -164.3978
  19   2.0000      -6.037779      -164.2963
  20   2.0000      -6.034028      -164.1942
  21   2.0000      -6.032320      -164.1478
  22   2.0000      -6.028471      -164.0430
  23   2.0000      -6.024655      -163.9392
  24   2.0000      -1.008928       -27.4543
  25   2.0000      -0.981622       -26.7113
  26   2.0000      -0.909844       -24.7581
  27   2.0000      -0.897108       -24.4116
  28   2.0000      -0.872628       -23.7454
  29   2.0000      -0.852984       -23.2109
  30   2.0000      -0.841692       -22.9036
  31   2.0000      -0.811222       -22.0745
  32   2.0000      -0.780888       -21.2490
  33   2.0000      -0.766804       -20.8658
  34   2.0000      -0.710846       -19.3431
  35   2.0000      -0.701395       -19.0859
  36   2.0000      -0.690719       -18.7954
  37   2.0000      -0.661793       -18.0083
  38   2.0000      -0.642323       -17.4785
  39   2.0000      -0.622300       -16.9336
  40   2.0000      -0.586676       -15.9643
  41   2.0000      -0.568526       -15.4704
  42   2.0000      -0.558482       -15.1971
  43   2.0000      -0.544463       -14.8156
  44   2.0000      -0.541068       -14.7232
  45   2.0000      -0.522652       -14.2221
  46   2.0000      -0.511253       -13.9119
  47   2.0000      -0.508597       -13.8396
  48   2.0000      -0.506247       -13.7757
  49   2.0000      -0.493106       -13.4181
  50   2.0000      -0.489608       -13.3229
  51   2.0000      -0.471655       -12.8344
  52   2.0000      -0.468124       -12.7383
  53   2.0000      -0.462325       -12.5805
  54   2.0000      -0.459458       -12.5025
  55   2.0000      -0.453931       -12.3521
  56   2.0000      -0.447159       -12.1678
  57   2.0000      -0.436615       -11.8809
  58   2.0000      -0.433906       -11.8072
  59   2.0000      -0.427779       -11.6404
  60   2.0000      -0.420058       -11.4304
  61   2.0000      -0.414214       -11.2713
  62   2.0000      -0.407333       -11.0841
  63   2.0000      -0.341823        -9.3015
  64   2.0000      -0.329414        -8.9638
  65   2.0000      -0.318220        -8.6592
  66   2.0000      -0.299570        -8.1517
  67   0.0000       0.044012         1.1976
  68   0.0000       0.064632         1.7587
  69   0.0000       0.117842         3.2067
  70   0.0000       0.119402         3.2491
  71   0.0000       0.126245         3.4353

MULLIKEN ATOMIC CHARGES
-----------------------
   0 S :    0.124587
   1 C :   -0.148832
   2 C :   -0.074849
   3 C :    0.042129
   4 C :   -0.174121
   5 H :    0.025206
   6 C :    0.049304
   7 H :    0.023524
   8 H :    0.040955
   9 C :   -0.036080
  10 H :    0.020922
  11 H :    0.019497
  12 C :   -0.078632
  13 H :    0.041706
  14 H :    0.037391
  15 H :    0.026582
  16 S :    0.100233
  17 C :   -0.088965
  18 C :   -0.006714
  19 C :   -0.046130
  20 C :   -0.183813
  21 H :   -0.003860
  22 C :    0.006203
  23 H :    0.042132
  24 H :    0.025277
  25 C :   -0.013667
  26 H :    0.024377
  27 H :    0.020489
  28 C :   -0.033015
  29 H :    0.025223
  30 H :    0.048289
  31 H :    0.034424
  32 H :    0.054504
  33 H :    0.055726
Sum of atomic charges:   -0.0000000

LOEWDIN ATOMIC CHARGES
----------------------
   0 S :    0.415015
   1 C :   -0.209492
   2 C :   -0.063409
   3 C :   -0.054668
   4 C :   -0.204960
   5 H :    0.037142
   6 C :   -0.035287
   7 H :    0.033717
   8 H :    0.037348
   9 C :   -0.032831
  10 H :    0.020455
  11 H :    0.016120
  12 C :   -0.066210
  13 H :    0.028752
  14 H :    0.029951
  15 H :    0.019809
  16 S :    0.398817
  17 C :   -0.171949
  18 C :   -0.066263
  19 C :   -0.059617
  20 C :   -0.211771
  21 H :    0.023956
  22 C :   -0.044543
  23 H :    0.039752
  24 H :    0.033086
  25 C :   -0.032293
  26 H :    0.023415
  27 H :    0.020473
  28 C :   -0.053704
  29 H :    0.016747
  30 H :    0.029699
  31 H :    0.030586
  32 H :    0.026713
  33 H :    0.025445

  Mayer bond orders larger than 0.100000
B(  0-S ,  1-C ) :   1.1399 B(  0-S ,  4-C ) :   1.1548 B(  1-C ,  2-C ) :   1.5965
B(  1-C , 32-H ) :   0.9662 B(  2-C ,  3-C ) :   1.2448 B(  2-C ,  6-C ) :   1.0342
B(  3-C ,  4-C ) :   1.5748 B(  3-C ,  5-H ) :   0.9933 B(  4-C , 20-C ) :   1.0153
B(  6-C ,  7-H ) :   0.9433 B(  6-C ,  8-H ) :   0.9273 B(  6-C ,  9-C ) :   1.0721
B(  9-C , 10-H ) :   0.9601 B(  9-C , 11-H ) :   0.9612 B(  9-C , 12-C ) :   1.0654
B( 12-C , 13-H ) :   0.9806 B( 12-C , 14-H ) :   0.9798 B( 12-C , 15-H ) :   0.9794
B( 16-S , 17-C ) :   1.1371 B( 16-S , 20-C ) :   1.1603 B( 17-C , 18-C ) :   1.6212
B( 17-C , 33-H ) :   0.9681 B( 18-C , 19-C ) :   1.2335 B( 18-C , 21-H ) :   0.9986
B( 19-C , 20-C ) :   1.6126 B( 19-C , 22-C ) :   1.0029 B( 22-C , 23-H ) :   0.9407
B( 22-C , 24-H ) :   0.9321 B( 22-C , 25-C ) :   1.0611 B( 25-C , 26-H ) :   0.9578
B( 25-C , 27-H ) :   0.9508 B( 25-C , 28-C ) :   1.0649 B( 28-C , 29-H ) :   0.9765
B( 28-C , 30-H ) :   0.9772 B( 28-C , 31-H ) :   0.9747

Dispersion correction           -0.014922632
FINAL SINGLE POINT ENERGY     -1339.869827571890

DIPOLE MOMENT
-------------
                                X             Y             Z
Electronic contribution:      0.28667      -2.05164     -21.51375
Nuclear contribution   :     -0.16983       1.98163      22.04449
                        -----------------------------------------
Total Dipole Moment    :      0.11684      -0.07001       0.53074
                        -----------------------------------------
Magnitude (a.u.)       :      0.54794
Magnitude (Debye)      :      1.39276

Rotational constants in cm-1:     0.018921     0.008228     0.007509
Rotational constants in MHz :   567.248015   246.656844   225.121055

                             ****ORCA TERMINATED NORMALLY****
TOTAL RUN TIME: 0 days 0 hours 0 minutes 34 seconds 433 msec
