                         Program Version 4.2.1 -  RELEASE  -
|  1> ! wB97X-D3 SP def2-SVP
|  2> %pal
|  3> nprocs 16
|  4> end
|  5>
|  6> * xyz 0 1
|  7> S 	 52.2914 	 13.0369 	 52.5499
|  8> C 	 53.7998 	 14.0636 	 52.7051
|  9> C 	 53.5393 	 15.2892 	 52.0902
| 10> C 	 52.2124 	 15.4316 	 51.5457
| 11> C 	 51.4008 	 14.3715 	 51.8654
| 12> H 	 51.914 	 16.2234 	 50.8852
| 13> C 	 54.6327 	 16.3471 	 51.977
| 14> H 	 55.6106 	 15.9561 	 52.1616
| 15> H 	 54.5157 	 17.0037 	 52.8474
| 16> C 	 54.6993 	 17.1041 	 50.6485
| 17> H 	 53.7548 	 17.5812 	 50.4394
| 18> H 	 55.5052 	 17.8225 	 50.7537
| 19> C 	 55.1318 	 16.1877 	 49.4431
| 20> H 	 54.4171 	 15.3515 	 49.3592
| 21> H 	 55.0639 	 16.8172 	 48.5205
| 22> H 	 56.1737 	 15.7823 	 49.5766
| 23> S 	 49.7545 	 13.7136 	 49.65
| 24> C 	 48.0359 	 13.5958 	 49.9108
| 25> C 	 47.6742 	 14.0297 	 51.201
| 26> C 	 48.8283 	 14.3862 	 52.0007
| 27> C 	 50.069 	 14.1253 	 51.398
| 28> H 	 46.6344 	 14.1365 	 51.522
| 29> C 	 48.761 	 15.0906 	 53.3333
| 30> H 	 49.5861 	 14.655 	 53.9097
| 31> H 	 47.8374 	 14.7689 	 53.7914
| 32> C 	 48.9438 	 16.6182 	 53.129
| 33> H 	 48.3632 	 16.75 	 52.1721
| 34> H 	 50.0177 	 16.8593 	 52.9401
| 35> C 	 48.3504 	 17.5155 	 54.1886
| 36> H 	 48.9074 	 17.4111 	 55.1184
| 37> H 	 47.3071 	 17.125 	 54.4195
| 38> H 	 48.2493 	 18.5933 	 53.9263
| 39> H 	 54.7957 	 13.6429 	 52.9224
| 40> H 	 47.3196 	 13.3614 	 49.0808
| 41> *
| 42>
| 43>                          ****END OF INPUT****

CARTESIAN COORDINATES (ANGSTROEM)
---------------------------------
  S     52.291400   13.036900   52.549900
  C     53.799800   14.063600   52.705100
  C     53.539300   15.289200   52.090200
  C     52.212400   15.431600   51.545700
  C     51.400800   14.371500   51.865400
  H     51.914000   16.223400   50.885200
  C     54.632700   16.347100   51.977000
  H     55.610600   15.956100   52.161600
  H     54.515700   17.003700   52.847400
  C     54.699300   17.104100   50.648500
  H     53.754800   17.581200   50.439400
  H     55.505200   17.822500   50.753700
  C     55.131800   16.187700   49.443100
  H     54.417100   15.351500   49.359200
  H     55.063900   16.817200   48.520500
  H     56.173700   15.782300   49.576600
  S     49.754500   13.713600   49.650000
  C     48.035900   13.595800   49.910800
  C     47.674200   14.029700   51.201000
  C     48.828300   14.386200   52.000700
  C     50.069000   14.125300   51.398000
  H     46.634400   14.136500   51.522000
  C     48.761000   15.090600   53.333300
  H     49.586100   14.655000   53.909700
  H     47.837400   14.768900   53.791400
  C     48.943800   16.618200   53.129000
  H     48.363200   16.750000   52.172100
  H     50.017700   16.859300   52.940100
  C     48.350400   17.515500   54.188600
  H     48.907400   17.411100   55.118400
  H     47.307100   17.125000   54.419500
  H     48.249300   18.593300   53.926300
  H     54.795700   13.642900   52.922400
  H     47.319600   13.361400   49.080800

 Total Charge           Charge          ....    0
 Multiplicity           Mult            ....    1
 Number of Electrons    NEL             ....  134
 Basis Dimension        Dim             ....  322

ORBITAL ENERGIES
----------------

  NO   OCC          E(Eh)            E(eV)
   0   2.0000     -88.965077     -2420.8628
   1   2.0000     -88.964757     -2420.8541
   2   2.0000     -10.329913      -281.0912
   3   2.0000     -10.327648      -281.0296
   4   2.0000     -10.325634      -280.9748
   5   2.0000     -10.323315      -280.9117
   6   2.0000     -10.308487      -280.5082
   7   2.0000     -10.306019      -280.4410
   8   2.0000     -10.300992      -280.3042
   9   2.0000     -10.299052      -280.2515
  10   2.0000     -10.291322      -280.0411
  11   2.0000     -10.289845      -280.0009
  12   2.0000     -10.289157      -279.9822
  13   2.0000     -10.287945      -279.9492
  14   2.0000     -10.287274      -279.9310
  15   2.0000     -10.281956      -279.7863
  16   2.0000      -8.078772      -219.8346
  17   2.0000      -8.078529      -219.8279
  18   2.0000      -6.037393      -164.2858
  19   2.0000      -6.037060      -164.2767
  20   2.0000      -6.033454      -164.1786
  21   2.0000      -6.033215      -164.1721
  22   2.0000      -6.029410      -164.0686
  23   2.0000      -6.029268      -164.0647
  24   2.0000      -1.000229       -27.2176
  25   2.0000      -0.974635       -26.5212
  26   2.0000      -0.911447       -24.8017
  27   2.0000      -0.906246       -24.6602
  28   2.0000      -0.865955       -23.5638
  29   2.0000      -0.845709       -23.0129
  30   2.0000      -0.839067       -22.8322
  31   2.0000      -0.811700       -22.0875
  32   2.0000      -0.782499       -21.2929
  33   2.0000      -0.766550       -20.8589
  34   2.0000      -0.707815       -19.2606
  35   2.0000      -0.692779       -18.8515
  36   2.0000      -0.685426       -18.6514
  37   2.0000      -0.659659       -17.9502
  38   2.0000      -0.638684       -17.3795
  39   2.0000      -0.624665       -16.9980
  40   2.0000      -0.588351       -16.0098
  41   2.0000      -0.566817       -15.4239
  42   2.0000      -0.559622       -15.2281
  43   2.0000      -0.549873       -14.9628
  44   2.0000      -0.540142       -14.6980
  45   2.0000      -0.520412       -14.1611
  46   2.0000      -0.518440       -14.1075
  47   2.0000      -0.515192       -14.0191
  48   2.0000      -0.504640       -13.7320
  49   2.0000      -0.499593       -13.5946
  50   2.0000      -0.489979       -13.3330
  51   2.0000      -0.476774       -12.9737
  52   2.0000      -0.464821       -12.6484
  53   2.0000      -0.457932       -12.4610
  54   2.0000      -0.455478       -12.3942
  55   2.0000      -0.451819       -12.2946
  56   2.0000      -0.446909       -12.1610
  57   2.0000      -0.433963       -11.8087
  58   2.0000      -0.431766       -11.7490
  59   2.0000      -0.426839       -11.6149
  60   2.0000      -0.416900       -11.3444
  61   2.0000      -0.409382       -11.1399
  62   2.0000      -0.408403       -11.1132
  63   2.0000      -0.333328        -9.0703
  64   2.0000      -0.325787        -8.8651
  65   2.0000      -0.321762        -8.7556
  66   2.0000      -0.308553        -8.3961
  67   0.0000       0.035321         0.9611
  68   0.0000       0.042670         1.1611
  69   0.0000       0.101567         2.7638
  70   0.0000       0.115945         3.1550
  71   0.0000       0.129070         3.5122

MULLIKEN ATOMIC CHARGES
-----------------------
   0 S :    0.100481
   1 C :   -0.135302
   2 C :   -0.112910
   3 C :    0.052309
   4 C :   -0.170738
   5 H :    0.019221
   6 C :    0.087253
   7 H :   -0.001255
   8 H :    0.042726
   9 C :   -0.083031
  10 H :    0.035210
  11 H :    0.031596
  12 C :   -0.090143
  13 H :    0.047173
  14 H :    0.046606
  15 H :    0.042674
  16 S :    0.102268
  17 C :   -0.114710
  18 C :   -0.026860
  19 C :   -0.078211
  20 C :   -0.164149
  21 H :    0.026391
  22 C :    0.099334
  23 H :    0.034676
  24 H :    0.013922
  25 C :   -0.094264
  26 H :    0.036687
  27 H :    0.044650
  28 C :   -0.052643
  29 H :    0.033097
  30 H :    0.026528
  31 H :    0.048735
  32 H :    0.068949
  33 H :    0.083731
Sum of atomic charges:   -0.0000000

LOEWDIN ATOMIC CHARGES
----------------------
   0 S :    0.384468
   1 C :   -0.184442
   2 C :   -0.056678
   3 C :   -0.059026
   4 C :   -0.194879
   5 H :    0.031742
   6 C :   -0.033635
   7 H :    0.023520
   8 H :    0.036926
   9 C :   -0.039272
  10 H :    0.018961
  11 H :    0.026453
  12 C :   -0.069982
  13 H :    0.025915
  14 H :    0.031102
  15 H :    0.029768
  16 S :    0.380935
  17 C :   -0.187970
  18 C :   -0.082571
  19 C :   -0.043689
  20 C :   -0.199215
  21 H :    0.034037
  22 C :   -0.031074
  23 H :    0.033011
  24 H :    0.024793
  25 C :   -0.046776
  26 H :    0.029787
  27 H :    0.029512
  28 C :   -0.074227
  29 H :    0.024114
  30 H :    0.028876
  31 H :    0.031586
  32 H :    0.036273
  33 H :    0.041654

  Mayer bond orders larger than 0.100000
B(  0-S ,  1-C ) :   1.1154 B(  0-S ,  4-C ) :   1.1612 B(  1-C ,  2-C ) :   1.6205
B(  1-C , 32-H ) :   0.9665 B(  2-C ,  3-C ) :   1.2210 B(  2-C ,  6-C ) :   1.0133
B(  3-C ,  4-C ) :   1.5802 B(  3-C ,  5-H ) :   0.9941 B(  4-C , 20-C ) :   1.0378
B(  6-C ,  7-H ) :   0.9402 B(  6-C ,  8-H ) :   0.9354 B(  6-C ,  9-C ) :   1.0747
B(  9-C , 10-H ) :   0.9557 B(  9-C , 11-H ) :   0.9545 B(  9-C , 12-C ) :   1.0703
B( 12-C , 13-H ) :   0.9775 B( 12-C , 14-H ) :   0.9760 B( 12-C , 15-H ) :   0.9746
B( 16-S , 17-C ) :   1.1768 B( 16-S , 20-C ) :   1.1096 B( 17-C , 18-C ) :   1.5799
B( 17-C , 20-C ) :   0.1030 B( 17-C , 33-H ) :   0.9595 B( 18-C , 19-C ) :   1.2514
B( 18-C , 21-H ) :   0.9894 B( 19-C , 20-C ) :   1.5887 B( 19-C , 22-C ) :   1.0573
B( 22-C , 23-H ) :   0.9178 B( 22-C , 24-H ) :   0.9357 B( 22-C , 25-C ) :   1.0452
B( 25-C , 26-H ) :   0.9611 B( 25-C , 27-H ) :   0.9467 B( 25-C , 28-C ) :   1.0869
B( 28-C , 29-H ) :   0.9719 B( 28-C , 30-H ) :   0.9733 B( 28-C , 31-H ) :   0.9743

Dispersion correction           -0.015079559
FINAL SINGLE POINT ENERGY     -1339.879535671696

DIPOLE MOMENT
-------------
                                X             Y             Z
Electronic contribution:     -5.06161     -20.42786      -4.58525
Nuclear contribution   :      5.16174      21.01115       4.56047
                        -----------------------------------------
Total Dipole Moment    :      0.10013       0.58329      -0.02478
                        -----------------------------------------
Magnitude (a.u.)       :      0.59234
Magnitude (Debye)      :      1.50560

Rotational constants in cm-1:     0.017740     0.008836     0.007730
Rotational constants in MHz :   531.830734   264.885694   231.743221

                             ****ORCA TERMINATED NORMALLY****
TOTAL RUN TIME: 0 days 0 hours 0 minutes 31 seconds 944 msec
