                         Program Version 4.2.1 -  RELEASE  -
|  1> ! wB97X-D3 SP def2-SVP
|  2> %pal
|  3> nprocs 16
|  4> end
|  5>
|  6> * xyz 0 1
|  7> S 	 -16.8603 	 -8.00727 	 90.7797
|  8> C 	 -17.9334 	 -7.8303 	 89.4196
|  9> C 	 -17.7976 	 -8.91977 	 88.56
| 10> C 	 -16.6291 	 -9.65527 	 88.9425
| 11> C 	 -16.0652 	 -9.37189 	 90.1652
| 12> H 	 -16.2115 	 -10.5329 	 88.417
| 13> C 	 -18.5368 	 -9.13465 	 87.2533
| 14> H 	 -17.9145 	 -9.68516 	 86.5848
| 15> H 	 -18.7835 	 -8.18492 	 86.9333
| 16> C 	 -19.859 	 -9.96025 	 87.4816
| 17> H 	 -19.6554 	 -11.05 	 87.7363
| 18> H 	 -20.2628 	 -9.3821 	 88.3
| 19> C 	 -20.7751 	 -9.95285 	 86.2603
| 20> H 	 -21.6918 	 -10.505 	 86.5567
| 21> H 	 -21.0921 	 -8.91385 	 85.8991
| 22> H 	 -20.2696 	 -10.4503 	 85.3782
| 23> S 	 -13.346 	 -9.04246 	 90.7836
| 24> C 	 -12.339 	 -10.4226 	 90.9106
| 25> C 	 -13.0994 	 -11.4936 	 91.0212
| 26> C 	 -14.5069 	 -11.2469 	 90.8924
| 27> C 	 -14.8566 	 -9.94105 	 90.7988
| 28> H 	 -12.6424 	 -12.4296 	 91.2927
| 29> C 	 -15.4748 	 -12.405 	 90.8296
| 30> H 	 -15.1072 	 -13.0678 	 90.1292
| 31> H 	 -16.4449 	 -12.0731 	 90.4302
| 32> C 	 -15.5191 	 -13.1519 	 92.1325
| 33> H 	 -15.687 	 -12.472 	 92.9796
| 34> H 	 -14.5097 	 -13.5671 	 92.2879
| 35> C 	 -16.4445 	 -14.2776 	 92.0997
| 36> H 	 -16.424 	 -14.9209 	 91.2167
| 37> H 	 -17.5338 	 -14.0053 	 92.2002
| 38> H 	 -16.2043 	 -14.9941 	 92.8656
| 39> H 	 -18.8028 	 -7.11162 	 89.2928
| 40> H 	 -11.2762 	 -10.5051 	 91.2176
| 41> *
| 42>
| 43>                          ****END OF INPUT****

CARTESIAN COORDINATES (ANGSTROEM)
---------------------------------
  S    -16.860300   -8.007270   90.779700
  C    -17.933400   -7.830300   89.419600
  C    -17.797600   -8.919770   88.560000
  C    -16.629100   -9.655270   88.942500
  C    -16.065200   -9.371890   90.165200
  H    -16.211500  -10.532900   88.417000
  C    -18.536800   -9.134650   87.253300
  H    -17.914500   -9.685160   86.584800
  H    -18.783500   -8.184920   86.933300
  C    -19.859000   -9.960250   87.481600
  H    -19.655400  -11.050000   87.736300
  H    -20.262800   -9.382100   88.300000
  C    -20.775100   -9.952850   86.260300
  H    -21.691800  -10.505000   86.556700
  H    -21.092100   -8.913850   85.899100
  H    -20.269600  -10.450300   85.378200
  S    -13.346000   -9.042460   90.783600
  C    -12.339000  -10.422600   90.910600
  C    -13.099400  -11.493600   91.021200
  C    -14.506900  -11.246900   90.892400
  C    -14.856600   -9.941050   90.798800
  H    -12.642400  -12.429600   91.292700
  C    -15.474800  -12.405000   90.829600
  H    -15.107200  -13.067800   90.129200
  H    -16.444900  -12.073100   90.430200
  C    -15.519100  -13.151900   92.132500
  H    -15.687000  -12.472000   92.979600
  H    -14.509700  -13.567100   92.287900
  C    -16.444500  -14.277600   92.099700
  H    -16.424000  -14.920900   91.216700
  H    -17.533800  -14.005300   92.200200
  H    -16.204300  -14.994100   92.865600
  H    -18.802800   -7.111620   89.292800
  H    -11.276200  -10.505100   91.217600

 Total Charge           Charge          ....    0
 Multiplicity           Mult            ....    1
 Number of Electrons    NEL             ....  134
 Basis Dimension        Dim             ....  322

ORBITAL ENERGIES
----------------

  NO   OCC          E(Eh)            E(eV)
   0   2.0000     -88.964457     -2420.8459
   1   2.0000     -88.957315     -2420.6516
   2   2.0000     -10.326512      -280.9987
   3   2.0000     -10.324601      -280.9467
   4   2.0000     -10.319548      -280.8092
   5   2.0000     -10.313562      -280.6463
   6   2.0000     -10.302007      -280.3319
   7   2.0000     -10.298862      -280.2463
   8   2.0000     -10.293268      -280.0941
   9   2.0000     -10.293144      -280.0907
  10   2.0000     -10.291235      -280.0387
  11   2.0000     -10.287510      -279.9374
  12   2.0000     -10.285595      -279.8853
  13   2.0000     -10.281113      -279.7633
  14   2.0000     -10.279173      -279.7105
  15   2.0000     -10.273714      -279.5620
  16   2.0000      -8.080196      -219.8733
  17   2.0000      -8.073151      -219.6816
  18   2.0000      -6.038633      -164.3196
  19   2.0000      -6.034303      -164.2017
  20   2.0000      -6.031885      -164.1359
  21   2.0000      -6.031213      -164.1177
  22   2.0000      -6.027424      -164.0145
  23   2.0000      -6.023605      -163.9106
  24   2.0000      -1.016597       -27.6630
  25   2.0000      -0.995955       -27.1013
  26   2.0000      -0.922346       -25.0983
  27   2.0000      -0.914096       -24.8738
  28   2.0000      -0.875566       -23.8254
  29   2.0000      -0.853050       -23.2127
  30   2.0000      -0.844870       -22.9901
  31   2.0000      -0.819105       -22.2890
  32   2.0000      -0.783698       -21.3255
  33   2.0000      -0.774815       -21.0838
  34   2.0000      -0.702160       -19.1067
  35   2.0000      -0.698480       -19.0066
  36   2.0000      -0.693162       -18.8619
  37   2.0000      -0.657444       -17.8900
  38   2.0000      -0.640178       -17.4201
  39   2.0000      -0.620172       -16.8757
  40   2.0000      -0.599808       -16.3216
  41   2.0000      -0.578114       -15.7313
  42   2.0000      -0.571251       -15.5445
  43   2.0000      -0.565967       -15.4007
  44   2.0000      -0.531409       -14.4604
  45   2.0000      -0.523674       -14.2499
  46   2.0000      -0.520542       -14.1647
  47   2.0000      -0.513236       -13.9659
  48   2.0000      -0.508996       -13.8505
  49   2.0000      -0.506573       -13.7845
  50   2.0000      -0.499961       -13.6046
  51   2.0000      -0.479744       -13.0545
  52   2.0000      -0.471449       -12.8288
  53   2.0000      -0.463688       -12.6176
  54   2.0000      -0.461051       -12.5458
  55   2.0000      -0.450151       -12.2492
  56   2.0000      -0.441257       -12.0072
  57   2.0000      -0.434771       -11.8307
  58   2.0000      -0.431797       -11.7498
  59   2.0000      -0.420734       -11.4487
  60   2.0000      -0.418184       -11.3794
  61   2.0000      -0.413474       -11.2512
  62   2.0000      -0.407541       -11.0898
  63   2.0000      -0.349327        -9.5057
  64   2.0000      -0.328106        -8.9282
  65   2.0000      -0.323850        -8.8124
  66   2.0000      -0.307484        -8.3671
  67   0.0000       0.038041         1.0352
  68   0.0000       0.070234         1.9112
  69   0.0000       0.120131         3.2689
  70   0.0000       0.125087         3.4038
  71   0.0000       0.130670         3.5557

MULLIKEN ATOMIC CHARGES
-----------------------
   0 S :    0.116303
   1 C :   -0.131235
   2 C :   -0.127723
   3 C :    0.020561
   4 C :   -0.176167
   5 H :    0.016775
   6 C :    0.127016
   7 H :    0.017330
   8 H :    0.003658
   9 C :   -0.105579
  10 H :    0.047679
  11 H :    0.026623
  12 C :   -0.073448
  13 H :    0.047290
  14 H :    0.037585
  15 H :    0.042337
  16 S :    0.082200
  17 C :   -0.070436
  18 C :   -0.042438
  19 C :   -0.108434
  20 C :   -0.071380
  21 H :    0.013558
  22 C :    0.122362
  23 H :   -0.003706
  24 H :    0.023071
  25 C :   -0.077791
  26 H :    0.036568
  27 H :    0.019464
  28 C :   -0.027843
  29 H :    0.014749
  30 H :    0.038294
  31 H :    0.021931
  32 H :    0.069836
  33 H :    0.070991
Sum of atomic charges:   -0.0000000

LOEWDIN ATOMIC CHARGES
----------------------
   0 S :    0.437983
   1 C :   -0.215861
   2 C :   -0.064521
   3 C :   -0.067688
   4 C :   -0.217496
   5 H :    0.031358
   6 C :   -0.015643
   7 H :    0.025309
   8 H :    0.020405
   9 C :   -0.041848
  10 H :    0.033733
  11 H :    0.020863
  12 C :   -0.078932
  13 H :    0.030888
  14 H :    0.028654
  15 H :    0.030285
  16 S :    0.406421
  17 C :   -0.190691
  18 C :   -0.082252
  19 C :   -0.048015
  20 C :   -0.205678
  21 H :    0.027927
  22 C :   -0.025968
  23 H :    0.019979
  24 H :    0.028710
  25 C :   -0.042282
  26 H :    0.029774
  27 H :    0.025385
  28 C :   -0.071253
  29 H :    0.024118
  30 H :    0.031241
  31 H :    0.024874
  32 H :    0.042725
  33 H :    0.047495

  Mayer bond orders larger than 0.100000
B(  0-S ,  1-C ) :   1.1633 B(  0-S ,  4-C ) :   1.1663 B(  1-C ,  2-C ) :   1.5757
B(  1-C , 32-H ) :   0.9565 B(  2-C ,  3-C ) :   1.2665 B(  2-C ,  6-C ) :   1.0321
B(  3-C ,  4-C ) :   1.5732 B(  3-C ,  5-H ) :   0.9849 B(  4-C , 20-C ) :   0.9865
B(  6-C ,  7-H ) :   0.9418 B(  6-C ,  8-H ) :   0.9394 B(  6-C ,  9-C ) :   1.0510
B(  9-C , 10-H ) :   0.9548 B(  9-C , 11-H ) :   0.9601 B(  9-C , 12-C ) :   1.0849
B( 12-C , 13-H ) :   0.9736 B( 12-C , 14-H ) :   0.9732 B( 12-C , 15-H ) :   0.9714
B( 16-S , 17-C ) :   1.1620 B( 16-S , 20-C ) :   1.1097 B( 17-C , 18-C ) :   1.6416
B( 17-C , 33-H ) :   0.9500 B( 18-C , 19-C ) :   1.2284 B( 18-C , 21-H ) :   0.9890
B( 19-C , 20-C ) :   1.6287 B( 19-C , 22-C ) :   1.0456 B( 22-C , 23-H ) :   0.9165
B( 22-C , 24-H ) :   0.9373 B( 22-C , 25-C ) :   1.0668 B( 25-C , 26-H ) :   0.9520
B( 25-C , 27-H ) :   0.9493 B( 25-C , 28-C ) :   1.1041 B( 28-C , 29-H ) :   0.9655
B( 28-C , 30-H ) :   0.9700 B( 28-C , 31-H ) :   0.9684

Dispersion correction           -0.013524921
FINAL SINGLE POINT ENERGY     -1339.862835949402

DIPOLE MOMENT
-------------
                                X             Y             Z
Electronic contribution:     18.60572      20.22318       9.44754
Nuclear contribution   :    -18.80192     -20.93583      -9.75398
                        -----------------------------------------
Total Dipole Moment    :     -0.19620      -0.71266      -0.30644
                        -----------------------------------------
Magnitude (a.u.)       :      0.80018
Magnitude (Debye)      :      2.03388

Rotational constants in cm-1:     0.018115     0.008017     0.006330
Rotational constants in MHz :   543.074023   240.351284   189.769010

                             ****ORCA TERMINATED NORMALLY****
TOTAL RUN TIME: 0 days 0 hours 0 minutes 32 seconds 712 msec
