                         Program Version 4.2.1 -  RELEASE  -
|  1> ! wB97X-D3 SP def2-SVP
|  2> %pal
|  3> nprocs 16
|  4> end
|  5>
|  6> * xyz 0 1
|  7> S 	 -80.4195 	 47.2886 	 123.7
|  8> C 	 -81.2825 	 45.691 	 123.711
|  9> C 	 -80.5934 	 44.7695 	 124.397
| 10> C 	 -79.4112 	 45.3249 	 124.958
| 11> C 	 -79.0243 	 46.5917 	 124.497
| 12> H 	 -78.7107 	 44.8424 	 125.583
| 13> C 	 -81.078 	 43.2996 	 124.559
| 14> H 	 -80.6851 	 42.8097 	 123.727
| 15> H 	 -82.1434 	 43.2267 	 124.3
| 16> C 	 -80.8948 	 42.5423 	 125.848
| 17> H 	 -81.2278 	 43.1973 	 126.738
| 18> H 	 -81.6768 	 41.796 	 125.753
| 19> C 	 -79.5616 	 41.8225 	 126.038
| 20> H 	 -79.5167 	 41.2234 	 125.121
| 21> H 	 -78.6767 	 42.3965 	 126.16
| 22> H 	 -79.7789 	 41.173 	 126.889
| 23> S 	 -77.7527 	 49.0037 	 125.187
| 24> C 	 -76.0716 	 48.8599 	 125.604
| 25> C 	 -75.5339 	 47.6834 	 125.129
| 26> C 	 -76.4894 	 46.7683 	 124.683
| 27> C 	 -77.7757 	 47.3187 	 124.704
| 28> H 	 -74.489 	 47.4832 	 125.161
| 29> C 	 -76.0643 	 45.2878 	 124.303
| 30> H 	 -75.2759 	 45.6014 	 123.617
| 31> H 	 -76.8876 	 44.7974 	 123.836
| 32> C 	 -75.612 	 44.3427 	 125.485
| 33> H 	 -76.4486 	 44.2998 	 126.179
| 34> H 	 -74.7245 	 44.72 	 125.954
| 35> C 	 -75.3225 	 42.8578 	 125.151
| 36> H 	 -74.4768 	 42.769 	 124.432
| 37> H 	 -76.2567 	 42.2404 	 125.018
| 38> H 	 -74.9801 	 42.416 	 126.052
| 39> H 	 -82.2515 	 45.5064 	 123.309
| 40> H 	 -75.4026 	 49.5798 	 126.036
| 41> *
| 42>
| 43>                          ****END OF INPUT****

CARTESIAN COORDINATES (ANGSTROEM)
---------------------------------
  S    -80.419500   47.288600  123.700000
  C    -81.282500   45.691000  123.711000
  C    -80.593400   44.769500  124.397000
  C    -79.411200   45.324900  124.958000
  C    -79.024300   46.591700  124.497000
  H    -78.710700   44.842400  125.583000
  C    -81.078000   43.299600  124.559000
  H    -80.685100   42.809700  123.727000
  H    -82.143400   43.226700  124.300000
  C    -80.894800   42.542300  125.848000
  H    -81.227800   43.197300  126.738000
  H    -81.676800   41.796000  125.753000
  C    -79.561600   41.822500  126.038000
  H    -79.516700   41.223400  125.121000
  H    -78.676700   42.396500  126.160000
  H    -79.778900   41.173000  126.889000
  S    -77.752700   49.003700  125.187000
  C    -76.071600   48.859900  125.604000
  C    -75.533900   47.683400  125.129000
  C    -76.489400   46.768300  124.683000
  C    -77.775700   47.318700  124.704000
  H    -74.489000   47.483200  125.161000
  C    -76.064300   45.287800  124.303000
  H    -75.275900   45.601400  123.617000
  H    -76.887600   44.797400  123.836000
  C    -75.612000   44.342700  125.485000
  H    -76.448600   44.299800  126.179000
  H    -74.724500   44.720000  125.954000
  C    -75.322500   42.857800  125.151000
  H    -74.476800   42.769000  124.432000
  H    -76.256700   42.240400  125.018000
  H    -74.980100   42.416000  126.052000
  H    -82.251500   45.506400  123.309000
  H    -75.402600   49.579800  126.036000

 Total Charge           Charge          ....    0
 Multiplicity           Mult            ....    1
 Number of Electrons    NEL             ....  134
 Basis Dimension        Dim             ....  322

ORBITAL ENERGIES
----------------

  NO   OCC          E(Eh)            E(eV)
   0   2.0000     -88.971647     -2421.0416
   1   2.0000     -88.959115     -2420.7006
   2   2.0000     -10.330764      -281.1144
   3   2.0000     -10.327857      -281.0353
   4   2.0000     -10.317525      -280.7541
   5   2.0000     -10.308215      -280.5008
   6   2.0000     -10.304733      -280.4060
   7   2.0000     -10.298015      -280.2232
   8   2.0000     -10.297380      -280.2060
   9   2.0000     -10.293371      -280.0969
  10   2.0000     -10.293105      -280.0896
  11   2.0000     -10.289952      -280.0038
  12   2.0000     -10.289191      -279.9831
  13   2.0000     -10.288968      -279.9771
  14   2.0000     -10.285667      -279.8872
  15   2.0000     -10.281425      -279.7718
  16   2.0000      -8.086265      -220.0385
  17   2.0000      -8.073218      -219.6834
  18   2.0000      -6.044809      -164.4876
  19   2.0000      -6.040893      -164.3811
  20   2.0000      -6.036891      -164.2722
  21   2.0000      -6.031865      -164.1354
  22   2.0000      -6.027986      -164.0298
  23   2.0000      -6.023698      -163.9132
  24   2.0000      -1.006119       -27.3779
  25   2.0000      -0.982963       -26.7478
  26   2.0000      -0.915378       -24.9087
  27   2.0000      -0.901871       -24.5412
  28   2.0000      -0.873249       -23.7623
  29   2.0000      -0.856020       -23.2935
  30   2.0000      -0.839040       -22.8314
  31   2.0000      -0.814273       -22.1575
  32   2.0000      -0.791507       -21.5380
  33   2.0000      -0.778338       -21.1796
  34   2.0000      -0.709682       -19.3114
  35   2.0000      -0.697066       -18.9681
  36   2.0000      -0.694249       -18.8915
  37   2.0000      -0.661540       -18.0014
  38   2.0000      -0.641167       -17.4470
  39   2.0000      -0.618493       -16.8301
  40   2.0000      -0.592673       -16.1275
  41   2.0000      -0.572925       -15.5901
  42   2.0000      -0.572164       -15.5694
  43   2.0000      -0.546889       -14.8816
  44   2.0000      -0.542371       -14.7587
  45   2.0000      -0.527107       -14.3433
  46   2.0000      -0.520389       -14.1605
  47   2.0000      -0.511939       -13.9306
  48   2.0000      -0.508479       -13.8364
  49   2.0000      -0.499733       -13.5984
  50   2.0000      -0.492492       -13.4014
  51   2.0000      -0.488569       -13.2946
  52   2.0000      -0.474816       -12.9204
  53   2.0000      -0.465941       -12.6789
  54   2.0000      -0.459388       -12.5006
  55   2.0000      -0.453055       -12.3282
  56   2.0000      -0.445102       -12.1118
  57   2.0000      -0.438235       -11.9250
  58   2.0000      -0.429080       -11.6759
  59   2.0000      -0.427707       -11.6385
  60   2.0000      -0.420977       -11.4554
  61   2.0000      -0.412518       -11.2252
  62   2.0000      -0.408739       -11.1224
  63   2.0000      -0.350095        -9.5266
  64   2.0000      -0.334757        -9.1092
  65   2.0000      -0.326272        -8.8783
  66   2.0000      -0.285552        -7.7703
  67   0.0000       0.024582         0.6689
  68   0.0000       0.073208         1.9921
  69   0.0000       0.102808         2.7975
  70   0.0000       0.118856         3.2342
  71   0.0000       0.129710         3.5296

MULLIKEN ATOMIC CHARGES
-----------------------
   0 S :    0.077647
   1 C :   -0.126113
   2 C :   -0.044445
   3 C :    0.039874
   4 C :   -0.153464
   5 H :   -0.038568
   6 C :    0.082888
   7 H :    0.014856
   8 H :    0.010339
   9 C :   -0.098709
  10 H :    0.045850
  11 H :    0.024071
  12 C :   -0.025254
  13 H :    0.027411
  14 H :    0.038584
  15 H :    0.040825
  16 S :    0.130580
  17 C :   -0.078617
  18 C :   -0.036253
  19 C :   -0.052398
  20 C :   -0.149727
  21 H :    0.005845
  22 C :    0.087447
  23 H :    0.037305
  24 H :    0.023588
  25 C :   -0.070997
  26 H :    0.028727
  27 H :    0.023815
  28 C :   -0.052880
  29 H :    0.045650
  30 H :    0.041928
  31 H :    0.018437
  32 H :    0.031427
  33 H :    0.050328
Sum of atomic charges:   -0.0000000

LOEWDIN ATOMIC CHARGES
----------------------
   0 S :    0.362403
   1 C :   -0.172593
   2 C :   -0.060533
   3 C :   -0.068832
   4 C :   -0.177643
   5 H :    0.015057
   6 C :   -0.030976
   7 H :    0.024933
   8 H :    0.033363
   9 C :   -0.048232
  10 H :    0.033609
  11 H :    0.028613
  12 C :   -0.060331
  13 H :    0.029427
  14 H :    0.015807
  15 H :    0.033206
  16 S :    0.416636
  17 C :   -0.182243
  18 C :   -0.070976
  19 C :   -0.049327
  20 C :   -0.207975
  21 H :    0.026454
  22 C :   -0.022357
  23 H :    0.034538
  24 H :    0.024113
  25 C :   -0.035236
  26 H :    0.022003
  27 H :    0.019530
  28 C :   -0.071727
  29 H :    0.031037
  30 H :    0.032408
  31 H :    0.023137
  32 H :    0.022679
  33 H :    0.030030

  Mayer bond orders larger than 0.100000
B(  0-S ,  1-C ) :   1.1090 B(  0-S ,  4-C ) :   1.1387 B(  1-C ,  2-C ) :   1.6558
B(  1-C , 32-H ) :   0.9703 B(  2-C ,  3-C ) :   1.2164 B(  2-C ,  6-C ) :   1.0001
B(  3-C ,  4-C ) :   1.5776 B(  3-C ,  5-H ) :   1.0012 B(  4-C , 20-C ) :   1.0616
B(  6-C ,  7-H ) :   0.9284 B(  6-C ,  8-H ) :   0.9395 B(  6-C ,  9-C ) :   1.0749
B(  9-C , 10-H ) :   0.9543 B(  9-C , 11-H ) :   0.9532 B(  9-C , 12-C ) :   1.0656
B( 12-C , 13-H ) :   0.9726 B( 12-C , 14-H ) :   0.9797 B( 12-C , 15-H ) :   0.9712
B( 16-S , 17-C ) :   1.1579 B( 16-S , 20-C ) :   1.1359 B( 17-C , 18-C ) :   1.5985
B( 17-C , 20-C ) :   0.1008 B( 17-C , 33-H ) :   0.9671 B( 18-C , 19-C ) :   1.2688
B( 18-C , 21-H ) :   0.9917 B( 19-C , 20-C ) :   1.5727 B( 19-C , 22-C ) :   1.0160
B( 22-C , 23-H ) :   0.9380 B( 22-C , 24-H ) :   0.9341 B( 22-C , 25-C ) :   1.0590
B( 25-C , 26-H ) :   0.9544 B( 25-C , 27-H ) :   0.9547 B( 25-C , 28-C ) :   1.0955
B( 28-C , 29-H ) :   0.9735 B( 28-C , 30-H ) :   0.9701 B( 28-C , 31-H ) :   0.9691

Dispersion correction           -0.014895642
FINAL SINGLE POINT ENERGY     -1339.852325176718

DIPOLE MOMENT
-------------
                                X             Y             Z
Electronic contribution:     -6.90651      32.80293      -6.29677
Nuclear contribution   :      7.27476     -33.63071       6.54761
                        -----------------------------------------
Total Dipole Moment    :      0.36825      -0.82778       0.25084
                        -----------------------------------------
Magnitude (a.u.)       :      0.94008
Magnitude (Debye)      :      2.38949

Rotational constants in cm-1:     0.015962     0.010601     0.006866
Rotational constants in MHz :   478.520522   317.824406   205.823295

                             ****ORCA TERMINATED NORMALLY****
TOTAL RUN TIME: 0 days 0 hours 0 minutes 35 seconds 419 msec
