                         Program Version 4.2.1 -  RELEASE  -
|  1> ! wB97X-D3 SP def2-SVP
|  2> %pal
|  3> nprocs 16
|  4> end
|  5>
|  6> * xyz 0 1
|  7> S 	 -81.5989 	 37.0711 	 134.865
|  8> C 	 -80.3631 	 35.9607 	 135.353
|  9> C 	 -79.7224 	 35.3065 	 134.312
| 10> C 	 -80.2752 	 35.6722 	 133.052
| 11> C 	 -81.1957 	 36.6945 	 133.181
| 12> H 	 -80.1404 	 35.2361 	 132.094
| 13> C 	 -78.6386 	 34.2947 	 134.585
| 14> H 	 -78.3844 	 33.7283 	 133.73
| 15> H 	 -79.1824 	 33.5708 	 135.294
| 16> C 	 -77.339 	 34.8223 	 135.196
| 17> H 	 -77.67 	 35.3863 	 136.088
| 18> H 	 -76.7366 	 33.9768 	 135.604
| 19> C 	 -76.4638 	 35.6852 	 134.288
| 20> H 	 -76.9803 	 36.5032 	 133.707
| 21> H 	 -75.528 	 36.0224 	 134.73
| 22> H 	 -76.1378 	 34.971 	 133.449
| 23> S 	 -83.7386 	 36.6958 	 132.183
| 24> C 	 -84.1028 	 37.2204 	 130.568
| 25> C 	 -82.9743 	 37.7145 	 129.934
| 26> C 	 -81.8269 	 37.7366 	 130.79
| 27> C 	 -82.0526 	 37.1821 	 132.07
| 28> H 	 -83.1811 	 38.1069 	 128.957
| 29> C 	 -80.4379 	 38.0392 	 130.206
| 30> H 	 -80.4327 	 37.7292 	 129.168
| 31> H 	 -79.6287 	 37.41 	 130.6
| 32> C 	 -79.9293 	 39.5154 	 130.475
| 33> H 	 -78.9328 	 39.6423 	 130.047
| 34> H 	 -79.7945 	 39.6773 	 131.484
| 35> C 	 -80.9103 	 40.5735 	 129.862
| 36> H 	 -81.9161 	 40.4074 	 130.2
| 37> H 	 -80.8914 	 40.3588 	 128.789
| 38> H 	 -80.643 	 41.6063 	 129.93
| 39> H 	 -79.9532 	 35.8614 	 136.337
| 40> H 	 -85.0125 	 37.1311 	 130.046
| 41> *
| 42>
| 43>                          ****END OF INPUT****

CARTESIAN COORDINATES (ANGSTROEM)
---------------------------------
  S    -81.598900   37.071100  134.865000
  C    -80.363100   35.960700  135.353000
  C    -79.722400   35.306500  134.312000
  C    -80.275200   35.672200  133.052000
  C    -81.195700   36.694500  133.181000
  H    -80.140400   35.236100  132.094000
  C    -78.638600   34.294700  134.585000
  H    -78.384400   33.728300  133.730000
  H    -79.182400   33.570800  135.294000
  C    -77.339000   34.822300  135.196000
  H    -77.670000   35.386300  136.088000
  H    -76.736600   33.976800  135.604000
  C    -76.463800   35.685200  134.288000
  H    -76.980300   36.503200  133.707000
  H    -75.528000   36.022400  134.730000
  H    -76.137800   34.971000  133.449000
  S    -83.738600   36.695800  132.183000
  C    -84.102800   37.220400  130.568000
  C    -82.974300   37.714500  129.934000
  C    -81.826900   37.736600  130.790000
  C    -82.052600   37.182100  132.070000
  H    -83.181100   38.106900  128.957000
  C    -80.437900   38.039200  130.206000
  H    -80.432700   37.729200  129.168000
  H    -79.628700   37.410000  130.600000
  C    -79.929300   39.515400  130.475000
  H    -78.932800   39.642300  130.047000
  H    -79.794500   39.677300  131.484000
  C    -80.910300   40.573500  129.862000
  H    -81.916100   40.407400  130.200000
  H    -80.891400   40.358800  128.789000
  H    -80.643000   41.606300  129.930000
  H    -79.953200   35.861400  136.337000
  H    -85.012500   37.131100  130.046000

 Total Charge           Charge          ....    0
 Multiplicity           Mult            ....    1
 Number of Electrons    NEL             ....  134
 Basis Dimension        Dim             ....  322

ORBITAL ENERGIES
----------------

  NO   OCC          E(Eh)            E(eV)
   0   2.0000     -88.972623     -2421.0682
   1   2.0000     -88.963802     -2420.8281
   2   2.0000     -10.333055      -281.1767
   3   2.0000     -10.330633      -281.1108
   4   2.0000     -10.312500      -280.6174
   5   2.0000     -10.310205      -280.5549
   6   2.0000     -10.309773      -280.5432
   7   2.0000     -10.301716      -280.3240
   8   2.0000     -10.295618      -280.1580
   9   2.0000     -10.295234      -280.1476
  10   2.0000     -10.294004      -280.1141
  11   2.0000     -10.292792      -280.0811
  12   2.0000     -10.292542      -280.0743
  13   2.0000     -10.288399      -279.9616
  14   2.0000     -10.281041      -279.7614
  15   2.0000     -10.268523      -279.4207
  16   2.0000      -8.087017      -220.0589
  17   2.0000      -8.078608      -219.8301
  18   2.0000      -6.045476      -164.5058
  19   2.0000      -6.041670      -164.4022
  20   2.0000      -6.037760      -164.2958
  21   2.0000      -6.037049      -164.2765
  22   2.0000      -6.032937      -164.1646
  23   2.0000      -6.029590      -164.0735
  24   2.0000      -1.005571       -27.3630
  25   2.0000      -0.983840       -26.7717
  26   2.0000      -0.913143       -24.8479
  27   2.0000      -0.897405       -24.4196
  28   2.0000      -0.867155       -23.5965
  29   2.0000      -0.852975       -23.2106
  30   2.0000      -0.840140       -22.8614
  31   2.0000      -0.816648       -22.2221
  32   2.0000      -0.781214       -21.2579
  33   2.0000      -0.769862       -20.9490
  34   2.0000      -0.709577       -19.3086
  35   2.0000      -0.701992       -19.1022
  36   2.0000      -0.691470       -18.8159
  37   2.0000      -0.659918       -17.9573
  38   2.0000      -0.642940       -17.4953
  39   2.0000      -0.613117       -16.6838
  40   2.0000      -0.590890       -16.0789
  41   2.0000      -0.580252       -15.7895
  42   2.0000      -0.554096       -15.0777
  43   2.0000      -0.546113       -14.8605
  44   2.0000      -0.540907       -14.7188
  45   2.0000      -0.533816       -14.5259
  46   2.0000      -0.516133       -14.0447
  47   2.0000      -0.508117       -13.8266
  48   2.0000      -0.501704       -13.6521
  49   2.0000      -0.488580       -13.2949
  50   2.0000      -0.482690       -13.1347
  51   2.0000      -0.479803       -13.0561
  52   2.0000      -0.471170       -12.8212
  53   2.0000      -0.467625       -12.7247
  54   2.0000      -0.464562       -12.6414
  55   2.0000      -0.445491       -12.1224
  56   2.0000      -0.444686       -12.1005
  57   2.0000      -0.434985       -11.8366
  58   2.0000      -0.431178       -11.7329
  59   2.0000      -0.426704       -11.6112
  60   2.0000      -0.422098       -11.4859
  61   2.0000      -0.412287       -11.2189
  62   2.0000      -0.411292       -11.1918
  63   2.0000      -0.347358        -9.4521
  64   2.0000      -0.330860        -9.0032
  65   2.0000      -0.326931        -8.8962
  66   2.0000      -0.294909        -8.0249
  67   0.0000       0.032217         0.8767
  68   0.0000       0.059448         1.6177
  69   0.0000       0.110450         3.0055
  70   0.0000       0.118625         3.2280
  71   0.0000       0.125936         3.4269

MULLIKEN ATOMIC CHARGES
-----------------------
   0 S :    0.127113
   1 C :   -0.110340
   2 C :   -0.090789
   3 C :    0.051969
   4 C :   -0.161467
   5 H :    0.012297
   6 C :    0.052786
   7 H :    0.004816
   8 H :    0.053227
   9 C :   -0.062893
  10 H :    0.019316
  11 H :    0.037231
  12 C :   -0.074981
  13 H :    0.053835
  14 H :    0.045082
  15 H :    0.022801
  16 S :    0.105295
  17 C :   -0.082967
  18 C :   -0.047261
  19 C :   -0.020925
  20 C :   -0.156493
  21 H :    0.020643
  22 C :    0.029477
  23 H :    0.025709
  24 H :    0.022861
  25 C :   -0.034394
  26 H :    0.023078
  27 H :    0.019912
  28 C :   -0.056678
  29 H :    0.041225
  30 H :    0.016431
  31 H :    0.032338
  32 H :    0.041480
  33 H :    0.040267
Sum of atomic charges:   -0.0000000

LOEWDIN ATOMIC CHARGES
----------------------
   0 S :    0.412062
   1 C :   -0.200160
   2 C :   -0.063407
   3 C :   -0.049368
   4 C :   -0.190391
   5 H :    0.030983
   6 C :   -0.035263
   7 H :    0.019265
   8 H :    0.048028
   9 C :   -0.046124
  10 H :    0.019087
  11 H :    0.030820
  12 C :   -0.076583
  13 H :    0.034130
  14 H :    0.027478
  15 H :    0.029938
  16 S :    0.411571
  17 C :   -0.184093
  18 C :   -0.074715
  19 C :   -0.058970
  20 C :   -0.198828
  21 H :    0.032593
  22 C :   -0.031305
  23 H :    0.027777
  24 H :    0.030276
  25 C :   -0.025055
  26 H :    0.022878
  27 H :    0.012061
  28 C :   -0.066929
  29 H :    0.022924
  30 H :    0.023628
  31 H :    0.021159
  32 H :    0.022140
  33 H :    0.022394

  Mayer bond orders larger than 0.100000
B(  0-S ,  1-C ) :   1.1425 B(  0-S ,  4-C ) :   1.1534 B(  1-C ,  2-C ) :   1.6160
B(  1-C , 32-H ) :   0.9624 B(  2-C ,  3-C ) :   1.2299 B(  2-C ,  6-C ) :   1.0111
B(  3-C ,  4-C ) :   1.5815 B(  3-C ,  5-H ) :   0.9975 B(  4-C , 20-C ) :   1.0028
B(  6-C ,  7-H ) :   0.9438 B(  6-C ,  8-H ) :   0.9406 B(  6-C ,  9-C ) :   1.0705
B(  9-C , 10-H ) :   0.9545 B(  9-C , 11-H ) :   0.9521 B(  9-C , 12-C ) :   1.0685
B( 12-C , 13-H ) :   0.9759 B( 12-C , 14-H ) :   0.9743 B( 12-C , 15-H ) :   0.9705
B( 16-S , 17-C ) :   1.1641 B( 16-S , 20-C ) :   1.1549 B( 17-C , 18-C ) :   1.6147
B( 17-C , 33-H ) :   0.9705 B( 18-C , 19-C ) :   1.2313 B( 18-C , 21-H ) :   0.9947
B( 19-C , 20-C ) :   1.5938 B( 19-C , 22-C ) :   1.0286 B( 22-C , 23-H ) :   0.9498
B( 22-C , 24-H ) :   0.9433 B( 22-C , 25-C ) :   1.0611 B( 25-C , 26-H ) :   0.9583
B( 25-C , 27-H ) :   0.9616 B( 25-C , 28-C ) :   1.0669 B( 28-C , 29-H ) :   0.9762
B( 28-C , 30-H ) :   0.9770 B( 28-C , 31-H ) :   0.9774

Dispersion correction           -0.014447311
FINAL SINGLE POINT ENERGY     -1339.872500444580

DIPOLE MOMENT
-------------
                                X             Y             Z
Electronic contribution:    -23.90554      -3.22676       7.40675
Nuclear contribution   :     24.39188       2.93997      -7.69244
                        -----------------------------------------
Total Dipole Moment    :      0.48634      -0.28679      -0.28569
                        -----------------------------------------
Magnitude (a.u.)       :      0.63277
Magnitude (Debye)      :      1.60838

Rotational constants in cm-1:     0.020026     0.008362     0.006768
Rotational constants in MHz :   600.357565   250.686616   202.904424

                             ****ORCA TERMINATED NORMALLY****
TOTAL RUN TIME: 0 days 0 hours 0 minutes 35 seconds 274 msec
