                         Program Version 4.2.1 -  RELEASE  -
|  1> ! wB97X-D3 SP def2-SVP
|  2> %pal
|  3> nprocs 16
|  4> end
|  5>
|  6> * xyz 0 1
|  7> S 	 54.0378 	 3.15935 	 81.8455
|  8> C 	 52.3737 	 2.88684 	 82.3207
|  9> C 	 51.8804 	 1.78009 	 81.6884
| 10> C 	 52.8803 	 1.01562 	 81.0109
| 11> C 	 54.0441 	 1.66745 	 80.8807
| 12> H 	 52.7854 	 0.0013819 	 80.6676
| 13> C 	 50.4841 	 1.33955 	 81.9957
| 14> H 	 50.076 	 0.766651 	 81.1755
| 15> H 	 49.8255 	 2.21985 	 82.2032
| 16> C 	 50.3521 	 0.537792 	 83.2705
| 17> H 	 51.0245 	 -0.357158 	 83.2075
| 18> H 	 50.7851 	 0.993004 	 84.1978
| 19> C 	 48.882 	 0.151046 	 83.6696
| 20> H 	 48.5409 	 -0.533727 	 82.8819
| 21> H 	 48.9031 	 -0.369074 	 84.5848
| 22> H 	 48.1405 	 0.949307 	 83.7123
| 23> S 	 56.609 	 0.666398 	 81.2042
| 24> C 	 57.4677 	 0.163773 	 79.8592
| 25> C 	 56.8683 	 0.293526 	 78.6353
| 26> C 	 55.5547 	 0.883456 	 78.8232
| 27> C 	 55.2672 	 1.19047 	 80.1506
| 28> H 	 57.4078 	 0.0835741 	 77.7226
| 29> C 	 54.6649 	 1.26921 	 77.6642
| 30> H 	 55.201 	 2.12617 	 77.1898
| 31> H 	 53.6867 	 1.51647 	 78.0812
| 32> C 	 54.4917 	 0.231138 	 76.5004
| 33> H 	 53.659 	 -0.44747 	 76.7242
| 34> H 	 55.4535 	 -0.39167 	 76.3104
| 35> C 	 54.0455 	 0.92357 	 75.1967
| 36> H 	 54.6762 	 1.68215 	 74.7154
| 37> H 	 53.0576 	 1.35064 	 75.4015
| 38> H 	 53.8815 	 0.198921 	 74.3592
| 39> H 	 51.8728 	 3.47983 	 83.1343
| 40> H 	 58.4567 	 -0.302247 	 79.8759
| 41> *
| 42>
| 43>                          ****END OF INPUT****

CARTESIAN COORDINATES (ANGSTROEM)
---------------------------------
  S     54.037800    3.159350   81.845500
  C     52.373700    2.886840   82.320700
  C     51.880400    1.780090   81.688400
  C     52.880300    1.015620   81.010900
  C     54.044100    1.667450   80.880700
  H     52.785400    0.001382   80.667600
  C     50.484100    1.339550   81.995700
  H     50.076000    0.766651   81.175500
  H     49.825500    2.219850   82.203200
  C     50.352100    0.537792   83.270500
  H     51.024500   -0.357158   83.207500
  H     50.785100    0.993004   84.197800
  C     48.882000    0.151046   83.669600
  H     48.540900   -0.533727   82.881900
  H     48.903100   -0.369074   84.584800
  H     48.140500    0.949307   83.712300
  S     56.609000    0.666398   81.204200
  C     57.467700    0.163773   79.859200
  C     56.868300    0.293526   78.635300
  C     55.554700    0.883456   78.823200
  C     55.267200    1.190470   80.150600
  H     57.407800    0.083574   77.722600
  C     54.664900    1.269210   77.664200
  H     55.201000    2.126170   77.189800
  H     53.686700    1.516470   78.081200
  C     54.491700    0.231138   76.500400
  H     53.659000   -0.447470   76.724200
  H     55.453500   -0.391670   76.310400
  C     54.045500    0.923570   75.196700
  H     54.676200    1.682150   74.715400
  H     53.057600    1.350640   75.401500
  H     53.881500    0.198921   74.359200
  H     51.872800    3.479830   83.134300
  H     58.456700   -0.302247   79.875900

 Total Charge           Charge          ....    0
 Multiplicity           Mult            ....    1
 Number of Electrons    NEL             ....  134
 Basis Dimension        Dim             ....  322

ORBITAL ENERGIES
----------------

  NO   OCC          E(Eh)            E(eV)
   0   2.0000     -88.964042     -2420.8347
   1   2.0000     -88.961198     -2420.7573
   2   2.0000     -10.329528      -281.0808
   3   2.0000     -10.327412      -281.0232
   4   2.0000     -10.316151      -280.7167
   5   2.0000     -10.311656      -280.5944
   6   2.0000     -10.308713      -280.5143
   7   2.0000     -10.298415      -280.2341
   8   2.0000     -10.298070      -280.2247
   9   2.0000     -10.294627      -280.1310
  10   2.0000     -10.292047      -280.0608
  11   2.0000     -10.291794      -280.0539
  12   2.0000     -10.290936      -280.0306
  13   2.0000     -10.290843      -280.0281
  14   2.0000     -10.282209      -279.7931
  15   2.0000     -10.278135      -279.6823
  16   2.0000      -8.079962      -219.8670
  17   2.0000      -8.075894      -219.7562
  18   2.0000      -6.038312      -164.3108
  19   2.0000      -6.034441      -164.2055
  20   2.0000      -6.034339      -164.2027
  21   2.0000      -6.030777      -164.1058
  22   2.0000      -6.030415      -164.0959
  23   2.0000      -6.026596      -163.9920
  24   2.0000      -1.006571       -27.3902
  25   2.0000      -0.988704       -26.9040
  26   2.0000      -0.911137       -24.7933
  27   2.0000      -0.904683       -24.6177
  28   2.0000      -0.865674       -23.5562
  29   2.0000      -0.851328       -23.1658
  30   2.0000      -0.845233       -23.0000
  31   2.0000      -0.819215       -22.2920
  32   2.0000      -0.781116       -21.2553
  33   2.0000      -0.767174       -20.8759
  34   2.0000      -0.700759       -19.0686
  35   2.0000      -0.695533       -18.9264
  36   2.0000      -0.689548       -18.7636
  37   2.0000      -0.654373       -17.8064
  38   2.0000      -0.644172       -17.5288
  39   2.0000      -0.622018       -16.9260
  40   2.0000      -0.592995       -16.1362
  41   2.0000      -0.573363       -15.6020
  42   2.0000      -0.563497       -15.3335
  43   2.0000      -0.552549       -15.0356
  44   2.0000      -0.528314       -14.3762
  45   2.0000      -0.519170       -14.1273
  46   2.0000      -0.514821       -14.0090
  47   2.0000      -0.510382       -13.8882
  48   2.0000      -0.508208       -13.8291
  49   2.0000      -0.501709       -13.6522
  50   2.0000      -0.492303       -13.3962
  51   2.0000      -0.475471       -12.9382
  52   2.0000      -0.467773       -12.7287
  53   2.0000      -0.465890       -12.6775
  54   2.0000      -0.455818       -12.4034
  55   2.0000      -0.453669       -12.3450
  56   2.0000      -0.447303       -12.1717
  57   2.0000      -0.438363       -11.9285
  58   2.0000      -0.431352       -11.7377
  59   2.0000      -0.422141       -11.4871
  60   2.0000      -0.420960       -11.4549
  61   2.0000      -0.418277       -11.3819
  62   2.0000      -0.403827       -10.9887
  63   2.0000      -0.339204        -9.2302
  64   2.0000      -0.328642        -8.9428
  65   2.0000      -0.325272        -8.8511
  66   2.0000      -0.304437        -8.2841
  67   0.0000       0.041546         1.1305
  68   0.0000       0.066777         1.8171
  69   0.0000       0.120432         3.2771
  70   0.0000       0.121959         3.3187
  71   0.0000       0.128659         3.5010

MULLIKEN ATOMIC CHARGES
-----------------------
   0 S :    0.096765
   1 C :   -0.144260
   2 C :   -0.070894
   3 C :    0.050626
   4 C :   -0.163424
   5 H :    0.015511
   6 C :    0.074834
   7 H :    0.021376
   8 H :    0.027669
   9 C :   -0.120317
  10 H :    0.023608
  11 H :    0.024845
  12 C :   -0.025163
  13 H :    0.025829
  14 H :    0.030502
  15 H :    0.033619
  16 S :    0.121014
  17 C :   -0.075833
  18 C :   -0.049906
  19 C :   -0.019992
  20 C :   -0.175800
  21 H :    0.022985
  22 C :    0.060263
  23 H :    0.049786
  24 H :    0.034548
  25 C :   -0.105324
  26 H :    0.038204
  27 H :    0.046671
  28 C :   -0.085000
  29 H :    0.038920
  30 H :    0.032325
  31 H :    0.034436
  32 H :    0.077104
  33 H :    0.054471
Sum of atomic charges:   -0.0000000

LOEWDIN ATOMIC CHARGES
----------------------
   0 S :    0.383017
   1 C :   -0.192579
   2 C :   -0.068947
   3 C :   -0.060061
   4 C :   -0.187699
   5 H :    0.034810
   6 C :   -0.037038
   7 H :    0.028008
   8 H :    0.036361
   9 C :   -0.048951
  10 H :    0.024521
  11 H :    0.023299
  12 C :   -0.062832
  13 H :    0.025434
  14 H :    0.021952
  15 H :    0.024484
  16 S :    0.424033
  17 C :   -0.199854
  18 C :   -0.083254
  19 C :   -0.044340
  20 C :   -0.202163
  21 H :    0.033222
  22 C :   -0.032918
  23 H :    0.043114
  24 H :    0.031939
  25 C :   -0.046707
  26 H :    0.027691
  27 H :    0.029600
  28 C :   -0.077432
  29 H :    0.023246
  30 H :    0.026064
  31 H :    0.029706
  32 H :    0.042541
  33 H :    0.031734

  Mayer bond orders larger than 0.100000
B(  0-S ,  1-C ) :   1.1322 B(  0-S ,  4-C ) :   1.1411 B(  1-C ,  2-C ) :   1.6206
B(  1-C , 32-H ) :   0.9635 B(  2-C ,  3-C ) :   1.2072 B(  2-C ,  6-C ) :   1.0447
B(  3-C ,  4-C ) :   1.6194 B(  3-C ,  5-H ) :   0.9989 B(  4-C , 20-C ) :   0.9851
B(  6-C ,  7-H ) :   0.9343 B(  6-C ,  8-H ) :   0.9392 B(  6-C ,  9-C ) :   1.0610
B(  9-C , 10-H ) :   0.9521 B(  9-C , 11-H ) :   0.9585 B(  9-C , 12-C ) :   1.0712
B( 12-C , 13-H ) :   0.9759 B( 12-C , 14-H ) :   0.9750 B( 12-C , 15-H ) :   0.9766
B( 16-S , 17-C ) :   1.1840 B( 16-S , 20-C ) :   1.1269 B( 17-C , 18-C ) :   1.6306
B( 17-C , 33-H ) :   0.9546 B( 18-C , 19-C ) :   1.2079 B( 18-C , 21-H ) :   0.9906
B( 19-C , 20-C ) :   1.6327 B( 19-C , 22-C ) :   1.0452 B( 22-C , 23-H ) :   0.9425
B( 22-C , 24-H ) :   0.9331 B( 22-C , 25-C ) :   1.0455 B( 25-C , 26-H ) :   0.9550
B( 25-C , 27-H ) :   0.9600 B( 25-C , 28-C ) :   1.0747 B( 28-C , 29-H ) :   0.9778
B( 28-C , 30-H ) :   0.9741 B( 28-C , 31-H ) :   0.9742

Dispersion correction           -0.013365113
FINAL SINGLE POINT ENERGY     -1339.878816237577

DIPOLE MOMENT
-------------
                                X             Y             Z
Electronic contribution:     21.38538       8.27690      11.10796
Nuclear contribution   :    -21.71947      -8.63705     -11.35943
                        -----------------------------------------
Total Dipole Moment    :     -0.33408      -0.36014      -0.25147
                        -----------------------------------------
Magnitude (a.u.)       :      0.55186
Magnitude (Debye)      :      1.40272

Rotational constants in cm-1:     0.018227     0.007364     0.006120
Rotational constants in MHz :   546.426393   220.759434   183.462367

                             ****ORCA TERMINATED NORMALLY****
TOTAL RUN TIME: 0 days 0 hours 0 minutes 28 seconds 413 msec
