                         Program Version 4.2.1 -  RELEASE  -
|  1> ! wB97X-D3 SP def2-SVP
|  2> %pal
|  3> nprocs 16
|  4> end
|  5>
|  6> * xyz 0 1
|  7> S 	 -31.8747 	 61.6556 	 110.464
|  8> C 	 -31.6513 	 62.1362 	 112.152
|  9> C 	 -32.7904 	 62.0209 	 112.93
| 10> C 	 -33.8766 	 61.631 	 112.138
| 11> C 	 -33.5592 	 61.2472 	 110.851
| 12> H 	 -34.8551 	 61.2955 	 112.488
| 13> C 	 -32.8203 	 62.3541 	 114.407
| 14> H 	 -33.7606 	 62.8934 	 114.55
| 15> H 	 -32.1093 	 63.1703 	 114.499
| 16> C 	 -32.588 	 61.2627 	 115.473
| 17> H 	 -31.5855 	 60.9205 	 115.461
| 18> H 	 -32.8889 	 61.6739 	 116.36
| 19> C 	 -33.5088 	 59.9931 	 115.398
| 20> H 	 -34.4559 	 60.2171 	 115.819
| 21> H 	 -33.6087 	 59.6861 	 114.332
| 22> H 	 -33.0991 	 59.1082 	 115.92
| 23> S 	 -33.7827 	 59.2121 	 109.087
| 24> C 	 -35.253 	 58.7759 	 108.289
| 25> C 	 -36.2663 	 59.6993 	 108.697
| 26> C 	 -35.7737 	 60.7069 	 109.56
| 27> C 	 -34.3996 	 60.5665 	 109.873
| 28> H 	 -37.229 	 59.592 	 108.429
| 29> C 	 -36.7289 	 61.8255 	 110.074
| 30> H 	 -36.9452 	 62.3775 	 109.16
| 31> H 	 -36.2792 	 62.6215 	 110.749
| 32> C 	 -37.9338 	 61.2551 	 110.93
| 33> H 	 -38.1831 	 60.2655 	 110.541
| 34> H 	 -38.8092 	 61.9395 	 110.861
| 35> C 	 -37.6745 	 61.161 	 112.412
| 36> H 	 -37.1076 	 60.2674 	 112.621
| 37> H 	 -38.5988 	 60.7887 	 112.895
| 38> H 	 -37.3196 	 62.0742 	 112.898
| 39> H 	 -30.7188 	 62.1879 	 112.69
| 40> H 	 -35.4515 	 57.9892 	 107.522
| 41> *
| 42>
| 43>                          ****END OF INPUT****

CARTESIAN COORDINATES (ANGSTROEM)
---------------------------------
  S    -31.874700   61.655600  110.464000
  C    -31.651300   62.136200  112.152000
  C    -32.790400   62.020900  112.930000
  C    -33.876600   61.631000  112.138000
  C    -33.559200   61.247200  110.851000
  H    -34.855100   61.295500  112.488000
  C    -32.820300   62.354100  114.407000
  H    -33.760600   62.893400  114.550000
  H    -32.109300   63.170300  114.499000
  C    -32.588000   61.262700  115.473000
  H    -31.585500   60.920500  115.461000
  H    -32.888900   61.673900  116.360000
  C    -33.508800   59.993100  115.398000
  H    -34.455900   60.217100  115.819000
  H    -33.608700   59.686100  114.332000
  H    -33.099100   59.108200  115.920000
  S    -33.782700   59.212100  109.087000
  C    -35.253000   58.775900  108.289000
  C    -36.266300   59.699300  108.697000
  C    -35.773700   60.706900  109.560000
  C    -34.399600   60.566500  109.873000
  H    -37.229000   59.592000  108.429000
  C    -36.728900   61.825500  110.074000
  H    -36.945200   62.377500  109.160000
  H    -36.279200   62.621500  110.749000
  C    -37.933800   61.255100  110.930000
  H    -38.183100   60.265500  110.541000
  H    -38.809200   61.939500  110.861000
  C    -37.674500   61.161000  112.412000
  H    -37.107600   60.267400  112.621000
  H    -38.598800   60.788700  112.895000
  H    -37.319600   62.074200  112.898000
  H    -30.718800   62.187900  112.690000
  H    -35.451500   57.989200  107.522000

 Total Charge           Charge          ....    0
 Multiplicity           Mult            ....    1
 Number of Electrons    NEL             ....  134
 Basis Dimension        Dim             ....  322

ORBITAL ENERGIES
----------------

  NO   OCC          E(Eh)            E(eV)
   0   2.0000     -88.969030     -2420.9704
   1   2.0000     -88.967627     -2420.9322
   2   2.0000     -10.330522      -281.1078
   3   2.0000     -10.324288      -280.9382
   4   2.0000     -10.324110      -280.9333
   5   2.0000     -10.308966      -280.5212
   6   2.0000     -10.305874      -280.4371
   7   2.0000     -10.298802      -280.2446
   8   2.0000     -10.297650      -280.2133
   9   2.0000     -10.293476      -280.0997
  10   2.0000     -10.292315      -280.0681
  11   2.0000     -10.290479      -280.0182
  12   2.0000     -10.289389      -279.9885
  13   2.0000     -10.281794      -279.7819
  14   2.0000     -10.279515      -279.7198
  15   2.0000     -10.277281      -279.6590
  16   2.0000      -8.084762      -219.9976
  17   2.0000      -8.081513      -219.9092
  18   2.0000      -6.043115      -164.4415
  19   2.0000      -6.039979      -164.3562
  20   2.0000      -6.038716      -164.3218
  21   2.0000      -6.036261      -164.2550
  22   2.0000      -6.036022      -164.2485
  23   2.0000      -6.032255      -164.1460
  24   2.0000      -1.009990       -27.4832
  25   2.0000      -0.984713       -26.7954
  26   2.0000      -0.909628       -24.7522
  27   2.0000      -0.904304       -24.6074
  28   2.0000      -0.868417       -23.6308
  29   2.0000      -0.852904       -23.2087
  30   2.0000      -0.846445       -23.0329
  31   2.0000      -0.815209       -22.1830
  32   2.0000      -0.783301       -21.3147
  33   2.0000      -0.770252       -20.9596
  34   2.0000      -0.707623       -19.2554
  35   2.0000      -0.701846       -19.0982
  36   2.0000      -0.693092       -18.8600
  37   2.0000      -0.664544       -18.0832
  38   2.0000      -0.634757       -17.2726
  39   2.0000      -0.616384       -16.7727
  40   2.0000      -0.596493       -16.2314
  41   2.0000      -0.581385       -15.8203
  42   2.0000      -0.552547       -15.0356
  43   2.0000      -0.548966       -14.9381
  44   2.0000      -0.546336       -14.8666
  45   2.0000      -0.539988       -14.6938
  46   2.0000      -0.520407       -14.1610
  47   2.0000      -0.509391       -13.8612
  48   2.0000      -0.501612       -13.6496
  49   2.0000      -0.491540       -13.3755
  50   2.0000      -0.485543       -13.2123
  51   2.0000      -0.476546       -12.9675
  52   2.0000      -0.468084       -12.7372
  53   2.0000      -0.465164       -12.6577
  54   2.0000      -0.463431       -12.6106
  55   2.0000      -0.445982       -12.1358
  56   2.0000      -0.445004       -12.1092
  57   2.0000      -0.441257       -12.0072
  58   2.0000      -0.435696       -11.8559
  59   2.0000      -0.429342       -11.6830
  60   2.0000      -0.423475       -11.5234
  61   2.0000      -0.414598       -11.2818
  62   2.0000      -0.398631       -10.8473
  63   2.0000      -0.346160        -9.4195
  64   2.0000      -0.334807        -9.1106
  65   2.0000      -0.330642        -8.9972
  66   2.0000      -0.286818        -7.8047
  67   0.0000       0.024293         0.6611
  68   0.0000       0.072136         1.9629
  69   0.0000       0.111244         3.0271
  70   0.0000       0.118741         3.2311
  71   0.0000       0.127957         3.4819

MULLIKEN ATOMIC CHARGES
-----------------------
   0 S :    0.106899
   1 C :   -0.098020
   2 C :   -0.126875
   3 C :    0.045796
   4 C :   -0.165520
   5 H :   -0.003516
   6 C :    0.055676
   7 H :    0.020641
   8 H :    0.023197
   9 C :    0.013822
  10 H :    0.026507
  11 H :    0.012301
  12 C :   -0.089345
  13 H :    0.024066
  14 H :    0.044978
  15 H :    0.039474
  16 S :    0.129313
  17 C :   -0.113149
  18 C :   -0.009216
  19 C :   -0.048570
  20 C :   -0.139394
  21 H :   -0.024340
  22 C :    0.037676
  23 H :    0.044263
  24 H :    0.032413
  25 C :   -0.086121
  26 H :    0.027468
  27 H :    0.036008
  28 C :   -0.048697
  29 H :    0.034024
  30 H :    0.026831
  31 H :    0.048920
  32 H :    0.043580
  33 H :    0.078911
Sum of atomic charges:    0.0000000

LOEWDIN ATOMIC CHARGES
----------------------
   0 S :    0.385473
   1 C :   -0.196768
   2 C :   -0.064144
   3 C :   -0.067643
   4 C :   -0.177899
   5 H :    0.031576
   6 C :   -0.032077
   7 H :    0.033421
   8 H :    0.034408
   9 C :   -0.023983
  10 H :    0.021062
  11 H :    0.016398
  12 C :   -0.066071
  13 H :    0.016469
  14 H :    0.029058
  15 H :    0.030343
  16 S :    0.461773
  17 C :   -0.209694
  18 C :   -0.059226
  19 C :   -0.058719
  20 C :   -0.233116
  21 H :    0.008691
  22 C :   -0.038694
  23 H :    0.033954
  24 H :    0.034573
  25 C :   -0.040268
  26 H :    0.022712
  27 H :    0.027200
  28 C :   -0.074428
  29 H :    0.025288
  30 H :    0.033967
  31 H :    0.026563
  32 H :    0.025890
  33 H :    0.043909

  Mayer bond orders larger than 0.100000
B(  0-S ,  1-C ) :   1.1289 B(  0-S ,  4-C ) :   1.1417 B(  1-C ,  2-C ) :   1.6385
B(  1-C ,  4-C ) :   0.1027 B(  1-C , 32-H ) :   0.9548 B(  2-C ,  3-C ) :   1.2464
B(  2-C ,  6-C ) :   1.0031 B(  3-C ,  4-C ) :   1.5924 B(  3-C ,  5-H ) :   0.9782
B(  4-C , 20-C ) :   1.0385 B(  6-C ,  7-H ) :   0.9395 B(  6-C ,  8-H ) :   0.9406
B(  6-C ,  9-C ) :   1.0699 B(  9-C , 10-H ) :   0.9595 B(  9-C , 11-H ) :   0.9547
B(  9-C , 12-C ) :   1.0733 B( 12-C , 13-H ) :   0.9806 B( 12-C , 14-H ) :   0.9762
B( 12-C , 15-H ) :   0.9762 B( 16-S , 17-C ) :   1.1928 B( 16-S , 20-C ) :   1.1827
B( 17-C , 18-C ) :   1.5184 B( 17-C , 20-C ) :   0.1119 B( 17-C , 33-H ) :   0.9661
B( 18-C , 19-C ) :   1.3208 B( 18-C , 21-H ) :   1.0045 B( 19-C , 20-C ) :   1.5085
B( 19-C , 22-C ) :   1.0211 B( 22-C , 23-H ) :   0.9440 B( 22-C , 24-H ) :   0.9490
B( 22-C , 25-C ) :   1.0374 B( 25-C , 26-H ) :   0.9595 B( 25-C , 27-H ) :   0.9589
B( 25-C , 28-C ) :   1.1022 B( 28-C , 29-H ) :   0.9600 B( 28-C , 30-H ) :   0.9622
B( 28-C , 31-H ) :   0.9678

Dispersion correction           -0.015064004
FINAL SINGLE POINT ENERGY     -1339.857955699840

DIPOLE MOMENT
-------------
                                X             Y             Z
Electronic contribution:     15.72674      -2.96482     -23.36736
Nuclear contribution   :    -16.27568       2.88949      23.86877
                        -----------------------------------------
Total Dipole Moment    :     -0.54894      -0.07532       0.50141
                        -----------------------------------------
Magnitude (a.u.)       :      0.74727
Magnitude (Debye)      :      1.89942

Rotational constants in cm-1:     0.017570     0.009795     0.007510
Rotational constants in MHz :   526.734937   293.659724   225.133679

                             ****ORCA TERMINATED NORMALLY****
TOTAL RUN TIME: 0 days 0 hours 0 minutes 31 seconds 241 msec
