                         Program Version 4.2.1 -  RELEASE  -
|  1> ! wB97X-D3 SP def2-SVP
|  2> %pal
|  3> nprocs 16
|  4> end
|  5>
|  6> * xyz 0 1
|  7> S 	 47.5926 	 21.976 	 89.8671
|  8> C 	 46.9404 	 22.9732 	 91.1294
|  9> C 	 46.1077 	 23.9901 	 90.6502
| 10> C 	 46.1223 	 24.1137 	 89.2083
| 11> C 	 46.8862 	 23.088 	 88.636
| 12> H 	 45.5515 	 24.898 	 88.6423
| 13> C 	 45.4769 	 25.1093 	 91.4862
| 14> H 	 45.2672 	 25.9827 	 90.7413
| 15> H 	 46.2139 	 25.4078 	 92.2744
| 16> C 	 44.1199 	 24.7564 	 92.1421
| 17> H 	 43.5201 	 25.6356 	 92.1164
| 18> H 	 43.6954 	 24.1114 	 91.4086
| 19> C 	 44.1242 	 23.9376 	 93.467
| 20> H 	 44.9847 	 23.2776 	 93.5106
| 21> H 	 44.3358 	 24.6294 	 94.309
| 22> H 	 43.2549 	 23.2666 	 93.6467
| 23> S 	 46.4529 	 21.1517 	 86.7584
| 24> C 	 46.4458 	 21.5251 	 85.1431
| 25> C 	 46.8918 	 22.8176 	 84.8868
| 26> C 	 47.1095 	 23.5928 	 86.0792
| 27> C 	 46.8826 	 22.7919 	 87.1955
| 28> H 	 47.0468 	 23.2115 	 83.8711
| 29> C 	 47.389 	 25.0655 	 86.038
| 30> H 	 46.954 	 25.65 	 86.918
| 31> H 	 46.9444 	 25.4827 	 85.1558
| 32> C 	 48.8231 	 25.4741 	 86.074
| 33> H 	 49.4326 	 24.9711 	 85.2637
| 34> H 	 49.3036 	 25.0957 	 87.027
| 35> C 	 48.8988 	 27.0026 	 86.0195
| 36> H 	 49.8756 	 27.2514 	 85.7938
| 37> H 	 48.6514 	 27.5117 	 86.9625
| 38> H 	 48.2736 	 27.522 	 85.3009
| 39> H 	 47.0686 	 22.7534 	 92.2071
| 40> H 	 46.3276 	 20.8585 	 84.3408
| 41> *
| 42>
| 43>                          ****END OF INPUT****

CARTESIAN COORDINATES (ANGSTROEM)
---------------------------------
  S     47.592600   21.976000   89.867100
  C     46.940400   22.973200   91.129400
  C     46.107700   23.990100   90.650200
  C     46.122300   24.113700   89.208300
  C     46.886200   23.088000   88.636000
  H     45.551500   24.898000   88.642300
  C     45.476900   25.109300   91.486200
  H     45.267200   25.982700   90.741300
  H     46.213900   25.407800   92.274400
  C     44.119900   24.756400   92.142100
  H     43.520100   25.635600   92.116400
  H     43.695400   24.111400   91.408600
  C     44.124200   23.937600   93.467000
  H     44.984700   23.277600   93.510600
  H     44.335800   24.629400   94.309000
  H     43.254900   23.266600   93.646700
  S     46.452900   21.151700   86.758400
  C     46.445800   21.525100   85.143100
  C     46.891800   22.817600   84.886800
  C     47.109500   23.592800   86.079200
  C     46.882600   22.791900   87.195500
  H     47.046800   23.211500   83.871100
  C     47.389000   25.065500   86.038000
  H     46.954000   25.650000   86.918000
  H     46.944400   25.482700   85.155800
  C     48.823100   25.474100   86.074000
  H     49.432600   24.971100   85.263700
  H     49.303600   25.095700   87.027000
  C     48.898800   27.002600   86.019500
  H     49.875600   27.251400   85.793800
  H     48.651400   27.511700   86.962500
  H     48.273600   27.522000   85.300900
  H     47.068600   22.753400   92.207100
  H     46.327600   20.858500   84.340800

 Total Charge           Charge          ....    0
 Multiplicity           Mult            ....    1
 Number of Electrons    NEL             ....  134
 Basis Dimension        Dim             ....  322

ORBITAL ENERGIES
----------------

  NO   OCC          E(Eh)            E(eV)
   0   2.0000     -88.972396     -2421.0620
   1   2.0000     -88.965587     -2420.8767
   2   2.0000     -10.335590      -281.2457
   3   2.0000     -10.324775      -280.9514
   4   2.0000     -10.318041      -280.7682
   5   2.0000     -10.305999      -280.4405
   6   2.0000     -10.303679      -280.3774
   7   2.0000     -10.303409      -280.3700
   8   2.0000     -10.302923      -280.3568
   9   2.0000     -10.301595      -280.3206
  10   2.0000     -10.292995      -280.0866
  11   2.0000     -10.290405      -280.0161
  12   2.0000     -10.289534      -279.9925
  13   2.0000     -10.284902      -279.8664
  14   2.0000     -10.281779      -279.7814
  15   2.0000     -10.271190      -279.4933
  16   2.0000      -8.086189      -220.0364
  17   2.0000      -8.082045      -219.9236
  18   2.0000      -6.044822      -164.4880
  19   2.0000      -6.040864      -164.3803
  20   2.0000      -6.040313      -164.3653
  21   2.0000      -6.036863      -164.2714
  22   2.0000      -6.036283      -164.2556
  23   2.0000      -6.032973      -164.1655
  24   2.0000      -1.008225       -27.4352
  25   2.0000      -0.981990       -26.7213
  26   2.0000      -0.917318       -24.9615
  27   2.0000      -0.904494       -24.6125
  28   2.0000      -0.865342       -23.5472
  29   2.0000      -0.854601       -23.2549
  30   2.0000      -0.846209       -23.0265
  31   2.0000      -0.805919       -21.9302
  32   2.0000      -0.783887       -21.3306
  33   2.0000      -0.771701       -20.9990
  34   2.0000      -0.704252       -19.1637
  35   2.0000      -0.697727       -18.9861
  36   2.0000      -0.689895       -18.7730
  37   2.0000      -0.662351       -18.0235
  38   2.0000      -0.633796       -17.2465
  39   2.0000      -0.618772       -16.8376
  40   2.0000      -0.601825       -16.3765
  41   2.0000      -0.565381       -15.3848
  42   2.0000      -0.561034       -15.2665
  43   2.0000      -0.537493       -14.6259
  44   2.0000      -0.534107       -14.5338
  45   2.0000      -0.525409       -14.2971
  46   2.0000      -0.515321       -14.0226
  47   2.0000      -0.510029       -13.8786
  48   2.0000      -0.501794       -13.6545
  49   2.0000      -0.498531       -13.5657
  50   2.0000      -0.489426       -13.3180
  51   2.0000      -0.485405       -13.2085
  52   2.0000      -0.469531       -12.7766
  53   2.0000      -0.464045       -12.6273
  54   2.0000      -0.458091       -12.4653
  55   2.0000      -0.452065       -12.3013
  56   2.0000      -0.445143       -12.1130
  57   2.0000      -0.442370       -12.0375
  58   2.0000      -0.432293       -11.7633
  59   2.0000      -0.425927       -11.5901
  60   2.0000      -0.421538       -11.4706
  61   2.0000      -0.411269       -11.1912
  62   2.0000      -0.408915       -11.1271
  63   2.0000      -0.350995        -9.5511
  64   2.0000      -0.330916        -9.0047
  65   2.0000      -0.328445        -8.9375
  66   2.0000      -0.286499        -7.7960
  67   0.0000       0.030633         0.8336
  68   0.0000       0.066976         1.8225
  69   0.0000       0.104701         2.8491
  70   0.0000       0.115694         3.1482
  71   0.0000       0.133472         3.6320

MULLIKEN ATOMIC CHARGES
-----------------------
   0 S :    0.113602
   1 C :   -0.130446
   2 C :   -0.076061
   3 C :    0.000507
   4 C :   -0.138206
   5 H :    0.049137
   6 C :   -0.024067
   7 H :    0.039263
   8 H :    0.044958
   9 C :   -0.027110
  10 H :    0.024665
  11 H :    0.015825
  12 C :   -0.052645
  13 H :    0.008690
  14 H :    0.034674
  15 H :    0.052844
  16 S :    0.129278
  17 C :   -0.061260
  18 C :   -0.062098
  19 C :    0.001806
  20 C :   -0.178916
  21 H :    0.020956
  22 C :    0.041931
  23 H :    0.025991
  24 H :    0.015062
  25 C :   -0.106141
  26 H :    0.033316
  27 H :    0.043688
  28 C :   -0.006163
  29 H :    0.013393
  30 H :    0.031124
  31 H :    0.019568
  32 H :    0.065013
  33 H :    0.037820
Sum of atomic charges:    0.0000000

LOEWDIN ATOMIC CHARGES
----------------------
   0 S :    0.393050
   1 C :   -0.210358
   2 C :   -0.068677
   3 C :   -0.063128
   4 C :   -0.180648
   5 H :    0.042730
   6 C :   -0.035475
   7 H :    0.040747
   8 H :    0.032547
   9 C :   -0.044422
  10 H :    0.019938
  11 H :    0.022812
  12 C :   -0.070902
  13 H :    0.020500
  14 H :    0.028011
  15 H :    0.034890
  16 S :    0.448238
  17 C :   -0.214207
  18 C :   -0.072714
  19 C :   -0.056724
  20 C :   -0.199382
  21 H :    0.031679
  22 C :   -0.039495
  23 H :    0.037894
  24 H :    0.026112
  25 C :   -0.042875
  26 H :    0.025497
  27 H :    0.033581
  28 C :   -0.063290
  29 H :    0.017213
  30 H :    0.029309
  31 H :    0.023450
  32 H :    0.032755
  33 H :    0.021345

  Mayer bond orders larger than 0.100000
B(  0-S ,  1-C ) :   1.1313 B(  0-S ,  4-C ) :   1.1419 B(  1-C ,  2-C ) :   1.6134
B(  1-C , 32-H ) :   0.9598 B(  2-C ,  3-C ) :   1.2494 B(  2-C ,  6-C ) :   1.0153
B(  3-C ,  4-C ) :   1.5739 B(  3-C ,  5-H ) :   0.9734 B(  4-C , 20-C ) :   1.0429
B(  6-C ,  7-H ) :   0.9482 B(  6-C ,  8-H ) :   0.9531 B(  6-C ,  9-C ) :   1.0532
B(  9-C , 10-H ) :   0.9606 B(  9-C , 11-H ) :   0.9552 B(  9-C , 12-C ) :   1.0623
B( 12-C , 13-H ) :   0.9748 B( 12-C , 14-H ) :   0.9752 B( 12-C , 15-H ) :   0.9767
B( 16-S , 17-C ) :   1.1821 B( 16-S , 20-C ) :   1.1564 B( 17-C , 18-C ) :   1.5831
B( 17-C , 33-H ) :   0.9705 B( 18-C , 19-C ) :   1.2650 B( 18-C , 21-H ) :   0.9852
B( 19-C , 20-C ) :   1.5787 B( 19-C , 22-C ) :   1.0362 B( 22-C , 23-H ) :   0.9369
B( 22-C , 24-H ) :   0.9329 B( 22-C , 25-C ) :   1.0687 B( 25-C , 26-H ) :   0.9558
B( 25-C , 27-H ) :   0.9516 B( 25-C , 28-C ) :   1.0759 B( 28-C , 29-H ) :   0.9713
B( 28-C , 30-H ) :   0.9707 B( 28-C , 31-H ) :   0.9729

Dispersion correction           -0.013847781
FINAL SINGLE POINT ENERGY     -1339.872259003498

DIPOLE MOMENT
-------------
                                X             Y             Z
Electronic contribution:      3.39680     -23.43895      -7.19959
Nuclear contribution   :     -3.52586      23.95341       7.14869
                        -----------------------------------------
Total Dipole Moment    :     -0.12906       0.51446      -0.05091
                        -----------------------------------------
Magnitude (a.u.)       :      0.53284
Magnitude (Debye)      :      1.35436

Rotational constants in cm-1:     0.018693     0.008081     0.006526
Rotational constants in MHz :   560.396148   242.262290   195.633795

                             ****ORCA TERMINATED NORMALLY****
TOTAL RUN TIME: 0 days 0 hours 0 minutes 29 seconds 828 msec
