                         Program Version 4.2.1 -  RELEASE  -
|  1> ! wB97X-D3 SP def2-SVP
|  2> %pal
|  3> nprocs 16
|  4> end
|  5>
|  6> * xyz 0 1
|  7> S 	 -52.6879 	 20.3769 	 92.6517
|  8> C 	 -51.8423 	 19.2614 	 91.6206
|  9> C 	 -51.5413 	 19.7442 	 90.3444
| 10> C 	 -51.9672 	 21.1249 	 90.2584
| 11> C 	 -52.6291 	 21.6172 	 91.3834
| 12> H 	 -51.9637 	 21.7236 	 89.3778
| 13> C 	 -50.9264 	 18.9243 	 89.2452
| 14> H 	 -51.592 	 18.1185 	 88.9857
| 15> H 	 -50.0881 	 18.3131 	 89.6688
| 16> C 	 -50.2671 	 19.6914 	 88.085
| 17> H 	 -50.2284 	 18.8671 	 87.3748
| 18> H 	 -50.927 	 20.468 	 87.5725
| 19> C 	 -48.8985 	 20.34 	 88.2607
| 20> H 	 -48.9947 	 21.3486 	 88.6981
| 21> H 	 -48.3004 	 19.7318 	 88.8972
| 22> H 	 -48.4105 	 20.5633 	 87.2597
| 23> S 	 -54.9496 	 23.2196 	 91.4775
| 24> C 	 -54.819 	 24.8369 	 92.1677
| 25> C 	 -53.5175 	 25.1536 	 92.2537
| 26> C 	 -52.5947 	 24.0804 	 91.9014
| 27> C 	 -53.1802 	 22.9519 	 91.451
| 28> H 	 -53.1366 	 26.0766 	 92.6358
| 29> C 	 -51.0566 	 24.1924 	 92.0898
| 30> H 	 -50.8842 	 25.2465 	 92.0883
| 31> H 	 -50.5335 	 23.7835 	 91.209
| 32> C 	 -50.3382 	 23.6499 	 93.3028
| 33> H 	 -50.4689 	 22.562 	 93.4086
| 34> H 	 -50.72 	 24.288 	 94.1368
| 35> C 	 -48.8213 	 23.7901 	 93.2897
| 36> H 	 -48.4304 	 23.0616 	 92.5835
| 37> H 	 -48.386 	 23.6188 	 94.297
| 38> H 	 -48.5081 	 24.7483 	 92.8914
| 39> H 	 -51.6577 	 18.2522 	 91.935
| 40> H 	 -55.6477 	 25.5239 	 92.4185
| 41> *
| 42>
| 43>                          ****END OF INPUT****

CARTESIAN COORDINATES (ANGSTROEM)
---------------------------------
  S    -52.687900   20.376900   92.651700
  C    -51.842300   19.261400   91.620600
  C    -51.541300   19.744200   90.344400
  C    -51.967200   21.124900   90.258400
  C    -52.629100   21.617200   91.383400
  H    -51.963700   21.723600   89.377800
  C    -50.926400   18.924300   89.245200
  H    -51.592000   18.118500   88.985700
  H    -50.088100   18.313100   89.668800
  C    -50.267100   19.691400   88.085000
  H    -50.228400   18.867100   87.374800
  H    -50.927000   20.468000   87.572500
  C    -48.898500   20.340000   88.260700
  H    -48.994700   21.348600   88.698100
  H    -48.300400   19.731800   88.897200
  H    -48.410500   20.563300   87.259700
  S    -54.949600   23.219600   91.477500
  C    -54.819000   24.836900   92.167700
  C    -53.517500   25.153600   92.253700
  C    -52.594700   24.080400   91.901400
  C    -53.180200   22.951900   91.451000
  H    -53.136600   26.076600   92.635800
  C    -51.056600   24.192400   92.089800
  H    -50.884200   25.246500   92.088300
  H    -50.533500   23.783500   91.209000
  C    -50.338200   23.649900   93.302800
  H    -50.468900   22.562000   93.408600
  H    -50.720000   24.288000   94.136800
  C    -48.821300   23.790100   93.289700
  H    -48.430400   23.061600   92.583500
  H    -48.386000   23.618800   94.297000
  H    -48.508100   24.748300   92.891400
  H    -51.657700   18.252200   91.935000
  H    -55.647700   25.523900   92.418500

 Total Charge           Charge          ....    0
 Multiplicity           Mult            ....    1
 Number of Electrons    NEL             ....  134
 Basis Dimension        Dim             ....  322

ORBITAL ENERGIES
----------------

  NO   OCC          E(Eh)            E(eV)
   0   2.0000     -88.970234     -2421.0031
   1   2.0000     -88.957912     -2420.6679
   2   2.0000     -10.329298      -281.0745
   3   2.0000     -10.321114      -280.8518
   4   2.0000     -10.321038      -280.8497
   5   2.0000     -10.313337      -280.6402
   6   2.0000     -10.304037      -280.3871
   7   2.0000     -10.302595      -280.3479
   8   2.0000     -10.299361      -280.2599
   9   2.0000     -10.295324      -280.1500
  10   2.0000     -10.294400      -280.1249
  11   2.0000     -10.291465      -280.0450
  12   2.0000     -10.286547      -279.9112
  13   2.0000     -10.284528      -279.8562
  14   2.0000     -10.281252      -279.7671
  15   2.0000     -10.274815      -279.5919
  16   2.0000      -8.084108      -219.9798
  17   2.0000      -8.072358      -219.6600
  18   2.0000      -6.042614      -164.4279
  19   2.0000      -6.038630      -164.3195
  20   2.0000      -6.035029      -164.2215
  21   2.0000      -6.031116      -164.1150
  22   2.0000      -6.026866      -163.9994
  23   2.0000      -6.022870      -163.8906
  24   2.0000      -1.002737       -27.2859
  25   2.0000      -0.980967       -26.6935
  26   2.0000      -0.912707       -24.8360
  27   2.0000      -0.906126       -24.6569
  28   2.0000      -0.873537       -23.7701
  29   2.0000      -0.848216       -23.0811
  30   2.0000      -0.842402       -22.9229
  31   2.0000      -0.818109       -22.2619
  32   2.0000      -0.784625       -21.3507
  33   2.0000      -0.772064       -21.0089
  34   2.0000      -0.709597       -19.3091
  35   2.0000      -0.691498       -18.8166
  36   2.0000      -0.683247       -18.5921
  37   2.0000      -0.661233       -17.9931
  38   2.0000      -0.642716       -17.4892
  39   2.0000      -0.621254       -16.9052
  40   2.0000      -0.593233       -16.1427
  41   2.0000      -0.572870       -15.5886
  42   2.0000      -0.569168       -15.4878
  43   2.0000      -0.557819       -15.1790
  44   2.0000      -0.531668       -14.4674
  45   2.0000      -0.520494       -14.1634
  46   2.0000      -0.515544       -14.0287
  47   2.0000      -0.512918       -13.9572
  48   2.0000      -0.501156       -13.6371
  49   2.0000      -0.497145       -13.5280
  50   2.0000      -0.488158       -13.2835
  51   2.0000      -0.486690       -13.2435
  52   2.0000      -0.469622       -12.7791
  53   2.0000      -0.466205       -12.6861
  54   2.0000      -0.460655       -12.5351
  55   2.0000      -0.451565       -12.2877
  56   2.0000      -0.447043       -12.1647
  57   2.0000      -0.443611       -12.0713
  58   2.0000      -0.424742       -11.5578
  59   2.0000      -0.422585       -11.4991
  60   2.0000      -0.413247       -11.2450
  61   2.0000      -0.407682       -11.0936
  62   2.0000      -0.401218       -10.9177
  63   2.0000      -0.336273        -9.1505
  64   2.0000      -0.328476        -8.9383
  65   2.0000      -0.327350        -8.9077
  66   2.0000      -0.305567        -8.3149
  67   0.0000       0.037519         1.0209
  68   0.0000       0.054431         1.4811
  69   0.0000       0.119668         3.2563
  70   0.0000       0.122486         3.3330
  71   0.0000       0.125255         3.4084

MULLIKEN ATOMIC CHARGES
-----------------------
   0 S :    0.137078
   1 C :   -0.132428
   2 C :   -0.053918
   3 C :    0.020670
   4 C :   -0.144357
   5 H :    0.006303
   6 C :    0.051914
   7 H :    0.041814
   8 H :    0.026180
   9 C :   -0.104496
  10 H :    0.026450
  11 H :    0.038663
  12 C :   -0.033709
  13 H :    0.034447
  14 H :    0.026392
  15 H :    0.047463
  16 S :    0.075861
  17 C :   -0.088756
  18 C :   -0.000238
  19 C :   -0.053069
  20 C :   -0.176736
  21 H :    0.004792
  22 C :    0.077637
  23 H :    0.000177
  24 H :    0.018895
  25 C :   -0.065467
  26 H :    0.037993
  27 H :    0.026822
  28 C :   -0.049305
  29 H :    0.027063
  30 H :    0.047214
  31 H :    0.015402
  32 H :    0.039433
  33 H :    0.073815
Sum of atomic charges:    0.0000000

LOEWDIN ATOMIC CHARGES
----------------------
   0 S :    0.413069
   1 C :   -0.196167
   2 C :   -0.065123
   3 C :   -0.050888
   4 C :   -0.192600
   5 H :    0.026561
   6 C :   -0.038835
   7 H :    0.036643
   8 H :    0.039898
   9 C :   -0.052720
  10 H :    0.027398
  11 H :    0.028971
  12 C :   -0.065412
  13 H :    0.027793
  14 H :    0.018429
  15 H :    0.038704
  16 S :    0.370219
  17 C :   -0.173219
  18 C :   -0.075964
  19 C :   -0.046102
  20 C :   -0.194108
  21 H :    0.025466
  22 C :   -0.034186
  23 H :    0.022202
  24 H :    0.029380
  25 C :   -0.044877
  26 H :    0.024629
  27 H :    0.025570
  28 C :   -0.064341
  29 H :    0.023890
  30 H :    0.033374
  31 H :    0.017467
  32 H :    0.021329
  33 H :    0.043550

  Mayer bond orders larger than 0.100000
B(  0-S ,  1-C ) :   1.1566 B(  0-S ,  4-C ) :   1.1305 B(  1-C ,  2-C ) :   1.5976
B(  1-C , 32-H ) :   0.9709 B(  2-C ,  3-C ) :   1.2441 B(  2-C ,  6-C ) :   1.0120
B(  3-C ,  4-C ) :   1.5853 B(  3-C ,  5-H ) :   0.9908 B(  4-C , 20-C ) :   1.0438
B(  6-C ,  7-H ) :   0.9366 B(  6-C ,  8-H ) :   0.9334 B(  6-C ,  9-C ) :   1.0743
B(  9-C , 10-H ) :   0.9511 B(  9-C , 11-H ) :   0.9506 B(  9-C , 12-C ) :   1.0789
B( 12-C , 13-H ) :   0.9735 B( 12-C , 14-H ) :   0.9739 B( 12-C , 15-H ) :   0.9727
B( 16-S , 17-C ) :   1.1434 B( 16-S , 20-C ) :   1.1026 B( 17-C , 18-C ) :   1.6252
B( 17-C , 33-H ) :   0.9614 B( 18-C , 19-C ) :   1.2329 B( 18-C , 21-H ) :   0.9899
B( 19-C , 20-C ) :   1.6552 B( 19-C , 22-C ) :   1.0259 B( 22-C , 23-H ) :   0.9250
B( 22-C , 24-H ) :   0.9367 B( 22-C , 25-C ) :   1.0786 B( 25-C , 26-H ) :   0.9528
B( 25-C , 27-H ) :   0.9526 B( 25-C , 28-C ) :   1.0833 B( 28-C , 29-H ) :   0.9742
B( 28-C , 30-H ) :   0.9736 B( 28-C , 31-H ) :   0.9735

Dispersion correction           -0.014669518
FINAL SINGLE POINT ENERGY     -1339.875298677274

DIPOLE MOMENT
-------------
                                X             Y             Z
Electronic contribution:    -26.50033      -0.07719       8.01589
Nuclear contribution   :     27.02982       0.04153      -8.21374
                        -----------------------------------------
Total Dipole Moment    :      0.52948      -0.03566      -0.19785
                        -----------------------------------------
Magnitude (a.u.)       :      0.56636
Magnitude (Debye)      :      1.43958

Rotational constants in cm-1:     0.017289     0.009079     0.007678
Rotational constants in MHz :   518.325625   272.178532   230.182637

                             ****ORCA TERMINATED NORMALLY****
TOTAL RUN TIME: 0 days 0 hours 0 minutes 28 seconds 756 msec
