                         Program Version 4.2.1 -  RELEASE  -
|  1> ! wB97X-D3 SP def2-SVP
|  2> %pal
|  3> nprocs 16
|  4> end
|  5>
|  6> * xyz 0 1
|  7> S 	 -55.5044 	 61.3241 	 132.301
|  8> C 	 -54.4412 	 60.7852 	 131.048
|  9> C 	 -53.0877 	 60.7664 	 131.337
| 10> C 	 -52.91 	 61.2449 	 132.68
| 11> C 	 -54.0877 	 61.5189 	 133.333
| 12> H 	 -51.9695 	 61.2403 	 133.237
| 13> C 	 -51.9653 	 60.2815 	 130.432
| 14> H 	 -51.0705 	 60.9357 	 130.638
| 15> H 	 -52.1135 	 60.5128 	 129.341
| 16> C 	 -51.5438 	 58.8276 	 130.741
| 17> H 	 -51.4441 	 58.7978 	 131.756
| 18> H 	 -52.3925 	 58.2093 	 130.447
| 19> C 	 -50.31 	 58.2906 	 129.965
| 20> H 	 -49.3612 	 58.622 	 130.398
| 21> H 	 -50.1638 	 57.2329 	 130.213
| 22> H 	 -50.4013 	 58.477 	 128.918
| 23> S 	 -54.6989 	 63.6043 	 134.998
| 24> C 	 -54.5593 	 63.3461 	 136.78
| 25> C 	 -54.03 	 62.1218 	 137.07
| 26> C 	 -53.9006 	 61.2363 	 135.872
| 27> C 	 -54.3022 	 61.8993 	 134.701
| 28> H 	 -53.918 	 61.7484 	 138.104
| 29> C 	 -53.4193 	 59.7626 	 135.95
| 30> H 	 -52.408 	 59.5997 	 136.394
| 31> H 	 -53.2069 	 59.4162 	 134.925
| 32> C 	 -54.4946 	 58.7822 	 136.39
| 33> H 	 -54.7517 	 58.9684 	 137.422
| 34> H 	 -53.8698 	 57.8505 	 136.483
| 35> C 	 -55.6136 	 58.4195 	 135.417
| 36> H 	 -55.2164 	 57.7417 	 134.695
| 37> H 	 -55.9688 	 59.3789 	 135.033
| 38> H 	 -56.3779 	 57.9542 	 135.919
| 39> H 	 -54.8097 	 60.545 	 130.071
| 40> H 	 -54.6239 	 64.179 	 137.484
| 41> *
| 42>
| 43>                          ****END OF INPUT****

CARTESIAN COORDINATES (ANGSTROEM)
---------------------------------
  S    -55.504400   61.324100  132.301000
  C    -54.441200   60.785200  131.048000
  C    -53.087700   60.766400  131.337000
  C    -52.910000   61.244900  132.680000
  C    -54.087700   61.518900  133.333000
  H    -51.969500   61.240300  133.237000
  C    -51.965300   60.281500  130.432000
  H    -51.070500   60.935700  130.638000
  H    -52.113500   60.512800  129.341000
  C    -51.543800   58.827600  130.741000
  H    -51.444100   58.797800  131.756000
  H    -52.392500   58.209300  130.447000
  C    -50.310000   58.290600  129.965000
  H    -49.361200   58.622000  130.398000
  H    -50.163800   57.232900  130.213000
  H    -50.401300   58.477000  128.918000
  S    -54.698900   63.604300  134.998000
  C    -54.559300   63.346100  136.780000
  C    -54.030000   62.121800  137.070000
  C    -53.900600   61.236300  135.872000
  C    -54.302200   61.899300  134.701000
  H    -53.918000   61.748400  138.104000
  C    -53.419300   59.762600  135.950000
  H    -52.408000   59.599700  136.394000
  H    -53.206900   59.416200  134.925000
  C    -54.494600   58.782200  136.390000
  H    -54.751700   58.968400  137.422000
  H    -53.869800   57.850500  136.483000
  C    -55.613600   58.419500  135.417000
  H    -55.216400   57.741700  134.695000
  H    -55.968800   59.378900  135.033000
  H    -56.377900   57.954200  135.919000
  H    -54.809700   60.545000  130.071000
  H    -54.623900   64.179000  137.484000

 Total Charge           Charge          ....    0
 Multiplicity           Mult            ....    1
 Number of Electrons    NEL             ....  134
 Basis Dimension        Dim             ....  322

ORBITAL ENERGIES
----------------

  NO   OCC          E(Eh)            E(eV)
   0   2.0000     -88.967313     -2420.9237
   1   2.0000     -88.962064     -2420.7808
   2   2.0000     -10.326644      -281.0023
   3   2.0000     -10.324851      -280.9535
   4   2.0000     -10.322795      -280.8975
   5   2.0000     -10.312720      -280.6234
   6   2.0000     -10.310928      -280.5746
   7   2.0000     -10.303476      -280.3718
   8   2.0000     -10.302332      -280.3407
   9   2.0000     -10.300813      -280.2994
  10   2.0000     -10.296951      -280.1943
  11   2.0000     -10.295524      -280.1555
  12   2.0000     -10.283541      -279.8294
  13   2.0000     -10.282103      -279.7903
  14   2.0000     -10.281150      -279.7643
  15   2.0000     -10.265456      -279.3373
  16   2.0000      -8.082280      -219.9300
  17   2.0000      -8.075955      -219.7579
  18   2.0000      -6.040603      -164.3732
  19   2.0000      -6.036891      -164.2722
  20   2.0000      -6.034647      -164.2111
  21   2.0000      -6.033079      -164.1684
  22   2.0000      -6.030753      -164.1051
  23   2.0000      -6.026374      -163.9860
  24   2.0000      -1.003370       -27.3031
  25   2.0000      -0.973973       -26.5032
  26   2.0000      -0.909993       -24.7622
  27   2.0000      -0.905869       -24.6500
  28   2.0000      -0.869352       -23.6563
  29   2.0000      -0.851475       -23.1698
  30   2.0000      -0.838921       -22.8282
  31   2.0000      -0.813069       -22.1247
  32   2.0000      -0.785931       -21.3863
  33   2.0000      -0.772749       -21.0276
  34   2.0000      -0.707724       -19.2582
  35   2.0000      -0.698605       -19.0100
  36   2.0000      -0.687183       -18.6992
  37   2.0000      -0.652802       -17.7636
  38   2.0000      -0.644687       -17.5428
  39   2.0000      -0.618998       -16.8438
  40   2.0000      -0.596558       -16.2332
  41   2.0000      -0.566231       -15.4079
  42   2.0000      -0.560479       -15.2514
  43   2.0000      -0.553730       -15.0678
  44   2.0000      -0.543004       -14.7759
  45   2.0000      -0.523783       -14.2529
  46   2.0000      -0.518100       -14.0982
  47   2.0000      -0.503491       -13.7007
  48   2.0000      -0.496936       -13.5223
  49   2.0000      -0.494462       -13.4550
  50   2.0000      -0.488402       -13.2901
  51   2.0000      -0.482301       -13.1241
  52   2.0000      -0.470855       -12.8126
  53   2.0000      -0.464789       -12.6475
  54   2.0000      -0.457122       -12.4389
  55   2.0000      -0.448791       -12.2122
  56   2.0000      -0.443449       -12.0669
  57   2.0000      -0.440372       -11.9831
  58   2.0000      -0.433778       -11.8037
  59   2.0000      -0.431485       -11.7413
  60   2.0000      -0.413506       -11.2521
  61   2.0000      -0.412372       -11.2212
  62   2.0000      -0.400109       -10.8875
  63   2.0000      -0.342000        -9.3063
  64   2.0000      -0.332749        -9.0546
  65   2.0000      -0.322770        -8.7830
  66   2.0000      -0.301672        -8.2089
  67   0.0000       0.037122         1.0101
  68   0.0000       0.060620         1.6496
  69   0.0000       0.106470         2.8972
  70   0.0000       0.113008         3.0751
  71   0.0000       0.124820         3.3965

MULLIKEN ATOMIC CHARGES
-----------------------
   0 S :    0.124407
   1 C :   -0.101354
   2 C :   -0.090521
   3 C :    0.056884
   4 C :   -0.198226
   5 H :    0.019325
   6 C :    0.019305
   7 H :    0.026477
   8 H :    0.033395
   9 C :   -0.036639
  10 H :    0.004333
  11 H :    0.028324
  12 C :   -0.028478
  13 H :    0.023103
  14 H :    0.030172
  15 H :    0.041469
  16 S :    0.086904
  17 C :   -0.093945
  18 C :   -0.025395
  19 C :   -0.050157
  20 C :   -0.143381
  21 H :    0.038589
  22 C :    0.040392
  23 H :    0.043244
  24 H :    0.009451
  25 C :   -0.109062
  26 H :    0.020690
  27 H :    0.017866
  28 C :    0.036358
  29 H :    0.031229
  30 H :    0.030300
  31 H :    0.014756
  32 H :    0.031618
  33 H :    0.068567
Sum of atomic charges:   -0.0000000

LOEWDIN ATOMIC CHARGES
----------------------
   0 S :    0.413453
   1 C :   -0.191885
   2 C :   -0.065309
   3 C :   -0.052274
   4 C :   -0.197590
   5 H :    0.035207
   6 C :   -0.039667
   7 H :    0.033346
   8 H :    0.032416
   9 C :   -0.030865
  10 H :    0.010815
  11 H :    0.026179
  12 C :   -0.065244
  13 H :    0.025971
  14 H :    0.031692
  15 H :    0.024067
  16 S :    0.366394
  17 C :   -0.167406
  18 C :   -0.070826
  19 C :   -0.048308
  20 C :   -0.203176
  21 H :    0.037417
  22 C :   -0.043654
  23 H :    0.038061
  24 H :    0.030384
  25 C :   -0.045665
  26 H :    0.014638
  27 H :    0.027334
  28 C :   -0.047882
  29 H :    0.026607
  30 H :    0.026374
  31 H :    0.018014
  32 H :    0.018710
  33 H :    0.032673

  Mayer bond orders larger than 0.100000
B(  0-S ,  1-C ) :   1.1502 B(  0-S ,  4-C ) :   1.1462 B(  1-C ,  2-C ) :   1.6328
B(  1-C , 32-H ) :   0.9667 B(  2-C ,  3-C ) :   1.2225 B(  2-C ,  6-C ) :   1.0244
B(  3-C ,  4-C ) :   1.6077 B(  3-C ,  5-H ) :   0.9911 B(  4-C , 20-C ) :   1.0149
B(  6-C ,  7-H ) :   0.9409 B(  6-C ,  8-H ) :   0.9438 B(  6-C ,  9-C ) :   1.0529
B(  9-C , 10-H ) :   0.9559 B(  9-C , 11-H ) :   0.9564 B(  9-C , 12-C ) :   1.0852
B( 12-C , 13-H ) :   0.9722 B( 12-C , 14-H ) :   0.9710 B( 12-C , 15-H ) :   0.9761
B( 16-S , 17-C ) :   1.1219 B( 16-S , 20-C ) :   1.1280 B( 17-C , 18-C ) :   1.6655
B( 17-C , 33-H ) :   0.9643 B( 18-C , 19-C ) :   1.1918 B( 18-C , 21-H ) :   0.9796
B( 19-C , 20-C ) :   1.6367 B( 19-C , 22-C ) :   1.0369 B( 22-C , 23-H ) :   0.9439
B( 22-C , 24-H ) :   0.9279 B( 22-C , 25-C ) :   1.0670 B( 25-C , 26-H ) :   0.9616
B( 25-C , 27-H ) :   0.9522 B( 25-C , 28-C ) :   1.0701 B( 28-C , 29-H ) :   0.9724
B( 28-C , 30-H ) :   0.9744 B( 28-C , 31-H ) :   0.9696

Dispersion correction           -0.014954775
FINAL SINGLE POINT ENERGY     -1339.868348728864

DIPOLE MOMENT
-------------
                                X             Y             Z
Electronic contribution:    -13.94638      23.56253       4.24693
Nuclear contribution   :     14.49950     -24.11726      -4.17002
                        -----------------------------------------
Total Dipole Moment    :      0.55312      -0.55472       0.07690
                        -----------------------------------------
Magnitude (a.u.)       :      0.78713
Magnitude (Debye)      :      2.00072

Rotational constants in cm-1:     0.019506     0.008296     0.007270
Rotational constants in MHz :   584.771231   248.718755   217.941253

                             ****ORCA TERMINATED NORMALLY****
TOTAL RUN TIME: 0 days 0 hours 0 minutes 35 seconds 46 msec
