                         Program Version 4.2.1 -  RELEASE  -
|  1> ! wB97X-D3 SP def2-SVP
|  2> %pal
|  3> nprocs 16
|  4> end
|  5>
|  6> * xyz 0 1
|  7> S 	 -95.5135 	 56.2307 	 130.802
|  8> C 	 -94.2404 	 56.4429 	 132.048
|  9> C 	 -94.7192 	 57.3405 	 132.955
| 10> C 	 -95.9779 	 57.887 	 132.649
| 11> C 	 -96.4889 	 57.5531 	 131.379
| 12> H 	 -96.4137 	 58.6084 	 133.304
| 13> C 	 -94.0197 	 57.6922 	 134.237
| 14> H 	 -93.2954 	 56.8921 	 134.329
| 15> H 	 -94.801 	 57.5869 	 135.047
| 16> C 	 -93.2651 	 59.0371 	 134.177
| 17> H 	 -92.6657 	 59.0344 	 133.234
| 18> H 	 -93.9646 	 59.9261 	 134.046
| 19> C 	 -92.34 	 59.1421 	 135.484
| 20> H 	 -91.8039 	 60.0695 	 135.471
| 21> H 	 -92.9953 	 59.1586 	 136.387
| 22> H 	 -91.5133 	 58.3336 	 135.54
| 23> S 	 -98.8413 	 56.6481 	 130.276
| 24> C 	 -100.054 	 57.8435 	 129.834
| 25> C 	 -99.602 	 59.1782 	 129.99
| 26> C 	 -98.2769 	 59.1656 	 130.544
| 27> C 	 -97.7633 	 57.9034 	 130.789
| 28> H 	 -100.206 	 59.9557 	 129.716
| 29> C 	 -97.5521 	 60.422 	 130.632
| 30> H 	 -97.0185 	 60.4305 	 131.521
| 31> H 	 -98.2448 	 61.2206 	 130.584
| 32> C 	 -96.6071 	 60.6766 	 129.468
| 33> H 	 -97.1618 	 60.649 	 128.546
| 34> H 	 -95.8228 	 59.9126 	 129.527
| 35> C 	 -95.9441 	 62.0308 	 129.585
| 36> H 	 -95.1316 	 61.9795 	 130.288
| 37> H 	 -96.6446 	 62.8121 	 129.818
| 38> H 	 -95.4968 	 62.2133 	 128.631
| 39> H 	 -93.3067 	 55.8251 	 132.061
| 40> H 	 -101.061 	 57.6352 	 129.431
| 41> *
| 42>
| 43>                          ****END OF INPUT****

CARTESIAN COORDINATES (ANGSTROEM)
---------------------------------
  S    -95.513500   56.230700  130.802000
  C    -94.240400   56.442900  132.048000
  C    -94.719200   57.340500  132.955000
  C    -95.977900   57.887000  132.649000
  C    -96.488900   57.553100  131.379000
  H    -96.413700   58.608400  133.304000
  C    -94.019700   57.692200  134.237000
  H    -93.295400   56.892100  134.329000
  H    -94.801000   57.586900  135.047000
  C    -93.265100   59.037100  134.177000
  H    -92.665700   59.034400  133.234000
  H    -93.964600   59.926100  134.046000
  C    -92.340000   59.142100  135.484000
  H    -91.803900   60.069500  135.471000
  H    -92.995300   59.158600  136.387000
  H    -91.513300   58.333600  135.540000
  S    -98.841300   56.648100  130.276000
  C    -100.054000   57.843500  129.834000
  C    -99.602000   59.178200  129.990000
  C    -98.276900   59.165600  130.544000
  C    -97.763300   57.903400  130.789000
  H    -100.206000   59.955700  129.716000
  C    -97.552100   60.422000  130.632000
  H    -97.018500   60.430500  131.521000
  H    -98.244800   61.220600  130.584000
  C    -96.607100   60.676600  129.468000
  H    -97.161800   60.649000  128.546000
  H    -95.822800   59.912600  129.527000
  C    -95.944100   62.030800  129.585000
  H    -95.131600   61.979500  130.288000
  H    -96.644600   62.812100  129.818000
  H    -95.496800   62.213300  128.631000
  H    -93.306700   55.825100  132.061000
  H    -101.061000   57.635200  129.431000

 Total Charge           Charge          ....    0
 Multiplicity           Mult            ....    1
 Number of Electrons    NEL             ....  134
 Basis Dimension        Dim             ....  322

ORBITAL ENERGIES
----------------

  NO   OCC          E(Eh)            E(eV)
   0   2.0000     -88.969909     -2420.9943
   1   2.0000     -88.962027     -2420.7798
   2   2.0000     -10.333218      -281.1812
   3   2.0000     -10.323511      -280.9170
   4   2.0000     -10.323007      -280.9033
   5   2.0000     -10.318850      -280.7902
   6   2.0000     -10.302728      -280.3515
   7   2.0000     -10.297625      -280.2126
   8   2.0000     -10.294525      -280.1283
   9   2.0000     -10.293875      -280.1106
  10   2.0000     -10.292581      -280.0754
  11   2.0000     -10.292432      -280.0713
  12   2.0000     -10.290579      -280.0209
  13   2.0000     -10.276254      -279.6311
  14   2.0000     -10.271287      -279.4959
  15   2.0000     -10.267511      -279.3932
  16   2.0000      -8.084484      -219.9900
  17   2.0000      -8.076467      -219.7718
  18   2.0000      -6.043014      -164.4388
  19   2.0000      -6.039004      -164.3296
  20   2.0000      -6.035234      -164.2271
  21   2.0000      -6.035065      -164.2225
  22   2.0000      -6.030928      -164.1099
  23   2.0000      -6.027225      -164.0091
  24   2.0000      -1.007743       -27.4221
  25   2.0000      -0.984417       -26.7874
  26   2.0000      -0.919858       -25.0306
  27   2.0000      -0.908525       -24.7222
  28   2.0000      -0.866344       -23.5744
  29   2.0000      -0.856712       -23.3123
  30   2.0000      -0.839250       -22.8371
  31   2.0000      -0.813852       -22.1460
  32   2.0000      -0.780950       -21.2507
  33   2.0000      -0.767954       -20.8971
  34   2.0000      -0.707763       -19.2592
  35   2.0000      -0.697933       -18.9917
  36   2.0000      -0.690349       -18.7854
  37   2.0000      -0.670946       -18.2574
  38   2.0000      -0.636159       -17.3108
  39   2.0000      -0.624699       -16.9989
  40   2.0000      -0.595361       -16.2006
  41   2.0000      -0.582652       -15.8548
  42   2.0000      -0.566819       -15.4239
  43   2.0000      -0.553675       -15.0663
  44   2.0000      -0.526234       -14.3196
  45   2.0000      -0.524528       -14.2731
  46   2.0000      -0.517346       -14.0777
  47   2.0000      -0.510385       -13.8883
  48   2.0000      -0.507316       -13.8048
  49   2.0000      -0.500877       -13.6296
  50   2.0000      -0.488807       -13.3011
  51   2.0000      -0.486508       -13.2386
  52   2.0000      -0.471699       -12.8356
  53   2.0000      -0.465372       -12.6634
  54   2.0000      -0.457132       -12.4392
  55   2.0000      -0.448723       -12.2104
  56   2.0000      -0.442542       -12.0422
  57   2.0000      -0.435615       -11.8537
  58   2.0000      -0.430039       -11.7019
  59   2.0000      -0.426954       -11.6180
  60   2.0000      -0.422227       -11.4894
  61   2.0000      -0.421785       -11.4773
  62   2.0000      -0.408267       -11.1095
  63   2.0000      -0.346971        -9.4416
  64   2.0000      -0.330701        -8.9988
  65   2.0000      -0.327596        -8.9143
  66   2.0000      -0.287765        -7.8305
  67   0.0000       0.025570         0.6958
  68   0.0000       0.066739         1.8161
  69   0.0000       0.104825         2.8524
  70   0.0000       0.125974         3.4279
  71   0.0000       0.128141         3.4869

MULLIKEN ATOMIC CHARGES
-----------------------
   0 S :    0.079539
   1 C :   -0.151778
   2 C :   -0.098492
   3 C :    0.051191
   4 C :   -0.153634
   5 H :    0.003476
   6 C :    0.064603
   7 H :    0.008778
   8 H :    0.046063
   9 C :   -0.100275
  10 H :    0.038639
  11 H :    0.041991
  12 C :   -0.068218
  13 H :    0.031980
  14 H :    0.044409
  15 H :    0.050486
  16 S :    0.126097
  17 C :   -0.109015
  18 C :   -0.008205
  19 C :   -0.046463
  20 C :   -0.137395
  21 H :   -0.012658
  22 C :    0.143345
  23 H :   -0.010207
  24 H :   -0.008776
  25 C :   -0.085036
  26 H :    0.020261
  27 H :    0.034817
  28 C :   -0.002830
  29 H :    0.024399
  30 H :    0.022954
  31 H :    0.023809
  32 H :    0.071494
  33 H :    0.064651
Sum of atomic charges:    0.0000000

LOEWDIN ATOMIC CHARGES
----------------------
   0 S :    0.386417
   1 C :   -0.194455
   2 C :   -0.073581
   3 C :   -0.065735
   4 C :   -0.189541
   5 H :    0.024045
   6 C :   -0.034632
   7 H :    0.026687
   8 H :    0.038429
   9 C :   -0.043893
  10 H :    0.028880
  11 H :    0.028858
  12 C :   -0.073887
  13 H :    0.019761
  14 H :    0.030333
  15 H :    0.036078
  16 S :    0.418386
  17 C :   -0.183097
  18 C :   -0.055364
  19 C :   -0.046758
  20 C :   -0.214475
  21 H :    0.017618
  22 C :   -0.028377
  23 H :    0.019598
  24 H :    0.022044
  25 C :   -0.027458
  26 H :    0.020008
  27 H :    0.027519
  28 C :   -0.057093
  29 H :    0.023251
  30 H :    0.020239
  31 H :    0.025281
  32 H :    0.041408
  33 H :    0.033506

  Mayer bond orders larger than 0.100000
B(  0-S ,  1-C ) :   1.1228 B(  0-S ,  4-C ) :   1.1596 B(  1-C ,  2-C ) :   1.5878
B(  1-C ,  4-C ) :   0.1078 B(  1-C , 32-H ) :   0.9671 B(  2-C ,  3-C ) :   1.2789
B(  2-C ,  6-C ) :   1.0182 B(  3-C ,  4-C ) :   1.5222 B(  3-C ,  5-H ) :   0.9927
B(  4-C , 20-C ) :   1.0577 B(  6-C ,  7-H ) :   0.9414 B(  6-C ,  8-H ) :   0.9402
B(  6-C ,  9-C ) :   1.0500 B(  9-C , 10-H ) :   0.9556 B(  9-C , 11-H ) :   0.9583
B(  9-C , 12-C ) :   1.0654 B( 12-C , 13-H ) :   0.9772 B( 12-C , 14-H ) :   0.9757
B( 12-C , 15-H ) :   0.9760 B( 16-S , 17-C ) :   1.1676 B( 16-S , 20-C ) :   1.1298
B( 17-C , 18-C ) :   1.5909 B( 17-C , 33-H ) :   0.9625 B( 18-C , 19-C ) :   1.2423
B( 18-C , 21-H ) :   1.0068 B( 19-C , 20-C ) :   1.5751 B( 19-C , 22-C ) :   1.0791
B( 22-C , 23-H ) :   0.9050 B( 22-C , 24-H ) :   0.9188 B( 22-C , 25-C ) :   1.0829
B( 25-C , 26-H ) :   0.9558 B( 25-C , 27-H ) :   0.9519 B( 25-C , 28-C ) :   1.0939
B( 28-C , 29-H ) :   0.9740 B( 28-C , 30-H ) :   0.9720 B( 28-C , 31-H ) :   0.9722

Dispersion correction           -0.014081420
FINAL SINGLE POINT ENERGY     -1339.871180243591

DIPOLE MOMENT
-------------
                                X             Y             Z
Electronic contribution:    -16.40219     -22.50769     -10.82084
Nuclear contribution   :     16.54107      23.07286      11.08303
                        -----------------------------------------
Total Dipole Moment    :      0.13888       0.56517       0.26219
                        -----------------------------------------
Magnitude (a.u.)       :      0.63831
Magnitude (Debye)      :      1.62247

Rotational constants in cm-1:     0.018819     0.008552     0.006728
Rotational constants in MHz :   564.189007   256.367967   201.709440

                             ****ORCA TERMINATED NORMALLY****
TOTAL RUN TIME: 0 days 0 hours 0 minutes 35 seconds 344 msec
