                         Program Version 4.2.1 -  RELEASE  -
|  1> ! wB97X-D3 SP def2-SVP
|  2> %pal
|  3> nprocs 16
|  4> end
|  5>
|  6> * xyz 0 1
|  7> S 	 -34.9205 	 60.929 	 114.978
|  8> C 	 -33.8152 	 61.2391 	 113.685
|  9> C 	 -32.5108 	 60.9943 	 114.036
| 10> C 	 -32.4286 	 60.7525 	 115.475
| 11> C 	 -33.6217 	 60.9627 	 116.188
| 12> H 	 -31.5586 	 60.5589 	 115.993
| 13> C 	 -31.2794 	 60.9781 	 113.094
| 14> H 	 -30.4616 	 60.8058 	 113.807
| 15> H 	 -31.0907 	 61.9607 	 112.634
| 16> C 	 -31.2331 	 59.8079 	 112.057
| 17> H 	 -31.717 	 58.9545 	 112.524
| 18> H 	 -31.7339 	 60.1561 	 111.157
| 19> C 	 -29.836 	 59.5116 	 111.621
| 20> H 	 -29.8862 	 58.4744 	 111.312
| 21> H 	 -29.436 	 60.1664 	 110.75
| 22> H 	 -29.178 	 59.5042 	 112.526
| 23> S 	 -34.908 	 59.9066 	 118.403
| 24> C 	 -34.6594 	 60.6835 	 119.934
| 25> C 	 -33.5802 	 61.5442 	 119.944
| 26> C 	 -33.1228 	 61.7265 	 118.617
| 27> C 	 -33.8337 	 61.0601 	 117.65
| 28> H 	 -33.2792 	 62.1107 	 120.804
| 29> C 	 -31.8916 	 62.6096 	 118.385
| 30> H 	 -31.1844 	 62.0047 	 117.84
| 31> H 	 -31.2607 	 62.8047 	 119.313
| 32> C 	 -32.1359 	 64.0068 	 117.682
| 33> H 	 -32.7479 	 64.7886 	 118.185
| 34> H 	 -32.6895 	 63.7201 	 116.761
| 35> C 	 -30.8862 	 64.7826 	 117.203
| 36> H 	 -31.1141 	 65.8472 	 117.052
| 37> H 	 -30.3966 	 64.5487 	 116.25
| 38> H 	 -30.1447 	 64.7681 	 117.975
| 39> H 	 -34.1338 	 61.2777 	 112.639
| 40> H 	 -35.1201 	 60.381 	 120.841
| 41> *
| 42>
| 43>                          ****END OF INPUT****

CARTESIAN COORDINATES (ANGSTROEM)
---------------------------------
  S    -34.920500   60.929000  114.978000
  C    -33.815200   61.239100  113.685000
  C    -32.510800   60.994300  114.036000
  C    -32.428600   60.752500  115.475000
  C    -33.621700   60.962700  116.188000
  H    -31.558600   60.558900  115.993000
  C    -31.279400   60.978100  113.094000
  H    -30.461600   60.805800  113.807000
  H    -31.090700   61.960700  112.634000
  C    -31.233100   59.807900  112.057000
  H    -31.717000   58.954500  112.524000
  H    -31.733900   60.156100  111.157000
  C    -29.836000   59.511600  111.621000
  H    -29.886200   58.474400  111.312000
  H    -29.436000   60.166400  110.750000
  H    -29.178000   59.504200  112.526000
  S    -34.908000   59.906600  118.403000
  C    -34.659400   60.683500  119.934000
  C    -33.580200   61.544200  119.944000
  C    -33.122800   61.726500  118.617000
  C    -33.833700   61.060100  117.650000
  H    -33.279200   62.110700  120.804000
  C    -31.891600   62.609600  118.385000
  H    -31.184400   62.004700  117.840000
  H    -31.260700   62.804700  119.313000
  C    -32.135900   64.006800  117.682000
  H    -32.747900   64.788600  118.185000
  H    -32.689500   63.720100  116.761000
  C    -30.886200   64.782600  117.203000
  H    -31.114100   65.847200  117.052000
  H    -30.396600   64.548700  116.250000
  H    -30.144700   64.768100  117.975000
  H    -34.133800   61.277700  112.639000
  H    -35.120100   60.381000  120.841000

 Total Charge           Charge          ....    0
 Multiplicity           Mult            ....    1
 Number of Electrons    NEL             ....  134
 Basis Dimension        Dim             ....  322

ORBITAL ENERGIES
----------------

  NO   OCC          E(Eh)            E(eV)
   0   2.0000     -88.967590     -2420.9312
   1   2.0000     -88.962695     -2420.7980
   2   2.0000     -10.334987      -281.2293
   3   2.0000     -10.327837      -281.0347
   4   2.0000     -10.314672      -280.6765
   5   2.0000     -10.312017      -280.6043
   6   2.0000     -10.304194      -280.3914
   7   2.0000     -10.303907      -280.3836
   8   2.0000     -10.298812      -280.2449
   9   2.0000     -10.297280      -280.2032
  10   2.0000     -10.294999      -280.1412
  11   2.0000     -10.292227      -280.0657
  12   2.0000     -10.290733      -280.0251
  13   2.0000     -10.286343      -279.9056
  14   2.0000     -10.285868      -279.8927
  15   2.0000     -10.274161      -279.5741
  16   2.0000      -8.082775      -219.9435
  17   2.0000      -8.077611      -219.8030
  18   2.0000      -6.041194      -164.3892
  19   2.0000      -6.037410      -164.2863
  20   2.0000      -6.036234      -164.2543
  21   2.0000      -6.033421      -164.1777
  22   2.0000      -6.032183      -164.1441
  23   2.0000      -6.028148      -164.0342
  24   2.0000      -1.007827       -27.4244
  25   2.0000      -0.985548       -26.8181
  26   2.0000      -0.910698       -24.7813
  27   2.0000      -0.896803       -24.4033
  28   2.0000      -0.870128       -23.6774
  29   2.0000      -0.850721       -23.1493
  30   2.0000      -0.846407       -23.0319
  31   2.0000      -0.814206       -22.1557
  32   2.0000      -0.779683       -21.2162
  33   2.0000      -0.769484       -20.9387
  34   2.0000      -0.704243       -19.1634
  35   2.0000      -0.694953       -18.9106
  36   2.0000      -0.688306       -18.7298
  37   2.0000      -0.667820       -18.1723
  38   2.0000      -0.642010       -17.4700
  39   2.0000      -0.616457       -16.7747
  40   2.0000      -0.595736       -16.2108
  41   2.0000      -0.574286       -15.6271
  42   2.0000      -0.567297       -15.4369
  43   2.0000      -0.550101       -14.9690
  44   2.0000      -0.525797       -14.3077
  45   2.0000      -0.523420       -14.2430
  46   2.0000      -0.515264       -14.0210
  47   2.0000      -0.505233       -13.7481
  48   2.0000      -0.502740       -13.6802
  49   2.0000      -0.497601       -13.5404
  50   2.0000      -0.493600       -13.4315
  51   2.0000      -0.486644       -13.2422
  52   2.0000      -0.468208       -12.7406
  53   2.0000      -0.468037       -12.7359
  54   2.0000      -0.459200       -12.4955
  55   2.0000      -0.447775       -12.1846
  56   2.0000      -0.441176       -12.0050
  57   2.0000      -0.431464       -11.7407
  58   2.0000      -0.428968       -11.6728
  59   2.0000      -0.423624       -11.5274
  60   2.0000      -0.422870       -11.5069
  61   2.0000      -0.414252       -11.2724
  62   2.0000      -0.403111       -10.9692
  63   2.0000      -0.345992        -9.4149
  64   2.0000      -0.333330        -9.0704
  65   2.0000      -0.324579        -8.8322
  66   2.0000      -0.293373        -7.9831
  67   0.0000       0.023265         0.6331
  68   0.0000       0.065239         1.7752
  69   0.0000       0.100840         2.7440
  70   0.0000       0.124711         3.3936
  71   0.0000       0.131074         3.5667

MULLIKEN ATOMIC CHARGES
-----------------------
   0 S :    0.103180
   1 C :   -0.105707
   2 C :   -0.117649
   3 C :    0.069000
   4 C :   -0.173480
   5 H :   -0.018601
   6 C :    0.057773
   7 H :    0.007141
   8 H :    0.046192
   9 C :   -0.069805
  10 H :    0.041713
  11 H :    0.031749
  12 C :   -0.071533
  13 H :    0.032400
  14 H :    0.057822
  15 H :    0.030145
  16 S :    0.110815
  17 C :   -0.069201
  18 C :   -0.030329
  19 C :   -0.036554
  20 C :   -0.131680
  21 H :    0.021688
  22 C :    0.050570
  23 H :    0.016842
  24 H :    0.024254
  25 C :   -0.084730
  26 H :    0.043212
  27 H :    0.046747
  28 C :   -0.055716
  29 H :    0.025950
  30 H :    0.033247
  31 H :    0.016434
  32 H :    0.054970
  33 H :    0.043141
Sum of atomic charges:   -0.0000000

LOEWDIN ATOMIC CHARGES
----------------------
   0 S :    0.397518
   1 C :   -0.199495
   2 C :   -0.068101
   3 C :   -0.050151
   4 C :   -0.188798
   5 H :    0.012154
   6 C :   -0.032411
   7 H :    0.025218
   8 H :    0.034664
   9 C :   -0.043894
  10 H :    0.028089
  11 H :    0.025933
  12 C :   -0.074594
  13 H :    0.028285
  14 H :    0.038691
  15 H :    0.025605
  16 S :    0.415684
  17 C :   -0.175751
  18 C :   -0.065420
  19 C :   -0.052830
  20 C :   -0.203262
  21 H :    0.034075
  22 C :   -0.035764
  23 H :    0.026131
  24 H :    0.032449
  25 C :   -0.045667
  26 H :    0.031792
  27 H :    0.031304
  28 C :   -0.074184
  29 H :    0.029072
  30 H :    0.025003
  31 H :    0.016619
  32 H :    0.031217
  33 H :    0.020818

  Mayer bond orders larger than 0.100000
B(  0-S ,  1-C ) :   1.1464 B(  0-S ,  4-C ) :   1.1426 B(  1-C ,  2-C ) :   1.6164
B(  1-C , 32-H ) :   0.9666 B(  2-C ,  3-C ) :   1.2430 B(  2-C ,  6-C ) :   1.0129
B(  3-C ,  4-C ) :   1.5595 B(  3-C ,  5-H ) :   1.0023 B(  4-C , 20-C ) :   1.0397
B(  6-C ,  7-H ) :   0.9444 B(  6-C ,  8-H ) :   0.9433 B(  6-C ,  9-C ) :   1.0579
B(  9-C , 10-H ) :   0.9614 B(  9-C , 11-H ) :   0.9499 B(  9-C , 12-C ) :   1.0885
B( 12-C , 13-H ) :   0.9727 B( 12-C , 14-H ) :   0.9730 B( 12-C , 15-H ) :   0.9734
B( 16-S , 17-C ) :   1.1694 B( 16-S , 20-C ) :   1.1389 B( 17-C , 18-C ) :   1.5951
B( 17-C , 33-H ) :   0.9686 B( 18-C , 19-C ) :   1.2566 B( 18-C , 21-H ) :   0.9960
B( 19-C , 20-C ) :   1.6112 B( 19-C , 22-C ) :   1.0333 B( 22-C , 23-H ) :   0.9364
B( 22-C , 24-H ) :   0.9404 B( 22-C , 25-C ) :   1.0454 B( 25-C , 26-H ) :   0.9635
B( 25-C , 27-H ) :   0.9598 B( 25-C , 28-C ) :   1.0726 B( 28-C , 29-H ) :   0.9758
B( 28-C , 30-H ) :   0.9769 B( 28-C , 31-H ) :   0.9754

Dispersion correction           -0.014014061
FINAL SINGLE POINT ENERGY     -1339.854915129850

DIPOLE MOMENT
-------------
                                X             Y             Z
Electronic contribution:    -25.30707     -10.00842      12.57571
Nuclear contribution   :     25.96173      10.07770     -12.67194
                        -----------------------------------------
Total Dipole Moment    :      0.65465       0.06928      -0.09622
                        -----------------------------------------
Magnitude (a.u.)       :      0.66530
Magnitude (Debye)      :      1.69107

Rotational constants in cm-1:     0.018638     0.008097     0.006518
Rotational constants in MHz :   558.747949   242.736357   195.408748

                             ****ORCA TERMINATED NORMALLY****
TOTAL RUN TIME: 0 days 0 hours 0 minutes 29 seconds 314 msec
