                         Program Version 4.2.1 -  RELEASE  -
|  1> ! wB97X-D3 SP def2-SVP
|  2> %pal
|  3> nprocs 16
|  4> end
|  5>
|  6> * xyz 0 1
|  7> S 	 -44.3059 	 27.6449 	 84.6063
|  8> C 	 -44.8875 	 26.0472 	 85.0308
|  9> C 	 -45.4929 	 25.3547 	 84.0165
| 10> C 	 -45.519 	 26.1406 	 82.8309
| 11> C 	 -44.9009 	 27.3649 	 82.9972
| 12> H 	 -45.878 	 25.8842 	 81.8513
| 13> C 	 -45.7236 	 23.8449 	 84.0896
| 14> H 	 -46.8246 	 23.7004 	 84.005
| 15> H 	 -45.4396 	 23.3428 	 84.984
| 16> C 	 -45.1652 	 23.0523 	 82.8951
| 17> H 	 -45.5789 	 22.0502 	 82.9208
| 18> H 	 -45.4999 	 23.5636 	 81.9707
| 19> C 	 -43.613 	 22.9527 	 82.9739
| 20> H 	 -43.3493 	 22.6841 	 84.0048
| 21> H 	 -43.3626 	 22.1135 	 82.3868
| 22> H 	 -43.2588 	 23.9147 	 82.6315
| 23> S 	 -44.8879 	 30.0369 	 82.1283
| 24> C 	 -44.3345 	 30.4235 	 80.4946
| 25> C 	 -43.9914 	 29.2756 	 79.7896
| 26> C 	 -44.229 	 28.0936 	 80.5804
| 27> C 	 -44.6304 	 28.3005 	 81.8678
| 28> H 	 -43.7709 	 29.3168 	 78.7675
| 29> C 	 -44.0248 	 26.675 	 80.0665
| 30> H 	 -44.963 	 26.3412 	 79.8089
| 31> H 	 -43.6307 	 25.8987 	 80.8255
| 32> C 	 -43.1498 	 26.3888 	 78.8231
| 33> H 	 -42.1773 	 26.8249 	 78.9282
| 34> H 	 -43.5634 	 26.7605 	 77.9075
| 35> C 	 -42.9886 	 24.847 	 78.6708
| 36> H 	 -42.9021 	 24.5147 	 77.644
| 37> H 	 -43.8592 	 24.3033 	 79.0927
| 38> H 	 -42.1091 	 24.431 	 79.1754
| 39> H 	 -44.7546 	 25.6243 	 85.9776
| 40> H 	 -44.2826 	 31.421 	 80.0878
| 41> *
| 42>
| 43>                          ****END OF INPUT****

CARTESIAN COORDINATES (ANGSTROEM)
---------------------------------
  S    -44.305900   27.644900   84.606300
  C    -44.887500   26.047200   85.030800
  C    -45.492900   25.354700   84.016500
  C    -45.519000   26.140600   82.830900
  C    -44.900900   27.364900   82.997200
  H    -45.878000   25.884200   81.851300
  C    -45.723600   23.844900   84.089600
  H    -46.824600   23.700400   84.005000
  H    -45.439600   23.342800   84.984000
  C    -45.165200   23.052300   82.895100
  H    -45.578900   22.050200   82.920800
  H    -45.499900   23.563600   81.970700
  C    -43.613000   22.952700   82.973900
  H    -43.349300   22.684100   84.004800
  H    -43.362600   22.113500   82.386800
  H    -43.258800   23.914700   82.631500
  S    -44.887900   30.036900   82.128300
  C    -44.334500   30.423500   80.494600
  C    -43.991400   29.275600   79.789600
  C    -44.229000   28.093600   80.580400
  C    -44.630400   28.300500   81.867800
  H    -43.770900   29.316800   78.767500
  C    -44.024800   26.675000   80.066500
  H    -44.963000   26.341200   79.808900
  H    -43.630700   25.898700   80.825500
  C    -43.149800   26.388800   78.823100
  H    -42.177300   26.824900   78.928200
  H    -43.563400   26.760500   77.907500
  C    -42.988600   24.847000   78.670800
  H    -42.902100   24.514700   77.644000
  H    -43.859200   24.303300   79.092700
  H    -42.109100   24.431000   79.175400
  H    -44.754600   25.624300   85.977600
  H    -44.282600   31.421000   80.087800

 Total Charge           Charge          ....    0
 Multiplicity           Mult            ....    1
 Number of Electrons    NEL             ....  134
 Basis Dimension        Dim             ....  322

ORBITAL ENERGIES
----------------

  NO   OCC          E(Eh)            E(eV)
   0   2.0000     -88.970572     -2421.0123
   1   2.0000     -88.963154     -2420.8105
   2   2.0000     -10.331223      -281.1269
   3   2.0000     -10.326368      -280.9948
   4   2.0000     -10.321666      -280.8668
   5   2.0000     -10.307854      -280.4910
   6   2.0000     -10.304239      -280.3926
   7   2.0000     -10.301724      -280.3242
   8   2.0000     -10.295509      -280.1550
   9   2.0000     -10.294698      -280.1330
  10   2.0000     -10.292954      -280.0855
  11   2.0000     -10.291845      -280.0554
  12   2.0000     -10.288290      -279.9586
  13   2.0000     -10.285600      -279.8854
  14   2.0000     -10.280962      -279.7592
  15   2.0000     -10.273911      -279.5673
  16   2.0000      -8.085363      -220.0139
  17   2.0000      -8.077420      -219.7978
  18   2.0000      -6.043763      -164.4592
  19   2.0000      -6.040026      -164.3575
  20   2.0000      -6.036084      -164.2502
  21   2.0000      -6.036001      -164.2479
  22   2.0000      -6.031982      -164.1386
  23   2.0000      -6.028153      -164.0344
  24   2.0000      -1.006743       -27.3949
  25   2.0000      -0.983866       -26.7724
  26   2.0000      -0.912732       -24.8367
  27   2.0000      -0.907307       -24.6891
  28   2.0000      -0.868021       -23.6200
  29   2.0000      -0.853144       -23.2152
  30   2.0000      -0.843703       -22.9583
  31   2.0000      -0.816691       -22.2233
  32   2.0000      -0.784159       -21.3380
  33   2.0000      -0.772091       -21.0097
  34   2.0000      -0.710368       -19.3301
  35   2.0000      -0.702066       -19.1042
  36   2.0000      -0.688758       -18.7421
  37   2.0000      -0.659071       -17.9342
  38   2.0000      -0.644482       -17.5373
  39   2.0000      -0.627670       -17.0798
  40   2.0000      -0.600243       -16.3335
  41   2.0000      -0.573588       -15.6081
  42   2.0000      -0.570343       -15.5198
  43   2.0000      -0.555334       -15.1114
  44   2.0000      -0.542696       -14.7675
  45   2.0000      -0.522226       -14.2105
  46   2.0000      -0.517004       -14.0684
  47   2.0000      -0.511704       -13.9242
  48   2.0000      -0.500567       -13.6211
  49   2.0000      -0.493670       -13.4334
  50   2.0000      -0.484871       -13.1940
  51   2.0000      -0.481512       -13.1026
  52   2.0000      -0.472330       -12.8528
  53   2.0000      -0.468755       -12.7555
  54   2.0000      -0.458506       -12.4766
  55   2.0000      -0.454764       -12.3748
  56   2.0000      -0.452981       -12.3262
  57   2.0000      -0.436545       -11.8790
  58   2.0000      -0.429921       -11.6987
  59   2.0000      -0.427938       -11.6448
  60   2.0000      -0.426824       -11.6145
  61   2.0000      -0.417370       -11.3572
  62   2.0000      -0.413110       -11.2413
  63   2.0000      -0.347775        -9.4634
  64   2.0000      -0.333741        -9.0815
  65   2.0000      -0.329999        -8.9797
  66   2.0000      -0.292588        -7.9617
  67   0.0000       0.031424         0.8551
  68   0.0000       0.072679         1.9777
  69   0.0000       0.107259         2.9187
  70   0.0000       0.119014         3.2385
  71   0.0000       0.124551         3.3892

MULLIKEN ATOMIC CHARGES
-----------------------
   0 S :    0.127312
   1 C :   -0.108948
   2 C :   -0.032256
   3 C :   -0.008388
   4 C :   -0.126640
   5 H :    0.004283
   6 C :    0.069861
   7 H :    0.033325
   8 H :    0.013350
   9 C :   -0.124007
  10 H :    0.027588
  11 H :    0.029470
  12 C :   -0.010695
  13 H :    0.022971
  14 H :    0.025964
  15 H :    0.051128
  16 S :    0.086794
  17 C :   -0.083651
  18 C :   -0.011397
  19 C :   -0.010300
  20 C :   -0.156827
  21 H :    0.004858
  22 C :   -0.033220
  23 H :    0.023156
  24 H :    0.066990
  25 C :   -0.029919
  26 H :    0.029212
  27 H :    0.022642
  28 C :   -0.075899
  29 H :    0.028557
  30 H :    0.027192
  31 H :    0.039480
  32 H :    0.020140
  33 H :    0.057872
Sum of atomic charges:   -0.0000000

LOEWDIN ATOMIC CHARGES
----------------------
   0 S :    0.411529
   1 C :   -0.183595
   2 C :   -0.060592
   3 C :   -0.059370
   4 C :   -0.189762
   5 H :    0.027973
   6 C :   -0.028552
   7 H :    0.035769
   8 H :    0.021741
   9 C :   -0.038384
  10 H :    0.021429
  11 H :    0.020894
  12 C :   -0.055429
  13 H :    0.025701
  14 H :    0.020076
  15 H :    0.026420
  16 S :    0.380279
  17 C :   -0.168876
  18 C :   -0.066275
  19 C :   -0.057049
  20 C :   -0.189525
  21 H :    0.025052
  22 C :   -0.037899
  23 H :    0.017941
  24 H :    0.044924
  25 C :   -0.035423
  26 H :    0.021882
  27 H :    0.017535
  28 C :   -0.068601
  29 H :    0.024240
  30 H :    0.025055
  31 H :    0.027778
  32 H :    0.013911
  33 H :    0.029204

  Mayer bond orders larger than 0.100000
B(  0-S ,  1-C ) :   1.1324 B(  0-S ,  4-C ) :   1.1571 B(  1-C ,  2-C ) :   1.6300
B(  1-C , 32-H ) :   0.9718 B(  2-C ,  3-C ) :   1.2088 B(  2-C ,  6-C ) :   1.0193
B(  3-C ,  4-C ) :   1.5831 B(  3-C ,  5-H ) :   0.9980 B(  4-C , 20-C ) :   1.0263
B(  6-C ,  7-H ) :   0.9275 B(  6-C ,  8-H ) :   0.9523 B(  6-C ,  9-C ) :   1.0860
B(  9-C , 10-H ) :   0.9553 B(  9-C , 11-H ) :   0.9531 B(  9-C , 12-C ) :   1.0648
B( 12-C , 13-H ) :   0.9741 B( 12-C , 14-H ) :   0.9762 B( 12-C , 15-H ) :   0.9767
B( 16-S , 17-C ) :   1.1590 B( 16-S , 20-C ) :   1.1166 B( 17-C , 18-C ) :   1.6042
B( 17-C , 33-H ) :   0.9663 B( 18-C , 19-C ) :   1.2327 B( 18-C , 21-H ) :   0.9988
B( 19-C , 20-C ) :   1.6376 B( 19-C , 22-C ) :   1.0152 B( 22-C , 23-H ) :   0.9171
B( 22-C , 24-H ) :   0.9459 B( 22-C , 25-C ) :   1.0760 B( 25-C , 26-H ) :   0.9585
B( 25-C , 27-H ) :   0.9505 B( 25-C , 28-C ) :   1.0732 B( 28-C , 29-H ) :   0.9753
B( 28-C , 30-H ) :   0.9763 B( 28-C , 31-H ) :   0.9755

Dispersion correction           -0.015305082
FINAL SINGLE POINT ENERGY     -1339.877090977076

DIPOLE MOMENT
-------------
                                X             Y             Z
Electronic contribution:     -5.13069      28.90109      14.52183
Nuclear contribution   :      5.18565     -29.57613     -14.99361
                        -----------------------------------------
Total Dipole Moment    :      0.05496      -0.67505      -0.47178
                        -----------------------------------------
Magnitude (a.u.)       :      0.82540
Magnitude (Debye)      :      2.09801

Rotational constants in cm-1:     0.016539     0.010960     0.007061
Rotational constants in MHz :   495.829993   328.567176   211.686280

                             ****ORCA TERMINATED NORMALLY****
TOTAL RUN TIME: 0 days 0 hours 0 minutes 32 seconds 80 msec
