                         Program Version 4.2.1 -  RELEASE  -
|  1> ! wB97X-D3 SP def2-SVP
|  2> %pal
|  3> nprocs 16
|  4> end
|  5>
|  6> * xyz 0 1
|  7> S 	 -3.34279 	 -10.2605 	 69.297
|  8> C 	 -4.21554 	 -11.2516 	 68.1007
|  9> C 	 -4.4955 	 -10.4735 	 66.9898
| 10> C 	 -4.19759 	 -9.07019 	 67.169
| 11> C 	 -3.50204 	 -8.7932 	 68.2729
| 12> H 	 -4.51273 	 -8.37085 	 66.4586
| 13> C 	 -5.07731 	 -10.9304 	 65.7011
| 14> H 	 -4.60934 	 -10.368 	 64.9122
| 15> H 	 -6.11151 	 -10.7221 	 65.7439
| 16> C 	 -4.69116 	 -12.3803 	 65.3574
| 17> H 	 -3.64525 	 -12.5216 	 65.5308
| 18> H 	 -5.20235 	 -12.9242 	 66.1123
| 19> C 	 -5.03384 	 -12.7172 	 63.9029
| 20> H 	 -6.06905 	 -12.3974 	 63.6548
| 21> H 	 -4.48918 	 -12.1695 	 63.1284
| 22> H 	 -4.96862 	 -13.7482 	 63.8148
| 23> S 	 -4.14032 	 -7.03031 	 70.2542
| 24> C 	 -3.17396 	 -5.60889 	 70.4116
| 25> C 	 -2.41401 	 -5.34478 	 69.3099
| 26> C 	 -2.46995 	 -6.43683 	 68.3799
| 27> C 	 -3.25436 	 -7.45332 	 68.812
| 28> H 	 -1.76889 	 -4.48752 	 69.3214
| 29> C 	 -1.56244 	 -6.53172 	 67.2043
| 30> H 	 -1.59168 	 -7.49292 	 66.8271
| 31> H 	 -0.516249 	 -6.38348 	 67.439
| 32> C 	 -1.88396 	 -5.63887 	 66.0395
| 33> H 	 -1.98653 	 -4.59149 	 66.3736
| 34> H 	 -2.86022 	 -5.98522 	 65.5929
| 35> C 	 -0.780225 	 -5.48833 	 64.9769
| 36> H 	 -0.40828 	 -6.40573 	 64.5324
| 37> H 	 0.0786579 	 -5.01049 	 65.4335
| 38> H 	 -1.02373 	 -4.89272 	 64.1434
| 39> H 	 -4.43514 	 -12.321 	 68.283
| 40> H 	 -3.3159 	 -4.86419 	 71.2157
| 41> *
| 42>
| 43>                          ****END OF INPUT****

CARTESIAN COORDINATES (ANGSTROEM)
---------------------------------
  S     -3.342790  -10.260500   69.297000
  C     -4.215540  -11.251600   68.100700
  C     -4.495500  -10.473500   66.989800
  C     -4.197590   -9.070190   67.169000
  C     -3.502040   -8.793200   68.272900
  H     -4.512730   -8.370850   66.458600
  C     -5.077310  -10.930400   65.701100
  H     -4.609340  -10.368000   64.912200
  H     -6.111510  -10.722100   65.743900
  C     -4.691160  -12.380300   65.357400
  H     -3.645250  -12.521600   65.530800
  H     -5.202350  -12.924200   66.112300
  C     -5.033840  -12.717200   63.902900
  H     -6.069050  -12.397400   63.654800
  H     -4.489180  -12.169500   63.128400
  H     -4.968620  -13.748200   63.814800
  S     -4.140320   -7.030310   70.254200
  C     -3.173960   -5.608890   70.411600
  C     -2.414010   -5.344780   69.309900
  C     -2.469950   -6.436830   68.379900
  C     -3.254360   -7.453320   68.812000
  H     -1.768890   -4.487520   69.321400
  C     -1.562440   -6.531720   67.204300
  H     -1.591680   -7.492920   66.827100
  H     -0.516249   -6.383480   67.439000
  C     -1.883960   -5.638870   66.039500
  H     -1.986530   -4.591490   66.373600
  H     -2.860220   -5.985220   65.592900
  C     -0.780225   -5.488330   64.976900
  H     -0.408280   -6.405730   64.532400
  H      0.078658   -5.010490   65.433500
  H     -1.023730   -4.892720   64.143400
  H     -4.435140  -12.321000   68.283000
  H     -3.315900   -4.864190   71.215700

 Total Charge           Charge          ....    0
 Multiplicity           Mult            ....    1
 Number of Electrons    NEL             ....  134
 Basis Dimension        Dim             ....  322

ORBITAL ENERGIES
----------------

  NO   OCC          E(Eh)            E(eV)
   0   2.0000     -88.961658     -2420.7698
   1   2.0000     -88.960931     -2420.7500
   2   2.0000     -10.327259      -281.0190
   3   2.0000     -10.320451      -280.8338
   4   2.0000     -10.319706      -280.8135
   5   2.0000     -10.313010      -280.6313
   6   2.0000     -10.298650      -280.2405
   7   2.0000     -10.298095      -280.2254
   8   2.0000     -10.289819      -280.0002
   9   2.0000     -10.287929      -279.9488
  10   2.0000     -10.287452      -279.9358
  11   2.0000     -10.282073      -279.7894
  12   2.0000     -10.281649      -279.7779
  13   2.0000     -10.277123      -279.6547
  14   2.0000     -10.276634      -279.6414
  15   2.0000     -10.272306      -279.5237
  16   2.0000      -8.077315      -219.7949
  17   2.0000      -8.074768      -219.7256
  18   2.0000      -6.035736      -164.2407
  19   2.0000      -6.033552      -164.1813
  20   2.0000      -6.031823      -164.1342
  21   2.0000      -6.029452      -164.0697
  22   2.0000      -6.027971      -164.0294
  23   2.0000      -6.025223      -163.9547
  24   2.0000      -1.009642       -27.4738
  25   2.0000      -0.984186       -26.7811
  26   2.0000      -0.917116       -24.9560
  27   2.0000      -0.914509       -24.8851
  28   2.0000      -0.869265       -23.6539
  29   2.0000      -0.853192       -23.2165
  30   2.0000      -0.847670       -23.0663
  31   2.0000      -0.819194       -22.2914
  32   2.0000      -0.785911       -21.3857
  33   2.0000      -0.770857       -20.9761
  34   2.0000      -0.717192       -19.5158
  35   2.0000      -0.698581       -19.0094
  36   2.0000      -0.690967       -18.8022
  37   2.0000      -0.661121       -17.9900
  38   2.0000      -0.642449       -17.4819
  39   2.0000      -0.620038       -16.8721
  40   2.0000      -0.601707       -16.3733
  41   2.0000      -0.580394       -15.7933
  42   2.0000      -0.571499       -15.5513
  43   2.0000      -0.561836       -15.2883
  44   2.0000      -0.530693       -14.4409
  45   2.0000      -0.524270       -14.2661
  46   2.0000      -0.523105       -14.2344
  47   2.0000      -0.513430       -13.9711
  48   2.0000      -0.504951       -13.7404
  49   2.0000      -0.503966       -13.7136
  50   2.0000      -0.496336       -13.5060
  51   2.0000      -0.477363       -12.9897
  52   2.0000      -0.473345       -12.8804
  53   2.0000      -0.464395       -12.6368
  54   2.0000      -0.459894       -12.5144
  55   2.0000      -0.454253       -12.3608
  56   2.0000      -0.449553       -12.2330
  57   2.0000      -0.433511       -11.7964
  58   2.0000      -0.429998       -11.7009
  59   2.0000      -0.425617       -11.5816
  60   2.0000      -0.419789       -11.4230
  61   2.0000      -0.414546       -11.2804
  62   2.0000      -0.409146       -11.1334
  63   2.0000      -0.345124        -9.3913
  64   2.0000      -0.331867        -9.0306
  65   2.0000      -0.320118        -8.7108
  66   2.0000      -0.303809        -8.2671
  67   0.0000       0.037313         1.0153
  68   0.0000       0.070793         1.9264
  69   0.0000       0.113640         3.0923
  70   0.0000       0.121371         3.3027
  71   0.0000       0.132208         3.5976

MULLIKEN ATOMIC CHARGES
-----------------------
   0 S :    0.085404
   1 C :   -0.158080
   2 C :   -0.103946
   3 C :    0.061925
   4 C :   -0.132862
   5 H :   -0.006364
   6 C :    0.075462
   7 H :    0.016682
   8 H :    0.038563
   9 C :   -0.085270
  10 H :    0.031561
  11 H :    0.019989
  12 C :   -0.006132
  13 H :    0.019534
  14 H :    0.034806
  15 H :    0.024934
  16 S :    0.117908
  17 C :   -0.103371
  18 C :   -0.026688
  19 C :   -0.005181
  20 C :   -0.169302
  21 H :    0.015802
  22 C :    0.120131
  23 H :   -0.004000
  24 H :    0.015936
  25 C :   -0.111060
  26 H :    0.027626
  27 H :    0.030976
  28 C :   -0.021625
  29 H :    0.018815
  30 H :    0.020885
  31 H :    0.023867
  32 H :    0.070509
  33 H :    0.062567
Sum of atomic charges:    0.0000000

LOEWDIN ATOMIC CHARGES
----------------------
   0 S :    0.363003
   1 C :   -0.192215
   2 C :   -0.061301
   3 C :   -0.047657
   4 C :   -0.177901
   5 H :    0.024862
   6 C :   -0.030155
   7 H :    0.027243
   8 H :    0.029979
   9 C :   -0.032728
  10 H :    0.024037
  11 H :    0.017021
  12 C :   -0.059493
  13 H :    0.028261
  14 H :    0.028668
  15 H :    0.018430
  16 S :    0.412437
  17 C :   -0.188598
  18 C :   -0.069274
  19 C :   -0.052384
  20 C :   -0.194658
  21 H :    0.031102
  22 C :   -0.029829
  23 H :    0.020655
  24 H :    0.030237
  25 C :   -0.039400
  26 H :    0.024036
  27 H :    0.024598
  28 C :   -0.064497
  29 H :    0.020556
  30 H :    0.024475
  31 H :    0.021708
  32 H :    0.035912
  33 H :    0.032868

  Mayer bond orders larger than 0.100000
B(  0-S ,  1-C ) :   1.1142 B(  0-S ,  4-C ) :   1.1211 B(  1-C ,  2-C ) :   1.6269
B(  1-C , 32-H ) :   0.9682 B(  2-C ,  3-C ) :   1.2202 B(  2-C ,  6-C ) :   1.0135
B(  3-C ,  4-C ) :   1.6110 B(  3-C ,  5-H ) :   1.0050 B(  4-C , 20-C ) :   1.0049
B(  6-C ,  7-H ) :   0.9482 B(  6-C ,  8-H ) :   0.9262 B(  6-C ,  9-C ) :   1.0725
B(  9-C , 10-H ) :   0.9616 B(  9-C , 11-H ) :   0.9480 B(  9-C , 12-C ) :   1.0860
B( 12-C , 13-H ) :   0.9716 B( 12-C , 14-H ) :   0.9730 B( 12-C , 15-H ) :   0.9725
B( 16-S , 17-C ) :   1.1518 B( 16-S , 20-C ) :   1.1396 B( 17-C , 18-C ) :   1.6462
B( 17-C , 33-H ) :   0.9602 B( 18-C , 19-C ) :   1.1947 B( 18-C , 21-H ) :   0.9964
B( 19-C , 20-C ) :   1.6458 B( 19-C , 22-C ) :   1.0591 B( 22-C , 23-H ) :   0.9151
B( 22-C , 24-H ) :   0.9373 B( 22-C , 25-C ) :   1.0580 B( 25-C , 26-H ) :   0.9613
B( 25-C , 27-H ) :   0.9521 B( 25-C , 28-C ) :   1.0816 B( 28-C , 29-H ) :   0.9737
B( 28-C , 30-H ) :   0.9717 B( 28-C , 31-H ) :   0.9740

Dispersion correction           -0.013575543
FINAL SINGLE POINT ENERGY     -1339.872057626321

DIPOLE MOMENT
-------------
                                X             Y             Z
Electronic contribution:     -4.09835       2.47452      28.82203
Nuclear contribution   :      4.08332      -2.38845     -29.45956
                        -----------------------------------------
Total Dipole Moment    :     -0.01503       0.08608      -0.63753
                        -----------------------------------------
Magnitude (a.u.)       :      0.64349
Magnitude (Debye)      :      1.63563

Rotational constants in cm-1:     0.018324     0.008172     0.006095
Rotational constants in MHz :   549.332522   244.988623   182.717359

                             ****ORCA TERMINATED NORMALLY****
TOTAL RUN TIME: 0 days 0 hours 0 minutes 33 seconds 54 msec
