                         Program Version 4.2.1 -  RELEASE  -
|  1> ! wB97X-D3 SP def2-SVP
|  2> %pal
|  3> nprocs 16
|  4> end
|  5>
|  6> * xyz 0 1
|  7> S 	 -19.8004 	 -11.3893 	 88.2498
|  8> C 	 -19.0695 	 -11.4906 	 86.6542
|  9> C 	 -17.8706 	 -10.7927 	 86.6283
| 10> C 	 -17.5172 	 -10.233 	 87.9212
| 11> C 	 -18.501 	 -10.3885 	 88.9101
| 12> H 	 -16.5636 	 -9.71746 	 88.2421
| 13> C 	 -16.9554 	 -10.6677 	 85.4611
| 14> H 	 -17.4977 	 -10.9234 	 84.6427
| 15> H 	 -16.1261 	 -11.3498 	 85.6203
| 16> C 	 -16.4118 	 -9.2848 	 85.1121
| 17> H 	 -17.1812 	 -8.49612 	 84.9182
| 18> H 	 -15.9061 	 -9.01155 	 86.0413
| 19> C 	 -15.3502 	 -9.43458 	 84.0121
| 20> H 	 -15.0309 	 -8.50134 	 83.6104
| 21> H 	 -14.4468 	 -9.93527 	 84.2845
| 22> H 	 -15.7339 	 -10.0955 	 83.1577
| 23> S 	 -18.8607 	 -10.9364 	 91.4276
| 24> C 	 -18.7741 	 -9.73659 	 92.644
| 25> C 	 -18.448 	 -8.50761 	 92.1867
| 26> C 	 -18.3721 	 -8.52623 	 90.7107
| 27> C 	 -18.5569 	 -9.80676 	 90.1676
| 28> H 	 -18.3284 	 -7.70729 	 92.8541
| 29> C 	 -18.0813 	 -7.237 	 89.9505
| 30> H 	 -17.1229 	 -7.35829 	 89.4771
| 31> H 	 -17.8282 	 -6.48219 	 90.7532
| 32> C 	 -19.2249 	 -6.5418 	 89.2149
| 33> H 	 -20.0214 	 -6.39905 	 89.9087
| 34> H 	 -19.6814 	 -7.24818 	 88.429
| 35> C 	 -18.9484 	 -5.13439 	 88.6864
| 36> H 	 -19.79 	 -4.65587 	 88.385
| 37> H 	 -18.2505 	 -5.22691 	 87.8298
| 38> H 	 -18.4222 	 -4.60202 	 89.3889
| 39> H 	 -19.4685 	 -12.1526 	 85.9146
| 40> H 	 -18.903 	 -9.84056 	 93.6822
| 41> *
| 42>
| 43>                          ****END OF INPUT****

CARTESIAN COORDINATES (ANGSTROEM)
---------------------------------
  S    -19.800400  -11.389300   88.249800
  C    -19.069500  -11.490600   86.654200
  C    -17.870600  -10.792700   86.628300
  C    -17.517200  -10.233000   87.921200
  C    -18.501000  -10.388500   88.910100
  H    -16.563600   -9.717460   88.242100
  C    -16.955400  -10.667700   85.461100
  H    -17.497700  -10.923400   84.642700
  H    -16.126100  -11.349800   85.620300
  C    -16.411800   -9.284800   85.112100
  H    -17.181200   -8.496120   84.918200
  H    -15.906100   -9.011550   86.041300
  C    -15.350200   -9.434580   84.012100
  H    -15.030900   -8.501340   83.610400
  H    -14.446800   -9.935270   84.284500
  H    -15.733900  -10.095500   83.157700
  S    -18.860700  -10.936400   91.427600
  C    -18.774100   -9.736590   92.644000
  C    -18.448000   -8.507610   92.186700
  C    -18.372100   -8.526230   90.710700
  C    -18.556900   -9.806760   90.167600
  H    -18.328400   -7.707290   92.854100
  C    -18.081300   -7.237000   89.950500
  H    -17.122900   -7.358290   89.477100
  H    -17.828200   -6.482190   90.753200
  C    -19.224900   -6.541800   89.214900
  H    -20.021400   -6.399050   89.908700
  H    -19.681400   -7.248180   88.429000
  C    -18.948400   -5.134390   88.686400
  H    -19.790000   -4.655870   88.385000
  H    -18.250500   -5.226910   87.829800
  H    -18.422200   -4.602020   89.388900
  H    -19.468500  -12.152600   85.914600
  H    -18.903000   -9.840560   93.682200

 Total Charge           Charge          ....    0
 Multiplicity           Mult            ....    1
 Number of Electrons    NEL             ....  134
 Basis Dimension        Dim             ....  322

ORBITAL ENERGIES
----------------

  NO   OCC          E(Eh)            E(eV)
   0   2.0000     -88.962461     -2420.7916
   1   2.0000     -88.962387     -2420.7896
   2   2.0000     -10.327259      -281.0190
   3   2.0000     -10.320747      -280.8418
   4   2.0000     -10.315621      -280.7023
   5   2.0000     -10.311233      -280.5829
   6   2.0000     -10.307907      -280.4924
   7   2.0000     -10.303767      -280.3798
   8   2.0000     -10.300594      -280.2934
   9   2.0000     -10.292549      -280.0745
  10   2.0000     -10.291048      -280.0337
  11   2.0000     -10.290021      -280.0057
  12   2.0000     -10.285128      -279.8726
  13   2.0000     -10.280178      -279.7379
  14   2.0000     -10.280023      -279.7337
  15   2.0000     -10.264947      -279.3234
  16   2.0000      -8.078755      -219.8341
  17   2.0000      -8.076997      -219.7862
  18   2.0000      -6.037310      -164.2836
  19   2.0000      -6.035592      -164.2368
  20   2.0000      -6.032869      -164.1627
  21   2.0000      -6.031434      -164.1237
  22   2.0000      -6.029519      -164.0716
  23   2.0000      -6.027758      -164.0236
  24   2.0000      -1.011951       -27.5366
  25   2.0000      -0.982101       -26.7243
  26   2.0000      -0.918603       -24.9965
  27   2.0000      -0.907593       -24.6969
  28   2.0000      -0.881208       -23.9789
  29   2.0000      -0.852692       -23.2029
  30   2.0000      -0.843045       -22.9404
  31   2.0000      -0.818621       -22.2758
  32   2.0000      -0.783610       -21.3231
  33   2.0000      -0.772323       -21.0160
  34   2.0000      -0.718015       -19.5382
  35   2.0000      -0.699900       -19.0453
  36   2.0000      -0.692429       -18.8419
  37   2.0000      -0.666866       -18.1464
  38   2.0000      -0.643435       -17.5088
  39   2.0000      -0.619332       -16.8529
  40   2.0000      -0.593637       -16.1537
  41   2.0000      -0.573492       -15.6055
  42   2.0000      -0.569438       -15.4952
  43   2.0000      -0.556541       -15.1443
  44   2.0000      -0.536611       -14.6019
  45   2.0000      -0.525673       -14.3043
  46   2.0000      -0.519916       -14.1476
  47   2.0000      -0.511250       -13.9118
  48   2.0000      -0.507365       -13.8061
  49   2.0000      -0.505273       -13.7492
  50   2.0000      -0.497330       -13.5330
  51   2.0000      -0.489840       -13.3292
  52   2.0000      -0.471396       -12.8273
  53   2.0000      -0.465093       -12.6558
  54   2.0000      -0.455242       -12.3878
  55   2.0000      -0.451085       -12.2746
  56   2.0000      -0.444917       -12.1068
  57   2.0000      -0.442281       -12.0351
  58   2.0000      -0.438154       -11.9228
  59   2.0000      -0.420956       -11.4548
  60   2.0000      -0.414692       -11.2843
  61   2.0000      -0.411679       -11.2024
  62   2.0000      -0.401635       -10.9290
  63   2.0000      -0.348168        -9.4741
  64   2.0000      -0.328808        -8.9473
  65   2.0000      -0.326447        -8.8831
  66   2.0000      -0.292596        -7.9619
  67   0.0000       0.027517         0.7488
  68   0.0000       0.074668         2.0318
  69   0.0000       0.113036         3.0759
  70   0.0000       0.123254         3.3539
  71   0.0000       0.129064         3.5120

MULLIKEN ATOMIC CHARGES
-----------------------
   0 S :    0.101572
   1 C :   -0.116390
   2 C :   -0.087232
   3 C :    0.001727
   4 C :   -0.155338
   5 H :    0.042270
   6 C :    0.105738
   7 H :   -0.012656
   8 H :    0.040894
   9 C :   -0.089244
  10 H :    0.047841
  11 H :    0.019868
  12 C :   -0.038384
  13 H :    0.026773
  14 H :    0.023322
  15 H :    0.029839
  16 S :    0.111075
  17 C :   -0.042181
  18 C :   -0.032085
  19 C :   -0.055901
  20 C :   -0.153824
  21 H :    0.003023
  22 C :    0.062608
  23 H :    0.026683
  24 H :    0.004107
  25 C :   -0.079182
  26 H :    0.014787
  27 H :    0.045895
  28 C :    0.030131
  29 H :    0.018999
  30 H :    0.022815
  31 H :    0.002464
  32 H :    0.048941
  33 H :    0.031046
Sum of atomic charges:   -0.0000000

LOEWDIN ATOMIC CHARGES
----------------------
   0 S :    0.391622
   1 C :   -0.191103
   2 C :   -0.060242
   3 C :   -0.068474
   4 C :   -0.200055
   5 H :    0.040979
   6 C :   -0.028448
   7 H :    0.013876
   8 H :    0.038042
   9 C :   -0.038740
  10 H :    0.032664
  11 H :    0.020219
  12 C :   -0.065952
  13 H :    0.021216
  14 H :    0.022184
  15 H :    0.031212
  16 S :    0.436148
  17 C :   -0.185679
  18 C :   -0.065978
  19 C :   -0.043037
  20 C :   -0.216014
  21 H :    0.025145
  22 C :   -0.040196
  23 H :    0.025777
  24 H :    0.033031
  25 C :   -0.040821
  26 H :    0.020042
  27 H :    0.031820
  28 C :   -0.046053
  29 H :    0.015016
  30 H :    0.029466
  31 H :    0.013192
  32 H :    0.026537
  33 H :    0.022603

  Mayer bond orders larger than 0.100000
B(  0-S ,  1-C ) :   1.1300 B(  0-S ,  4-C ) :   1.1386 B(  1-C ,  2-C ) :   1.6049
B(  1-C ,  4-C ) :   0.1018 B(  1-C , 32-H ) :   0.9747 B(  2-C ,  3-C ) :   1.2185
B(  2-C ,  6-C ) :   1.0326 B(  3-C ,  4-C ) :   1.5747 B(  3-C ,  5-H ) :   0.9819
B(  4-C , 20-C ) :   1.0868 B(  6-C ,  7-H ) :   0.9309 B(  6-C ,  8-H ) :   0.9366
B(  6-C ,  9-C ) :   1.0592 B(  9-C , 10-H ) :   0.9588 B(  9-C , 11-H ) :   0.9528
B(  9-C , 12-C ) :   1.0794 B( 12-C , 13-H ) :   0.9737 B( 12-C , 14-H ) :   0.9734
B( 12-C , 15-H ) :   0.9735 B( 16-S , 17-C ) :   1.1570 B( 16-S , 20-C ) :   1.1398
B( 17-C , 18-C ) :   1.6385 B( 17-C , 33-H ) :   0.9652 B( 18-C , 19-C ) :   1.2247
B( 18-C , 21-H ) :   0.9967 B( 19-C , 20-C ) :   1.5825 B( 19-C , 22-C ) :   1.0440
B( 22-C , 23-H ) :   0.9346 B( 22-C , 24-H ) :   0.9273 B( 22-C , 25-C ) :   1.0588
B( 25-C , 26-H ) :   0.9505 B( 25-C , 27-H ) :   0.9560 B( 25-C , 28-C ) :   1.0866
B( 28-C , 29-H ) :   0.9739 B( 28-C , 30-H ) :   0.9733 B( 28-C , 31-H ) :   0.9700

Dispersion correction           -0.013719291
FINAL SINGLE POINT ENERGY     -1339.857319245356

DIPOLE MOMENT
-------------
                                X             Y             Z
Electronic contribution:    -12.17074     -21.10043      18.90458
Nuclear contribution   :     12.57621      21.58732     -19.05404
                        -----------------------------------------
Total Dipole Moment    :      0.40547       0.48690      -0.14946
                        -----------------------------------------
Magnitude (a.u.)       :      0.65101
Magnitude (Debye)      :      1.65473

Rotational constants in cm-1:     0.016914     0.009036     0.006801
Rotational constants in MHz :   507.067540   270.899478   203.881166

                             ****ORCA TERMINATED NORMALLY****
TOTAL RUN TIME: 0 days 0 hours 0 minutes 34 seconds 16 msec
