                         Program Version 4.2.1 -  RELEASE  -
|  1> ! wB97X-D3 SP def2-SVP
|  2> %pal
|  3> nprocs 16
|  4> end
|  5>
|  6> * xyz 0 1
|  7> S 	 11.6623 	 -5.93906 	 71.9232
|  8> C 	 11.4488 	 -4.32182 	 72.5106
|  9> C 	 12.1177 	 -3.35605 	 71.7214
| 10> C 	 12.8722 	 -4.00876 	 70.688
| 11> C 	 12.7652 	 -5.3535 	 70.7123
| 12> H 	 13.4885 	 -3.5378 	 69.9533
| 13> C 	 11.8496 	 -1.92579 	 71.6653
| 14> H 	 12.7643 	 -1.32874 	 71.6838
| 15> H 	 11.3918 	 -1.63018 	 72.6229
| 16> C 	 10.8545 	 -1.44222 	 70.6566
| 17> H 	 11.1956 	 -1.88132 	 69.6785
| 18> H 	 9.89236 	 -1.86558 	 70.8357
| 19> C 	 10.6939 	 0.11207 	 70.4298
| 20> H 	 11.6534 	 0.490032 	 70.2367
| 21> H 	 10.0203 	 0.477242 	 69.6374
| 22> H 	 10.3147 	 0.605211 	 71.3001
| 23> S 	 14.0174 	 -7.72259 	 70.1547
| 24> C 	 14.2997 	 -8.14907 	 68.4667
| 25> C 	 13.7798 	 -7.22423 	 67.6236
| 26> C 	 13.0593 	 -6.17958 	 68.2614
| 27> C 	 13.1454 	 -6.26234 	 69.6497
| 28> H 	 13.9478 	 -7.38949 	 66.5488
| 29> C 	 12.386 	 -5.11166 	 67.4871
| 30> H 	 12.7686 	 -4.94236 	 66.4648
| 31> H 	 12.7026 	 -4.19072 	 68.0693
| 32> C 	 10.8354 	 -5.28637 	 67.4472
| 33> H 	 10.4719 	 -5.6997 	 68.3765
| 34> H 	 10.617 	 -6.0152 	 66.7315
| 35> C 	 10.1283 	 -3.99743 	 67.1124
| 36> H 	 9.11349 	 -4.18369 	 66.942
| 37> H 	 10.5224 	 -3.59605 	 66.1922
| 38> H 	 10.2027 	 -3.20827 	 67.878
| 39> H 	 10.7194 	 -4.09392 	 73.2636
| 40> H 	 14.9301 	 -8.93816 	 68.1032
| 41> *
| 42>
| 43>                          ****END OF INPUT****

CARTESIAN COORDINATES (ANGSTROEM)
---------------------------------
  S     11.662300   -5.939060   71.923200
  C     11.448800   -4.321820   72.510600
  C     12.117700   -3.356050   71.721400
  C     12.872200   -4.008760   70.688000
  C     12.765200   -5.353500   70.712300
  H     13.488500   -3.537800   69.953300
  C     11.849600   -1.925790   71.665300
  H     12.764300   -1.328740   71.683800
  H     11.391800   -1.630180   72.622900
  C     10.854500   -1.442220   70.656600
  H     11.195600   -1.881320   69.678500
  H      9.892360   -1.865580   70.835700
  C     10.693900    0.112070   70.429800
  H     11.653400    0.490032   70.236700
  H     10.020300    0.477242   69.637400
  H     10.314700    0.605211   71.300100
  S     14.017400   -7.722590   70.154700
  C     14.299700   -8.149070   68.466700
  C     13.779800   -7.224230   67.623600
  C     13.059300   -6.179580   68.261400
  C     13.145400   -6.262340   69.649700
  H     13.947800   -7.389490   66.548800
  C     12.386000   -5.111660   67.487100
  H     12.768600   -4.942360   66.464800
  H     12.702600   -4.190720   68.069300
  C     10.835400   -5.286370   67.447200
  H     10.471900   -5.699700   68.376500
  H     10.617000   -6.015200   66.731500
  C     10.128300   -3.997430   67.112400
  H      9.113490   -4.183690   66.942000
  H     10.522400   -3.596050   66.192200
  H     10.202700   -3.208270   67.878000
  H     10.719400   -4.093920   73.263600
  H     14.930100   -8.938160   68.103200

 Total Charge           Charge          ....    0
 Multiplicity           Mult            ....    1
 Number of Electrons    NEL             ....  134
 Basis Dimension        Dim             ....  322

ORBITAL ENERGIES
----------------

  NO   OCC          E(Eh)            E(eV)
   0   2.0000     -88.968253     -2420.9493
   1   2.0000     -88.962465     -2420.7918
   2   2.0000     -10.324388      -280.9409
   3   2.0000     -10.322911      -280.9007
   4   2.0000     -10.317064      -280.7416
   5   2.0000     -10.311669      -280.5948
   6   2.0000     -10.303983      -280.3856
   7   2.0000     -10.301174      -280.3092
   8   2.0000     -10.292916      -280.0845
   9   2.0000     -10.291004      -280.0324
  10   2.0000     -10.290609      -280.0217
  11   2.0000     -10.289254      -279.9848
  12   2.0000     -10.289125      -279.9813
  13   2.0000     -10.278960      -279.7047
  14   2.0000     -10.277286      -279.6592
  15   2.0000     -10.268533      -279.4210
  16   2.0000      -8.083543      -219.9644
  17   2.0000      -8.076825      -219.7816
  18   2.0000      -6.041860      -164.4074
  19   2.0000      -6.038079      -164.3045
  20   2.0000      -6.035339      -164.2299
  21   2.0000      -6.034356      -164.2032
  22   2.0000      -6.031414      -164.1231
  23   2.0000      -6.027582      -164.0189
  24   2.0000      -1.010175       -27.4883
  25   2.0000      -0.984564       -26.7913
  26   2.0000      -0.919432       -25.0190
  27   2.0000      -0.908939       -24.7335
  28   2.0000      -0.869961       -23.6728
  29   2.0000      -0.856293       -23.3009
  30   2.0000      -0.849486       -23.1157
  31   2.0000      -0.819061       -22.2878
  32   2.0000      -0.785006       -21.3611
  33   2.0000      -0.768773       -20.9194
  34   2.0000      -0.711999       -19.3745
  35   2.0000      -0.703845       -19.1526
  36   2.0000      -0.694743       -18.9049
  37   2.0000      -0.661578       -18.0025
  38   2.0000      -0.648038       -17.6340
  39   2.0000      -0.626931       -17.0597
  40   2.0000      -0.593529       -16.1508
  41   2.0000      -0.573313       -15.6006
  42   2.0000      -0.563823       -15.3424
  43   2.0000      -0.556882       -15.1535
  44   2.0000      -0.525891       -14.3102
  45   2.0000      -0.524323       -14.2676
  46   2.0000      -0.520801       -14.1717
  47   2.0000      -0.512162       -13.9366
  48   2.0000      -0.509153       -13.8548
  49   2.0000      -0.497519       -13.5382
  50   2.0000      -0.494904       -13.4670
  51   2.0000      -0.487664       -13.2700
  52   2.0000      -0.475868       -12.9490
  53   2.0000      -0.464750       -12.6465
  54   2.0000      -0.460849       -12.5403
  55   2.0000      -0.452259       -12.3066
  56   2.0000      -0.445628       -12.1261
  57   2.0000      -0.437137       -11.8951
  58   2.0000      -0.435794       -11.8586
  59   2.0000      -0.427517       -11.6333
  60   2.0000      -0.423438       -11.5223
  61   2.0000      -0.415836       -11.3155
  62   2.0000      -0.406015       -11.0482
  63   2.0000      -0.347394        -9.4531
  64   2.0000      -0.333266        -9.0686
  65   2.0000      -0.328241        -8.9319
  66   2.0000      -0.290312        -7.8998
  67   0.0000       0.031553         0.8586
  68   0.0000       0.065277         1.7763
  69   0.0000       0.106889         2.9086
  70   0.0000       0.111197         3.0258
  71   0.0000       0.132834         3.6146

MULLIKEN ATOMIC CHARGES
-----------------------
   0 S :    0.118482
   1 C :   -0.107817
   2 C :   -0.077540
   3 C :   -0.005056
   4 C :   -0.102147
   5 H :    0.019121
   6 C :    0.070290
   7 H :    0.024071
   8 H :    0.006879
   9 C :   -0.082997
  10 H :    0.031491
  11 H :    0.022281
  12 C :   -0.024731
  13 H :    0.016555
  14 H :    0.041150
  15 H :    0.021923
  16 S :    0.094518
  17 C :   -0.076057
  18 C :   -0.056038
  19 C :   -0.017324
  20 C :   -0.176461
  21 H :    0.024345
  22 C :    0.039768
  23 H :    0.024916
  24 H :    0.014108
  25 C :   -0.027464
  26 H :    0.027629
  27 H :    0.011796
  28 C :   -0.012880
  29 H :    0.017144
  30 H :    0.014347
  31 H :    0.033266
  32 H :    0.044574
  33 H :    0.047858
Sum of atomic charges:   -0.0000000

LOEWDIN ATOMIC CHARGES
----------------------
   0 S :    0.421635
   1 C :   -0.193889
   2 C :   -0.058612
   3 C :   -0.054875
   4 C :   -0.198817
   5 H :    0.030300
   6 C :   -0.044177
   7 H :    0.031880
   8 H :    0.031293
   9 C :   -0.034968
  10 H :    0.022159
  11 H :    0.019452
  12 C :   -0.060559
  13 H :    0.016998
  14 H :    0.033641
  15 H :    0.020348
  16 S :    0.384853
  17 C :   -0.178366
  18 C :   -0.076236
  19 C :   -0.056770
  20 C :   -0.195099
  21 H :    0.036855
  22 C :   -0.036149
  23 H :    0.030717
  24 H :    0.033898
  25 C :   -0.027319
  26 H :    0.024328
  27 H :    0.018079
  28 C :   -0.057984
  29 H :    0.019056
  30 H :    0.021431
  31 H :    0.026311
  32 H :    0.022538
  33 H :    0.028048

  Mayer bond orders larger than 0.100000
B(  0-S ,  1-C ) :   1.1528 B(  0-S ,  4-C ) :   1.1542 B(  1-C ,  2-C ) :   1.5930
B(  1-C , 32-H ) :   0.9704 B(  2-C ,  3-C ) :   1.2185 B(  2-C ,  6-C ) :   1.0661
B(  3-C ,  4-C ) :   1.6026 B(  3-C ,  5-H ) :   1.0004 B(  4-C , 20-C ) :   1.0093
B(  6-C ,  7-H ) :   0.9273 B(  6-C ,  8-H ) :   0.9255 B(  6-C ,  9-C ) :   1.0566
B(  9-C , 10-H ) :   0.9515 B(  9-C , 11-H ) :   0.9567 B(  9-C , 12-C ) :   1.0705
B( 12-C , 13-H ) :   0.9754 B( 12-C , 14-H ) :   0.9764 B( 12-C , 15-H ) :   0.9771
B( 16-S , 17-C ) :   1.1383 B( 16-S , 20-C ) :   1.1339 B( 17-C , 18-C ) :   1.6443
B( 17-C , 33-H ) :   0.9653 B( 18-C , 19-C ) :   1.2270 B( 18-C , 21-H ) :   0.9870
B( 19-C , 20-C ) :   1.5996 B( 19-C , 22-C ) :   1.0409 B( 22-C , 23-H ) :   0.9322
B( 22-C , 24-H ) :   0.9375 B( 22-C , 25-C ) :   1.0505 B( 25-C , 26-H ) :   0.9595
B( 25-C , 27-H ) :   0.9493 B( 25-C , 28-C ) :   1.0914 B( 28-C , 29-H ) :   0.9681
B( 28-C , 30-H ) :   0.9684 B( 28-C , 31-H ) :   0.9743

Dispersion correction           -0.015449580
FINAL SINGLE POINT ENERGY     -1339.879191343107

DIPOLE MOMENT
-------------
                                X             Y             Z
Electronic contribution:     13.29851     -26.68245      13.01038
Nuclear contribution   :    -13.55269      27.25147     -13.51857
                        -----------------------------------------
Total Dipole Moment    :     -0.25418       0.56902      -0.50820
                        -----------------------------------------
Magnitude (a.u.)       :      0.80415
Magnitude (Debye)      :      2.04398

Rotational constants in cm-1:     0.019943     0.009480     0.007271
Rotational constants in MHz :   597.890041   284.193298   217.969894

                             ****ORCA TERMINATED NORMALLY****
TOTAL RUN TIME: 0 days 0 hours 0 minutes 37 seconds 527 msec
