                         Program Version 4.2.1 -  RELEASE  -
|  1> ! wB97X-D3 SP def2-SVP
|  2> %pal
|  3> nprocs 16
|  4> end
|  5>
|  6> * xyz 0 1
|  7> S 	 -2.32264 	 -18.2038 	 91.5234
|  8> C 	 -2.48355 	 -16.7785 	 90.4624
|  9> C 	 -1.36321 	 -16.543 	 89.7263
| 10> C 	 -0.453038 	 -17.6308 	 89.7914
| 11> C 	 -0.885575 	 -18.6923 	 90.5747
| 12> H 	 0.48405 	 -17.7291 	 89.1962
| 13> C 	 -0.94167 	 -15.299 	 88.935
| 14> H 	 0.0211337 	 -15.0746 	 89.369
| 15> H 	 -1.52651 	 -14.444 	 89.2707
| 16> C 	 -0.975993 	 -15.3883 	 87.4664
| 17> H 	 -0.702242 	 -16.3462 	 87.1701
| 18> H 	 -2.00578 	 -15.3812 	 87.1932
| 19> C 	 -0.184004 	 -14.306 	 86.7609
| 20> H 	 -0.520246 	 -13.2701 	 86.9133
| 21> H 	 0.858656 	 -14.4137 	 86.9485
| 22> H 	 -0.45244 	 -14.5533 	 85.7407
| 23> S 	 0.261868 	 -20.4169 	 92.399
| 24> C 	 0.850972 	 -21.9407 	 91.8489
| 25> C 	 0.819556 	 -22.0711 	 90.4814
| 26> C 	 0.203121 	 -20.9152 	 89.8044
| 27> C 	 -0.26587 	 -19.9623 	 90.7287
| 28> H 	 1.08362 	 -23.0216 	 90.158
| 29> C 	 -0.00423117 	 -20.9521 	 88.3327
| 30> H 	 -0.883936 	 -20.2949 	 88.1139
| 31> H 	 -0.427831 	 -21.9042 	 88.0109
| 32> C 	 1.20681 	 -20.6439 	 87.5235
| 33> H 	 2.04563 	 -21.3346 	 87.7368
| 34> H 	 1.50238 	 -19.6358 	 87.7504
| 35> C 	 0.883981 	 -20.8068 	 86.0043
| 36> H 	 0.0772365 	 -20.074 	 85.6713
| 37> H 	 0.675383 	 -21.7785 	 85.5995
| 38> H 	 1.73824 	 -20.3396 	 85.3995
| 39> H 	 -3.40921 	 -16.1035 	 90.4108
| 40> H 	 1.23731 	 -22.7381 	 92.554
| 41> *
| 42>
| 43>                          ****END OF INPUT****

CARTESIAN COORDINATES (ANGSTROEM)
---------------------------------
  S     -2.322640  -18.203800   91.523400
  C     -2.483550  -16.778500   90.462400
  C     -1.363210  -16.543000   89.726300
  C     -0.453038  -17.630800   89.791400
  C     -0.885575  -18.692300   90.574700
  H      0.484050  -17.729100   89.196200
  C     -0.941670  -15.299000   88.935000
  H      0.021134  -15.074600   89.369000
  H     -1.526510  -14.444000   89.270700
  C     -0.975993  -15.388300   87.466400
  H     -0.702242  -16.346200   87.170100
  H     -2.005780  -15.381200   87.193200
  C     -0.184004  -14.306000   86.760900
  H     -0.520246  -13.270100   86.913300
  H      0.858656  -14.413700   86.948500
  H     -0.452440  -14.553300   85.740700
  S      0.261868  -20.416900   92.399000
  C      0.850972  -21.940700   91.848900
  C      0.819556  -22.071100   90.481400
  C      0.203121  -20.915200   89.804400
  C     -0.265870  -19.962300   90.728700
  H      1.083620  -23.021600   90.158000
  C     -0.004231  -20.952100   88.332700
  H     -0.883936  -20.294900   88.113900
  H     -0.427831  -21.904200   88.010900
  C      1.206810  -20.643900   87.523500
  H      2.045630  -21.334600   87.736800
  H      1.502380  -19.635800   87.750400
  C      0.883981  -20.806800   86.004300
  H      0.077236  -20.074000   85.671300
  H      0.675383  -21.778500   85.599500
  H      1.738240  -20.339600   85.399500
  H     -3.409210  -16.103500   90.410800
  H      1.237310  -22.738100   92.554000

 Total Charge           Charge          ....    0
 Multiplicity           Mult            ....    1
 Number of Electrons    NEL             ....  134
 Basis Dimension        Dim             ....  322

ORBITAL ENERGIES
----------------

  NO   OCC          E(Eh)            E(eV)
   0   2.0000     -88.965785     -2420.8821
   1   2.0000     -88.960123     -2420.7280
   2   2.0000     -10.329736      -281.0864
   3   2.0000     -10.329463      -281.0790
   4   2.0000     -10.321204      -280.8542
   5   2.0000     -10.318420      -280.7785
   6   2.0000     -10.310529      -280.5638
   7   2.0000     -10.299189      -280.2552
   8   2.0000     -10.297399      -280.2065
   9   2.0000     -10.289894      -280.0023
  10   2.0000     -10.289839      -280.0007
  11   2.0000     -10.288493      -279.9641
  12   2.0000     -10.287618      -279.9403
  13   2.0000     -10.286435      -279.9081
  14   2.0000     -10.278277      -279.6861
  15   2.0000     -10.275422      -279.6084
  16   2.0000      -8.079604      -219.8572
  17   2.0000      -8.074923      -219.7298
  18   2.0000      -6.038240      -164.3089
  19   2.0000      -6.034530      -164.2079
  20   2.0000      -6.033476      -164.1792
  21   2.0000      -6.029981      -164.0841
  22   2.0000      -6.029461      -164.0700
  23   2.0000      -6.025592      -163.9647
  24   2.0000      -1.000919       -27.2364
  25   2.0000      -0.978273       -26.6202
  26   2.0000      -0.922385       -25.0994
  27   2.0000      -0.914480       -24.8843
  28   2.0000      -0.873629       -23.7727
  29   2.0000      -0.849912       -23.1273
  30   2.0000      -0.842940       -22.9376
  31   2.0000      -0.811005       -22.0686
  32   2.0000      -0.785874       -21.3847
  33   2.0000      -0.770216       -20.9587
  34   2.0000      -0.711849       -19.3704
  35   2.0000      -0.706445       -19.2233
  36   2.0000      -0.694399       -18.8956
  37   2.0000      -0.656640       -17.8681
  38   2.0000      -0.634761       -17.2727
  39   2.0000      -0.620746       -16.8914
  40   2.0000      -0.595118       -16.1940
  41   2.0000      -0.571838       -15.5605
  42   2.0000      -0.569742       -15.5035
  43   2.0000      -0.559465       -15.2238
  44   2.0000      -0.536628       -14.6024
  45   2.0000      -0.524004       -14.2589
  46   2.0000      -0.518716       -14.1150
  47   2.0000      -0.508545       -13.8382
  48   2.0000      -0.505742       -13.7619
  49   2.0000      -0.498604       -13.5677
  50   2.0000      -0.493813       -13.4373
  51   2.0000      -0.477667       -12.9980
  52   2.0000      -0.469799       -12.7839
  53   2.0000      -0.464332       -12.6351
  54   2.0000      -0.458649       -12.4805
  55   2.0000      -0.451428       -12.2840
  56   2.0000      -0.446987       -12.1631
  57   2.0000      -0.438420       -11.9300
  58   2.0000      -0.431819       -11.7504
  59   2.0000      -0.422149       -11.4873
  60   2.0000      -0.416817       -11.3422
  61   2.0000      -0.414375       -11.2757
  62   2.0000      -0.413221       -11.2443
  63   2.0000      -0.344732        -9.3806
  64   2.0000      -0.332309        -9.0426
  65   2.0000      -0.326133        -8.8745
  66   2.0000      -0.289962        -7.8903
  67   0.0000       0.025920         0.7053
  68   0.0000       0.064518         1.7556
  69   0.0000       0.105589         2.8732
  70   0.0000       0.117729         3.2036
  71   0.0000       0.122320         3.3285

MULLIKEN ATOMIC CHARGES
-----------------------
   0 S :    0.104531
   1 C :   -0.157361
   2 C :   -0.082260
   3 C :    0.018350
   4 C :   -0.164175
   5 H :    0.028356
   6 C :    0.075259
   7 H :    0.021801
   8 H :    0.007518
   9 C :   -0.022100
  10 H :   -0.001770
  11 H :    0.009636
  12 C :   -0.022968
  13 H :    0.037332
  14 H :    0.034908
  15 H :    0.029740
  16 S :    0.086181
  17 C :   -0.116859
  18 C :   -0.010239
  19 C :   -0.006738
  20 C :   -0.144623
  21 H :   -0.005210
  22 C :    0.037852
  23 H :    0.029655
  24 H :    0.018930
  25 C :   -0.040585
  26 H :    0.039788
  27 H :    0.018737
  28 C :   -0.087914
  29 H :    0.031245
  30 H :    0.044882
  31 H :    0.035454
  32 H :    0.072334
  33 H :    0.080311
Sum of atomic charges:   -0.0000000

LOEWDIN ATOMIC CHARGES
----------------------
   0 S :    0.370572
   1 C :   -0.192755
   2 C :   -0.069242
   3 C :   -0.057406
   4 C :   -0.185560
   5 H :    0.037277
   6 C :   -0.029887
   7 H :    0.030604
   8 H :    0.027118
   9 C :   -0.038953
  10 H :    0.014768
  11 H :    0.024697
  12 C :   -0.055526
  13 H :    0.028645
  14 H :    0.022410
  15 H :    0.031501
  16 S :    0.378692
  17 C :   -0.193474
  18 C :   -0.071316
  19 C :   -0.043705
  20 C :   -0.183277
  21 H :    0.021163
  22 C :   -0.044888
  23 H :    0.036600
  24 H :    0.030453
  25 C :   -0.034413
  26 H :    0.030225
  27 H :    0.020831
  28 C :   -0.077230
  29 H :    0.030006
  30 H :    0.021368
  31 H :    0.032893
  32 H :    0.044815
  33 H :    0.042995

  Mayer bond orders larger than 0.100000
B(  0-S ,  1-C ) :   1.1189 B(  0-S ,  4-C ) :   1.1189 B(  1-C ,  2-C ) :   1.6571
B(  1-C , 32-H ) :   0.9553 B(  2-C ,  3-C ) :   1.2100 B(  2-C ,  6-C ) :   1.0055
B(  3-C ,  4-C ) :   1.5914 B(  3-C ,  5-H ) :   0.9874 B(  4-C , 20-C ) :   1.0761
B(  6-C ,  7-H ) :   0.9430 B(  6-C ,  8-H ) :   0.9344 B(  6-C ,  9-C ) :   1.0666
B(  9-C , 10-H ) :   0.9542 B(  9-C , 11-H ) :   0.9425 B(  9-C , 12-C ) :   1.0787
B( 12-C , 13-H ) :   0.9747 B( 12-C , 14-H ) :   0.9763 B( 12-C , 15-H ) :   0.9731
B( 16-S , 17-C ) :   1.1470 B( 16-S , 20-C ) :   1.1146 B( 17-C , 18-C ) :   1.6536
B( 17-C , 33-H ) :   0.9550 B( 18-C , 19-C ) :   1.1741 B( 18-C , 21-H ) :   0.9997
B( 19-C , 20-C ) :   1.6169 B( 19-C , 22-C ) :   1.0574 B( 22-C , 23-H ) :   0.9307
B( 22-C , 24-H ) :   0.9377 B( 22-C , 25-C ) :   1.0620 B( 25-C , 26-H ) :   0.9550
B( 25-C , 27-H ) :   0.9492 B( 25-C , 28-C ) :   1.0799 B( 28-C , 29-H ) :   0.9722
B( 28-C , 30-H ) :   0.9775 B( 28-C , 31-H ) :   0.9741

Dispersion correction           -0.013980842
FINAL SINGLE POINT ENERGY     -1339.861753080883

DIPOLE MOMENT
-------------
                                X             Y             Z
Electronic contribution:     -7.03488      -9.75591      30.51981
Nuclear contribution   :      7.22173       9.87573     -31.26036
                        -----------------------------------------
Total Dipole Moment    :      0.18685       0.11982      -0.74056
                        -----------------------------------------
Magnitude (a.u.)       :      0.77311
Magnitude (Debye)      :      1.96509

Rotational constants in cm-1:     0.016343     0.009414     0.006509
Rotational constants in MHz :   489.960368   282.235696   195.142444

                             ****ORCA TERMINATED NORMALLY****
TOTAL RUN TIME: 0 days 0 hours 0 minutes 33 seconds 532 msec
