                         Program Version 4.2.1 -  RELEASE  -
|  1> ! wB97X-D3 SP def2-SVP
|  2> %pal
|  3> nprocs 16
|  4> end
|  5>
|  6> * xyz 0 1
|  7> S 	 -4.58643 	 51.7855 	 50.7073
|  8> C 	 -4.79461 	 52.7527 	 52.1033
|  9> C 	 -6.09703 	 53.1588 	 52.3798
| 10> C 	 -7.0219 	 52.4767 	 51.5724
| 11> C 	 -6.33996 	 51.6022 	 50.7251
| 12> H 	 -8.08978 	 52.5579 	 51.5767
| 13> C 	 -6.55724 	 54.2057 	 53.3746
| 14> H 	 -7.30681 	 53.6555 	 53.9684
| 15> H 	 -7.14794 	 54.9311 	 52.7461
| 16> C 	 -5.47476 	 54.8319 	 54.2736
| 17> H 	 -4.71771 	 54.1476 	 54.7371
| 18> H 	 -4.91053 	 55.2551 	 53.5489
| 19> C 	 -5.98269 	 56.0001 	 55.1498
| 20> H 	 -6.55568 	 55.4584 	 55.9272
| 21> H 	 -5.14399 	 56.6541 	 55.5501
| 22> H 	 -6.68178 	 56.6405 	 54.6149
| 23> S 	 -7.08023 	 50.8526 	 48.1301
| 24> C 	 -8.34561 	 49.6508 	 47.9794
| 25> C 	 -8.56557 	 48.9561 	 49.1859
| 26> C 	 -7.87441 	 49.5796 	 50.2605
| 27> C 	 -7.00252 	 50.6133 	 49.89
| 28> H 	 -9.31999 	 48.1772 	 49.2168
| 29> C 	 -8.18828 	 49.0113 	 51.6242
| 30> H 	 -7.59924 	 49.424 	 52.4384
| 31> H 	 -7.76998 	 47.9355 	 51.6963
| 32> C 	 -9.69462 	 49.1324 	 52.0672
| 33> H 	 -9.79815 	 48.668 	 53.0403
| 34> H 	 -10.3164 	 48.5386 	 51.4315
| 35> C 	 -10.2836 	 50.5388 	 52.0045
| 36> H 	 -11.3018 	 50.5137 	 52.5252
| 37> H 	 -10.3459 	 51.0292 	 51.0344
| 38> H 	 -9.63377 	 51.2265 	 52.5462
| 39> H 	 -3.90273 	 53.1608 	 52.6891
| 40> H 	 -8.84932 	 49.5379 	 47.0021
| 41> *
| 42>
| 43>                          ****END OF INPUT****

CARTESIAN COORDINATES (ANGSTROEM)
---------------------------------
  S     -4.586430   51.785500   50.707300
  C     -4.794610   52.752700   52.103300
  C     -6.097030   53.158800   52.379800
  C     -7.021900   52.476700   51.572400
  C     -6.339960   51.602200   50.725100
  H     -8.089780   52.557900   51.576700
  C     -6.557240   54.205700   53.374600
  H     -7.306810   53.655500   53.968400
  H     -7.147940   54.931100   52.746100
  C     -5.474760   54.831900   54.273600
  H     -4.717710   54.147600   54.737100
  H     -4.910530   55.255100   53.548900
  C     -5.982690   56.000100   55.149800
  H     -6.555680   55.458400   55.927200
  H     -5.143990   56.654100   55.550100
  H     -6.681780   56.640500   54.614900
  S     -7.080230   50.852600   48.130100
  C     -8.345610   49.650800   47.979400
  C     -8.565570   48.956100   49.185900
  C     -7.874410   49.579600   50.260500
  C     -7.002520   50.613300   49.890000
  H     -9.319990   48.177200   49.216800
  C     -8.188280   49.011300   51.624200
  H     -7.599240   49.424000   52.438400
  H     -7.769980   47.935500   51.696300
  C     -9.694620   49.132400   52.067200
  H     -9.798150   48.668000   53.040300
  H    -10.316400   48.538600   51.431500
  C    -10.283600   50.538800   52.004500
  H    -11.301800   50.513700   52.525200
  H    -10.345900   51.029200   51.034400
  H     -9.633770   51.226500   52.546200
  H     -3.902730   53.160800   52.689100
  H     -8.849320   49.537900   47.002100

 Total Charge           Charge          ....    0
 Multiplicity           Mult            ....    1
 Number of Electrons    NEL             ....  134
 Basis Dimension        Dim             ....  322

ORBITAL ENERGIES
----------------

  NO   OCC          E(Eh)            E(eV)
   0   2.0000     -88.969115     -2420.9727
   1   2.0000     -88.962591     -2420.7952
   2   2.0000     -10.326898      -281.0092
   3   2.0000     -10.324549      -280.9453
   4   2.0000     -10.323264      -280.9103
   5   2.0000     -10.312555      -280.6189
   6   2.0000     -10.304519      -280.4002
   7   2.0000     -10.300251      -280.2841
   8   2.0000     -10.298204      -280.2284
   9   2.0000     -10.295955      -280.1672
  10   2.0000     -10.295556      -280.1563
  11   2.0000     -10.292585      -280.0755
  12   2.0000     -10.288125      -279.9541
  13   2.0000     -10.287101      -279.9263
  14   2.0000     -10.283800      -279.8364
  15   2.0000     -10.282358      -279.7972
  16   2.0000      -8.084374      -219.9870
  17   2.0000      -8.077211      -219.7921
  18   2.0000      -6.042553      -164.4262
  19   2.0000      -6.039236      -164.3360
  20   2.0000      -6.035611      -164.2373
  21   2.0000      -6.035034      -164.2216
  22   2.0000      -6.031720      -164.1314
  23   2.0000      -6.028127      -164.0337
  24   2.0000      -1.005092       -27.3499
  25   2.0000      -0.981482       -26.7075
  26   2.0000      -0.912525       -24.8311
  27   2.0000      -0.902932       -24.5700
  28   2.0000      -0.862398       -23.4670
  29   2.0000      -0.859626       -23.3916
  30   2.0000      -0.846204       -23.0264
  31   2.0000      -0.806109       -21.9353
  32   2.0000      -0.779721       -21.2173
  33   2.0000      -0.764200       -20.7949
  34   2.0000      -0.715813       -19.4783
  35   2.0000      -0.703262       -19.1367
  36   2.0000      -0.685302       -18.6480
  37   2.0000      -0.656977       -17.8773
  38   2.0000      -0.637868       -17.3573
  39   2.0000      -0.612706       -16.6726
  40   2.0000      -0.597211       -16.2509
  41   2.0000      -0.568908       -15.4808
  42   2.0000      -0.561061       -15.2672
  43   2.0000      -0.544297       -14.8111
  44   2.0000      -0.534501       -14.5445
  45   2.0000      -0.524857       -14.2821
  46   2.0000      -0.516355       -14.0507
  47   2.0000      -0.507198       -13.8016
  48   2.0000      -0.503549       -13.7023
  49   2.0000      -0.493642       -13.4327
  50   2.0000      -0.485638       -13.2149
  51   2.0000      -0.483529       -13.1575
  52   2.0000      -0.467887       -12.7318
  53   2.0000      -0.459056       -12.4915
  54   2.0000      -0.456977       -12.4350
  55   2.0000      -0.451869       -12.2960
  56   2.0000      -0.448913       -12.2155
  57   2.0000      -0.439651       -11.9635
  58   2.0000      -0.434618       -11.8266
  59   2.0000      -0.429168       -11.6783
  60   2.0000      -0.419248       -11.4083
  61   2.0000      -0.412034       -11.2120
  62   2.0000      -0.408689       -11.1210
  63   2.0000      -0.339133        -9.2283
  64   2.0000      -0.330336        -8.9889
  65   2.0000      -0.325357        -8.8534
  66   2.0000      -0.287979        -7.8363
  67   0.0000       0.037368         1.0168
  68   0.0000       0.055214         1.5024
  69   0.0000       0.107703         2.9307
  70   0.0000       0.119140         3.2420
  71   0.0000       0.127939         3.4814

MULLIKEN ATOMIC CHARGES
-----------------------
   0 S :    0.136118
   1 C :   -0.155821
   2 C :   -0.084300
   3 C :    0.035645
   4 C :   -0.166161
   5 H :    0.002574
   6 C :    0.036241
   7 H :    0.029015
   8 H :    0.049639
   9 C :   -0.065154
  10 H :    0.044534
  11 H :    0.001711
  12 C :   -0.049474
  13 H :    0.037891
  14 H :    0.052936
  15 H :    0.030474
  16 S :    0.093593
  17 C :   -0.127623
  18 C :   -0.018081
  19 C :   -0.027831
  20 C :   -0.149080
  21 H :    0.028425
  22 C :    0.022731
  23 H :    0.021465
  24 H :    0.048723
  25 C :   -0.052860
  26 H :    0.029246
  27 H :    0.016527
  28 C :   -0.072884
  29 H :    0.048277
  30 H :    0.048907
  31 H :    0.018941
  32 H :    0.060958
  33 H :    0.074698
Sum of atomic charges:    0.0000000

LOEWDIN ATOMIC CHARGES
----------------------
   0 S :    0.417892
   1 C :   -0.228459
   2 C :   -0.066574
   3 C :   -0.047642
   4 C :   -0.186092
   5 H :    0.030705
   6 C :   -0.030784
   7 H :    0.029044
   8 H :    0.043531
   9 C :   -0.051394
  10 H :    0.033611
  11 H :    0.009214
  12 C :   -0.064299
  13 H :    0.028530
  14 H :    0.036334
  15 H :    0.024312
  16 S :    0.389050
  17 C :   -0.180939
  18 C :   -0.070085
  19 C :   -0.056206
  20 C :   -0.204902
  21 H :    0.033665
  22 C :   -0.042011
  23 H :    0.026108
  24 H :    0.045202
  25 C :   -0.037416
  26 H :    0.026453
  27 H :    0.014774
  28 C :   -0.071798
  29 H :    0.038701
  30 H :    0.027574
  31 H :    0.017353
  32 H :    0.034172
  33 H :    0.032382

  Mayer bond orders larger than 0.100000
B(  0-S ,  1-C ) :   1.1378 B(  0-S ,  4-C ) :   1.1581 B(  1-C ,  2-C ) :   1.6265
B(  1-C , 32-H ) :   0.9482 B(  2-C ,  3-C ) :   1.2343 B(  2-C ,  6-C ) :   1.0004
B(  3-C ,  4-C ) :   1.5688 B(  3-C ,  5-H ) :   1.0028 B(  4-C , 20-C ) :   1.0197
B(  6-C ,  7-H ) :   0.9372 B(  6-C ,  8-H ) :   0.9393 B(  6-C ,  9-C ) :   1.0628
B(  9-C , 10-H ) :   0.9546 B(  9-C , 11-H ) :   0.9417 B(  9-C , 12-C ) :   1.0754
B( 12-C , 13-H ) :   0.9798 B( 12-C , 14-H ) :   0.9738 B( 12-C , 15-H ) :   0.9738
B( 16-S , 17-C ) :   1.1784 B( 16-S , 20-C ) :   1.1289 B( 17-C , 18-C ) :   1.5776
B( 17-C , 20-C ) :   0.1011 B( 17-C , 33-H ) :   0.9652 B( 18-C , 19-C ) :   1.2305
B( 18-C , 21-H ) :   0.9951 B( 19-C , 20-C ) :   1.5993 B( 19-C , 22-C ) :   1.0486
B( 22-C , 23-H ) :   0.9375 B( 22-C , 24-H ) :   0.9400 B( 22-C , 25-C ) :   1.0609
B( 25-C , 26-H ) :   0.9556 B( 25-C , 27-H ) :   0.9560 B( 25-C , 28-C ) :   1.0740
B( 28-C , 29-H ) :   0.9683 B( 28-C , 30-H ) :   0.9708 B( 28-C , 31-H ) :   0.9707

Dispersion correction           -0.015040420
FINAL SINGLE POINT ENERGY     -1339.857980121206

DIPOLE MOMENT
-------------
                                X             Y             Z
Electronic contribution:     12.88368      -8.59858     -24.17021
Nuclear contribution   :    -13.34272       8.72069      24.59590
                        -----------------------------------------
Total Dipole Moment    :     -0.45903       0.12211       0.42570
                        -----------------------------------------
Magnitude (a.u.)       :      0.63784
Magnitude (Debye)      :      1.62126

Rotational constants in cm-1:     0.021204     0.008001     0.006481
Rotational constants in MHz :   635.690426   239.866511   194.301371

                             ****ORCA TERMINATED NORMALLY****
TOTAL RUN TIME: 0 days 0 hours 0 minutes 34 seconds 598 msec
