                         Program Version 4.2.1 -  RELEASE  -
|  1> ! wB97X-D3 SP def2-SVP
|  2> %pal
|  3> nprocs 16
|  4> end
|  5>
|  6> * xyz 0 1
|  7> S 	 -11.7564 	 42.3445 	 39.9481
|  8> C 	 -12.5353 	 40.9691 	 39.2673
|  9> C 	 -11.8333 	 39.8067 	 39.3855
| 10> C 	 -10.5248 	 40.0385 	 39.9158
| 11> C 	 -10.3532 	 41.3701 	 40.298
| 12> H 	 -9.73539 	 39.3126 	 40.0775
| 13> C 	 -12.323 	 38.5004 	 38.7685
| 14> H 	 -11.4293 	 38.1841 	 38.1934
| 15> H 	 -13.1631 	 38.7678 	 38.1044
| 16> C 	 -12.773 	 37.5391 	 39.8833
| 17> H 	 -11.9597 	 37.2886 	 40.5848
| 18> H 	 -13.5792 	 37.9108 	 40.5042
| 19> C 	 -12.9994 	 36.1286 	 39.2602
| 20> H 	 -13.8657 	 36.076 	 38.5181
| 21> H 	 -12.0421 	 35.8372 	 38.8264
| 22> H 	 -13.1798 	 35.4547 	 40.0684
| 23> S 	 -9.49849 	 42.1095 	 42.8172
| 24> C 	 -7.81146 	 42.3316 	 43.0356
| 25> C 	 -7.07868 	 42.2176 	 41.8563
| 26> C 	 -7.96071 	 42.1239 	 40.7138
| 27> C 	 -9.24659 	 41.8616 	 41.0984
| 28> H 	 -6.0061 	 42.3012 	 41.8864
| 29> C 	 -7.41353 	 41.9716 	 39.3025
| 30> H 	 -7.94513 	 42.6939 	 38.6831
| 31> H 	 -7.79733 	 41.0239 	 38.9613
| 32> C 	 -5.92121 	 42.2279 	 39.0928
| 33> H 	 -5.36062 	 41.6495 	 39.8556
| 34> H 	 -5.69474 	 43.2915 	 39.3014
| 35> C 	 -5.3696 	 41.9572 	 37.6016
| 36> H 	 -6.02026 	 42.278 	 36.8104
| 37> H 	 -5.08945 	 40.9312 	 37.364
| 38> H 	 -4.42842 	 42.4258 	 37.4642
| 39> H 	 -13.5493 	 41.0381 	 38.9851
| 40> H 	 -7.33369 	 42.3432 	 43.9503
| 41> *
| 42>
| 43>                          ****END OF INPUT****

CARTESIAN COORDINATES (ANGSTROEM)
---------------------------------
  S    -11.756400   42.344500   39.948100
  C    -12.535300   40.969100   39.267300
  C    -11.833300   39.806700   39.385500
  C    -10.524800   40.038500   39.915800
  C    -10.353200   41.370100   40.298000
  H     -9.735390   39.312600   40.077500
  C    -12.323000   38.500400   38.768500
  H    -11.429300   38.184100   38.193400
  H    -13.163100   38.767800   38.104400
  C    -12.773000   37.539100   39.883300
  H    -11.959700   37.288600   40.584800
  H    -13.579200   37.910800   40.504200
  C    -12.999400   36.128600   39.260200
  H    -13.865700   36.076000   38.518100
  H    -12.042100   35.837200   38.826400
  H    -13.179800   35.454700   40.068400
  S     -9.498490   42.109500   42.817200
  C     -7.811460   42.331600   43.035600
  C     -7.078680   42.217600   41.856300
  C     -7.960710   42.123900   40.713800
  C     -9.246590   41.861600   41.098400
  H     -6.006100   42.301200   41.886400
  C     -7.413530   41.971600   39.302500
  H     -7.945130   42.693900   38.683100
  H     -7.797330   41.023900   38.961300
  C     -5.921210   42.227900   39.092800
  H     -5.360620   41.649500   39.855600
  H     -5.694740   43.291500   39.301400
  C     -5.369600   41.957200   37.601600
  H     -6.020260   42.278000   36.810400
  H     -5.089450   40.931200   37.364000
  H     -4.428420   42.425800   37.464200
  H    -13.549300   41.038100   38.985100
  H     -7.333690   42.343200   43.950300

 Total Charge           Charge          ....    0
 Multiplicity           Mult            ....    1
 Number of Electrons    NEL             ....  134
 Basis Dimension        Dim             ....  322

ORBITAL ENERGIES
----------------

  NO   OCC          E(Eh)            E(eV)
   0   2.0000     -88.963614     -2420.8230
   1   2.0000     -88.963054     -2420.8078
   2   2.0000     -10.324632      -280.9475
   3   2.0000     -10.316783      -280.7339
   4   2.0000     -10.307146      -280.4717
   5   2.0000     -10.303183      -280.3639
   6   2.0000     -10.300364      -280.2872
   7   2.0000     -10.297846      -280.2186
   8   2.0000     -10.297088      -280.1980
   9   2.0000     -10.295923      -280.1663
  10   2.0000     -10.295596      -280.1574
  11   2.0000     -10.291349      -280.0419
  12   2.0000     -10.289232      -279.9842
  13   2.0000     -10.287457      -279.9359
  14   2.0000     -10.281067      -279.7621
  15   2.0000     -10.278951      -279.7045
  16   2.0000      -8.079216      -219.8467
  17   2.0000      -8.078465      -219.8262
  18   2.0000      -6.037519      -164.2892
  19   2.0000      -6.036846      -164.2709
  20   2.0000      -6.033620      -164.1831
  21   2.0000      -6.032965      -164.1653
  22   2.0000      -6.030148      -164.0887
  23   2.0000      -6.029235      -164.0638
  24   2.0000      -1.007801       -27.4237
  25   2.0000      -0.985783       -26.8245
  26   2.0000      -0.910329       -24.7713
  27   2.0000      -0.903172       -24.5765
  28   2.0000      -0.868250       -23.6263
  29   2.0000      -0.849811       -23.1245
  30   2.0000      -0.843448       -22.9514
  31   2.0000      -0.812888       -22.1198
  32   2.0000      -0.784316       -21.3423
  33   2.0000      -0.769168       -20.9301
  34   2.0000      -0.710120       -19.3233
  35   2.0000      -0.701308       -19.0836
  36   2.0000      -0.694441       -18.8967
  37   2.0000      -0.651697       -17.7336
  38   2.0000      -0.646757       -17.5991
  39   2.0000      -0.616005       -16.7623
  40   2.0000      -0.596136       -16.2217
  41   2.0000      -0.568621       -15.4730
  42   2.0000      -0.560409       -15.2495
  43   2.0000      -0.557269       -15.1641
  44   2.0000      -0.530241       -14.4286
  45   2.0000      -0.521814       -14.1993
  46   2.0000      -0.511346       -13.9144
  47   2.0000      -0.509728       -13.8704
  48   2.0000      -0.506220       -13.7750
  49   2.0000      -0.498781       -13.5725
  50   2.0000      -0.489428       -13.3180
  51   2.0000      -0.472386       -12.8543
  52   2.0000      -0.468549       -12.7499
  53   2.0000      -0.463834       -12.6216
  54   2.0000      -0.461064       -12.5462
  55   2.0000      -0.453783       -12.3481
  56   2.0000      -0.447813       -12.1856
  57   2.0000      -0.446010       -12.1365
  58   2.0000      -0.432887       -11.7795
  59   2.0000      -0.425010       -11.5651
  60   2.0000      -0.423011       -11.5107
  61   2.0000      -0.419633       -11.4188
  62   2.0000      -0.409430       -11.1412
  63   2.0000      -0.336259        -9.1501
  64   2.0000      -0.327471        -8.9109
  65   2.0000      -0.322478        -8.7751
  66   2.0000      -0.300759        -8.1841
  67   0.0000       0.045512         1.2385
  68   0.0000       0.057916         1.5760
  69   0.0000       0.121136         3.2963
  70   0.0000       0.128066         3.4848
  71   0.0000       0.132764         3.6127

MULLIKEN ATOMIC CHARGES
-----------------------
   0 S :    0.119891
   1 C :   -0.112677
   2 C :   -0.083586
   3 C :    0.047628
   4 C :   -0.200860
   5 H :    0.016862
   6 C :    0.063077
   7 H :    0.040477
   8 H :    0.031314
   9 C :   -0.097305
  10 H :    0.030322
  11 H :    0.036708
  12 C :   -0.043100
  13 H :    0.043900
  14 H :    0.028436
  15 H :    0.026669
  16 S :    0.127340
  17 C :   -0.050829
  18 C :   -0.067330
  19 C :   -0.040503
  20 C :   -0.177605
  21 H :    0.020065
  22 C :    0.115476
  23 H :    0.024952
  24 H :    0.022106
  25 C :   -0.112660
  26 H :    0.038129
  27 H :    0.039883
  28 C :   -0.021391
  29 H :    0.032069
  30 H :    0.025876
  31 H :    0.019417
  32 H :    0.031672
  33 H :    0.025576
Sum of atomic charges:   -0.0000000

LOEWDIN ATOMIC CHARGES
----------------------
   0 S :    0.418026
   1 C :   -0.201996
   2 C :   -0.065706
   3 C :   -0.055988
   4 C :   -0.200797
   5 H :    0.032476
   6 C :   -0.026837
   7 H :    0.037678
   8 H :    0.033614
   9 C :   -0.041476
  10 H :    0.028426
  11 H :    0.024402
  12 C :   -0.066578
  13 H :    0.028503
  14 H :    0.024420
  15 H :    0.019411
  16 S :    0.418841
  17 C :   -0.183782
  18 C :   -0.072926
  19 C :   -0.048367
  20 C :   -0.211655
  21 H :    0.028289
  22 C :   -0.035432
  23 H :    0.035793
  24 H :    0.030488
  25 C :   -0.039393
  26 H :    0.023716
  27 H :    0.029468
  28 C :   -0.064361
  29 H :    0.024447
  30 H :    0.025641
  31 H :    0.022863
  32 H :    0.016145
  33 H :    0.012647

  Mayer bond orders larger than 0.100000
B(  0-S ,  1-C ) :   1.1438 B(  0-S ,  4-C ) :   1.1659 B(  1-C ,  2-C ) :   1.6238
B(  1-C , 32-H ) :   0.9674 B(  2-C ,  3-C ) :   1.2393 B(  2-C ,  6-C ) :   1.0074
B(  3-C ,  4-C ) :   1.5800 B(  3-C ,  5-H ) :   0.9902 B(  4-C , 20-C ) :   1.0273
B(  6-C ,  7-H ) :   0.9457 B(  6-C ,  8-H ) :   0.9465 B(  6-C ,  9-C ) :   1.0561
B(  9-C , 10-H ) :   0.9609 B(  9-C , 11-H ) :   0.9589 B(  9-C , 12-C ) :   1.0703
B( 12-C , 13-H ) :   0.9749 B( 12-C , 14-H ) :   0.9768 B( 12-C , 15-H ) :   0.9764
B( 16-S , 17-C ) :   1.1652 B( 16-S , 20-C ) :   1.1383 B( 17-C , 18-C ) :   1.6253
B( 17-C , 33-H ) :   0.9676 B( 18-C , 19-C ) :   1.2243 B( 18-C , 21-H ) :   0.9842
B( 19-C , 20-C ) :   1.6224 B( 19-C , 22-C ) :   1.0357 B( 22-C , 23-H ) :   0.9146
B( 22-C , 24-H ) :   0.9309 B( 22-C , 25-C ) :   1.0754 B( 25-C , 26-H ) :   0.9500
B( 25-C , 27-H ) :   0.9585 B( 25-C , 28-C ) :   1.0683 B( 28-C , 29-H ) :   0.9780
B( 28-C , 30-H ) :   0.9767 B( 28-C , 31-H ) :   0.9751

Dispersion correction           -0.013526081
FINAL SINGLE POINT ENERGY     -1339.876146354541

DIPOLE MOMENT
-------------
                                X             Y             Z
Electronic contribution:     -8.03022      17.57676      15.69472
Nuclear contribution   :      8.30209     -18.06313     -15.94228
                        -----------------------------------------
Total Dipole Moment    :      0.27187      -0.48637      -0.24756
                        -----------------------------------------
Magnitude (a.u.)       :      0.60972
Magnitude (Debye)      :      1.54978

Rotational constants in cm-1:     0.017701     0.007439     0.006441
Rotational constants in MHz :   530.647835   223.015222   193.109838

                             ****ORCA TERMINATED NORMALLY****
TOTAL RUN TIME: 0 days 0 hours 0 minutes 33 seconds 163 msec
