                         Program Version 4.2.1 -  RELEASE  -
|  1> ! wB97X-D3 SP def2-SVP
|  2> %pal
|  3> nprocs 16
|  4> end
|  5>
|  6> * xyz 0 1
|  7> S 	 2.85014 	 -12.5331 	 75.0572
|  8> C 	 3.084 	 -13.0315 	 73.3797
|  9> C 	 2.39532 	 -14.1997 	 73.1427
| 10> C 	 1.49819 	 -14.4784 	 74.1975
| 11> C 	 1.55635 	 -13.718 	 75.35
| 12> H 	 0.858884 	 -15.3581 	 74.1736
| 13> C 	 2.57793 	 -15.0062 	 71.8669
| 14> H 	 1.7404 	 -15.7084 	 71.9191
| 15> H 	 3.48785 	 -15.562 	 71.9051
| 16> C 	 2.56338 	 -14.2632 	 70.5715
| 17> H 	 1.72328 	 -13.4782 	 70.6019
| 18> H 	 3.507 	 -13.7309 	 70.4846
| 19> C 	 2.27897 	 -15.1559 	 69.3865
| 20> H 	 1.37355 	 -15.7139 	 69.5032
| 21> H 	 2.2013 	 -14.6675 	 68.3927
| 22> H 	 2.99145 	 -15.9309 	 69.1871
| 23> S 	 -0.183136 	 -15.2629 	 76.8701
| 24> C 	 -1.06486 	 -14.5793 	 78.1802
| 25> C 	 -0.831225 	 -13.2604 	 78.2406
| 26> C 	 0.208109 	 -12.8113 	 77.4005
| 27> C 	 0.623364 	 -13.7629 	 76.5307
| 28> H 	 -1.30051 	 -12.7647 	 79.0271
| 29> C 	 0.511928 	 -11.3812 	 77.3188
| 30> H 	 -0.426821 	 -10.9708 	 77.5797
| 31> H 	 0.534931 	 -11.041 	 76.2827
| 32> C 	 1.62962 	 -10.8111 	 78.2196
| 33> H 	 2.61493 	 -11.1546 	 77.8816
| 34> H 	 1.51519 	 -11.1498 	 79.3257
| 35> C 	 1.79949 	 -9.28287 	 78.2435
| 36> H 	 0.860843 	 -8.7597 	 78.36
| 37> H 	 2.35941 	 -8.87672 	 77.3511
| 38> H 	 2.46776 	 -8.91898 	 79.0415
| 39> H 	 3.74851 	 -12.5161 	 72.7464
| 40> H 	 -1.87435 	 -15.1152 	 78.7886
| 41> *
| 42>
| 43>                          ****END OF INPUT****

CARTESIAN COORDINATES (ANGSTROEM)
---------------------------------
  S      2.850140  -12.533100   75.057200
  C      3.084000  -13.031500   73.379700
  C      2.395320  -14.199700   73.142700
  C      1.498190  -14.478400   74.197500
  C      1.556350  -13.718000   75.350000
  H      0.858884  -15.358100   74.173600
  C      2.577930  -15.006200   71.866900
  H      1.740400  -15.708400   71.919100
  H      3.487850  -15.562000   71.905100
  C      2.563380  -14.263200   70.571500
  H      1.723280  -13.478200   70.601900
  H      3.507000  -13.730900   70.484600
  C      2.278970  -15.155900   69.386500
  H      1.373550  -15.713900   69.503200
  H      2.201300  -14.667500   68.392700
  H      2.991450  -15.930900   69.187100
  S     -0.183136  -15.262900   76.870100
  C     -1.064860  -14.579300   78.180200
  C     -0.831225  -13.260400   78.240600
  C      0.208109  -12.811300   77.400500
  C      0.623364  -13.762900   76.530700
  H     -1.300510  -12.764700   79.027100
  C      0.511928  -11.381200   77.318800
  H     -0.426821  -10.970800   77.579700
  H      0.534931  -11.041000   76.282700
  C      1.629620  -10.811100   78.219600
  H      2.614930  -11.154600   77.881600
  H      1.515190  -11.149800   79.325700
  C      1.799490   -9.282870   78.243500
  H      0.860843   -8.759700   78.360000
  H      2.359410   -8.876720   77.351100
  H      2.467760   -8.918980   79.041500
  H      3.748510  -12.516100   72.746400
  H     -1.874350  -15.115200   78.788600

 Total Charge           Charge          ....    0
 Multiplicity           Mult            ....    1
 Number of Electrons    NEL             ....  134
 Basis Dimension        Dim             ....  322

ORBITAL ENERGIES
----------------

  NO   OCC          E(Eh)            E(eV)
   0   2.0000     -88.965714     -2420.8801
   1   2.0000     -88.963283     -2420.8140
   2   2.0000     -10.338001      -281.3113
   3   2.0000     -10.329366      -281.0763
   4   2.0000     -10.317594      -280.7560
   5   2.0000     -10.312725      -280.6235
   6   2.0000     -10.299997      -280.2772
   7   2.0000     -10.294800      -280.1358
   8   2.0000     -10.293513      -280.1007
   9   2.0000     -10.292993      -280.0866
  10   2.0000     -10.291713      -280.0518
  11   2.0000     -10.289037      -279.9789
  12   2.0000     -10.282552      -279.8025
  13   2.0000     -10.281860      -279.7836
  14   2.0000     -10.278286      -279.6864
  15   2.0000     -10.276093      -279.6267
  16   2.0000      -8.079234      -219.8471
  17   2.0000      -8.078995      -219.8406
  18   2.0000      -6.037848      -164.2982
  19   2.0000      -6.037527      -164.2895
  20   2.0000      -6.033841      -164.1892
  21   2.0000      -6.033330      -164.1753
  22   2.0000      -6.030027      -164.0854
  23   2.0000      -6.029717      -164.0769
  24   2.0000      -1.014836       -27.6151
  25   2.0000      -0.990460       -26.9518
  26   2.0000      -0.918764       -25.0008
  27   2.0000      -0.909183       -24.7401
  28   2.0000      -0.872061       -23.7300
  29   2.0000      -0.853609       -23.2279
  30   2.0000      -0.846653       -23.0386
  31   2.0000      -0.819957       -22.3122
  32   2.0000      -0.785375       -21.3711
  33   2.0000      -0.774453       -21.0739
  34   2.0000      -0.709983       -19.3196
  35   2.0000      -0.701782       -19.0965
  36   2.0000      -0.690640       -18.7933
  37   2.0000      -0.669799       -18.2261
  38   2.0000      -0.637597       -17.3499
  39   2.0000      -0.619838       -16.8667
  40   2.0000      -0.598242       -16.2790
  41   2.0000      -0.575571       -15.6621
  42   2.0000      -0.573458       -15.6046
  43   2.0000      -0.554444       -15.0872
  44   2.0000      -0.529200       -14.4003
  45   2.0000      -0.519590       -14.1388
  46   2.0000      -0.518123       -14.0988
  47   2.0000      -0.517934       -14.0937
  48   2.0000      -0.508641       -13.8408
  49   2.0000      -0.500940       -13.6313
  50   2.0000      -0.497917       -13.5490
  51   2.0000      -0.477550       -12.9948
  52   2.0000      -0.474743       -12.9184
  53   2.0000      -0.466254       -12.6874
  54   2.0000      -0.459090       -12.4925
  55   2.0000      -0.450885       -12.2692
  56   2.0000      -0.442857       -12.0507
  57   2.0000      -0.437574       -11.9070
  58   2.0000      -0.429610       -11.6903
  59   2.0000      -0.420830       -11.4514
  60   2.0000      -0.418281       -11.3820
  61   2.0000      -0.411117       -11.1871
  62   2.0000      -0.406265       -11.0550
  63   2.0000      -0.361035        -9.8243
  64   2.0000      -0.332635        -9.0515
  65   2.0000      -0.329421        -8.9640
  66   2.0000      -0.290837        -7.9141
  67   0.0000       0.024085         0.6554
  68   0.0000       0.084004         2.2859
  69   0.0000       0.114999         3.1293
  70   0.0000       0.119597         3.2544
  71   0.0000       0.133082         3.6213

MULLIKEN ATOMIC CHARGES
-----------------------
   0 S :    0.091225
   1 C :   -0.129844
   2 C :   -0.078126
   3 C :   -0.012333
   4 C :   -0.098730
   5 H :    0.012406
   6 C :    0.104987
   7 H :    0.009678
   8 H :    0.037353
   9 C :   -0.095810
  10 H :    0.044338
  11 H :    0.032522
  12 C :   -0.034289
  13 H :    0.019845
  14 H :    0.035376
  15 H :    0.015308
  16 S :    0.088988
  17 C :   -0.107849
  18 C :   -0.015530
  19 C :   -0.054834
  20 C :   -0.110089
  21 H :   -0.000731
  22 C :    0.071365
  23 H :   -0.004361
  24 H :    0.026812
  25 C :   -0.069807
  26 H :    0.028691
  27 H :    0.041092
  28 C :   -0.065938
  29 H :    0.027605
  30 H :    0.036264
  31 H :    0.032906
  32 H :    0.037893
  33 H :    0.083617
Sum of atomic charges:    0.0000000

LOEWDIN ATOMIC CHARGES
----------------------
   0 S :    0.395082
   1 C :   -0.177930
   2 C :   -0.064158
   3 C :   -0.075332
   4 C :   -0.177905
   5 H :    0.024352
   6 C :   -0.027517
   7 H :    0.028084
   8 H :    0.032861
   9 C :   -0.044874
  10 H :    0.034914
  11 H :    0.022474
  12 C :   -0.068941
  13 H :    0.023076
  14 H :    0.031935
  15 H :    0.020648
  16 S :    0.416981
  17 C :   -0.196058
  18 C :   -0.071670
  19 C :   -0.064485
  20 C :   -0.186038
  21 H :    0.024391
  22 C :   -0.041673
  23 H :    0.027993
  24 H :    0.031858
  25 C :   -0.043681
  26 H :    0.020871
  27 H :    0.033826
  28 C :   -0.075867
  29 H :    0.018822
  30 H :    0.030437
  31 H :    0.029301
  32 H :    0.017885
  33 H :    0.050337

  Mayer bond orders larger than 0.100000
B(  0-S ,  1-C ) :   1.1481 B(  0-S ,  4-C ) :   1.1411 B(  1-C ,  2-C ) :   1.5670
B(  1-C ,  4-C ) :   0.1001 B(  1-C , 32-H ) :   0.9812 B(  2-C ,  3-C ) :   1.2936
B(  2-C ,  6-C ) :   1.0127 B(  3-C ,  4-C ) :   1.5607 B(  3-C ,  5-H ) :   0.9769
B(  4-C , 20-C ) :   1.0293 B(  6-C ,  7-H ) :   0.9432 B(  6-C ,  8-H ) :   0.9260
B(  6-C ,  9-C ) :   1.0690 B(  9-C , 10-H ) :   0.9604 B(  9-C , 11-H ) :   0.9465
B(  9-C , 12-C ) :   1.0897 B( 12-C , 13-H ) :   0.9724 B( 12-C , 14-H ) :   0.9732
B( 12-C , 15-H ) :   0.9711 B( 16-S , 17-C ) :   1.1536 B( 16-S , 20-C ) :   1.1389
B( 17-C , 18-C ) :   1.6323 B( 17-C , 33-H ) :   0.9541 B( 18-C , 19-C ) :   1.2373
B( 18-C , 21-H ) :   0.9948 B( 19-C , 20-C ) :   1.6002 B( 19-C , 22-C ) :   1.0442
B( 22-C , 23-H ) :   0.9248 B( 22-C , 24-H ) :   0.9319 B( 22-C , 25-C ) :   1.0457
B( 25-C , 26-H ) :   0.9537 B( 25-C , 27-H ) :   0.9583 B( 25-C , 28-C ) :   1.0827
B( 28-C , 29-H ) :   0.9760 B( 28-C , 30-H ) :   0.9744 B( 28-C , 31-H ) :   0.9739

Dispersion correction           -0.013609179
FINAL SINGLE POINT ENERGY     -1339.872201059131

DIPOLE MOMENT
-------------
                                X             Y             Z
Electronic contribution:     -3.82739      -9.13246      12.09636
Nuclear contribution   :      3.68261       9.19003     -12.32914
                        -----------------------------------------
Total Dipole Moment    :     -0.14478       0.05757      -0.23277
                        -----------------------------------------
Magnitude (a.u.)       :      0.28011
Magnitude (Debye)      :      0.71197

Rotational constants in cm-1:     0.021472     0.007404     0.005764
Rotational constants in MHz :   643.714919   221.958673   172.796909

                             ****ORCA TERMINATED NORMALLY****
TOTAL RUN TIME: 0 days 0 hours 0 minutes 33 seconds 266 msec
