                         Program Version 4.2.1 -  RELEASE  -
|  1> ! wB97X-D3 SP def2-SVP
|  2> %pal
|  3> nprocs 16
|  4> end
|  5>
|  6> * xyz 0 1
|  7> S 	 -36.9386 	 54.2115 	 104.199
|  8> C 	 -38.2096 	 53.4209 	 103.244
|  9> C 	 -37.7372 	 53.1822 	 101.978
| 10> C 	 -36.4702 	 53.8092 	 101.699
| 11> C 	 -35.928 	 54.44 	 102.751
| 12> H 	 -36.002 	 53.9054 	 100.706
| 13> C 	 -38.4948 	 52.3782 	 100.865
| 14> H 	 -39.5564 	 52.5452 	 101.04
| 15> H 	 -38.2466 	 51.2817 	 100.988
| 16> C 	 -38.2596 	 52.7239 	 99.3916
| 17> H 	 -38.2238 	 53.7626 	 99.2881
| 18> H 	 -37.1601 	 52.4434 	 99.2102
| 19> C 	 -39.1837 	 52.1241 	 98.2745
| 20> H 	 -38.8435 	 52.2889 	 97.2611
| 21> H 	 -39.3229 	 51.0414 	 98.3542
| 22> H 	 -40.0978 	 52.6934 	 98.2532
| 23> S 	 -33.2108 	 54.6647 	 102.03
| 24> C 	 -32.3201 	 56.1018 	 102.588
| 25> C 	 -33.1773 	 56.9426 	 103.309
| 26> C 	 -34.5143 	 56.4436 	 103.509
| 27> C 	 -34.6866 	 55.1925 	 102.851
| 28> H 	 -32.7864 	 57.849 	 103.669
| 29> C 	 -35.6402 	 57.3014 	 104.071
| 30> H 	 -35.162 	 58.1561 	 104.519
| 31> H 	 -36.0871 	 56.7651 	 104.98
| 32> C 	 -36.7779 	 57.7888 	 103.116
| 33> H 	 -37.1477 	 56.98 	 102.554
| 34> H 	 -36.3067 	 58.5785 	 102.523
| 35> C 	 -38.1261 	 58.4119 	 103.628
| 36> H 	 -38.7304 	 57.701 	 104.113
| 37> H 	 -38.8015 	 58.8451 	 102.861
| 38> H 	 -37.9657 	 59.1744 	 104.374
| 39> H 	 -39.2044 	 53.1875 	 103.626
| 40> H 	 -31.302 	 56.3504 	 102.272
| 41> *
| 42>
| 43>                          ****END OF INPUT****

CARTESIAN COORDINATES (ANGSTROEM)
---------------------------------
  S    -36.938600   54.211500  104.199000
  C    -38.209600   53.420900  103.244000
  C    -37.737200   53.182200  101.978000
  C    -36.470200   53.809200  101.699000
  C    -35.928000   54.440000  102.751000
  H    -36.002000   53.905400  100.706000
  C    -38.494800   52.378200  100.865000
  H    -39.556400   52.545200  101.040000
  H    -38.246600   51.281700  100.988000
  C    -38.259600   52.723900   99.391600
  H    -38.223800   53.762600   99.288100
  H    -37.160100   52.443400   99.210200
  C    -39.183700   52.124100   98.274500
  H    -38.843500   52.288900   97.261100
  H    -39.322900   51.041400   98.354200
  H    -40.097800   52.693400   98.253200
  S    -33.210800   54.664700  102.030000
  C    -32.320100   56.101800  102.588000
  C    -33.177300   56.942600  103.309000
  C    -34.514300   56.443600  103.509000
  C    -34.686600   55.192500  102.851000
  H    -32.786400   57.849000  103.669000
  C    -35.640200   57.301400  104.071000
  H    -35.162000   58.156100  104.519000
  H    -36.087100   56.765100  104.980000
  C    -36.777900   57.788800  103.116000
  H    -37.147700   56.980000  102.554000
  H    -36.306700   58.578500  102.523000
  C    -38.126100   58.411900  103.628000
  H    -38.730400   57.701000  104.113000
  H    -38.801500   58.845100  102.861000
  H    -37.965700   59.174400  104.374000
  H    -39.204400   53.187500  103.626000
  H    -31.302000   56.350400  102.272000

 Total Charge           Charge          ....    0
 Multiplicity           Mult            ....    1
 Number of Electrons    NEL             ....  134
 Basis Dimension        Dim             ....  322

ORBITAL ENERGIES
----------------

  NO   OCC          E(Eh)            E(eV)
   0   2.0000     -88.971879     -2421.0479
   1   2.0000     -88.963708     -2420.8256
   2   2.0000     -10.332991      -281.1750
   3   2.0000     -10.329591      -281.0825
   4   2.0000     -10.326046      -280.9860
   5   2.0000     -10.318939      -280.7926
   6   2.0000     -10.311369      -280.5866
   7   2.0000     -10.308119      -280.4982
   8   2.0000     -10.299682      -280.2686
   9   2.0000     -10.298340      -280.2321
  10   2.0000     -10.297134      -280.1993
  11   2.0000     -10.293738      -280.1068
  12   2.0000     -10.290835      -280.0278
  13   2.0000     -10.283776      -279.8358
  14   2.0000     -10.283403      -279.8256
  15   2.0000     -10.272977      -279.5419
  16   2.0000      -8.085371      -220.0141
  17   2.0000      -8.077559      -219.8016
  18   2.0000      -6.043968      -164.4647
  19   2.0000      -6.039937      -164.3550
  20   2.0000      -6.036290      -164.2558
  21   2.0000      -6.036238      -164.2544
  22   2.0000      -6.032264      -164.1462
  23   2.0000      -6.028042      -164.0314
  24   2.0000      -1.002890       -27.2900
  25   2.0000      -0.977962       -26.6117
  26   2.0000      -0.903817       -24.5941
  27   2.0000      -0.896801       -24.4032
  28   2.0000      -0.869976       -23.6733
  29   2.0000      -0.848566       -23.0907
  30   2.0000      -0.840678       -22.8760
  31   2.0000      -0.816453       -22.2168
  32   2.0000      -0.785212       -21.3667
  33   2.0000      -0.772604       -21.0236
  34   2.0000      -0.712746       -19.3948
  35   2.0000      -0.697407       -18.9774
  36   2.0000      -0.685591       -18.6559
  37   2.0000      -0.668118       -18.1804
  38   2.0000      -0.635601       -17.2956
  39   2.0000      -0.619182       -16.8488
  40   2.0000      -0.589171       -16.0321
  41   2.0000      -0.570033       -15.5114
  42   2.0000      -0.564330       -15.3562
  43   2.0000      -0.557304       -15.1650
  44   2.0000      -0.522615       -14.2211
  45   2.0000      -0.516091       -14.0436
  46   2.0000      -0.515043       -14.0150
  47   2.0000      -0.508888       -13.8476
  48   2.0000      -0.505210       -13.7475
  49   2.0000      -0.501806       -13.6548
  50   2.0000      -0.489622       -13.3233
  51   2.0000      -0.479134       -13.0379
  52   2.0000      -0.473449       -12.8832
  53   2.0000      -0.468007       -12.7351
  54   2.0000      -0.461854       -12.5677
  55   2.0000      -0.450610       -12.2617
  56   2.0000      -0.446107       -12.1392
  57   2.0000      -0.436409       -11.8753
  58   2.0000      -0.434445       -11.8219
  59   2.0000      -0.421468       -11.4687
  60   2.0000      -0.413595       -11.2545
  61   2.0000      -0.407568       -11.0905
  62   2.0000      -0.406311       -11.0563
  63   2.0000      -0.350862        -9.5475
  64   2.0000      -0.333683        -9.0800
  65   2.0000      -0.329897        -8.9770
  66   2.0000      -0.290923        -7.9164
  67   0.0000       0.018249         0.4966
  68   0.0000       0.077477         2.1082
  69   0.0000       0.107539         2.9263
  70   0.0000       0.112261         3.0548
  71   0.0000       0.129216         3.5161

MULLIKEN ATOMIC CHARGES
-----------------------
   0 S :    0.090486
   1 C :   -0.141783
   2 C :   -0.072628
   3 C :   -0.008165
   4 C :   -0.136004
   5 H :    0.025865
   6 C :    0.057969
   7 H :    0.022429
   8 H :    0.056453
   9 C :   -0.118323
  10 H :    0.017313
  11 H :    0.033451
  12 C :   -0.020320
  13 H :    0.027016
  14 H :    0.040397
  15 H :    0.029179
  16 S :    0.114082
  17 C :   -0.109570
  18 C :   -0.015369
  19 C :   -0.035879
  20 C :   -0.139287
  21 H :    0.003654
  22 C :    0.055396
  23 H :    0.008855
  24 H :    0.042455
  25 C :   -0.049076
  26 H :    0.039246
  27 H :    0.033270
  28 C :   -0.049136
  29 H :    0.015388
  30 H :    0.039444
  31 H :    0.017550
  32 H :    0.056024
  33 H :    0.069620
Sum of atomic charges:   -0.0000000

LOEWDIN ATOMIC CHARGES
----------------------
   0 S :    0.385604
   1 C :   -0.188013
   2 C :   -0.058732
   3 C :   -0.075814
   4 C :   -0.173182
   5 H :    0.037377
   6 C :   -0.034831
   7 H :    0.026236
   8 H :    0.040799
   9 C :   -0.049860
  10 H :    0.013795
  11 H :    0.026420
  12 C :   -0.062943
  13 H :    0.029545
  14 H :    0.028099
  15 H :    0.026040
  16 S :    0.396614
  17 C :   -0.181819
  18 C :   -0.060103
  19 C :   -0.054026
  20 C :   -0.193731
  21 H :    0.023267
  22 C :   -0.042597
  23 H :    0.025072
  24 H :    0.031650
  25 C :   -0.034074
  26 H :    0.020956
  27 H :    0.026489
  28 C :   -0.064765
  29 H :    0.015919
  30 H :    0.034172
  31 H :    0.018281
  32 H :    0.033191
  33 H :    0.034963

  Mayer bond orders larger than 0.100000
B(  0-S ,  1-C ) :   1.1154 B(  0-S ,  4-C ) :   1.1269 B(  1-C ,  2-C ) :   1.6493
B(  1-C , 32-H ) :   0.9725 B(  2-C ,  3-C ) :   1.2060 B(  2-C ,  6-C ) :   1.0039
B(  3-C ,  4-C ) :   1.6183 B(  3-C ,  5-H ) :   0.9880 B(  4-C , 20-C ) :   1.0626
B(  6-C ,  7-H ) :   0.9489 B(  6-C ,  8-H ) :   0.9360 B(  6-C ,  9-C ) :   1.0721
B(  9-C , 10-H ) :   0.9605 B(  9-C , 11-H ) :   0.9469 B(  9-C , 12-C ) :   1.0775
B( 12-C , 13-H ) :   0.9725 B( 12-C , 14-H ) :   0.9777 B( 12-C , 15-H ) :   0.9729
B( 16-S , 17-C ) :   1.1461 B( 16-S , 20-C ) :   1.1490 B( 17-C , 18-C ) :   1.5975
B( 17-C , 20-C ) :   0.1002 B( 17-C , 33-H ) :   0.9662 B( 18-C , 19-C ) :   1.2634
B( 18-C , 21-H ) :   0.9930 B( 19-C , 20-C ) :   1.5232 B( 19-C , 22-C ) :   1.0533
B( 22-C , 23-H ) :   0.9311 B( 22-C , 24-H ) :   0.9260 B( 22-C , 25-C ) :   1.0447
B( 25-C , 26-H ) :   0.9610 B( 25-C , 27-H ) :   0.9602 B( 25-C , 28-C ) :   1.0789
B( 28-C , 29-H ) :   0.9746 B( 28-C , 30-H ) :   0.9751 B( 28-C , 31-H ) :   0.9766

Dispersion correction           -0.014483618
FINAL SINGLE POINT ENERGY     -1339.870616610035

DIPOLE MOMENT
-------------
                                X             Y             Z
Electronic contribution:     19.27027      -5.05786      11.82010
Nuclear contribution   :    -19.55445       5.33235     -12.21823
                        -----------------------------------------
Total Dipole Moment    :     -0.28419       0.27449      -0.39812
                        -----------------------------------------
Magnitude (a.u.)       :      0.56090
Magnitude (Debye)      :      1.42570

Rotational constants in cm-1:     0.017520     0.008567     0.007037
Rotational constants in MHz :   525.233934   256.840223   210.967624

                             ****ORCA TERMINATED NORMALLY****
TOTAL RUN TIME: 0 days 0 hours 0 minutes 29 seconds 717 msec
