                         Program Version 4.2.1 -  RELEASE  -
|  1> ! wB97X-D3 SP def2-SVP
|  2> %pal
|  3> nprocs 16
|  4> end
|  5>
|  6> * xyz 0 1
|  7> S 	 0.545415 	 29.6881 	 44.1738
|  8> C 	 0.0648574 	 28.0839 	 43.5024
|  9> C 	 0.496594 	 27.9797 	 42.2252
| 10> C 	 1.25131 	 29.0734 	 41.8089
| 11> C 	 1.35034 	 30.093 	 42.6745
| 12> H 	 1.58792 	 29.0731 	 40.8079
| 13> C 	 0.115822 	 26.7596 	 41.3876
| 14> H 	 -0.129484 	 25.946 	 42.0475
| 15> H 	 1.06254 	 26.3653 	 40.9751
| 16> C 	 -0.998665 	 27.0125 	 40.3489
| 17> H 	 -1.8175 	 27.5153 	 40.888
| 18> H 	 -0.786196 	 27.6233 	 39.4555
| 19> C 	 -1.69007 	 25.6835 	 39.935
| 20> H 	 -2.7962 	 25.9618 	 39.8836
| 21> H 	 -1.37689 	 25.4087 	 38.8771
| 22> H 	 -1.52975 	 24.8805 	 40.6716
| 23> S 	 1.95003 	 32.5916 	 43.935
| 24> C 	 2.86856 	 33.7224 	 42.9469
| 25> C 	 2.99712 	 33.3123 	 41.6676
| 26> C 	 2.72485 	 31.9404 	 41.4631
| 27> C 	 2.11198 	 31.3314 	 42.5674
| 28> H 	 3.31794 	 33.8857 	 40.8381
| 29> C 	 2.84782 	 31.3995 	 40.0673
| 30> H 	 3.17739 	 30.392 	 40.2314
| 31> H 	 3.61587 	 31.9333 	 39.5962
| 32> C 	 1.52511 	 31.425 	 39.1755
| 33> H 	 1.5233 	 32.5014 	 38.8994
| 34> H 	 0.683945 	 31.2181 	 39.7906
| 35> C 	 1.65899 	 30.4233 	 37.9987
| 36> H 	 2.22333 	 30.8349 	 37.1986
| 37> H 	 0.706702 	 30.2826 	 37.5222
| 38> H 	 2.00765 	 29.3846 	 38.2298
| 39> H 	 -0.443504 	 27.2607 	 44.1155
| 40> H 	 3.11513 	 34.7472 	 43.2783
| 41> *
| 42>
| 43>                          ****END OF INPUT****

CARTESIAN COORDINATES (ANGSTROEM)
---------------------------------
  S      0.545415   29.688100   44.173800
  C      0.064857   28.083900   43.502400
  C      0.496594   27.979700   42.225200
  C      1.251310   29.073400   41.808900
  C      1.350340   30.093000   42.674500
  H      1.587920   29.073100   40.807900
  C      0.115822   26.759600   41.387600
  H     -0.129484   25.946000   42.047500
  H      1.062540   26.365300   40.975100
  C     -0.998665   27.012500   40.348900
  H     -1.817500   27.515300   40.888000
  H     -0.786196   27.623300   39.455500
  C     -1.690070   25.683500   39.935000
  H     -2.796200   25.961800   39.883600
  H     -1.376890   25.408700   38.877100
  H     -1.529750   24.880500   40.671600
  S      1.950030   32.591600   43.935000
  C      2.868560   33.722400   42.946900
  C      2.997120   33.312300   41.667600
  C      2.724850   31.940400   41.463100
  C      2.111980   31.331400   42.567400
  H      3.317940   33.885700   40.838100
  C      2.847820   31.399500   40.067300
  H      3.177390   30.392000   40.231400
  H      3.615870   31.933300   39.596200
  C      1.525110   31.425000   39.175500
  H      1.523300   32.501400   38.899400
  H      0.683945   31.218100   39.790600
  C      1.658990   30.423300   37.998700
  H      2.223330   30.834900   37.198600
  H      0.706702   30.282600   37.522200
  H      2.007650   29.384600   38.229800
  H     -0.443504   27.260700   44.115500
  H      3.115130   34.747200   43.278300

 Total Charge           Charge          ....    0
 Multiplicity           Mult            ....    1
 Number of Electrons    NEL             ....  134
 Basis Dimension        Dim             ....  322

ORBITAL ENERGIES
----------------

  NO   OCC          E(Eh)            E(eV)
   0   2.0000     -88.966119     -2420.8912
   1   2.0000     -88.961798     -2420.7736
   2   2.0000     -10.336330      -281.2658
   3   2.0000     -10.329622      -281.0833
   4   2.0000     -10.319941      -280.8199
   5   2.0000     -10.316886      -280.7367
   6   2.0000     -10.302038      -280.3327
   7   2.0000     -10.296323      -280.1772
   8   2.0000     -10.295482      -280.1543
   9   2.0000     -10.293051      -280.0882
  10   2.0000     -10.292068      -280.0614
  11   2.0000     -10.290318      -280.0138
  12   2.0000     -10.287836      -279.9463
  13   2.0000     -10.287110      -279.9265
  14   2.0000     -10.284030      -279.8427
  15   2.0000     -10.282350      -279.7970
  16   2.0000      -8.079163      -219.8452
  17   2.0000      -8.076121      -219.7624
  18   2.0000      -6.037946      -164.3009
  19   2.0000      -6.034762      -164.2142
  20   2.0000      -6.034140      -164.1973
  21   2.0000      -6.030860      -164.1080
  22   2.0000      -6.029512      -164.0714
  23   2.0000      -6.026600      -163.9921
  24   2.0000      -1.006180       -27.3795
  25   2.0000      -0.982192       -26.7268
  26   2.0000      -0.910296       -24.7704
  27   2.0000      -0.907176       -24.6855
  28   2.0000      -0.868893       -23.6438
  29   2.0000      -0.854026       -23.2392
  30   2.0000      -0.842580       -22.9278
  31   2.0000      -0.816002       -22.2045
  32   2.0000      -0.785224       -21.3670
  33   2.0000      -0.768825       -20.9208
  34   2.0000      -0.715526       -19.4705
  35   2.0000      -0.699874       -19.0445
  36   2.0000      -0.693124       -18.8609
  37   2.0000      -0.666105       -18.1257
  38   2.0000      -0.638772       -17.3819
  39   2.0000      -0.627105       -17.0644
  40   2.0000      -0.594833       -16.1862
  41   2.0000      -0.570705       -15.5297
  42   2.0000      -0.563340       -15.3293
  43   2.0000      -0.557979       -15.1834
  44   2.0000      -0.528758       -14.3882
  45   2.0000      -0.521753       -14.1976
  46   2.0000      -0.514040       -13.9878
  47   2.0000      -0.510781       -13.8990
  48   2.0000      -0.504167       -13.7191
  49   2.0000      -0.499304       -13.5868
  50   2.0000      -0.495365       -13.4796
  51   2.0000      -0.485784       -13.2189
  52   2.0000      -0.470122       -12.7927
  53   2.0000      -0.465117       -12.6565
  54   2.0000      -0.457663       -12.4536
  55   2.0000      -0.452480       -12.3126
  56   2.0000      -0.447440       -12.1755
  57   2.0000      -0.441998       -12.0274
  58   2.0000      -0.430923       -11.7260
  59   2.0000      -0.428168       -11.6511
  60   2.0000      -0.418524       -11.3886
  61   2.0000      -0.416106       -11.3228
  62   2.0000      -0.405230       -11.0269
  63   2.0000      -0.363237        -9.8842
  64   2.0000      -0.336637        -9.1604
  65   2.0000      -0.328004        -8.9254
  66   2.0000      -0.279689        -7.6107
  67   0.0000       0.014219         0.3869
  68   0.0000       0.075900         2.0654
  69   0.0000       0.092466         2.5161
  70   0.0000       0.123185         3.3520
  71   0.0000       0.130202         3.5430

MULLIKEN ATOMIC CHARGES
-----------------------
   0 S :    0.075914
   1 C :   -0.169108
   2 C :   -0.083146
   3 C :    0.003548
   4 C :   -0.061442
   5 H :   -0.039450
   6 C :    0.087098
   7 H :    0.003045
   8 H :    0.026503
   9 C :   -0.074083
  10 H :    0.033426
  11 H :    0.042972
  12 C :   -0.095139
  13 H :    0.044248
  14 H :    0.046388
  15 H :    0.042882
  16 S :    0.071468
  17 C :   -0.072629
  18 C :   -0.007289
  19 C :   -0.095969
  20 C :   -0.087254
  21 H :    0.001847
  22 C :    0.051210
  23 H :    0.021722
  24 H :    0.009147
  25 C :   -0.051565
  26 H :    0.034971
  27 H :    0.040667
  28 C :   -0.041283
  29 H :    0.027034
  30 H :    0.025100
  31 H :    0.046101
  32 H :    0.075790
  33 H :    0.067276
Sum of atomic charges:   -0.0000000

LOEWDIN ATOMIC CHARGES
----------------------
   0 S :    0.370287
   1 C :   -0.189942
   2 C :   -0.067291
   3 C :   -0.075831
   4 C :   -0.173101
   5 H :    0.023382
   6 C :   -0.029995
   7 H :    0.026478
   8 H :    0.031229
   9 C :   -0.047011
  10 H :    0.028660
  11 H :    0.028330
  12 C :   -0.074723
  13 H :    0.034762
  14 H :    0.030013
  15 H :    0.024765
  16 S :    0.346991
  17 C :   -0.172195
  18 C :   -0.070881
  19 C :   -0.049599
  20 C :   -0.156629
  21 H :    0.025679
  22 C :   -0.027745
  23 H :    0.024493
  24 H :    0.020636
  25 C :   -0.027016
  26 H :    0.032241
  27 H :    0.020971
  28 C :   -0.069148
  29 H :    0.024295
  30 H :    0.025817
  31 H :    0.030763
  32 H :    0.045298
  33 H :    0.036017

  Mayer bond orders larger than 0.100000
B(  0-S ,  1-C ) :   1.1119 B(  0-S ,  4-C ) :   1.1280 B(  1-C ,  2-C ) :   1.6338
B(  1-C , 32-H ) :   0.9563 B(  2-C ,  3-C ) :   1.2656 B(  2-C ,  6-C ) :   1.0224
B(  3-C ,  4-C ) :   1.5545 B(  3-C ,  5-H ) :   1.0016 B(  4-C , 20-C ) :   1.0988
B(  6-C ,  7-H ) :   0.9387 B(  6-C ,  8-H ) :   0.9328 B(  6-C ,  9-C ) :   1.0501
B(  9-C , 10-H ) :   0.9664 B(  9-C , 11-H ) :   0.9584 B(  9-C , 12-C ) :   1.0610
B( 12-C , 13-H ) :   0.9843 B( 12-C , 14-H ) :   0.9787 B( 12-C , 15-H ) :   0.9764
B( 16-S , 17-C ) :   1.1387 B( 16-S , 20-C ) :   1.0992 B( 17-C , 18-C ) :   1.6141
B( 17-C , 33-H ) :   0.9611 B( 18-C , 19-C ) :   1.2574 B( 18-C , 21-H ) :   0.9880
B( 19-C , 20-C ) :   1.5880 B( 19-C , 22-C ) :   1.0523 B( 22-C , 23-H ) :   0.9345
B( 22-C , 24-H ) :   0.9310 B( 22-C , 25-C ) :   1.0344 B( 25-C , 26-H ) :   0.9559
B( 25-C , 27-H ) :   0.9657 B( 25-C , 28-C ) :   1.0698 B( 28-C , 29-H ) :   0.9733
B( 28-C , 30-H ) :   0.9719 B( 28-C , 31-H ) :   0.9755

Dispersion correction           -0.014578962
FINAL SINGLE POINT ENERGY     -1339.858138373763

DIPOLE MOMENT
-------------
                                X             Y             Z
Electronic contribution:      7.03979      16.27284      28.25703
Nuclear contribution   :     -7.12341     -16.42686     -29.17090
                        -----------------------------------------
Total Dipole Moment    :     -0.08361      -0.15402      -0.91387
                        -----------------------------------------
Magnitude (a.u.)       :      0.93052
Magnitude (Debye)      :      2.36519

Rotational constants in cm-1:     0.019610     0.009125     0.006483
Rotational constants in MHz :   587.886833   273.570639   194.360991

                             ****ORCA TERMINATED NORMALLY****
TOTAL RUN TIME: 0 days 0 hours 0 minutes 34 seconds 18 msec
