                         Program Version 4.2.1 -  RELEASE  -
|  1> ! wB97X-D3 SP def2-SVP
|  2> %pal
|  3> nprocs 16
|  4> end
|  5>
|  6> * xyz 0 1
|  7> S 	 -2.00122 	 77.5368 	 49.2657
|  8> C 	 -0.478514 	 78.317 	 48.6389
|  9> C 	 0.537306 	 78.3583 	 49.5576
| 10> C 	 0.0726184 	 77.8402 	 50.8104
| 11> C 	 -1.23656 	 77.3911 	 50.8598
| 12> H 	 0.705118 	 77.9212 	 51.7271
| 13> C 	 2.01207 	 78.7816 	 49.3494
| 14> H 	 2.35024 	 79.6023 	 49.9936
| 15> H 	 2.14819 	 79.1285 	 48.3679
| 16> C 	 2.98005 	 77.6297 	 49.618
| 17> H 	 2.95488 	 77.3866 	 50.6821
| 18> H 	 2.5567 	 76.8115 	 49.0571
| 19> C 	 4.45042 	 77.8504 	 49.2366
| 20> H 	 5.02629 	 77.7171 	 50.1778
| 21> H 	 4.73842 	 77.1871 	 48.4672
| 22> H 	 4.76874 	 78.832 	 48.9023
| 23> S 	 -2.99446 	 77.9434 	 52.9846
| 24> C 	 -3.20579 	 76.6798 	 54.1672
| 25> C 	 -2.32289 	 75.6572 	 53.978
| 26> C 	 -1.69005 	 75.6262 	 52.6857
| 27> C 	 -1.89434 	 76.8631 	 52.0656
| 28> H 	 -2.27595 	 74.9533 	 54.8576
| 29> C 	 -0.753576 	 74.5196 	 52.3848
| 30> H 	 -0.257657 	 74.7975 	 51.4062
| 31> H 	 -1.39681 	 73.7144 	 52.1201
| 32> C 	 0.310711 	 74.0111 	 53.3664
| 33> H 	 0.888371 	 73.2275 	 52.9239
| 34> H 	 -0.174457 	 73.5811 	 54.2256
| 35> C 	 1.26913 	 75.0703 	 53.8764
| 36> H 	 2.15966 	 74.6863 	 54.4136
| 37> H 	 0.856385 	 75.7887 	 54.5725
| 38> H 	 1.69878 	 75.6718 	 53.1014
| 39> H 	 -0.35109 	 78.7519 	 47.6658
| 40> H 	 -3.65951 	 76.928 	 55.1902
| 41> *
| 42>
| 43>                          ****END OF INPUT****

CARTESIAN COORDINATES (ANGSTROEM)
---------------------------------
  S     -2.001220   77.536800   49.265700
  C     -0.478514   78.317000   48.638900
  C      0.537306   78.358300   49.557600
  C      0.072618   77.840200   50.810400
  C     -1.236560   77.391100   50.859800
  H      0.705118   77.921200   51.727100
  C      2.012070   78.781600   49.349400
  H      2.350240   79.602300   49.993600
  H      2.148190   79.128500   48.367900
  C      2.980050   77.629700   49.618000
  H      2.954880   77.386600   50.682100
  H      2.556700   76.811500   49.057100
  C      4.450420   77.850400   49.236600
  H      5.026290   77.717100   50.177800
  H      4.738420   77.187100   48.467200
  H      4.768740   78.832000   48.902300
  S     -2.994460   77.943400   52.984600
  C     -3.205790   76.679800   54.167200
  C     -2.322890   75.657200   53.978000
  C     -1.690050   75.626200   52.685700
  C     -1.894340   76.863100   52.065600
  H     -2.275950   74.953300   54.857600
  C     -0.753576   74.519600   52.384800
  H     -0.257657   74.797500   51.406200
  H     -1.396810   73.714400   52.120100
  C      0.310711   74.011100   53.366400
  H      0.888371   73.227500   52.923900
  H     -0.174457   73.581100   54.225600
  C      1.269130   75.070300   53.876400
  H      2.159660   74.686300   54.413600
  H      0.856385   75.788700   54.572500
  H      1.698780   75.671800   53.101400
  H     -0.351090   78.751900   47.665800
  H     -3.659510   76.928000   55.190200

 Total Charge           Charge          ....    0
 Multiplicity           Mult            ....    1
 Number of Electrons    NEL             ....  134
 Basis Dimension        Dim             ....  322

ORBITAL ENERGIES
----------------

  NO   OCC          E(Eh)            E(eV)
   0   2.0000     -88.967318     -2420.9238
   1   2.0000     -88.963676     -2420.8247
   2   2.0000     -10.331604      -281.1372
   3   2.0000     -10.330245      -281.1003
   4   2.0000     -10.318146      -280.7710
   5   2.0000     -10.317655      -280.7577
   6   2.0000     -10.307854      -280.4910
   7   2.0000     -10.302780      -280.3529
   8   2.0000     -10.296325      -280.1773
   9   2.0000     -10.295187      -280.1463
  10   2.0000     -10.293117      -280.0900
  11   2.0000     -10.290312      -280.0136
  12   2.0000     -10.288016      -279.9512
  13   2.0000     -10.284961      -279.8680
  14   2.0000     -10.277939      -279.6770
  15   2.0000     -10.273786      -279.5639
  16   2.0000      -8.080488      -219.8813
  17   2.0000      -8.078121      -219.8169
  18   2.0000      -6.039201      -164.3350
  19   2.0000      -6.036579      -164.2637
  20   2.0000      -6.035371      -164.2308
  21   2.0000      -6.032869      -164.1627
  22   2.0000      -6.030956      -164.1106
  23   2.0000      -6.028735      -164.0502
  24   2.0000      -0.998638       -27.1743
  25   2.0000      -0.977452       -26.5978
  26   2.0000      -0.912523       -24.8310
  27   2.0000      -0.911642       -24.8070
  28   2.0000      -0.866297       -23.5732
  29   2.0000      -0.851712       -23.1763
  30   2.0000      -0.841096       -22.8874
  31   2.0000      -0.809220       -22.0200
  32   2.0000      -0.788674       -21.4609
  33   2.0000      -0.777555       -21.1584
  34   2.0000      -0.714401       -19.4398
  35   2.0000      -0.699741       -19.0409
  36   2.0000      -0.691036       -18.8040
  37   2.0000      -0.647538       -17.6204
  38   2.0000      -0.636575       -17.3221
  39   2.0000      -0.616830       -16.7848
  40   2.0000      -0.593185       -16.1414
  41   2.0000      -0.577277       -15.7085
  42   2.0000      -0.559501       -15.2248
  43   2.0000      -0.553760       -15.0686
  44   2.0000      -0.544203       -14.8085
  45   2.0000      -0.517846       -14.0913
  46   2.0000      -0.516564       -14.0564
  47   2.0000      -0.508969       -13.8498
  48   2.0000      -0.505105       -13.7446
  49   2.0000      -0.494533       -13.4569
  50   2.0000      -0.487598       -13.2682
  51   2.0000      -0.479237       -13.0407
  52   2.0000      -0.467476       -12.7207
  53   2.0000      -0.457291       -12.4435
  54   2.0000      -0.455816       -12.4034
  55   2.0000      -0.449641       -12.2354
  56   2.0000      -0.443075       -12.0567
  57   2.0000      -0.440075       -11.9751
  58   2.0000      -0.429921       -11.6987
  59   2.0000      -0.428470       -11.6593
  60   2.0000      -0.422207       -11.4889
  61   2.0000      -0.421518       -11.4701
  62   2.0000      -0.413994       -11.2653
  63   2.0000      -0.334247        -9.0953
  64   2.0000      -0.327335        -8.9072
  65   2.0000      -0.322825        -8.7845
  66   2.0000      -0.309427        -8.4199
  67   0.0000       0.039987         1.0881
  68   0.0000       0.054818         1.4917
  69   0.0000       0.107583         2.9275
  70   0.0000       0.110864         3.0168
  71   0.0000       0.128452         3.4953

MULLIKEN ATOMIC CHARGES
-----------------------
   0 S :    0.106174
   1 C :   -0.127470
   2 C :   -0.080847
   3 C :    0.019883
   4 C :   -0.169965
   5 H :    0.030259
   6 C :    0.114916
   7 H :    0.031513
   8 H :   -0.001154
   9 C :   -0.117597
  10 H :    0.034180
  11 H :    0.035018
  12 C :   -0.027103
  13 H :    0.035161
  14 H :    0.034223
  15 H :    0.022449
  16 S :    0.107883
  17 C :   -0.122333
  18 C :   -0.077835
  19 C :    0.000898
  20 C :   -0.187958
  21 H :    0.042777
  22 C :    0.061477
  23 H :    0.032989
  24 H :    0.030255
  25 C :   -0.015230
  26 H :    0.029117
  27 H :    0.021095
  28 C :   -0.058200
  29 H :    0.029130
  30 H :    0.030750
  31 H :    0.014589
  32 H :    0.037833
  33 H :    0.083125
Sum of atomic charges:   -0.0000000

LOEWDIN ATOMIC CHARGES
----------------------
   0 S :    0.366816
   1 C :   -0.169683
   2 C :   -0.062807
   3 C :   -0.059524
   4 C :   -0.195551
   5 H :    0.036152
   6 C :   -0.022458
   7 H :    0.031301
   8 H :    0.018878
   9 C :   -0.041195
  10 H :    0.022290
  11 H :    0.024903
  12 C :   -0.066687
  13 H :    0.034958
  14 H :    0.024325
  15 H :    0.023367
  16 S :    0.387421
  17 C :   -0.203090
  18 C :   -0.080645
  19 C :   -0.048533
  20 C :   -0.187490
  21 H :    0.041130
  22 C :   -0.036900
  23 H :    0.037864
  24 H :    0.035303
  25 C :   -0.031421
  26 H :    0.029040
  27 H :    0.021630
  28 C :   -0.070987
  29 H :    0.029976
  30 H :    0.024772
  31 H :    0.018718
  32 H :    0.024386
  33 H :    0.043742

  Mayer bond orders larger than 0.100000
B(  0-S ,  1-C ) :   1.1210 B(  0-S ,  4-C ) :   1.1211 B(  1-C ,  2-C ) :   1.6605
B(  1-C , 32-H ) :   0.9614 B(  2-C ,  3-C ) :   1.2127 B(  2-C ,  6-C ) :   1.0266
B(  3-C ,  4-C ) :   1.6203 B(  3-C ,  5-H ) :   0.9815 B(  4-C , 20-C ) :   1.0264
B(  6-C ,  7-H ) :   0.9366 B(  6-C ,  8-H ) :   0.9393 B(  6-C ,  9-C ) :   1.0614
B(  9-C , 10-H ) :   0.9630 B(  9-C , 11-H ) :   0.9638 B(  9-C , 12-C ) :   1.0634
B( 12-C , 13-H ) :   0.9797 B( 12-C , 14-H ) :   0.9790 B( 12-C , 15-H ) :   0.9777
B( 16-S , 17-C ) :   1.1407 B( 16-S , 20-C ) :   1.1439 B( 17-C , 18-C ) :   1.6726
B( 17-C , 33-H ) :   0.9499 B( 18-C , 19-C ) :   1.1904 B( 18-C , 21-H ) :   0.9735
B( 19-C , 20-C ) :   1.6039 B( 19-C , 22-C ) :   1.0512 B( 22-C , 23-H ) :   0.9285
B( 22-C , 24-H ) :   0.9163 B( 22-C , 25-C ) :   1.0848 B( 25-C , 26-H ) :   0.9504
B( 25-C , 27-H ) :   0.9461 B( 25-C , 28-C ) :   1.0822 B( 28-C , 29-H ) :   0.9718
B( 28-C , 30-H ) :   0.9724 B( 28-C , 31-H ) :   0.9741

Dispersion correction           -0.014932600
FINAL SINGLE POINT ENERGY     -1339.867598347965

DIPOLE MOMENT
-------------
                                X             Y             Z
Electronic contribution:    -29.81096       8.38119      -2.45363
Nuclear contribution   :     30.65785      -8.59057       2.70568
                        -----------------------------------------
Total Dipole Moment    :      0.84689      -0.20938       0.25205
                        -----------------------------------------
Magnitude (a.u.)       :      0.90807
Magnitude (Debye)      :      2.30813

Rotational constants in cm-1:     0.017511     0.009224     0.006906
Rotational constants in MHz :   524.976417   276.524363   207.044204

                             ****ORCA TERMINATED NORMALLY****
TOTAL RUN TIME: 0 days 0 hours 0 minutes 35 seconds 29 msec
