                         Program Version 4.2.1 -  RELEASE  -
|  1> ! wB97X-D3 SP def2-SVP
|  2> %pal
|  3> nprocs 16
|  4> end
|  5>
|  6> * xyz 0 1
|  7> S 	 58.8032 	 22.0017 	 79.37
|  8> C 	 57.8321 	 22.874 	 80.5101
|  9> C 	 57.433 	 22.1094 	 81.6257
| 10> C 	 57.8779 	 20.7431 	 81.4375
| 11> C 	 58.4028 	 20.5293 	 80.221
| 12> H 	 57.7687 	 19.9926 	 82.1459
| 13> C 	 56.7919 	 22.5961 	 82.9129
| 14> H 	 56.7875 	 23.6385 	 82.8175
| 15> H 	 57.315 	 22.2074 	 83.7902
| 16> C 	 55.3281 	 22.2616 	 83.1221
| 17> H 	 54.9066 	 22.7696 	 84.0107
| 18> H 	 54.7591 	 22.5892 	 82.3245
| 19> C 	 55.1381 	 20.7408 	 83.2229
| 20> H 	 54.1675 	 20.4975 	 83.494
| 21> H 	 55.3477 	 20.3269 	 82.2343
| 22> H 	 55.8255 	 20.2581 	 83.9395
| 23> S 	 60.5704 	 18.9443 	 79.6095
| 24> C 	 60.3816 	 17.1969 	 79.7429
| 25> C 	 59.0488 	 16.8488 	 79.9919
| 26> C 	 58.1669 	 17.9935 	 79.9159
| 27> C 	 58.8559 	 19.222 	 79.7673
| 28> H 	 58.7841 	 15.8276 	 80.1502
| 29> C 	 56.7518 	 17.9422 	 80.1209
| 30> H 	 56.4572 	 17.327 	 79.3029
| 31> H 	 56.4328 	 18.97 	 79.9907
| 32> C 	 56.2973 	 17.2893 	 81.4196
| 33> H 	 56.8707 	 17.7176 	 82.2621
| 34> H 	 56.5726 	 16.2471 	 81.6365
| 35> C 	 54.7868 	 17.5126 	 81.6762
| 36> H 	 54.4941 	 17.3215 	 82.7535
| 37> H 	 54.2418 	 16.9014 	 80.9419
| 38> H 	 54.3621 	 18.566 	 81.6094
| 39> H 	 57.9029 	 23.9322 	 80.5559
| 40> H 	 61.1251 	 16.4406 	 79.5697
| 41> *
| 42>
| 43>                          ****END OF INPUT****

CARTESIAN COORDINATES (ANGSTROEM)
---------------------------------
  S     58.803200   22.001700   79.370000
  C     57.832100   22.874000   80.510100
  C     57.433000   22.109400   81.625700
  C     57.877900   20.743100   81.437500
  C     58.402800   20.529300   80.221000
  H     57.768700   19.992600   82.145900
  C     56.791900   22.596100   82.912900
  H     56.787500   23.638500   82.817500
  H     57.315000   22.207400   83.790200
  C     55.328100   22.261600   83.122100
  H     54.906600   22.769600   84.010700
  H     54.759100   22.589200   82.324500
  C     55.138100   20.740800   83.222900
  H     54.167500   20.497500   83.494000
  H     55.347700   20.326900   82.234300
  H     55.825500   20.258100   83.939500
  S     60.570400   18.944300   79.609500
  C     60.381600   17.196900   79.742900
  C     59.048800   16.848800   79.991900
  C     58.166900   17.993500   79.915900
  C     58.855900   19.222000   79.767300
  H     58.784100   15.827600   80.150200
  C     56.751800   17.942200   80.120900
  H     56.457200   17.327000   79.302900
  H     56.432800   18.970000   79.990700
  C     56.297300   17.289300   81.419600
  H     56.870700   17.717600   82.262100
  H     56.572600   16.247100   81.636500
  C     54.786800   17.512600   81.676200
  H     54.494100   17.321500   82.753500
  H     54.241800   16.901400   80.941900
  H     54.362100   18.566000   81.609400
  H     57.902900   23.932200   80.555900
  H     61.125100   16.440600   79.569700

 Total Charge           Charge          ....    0
 Multiplicity           Mult            ....    1
 Number of Electrons    NEL             ....  134
 Basis Dimension        Dim             ....  322

ORBITAL ENERGIES
----------------

  NO   OCC          E(Eh)            E(eV)
   0   2.0000     -88.966322     -2420.8967
   1   2.0000     -88.963739     -2420.8264
   2   2.0000     -10.323544      -280.9179
   3   2.0000     -10.320708      -280.8407
   4   2.0000     -10.320186      -280.8265
   5   2.0000     -10.313636      -280.6483
   6   2.0000     -10.306112      -280.4436
   7   2.0000     -10.300427      -280.2889
   8   2.0000     -10.295740      -280.1613
   9   2.0000     -10.292740      -280.0797
  10   2.0000     -10.289094      -279.9805
  11   2.0000     -10.287903      -279.9481
  12   2.0000     -10.287021      -279.9241
  13   2.0000     -10.280472      -279.7459
  14   2.0000     -10.280374      -279.7432
  15   2.0000     -10.272073      -279.5173
  16   2.0000      -8.081681      -219.9137
  17   2.0000      -8.078313      -219.8221
  18   2.0000      -6.040038      -164.3578
  19   2.0000      -6.036882      -164.2719
  20   2.0000      -6.036387      -164.2584
  21   2.0000      -6.032776      -164.1602
  22   2.0000      -6.032292      -164.1470
  23   2.0000      -6.029083      -164.0597
  24   2.0000      -1.009015       -27.4567
  25   2.0000      -0.982355       -26.7312
  26   2.0000      -0.919606       -25.0238
  27   2.0000      -0.916342       -24.9349
  28   2.0000      -0.870592       -23.6900
  29   2.0000      -0.852602       -23.2005
  30   2.0000      -0.845990       -23.0206
  31   2.0000      -0.819446       -22.2983
  32   2.0000      -0.784976       -21.3603
  33   2.0000      -0.766560       -20.8592
  34   2.0000      -0.708517       -19.2797
  35   2.0000      -0.704924       -19.1819
  36   2.0000      -0.697309       -18.9747
  37   2.0000      -0.662391       -18.0246
  38   2.0000      -0.646212       -17.5843
  39   2.0000      -0.621638       -16.9156
  40   2.0000      -0.592975       -16.1357
  41   2.0000      -0.580674       -15.8009
  42   2.0000      -0.570033       -15.5114
  43   2.0000      -0.553793       -15.0695
  44   2.0000      -0.545267       -14.8375
  45   2.0000      -0.528928       -14.3929
  46   2.0000      -0.524413       -14.2700
  47   2.0000      -0.517158       -14.0726
  48   2.0000      -0.504469       -13.7273
  49   2.0000      -0.496062       -13.4985
  50   2.0000      -0.485720       -13.2171
  51   2.0000      -0.483162       -13.1475
  52   2.0000      -0.468692       -12.7538
  53   2.0000      -0.467595       -12.7239
  54   2.0000      -0.453838       -12.3496
  55   2.0000      -0.450946       -12.2709
  56   2.0000      -0.443303       -12.0629
  57   2.0000      -0.441076       -12.0023
  58   2.0000      -0.435896       -11.8613
  59   2.0000      -0.431839       -11.7509
  60   2.0000      -0.425220       -11.5708
  61   2.0000      -0.417229       -11.3534
  62   2.0000      -0.406207       -11.0535
  63   2.0000      -0.344546        -9.3756
  64   2.0000      -0.329854        -8.9758
  65   2.0000      -0.320916        -8.7326
  66   2.0000      -0.293490        -7.9863
  67   0.0000       0.029579         0.8049
  68   0.0000       0.065690         1.7875
  69   0.0000       0.101023         2.7490
  70   0.0000       0.121277         3.3001
  71   0.0000       0.129057         3.5118

MULLIKEN ATOMIC CHARGES
-----------------------
   0 S :    0.112704
   1 C :   -0.092120
   2 C :   -0.137437
   3 C :    0.063451
   4 C :   -0.171916
   5 H :   -0.019627
   6 C :    0.114846
   7 H :    0.000549
   8 H :    0.038177
   9 C :   -0.041413
  10 H :    0.031805
  11 H :    0.008186
  12 C :   -0.063791
  13 H :    0.019034
  14 H :    0.046265
  15 H :    0.023571
  16 S :    0.100380
  17 C :   -0.089257
  18 C :   -0.028048
  19 C :   -0.091101
  20 C :   -0.106098
  21 H :    0.012109
  22 C :    0.118990
  23 H :    0.026770
  24 H :    0.035292
  25 C :   -0.084823
  26 H :    0.014676
  27 H :    0.030847
  28 C :   -0.080472
  29 H :    0.038372
  30 H :    0.037909
  31 H :    0.036640
  32 H :    0.040054
  33 H :    0.055475
Sum of atomic charges:   -0.0000000

LOEWDIN ATOMIC CHARGES
----------------------
   0 S :    0.409176
   1 C :   -0.198210
   2 C :   -0.052445
   3 C :   -0.044514
   4 C :   -0.197600
   5 H :    0.019151
   6 C :   -0.024699
   7 H :    0.024095
   8 H :    0.035616
   9 C :   -0.030168
  10 H :    0.026298
  11 H :    0.014546
  12 C :   -0.059984
  13 H :    0.013598
  14 H :    0.025190
  15 H :    0.022927
  16 S :    0.402334
  17 C :   -0.176355
  18 C :   -0.069678
  19 C :   -0.047132
  20 C :   -0.216194
  21 H :    0.026945
  22 C :   -0.037015
  23 H :    0.036527
  24 H :    0.036944
  25 C :   -0.045702
  26 H :    0.020905
  27 H :    0.029292
  28 C :   -0.077483
  29 H :    0.031797
  30 H :    0.025270
  31 H :    0.030674
  32 H :    0.017303
  33 H :    0.028590

  Mayer bond orders larger than 0.100000
B(  0-S ,  1-C ) :   1.1452 B(  0-S ,  4-C ) :   1.1412 B(  1-C ,  2-C ) :   1.6295
B(  1-C , 32-H ) :   0.9625 B(  2-C ,  3-C ) :   1.2159 B(  2-C ,  6-C ) :   1.0294
B(  3-C ,  4-C ) :   1.5898 B(  3-C ,  5-H ) :   1.0058 B(  4-C , 20-C ) :   1.0103
B(  6-C ,  7-H ) :   0.9244 B(  6-C ,  8-H ) :   0.9443 B(  6-C ,  9-C ) :   1.0810
B(  9-C , 10-H ) :   0.9557 B(  9-C , 11-H ) :   0.9473 B(  9-C , 12-C ) :   1.0874
B( 12-C , 13-H ) :   0.9711 B( 12-C , 14-H ) :   0.9630 B( 12-C , 15-H ) :   0.9712
B( 16-S , 17-C ) :   1.1664 B( 16-S , 20-C ) :   1.1324 B( 17-C , 18-C ) :   1.5926
B( 17-C , 33-H ) :   0.9677 B( 18-C , 19-C ) :   1.2386 B( 18-C , 21-H ) :   0.9971
B( 19-C , 20-C ) :   1.5686 B( 19-C , 22-C ) :   1.0702 B( 22-C , 23-H ) :   0.9045
B( 22-C , 24-H ) :   0.9334 B( 22-C , 25-C ) :   1.0524 B( 25-C , 26-H ) :   0.9550
B( 25-C , 27-H ) :   0.9454 B( 25-C , 28-C ) :   1.0782 B( 28-C , 29-H ) :   0.9735
B( 28-C , 30-H ) :   0.9724 B( 28-C , 31-H ) :   0.9716

Dispersion correction           -0.016718728
FINAL SINGLE POINT ENERGY     -1339.857210429720

DIPOLE MOMENT
-------------
                                X             Y             Z
Electronic contribution:     25.75805       5.84735     -18.15774
Nuclear contribution   :    -26.18437      -6.09539      18.75102
                        -----------------------------------------
Total Dipole Moment    :     -0.42632      -0.24804       0.59328
                        -----------------------------------------
Magnitude (a.u.)       :      0.77152
Magnitude (Debye)      :      1.96106

Rotational constants in cm-1:     0.017127     0.011592     0.007564
Rotational constants in MHz :   513.441839   347.508490   226.773822

                             ****ORCA TERMINATED NORMALLY****
TOTAL RUN TIME: 0 days 0 hours 0 minutes 34 seconds 168 msec
