                         Program Version 4.2.1 -  RELEASE  -
|  1> ! wB97X-D3 SP def2-SVP
|  2> %pal
|  3> nprocs 16
|  4> end
|  5>
|  6> * xyz 0 1
|  7> S 	 -69.343 	 39.6038 	 122.841
|  8> C 	 -69.3727 	 39.9749 	 124.496
|  9> C 	 -69.1108 	 38.9251 	 125.328
| 10> C 	 -68.7901 	 37.7488 	 124.542
| 11> C 	 -68.963 	 37.9222 	 123.154
| 12> H 	 -68.5401 	 36.7965 	 124.993
| 13> C 	 -69.247 	 38.9307 	 126.865
| 14> H 	 -68.5488 	 39.5522 	 127.441
| 15> H 	 -68.975 	 37.9068 	 127.177
| 16> C 	 -70.6691 	 39.1147 	 127.328
| 17> H 	 -70.9061 	 40.1518 	 127.046
| 18> H 	 -71.3511 	 38.5042 	 126.776
| 19> C 	 -70.9004 	 38.9817 	 128.83
| 20> H 	 -70.4062 	 39.8247 	 129.281
| 21> H 	 -71.9677 	 39.2032 	 129.119
| 22> H 	 -70.5635 	 38.1201 	 129.318
| 23> S 	 -67.6271 	 37.3502 	 120.868
| 24> C 	 -68.0619 	 35.8967 	 120.013
| 25> C 	 -68.9016 	 35.0848 	 120.716
| 26> C 	 -69.224 	 35.6111 	 121.982
| 27> C 	 -68.8276 	 36.9467 	 122.08
| 28> H 	 -69.2113 	 34.1252 	 120.334
| 29> C 	 -70.1556 	 34.8903 	 122.876
| 30> H 	 -71.1909 	 34.8956 	 122.521
| 31> H 	 -70.2566 	 35.4693 	 123.825
| 32> C 	 -69.754 	 33.3912 	 123.071
| 33> H 	 -69.8519 	 32.829 	 122.159
| 34> H 	 -70.5649 	 33.082 	 123.703
| 35> C 	 -68.3733 	 33.1327 	 123.698
| 36> H 	 -68.223 	 32.1341 	 123.989
| 37> H 	 -68.1993 	 33.7773 	 124.59
| 38> H 	 -67.605 	 33.3254 	 122.961
| 39> H 	 -69.4998 	 41.0031 	 124.744
| 40> H 	 -67.7045 	 35.5303 	 119.029
| 41> *
| 42>
| 43>                          ****END OF INPUT****

CARTESIAN COORDINATES (ANGSTROEM)
---------------------------------
  S    -69.343000   39.603800  122.841000
  C    -69.372700   39.974900  124.496000
  C    -69.110800   38.925100  125.328000
  C    -68.790100   37.748800  124.542000
  C    -68.963000   37.922200  123.154000
  H    -68.540100   36.796500  124.993000
  C    -69.247000   38.930700  126.865000
  H    -68.548800   39.552200  127.441000
  H    -68.975000   37.906800  127.177000
  C    -70.669100   39.114700  127.328000
  H    -70.906100   40.151800  127.046000
  H    -71.351100   38.504200  126.776000
  C    -70.900400   38.981700  128.830000
  H    -70.406200   39.824700  129.281000
  H    -71.967700   39.203200  129.119000
  H    -70.563500   38.120100  129.318000
  S    -67.627100   37.350200  120.868000
  C    -68.061900   35.896700  120.013000
  C    -68.901600   35.084800  120.716000
  C    -69.224000   35.611100  121.982000
  C    -68.827600   36.946700  122.080000
  H    -69.211300   34.125200  120.334000
  C    -70.155600   34.890300  122.876000
  H    -71.190900   34.895600  122.521000
  H    -70.256600   35.469300  123.825000
  C    -69.754000   33.391200  123.071000
  H    -69.851900   32.829000  122.159000
  H    -70.564900   33.082000  123.703000
  C    -68.373300   33.132700  123.698000
  H    -68.223000   32.134100  123.989000
  H    -68.199300   33.777300  124.590000
  H    -67.605000   33.325400  122.961000
  H    -69.499800   41.003100  124.744000
  H    -67.704500   35.530300  119.029000

 Total Charge           Charge          ....    0
 Multiplicity           Mult            ....    1
 Number of Electrons    NEL             ....  134
 Basis Dimension        Dim             ....  322

ORBITAL ENERGIES
----------------

  NO   OCC          E(Eh)            E(eV)
   0   2.0000     -88.965678     -2420.8792
   1   2.0000     -88.964344     -2420.8429
   2   2.0000     -10.329242      -281.0730
   3   2.0000     -10.324158      -280.9346
   4   2.0000     -10.314158      -280.6625
   5   2.0000     -10.306657      -280.4584
   6   2.0000     -10.302732      -280.3516
   7   2.0000     -10.298165      -280.2273
   8   2.0000     -10.298001      -280.2229
   9   2.0000     -10.295033      -280.1421
  10   2.0000     -10.291004      -280.0325
  11   2.0000     -10.286724      -279.9160
  12   2.0000     -10.286671      -279.9145
  13   2.0000     -10.282459      -279.7999
  14   2.0000     -10.275822      -279.6193
  15   2.0000     -10.274976      -279.5963
  16   2.0000      -8.080563      -219.8833
  17   2.0000      -8.080234      -219.8744
  18   2.0000      -6.039030      -164.3304
  19   2.0000      -6.038590      -164.3184
  20   2.0000      -6.035228      -164.2269
  21   2.0000      -6.034484      -164.2066
  22   2.0000      -6.031195      -164.1172
  23   2.0000      -6.031166      -164.1164
  24   2.0000      -1.008868       -27.4527
  25   2.0000      -0.988269       -26.8922
  26   2.0000      -0.914235       -24.8776
  27   2.0000      -0.909386       -24.7456
  28   2.0000      -0.870328       -23.6828
  29   2.0000      -0.851236       -23.1633
  30   2.0000      -0.846871       -23.0445
  31   2.0000      -0.812712       -22.1150
  32   2.0000      -0.785688       -21.3796
  33   2.0000      -0.774074       -21.0636
  34   2.0000      -0.707853       -19.2616
  35   2.0000      -0.701672       -19.0935
  36   2.0000      -0.692262       -18.8374
  37   2.0000      -0.660605       -17.9760
  38   2.0000      -0.644634       -17.5414
  39   2.0000      -0.618393       -16.8273
  40   2.0000      -0.597620       -16.2621
  41   2.0000      -0.568589       -15.4721
  42   2.0000      -0.564753       -15.3677
  43   2.0000      -0.552379       -15.0310
  44   2.0000      -0.537120       -14.6158
  45   2.0000      -0.523734       -14.2515
  46   2.0000      -0.519125       -14.1261
  47   2.0000      -0.505466       -13.7544
  48   2.0000      -0.505446       -13.7539
  49   2.0000      -0.496201       -13.5023
  50   2.0000      -0.492639       -13.4054
  51   2.0000      -0.480352       -13.0710
  52   2.0000      -0.472988       -12.8707
  53   2.0000      -0.463939       -12.6244
  54   2.0000      -0.460503       -12.5309
  55   2.0000      -0.451137       -12.2761
  56   2.0000      -0.446942       -12.1619
  57   2.0000      -0.443550       -12.0696
  58   2.0000      -0.432281       -11.7630
  59   2.0000      -0.427636       -11.6366
  60   2.0000      -0.424407       -11.5487
  61   2.0000      -0.413554       -11.2534
  62   2.0000      -0.410699       -11.1757
  63   2.0000      -0.345142        -9.3918
  64   2.0000      -0.330896        -9.0041
  65   2.0000      -0.329772        -8.9736
  66   2.0000      -0.289796        -7.8858
  67   0.0000       0.029668         0.8073
  68   0.0000       0.073550         2.0014
  69   0.0000       0.110828         3.0158
  70   0.0000       0.122071         3.3217
  71   0.0000       0.130918         3.5624

MULLIKEN ATOMIC CHARGES
-----------------------
   0 S :    0.118625
   1 C :   -0.129421
   2 C :   -0.076084
   3 C :    0.041738
   4 C :   -0.183750
   5 H :    0.009296
   6 C :    0.073991
   7 H :    0.034739
   8 H :    0.003658
   9 C :   -0.069733
  10 H :    0.018731
  11 H :    0.026142
  12 C :   -0.026136
  13 H :    0.014609
  14 H :    0.036649
  15 H :    0.026794
  16 S :    0.114569
  17 C :   -0.078691
  18 C :   -0.041218
  19 C :   -0.012219
  20 C :   -0.142816
  21 H :    0.011121
  22 C :    0.034988
  23 H :    0.042021
  24 H :    0.018420
  25 C :   -0.082816
  26 H :    0.028327
  27 H :    0.022627
  28 C :   -0.025434
  29 H :    0.023789
  30 H :    0.033688
  31 H :    0.035268
  32 H :    0.043153
  33 H :    0.055377
Sum of atomic charges:    0.0000000

LOEWDIN ATOMIC CHARGES
----------------------
   0 S :    0.430213
   1 C :   -0.203599
   2 C :   -0.064947
   3 C :   -0.058483
   4 C :   -0.204846
   5 H :    0.027118
   6 C :   -0.031281
   7 H :    0.030586
   8 H :    0.026140
   9 C :   -0.039465
  10 H :    0.023865
  11 H :    0.020276
  12 C :   -0.064362
  13 H :    0.024033
  14 H :    0.036033
  15 H :    0.015140
  16 S :    0.409682
  17 C :   -0.189855
  18 C :   -0.069914
  19 C :   -0.057187
  20 C :   -0.199316
  21 H :    0.029696
  22 C :   -0.035863
  23 H :    0.037530
  24 H :    0.031721
  25 C :   -0.036295
  26 H :    0.019799
  27 H :    0.023105
  28 C :   -0.061985
  29 H :    0.020051
  30 H :    0.029303
  31 H :    0.027379
  32 H :    0.020261
  33 H :    0.035467

  Mayer bond orders larger than 0.100000
B(  0-S ,  1-C ) :   1.1688 B(  0-S ,  4-C ) :   1.1639 B(  1-C ,  2-C ) :   1.5828
B(  1-C , 32-H ) :   0.9746 B(  2-C ,  3-C ) :   1.2750 B(  2-C ,  6-C ) :   1.0139
B(  3-C ,  4-C ) :   1.5461 B(  3-C ,  5-H ) :   0.9893 B(  4-C , 20-C ) :   1.0345
B(  6-C ,  7-H ) :   0.9428 B(  6-C ,  8-H ) :   0.9385 B(  6-C ,  9-C ) :   1.0631
B(  9-C , 10-H ) :   0.9535 B(  9-C , 11-H ) :   0.9573 B(  9-C , 12-C ) :   1.0840
B( 12-C , 13-H ) :   0.9700 B( 12-C , 14-H ) :   0.9720 B( 12-C , 15-H ) :   0.9788
B( 16-S , 17-C ) :   1.1439 B( 16-S , 20-C ) :   1.1488 B( 17-C , 18-C ) :   1.6340
B( 17-C , 33-H ) :   0.9588 B( 18-C , 19-C ) :   1.2228 B( 18-C , 21-H ) :   0.9906
B( 19-C , 20-C ) :   1.5764 B( 19-C , 22-C ) :   1.0630 B( 22-C , 23-H ) :   0.9366
B( 22-C , 24-H ) :   0.9326 B( 22-C , 25-C ) :   1.0645 B( 25-C , 26-H ) :   0.9540
B( 25-C , 27-H ) :   0.9554 B( 25-C , 28-C ) :   1.0765 B( 28-C , 29-H ) :   0.9732
B( 28-C , 30-H ) :   0.9759 B( 28-C , 31-H ) :   0.9709

Dispersion correction           -0.014160936
FINAL SINGLE POINT ENERGY     -1339.882372190744

DIPOLE MOMENT
-------------
                                X             Y             Z
Electronic contribution:      8.57805      13.34123     -24.55685
Nuclear contribution   :     -8.80381     -13.78446      24.99629
                        -----------------------------------------
Total Dipole Moment    :     -0.22576      -0.44323       0.43944
                        -----------------------------------------
Magnitude (a.u.)       :      0.66373
Magnitude (Debye)      :      1.68706

Rotational constants in cm-1:     0.019876     0.008237     0.006237
Rotational constants in MHz :   595.874500   246.929946   186.989282

                             ****ORCA TERMINATED NORMALLY****
TOTAL RUN TIME: 0 days 0 hours 0 minutes 33 seconds 383 msec
