                         Program Version 4.2.1 -  RELEASE  -
|  1> ! wB97X-D3 SP def2-SVP
|  2> %pal
|  3> nprocs 16
|  4> end
|  5>
|  6> * xyz 0 1
|  7> S 	 6.13942 	 19.3941 	 52.6829
|  8> C 	 5.27743 	 18.737 	 54.0111
|  9> C 	 4.35894 	 17.794 	 53.5167
| 10> C 	 4.45014 	 17.5954 	 52.1093
| 11> C 	 5.44001 	 18.3308 	 51.5269
| 12> H 	 3.83618 	 16.8778 	 51.5515
| 13> C 	 3.40692 	 17.087 	 54.4415
| 14> H 	 2.42246 	 17.3766 	 54.0738
| 15> H 	 3.41656 	 17.6989 	 55.3276
| 16> C 	 3.6547 	 15.5789 	 54.6569
| 17> H 	 3.63922 	 15.0821 	 53.6683
| 18> H 	 4.63656 	 15.2837 	 55.001
| 19> C 	 2.64949 	 14.9436 	 55.6859
| 20> H 	 2.42174 	 15.5968 	 56.5582
| 21> H 	 1.64168 	 14.8995 	 55.2511
| 22> H 	 3.00353 	 13.8993 	 55.8266
| 23> S 	 7.48332 	 17.6287 	 49.7689
| 24> C 	 7.13311 	 17.7585 	 48.0305
| 25> C 	 5.83122 	 18.1609 	 47.7152
| 26> C 	 5.10046 	 18.3626 	 48.9371
| 27> C 	 5.85691 	 18.2196 	 50.1139
| 28> H 	 5.48602 	 18.1955 	 46.7119
| 29> C 	 3.62225 	 18.6949 	 48.9626
| 30> H 	 3.23165 	 18.7986 	 49.9524
| 31> H 	 3.0571 	 17.8544 	 48.5808
| 32> C 	 3.26274 	 19.8783 	 48.0551
| 33> H 	 2.15334 	 19.9708 	 47.9856
| 34> H 	 3.72057 	 19.6647 	 47.0706
| 35> C 	 4.00234 	 21.1796 	 48.5674
| 36> H 	 3.76907 	 21.9543 	 47.8603
| 37> H 	 5.08974 	 21.0453 	 48.7088
| 38> H 	 3.68259 	 21.5349 	 49.5459
| 39> H 	 5.37366 	 18.9242 	 55.0912
| 40> H 	 7.78542 	 17.4818 	 47.1679
| 41> *
| 42>
| 43>                          ****END OF INPUT****

CARTESIAN COORDINATES (ANGSTROEM)
---------------------------------
  S      6.139420   19.394100   52.682900
  C      5.277430   18.737000   54.011100
  C      4.358940   17.794000   53.516700
  C      4.450140   17.595400   52.109300
  C      5.440010   18.330800   51.526900
  H      3.836180   16.877800   51.551500
  C      3.406920   17.087000   54.441500
  H      2.422460   17.376600   54.073800
  H      3.416560   17.698900   55.327600
  C      3.654700   15.578900   54.656900
  H      3.639220   15.082100   53.668300
  H      4.636560   15.283700   55.001000
  C      2.649490   14.943600   55.685900
  H      2.421740   15.596800   56.558200
  H      1.641680   14.899500   55.251100
  H      3.003530   13.899300   55.826600
  S      7.483320   17.628700   49.768900
  C      7.133110   17.758500   48.030500
  C      5.831220   18.160900   47.715200
  C      5.100460   18.362600   48.937100
  C      5.856910   18.219600   50.113900
  H      5.486020   18.195500   46.711900
  C      3.622250   18.694900   48.962600
  H      3.231650   18.798600   49.952400
  H      3.057100   17.854400   48.580800
  C      3.262740   19.878300   48.055100
  H      2.153340   19.970800   47.985600
  H      3.720570   19.664700   47.070600
  C      4.002340   21.179600   48.567400
  H      3.769070   21.954300   47.860300
  H      5.089740   21.045300   48.708800
  H      3.682590   21.534900   49.545900
  H      5.373660   18.924200   55.091200
  H      7.785420   17.481800   47.167900

 Total Charge           Charge          ....    0
 Multiplicity           Mult            ....    1
 Number of Electrons    NEL             ....  134
 Basis Dimension        Dim             ....  322

ORBITAL ENERGIES
----------------

  NO   OCC          E(Eh)            E(eV)
   0   2.0000     -88.970898     -2421.0212
   1   2.0000     -88.966222     -2420.8940
   2   2.0000     -10.328765      -281.0600
   3   2.0000     -10.325763      -280.9783
   4   2.0000     -10.325698      -280.9765
   5   2.0000     -10.312974      -280.6303
   6   2.0000     -10.307362      -280.4776
   7   2.0000     -10.297992      -280.2226
   8   2.0000     -10.297335      -280.2047
   9   2.0000     -10.292265      -280.0668
  10   2.0000     -10.291896      -280.0567
  11   2.0000     -10.291227      -280.0385
  12   2.0000     -10.289503      -279.9916
  13   2.0000     -10.286248      -279.9030
  14   2.0000     -10.283090      -279.8171
  15   2.0000     -10.271667      -279.5063
  16   2.0000      -8.084582      -219.9927
  17   2.0000      -8.081740      -219.9153
  18   2.0000      -6.043142      -164.4423
  19   2.0000      -6.040204      -164.3623
  20   2.0000      -6.039321      -164.3383
  21   2.0000      -6.035951      -164.2466
  22   2.0000      -6.035258      -164.2277
  23   2.0000      -6.032684      -164.1577
  24   2.0000      -1.008350       -27.4386
  25   2.0000      -0.982552       -26.7366
  26   2.0000      -0.907924       -24.7059
  27   2.0000      -0.904734       -24.6191
  28   2.0000      -0.867072       -23.5942
  29   2.0000      -0.847669       -23.0663
  30   2.0000      -0.839512       -22.8443
  31   2.0000      -0.815132       -22.1809
  32   2.0000      -0.780542       -21.2396
  33   2.0000      -0.766508       -20.8577
  34   2.0000      -0.710359       -19.3298
  35   2.0000      -0.697284       -18.9741
  36   2.0000      -0.691463       -18.8157
  37   2.0000      -0.655744       -17.8437
  38   2.0000      -0.639715       -17.4075
  39   2.0000      -0.621643       -16.9158
  40   2.0000      -0.595992       -16.2178
  41   2.0000      -0.570536       -15.5251
  42   2.0000      -0.548145       -14.9158
  43   2.0000      -0.544481       -14.8161
  44   2.0000      -0.541672       -14.7396
  45   2.0000      -0.533176       -14.5084
  46   2.0000      -0.512262       -13.9394
  47   2.0000      -0.507956       -13.8222
  48   2.0000      -0.502940       -13.6857
  49   2.0000      -0.495821       -13.4920
  50   2.0000      -0.491643       -13.3783
  51   2.0000      -0.474600       -12.9145
  52   2.0000      -0.469109       -12.7651
  53   2.0000      -0.459951       -12.5159
  54   2.0000      -0.456022       -12.4090
  55   2.0000      -0.454272       -12.3614
  56   2.0000      -0.449526       -12.2322
  57   2.0000      -0.440406       -11.9841
  58   2.0000      -0.425518       -11.5789
  59   2.0000      -0.422013       -11.4836
  60   2.0000      -0.419508       -11.4154
  61   2.0000      -0.416183       -11.3249
  62   2.0000      -0.404614       -11.0101
  63   2.0000      -0.344713        -9.3801
  64   2.0000      -0.330142        -8.9836
  65   2.0000      -0.325837        -8.8665
  66   2.0000      -0.296727        -8.0743
  67   0.0000       0.035100         0.9551
  68   0.0000       0.067015         1.8236
  69   0.0000       0.110764         3.0140
  70   0.0000       0.122489         3.3331
  71   0.0000       0.127768         3.4767

MULLIKEN ATOMIC CHARGES
-----------------------
   0 S :    0.127669
   1 C :   -0.121877
   2 C :   -0.146094
   3 C :    0.042867
   4 C :   -0.167419
   5 H :    0.020449
   6 C :    0.099506
   7 H :    0.023240
   8 H :   -0.006875
   9 C :   -0.058550
  10 H :    0.029206
  11 H :    0.027381
  12 C :   -0.061490
  13 H :    0.040179
  14 H :    0.023160
  15 H :    0.050121
  16 S :    0.123468
  17 C :   -0.101924
  18 C :   -0.037383
  19 C :   -0.044248
  20 C :   -0.165889
  21 H :    0.020448
  22 C :    0.096689
  23 H :    0.016711
  24 H :    0.024544
  25 C :   -0.100830
  26 H :    0.042701
  27 H :    0.030056
  28 C :   -0.059987
  29 H :    0.031461
  30 H :    0.051292
  31 H :    0.024672
  32 H :    0.059030
  33 H :    0.067714
Sum of atomic charges:   -0.0000000

LOEWDIN ATOMIC CHARGES
----------------------
   0 S :    0.437382
   1 C :   -0.221844
   2 C :   -0.065503
   3 C :   -0.067288
   4 C :   -0.211469
   5 H :    0.034576
   6 C :   -0.037739
   7 H :    0.034142
   8 H :    0.024654
   9 C :   -0.039940
  10 H :    0.027577
  11 H :    0.023905
  12 C :   -0.073953
  13 H :    0.031082
  14 H :    0.023130
  15 H :    0.033675
  16 S :    0.398026
  17 C :   -0.179140
  18 C :   -0.069286
  19 C :   -0.044576
  20 C :   -0.203394
  21 H :    0.030060
  22 C :   -0.036019
  23 H :    0.024046
  24 H :    0.030263
  25 C :   -0.037217
  26 H :    0.028794
  27 H :    0.022658
  28 C :   -0.068928
  29 H :    0.021155
  30 H :    0.032208
  31 H :    0.022365
  32 H :    0.038150
  33 H :    0.038444

  Mayer bond orders larger than 0.100000
B(  0-S ,  1-C ) :   1.1488 B(  0-S ,  4-C ) :   1.1774 B(  1-C ,  2-C ) :   1.5808
B(  1-C , 32-H ) :   0.9648 B(  2-C ,  3-C ) :   1.2692 B(  2-C ,  6-C ) :   1.0275
B(  3-C ,  4-C ) :   1.5421 B(  3-C ,  5-H ) :   0.9961 B(  4-C , 20-C ) :   1.0190
B(  6-C ,  7-H ) :   0.9343 B(  6-C ,  8-H ) :   0.9327 B(  6-C ,  9-C ) :   1.0455
B(  9-C , 10-H ) :   0.9556 B(  9-C , 11-H ) :   0.9620 B(  9-C , 12-C ) :   1.0707
B( 12-C , 13-H ) :   0.9752 B( 12-C , 14-H ) :   0.9758 B( 12-C , 15-H ) :   0.9759
B( 16-S , 17-C ) :   1.1551 B( 16-S , 20-C ) :   1.1310 B( 17-C , 18-C ) :   1.6296
B( 17-C , 33-H ) :   0.9566 B( 18-C , 19-C ) :   1.2198 B( 18-C , 21-H ) :   0.9915
B( 19-C , 20-C ) :   1.6012 B( 19-C , 22-C ) :   1.0460 B( 22-C , 23-H ) :   0.9328
B( 22-C , 24-H ) :   0.9288 B( 22-C , 25-C ) :   1.0716 B( 25-C , 26-H ) :   0.9565
B( 25-C , 27-H ) :   0.9554 B( 25-C , 28-C ) :   1.0644 B( 28-C , 29-H ) :   0.9777
B( 28-C , 30-H ) :   0.9727 B( 28-C , 31-H ) :   0.9769

Dispersion correction           -0.014507605
FINAL SINGLE POINT ENERGY     -1339.878197402670

DIPOLE MOMENT
-------------
                                X             Y             Z
Electronic contribution:     21.35180       3.81232      -4.12540
Nuclear contribution   :    -21.93488      -4.11221       4.03822
                        -----------------------------------------
Total Dipole Moment    :     -0.58308      -0.29989      -0.08718
                        -----------------------------------------
Magnitude (a.u.)       :      0.66145
Magnitude (Debye)      :      1.68127

Rotational constants in cm-1:     0.020650     0.007444     0.006959
Rotational constants in MHz :   619.064719   223.159630   208.611423

                             ****ORCA TERMINATED NORMALLY****
TOTAL RUN TIME: 0 days 0 hours 0 minutes 34 seconds 618 msec
