                         Program Version 4.2.1 -  RELEASE  -
|  1> ! wB97X-D3 SP def2-SVP
|  2> %pal
|  3> nprocs 16
|  4> end
|  5>
|  6> * xyz 0 1
|  7> S 	 -26.994 	 -6.91815 	 87.9969
|  8> C 	 -28.6905 	 -7.15422 	 88.0877
|  9> C 	 -29.3378 	 -6.19497 	 88.8574
| 10> C 	 -28.4108 	 -5.22161 	 89.3912
| 11> C 	 -27.0536 	 -5.4352 	 88.992
| 12> H 	 -28.5976 	 -4.41713 	 90.0272
| 13> C 	 -30.8378 	 -6.08445 	 89.1787
| 14> H 	 -30.9971 	 -5.6255 	 90.1232
| 15> H 	 -31.2717 	 -7.11307 	 89.2809
| 16> C 	 -31.6825 	 -5.26838 	 88.1681
| 17> H 	 -31.6697 	 -5.7315 	 87.1641
| 18> H 	 -32.7263 	 -5.44035 	 88.3714
| 19> C 	 -31.3695 	 -3.77866 	 88.3133
| 20> H 	 -31.8845 	 -3.21214 	 87.5668
| 21> H 	 -31.6948 	 -3.53405 	 89.2664
| 22> H 	 -30.3025 	 -3.55839 	 88.1395
| 23> S 	 -24.4855 	 -6.07816 	 90.013
| 24> C 	 -23.6343 	 -4.90641 	 90.8267
| 25> C 	 -24.2301 	 -3.68019 	 90.7673
| 26> C 	 -25.4395 	 -3.66123 	 90.0384
| 27> C 	 -25.8142 	 -4.90542 	 89.5948
| 28> H 	 -23.8696 	 -2.8754 	 91.4163
| 29> C 	 -26.4303 	 -2.44101 	 90.0241
| 30> H 	 -26.6995 	 -2.34416 	 91.049
| 31> H 	 -27.317 	 -2.63855 	 89.4523
| 32> C 	 -25.8298 	 -1.17411 	 89.5265
| 33> H 	 -25.6027 	 -1.40046 	 88.5054
| 34> H 	 -24.8302 	 -1.03939 	 90.0843
| 35> C 	 -26.6793 	 0.0959611 	 89.541
| 36> H 	 -26.0078 	 0.829761 	 89.0347
| 37> H 	 -26.9928 	 0.50471 	 90.5395
| 38> H 	 -27.5066 	 0.0225226 	 88.8571
| 39> H 	 -29.2946 	 -7.90791 	 87.5789
| 40> H 	 -22.7753 	 -5.16761 	 91.4867
| 41> *
| 42>
| 43>                          ****END OF INPUT****

CARTESIAN COORDINATES (ANGSTROEM)
---------------------------------
  S    -26.994000   -6.918150   87.996900
  C    -28.690500   -7.154220   88.087700
  C    -29.337800   -6.194970   88.857400
  C    -28.410800   -5.221610   89.391200
  C    -27.053600   -5.435200   88.992000
  H    -28.597600   -4.417130   90.027200
  C    -30.837800   -6.084450   89.178700
  H    -30.997100   -5.625500   90.123200
  H    -31.271700   -7.113070   89.280900
  C    -31.682500   -5.268380   88.168100
  H    -31.669700   -5.731500   87.164100
  H    -32.726300   -5.440350   88.371400
  C    -31.369500   -3.778660   88.313300
  H    -31.884500   -3.212140   87.566800
  H    -31.694800   -3.534050   89.266400
  H    -30.302500   -3.558390   88.139500
  S    -24.485500   -6.078160   90.013000
  C    -23.634300   -4.906410   90.826700
  C    -24.230100   -3.680190   90.767300
  C    -25.439500   -3.661230   90.038400
  C    -25.814200   -4.905420   89.594800
  H    -23.869600   -2.875400   91.416300
  C    -26.430300   -2.441010   90.024100
  H    -26.699500   -2.344160   91.049000
  H    -27.317000   -2.638550   89.452300
  C    -25.829800   -1.174110   89.526500
  H    -25.602700   -1.400460   88.505400
  H    -24.830200   -1.039390   90.084300
  C    -26.679300    0.095961   89.541000
  H    -26.007800    0.829761   89.034700
  H    -26.992800    0.504710   90.539500
  H    -27.506600    0.022523   88.857100
  H    -29.294600   -7.907910   87.578900
  H    -22.775300   -5.167610   91.486700

 Total Charge           Charge          ....    0
 Multiplicity           Mult            ....    1
 Number of Electrons    NEL             ....  134
 Basis Dimension        Dim             ....  322

ORBITAL ENERGIES
----------------

  NO   OCC          E(Eh)            E(eV)
   0   2.0000     -88.969260     -2420.9766
   1   2.0000     -88.962300     -2420.7873
   2   2.0000     -10.338064      -281.3130
   3   2.0000     -10.331170      -281.1254
   4   2.0000     -10.315220      -280.6914
   5   2.0000     -10.313837      -280.6538
   6   2.0000     -10.305088      -280.4157
   7   2.0000     -10.303826      -280.3813
   8   2.0000     -10.297557      -280.2108
   9   2.0000     -10.294662      -280.1320
  10   2.0000     -10.290750      -280.0255
  11   2.0000     -10.287396      -279.9343
  12   2.0000     -10.285806      -279.8910
  13   2.0000     -10.285725      -279.8888
  14   2.0000     -10.284667      -279.8600
  15   2.0000     -10.272083      -279.5176
  16   2.0000      -8.083615      -219.9664
  17   2.0000      -8.078166      -219.8181
  18   2.0000      -6.042169      -164.4158
  19   2.0000      -6.038055      -164.3038
  20   2.0000      -6.036543      -164.2627
  21   2.0000      -6.034472      -164.2063
  22   2.0000      -6.032520      -164.1532
  23   2.0000      -6.028947      -164.0560
  24   2.0000      -1.006540       -27.3894
  25   2.0000      -0.984422       -26.7875
  26   2.0000      -0.914886       -24.8953
  27   2.0000      -0.910376       -24.7726
  28   2.0000      -0.868989       -23.6464
  29   2.0000      -0.853528       -23.2257
  30   2.0000      -0.843763       -22.9600
  31   2.0000      -0.810310       -22.0497
  32   2.0000      -0.789457       -21.4822
  33   2.0000      -0.775387       -21.0994
  34   2.0000      -0.704793       -19.1784
  35   2.0000      -0.700211       -19.0537
  36   2.0000      -0.691978       -18.8297
  37   2.0000      -0.656953       -17.8766
  38   2.0000      -0.639025       -17.3887
  39   2.0000      -0.615441       -16.7470
  40   2.0000      -0.598496       -16.2859
  41   2.0000      -0.575282       -15.6542
  42   2.0000      -0.570935       -15.5359
  43   2.0000      -0.550728       -14.9861
  44   2.0000      -0.541455       -14.7337
  45   2.0000      -0.521602       -14.1935
  46   2.0000      -0.516442       -14.0531
  47   2.0000      -0.511636       -13.9223
  48   2.0000      -0.503143       -13.6912
  49   2.0000      -0.499417       -13.5898
  50   2.0000      -0.490173       -13.3383
  51   2.0000      -0.486468       -13.2375
  52   2.0000      -0.475302       -12.9336
  53   2.0000      -0.469307       -12.7705
  54   2.0000      -0.464351       -12.6356
  55   2.0000      -0.449883       -12.2419
  56   2.0000      -0.438452       -11.9309
  57   2.0000      -0.434222       -11.8158
  58   2.0000      -0.429911       -11.6985
  59   2.0000      -0.426581       -11.6079
  60   2.0000      -0.419979       -11.4282
  61   2.0000      -0.415623       -11.3097
  62   2.0000      -0.409634       -11.1467
  63   2.0000      -0.358197        -9.7470
  64   2.0000      -0.333114        -9.0645
  65   2.0000      -0.329985        -8.9793
  66   2.0000      -0.283323        -7.7096
  67   0.0000       0.025215         0.6861
  68   0.0000       0.071376         1.9423
  69   0.0000       0.111045         3.0217
  70   0.0000       0.116695         3.1754
  71   0.0000       0.129295         3.5183

MULLIKEN ATOMIC CHARGES
-----------------------
   0 S :    0.108431
   1 C :   -0.104633
   2 C :   -0.088122
   3 C :    0.038360
   4 C :   -0.153863
   5 H :   -0.005257
   6 C :    0.051993
   7 H :    0.011816
   8 H :    0.029821
   9 C :   -0.067740
  10 H :    0.021939
  11 H :    0.016602
  12 C :   -0.011680
  13 H :    0.026484
  14 H :    0.014515
  15 H :    0.044005
  16 S :    0.100829
  17 C :   -0.098081
  18 C :   -0.053232
  19 C :   -0.041869
  20 C :   -0.150274
  21 H :    0.027849
  22 C :    0.106719
  23 H :    0.023633
  24 H :    0.013628
  25 C :   -0.126473
  26 H :    0.025057
  27 H :    0.034776
  28 C :   -0.030480
  29 H :    0.037263
  30 H :    0.045990
  31 H :    0.026971
  32 H :    0.048557
  33 H :    0.076464
Sum of atomic charges:   -0.0000000

LOEWDIN ATOMIC CHARGES
----------------------
   0 S :    0.411011
   1 C :   -0.209205
   2 C :   -0.063497
   3 C :   -0.053097
   4 C :   -0.183339
   5 H :    0.017246
   6 C :   -0.029542
   7 H :    0.023449
   8 H :    0.034159
   9 C :   -0.041658
  10 H :    0.022549
  11 H :    0.020676
  12 C :   -0.055026
  13 H :    0.024377
  14 H :    0.016232
  15 H :    0.030266
  16 S :    0.408727
  17 C :   -0.210232
  18 C :   -0.087885
  19 C :   -0.053299
  20 C :   -0.180450
  21 H :    0.033853
  22 C :   -0.023879
  23 H :    0.025317
  24 H :    0.023639
  25 C :   -0.050118
  26 H :    0.025348
  27 H :    0.028876
  28 C :   -0.068519
  29 H :    0.036350
  30 H :    0.029696
  31 H :    0.022533
  32 H :    0.034045
  33 H :    0.041397

  Mayer bond orders larger than 0.100000
B(  0-S ,  1-C ) :   1.1522 B(  0-S ,  4-C ) :   1.1500 B(  1-C ,  2-C ) :   1.6054
B(  1-C , 32-H ) :   0.9616 B(  2-C ,  3-C ) :   1.2555 B(  2-C ,  6-C ) :   1.0234
B(  3-C ,  4-C ) :   1.5349 B(  3-C ,  5-H ) :   0.9936 B(  4-C , 20-C ) :   1.0604
B(  6-C ,  7-H ) :   0.9448 B(  6-C ,  8-H ) :   0.9413 B(  6-C ,  9-C ) :   1.0744
B(  9-C , 10-H ) :   0.9565 B(  9-C , 11-H ) :   0.9533 B(  9-C , 12-C ) :   1.0670
B( 12-C , 13-H ) :   0.9712 B( 12-C , 14-H ) :   0.9745 B( 12-C , 15-H ) :   0.9755
B( 16-S , 17-C ) :   1.1846 B( 16-S , 20-C ) :   1.1226 B( 17-C , 18-C ) :   1.6017
B( 17-C , 33-H ) :   0.9574 B( 18-C , 19-C ) :   1.2424 B( 18-C , 21-H ) :   0.9861
B( 19-C , 20-C ) :   1.6140 B( 19-C , 22-C ) :   1.0294 B( 22-C , 23-H ) :   0.9350
B( 22-C , 24-H ) :   0.9310 B( 22-C , 25-C ) :   1.0676 B( 25-C , 26-H ) :   0.9515
B( 25-C , 27-H ) :   0.9552 B( 25-C , 28-C ) :   1.0896 B( 28-C , 29-H ) :   0.9714
B( 28-C , 30-H ) :   0.9739 B( 28-C , 31-H ) :   0.9692

Dispersion correction           -0.013866688
FINAL SINGLE POINT ENERGY     -1339.873117103986

DIPOLE MOMENT
-------------
                                X             Y             Z
Electronic contribution:     19.89410     -23.43875      -0.53069
Nuclear contribution   :    -20.42355      23.86558       0.86803
                        -----------------------------------------
Total Dipole Moment    :     -0.52945       0.42683       0.33734
                        -----------------------------------------
Magnitude (a.u.)       :      0.75914
Magnitude (Debye)      :      1.92958

Rotational constants in cm-1:     0.016267     0.009549     0.006413
Rotational constants in MHz :   487.682977   286.278310   192.259836

                             ****ORCA TERMINATED NORMALLY****
TOTAL RUN TIME: 0 days 0 hours 0 minutes 33 seconds 221 msec
