                         Program Version 4.2.1 -  RELEASE  -
|  1> ! wB97X-D3 SP def2-SVP
|  2> %pal
|  3> nprocs 16
|  4> end
|  5>
|  6> * xyz 0 1
|  7> S 	 -11.2042 	 -5.27082 	 85.4826
|  8> C 	 -10.7743 	 -5.64721 	 87.1087
|  9> C 	 -11.8955 	 -6.24992 	 87.769
| 10> C 	 -13.055 	 -6.44449 	 86.8737
| 11> C 	 -12.8599 	 -5.98947 	 85.6042
| 12> H 	 -14.0568 	 -6.82789 	 87.177
| 13> C 	 -11.9332 	 -6.72857 	 89.1788
| 14> H 	 -12.9133 	 -6.41038 	 89.5519
| 15> H 	 -11.247 	 -6.08489 	 89.6219
| 16> C 	 -11.5016 	 -8.21481 	 89.4505
| 17> H 	 -12.1721 	 -8.90429 	 88.9229
| 18> H 	 -10.4972 	 -8.41439 	 89.0978
| 19> C 	 -11.6423 	 -8.57607 	 90.928
| 20> H 	 -12.6311 	 -8.75933 	 91.4006
| 21> H 	 -11.0764 	 -9.4775 	 91.0424
| 22> H 	 -11.1529 	 -7.865 	 91.5174
| 23> S 	 -13.8784 	 -4.95393 	 83.2129
| 24> C 	 -14.9355 	 -5.97301 	 82.2247
| 25> C 	 -15.1812 	 -7.19528 	 82.8237
| 26> C 	 -14.5095 	 -7.36284 	 84.1237
| 27> C 	 -13.7828 	 -6.20685 	 84.473
| 28> H 	 -15.7915 	 -7.93765 	 82.3373
| 29> C 	 -14.5233 	 -8.61101 	 84.855
| 30> H 	 -13.8135 	 -8.57651 	 85.7074
| 31> H 	 -14.1359 	 -9.37027 	 84.1709
| 32> C 	 -15.9416 	 -9.06948 	 85.4127
| 33> H 	 -16.6027 	 -8.83303 	 84.5628
| 34> H 	 -16.1937 	 -8.46815 	 86.3524
| 35> C 	 -15.9851 	 -10.5306 	 85.7323
| 36> H 	 -16.9839 	 -10.8575 	 85.7947
| 37> H 	 -15.5827 	 -10.5636 	 86.7207
| 38> H 	 -15.3349 	 -11.1277 	 85.1099
| 39> H 	 -9.74219 	 -5.65379 	 87.4696
| 40> H 	 -15.3324 	 -5.58995 	 81.2981
| 41> *
| 42>
| 43>                          ****END OF INPUT****

CARTESIAN COORDINATES (ANGSTROEM)
---------------------------------
  S    -11.204200   -5.270820   85.482600
  C    -10.774300   -5.647210   87.108700
  C    -11.895500   -6.249920   87.769000
  C    -13.055000   -6.444490   86.873700
  C    -12.859900   -5.989470   85.604200
  H    -14.056800   -6.827890   87.177000
  C    -11.933200   -6.728570   89.178800
  H    -12.913300   -6.410380   89.551900
  H    -11.247000   -6.084890   89.621900
  C    -11.501600   -8.214810   89.450500
  H    -12.172100   -8.904290   88.922900
  H    -10.497200   -8.414390   89.097800
  C    -11.642300   -8.576070   90.928000
  H    -12.631100   -8.759330   91.400600
  H    -11.076400   -9.477500   91.042400
  H    -11.152900   -7.865000   91.517400
  S    -13.878400   -4.953930   83.212900
  C    -14.935500   -5.973010   82.224700
  C    -15.181200   -7.195280   82.823700
  C    -14.509500   -7.362840   84.123700
  C    -13.782800   -6.206850   84.473000
  H    -15.791500   -7.937650   82.337300
  C    -14.523300   -8.611010   84.855000
  H    -13.813500   -8.576510   85.707400
  H    -14.135900   -9.370270   84.170900
  C    -15.941600   -9.069480   85.412700
  H    -16.602700   -8.833030   84.562800
  H    -16.193700   -8.468150   86.352400
  C    -15.985100  -10.530600   85.732300
  H    -16.983900  -10.857500   85.794700
  H    -15.582700  -10.563600   86.720700
  H    -15.334900  -11.127700   85.109900
  H     -9.742190   -5.653790   87.469600
  H    -15.332400   -5.589950   81.298100

 Total Charge           Charge          ....    0
 Multiplicity           Mult            ....    1
 Number of Electrons    NEL             ....  134
 Basis Dimension        Dim             ....  322

ORBITAL ENERGIES
----------------

  NO   OCC          E(Eh)            E(eV)
   0   2.0000     -88.964621     -2420.8504
   1   2.0000     -88.963825     -2420.8288
   2   2.0000     -10.333290      -281.1831
   3   2.0000     -10.332990      -281.1749
   4   2.0000     -10.322316      -280.8845
   5   2.0000     -10.319566      -280.8097
   6   2.0000     -10.307918      -280.4927
   7   2.0000     -10.307492      -280.4811
   8   2.0000     -10.300498      -280.2908
   9   2.0000     -10.298203      -280.2283
  10   2.0000     -10.294455      -280.1264
  11   2.0000     -10.292781      -280.0808
  12   2.0000     -10.289609      -279.9945
  13   2.0000     -10.285895      -279.8934
  14   2.0000     -10.273270      -279.5499
  15   2.0000     -10.270421      -279.4724
  16   2.0000      -8.078771      -219.8345
  17   2.0000      -8.078000      -219.8136
  18   2.0000      -6.037489      -164.2884
  19   2.0000      -6.036598      -164.2642
  20   2.0000      -6.033238      -164.1727
  21   2.0000      -6.032595      -164.1553
  22   2.0000      -6.029450      -164.0697
  23   2.0000      -6.028715      -164.0497
  24   2.0000      -0.996644       -27.1201
  25   2.0000      -0.974888       -26.5281
  26   2.0000      -0.912243       -24.8234
  27   2.0000      -0.908843       -24.7309
  28   2.0000      -0.869738       -23.6668
  29   2.0000      -0.857001       -23.3202
  30   2.0000      -0.848501       -23.0889
  31   2.0000      -0.817589       -22.2477
  32   2.0000      -0.779265       -21.2049
  33   2.0000      -0.763271       -20.7697
  34   2.0000      -0.708197       -19.2710
  35   2.0000      -0.699213       -19.0266
  36   2.0000      -0.692856       -18.8536
  37   2.0000      -0.660113       -17.9626
  38   2.0000      -0.639248       -17.3948
  39   2.0000      -0.617701       -16.8085
  40   2.0000      -0.597364       -16.2551
  41   2.0000      -0.569570       -15.4988
  42   2.0000      -0.564042       -15.3484
  43   2.0000      -0.555803       -15.1242
  44   2.0000      -0.534929       -14.5562
  45   2.0000      -0.529556       -14.4100
  46   2.0000      -0.521458       -14.1896
  47   2.0000      -0.516979       -14.0677
  48   2.0000      -0.509157       -13.8549
  49   2.0000      -0.498627       -13.5683
  50   2.0000      -0.495466       -13.4823
  51   2.0000      -0.477266       -12.9871
  52   2.0000      -0.469090       -12.7646
  53   2.0000      -0.461857       -12.5678
  54   2.0000      -0.453629       -12.3439
  55   2.0000      -0.452000       -12.2995
  56   2.0000      -0.447533       -12.1780
  57   2.0000      -0.437608       -11.9079
  58   2.0000      -0.435062       -11.8386
  59   2.0000      -0.426076       -11.5941
  60   2.0000      -0.418850       -11.3975
  61   2.0000      -0.414773       -11.2866
  62   2.0000      -0.411005       -11.1840
  63   2.0000      -0.355495        -9.6735
  64   2.0000      -0.328317        -8.9339
  65   2.0000      -0.322341        -8.7714
  66   2.0000      -0.285561        -7.7705
  67   0.0000       0.026847         0.7305
  68   0.0000       0.068035         1.8513
  69   0.0000       0.109030         2.9669
  70   0.0000       0.114256         3.1091
  71   0.0000       0.121895         3.3169

MULLIKEN ATOMIC CHARGES
-----------------------
   0 S :    0.100905
   1 C :   -0.122977
   2 C :   -0.137642
   3 C :   -0.010185
   4 C :   -0.104895
   5 H :    0.033631
   6 C :    0.089678
   7 H :    0.027557
   8 H :    0.001268
   9 C :   -0.054128
  10 H :    0.027480
  11 H :    0.029228
  12 C :   -0.026777
  13 H :    0.042257
  14 H :    0.021436
  15 H :    0.010949
  16 S :    0.086912
  17 C :   -0.090859
  18 C :   -0.015983
  19 C :   -0.026859
  20 C :   -0.152728
  21 H :    0.021851
  22 C :    0.012455
  23 H :    0.029866
  24 H :    0.033029
  25 C :   -0.120686
  26 H :    0.028430
  27 H :    0.046197
  28 C :    0.018581
  29 H :    0.030984
  30 H :    0.014610
  31 H :    0.027041
  32 H :    0.068193
  33 H :    0.061180
Sum of atomic charges:    0.0000000

LOEWDIN ATOMIC CHARGES
----------------------
   0 S :    0.389610
   1 C :   -0.216737
   2 C :   -0.057947
   3 C :   -0.071876
   4 C :   -0.176969
   5 H :    0.038984
   6 C :   -0.038158
   7 H :    0.035436
   8 H :    0.022056
   9 C :   -0.028700
  10 H :    0.024414
  11 H :    0.026492
  12 C :   -0.065774
  13 H :    0.030932
  14 H :    0.025820
  15 H :    0.014662
  16 S :    0.377124
  17 C :   -0.169166
  18 C :   -0.067014
  19 C :   -0.051222
  20 C :   -0.186181
  21 H :    0.030148
  22 C :   -0.043574
  23 H :    0.031436
  24 H :    0.034848
  25 C :   -0.037497
  26 H :    0.019282
  27 H :    0.031784
  28 C :   -0.059744
  29 H :    0.023649
  30 H :    0.025654
  31 H :    0.024116
  32 H :    0.036405
  33 H :    0.027707

  Mayer bond orders larger than 0.100000
B(  0-S ,  1-C ) :   1.1415 B(  0-S ,  4-C ) :   1.1272 B(  1-C ,  2-C ) :   1.5942
B(  1-C , 32-H ) :   0.9666 B(  2-C ,  3-C ) :   1.2203 B(  2-C ,  6-C ) :   1.0369
B(  3-C ,  4-C ) :   1.5926 B(  3-C ,  5-H ) :   0.9854 B(  4-C , 20-C ) :   1.0549
B(  6-C ,  7-H ) :   0.9409 B(  6-C ,  8-H ) :   0.9284 B(  6-C ,  9-C ) :   1.0575
B(  9-C , 10-H ) :   0.9583 B(  9-C , 11-H ) :   0.9555 B(  9-C , 12-C ) :   1.0799
B( 12-C , 13-H ) :   0.9769 B( 12-C , 14-H ) :   0.9719 B( 12-C , 15-H ) :   0.9731
B( 16-S , 17-C ) :   1.1442 B( 16-S , 20-C ) :   1.1212 B( 17-C , 18-C ) :   1.6246
B( 17-C , 33-H ) :   0.9706 B( 18-C , 19-C ) :   1.2030 B( 18-C , 21-H ) :   0.9886
B( 19-C , 20-C ) :   1.5939 B( 19-C , 22-C ) :   1.0734 B( 22-C , 23-H ) :   0.9270
B( 22-C , 24-H ) :   0.9267 B( 22-C , 25-C ) :   1.0488 B( 25-C , 26-H ) :   0.9633
B( 25-C , 27-H ) :   0.9548 B( 25-C , 28-C ) :   1.0769 B( 28-C , 29-H ) :   0.9712
B( 28-C , 30-H ) :   0.9715 B( 28-C , 31-H ) :   0.9744

Dispersion correction           -0.013758797
FINAL SINGLE POINT ENERGY     -1339.870997534194

DIPOLE MOMENT
-------------
                                X             Y             Z
Electronic contribution:      6.35950      24.26847     -22.05387
Nuclear contribution   :     -6.54086     -25.01744      22.43376
                        -----------------------------------------
Total Dipole Moment    :     -0.18136      -0.74896       0.37989
                        -----------------------------------------
Magnitude (a.u.)       :      0.85916
Magnitude (Debye)      :      2.18381

Rotational constants in cm-1:     0.016785     0.009106     0.006146
Rotational constants in MHz :   503.198040   272.982340   184.246044

                             ****ORCA TERMINATED NORMALLY****
TOTAL RUN TIME: 0 days 0 hours 0 minutes 31 seconds 407 msec
