                         Program Version 4.2.1 -  RELEASE  -
|  1> ! wB97X-D3 SP def2-SVP
|  2> %pal
|  3> nprocs 16
|  4> end
|  5>
|  6> * xyz 0 1
|  7> S 	 -34.2464 	 74.3074 	 162.493
|  8> C 	 -33.0952 	 74.5721 	 161.268
|  9> C 	 -33.6818 	 74.9239 	 160.037
| 10> C 	 -35.0494 	 75.1719 	 160.18
| 11> C 	 -35.5376 	 74.9216 	 161.454
| 12> H 	 -35.7247 	 75.5792 	 159.407
| 13> C 	 -32.97 	 75.1898 	 158.659
| 14> H 	 -33.4086 	 76.0922 	 158.272
| 15> H 	 -33.3071 	 74.3789 	 157.976
| 16> C 	 -31.4079 	 75.2413 	 158.792
| 17> H 	 -31.0576 	 75.8213 	 159.581
| 18> H 	 -31.1505 	 74.1937 	 158.914
| 19> C 	 -30.6995 	 75.5706 	 157.437
| 20> H 	 -30.982 	 76.5344 	 156.951
| 21> H 	 -29.5959 	 75.5867 	 157.505
| 22> H 	 -30.8581 	 74.7894 	 156.695
| 23> S 	 -36.9784 	 76.8161 	 162.863
| 24> C 	 -38.6975 	 76.8687 	 162.532
| 25> C 	 -39.191 	 75.8019 	 161.786
| 26> C 	 -38.1045 	 74.9407 	 161.318
| 27> C 	 -36.8733 	 75.2743 	 161.891
| 28> H 	 -40.205 	 75.7547 	 161.623
| 29> C 	 -38.3238 	 73.9493 	 160.205
| 30> H 	 -37.37 	 73.5619 	 159.82
| 31> H 	 -38.7687 	 74.5314 	 159.363
| 32> C 	 -39.3039 	 72.8309 	 160.446
| 33> H 	 -39.5692 	 72.5229 	 159.468
| 34> H 	 -40.2536 	 73.1305 	 160.958
| 35> C 	 -38.7054 	 71.6807 	 161.281
| 36> H 	 -39.5235 	 70.9431 	 161.615
| 37> H 	 -38.3188 	 72.0942 	 162.254
| 38> H 	 -37.9616 	 71.1442 	 160.687
| 39> H 	 -32.023 	 74.4934 	 161.373
| 40> H 	 -39.4035 	 77.6184 	 162.919
| 41> *
| 42>
| 43>                          ****END OF INPUT****

CARTESIAN COORDINATES (ANGSTROEM)
---------------------------------
  S    -34.246400   74.307400  162.493000
  C    -33.095200   74.572100  161.268000
  C    -33.681800   74.923900  160.037000
  C    -35.049400   75.171900  160.180000
  C    -35.537600   74.921600  161.454000
  H    -35.724700   75.579200  159.407000
  C    -32.970000   75.189800  158.659000
  H    -33.408600   76.092200  158.272000
  H    -33.307100   74.378900  157.976000
  C    -31.407900   75.241300  158.792000
  H    -31.057600   75.821300  159.581000
  H    -31.150500   74.193700  158.914000
  C    -30.699500   75.570600  157.437000
  H    -30.982000   76.534400  156.951000
  H    -29.595900   75.586700  157.505000
  H    -30.858100   74.789400  156.695000
  S    -36.978400   76.816100  162.863000
  C    -38.697500   76.868700  162.532000
  C    -39.191000   75.801900  161.786000
  C    -38.104500   74.940700  161.318000
  C    -36.873300   75.274300  161.891000
  H    -40.205000   75.754700  161.623000
  C    -38.323800   73.949300  160.205000
  H    -37.370000   73.561900  159.820000
  H    -38.768700   74.531400  159.363000
  C    -39.303900   72.830900  160.446000
  H    -39.569200   72.522900  159.468000
  H    -40.253600   73.130500  160.958000
  C    -38.705400   71.680700  161.281000
  H    -39.523500   70.943100  161.615000
  H    -38.318800   72.094200  162.254000
  H    -37.961600   71.144200  160.687000
  H    -32.023000   74.493400  161.373000
  H    -39.403500   77.618400  162.919000

 Total Charge           Charge          ....    0
 Multiplicity           Mult            ....    1
 Number of Electrons    NEL             ....  134
 Basis Dimension        Dim             ....  322

ORBITAL ENERGIES
----------------

  NO   OCC          E(Eh)            E(eV)
   0   2.0000     -88.967441     -2420.9271
   1   2.0000     -88.964276     -2420.8410
   2   2.0000     -10.327560      -281.0272
   3   2.0000     -10.323961      -280.9292
   4   2.0000     -10.321582      -280.8645
   5   2.0000     -10.311454      -280.5889
   6   2.0000     -10.310654      -280.5672
   7   2.0000     -10.300393      -280.2879
   8   2.0000     -10.300152      -280.2814
   9   2.0000     -10.292654      -280.0774
  10   2.0000     -10.292447      -280.0717
  11   2.0000     -10.290927      -280.0304
  12   2.0000     -10.290089      -280.0076
  13   2.0000     -10.284635      -279.8591
  14   2.0000     -10.284406      -279.8529
  15   2.0000     -10.282742      -279.8076
  16   2.0000      -8.082451      -219.9347
  17   2.0000      -8.078025      -219.8142
  18   2.0000      -6.040813      -164.3789
  19   2.0000      -6.036895      -164.2723
  20   2.0000      -6.036644      -164.2654
  21   2.0000      -6.033392      -164.1769
  22   2.0000      -6.032849      -164.1622
  23   2.0000      -6.028527      -164.0446
  24   2.0000      -1.002341       -27.2751
  25   2.0000      -0.976746       -26.5786
  26   2.0000      -0.910638       -24.7797
  27   2.0000      -0.902660       -24.5626
  28   2.0000      -0.866365       -23.5750
  29   2.0000      -0.851934       -23.1823
  30   2.0000      -0.843234       -22.9456
  31   2.0000      -0.806676       -21.9508
  32   2.0000      -0.780376       -21.2351
  33   2.0000      -0.767010       -20.8714
  34   2.0000      -0.714013       -19.4293
  35   2.0000      -0.699230       -19.0270
  36   2.0000      -0.685974       -18.6663
  37   2.0000      -0.655652       -17.8412
  38   2.0000      -0.639384       -17.3985
  39   2.0000      -0.611055       -16.6276
  40   2.0000      -0.596036       -16.2190
  41   2.0000      -0.572505       -15.5786
  42   2.0000      -0.565134       -15.3781
  43   2.0000      -0.547521       -14.8988
  44   2.0000      -0.540723       -14.7138
  45   2.0000      -0.521913       -14.2020
  46   2.0000      -0.513754       -13.9800
  47   2.0000      -0.503334       -13.6964
  48   2.0000      -0.500539       -13.6203
  49   2.0000      -0.497066       -13.5259
  50   2.0000      -0.487016       -13.2524
  51   2.0000      -0.476619       -12.9695
  52   2.0000      -0.466212       -12.6863
  53   2.0000      -0.461535       -12.5590
  54   2.0000      -0.458656       -12.4807
  55   2.0000      -0.448715       -12.2101
  56   2.0000      -0.445481       -12.1222
  57   2.0000      -0.437355       -11.9010
  58   2.0000      -0.429379       -11.6840
  59   2.0000      -0.423981       -11.5371
  60   2.0000      -0.422197       -11.4886
  61   2.0000      -0.419948       -11.4274
  62   2.0000      -0.416522       -11.3342
  63   2.0000      -0.341413        -9.2903
  64   2.0000      -0.326310        -8.8793
  65   2.0000      -0.324128        -8.8200
  66   2.0000      -0.295185        -8.0324
  67   0.0000       0.035260         0.9595
  68   0.0000       0.060553         1.6477
  69   0.0000       0.108062         2.9405
  70   0.0000       0.122187         3.3249
  71   0.0000       0.126092         3.4311

MULLIKEN ATOMIC CHARGES
-----------------------
   0 S :    0.134363
   1 C :   -0.130179
   2 C :   -0.095240
   3 C :    0.021815
   4 C :   -0.187666
   5 H :    0.026827
   6 C :    0.060497
   7 H :    0.026962
   8 H :    0.044269
   9 C :   -0.068918
  10 H :    0.036323
  11 H :    0.035324
  12 C :   -0.066955
  13 H :    0.036692
  14 H :    0.033039
  15 H :    0.025793
  16 S :    0.098444
  17 C :   -0.099355
  18 C :   -0.009702
  19 C :   -0.027070
  20 C :   -0.141592
  21 H :   -0.007775
  22 C :    0.043184
  23 H :    0.027764
  24 H :    0.037988
  25 C :   -0.054349
  26 H :    0.014889
  27 H :    0.031689
  28 C :   -0.083601
  29 H :    0.040751
  30 H :    0.048698
  31 H :    0.039132
  32 H :    0.044539
  33 H :    0.063421
Sum of atomic charges:   -0.0000000

LOEWDIN ATOMIC CHARGES
----------------------
   0 S :    0.424706
   1 C :   -0.217943
   2 C :   -0.067481
   3 C :   -0.060409
   4 C :   -0.206048
   5 H :    0.037876
   6 C :   -0.022990
   7 H :    0.024222
   8 H :    0.038166
   9 C :   -0.034553
  10 H :    0.016061
  11 H :    0.030964
  12 C :   -0.072692
  13 H :    0.025032
  14 H :    0.027987
  15 H :    0.023637
  16 S :    0.372897
  17 C :   -0.175573
  18 C :   -0.065698
  19 C :   -0.038732
  20 C :   -0.187939
  21 H :    0.017559
  22 C :   -0.036502
  23 H :    0.031521
  24 H :    0.039685
  25 C :   -0.043048
  26 H :    0.018286
  27 H :    0.027313
  28 C :   -0.073261
  29 H :    0.031950
  30 H :    0.032658
  31 H :    0.023596
  32 H :    0.025533
  33 H :    0.033225

  Mayer bond orders larger than 0.100000
B(  0-S ,  1-C ) :   1.1591 B(  0-S ,  4-C ) :   1.1521 B(  1-C ,  2-C ) :   1.5848
B(  1-C , 32-H ) :   0.9633 B(  2-C ,  3-C ) :   1.2842 B(  2-C ,  6-C ) :   0.9942
B(  3-C ,  4-C ) :   1.5496 B(  3-C ,  5-H ) :   0.9895 B(  4-C , 20-C ) :   1.0360
B(  6-C ,  7-H ) :   0.9508 B(  6-C ,  8-H ) :   0.9399 B(  6-C ,  9-C ) :   1.0670
B(  9-C , 10-H ) :   0.9639 B(  9-C , 11-H ) :   0.9515 B(  9-C , 12-C ) :   1.0785
B( 12-C , 13-H ) :   0.9777 B( 12-C , 14-H ) :   0.9749 B( 12-C , 15-H ) :   0.9762
B( 16-S , 17-C ) :   1.1529 B( 16-S , 20-C ) :   1.1014 B( 17-C , 18-C ) :   1.6586
B( 17-C , 33-H ) :   0.9581 B( 18-C , 19-C ) :   1.1781 B( 18-C , 21-H ) :   1.0008
B( 19-C , 20-C ) :   1.6276 B( 19-C , 22-C ) :   1.0529 B( 22-C , 23-H ) :   0.9309
B( 22-C , 24-H ) :   0.9326 B( 22-C , 25-C ) :   1.0700 B( 25-C , 26-H ) :   0.9515
B( 25-C , 27-H ) :   0.9585 B( 25-C , 28-C ) :   1.0727 B( 28-C , 29-H ) :   0.9750
B( 28-C , 30-H ) :   0.9757 B( 28-C , 31-H ) :   0.9752

Dispersion correction           -0.013968684
FINAL SINGLE POINT ENERGY     -1339.873486028991

DIPOLE MOMENT
-------------
                                X             Y             Z
Electronic contribution:     -3.97100       9.75303      20.86234
Nuclear contribution   :      3.81787      -9.75586     -21.59677
                        -----------------------------------------
Total Dipole Moment    :     -0.15313      -0.00283      -0.73443
                        -----------------------------------------
Magnitude (a.u.)       :      0.75023
Magnitude (Debye)      :      1.90693

Rotational constants in cm-1:     0.020482     0.007207     0.006451
Rotational constants in MHz :   614.042741   216.053213   193.402736

                             ****ORCA TERMINATED NORMALLY****
TOTAL RUN TIME: 0 days 0 hours 0 minutes 34 seconds 85 msec
