                         Program Version 4.2.1 -  RELEASE  -
|  1> ! wB97X-D3 SP def2-SVP
|  2> %pal
|  3> nprocs 16
|  4> end
|  5>
|  6> * xyz 0 1
|  7> S 	 -0.579024 	 -16.9976 	 82.8942
|  8> C 	 -2.05808 	 -16.7856 	 81.9333
|  9> C 	 -2.36441 	 -15.4556 	 81.8721
| 10> C 	 -1.35567 	 -14.6172 	 82.3679
| 11> C 	 -0.327982 	 -15.2886 	 83.0525
| 12> H 	 -1.36725 	 -13.5859 	 82.2243
| 13> C 	 -3.55473 	 -14.9822 	 81.1285
| 14> H 	 -4.23156 	 -14.42 	 81.771
| 15> H 	 -4.1199 	 -15.9265 	 80.7799
| 16> C 	 -3.11393 	 -14.417 	 79.7836
| 17> H 	 -3.92567 	 -13.8506 	 79.2846
| 18> H 	 -2.31143 	 -13.7088 	 79.9492
| 19> C 	 -2.49114 	 -15.4123 	 78.7895
| 20> H 	 -3.28352 	 -16.0553 	 78.3414
| 21> H 	 -2.12641 	 -14.8097 	 77.9477
| 22> H 	 -1.75819 	 -16.1298 	 79.2257
| 23> S 	 2.21242 	 -14.9584 	 82.3292
| 24> C 	 3.26865 	 -13.7985 	 83.2578
| 25> C 	 2.58291 	 -13.27 	 84.275
| 26> C 	 1.24988 	 -13.7603 	 84.4076
| 27> C 	 0.935575 	 -14.7046 	 83.4743
| 28> H 	 3.10446 	 -12.586 	 84.9076
| 29> C 	 0.405838 	 -13.1942 	 85.5709
| 30> H 	 0.935442 	 -13.476 	 86.5103
| 31> H 	 -0.505404 	 -13.7595 	 85.5505
| 32> C 	 0.14859 	 -11.6759 	 85.4661
| 33> H 	 0.932028 	 -11.0513 	 85.9227
| 34> H 	 -0.64316 	 -11.3599 	 86.1181
| 35> C 	 -0.324148 	 -11.2337 	 84.0973
| 36> H 	 0.394646 	 -11.5569 	 83.3457
| 37> H 	 -0.35372 	 -10.1677 	 83.9864
| 38> H 	 -1.29452 	 -11.6906 	 83.8706
| 39> H 	 -2.67953 	 -17.5189 	 81.421
| 40> H 	 4.36294 	 -13.7073 	 83.0074
| 41> *
| 42>
| 43>                          ****END OF INPUT****

CARTESIAN COORDINATES (ANGSTROEM)
---------------------------------
  S     -0.579024  -16.997600   82.894200
  C     -2.058080  -16.785600   81.933300
  C     -2.364410  -15.455600   81.872100
  C     -1.355670  -14.617200   82.367900
  C     -0.327982  -15.288600   83.052500
  H     -1.367250  -13.585900   82.224300
  C     -3.554730  -14.982200   81.128500
  H     -4.231560  -14.420000   81.771000
  H     -4.119900  -15.926500   80.779900
  C     -3.113930  -14.417000   79.783600
  H     -3.925670  -13.850600   79.284600
  H     -2.311430  -13.708800   79.949200
  C     -2.491140  -15.412300   78.789500
  H     -3.283520  -16.055300   78.341400
  H     -2.126410  -14.809700   77.947700
  H     -1.758190  -16.129800   79.225700
  S      2.212420  -14.958400   82.329200
  C      3.268650  -13.798500   83.257800
  C      2.582910  -13.270000   84.275000
  C      1.249880  -13.760300   84.407600
  C      0.935575  -14.704600   83.474300
  H      3.104460  -12.586000   84.907600
  C      0.405838  -13.194200   85.570900
  H      0.935442  -13.476000   86.510300
  H     -0.505404  -13.759500   85.550500
  C      0.148590  -11.675900   85.466100
  H      0.932028  -11.051300   85.922700
  H     -0.643160  -11.359900   86.118100
  C     -0.324148  -11.233700   84.097300
  H      0.394646  -11.556900   83.345700
  H     -0.353720  -10.167700   83.986400
  H     -1.294520  -11.690600   83.870600
  H     -2.679530  -17.518900   81.421000
  H      4.362940  -13.707300   83.007400

 Total Charge           Charge          ....    0
 Multiplicity           Mult            ....    1
 Number of Electrons    NEL             ....  134
 Basis Dimension        Dim             ....  322

ORBITAL ENERGIES
----------------

  NO   OCC          E(Eh)            E(eV)
   0   2.0000     -88.966420     -2420.8994
   1   2.0000     -88.958385     -2420.6807
   2   2.0000     -10.329803      -281.0882
   3   2.0000     -10.323835      -280.9258
   4   2.0000     -10.321686      -280.8674
   5   2.0000     -10.313214      -280.6368
   6   2.0000     -10.302156      -280.3359
   7   2.0000     -10.294824      -280.1364
   8   2.0000     -10.294736      -280.1340
   9   2.0000     -10.291561      -280.0476
  10   2.0000     -10.289143      -279.9818
  11   2.0000     -10.288844      -279.9737
  12   2.0000     -10.287092      -279.9260
  13   2.0000     -10.285505      -279.8828
  14   2.0000     -10.281516      -279.7743
  15   2.0000     -10.273415      -279.5538
  16   2.0000      -8.080781      -219.8892
  17   2.0000      -8.073099      -219.6802
  18   2.0000      -6.039258      -164.3366
  19   2.0000      -6.035243      -164.2273
  20   2.0000      -6.031794      -164.1335
  21   2.0000      -6.031672      -164.1301
  22   2.0000      -6.027657      -164.0209
  23   2.0000      -6.023577      -163.9099
  24   2.0000      -1.009115       -27.4594
  25   2.0000      -0.986102       -26.8332
  26   2.0000      -0.918270       -24.9874
  27   2.0000      -0.907151       -24.6848
  28   2.0000      -0.872012       -23.7287
  29   2.0000      -0.844865       -22.9899
  30   2.0000      -0.843320       -22.9479
  31   2.0000      -0.817581       -22.2475
  32   2.0000      -0.781658       -21.2700
  33   2.0000      -0.773882       -21.0584
  34   2.0000      -0.713908       -19.4264
  35   2.0000      -0.697108       -18.9693
  36   2.0000      -0.687809       -18.7162
  37   2.0000      -0.661652       -18.0045
  38   2.0000      -0.638519       -17.3750
  39   2.0000      -0.624568       -16.9954
  40   2.0000      -0.590929       -16.0800
  41   2.0000      -0.574269       -15.6266
  42   2.0000      -0.558868       -15.2076
  43   2.0000      -0.556777       -15.1507
  44   2.0000      -0.545330       -14.8392
  45   2.0000      -0.536751       -14.6057
  46   2.0000      -0.520049       -14.1513
  47   2.0000      -0.512088       -13.9346
  48   2.0000      -0.502961       -13.6863
  49   2.0000      -0.492860       -13.4114
  50   2.0000      -0.487387       -13.2625
  51   2.0000      -0.476891       -12.9769
  52   2.0000      -0.467006       -12.7079
  53   2.0000      -0.461687       -12.5631
  54   2.0000      -0.458529       -12.4772
  55   2.0000      -0.445577       -12.1248
  56   2.0000      -0.443750       -12.0751
  57   2.0000      -0.440739       -11.9931
  58   2.0000      -0.438263       -11.9257
  59   2.0000      -0.426894       -11.6164
  60   2.0000      -0.413856       -11.2616
  61   2.0000      -0.407907       -11.0997
  62   2.0000      -0.404546       -11.0083
  63   2.0000      -0.345062        -9.3896
  64   2.0000      -0.330118        -8.9830
  65   2.0000      -0.320954        -8.7336
  66   2.0000      -0.306493        -8.3401
  67   0.0000       0.035632         0.9696
  68   0.0000       0.065358         1.7785
  69   0.0000       0.114417         3.1134
  70   0.0000       0.122163         3.3242
  71   0.0000       0.127646         3.4734

MULLIKEN ATOMIC CHARGES
-----------------------
   0 S :    0.109849
   1 C :   -0.123220
   2 C :   -0.099636
   3 C :    0.059708
   4 C :   -0.163734
   5 H :   -0.013329
   6 C :    0.060413
   7 H :    0.044898
   8 H :    0.019626
   9 C :   -0.073928
  10 H :    0.034346
  11 H :    0.023448
  12 C :   -0.086280
  13 H :    0.024201
  14 H :    0.042424
  15 H :    0.059949
  16 S :    0.083907
  17 C :   -0.120804
  18 C :   -0.002784
  19 C :   -0.072534
  20 C :   -0.146063
  21 H :    0.011931
  22 C :    0.111639
  23 H :    0.044250
  24 H :    0.017325
  25 C :   -0.082786
  26 H :    0.023856
  27 H :    0.020096
  28 C :   -0.044043
  29 H :    0.043596
  30 H :    0.028167
  31 H :    0.037196
  32 H :    0.049284
  33 H :    0.079031
Sum of atomic charges:   -0.0000000

LOEWDIN ATOMIC CHARGES
----------------------
   0 S :    0.406866
   1 C :   -0.193051
   2 C :   -0.070772
   3 C :   -0.050206
   4 C :   -0.204624
   5 H :    0.018963
   6 C :   -0.035685
   7 H :    0.032661
   8 H :    0.035585
   9 C :   -0.043881
  10 H :    0.027005
  11 H :    0.018765
  12 C :   -0.071180
  13 H :    0.022462
  14 H :    0.032129
  15 H :    0.032237
  16 S :    0.374519
  17 C :   -0.160282
  18 C :   -0.070101
  19 C :   -0.058201
  20 C :   -0.204109
  21 H :    0.031542
  22 C :   -0.023515
  23 H :    0.039675
  24 H :    0.026631
  25 C :   -0.050476
  26 H :    0.024455
  27 H :    0.025284
  28 C :   -0.062520
  29 H :    0.025785
  30 H :    0.024771
  31 H :    0.026199
  32 H :    0.032292
  33 H :    0.040779

  Mayer bond orders larger than 0.100000
B(  0-S ,  1-C ) :   1.1364 B(  0-S ,  4-C ) :   1.1635 B(  1-C ,  2-C ) :   1.5991
B(  1-C , 32-H ) :   0.9613 B(  2-C ,  3-C ) :   1.2608 B(  2-C ,  6-C ) :   1.0332
B(  3-C ,  4-C ) :   1.5453 B(  3-C ,  5-H ) :   1.0010 B(  4-C , 20-C ) :   0.9984
B(  6-C ,  7-H ) :   0.9392 B(  6-C ,  8-H ) :   0.9443 B(  6-C ,  9-C ) :   1.0497
B(  9-C , 10-H ) :   0.9547 B(  9-C , 11-H ) :   0.9616 B(  9-C , 12-C ) :   1.0732
B( 12-C , 13-H ) :   0.9729 B( 12-C , 14-H ) :   0.9722 B( 12-C , 15-H ) :   0.9723
B( 16-S , 17-C ) :   1.1218 B( 16-S , 20-C ) :   1.1400 B( 17-C , 18-C ) :   1.6553
B( 17-C , 33-H ) :   0.9614 B( 18-C , 19-C ) :   1.1848 B( 18-C , 21-H ) :   0.9981
B( 19-C , 20-C ) :   1.6577 B( 19-C , 22-C ) :   1.0340 B( 22-C , 23-H ) :   0.9423
B( 22-C , 24-H ) :   0.9314 B( 22-C , 25-C ) :   1.0633 B( 25-C , 26-H ) :   0.9521
B( 25-C , 27-H ) :   0.9529 B( 25-C , 28-C ) :   1.0818 B( 28-C , 29-H ) :   0.9694
B( 28-C , 30-H ) :   0.9687 B( 28-C , 31-H ) :   0.9711

Dispersion correction           -0.015697827
FINAL SINGLE POINT ENERGY     -1339.874557075022

DIPOLE MOMENT
-------------
                                X             Y             Z
Electronic contribution:     14.12783     -15.88804       4.83798
Nuclear contribution   :    -14.34303      16.51237      -4.82873
                        -----------------------------------------
Total Dipole Moment    :     -0.21521       0.62433       0.00925
                        -----------------------------------------
Magnitude (a.u.)       :      0.66045
Magnitude (Debye)      :      1.67872

Rotational constants in cm-1:     0.020285     0.009031     0.007884
Rotational constants in MHz :   608.117112   270.754297   236.363674

                             ****ORCA TERMINATED NORMALLY****
TOTAL RUN TIME: 0 days 0 hours 0 minutes 35 seconds 832 msec
