                         Program Version 4.2.1 -  RELEASE  -
|  1> ! wB97X-D3 SP def2-SVP
|  2> %pal
|  3> nprocs 16
|  4> end
|  5>
|  6> * xyz 0 1
|  7> S 	 -12.699 	 51.3208 	 31.9674
|  8> C 	 -11.6172 	 51.1623 	 30.6196
|  9> C 	 -10.365 	 50.8941 	 31.1091
| 10> C 	 -10.2398 	 51.0072 	 32.5506
| 11> C 	 -11.4404 	 51.4415 	 33.0918
| 12> H 	 -9.45836 	 50.9992 	 33.235
| 13> C 	 -9.19534 	 50.4493 	 30.2168
| 14> H 	 -8.29947 	 50.5577 	 30.716
| 15> H 	 -8.99129 	 51.0953 	 29.3787
| 16> C 	 -9.23937 	 48.8897 	 29.9546
| 17> H 	 -9.25621 	 48.3808 	 30.8854
| 18> H 	 -10.1999 	 48.6558 	 29.4873
| 19> C 	 -8.04261 	 48.4346 	 29.0817
| 20> H 	 -7.77676 	 48.9881 	 28.1457
| 21> H 	 -7.18099 	 48.506 	 29.749
| 22> H 	 -8.18931 	 47.3892 	 28.7997
| 23> S 	 -12.107 	 53.4377 	 34.8437
| 24> C 	 -11.9778 	 53.1663 	 36.5641
| 25> C 	 -11.7819 	 51.8397 	 36.8392
| 26> C 	 -11.4939 	 51.1002 	 35.6675
| 27> C 	 -11.6731 	 51.766 	 34.493
| 28> H 	 -11.7803 	 51.5755 	 37.8403
| 29> C 	 -11.058 	 49.6231 	 35.7758
| 30> H 	 -11.0992 	 49.2649 	 36.7628
| 31> H 	 -10.0165 	 49.336 	 35.5183
| 32> C 	 -12.0266 	 48.6946 	 35.0202
| 33> H 	 -11.8935 	 48.8093 	 33.9696
| 34> H 	 -13.0763 	 48.8638 	 35.3112
| 35> C 	 -11.771 	 47.2012 	 35.2404
| 36> H 	 -12.3665 	 46.7203 	 36.0138
| 37> H 	 -10.7256 	 46.9613 	 35.4503
| 38> H 	 -11.977 	 46.5646 	 34.3519
| 39> H 	 -11.8783 	 51.007 	 29.5772
| 40> H 	 -12.3154 	 53.8113 	 37.2972
| 41> *
| 42>
| 43>                          ****END OF INPUT****

CARTESIAN COORDINATES (ANGSTROEM)
---------------------------------
  S    -12.699000   51.320800   31.967400
  C    -11.617200   51.162300   30.619600
  C    -10.365000   50.894100   31.109100
  C    -10.239800   51.007200   32.550600
  C    -11.440400   51.441500   33.091800
  H     -9.458360   50.999200   33.235000
  C     -9.195340   50.449300   30.216800
  H     -8.299470   50.557700   30.716000
  H     -8.991290   51.095300   29.378700
  C     -9.239370   48.889700   29.954600
  H     -9.256210   48.380800   30.885400
  H    -10.199900   48.655800   29.487300
  C     -8.042610   48.434600   29.081700
  H     -7.776760   48.988100   28.145700
  H     -7.180990   48.506000   29.749000
  H     -8.189310   47.389200   28.799700
  S    -12.107000   53.437700   34.843700
  C    -11.977800   53.166300   36.564100
  C    -11.781900   51.839700   36.839200
  C    -11.493900   51.100200   35.667500
  C    -11.673100   51.766000   34.493000
  H    -11.780300   51.575500   37.840300
  C    -11.058000   49.623100   35.775800
  H    -11.099200   49.264900   36.762800
  H    -10.016500   49.336000   35.518300
  C    -12.026600   48.694600   35.020200
  H    -11.893500   48.809300   33.969600
  H    -13.076300   48.863800   35.311200
  C    -11.771000   47.201200   35.240400
  H    -12.366500   46.720300   36.013800
  H    -10.725600   46.961300   35.450300
  H    -11.977000   46.564600   34.351900
  H    -11.878300   51.007000   29.577200
  H    -12.315400   53.811300   37.297200

 Total Charge           Charge          ....    0
 Multiplicity           Mult            ....    1
 Number of Electrons    NEL             ....  134
 Basis Dimension        Dim             ....  322

ORBITAL ENERGIES
----------------

  NO   OCC          E(Eh)            E(eV)
   0   2.0000     -88.964341     -2420.8428
   1   2.0000     -88.962871     -2420.8028
   2   2.0000     -10.325136      -280.9612
   3   2.0000     -10.324925      -280.9555
   4   2.0000     -10.310960      -280.5755
   5   2.0000     -10.310751      -280.5698
   6   2.0000     -10.304883      -280.4101
   7   2.0000     -10.304856      -280.4094
   8   2.0000     -10.291464      -280.0450
   9   2.0000     -10.289902      -280.0025
  10   2.0000     -10.288366      -279.9607
  11   2.0000     -10.288144      -279.9546
  12   2.0000     -10.284590      -279.8579
  13   2.0000     -10.283331      -279.8237
  14   2.0000     -10.278128      -279.6821
  15   2.0000     -10.273741      -279.5627
  16   2.0000      -8.080270      -219.8753
  17   2.0000      -8.077806      -219.8083
  18   2.0000      -6.038682      -164.3209
  19   2.0000      -6.036287      -164.2557
  20   2.0000      -6.034581      -164.2093
  21   2.0000      -6.032244      -164.1457
  22   2.0000      -6.031075      -164.1139
  23   2.0000      -6.028597      -164.0465
  24   2.0000      -1.014294       -27.6004
  25   2.0000      -0.991025       -26.9672
  26   2.0000      -0.907593       -24.6969
  27   2.0000      -0.905497       -24.6398
  28   2.0000      -0.873651       -23.7733
  29   2.0000      -0.848952       -23.1011
  30   2.0000      -0.845212       -22.9994
  31   2.0000      -0.820179       -22.3182
  32   2.0000      -0.781856       -21.2754
  33   2.0000      -0.773663       -21.0524
  34   2.0000      -0.708252       -19.2725
  35   2.0000      -0.704844       -19.1798
  36   2.0000      -0.691489       -18.8164
  37   2.0000      -0.669118       -18.2076
  38   2.0000      -0.652200       -17.7473
  39   2.0000      -0.614011       -16.7081
  40   2.0000      -0.600238       -16.3333
  41   2.0000      -0.578943       -15.7539
  42   2.0000      -0.565298       -15.3825
  43   2.0000      -0.556904       -15.1541
  44   2.0000      -0.525475       -14.2989
  45   2.0000      -0.519178       -14.1276
  46   2.0000      -0.517877       -14.0921
  47   2.0000      -0.512350       -13.9418
  48   2.0000      -0.508969       -13.8498
  49   2.0000      -0.501952       -13.6588
  50   2.0000      -0.489216       -13.3123
  51   2.0000      -0.486335       -13.2339
  52   2.0000      -0.473732       -12.8909
  53   2.0000      -0.467536       -12.7223
  54   2.0000      -0.461391       -12.5551
  55   2.0000      -0.451064       -12.2741
  56   2.0000      -0.442912       -12.0522
  57   2.0000      -0.438537       -11.9332
  58   2.0000      -0.427821       -11.6416
  59   2.0000      -0.421349       -11.4655
  60   2.0000      -0.415815       -11.3149
  61   2.0000      -0.413574       -11.2539
  62   2.0000      -0.409655       -11.1473
  63   2.0000      -0.341728        -9.2989
  64   2.0000      -0.331452        -9.0193
  65   2.0000      -0.326435        -8.8827
  66   2.0000      -0.305876        -8.3233
  67   0.0000       0.034129         0.9287
  68   0.0000       0.065131         1.7723
  69   0.0000       0.114887         3.1262
  70   0.0000       0.125286         3.4092
  71   0.0000       0.130349         3.5470

MULLIKEN ATOMIC CHARGES
-----------------------
   0 S :    0.122176
   1 C :   -0.098467
   2 C :   -0.101222
   3 C :    0.073766
   4 C :   -0.175553
   5 H :   -0.012982
   6 C :    0.093614
   7 H :   -0.017299
   8 H :    0.026437
   9 C :   -0.065278
  10 H :    0.024758
  11 H :    0.022325
  12 C :   -0.058166
  13 H :    0.043806
  14 H :    0.028725
  15 H :    0.038122
  16 S :    0.105648
  17 C :   -0.059824
  18 C :   -0.022085
  19 C :   -0.000636
  20 C :   -0.167808
  21 H :   -0.004412
  22 C :    0.090809
  23 H :   -0.006316
  24 H :    0.030156
  25 C :   -0.075979
  26 H :    0.037693
  27 H :    0.037538
  28 C :   -0.070757
  29 H :    0.029560
  30 H :    0.016530
  31 H :    0.029228
  32 H :    0.051951
  33 H :    0.033943
Sum of atomic charges:    0.0000000

LOEWDIN ATOMIC CHARGES
----------------------
   0 S :    0.437249
   1 C :   -0.205982
   2 C :   -0.054800
   3 C :   -0.056566
   4 C :   -0.209302
   5 H :    0.022737
   6 C :   -0.030755
   7 H :    0.015967
   8 H :    0.029916
   9 C :   -0.028931
  10 H :    0.022204
  11 H :    0.017299
  12 C :   -0.071421
  13 H :    0.030617
  14 H :    0.024667
  15 H :    0.027520
  16 S :    0.406722
  17 C :   -0.168838
  18 C :   -0.060826
  19 C :   -0.051987
  20 C :   -0.196542
  21 H :    0.023223
  22 C :   -0.029280
  23 H :    0.020171
  24 H :    0.032479
  25 C :   -0.040817
  26 H :    0.020062
  27 H :    0.029448
  28 C :   -0.075919
  29 H :    0.021821
  30 H :    0.020377
  31 H :    0.030178
  32 H :    0.033511
  33 H :    0.015798

  Mayer bond orders larger than 0.100000
B(  0-S ,  1-C ) :   1.1285 B(  0-S ,  4-C ) :   1.1886 B(  1-C ,  2-C ) :   1.6127
B(  1-C , 32-H ) :   0.9725 B(  2-C ,  3-C ) :   1.2150 B(  2-C ,  6-C ) :   1.0310
B(  3-C ,  4-C ) :   1.5643 B(  3-C ,  5-H ) :   1.0119 B(  4-C , 20-C ) :   1.0084
B(  6-C ,  7-H ) :   0.9339 B(  6-C ,  8-H ) :   0.9481 B(  6-C ,  9-C ) :   1.0429
B(  9-C , 10-H ) :   0.9551 B(  9-C , 11-H ) :   0.9657 B(  9-C , 12-C ) :   1.0706
B( 12-C , 13-H ) :   0.9782 B( 12-C , 14-H ) :   0.9758 B( 12-C , 15-H ) :   0.9744
B( 16-S , 17-C ) :   1.1640 B( 16-S , 20-C ) :   1.1371 B( 17-C , 18-C ) :   1.6262
B( 17-C , 20-C ) :   0.1005 B( 17-C , 33-H ) :   0.9669 B( 18-C , 19-C ) :   1.2283
B( 18-C , 21-H ) :   1.0036 B( 19-C , 20-C ) :   1.6176 B( 19-C , 22-C ) :   1.0340
B( 22-C , 23-H ) :   0.9354 B( 22-C , 24-H ) :   0.9334 B( 22-C , 25-C ) :   1.0679
B( 25-C , 26-H ) :   0.9570 B( 25-C , 27-H ) :   0.9591 B( 25-C , 28-C ) :   1.0776
B( 28-C , 29-H ) :   0.9777 B( 28-C , 30-H ) :   0.9722 B( 28-C , 31-H ) :   0.9759

Dispersion correction           -0.014524670
FINAL SINGLE POINT ENERGY     -1339.860073851176

DIPOLE MOMENT
-------------
                                X             Y             Z
Electronic contribution:    -14.10193      25.35067       6.61024
Nuclear contribution   :     14.47628     -25.85951      -6.49586
                        -----------------------------------------
Total Dipole Moment    :      0.37435      -0.50883       0.11438
                        -----------------------------------------
Magnitude (a.u.)       :      0.64198
Magnitude (Debye)      :      1.63177

Rotational constants in cm-1:     0.019746     0.008419     0.006871
Rotational constants in MHz :   591.978658   252.393573   205.975290

                             ****ORCA TERMINATED NORMALLY****
TOTAL RUN TIME: 0 days 0 hours 0 minutes 34 seconds 400 msec
