                         Program Version 4.2.1 -  RELEASE  -
|  1> ! wB97X-D3 SP def2-SVP
|  2> %pal
|  3> nprocs 16
|  4> end
|  5>
|  6> * xyz 0 1
|  7> S 	 -14.9202 	 33.5484 	 36.2315
|  8> C 	 -15.0033 	 33.7049 	 37.9316
|  9> C 	 -13.7523 	 33.5887 	 38.577
| 10> C 	 -12.7545 	 33.2341 	 37.5985
| 11> C 	 -13.1818 	 33.3956 	 36.269
| 12> H 	 -11.7159 	 33.0766 	 37.9444
| 13> C 	 -13.5711 	 33.6287 	 40.0872
| 14> H 	 -12.7287 	 33.0042 	 40.2993
| 15> H 	 -14.4859 	 33.3877 	 40.527
| 16> C 	 -13.3283 	 34.9724 	 40.8077
| 17> H 	 -14.3352 	 35.4103 	 41.0229
| 18> H 	 -12.8686 	 34.8313 	 41.8031
| 19> C 	 -12.4488 	 35.958 	 39.9207
| 20> H 	 -12.2465 	 36.8846 	 40.4927
| 21> H 	 -11.4007 	 35.6466 	 39.7591
| 22> H 	 -12.97 	 36.1231 	 38.9477
| 23> S 	 -12.7434 	 31.8053 	 34.2233
| 24> C 	 -11.7237 	 32.2965 	 32.9043
| 25> C 	 -10.8624 	 33.3291 	 33.2754
| 26> C 	 -11.3128 	 33.9259 	 34.5235
| 27> C 	 -12.466 	 33.2669 	 35.0771
| 28> H 	 -10.0573 	 33.6108 	 32.5635
| 29> C 	 -10.5303 	 35.0718 	 35.0454
| 30> H 	 -11.1523 	 35.9436 	 35.277
| 31> H 	 -9.92374 	 35.5261 	 34.234
| 32> C 	 -9.70862 	 34.7217 	 36.2628
| 33> H 	 -9.0904 	 33.8231 	 36.086
| 34> H 	 -10.3817 	 34.4395 	 37.0208
| 35> C 	 -8.92852 	 35.9804 	 36.7811
| 36> H 	 -9.56093 	 36.7333 	 37.277
| 37> H 	 -8.26699 	 36.3969 	 35.9716
| 38> H 	 -8.18351 	 35.8361 	 37.5019
| 39> H 	 -15.9153 	 33.9681 	 38.4624
| 40> H 	 -11.5452 	 31.6358 	 32.0968
| 41> *
| 42>
| 43>                          ****END OF INPUT****

CARTESIAN COORDINATES (ANGSTROEM)
---------------------------------
  S    -14.920200   33.548400   36.231500
  C    -15.003300   33.704900   37.931600
  C    -13.752300   33.588700   38.577000
  C    -12.754500   33.234100   37.598500
  C    -13.181800   33.395600   36.269000
  H    -11.715900   33.076600   37.944400
  C    -13.571100   33.628700   40.087200
  H    -12.728700   33.004200   40.299300
  H    -14.485900   33.387700   40.527000
  C    -13.328300   34.972400   40.807700
  H    -14.335200   35.410300   41.022900
  H    -12.868600   34.831300   41.803100
  C    -12.448800   35.958000   39.920700
  H    -12.246500   36.884600   40.492700
  H    -11.400700   35.646600   39.759100
  H    -12.970000   36.123100   38.947700
  S    -12.743400   31.805300   34.223300
  C    -11.723700   32.296500   32.904300
  C    -10.862400   33.329100   33.275400
  C    -11.312800   33.925900   34.523500
  C    -12.466000   33.266900   35.077100
  H    -10.057300   33.610800   32.563500
  C    -10.530300   35.071800   35.045400
  H    -11.152300   35.943600   35.277000
  H     -9.923740   35.526100   34.234000
  C     -9.708620   34.721700   36.262800
  H     -9.090400   33.823100   36.086000
  H    -10.381700   34.439500   37.020800
  C     -8.928520   35.980400   36.781100
  H     -9.560930   36.733300   37.277000
  H     -8.266990   36.396900   35.971600
  H     -8.183510   35.836100   37.501900
  H    -15.915300   33.968100   38.462400
  H    -11.545200   31.635800   32.096800

 Total Charge           Charge          ....    0
 Multiplicity           Mult            ....    1
 Number of Electrons    NEL             ....  134
 Basis Dimension        Dim             ....  322

ORBITAL ENERGIES
----------------

  NO   OCC          E(Eh)            E(eV)
   0   2.0000     -88.968487     -2420.9556
   1   2.0000     -88.962675     -2420.7974
   2   2.0000     -10.327093      -281.0145
   3   2.0000     -10.321876      -280.8725
   4   2.0000     -10.314180      -280.6631
   5   2.0000     -10.311636      -280.5939
   6   2.0000     -10.309412      -280.5334
   7   2.0000     -10.304631      -280.4033
   8   2.0000     -10.301773      -280.3255
   9   2.0000     -10.299655      -280.2679
  10   2.0000     -10.296140      -280.1722
  11   2.0000     -10.287670      -279.9417
  12   2.0000     -10.285807      -279.8910
  13   2.0000     -10.284156      -279.8461
  14   2.0000     -10.283598      -279.8309
  15   2.0000     -10.278630      -279.6957
  16   2.0000      -8.083914      -219.9745
  17   2.0000      -8.078414      -219.8248
  18   2.0000      -6.042222      -164.4172
  19   2.0000      -6.038257      -164.3093
  20   2.0000      -6.036749      -164.2683
  21   2.0000      -6.034911      -164.2183
  22   2.0000      -6.032858      -164.1624
  23   2.0000      -6.029211      -164.0632
  24   2.0000      -1.010724       -27.5032
  25   2.0000      -0.983276       -26.7563
  26   2.0000      -0.912465       -24.8294
  27   2.0000      -0.909212       -24.7409
  28   2.0000      -0.872527       -23.7427
  29   2.0000      -0.845481       -23.0067
  30   2.0000      -0.842718       -22.9315
  31   2.0000      -0.809708       -22.0333
  32   2.0000      -0.783725       -21.3262
  33   2.0000      -0.768621       -20.9152
  34   2.0000      -0.711665       -19.3654
  35   2.0000      -0.700922       -19.0731
  36   2.0000      -0.694950       -18.9105
  37   2.0000      -0.660616       -17.9763
  38   2.0000      -0.637114       -17.3367
  39   2.0000      -0.617887       -16.8136
  40   2.0000      -0.596857       -16.2413
  41   2.0000      -0.572381       -15.5753
  42   2.0000      -0.562409       -15.3039
  43   2.0000      -0.552933       -15.0461
  44   2.0000      -0.544392       -14.8137
  45   2.0000      -0.516627       -14.0581
  46   2.0000      -0.512315       -13.9408
  47   2.0000      -0.510270       -13.8851
  48   2.0000      -0.502076       -13.6622
  49   2.0000      -0.499511       -13.5924
  50   2.0000      -0.493751       -13.4357
  51   2.0000      -0.477495       -12.9933
  52   2.0000      -0.466937       -12.7060
  53   2.0000      -0.463023       -12.5995
  54   2.0000      -0.460297       -12.5253
  55   2.0000      -0.447813       -12.1856
  56   2.0000      -0.443597       -12.0709
  57   2.0000      -0.435027       -11.8377
  58   2.0000      -0.430522       -11.7151
  59   2.0000      -0.426830       -11.6146
  60   2.0000      -0.424847       -11.5607
  61   2.0000      -0.413861       -11.2617
  62   2.0000      -0.409073       -11.1314
  63   2.0000      -0.341182        -9.2840
  64   2.0000      -0.326125        -8.8743
  65   2.0000      -0.322172        -8.7667
  66   2.0000      -0.293163        -7.9774
  67   0.0000       0.027158         0.7390
  68   0.0000       0.058341         1.5875
  69   0.0000       0.106985         2.9112
  70   0.0000       0.115028         3.1301
  71   0.0000       0.126688         3.4473

MULLIKEN ATOMIC CHARGES
-----------------------
   0 S :    0.137676
   1 C :   -0.114217
   2 C :   -0.161771
   3 C :    0.060713
   4 C :   -0.199416
   5 H :    0.032815
   6 C :    0.146513
   7 H :    0.023193
   8 H :    0.009085
   9 C :   -0.110625
  10 H :    0.031658
  11 H :    0.038142
  12 C :   -0.087395
  13 H :    0.032619
  14 H :    0.030480
  15 H :    0.067320
  16 S :    0.112987
  17 C :   -0.080141
  18 C :   -0.060465
  19 C :   -0.021340
  20 C :   -0.150390
  21 H :    0.043497
  22 C :    0.058925
  23 H :    0.024743
  24 H :    0.014590
  25 C :   -0.045526
  26 H :    0.031214
  27 H :    0.006203
  28 C :   -0.048506
  29 H :    0.040864
  30 H :    0.029860
  31 H :    0.010409
  32 H :    0.050247
  33 H :    0.046039
Sum of atomic charges:    0.0000000

LOEWDIN ATOMIC CHARGES
----------------------
   0 S :    0.439884
   1 C :   -0.211559
   2 C :   -0.065261
   3 C :   -0.055120
   4 C :   -0.215208
   5 H :    0.033050
   6 C :   -0.027280
   7 H :    0.029983
   8 H :    0.027025
   9 C :   -0.039432
  10 H :    0.023952
  11 H :    0.027086
  12 C :   -0.080240
  13 H :    0.026521
  14 H :    0.023685
  15 H :    0.034645
  16 S :    0.434897
  17 C :   -0.187345
  18 C :   -0.072314
  19 C :   -0.043708
  20 C :   -0.225959
  21 H :    0.042287
  22 C :   -0.041362
  23 H :    0.034703
  24 H :    0.030372
  25 C :   -0.034333
  26 H :    0.027403
  27 H :    0.014845
  28 C :   -0.072692
  29 H :    0.030617
  30 H :    0.030730
  31 H :    0.016306
  32 H :    0.026389
  33 H :    0.017433

  Mayer bond orders larger than 0.100000
B(  0-S ,  1-C ) :   1.1732 B(  0-S ,  4-C ) :   1.1629 B(  1-C ,  2-C ) :   1.5654
B(  1-C ,  4-C ) :   0.1085 B(  1-C , 32-H ) :   0.9642 B(  2-C ,  3-C ) :   1.2749
B(  2-C ,  6-C ) :   1.0357 B(  3-C ,  4-C ) :   1.5339 B(  3-C ,  5-H ) :   0.9732
B(  4-C , 20-C ) :   1.0663 B(  6-C ,  7-H ) :   0.9367 B(  6-C ,  8-H ) :   0.9391
B(  6-C ,  9-C ) :   1.0551 B(  9-C , 10-H ) :   0.9623 B(  9-C , 11-H ) :   0.9580
B(  9-C , 12-C ) :   1.0789 B( 12-C , 13-H ) :   0.9742 B( 12-C , 14-H ) :   0.9765
B( 12-C , 15-H ) :   0.9670 B( 16-S , 17-C ) :   1.1745 B( 16-S , 20-C ) :   1.1759
B( 17-C , 18-C ) :   1.5856 B( 17-C , 20-C ) :   0.1100 B( 17-C , 33-H ) :   0.9698
B( 18-C , 19-C ) :   1.2591 B( 18-C , 21-H ) :   0.9857 B( 19-C , 20-C ) :   1.5295
B( 19-C , 22-C ) :   1.0647 B( 22-C , 23-H ) :   0.9273 B( 22-C , 24-H ) :   0.9356
B( 22-C , 25-C ) :   1.0545 B( 25-C , 26-H ) :   0.9551 B( 25-C , 27-H ) :   0.9485
B( 25-C , 28-C ) :   1.0770 B( 28-C , 29-H ) :   0.9735 B( 28-C , 30-H ) :   0.9739
B( 28-C , 31-H ) :   0.9730

Dispersion correction           -0.015371081
FINAL SINGLE POINT ENERGY     -1339.853556355313

DIPOLE MOMENT
-------------
                                X             Y             Z
Electronic contribution:    -16.81014     -17.13286     -19.48218
Nuclear contribution   :     17.25172      17.33859      19.93793
                        -----------------------------------------
Total Dipole Moment    :      0.44158       0.20573       0.45575
                        -----------------------------------------
Magnitude (a.u.)       :      0.66710
Magnitude (Debye)      :      1.69564

Rotational constants in cm-1:     0.018121     0.010314     0.007132
Rotational constants in MHz :   543.240472   309.214577   213.817516

                             ****ORCA TERMINATED NORMALLY****
TOTAL RUN TIME: 0 days 0 hours 0 minutes 35 seconds 891 msec
