                         Program Version 4.2.1 -  RELEASE  -
|  1> ! wB97X-D3 SP def2-SVP
|  2> %pal
|  3> nprocs 16
|  4> end
|  5>
|  6> * xyz 0 1
|  7> S 	 -14.592 	 39.3838 	 38.7157
|  8> C 	 -14.1276 	 40.1721 	 37.1668
|  9> C 	 -13.6945 	 39.1523 	 36.2989
| 10> C 	 -13.9141 	 37.8681 	 36.81
| 11> C 	 -14.4054 	 37.7698 	 38.0683
| 12> H 	 -13.6922 	 36.9691 	 36.2581
| 13> C 	 -12.9439 	 39.3819 	 34.9471
| 14> H 	 -12.2243 	 38.5716 	 34.6986
| 15> H 	 -12.2121 	 40.1847 	 35.0537
| 16> C 	 -13.8466 	 39.6825 	 33.8098
| 17> H 	 -14.5113 	 40.346 	 34.2112
| 18> H 	 -13.327 	 40.2214 	 33.0243
| 19> C 	 -14.6913 	 38.5029 	 33.2759
| 20> H 	 -15.3091 	 38.0974 	 34.0698
| 21> H 	 -15.3418 	 38.774 	 32.4877
| 22> H 	 -13.9846 	 37.6686 	 32.9283
| 23> S 	 -14.5569 	 36.7979 	 40.6444
| 24> C 	 -14.8494 	 35.1261 	 40.9609
| 25> C 	 -15.0481 	 34.4932 	 39.7962
| 26> C 	 -14.8032 	 35.2325 	 38.5927
| 27> C 	 -14.6489 	 36.5869 	 38.8456
| 28> H 	 -15.1547 	 33.4282 	 39.8681
| 29> C 	 -14.8591 	 34.6211 	 37.2323
| 30> H 	 -15.1578 	 35.3229 	 36.567
| 31> H 	 -15.6965 	 33.9285 	 37.2456
| 32> C 	 -13.607 	 33.9507 	 36.7894
| 33> H 	 -13.5445 	 33.145 	 37.5362
| 34> H 	 -12.7876 	 34.6637 	 36.8934
| 35> C 	 -13.4838 	 33.3726 	 35.3561
| 36> H 	 -13.498 	 34.2099 	 34.6145
| 37> H 	 -14.3097 	 32.7398 	 35.1216
| 38> H 	 -12.6053 	 32.8081 	 35.2095
| 39> H 	 -14.1513 	 41.2277 	 36.9892
| 40> H 	 -14.7395 	 34.6419 	 41.9508
| 41> *
| 42>
| 43>                          ****END OF INPUT****

CARTESIAN COORDINATES (ANGSTROEM)
---------------------------------
  S    -14.592000   39.383800   38.715700
  C    -14.127600   40.172100   37.166800
  C    -13.694500   39.152300   36.298900
  C    -13.914100   37.868100   36.810000
  C    -14.405400   37.769800   38.068300
  H    -13.692200   36.969100   36.258100
  C    -12.943900   39.381900   34.947100
  H    -12.224300   38.571600   34.698600
  H    -12.212100   40.184700   35.053700
  C    -13.846600   39.682500   33.809800
  H    -14.511300   40.346000   34.211200
  H    -13.327000   40.221400   33.024300
  C    -14.691300   38.502900   33.275900
  H    -15.309100   38.097400   34.069800
  H    -15.341800   38.774000   32.487700
  H    -13.984600   37.668600   32.928300
  S    -14.556900   36.797900   40.644400
  C    -14.849400   35.126100   40.960900
  C    -15.048100   34.493200   39.796200
  C    -14.803200   35.232500   38.592700
  C    -14.648900   36.586900   38.845600
  H    -15.154700   33.428200   39.868100
  C    -14.859100   34.621100   37.232300
  H    -15.157800   35.322900   36.567000
  H    -15.696500   33.928500   37.245600
  C    -13.607000   33.950700   36.789400
  H    -13.544500   33.145000   37.536200
  H    -12.787600   34.663700   36.893400
  C    -13.483800   33.372600   35.356100
  H    -13.498000   34.209900   34.614500
  H    -14.309700   32.739800   35.121600
  H    -12.605300   32.808100   35.209500
  H    -14.151300   41.227700   36.989200
  H    -14.739500   34.641900   41.950800

 Total Charge           Charge          ....    0
 Multiplicity           Mult            ....    1
 Number of Electrons    NEL             ....  134
 Basis Dimension        Dim             ....  322

ORBITAL ENERGIES
----------------

  NO   OCC          E(Eh)            E(eV)
   0   2.0000     -88.968042     -2420.9435
   1   2.0000     -88.960047     -2420.7259
   2   2.0000     -10.334181      -281.2074
   3   2.0000     -10.330899      -281.1180
   4   2.0000     -10.323299      -280.9112
   5   2.0000     -10.317141      -280.7437
   6   2.0000     -10.307583      -280.4836
   7   2.0000     -10.306656      -280.4584
   8   2.0000     -10.294389      -280.1246
   9   2.0000     -10.289260      -279.9850
  10   2.0000     -10.289084      -279.9802
  11   2.0000     -10.287012      -279.9238
  12   2.0000     -10.280330      -279.7420
  13   2.0000     -10.279846      -279.7288
  14   2.0000     -10.278741      -279.6988
  15   2.0000     -10.275014      -279.5973
  16   2.0000      -8.081884      -219.9192
  17   2.0000      -8.074911      -219.7295
  18   2.0000      -6.040616      -164.3735
  19   2.0000      -6.036478      -164.2609
  20   2.0000      -6.033551      -164.1813
  21   2.0000      -6.032483      -164.1522
  22   2.0000      -6.029428      -164.0691
  23   2.0000      -6.025476      -163.9616
  24   2.0000      -1.010240       -27.4900
  25   2.0000      -0.986762       -26.8512
  26   2.0000      -0.920439       -25.0464
  27   2.0000      -0.916864       -24.9491
  28   2.0000      -0.874593       -23.7989
  29   2.0000      -0.853272       -23.2187
  30   2.0000      -0.841655       -22.9026
  31   2.0000      -0.817644       -22.2492
  32   2.0000      -0.790596       -21.5132
  33   2.0000      -0.780516       -21.2389
  34   2.0000      -0.711949       -19.3731
  35   2.0000      -0.704602       -19.1732
  36   2.0000      -0.698533       -19.0080
  37   2.0000      -0.663973       -18.0676
  38   2.0000      -0.643075       -17.4990
  39   2.0000      -0.624751       -17.0003
  40   2.0000      -0.603123       -16.4118
  41   2.0000      -0.578702       -15.7473
  42   2.0000      -0.574326       -15.6282
  43   2.0000      -0.550705       -14.9854
  44   2.0000      -0.542704       -14.7677
  45   2.0000      -0.528997       -14.3947
  46   2.0000      -0.523477       -14.2445
  47   2.0000      -0.515254       -14.0208
  48   2.0000      -0.507476       -13.8091
  49   2.0000      -0.503485       -13.7005
  50   2.0000      -0.499819       -13.6008
  51   2.0000      -0.480065       -13.0632
  52   2.0000      -0.474640       -12.9156
  53   2.0000      -0.474046       -12.8995
  54   2.0000      -0.458523       -12.4770
  55   2.0000      -0.455344       -12.3905
  56   2.0000      -0.443758       -12.0753
  57   2.0000      -0.438430       -11.9303
  58   2.0000      -0.429742       -11.6939
  59   2.0000      -0.420440       -11.4408
  60   2.0000      -0.418809       -11.3964
  61   2.0000      -0.415684       -11.3113
  62   2.0000      -0.405615       -11.0373
  63   2.0000      -0.366116        -9.9625
  64   2.0000      -0.337175        -9.1750
  65   2.0000      -0.328757        -8.9459
  66   2.0000      -0.284912        -7.7528
  67   0.0000       0.016686         0.4540
  68   0.0000       0.074136         2.0174
  69   0.0000       0.104372         2.8401
  70   0.0000       0.118058         3.2125
  71   0.0000       0.127392         3.4665

MULLIKEN ATOMIC CHARGES
-----------------------
   0 S :    0.098279
   1 C :   -0.121895
   2 C :   -0.078348
   3 C :   -0.015339
   4 C :   -0.079107
   5 H :   -0.008543
   6 C :    0.046254
   7 H :    0.023424
   8 H :    0.023717
   9 C :   -0.013201
  10 H :   -0.003913
  11 H :    0.024856
  12 C :   -0.058697
  13 H :    0.033863
  14 H :    0.032990
  15 H :    0.030600
  16 S :    0.067054
  17 C :   -0.088731
  18 C :   -0.018623
  19 C :   -0.080039
  20 C :   -0.106210
  21 H :    0.009583
  22 C :    0.116717
  23 H :   -0.018101
  24 H :    0.015810
  25 C :   -0.089918
  26 H :    0.021905
  27 H :    0.031104
  28 C :   -0.007196
  29 H :    0.028857
  30 H :    0.020759
  31 H :    0.034193
  32 H :    0.051769
  33 H :    0.076128
Sum of atomic charges:   -0.0000000

LOEWDIN ATOMIC CHARGES
----------------------
   0 S :    0.391096
   1 C :   -0.177772
   2 C :   -0.056296
   3 C :   -0.074688
   4 C :   -0.186978
   5 H :    0.027882
   6 C :   -0.030361
   7 H :    0.029891
   8 H :    0.032882
   9 C :   -0.040626
  10 H :    0.012855
  11 H :    0.024088
  12 C :   -0.062288
  13 H :    0.024944
  14 H :    0.020807
  15 H :    0.028699
  16 S :    0.375140
  17 C :   -0.186382
  18 C :   -0.078454
  19 C :   -0.048685
  20 C :   -0.163122
  21 H :    0.027817
  22 C :   -0.029887
  23 H :    0.010424
  24 H :    0.032965
  25 C :   -0.039498
  26 H :    0.025427
  27 H :    0.023904
  28 C :   -0.058034
  29 H :    0.028450
  30 H :    0.020328
  31 H :    0.024017
  32 H :    0.027352
  33 H :    0.044106

  Mayer bond orders larger than 0.100000
B(  0-S ,  1-C ) :   1.1342 B(  0-S ,  4-C ) :   1.1366 B(  1-C ,  2-C ) :   1.5811
B(  1-C ,  4-C ) :   0.1081 B(  1-C , 32-H ) :   0.9772 B(  2-C ,  3-C ) :   1.2709
B(  2-C ,  6-C ) :   1.0025 B(  3-C ,  4-C ) :   1.5521 B(  3-C ,  5-H ) :   0.9969
B(  4-C , 20-C ) :   1.0913 B(  6-C ,  7-H ) :   0.9488 B(  6-C ,  8-H ) :   0.9408
B(  6-C ,  9-C ) :   1.0792 B(  9-C , 10-H ) :   0.9467 B(  9-C , 11-H ) :   0.9519
B(  9-C , 12-C ) :   1.0798 B( 12-C , 13-H ) :   0.9732 B( 12-C , 14-H ) :   0.9747
B( 12-C , 15-H ) :   0.9765 B( 16-S , 17-C ) :   1.1446 B( 16-S , 20-C ) :   1.1138
B( 17-C , 18-C ) :   1.6340 B( 17-C , 33-H ) :   0.9612 B( 18-C , 19-C ) :   1.2249
B( 18-C , 21-H ) :   0.9867 B( 19-C , 20-C ) :   1.6026 B( 19-C , 22-C ) :   1.0509
B( 22-C , 23-H ) :   0.9215 B( 22-C , 24-H ) :   0.9233 B( 22-C , 25-C ) :   1.0576
B( 25-C , 26-H ) :   0.9546 B( 25-C , 27-H ) :   0.9541 B( 25-C , 28-C ) :   1.0872
B( 28-C , 29-H ) :   0.9728 B( 28-C , 30-H ) :   0.9730 B( 28-C , 31-H ) :   0.9740

Dispersion correction           -0.014456033
FINAL SINGLE POINT ENERGY     -1339.867830612652

DIPOLE MOMENT
-------------
                                X             Y             Z
Electronic contribution:     -4.43445      10.57652      29.60503
Nuclear contribution   :      4.65276     -10.95769     -30.17982
                        -----------------------------------------
Total Dipole Moment    :      0.21831      -0.38116      -0.57478
                        -----------------------------------------
Magnitude (a.u.)       :      0.72341
Magnitude (Debye)      :      1.83876

Rotational constants in cm-1:     0.017195     0.010042     0.006655
Rotational constants in MHz :   515.494817   301.063164   199.516515

                             ****ORCA TERMINATED NORMALLY****
TOTAL RUN TIME: 0 days 0 hours 0 minutes 33 seconds 92 msec
