                         Program Version 4.2.1 -  RELEASE  -
|  1> ! wB97X-D3 SP def2-SVP
|  2> %pal
|  3> nprocs 16
|  4> end
|  5>
|  6> * xyz 0 1
|  7> S 	 43.8823 	 11.4163 	 88.0428
|  8> C 	 44.5259 	 10.6192 	 86.579
|  9> C 	 43.7492 	 10.8279 	 85.4798
| 10> C 	 42.7295 	 11.7258 	 85.8068
| 11> C 	 42.6164 	 12.2281 	 87.1264
| 12> H 	 42.0257 	 12.115 	 85.1004
| 13> C 	 44.2194 	 10.2377 	 84.1046
| 14> H 	 44.7551 	 9.27054 	 84.1935
| 15> H 	 44.9575 	 10.9355 	 83.756
| 16> C 	 43.0722 	 10.1462 	 83.0533
| 17> H 	 42.5927 	 11.1192 	 82.8558
| 18> H 	 43.4782 	 9.85512 	 82.0995
| 19> C 	 41.8531 	 9.25144 	 83.4876
| 20> H 	 41.3177 	 9.74612 	 84.2722
| 21> H 	 41.1274 	 9.1994 	 82.6578
| 22> H 	 42.0421 	 8.21523 	 83.7204
| 23> S 	 42.192 	 14.1728 	 88.886
| 24> C 	 40.5802 	 14.9219 	 89.0552
| 25> C 	 39.7332 	 14.3636 	 88.1715
| 26> C 	 40.2946 	 13.2497 	 87.3859
| 27> C 	 41.6257 	 13.0863 	 87.6738
| 28> H 	 38.7119 	 14.6908 	 88.0486
| 29> C 	 39.5017 	 12.4961 	 86.3202
| 30> H 	 39.7033 	 11.4374 	 86.4106
| 31> H 	 39.88 	 12.9254 	 85.3681
| 32> C 	 37.9497 	 12.6156 	 86.4753
| 33> H 	 37.719 	 13.6533 	 86.2481
| 34> H 	 37.6314 	 12.3593 	 87.5474
| 35> C 	 37.1496 	 11.7081 	 85.5266
| 36> H 	 36.1107 	 12.0284 	 85.448
| 37> H 	 37.1138 	 10.7276 	 85.8946
| 38> H 	 37.5829 	 11.7011 	 84.49
| 39> H 	 45.5037 	 10.1537 	 86.6795
| 40> H 	 40.3442 	 15.822 	 89.6801
| 41> *
| 42>
| 43>                          ****END OF INPUT****

CARTESIAN COORDINATES (ANGSTROEM)
---------------------------------
  S     43.882300   11.416300   88.042800
  C     44.525900   10.619200   86.579000
  C     43.749200   10.827900   85.479800
  C     42.729500   11.725800   85.806800
  C     42.616400   12.228100   87.126400
  H     42.025700   12.115000   85.100400
  C     44.219400   10.237700   84.104600
  H     44.755100    9.270540   84.193500
  H     44.957500   10.935500   83.756000
  C     43.072200   10.146200   83.053300
  H     42.592700   11.119200   82.855800
  H     43.478200    9.855120   82.099500
  C     41.853100    9.251440   83.487600
  H     41.317700    9.746120   84.272200
  H     41.127400    9.199400   82.657800
  H     42.042100    8.215230   83.720400
  S     42.192000   14.172800   88.886000
  C     40.580200   14.921900   89.055200
  C     39.733200   14.363600   88.171500
  C     40.294600   13.249700   87.385900
  C     41.625700   13.086300   87.673800
  H     38.711900   14.690800   88.048600
  C     39.501700   12.496100   86.320200
  H     39.703300   11.437400   86.410600
  H     39.880000   12.925400   85.368100
  C     37.949700   12.615600   86.475300
  H     37.719000   13.653300   86.248100
  H     37.631400   12.359300   87.547400
  C     37.149600   11.708100   85.526600
  H     36.110700   12.028400   85.448000
  H     37.113800   10.727600   85.894600
  H     37.582900   11.701100   84.490000
  H     45.503700   10.153700   86.679500
  H     40.344200   15.822000   89.680100

 Total Charge           Charge          ....    0
 Multiplicity           Mult            ....    1
 Number of Electrons    NEL             ....  134
 Basis Dimension        Dim             ....  322

ORBITAL ENERGIES
----------------

  NO   OCC          E(Eh)            E(eV)
   0   2.0000     -88.961862     -2420.7753
   1   2.0000     -88.961219     -2420.7578
   2   2.0000     -10.329693      -281.0852
   3   2.0000     -10.322022      -280.8765
   4   2.0000     -10.320562      -280.8368
   5   2.0000     -10.312980      -280.6305
   6   2.0000     -10.305249      -280.4201
   7   2.0000     -10.303157      -280.3632
   8   2.0000     -10.303019      -280.3594
   9   2.0000     -10.298901      -280.2474
  10   2.0000     -10.296839      -280.1912
  11   2.0000     -10.294285      -280.1217
  12   2.0000     -10.293625      -280.1038
  13   2.0000     -10.293552      -280.1018
  14   2.0000     -10.279917      -279.7308
  15   2.0000     -10.276892      -279.6484
  16   2.0000      -8.076348      -219.7686
  17   2.0000      -8.076036      -219.7601
  18   2.0000      -6.035034      -164.2216
  19   2.0000      -6.034508      -164.2073
  20   2.0000      -6.030848      -164.1077
  21   2.0000      -6.030548      -164.0996
  22   2.0000      -6.026941      -164.0014
  23   2.0000      -6.026822      -163.9982
  24   2.0000      -1.007501       -27.4155
  25   2.0000      -0.981765       -26.7152
  26   2.0000      -0.907396       -24.6915
  27   2.0000      -0.904468       -24.6118
  28   2.0000      -0.873787       -23.7770
  29   2.0000      -0.849629       -23.1196
  30   2.0000      -0.837337       -22.7851
  31   2.0000      -0.815804       -22.1992
  32   2.0000      -0.786141       -21.3920
  33   2.0000      -0.773342       -21.0437
  34   2.0000      -0.712794       -19.3961
  35   2.0000      -0.700532       -19.0624
  36   2.0000      -0.691188       -18.8082
  37   2.0000      -0.654011       -17.7965
  38   2.0000      -0.639627       -17.4051
  39   2.0000      -0.621755       -16.9188
  40   2.0000      -0.594818       -16.1858
  41   2.0000      -0.575667       -15.6647
  42   2.0000      -0.563881       -15.3440
  43   2.0000      -0.548442       -14.9239
  44   2.0000      -0.534267       -14.5381
  45   2.0000      -0.524297       -14.2668
  46   2.0000      -0.520832       -14.1726
  47   2.0000      -0.515333       -14.0229
  48   2.0000      -0.502242       -13.6667
  49   2.0000      -0.501198       -13.6383
  50   2.0000      -0.488672       -13.2975
  51   2.0000      -0.479012       -13.0346
  52   2.0000      -0.474924       -12.9233
  53   2.0000      -0.466131       -12.6841
  54   2.0000      -0.460000       -12.5172
  55   2.0000      -0.454253       -12.3609
  56   2.0000      -0.438672       -11.9369
  57   2.0000      -0.435481       -11.8500
  58   2.0000      -0.431598       -11.7444
  59   2.0000      -0.428495       -11.6599
  60   2.0000      -0.420083       -11.4310
  61   2.0000      -0.415719       -11.3123
  62   2.0000      -0.410585       -11.1726
  63   2.0000      -0.355804        -9.6819
  64   2.0000      -0.332501        -9.0478
  65   2.0000      -0.327183        -8.9031
  66   2.0000      -0.286466        -7.7951
  67   0.0000       0.022943         0.6243
  68   0.0000       0.082401         2.2423
  69   0.0000       0.107679         2.9301
  70   0.0000       0.123451         3.3593
  71   0.0000       0.130567         3.5529

MULLIKEN ATOMIC CHARGES
-----------------------
   0 S :    0.094172
   1 C :   -0.160863
   2 C :   -0.029970
   3 C :   -0.013374
   4 C :   -0.132004
   5 H :   -0.016598
   6 C :    0.081485
   7 H :    0.041067
   8 H :    0.043178
   9 C :   -0.079902
  10 H :    0.028484
  11 H :    0.024563
  12 C :   -0.054066
  13 H :    0.029657
  14 H :    0.025946
  15 H :    0.034702
  16 S :    0.089069
  17 C :   -0.088146
  18 C :   -0.033219
  19 C :   -0.074701
  20 C :   -0.137269
  21 H :    0.017544
  22 C :    0.046264
  23 H :    0.042147
  24 H :    0.059132
  25 C :   -0.129409
  26 H :    0.033126
  27 H :    0.051739
  28 C :   -0.019520
  29 H :    0.033803
  30 H :    0.025761
  31 H :    0.034393
  32 H :    0.056793
  33 H :    0.076014
Sum of atomic charges:   -0.0000000

LOEWDIN ATOMIC CHARGES
----------------------
   0 S :    0.382136
   1 C :   -0.176635
   2 C :   -0.066527
   3 C :   -0.067983
   4 C :   -0.193067
   5 H :    0.019244
   6 C :   -0.021748
   7 H :    0.036714
   8 H :    0.034036
   9 C :   -0.040729
  10 H :    0.026284
  11 H :    0.020936
  12 C :   -0.066254
  13 H :    0.021414
  14 H :    0.028031
  15 H :    0.021927
  16 S :    0.395001
  17 C :   -0.180539
  18 C :   -0.070759
  19 C :   -0.055201
  20 C :   -0.205253
  21 H :    0.029529
  22 C :   -0.033480
  23 H :    0.032746
  24 H :    0.037376
  25 C :   -0.045653
  26 H :    0.018922
  27 H :    0.035485
  28 C :   -0.064371
  29 H :    0.029025
  30 H :    0.018010
  31 H :    0.030602
  32 H :    0.026434
  33 H :    0.044346

  Mayer bond orders larger than 0.100000
B(  0-S ,  1-C ) :   1.1506 B(  0-S ,  4-C ) :   1.1419 B(  1-C ,  2-C ) :   1.5822
B(  1-C ,  4-C ) :   0.1132 B(  1-C , 32-H ) :   0.9707 B(  2-C ,  3-C ) :   1.2737
B(  2-C ,  6-C ) :   0.9883 B(  3-C ,  4-C ) :   1.5431 B(  3-C ,  5-H ) :   0.9951
B(  4-C , 20-C ) :   1.0881 B(  6-C ,  7-H ) :   0.9489 B(  6-C ,  8-H ) :   0.9420
B(  6-C ,  9-C ) :   1.0778 B(  9-C , 10-H ) :   0.9528 B(  9-C , 11-H ) :   0.9586
B(  9-C , 12-C ) :   1.0709 B( 12-C , 13-H ) :   0.9753 B( 12-C , 14-H ) :   0.9739
B( 12-C , 15-H ) :   0.9788 B( 16-S , 17-C ) :   1.1197 B( 16-S , 20-C ) :   1.1296
B( 17-C , 18-C ) :   1.6452 B( 17-C , 33-H ) :   0.9596 B( 18-C , 19-C ) :   1.2119
B( 18-C , 21-H ) :   0.9853 B( 19-C , 20-C ) :   1.6234 B( 19-C , 22-C ) :   1.0311
B( 22-C , 23-H ) :   0.9376 B( 22-C , 24-H ) :   0.9243 B( 22-C , 25-C ) :   1.0729
B( 25-C , 26-H ) :   0.9465 B( 25-C , 27-H ) :   0.9594 B( 25-C , 28-C ) :   1.0843
B( 28-C , 29-H ) :   0.9730 B( 28-C , 30-H ) :   0.9749 B( 28-C , 31-H ) :   0.9722

Dispersion correction           -0.014166205
FINAL SINGLE POINT ENERGY     -1339.882625300658

DIPOLE MOMENT
-------------
                                X             Y             Z
Electronic contribution:     17.69316      11.71359      23.64176
Nuclear contribution   :    -18.11968     -11.79162     -24.35161
                        -----------------------------------------
Total Dipole Moment    :     -0.42652      -0.07803      -0.70985
                        -----------------------------------------
Magnitude (a.u.)       :      0.83180
Magnitude (Debye)      :      2.11428

Rotational constants in cm-1:     0.015693     0.010242     0.006585
Rotational constants in MHz :   470.450453   307.042448   197.406122

                             ****ORCA TERMINATED NORMALLY****
TOTAL RUN TIME: 0 days 0 hours 0 minutes 30 seconds 561 msec
