                         Program Version 4.2.1 -  RELEASE  -
|  1> ! wB97X-D3 SP def2-SVP
|  2> %pal
|  3> nprocs 16
|  4> end
|  5>
|  6> * xyz 0 1
|  7> S 	 15.1478 	 24.6917 	 66.3465
|  8> C 	 15.3801 	 25.6109 	 64.8738
|  9> C 	 14.1664 	 25.9299 	 64.3621
| 10> C 	 13.1307 	 25.3232 	 65.1193
| 11> C 	 13.4538 	 25.0278 	 66.4214
| 12> H 	 12.0729 	 25.3911 	 64.8877
| 13> C 	 13.9114 	 26.7128 	 63.0499
| 14> H 	 13.6035 	 25.9917 	 62.2624
| 15> H 	 14.8433 	 27.0923 	 62.7677
| 16> C 	 12.9464 	 27.9109 	 63.0595
| 17> H 	 12.9948 	 28.4672 	 62.1346
| 18> H 	 11.9165 	 27.4312 	 63.0267
| 19> C 	 13.0897 	 28.826 	 64.3176
| 20> H 	 12.4409 	 29.7201 	 64.3586
| 21> H 	 13.1593 	 28.262 	 65.2828
| 22> H 	 14.001 	 29.3565 	 64.4607
| 23> S 	 11.1753 	 23.653 	 67.0103
| 24> C 	 10.6332 	 23.4866 	 68.7311
| 25> C 	 11.3474 	 24.2724 	 69.5527
| 26> C 	 12.5128 	 24.8113 	 68.9088
| 27> C 	 12.505 	 24.6309 	 67.4953
| 28> H 	 10.971 	 24.3997 	 70.6346
| 29> C 	 13.4821 	 25.6488 	 69.6328
| 30> H 	 14.4375 	 25.6007 	 69.2593
| 31> H 	 13.454 	 25.1692 	 70.6249
| 32> C 	 13.0539 	 27.0728 	 69.7494
| 33> H 	 13.5574 	 27.5414 	 70.5563
| 34> H 	 12.005 	 27.1804 	 70.0706
| 35> C 	 13.4264 	 27.8599 	 68.4727
| 36> H 	 14.316 	 27.4562 	 67.9935
| 37> H 	 13.5954 	 28.927 	 68.6221
| 38> H 	 12.6277 	 27.6477 	 67.6764
| 39> H 	 16.3382 	 25.9812 	 64.5075
| 40> H 	 9.86922 	 22.8218 	 69.0281
| 41> *
| 42>
| 43>                          ****END OF INPUT****

CARTESIAN COORDINATES (ANGSTROEM)
---------------------------------
  S     15.147800   24.691700   66.346500
  C     15.380100   25.610900   64.873800
  C     14.166400   25.929900   64.362100
  C     13.130700   25.323200   65.119300
  C     13.453800   25.027800   66.421400
  H     12.072900   25.391100   64.887700
  C     13.911400   26.712800   63.049900
  H     13.603500   25.991700   62.262400
  H     14.843300   27.092300   62.767700
  C     12.946400   27.910900   63.059500
  H     12.994800   28.467200   62.134600
  H     11.916500   27.431200   63.026700
  C     13.089700   28.826000   64.317600
  H     12.440900   29.720100   64.358600
  H     13.159300   28.262000   65.282800
  H     14.001000   29.356500   64.460700
  S     11.175300   23.653000   67.010300
  C     10.633200   23.486600   68.731100
  C     11.347400   24.272400   69.552700
  C     12.512800   24.811300   68.908800
  C     12.505000   24.630900   67.495300
  H     10.971000   24.399700   70.634600
  C     13.482100   25.648800   69.632800
  H     14.437500   25.600700   69.259300
  H     13.454000   25.169200   70.624900
  C     13.053900   27.072800   69.749400
  H     13.557400   27.541400   70.556300
  H     12.005000   27.180400   70.070600
  C     13.426400   27.859900   68.472700
  H     14.316000   27.456200   67.993500
  H     13.595400   28.927000   68.622100
  H     12.627700   27.647700   67.676400
  H     16.338200   25.981200   64.507500
  H      9.869220   22.821800   69.028100

 Total Charge           Charge          ....    0
 Multiplicity           Mult            ....    1
 Number of Electrons    NEL             ....  134
 Basis Dimension        Dim             ....  322

ORBITAL ENERGIES
----------------

  NO   OCC          E(Eh)            E(eV)
   0   2.0000     -88.966028     -2420.8887
   1   2.0000     -88.961959     -2420.7780
   2   2.0000     -10.332363      -281.1579
   3   2.0000     -10.332112      -281.1511
   4   2.0000     -10.318855      -280.7903
   5   2.0000     -10.311580      -280.5923
   6   2.0000     -10.307950      -280.4936
   7   2.0000     -10.303197      -280.3642
   8   2.0000     -10.300992      -280.3042
   9   2.0000     -10.295104      -280.1440
  10   2.0000     -10.292514      -280.0736
  11   2.0000     -10.288648      -279.9683
  12   2.0000     -10.279138      -279.7096
  13   2.0000     -10.277996      -279.6785
  14   2.0000     -10.276802      -279.6460
  15   2.0000     -10.275907      -279.6217
  16   2.0000      -8.080361      -219.8778
  17   2.0000      -8.076964      -219.7854
  18   2.0000      -6.038918      -164.3273
  19   2.0000      -6.035601      -164.2370
  20   2.0000      -6.034996      -164.2206
  21   2.0000      -6.031576      -164.1275
  22   2.0000      -6.031015      -164.1123
  23   2.0000      -6.027377      -164.0133
  24   2.0000      -1.012611       -27.5545
  25   2.0000      -0.990037       -26.9403
  26   2.0000      -0.918446       -24.9922
  27   2.0000      -0.906298       -24.6616
  28   2.0000      -0.874702       -23.8019
  29   2.0000      -0.843865       -22.9627
  30   2.0000      -0.835802       -22.7433
  31   2.0000      -0.819903       -22.3107
  32   2.0000      -0.785277       -21.3685
  33   2.0000      -0.771532       -20.9945
  34   2.0000      -0.710451       -19.3323
  35   2.0000      -0.703186       -19.1347
  36   2.0000      -0.693323       -18.8663
  37   2.0000      -0.664601       -18.0847
  38   2.0000      -0.632723       -17.2173
  39   2.0000      -0.619528       -16.8582
  40   2.0000      -0.603091       -16.4109
  41   2.0000      -0.569062       -15.4850
  42   2.0000      -0.559898       -15.2356
  43   2.0000      -0.548046       -14.9131
  44   2.0000      -0.542599       -14.7649
  45   2.0000      -0.533752       -14.5241
  46   2.0000      -0.513861       -13.9829
  47   2.0000      -0.510197       -13.8832
  48   2.0000      -0.502290       -13.6680
  49   2.0000      -0.498535       -13.5658
  50   2.0000      -0.485169       -13.2021
  51   2.0000      -0.481426       -13.1003
  52   2.0000      -0.471586       -12.8325
  53   2.0000      -0.467082       -12.7099
  54   2.0000      -0.452336       -12.3087
  55   2.0000      -0.448790       -12.2122
  56   2.0000      -0.443494       -12.0681
  57   2.0000      -0.439002       -11.9459
  58   2.0000      -0.435374       -11.8471
  59   2.0000      -0.432880       -11.7793
  60   2.0000      -0.415315       -11.3013
  61   2.0000      -0.403740       -10.9863
  62   2.0000      -0.398748       -10.8505
  63   2.0000      -0.356057        -9.6888
  64   2.0000      -0.327808        -8.9201
  65   2.0000      -0.323258        -8.7963
  66   2.0000      -0.290806        -7.9132
  67   0.0000       0.022423         0.6102
  68   0.0000       0.073851         2.0096
  69   0.0000       0.104231         2.8363
  70   0.0000       0.111828         3.0430
  71   0.0000       0.130847         3.5605

MULLIKEN ATOMIC CHARGES
-----------------------
   0 S :    0.093604
   1 C :   -0.116656
   2 C :   -0.122569
   3 C :    0.002490
   4 C :   -0.111948
   5 H :    0.014819
   6 C :    0.101024
   7 H :    0.048711
   8 H :   -0.005568
   9 C :   -0.062998
  10 H :    0.033085
  11 H :    0.035373
  12 C :   -0.066471
  13 H :    0.036274
  14 H :    0.044595
  15 H :    0.006373
  16 S :    0.092939
  17 C :   -0.082177
  18 C :   -0.050006
  19 C :   -0.072392
  20 C :   -0.145401
  21 H :    0.059998
  22 C :    0.108565
  23 H :   -0.000206
  24 H :    0.018408
  25 C :   -0.024864
  26 H :    0.011614
  27 H :    0.020685
  28 C :   -0.090380
  29 H :    0.027029
  30 H :    0.040632
  31 H :    0.060902
  32 H :    0.050005
  33 H :    0.044507
Sum of atomic charges:   -0.0000000

LOEWDIN ATOMIC CHARGES
----------------------
   0 S :    0.403382
   1 C :   -0.197425
   2 C :   -0.065285
   3 C :   -0.076569
   4 C :   -0.189729
   5 H :    0.021080
   6 C :   -0.025555
   7 H :    0.041147
   8 H :    0.017415
   9 C :   -0.040829
  10 H :    0.025668
  11 H :    0.028923
  12 C :   -0.086517
  13 H :    0.031163
  14 H :    0.036454
  15 H :    0.021139
  16 S :    0.396242
  17 C :   -0.153786
  18 C :   -0.077837
  19 C :   -0.049087
  20 C :   -0.208803
  21 H :    0.053886
  22 C :   -0.030169
  23 H :    0.015771
  24 H :    0.036397
  25 C :   -0.035273
  26 H :    0.017904
  27 H :    0.025761
  28 C :   -0.072040
  29 H :    0.021523
  30 H :    0.025386
  31 H :    0.035838
  32 H :    0.031737
  33 H :    0.022088

  Mayer bond orders larger than 0.100000
B(  0-S ,  1-C ) :   1.1237 B(  0-S ,  4-C ) :   1.1388 B(  1-C ,  2-C ) :   1.6313
B(  1-C , 32-H ) :   0.9652 B(  2-C ,  3-C ) :   1.2302 B(  2-C ,  6-C ) :   1.0170
B(  3-C ,  4-C ) :   1.5764 B(  3-C ,  5-H ) :   0.9858 B(  4-C , 20-C ) :   1.0485
B(  6-C ,  7-H ) :   0.9416 B(  6-C ,  8-H ) :   0.9359 B(  6-C ,  9-C ) :   1.0694
B(  9-C , 10-H ) :   0.9577 B(  9-C , 11-H ) :   0.9556 B(  9-C , 12-C ) :   1.0645
B( 12-C , 13-H ) :   0.9751 B( 12-C , 14-H ) :   0.9653 B( 12-C , 15-H ) :   0.9681
B( 16-S , 17-C ) :   1.1372 B( 16-S , 20-C ) :   1.1415 B( 17-C , 18-C ) :   1.6468
B( 17-C , 33-H ) :   0.9729 B( 18-C , 19-C ) :   1.2224 B( 18-C , 21-H ) :   0.9705
B( 19-C , 20-C ) :   1.5656 B( 19-C , 22-C ) :   1.0699 B( 22-C , 23-H ) :   0.9288
B( 22-C , 24-H ) :   0.9156 B( 22-C , 25-C ) :   1.0864 B( 25-C , 26-H ) :   0.9497
B( 25-C , 27-H ) :   0.9514 B( 25-C , 28-C ) :   1.0685 B( 28-C , 29-H ) :   0.9729
B( 28-C , 30-H ) :   0.9744 B( 28-C , 31-H ) :   0.9666

Dispersion correction           -0.016658070
FINAL SINGLE POINT ENERGY     -1339.844442210086

DIPOLE MOMENT
-------------
                                X             Y             Z
Electronic contribution:     -0.50461     -22.60631       2.14280
Nuclear contribution   :      0.37369      22.99608      -1.99105
                        -----------------------------------------
Total Dipole Moment    :     -0.13092       0.38977       0.15175
                        -----------------------------------------
Magnitude (a.u.)       :      0.43828
Magnitude (Debye)      :      1.11402

Rotational constants in cm-1:     0.019909     0.009417     0.008688
Rotational constants in MHz :   596.869590   282.326192   260.451270

                             ****ORCA TERMINATED NORMALLY****
TOTAL RUN TIME: 0 days 0 hours 0 minutes 38 seconds 180 msec
