                         Program Version 4.2.1 -  RELEASE  -
|  1> ! wB97X-D3 SP def2-SVP
|  2> %pal
|  3> nprocs 16
|  4> end
|  5>
|  6> * xyz 0 1
|  7> S 	 -35.7515 	 53.7612 	 102.345
|  8> C 	 -36.2915 	 53.2507 	 100.696
|  9> C 	 -35.7912 	 54.1139 	 99.7232
| 10> C 	 -34.8366 	 55.0578 	 100.278
| 11> C 	 -34.7876 	 55.0672 	 101.682
| 12> H 	 -34.2186 	 55.8532 	 99.8394
| 13> C 	 -36.0546 	 54.0599 	 98.1988
| 14> H 	 -36.2478 	 55.0933 	 97.7721
| 15> H 	 -37.0293 	 53.5733 	 98.0107
| 16> C 	 -35.0071 	 53.2792 	 97.3979
| 17> H 	 -34.0179 	 53.8077 	 97.506
| 18> H 	 -34.7504 	 52.3388 	 97.8385
| 19> C 	 -35.2706 	 53.1574 	 95.8798
| 20> H 	 -34.4769 	 52.588 	 95.3288
| 21> H 	 -36.2241 	 52.7195 	 95.7419
| 22> H 	 -35.3029 	 54.1174 	 95.3544
| 23> S 	 -32.6945 	 55.6365 	 103.513
| 24> C 	 -32.4995 	 57.3184 	 103.978
| 25> C 	 -33.3307 	 58.207 	 103.254
| 26> C 	 -34.3339 	 57.4837 	 102.541
| 27> C 	 -34.125 	 56.0617 	 102.468
| 28> H 	 -33.351 	 59.3024 	 103.398
| 29> C 	 -35.4354 	 58.2654 	 101.875
| 30> H 	 -35.9402 	 57.643 	 101.136
| 31> H 	 -35.0114 	 59.1276 	 101.382
| 32> C 	 -36.6029 	 58.6921 	 102.795
| 33> H 	 -36.214 	 59.1911 	 103.564
| 34> H 	 -37.2251 	 57.8993 	 103.211
| 35> C 	 -37.6433 	 59.5622 	 102.053
| 36> H 	 -37.3285 	 60.6454 	 101.894
| 37> H 	 -38.6126 	 59.6576 	 102.565
| 38> H 	 -37.856 	 59.0871 	 101.102
| 39> H 	 -36.985 	 52.3865 	 100.524
| 40> H 	 -31.769 	 57.6252 	 104.722
| 41> *
| 42>
| 43>                          ****END OF INPUT****

CARTESIAN COORDINATES (ANGSTROEM)
---------------------------------
  S    -35.751500   53.761200  102.345000
  C    -36.291500   53.250700  100.696000
  C    -35.791200   54.113900   99.723200
  C    -34.836600   55.057800  100.278000
  C    -34.787600   55.067200  101.682000
  H    -34.218600   55.853200   99.839400
  C    -36.054600   54.059900   98.198800
  H    -36.247800   55.093300   97.772100
  H    -37.029300   53.573300   98.010700
  C    -35.007100   53.279200   97.397900
  H    -34.017900   53.807700   97.506000
  H    -34.750400   52.338800   97.838500
  C    -35.270600   53.157400   95.879800
  H    -34.476900   52.588000   95.328800
  H    -36.224100   52.719500   95.741900
  H    -35.302900   54.117400   95.354400
  S    -32.694500   55.636500  103.513000
  C    -32.499500   57.318400  103.978000
  C    -33.330700   58.207000  103.254000
  C    -34.333900   57.483700  102.541000
  C    -34.125000   56.061700  102.468000
  H    -33.351000   59.302400  103.398000
  C    -35.435400   58.265400  101.875000
  H    -35.940200   57.643000  101.136000
  H    -35.011400   59.127600  101.382000
  C    -36.602900   58.692100  102.795000
  H    -36.214000   59.191100  103.564000
  H    -37.225100   57.899300  103.211000
  C    -37.643300   59.562200  102.053000
  H    -37.328500   60.645400  101.894000
  H    -38.612600   59.657600  102.565000
  H    -37.856000   59.087100  101.102000
  H    -36.985000   52.386500  100.524000
  H    -31.769000   57.625200  104.722000

 Total Charge           Charge          ....    0
 Multiplicity           Mult            ....    1
 Number of Electrons    NEL             ....  134
 Basis Dimension        Dim             ....  322

ORBITAL ENERGIES
----------------

  NO   OCC          E(Eh)            E(eV)
   0   2.0000     -88.969040     -2420.9707
   1   2.0000     -88.966769     -2420.9089
   2   2.0000     -10.332701      -281.1671
   3   2.0000     -10.328879      -281.0631
   4   2.0000     -10.327997      -281.0391
   5   2.0000     -10.327228      -281.0182
   6   2.0000     -10.313811      -280.6531
   7   2.0000     -10.311216      -280.5824
   8   2.0000     -10.303645      -280.3764
   9   2.0000     -10.301766      -280.3253
  10   2.0000     -10.300408      -280.2884
  11   2.0000     -10.288815      -279.9729
  12   2.0000     -10.288652      -279.9684
  13   2.0000     -10.280639      -279.7504
  14   2.0000     -10.280552      -279.7480
  15   2.0000     -10.275478      -279.6100
  16   2.0000      -8.082482      -219.9355
  17   2.0000      -8.080529      -219.8824
  18   2.0000      -6.040898      -164.3812
  19   2.0000      -6.039098      -164.3322
  20   2.0000      -6.037168      -164.2797
  21   2.0000      -6.035154      -164.2249
  22   2.0000      -6.033424      -164.1778
  23   2.0000      -6.031288      -164.1197
  24   2.0000      -0.995076       -27.0774
  25   2.0000      -0.972276       -26.4570
  26   2.0000      -0.908156       -24.7122
  27   2.0000      -0.905987       -24.6531
  28   2.0000      -0.866448       -23.5773
  29   2.0000      -0.849865       -23.1260
  30   2.0000      -0.841439       -22.8967
  31   2.0000      -0.805687       -21.9239
  32   2.0000      -0.781140       -21.2559
  33   2.0000      -0.766894       -20.8682
  34   2.0000      -0.707422       -19.2499
  35   2.0000      -0.700511       -19.0619
  36   2.0000      -0.694662       -18.9027
  37   2.0000      -0.658081       -17.9073
  38   2.0000      -0.643892       -17.5212
  39   2.0000      -0.610657       -16.6168
  40   2.0000      -0.596431       -16.2297
  41   2.0000      -0.567442       -15.4409
  42   2.0000      -0.562285       -15.3005
  43   2.0000      -0.552000       -15.0207
  44   2.0000      -0.523789       -14.2530
  45   2.0000      -0.517229       -14.0745
  46   2.0000      -0.515644       -14.0314
  47   2.0000      -0.508501       -13.8370
  48   2.0000      -0.505147       -13.7458
  49   2.0000      -0.503310       -13.6958
  50   2.0000      -0.493181       -13.4201
  51   2.0000      -0.471625       -12.8336
  52   2.0000      -0.463775       -12.6200
  53   2.0000      -0.462229       -12.5779
  54   2.0000      -0.459363       -12.4999
  55   2.0000      -0.450698       -12.2641
  56   2.0000      -0.444125       -12.0852
  57   2.0000      -0.439598       -11.9621
  58   2.0000      -0.429151       -11.6778
  59   2.0000      -0.426782       -11.6133
  60   2.0000      -0.422977       -11.5098
  61   2.0000      -0.416825       -11.3424
  62   2.0000      -0.408075       -11.1043
  63   2.0000      -0.334630        -9.1057
  64   2.0000      -0.331119        -9.0102
  65   2.0000      -0.327492        -8.9115
  66   2.0000      -0.297075        -8.0838
  67   0.0000       0.024762         0.6738
  68   0.0000       0.056778         1.5450
  69   0.0000       0.109172         2.9707
  70   0.0000       0.111670         3.0387
  71   0.0000       0.127298         3.4640

MULLIKEN ATOMIC CHARGES
-----------------------
   0 S :    0.105361
   1 C :   -0.138113
   2 C :   -0.073904
   3 C :    0.044921
   4 C :   -0.184044
   5 H :    0.027872
   6 C :    0.042351
   7 H :    0.040334
   8 H :    0.017037
   9 C :   -0.070283
  10 H :    0.025523
  11 H :    0.024483
  12 C :   -0.042404
  13 H :    0.045164
  14 H :    0.021552
  15 H :    0.028134
  16 S :    0.106483
  17 C :   -0.099701
  18 C :   -0.032105
  19 C :   -0.033139
  20 C :   -0.166479
  21 H :    0.039798
  22 C :    0.053503
  23 H :    0.021584
  24 H :    0.028314
  25 C :   -0.010269
  26 H :   -0.011559
  27 H :    0.034722
  28 C :   -0.083144
  29 H :    0.036020
  30 H :    0.036084
  31 H :    0.026234
  32 H :    0.072565
  33 H :    0.067105
Sum of atomic charges:   -0.0000000

LOEWDIN ATOMIC CHARGES
----------------------
   0 S :    0.382679
   1 C :   -0.184548
   2 C :   -0.061817
   3 C :   -0.056446
   4 C :   -0.204886
   5 H :    0.038352
   6 C :   -0.036831
   7 H :    0.038117
   8 H :    0.027409
   9 C :   -0.046136
  10 H :    0.027631
  11 H :    0.022132
  12 C :   -0.066828
  13 H :    0.035137
  14 H :    0.016411
  15 H :    0.025787
  16 S :    0.384035
  17 C :   -0.173176
  18 C :   -0.078217
  19 C :   -0.040053
  20 C :   -0.199147
  21 H :    0.038592
  22 C :   -0.030278
  23 H :    0.029251
  24 H :    0.031215
  25 C :   -0.026257
  26 H :    0.000254
  27 H :    0.032133
  28 C :   -0.070641
  29 H :    0.027624
  30 H :    0.027125
  31 H :    0.021764
  32 H :    0.040491
  33 H :    0.029120

  Mayer bond orders larger than 0.100000
B(  0-S ,  1-C ) :   1.1279 B(  0-S ,  4-C ) :   1.1372 B(  1-C ,  2-C ) :   1.6241
B(  1-C , 32-H ) :   0.9639 B(  2-C ,  3-C ) :   1.2025 B(  2-C ,  6-C ) :   1.0259
B(  3-C ,  4-C ) :   1.5874 B(  3-C ,  5-H ) :   0.9880 B(  4-C , 20-C ) :   1.0760
B(  6-C ,  7-H ) :   0.9436 B(  6-C ,  8-H ) :   0.9414 B(  6-C ,  9-C ) :   1.0560
B(  9-C , 10-H ) :   0.9540 B(  9-C , 11-H ) :   0.9559 B(  9-C , 12-C ) :   1.0773
B( 12-C , 13-H ) :   0.9743 B( 12-C , 14-H ) :   0.9766 B( 12-C , 15-H ) :   0.9744
B( 16-S , 17-C ) :   1.1833 B( 16-S , 20-C ) :   1.1134 B( 17-C , 18-C ) :   1.5687
B( 17-C , 20-C ) :   0.1095 B( 17-C , 33-H ) :   0.9664 B( 18-C , 19-C ) :   1.2673
B( 18-C , 21-H ) :   0.9804 B( 19-C , 20-C ) :   1.5585 B( 19-C , 22-C ) :   1.0574
B( 22-C , 23-H ) :   0.9278 B( 22-C , 24-H ) :   0.9395 B( 22-C , 25-C ) :   1.0626
B( 25-C , 26-H ) :   0.9553 B( 25-C , 27-H ) :   0.9544 B( 25-C , 28-C ) :   1.0793
B( 28-C , 29-H ) :   0.9756 B( 28-C , 30-H ) :   0.9769 B( 28-C , 31-H ) :   0.9742

Dispersion correction           -0.013696660
FINAL SINGLE POINT ENERGY     -1339.869074593822

DIPOLE MOMENT
-------------
                                X             Y             Z
Electronic contribution:     12.49859      -9.66718      21.93340
Nuclear contribution   :    -12.70409      10.07706     -22.36464
                        -----------------------------------------
Total Dipole Moment    :     -0.20549       0.40988      -0.43124
                        -----------------------------------------
Magnitude (a.u.)       :      0.62944
Magnitude (Debye)      :      1.59991

Rotational constants in cm-1:     0.017338     0.007616     0.006507
Rotational constants in MHz :   519.784555   228.313231   195.079589

                             ****ORCA TERMINATED NORMALLY****
TOTAL RUN TIME: 0 days 0 hours 0 minutes 28 seconds 619 msec
