                         Program Version 4.2.1 -  RELEASE  -
|  1> ! wB97X-D3 SP def2-SVP
|  2> %pal
|  3> nprocs 16
|  4> end
|  5>
|  6> * xyz 0 1
|  7> S 	 -40.7988 	 53.8135 	 108.205
|  8> C 	 -39.4046 	 54.7629 	 108.604
|  9> C 	 -39.5307 	 55.4093 	 109.827
| 10> C 	 -40.8326 	 55.2221 	 110.418
| 11> C 	 -41.5503 	 54.3493 	 109.735
| 12> H 	 -41.1766 	 55.5851 	 111.331
| 13> C 	 -38.4714 	 56.2428 	 110.472
| 14> H 	 -37.6749 	 56.0496 	 109.844
| 15> H 	 -38.2387 	 55.8693 	 111.455
| 16> C 	 -38.7415 	 57.7899 	 110.762
| 17> H 	 -39.6526 	 57.7758 	 111.477
| 18> H 	 -37.8916 	 58.1755 	 111.305
| 19> C 	 -38.9976 	 58.5863 	 109.454
| 20> H 	 -38.2018 	 58.2163 	 108.772
| 21> H 	 -40.0229 	 58.3915 	 109.168
| 22> H 	 -38.9619 	 59.6882 	 109.589
| 23> S 	 -42.5905 	 52.1829 	 110.885
| 24> C 	 -44.2782 	 52.0495 	 111.174
| 25> C 	 -44.9714 	 53.164 	 110.736
| 26> C 	 -44.1011 	 54.1436 	 110.124
| 27> C 	 -42.7453 	 53.7477 	 110.177
| 28> H 	 -46.0311 	 53.2817 	 110.893
| 29> C 	 -44.7346 	 55.4075 	 109.533
| 30> H 	 -44.2179 	 56.177 	 110.084
| 31> H 	 -45.7684 	 55.4458 	 109.583
| 32> C 	 -44.421 	 55.768 	 108.096
| 33> H 	 -43.387 	 55.5763 	 107.848
| 34> H 	 -44.5305 	 56.817 	 107.878
| 35> C 	 -45.3783 	 55.0778 	 107.16
| 36> H 	 -45.3399 	 54.0246 	 107.366
| 37> H 	 -45.2321 	 55.2652 	 106.142
| 38> H 	 -46.3349 	 55.5065 	 107.457
| 39> H 	 -38.5148 	 54.7133 	 107.977
| 40> H 	 -44.7697 	 51.2711 	 111.62
| 41> *
| 42>
| 43>                          ****END OF INPUT****

CARTESIAN COORDINATES (ANGSTROEM)
---------------------------------
  S    -40.798800   53.813500  108.205000
  C    -39.404600   54.762900  108.604000
  C    -39.530700   55.409300  109.827000
  C    -40.832600   55.222100  110.418000
  C    -41.550300   54.349300  109.735000
  H    -41.176600   55.585100  111.331000
  C    -38.471400   56.242800  110.472000
  H    -37.674900   56.049600  109.844000
  H    -38.238700   55.869300  111.455000
  C    -38.741500   57.789900  110.762000
  H    -39.652600   57.775800  111.477000
  H    -37.891600   58.175500  111.305000
  C    -38.997600   58.586300  109.454000
  H    -38.201800   58.216300  108.772000
  H    -40.022900   58.391500  109.168000
  H    -38.961900   59.688200  109.589000
  S    -42.590500   52.182900  110.885000
  C    -44.278200   52.049500  111.174000
  C    -44.971400   53.164000  110.736000
  C    -44.101100   54.143600  110.124000
  C    -42.745300   53.747700  110.177000
  H    -46.031100   53.281700  110.893000
  C    -44.734600   55.407500  109.533000
  H    -44.217900   56.177000  110.084000
  H    -45.768400   55.445800  109.583000
  C    -44.421000   55.768000  108.096000
  H    -43.387000   55.576300  107.848000
  H    -44.530500   56.817000  107.878000
  C    -45.378300   55.077800  107.160000
  H    -45.339900   54.024600  107.366000
  H    -45.232100   55.265200  106.142000
  H    -46.334900   55.506500  107.457000
  H    -38.514800   54.713300  107.977000
  H    -44.769700   51.271100  111.620000

 Total Charge           Charge          ....    0
 Multiplicity           Mult            ....    1
 Number of Electrons    NEL             ....  134
 Basis Dimension        Dim             ....  322

ORBITAL ENERGIES
----------------

  NO   OCC          E(Eh)            E(eV)
   0   2.0000     -88.965273     -2420.8681
   1   2.0000     -88.963849     -2420.8294
   2   2.0000     -10.319966      -280.8205
   3   2.0000     -10.318427      -280.7787
   4   2.0000     -10.314874      -280.6820
   5   2.0000     -10.307536      -280.4823
   6   2.0000     -10.307251      -280.4746
   7   2.0000     -10.300944      -280.3029
   8   2.0000     -10.298063      -280.2245
   9   2.0000     -10.290892      -280.0294
  10   2.0000     -10.286125      -279.8997
  11   2.0000     -10.284455      -279.8542
  12   2.0000     -10.282390      -279.7981
  13   2.0000     -10.281512      -279.7742
  14   2.0000     -10.270428      -279.4725
  15   2.0000     -10.261640      -279.2334
  16   2.0000      -8.080915      -219.8929
  17   2.0000      -8.078565      -219.8289
  18   2.0000      -6.039308      -164.3379
  19   2.0000      -6.037053      -164.2766
  20   2.0000      -6.035195      -164.2260
  21   2.0000      -6.033205      -164.1719
  22   2.0000      -6.031846      -164.1349
  23   2.0000      -6.029204      -164.0630
  24   2.0000      -1.012088       -27.5403
  25   2.0000      -0.985171       -26.8079
  26   2.0000      -0.915792       -24.9200
  27   2.0000      -0.907138       -24.6845
  28   2.0000      -0.875573       -23.8255
  29   2.0000      -0.850902       -23.1542
  30   2.0000      -0.847712       -23.0674
  31   2.0000      -0.818869       -22.2826
  32   2.0000      -0.783958       -21.3326
  33   2.0000      -0.769020       -20.9261
  34   2.0000      -0.713057       -19.4033
  35   2.0000      -0.694194       -18.8900
  36   2.0000      -0.687448       -18.7064
  37   2.0000      -0.664199       -18.0738
  38   2.0000      -0.650759       -17.7081
  39   2.0000      -0.623449       -16.9649
  40   2.0000      -0.596676       -16.2364
  41   2.0000      -0.565787       -15.3958
  42   2.0000      -0.559769       -15.2321
  43   2.0000      -0.554349       -15.0846
  44   2.0000      -0.552078       -15.0228
  45   2.0000      -0.539927       -14.6922
  46   2.0000      -0.521582       -14.1930
  47   2.0000      -0.516145       -14.0450
  48   2.0000      -0.504005       -13.7147
  49   2.0000      -0.496183       -13.5018
  50   2.0000      -0.492354       -13.3976
  51   2.0000      -0.475869       -12.9491
  52   2.0000      -0.468905       -12.7596
  53   2.0000      -0.463713       -12.6183
  54   2.0000      -0.461590       -12.5605
  55   2.0000      -0.447309       -12.1719
  56   2.0000      -0.439708       -11.9651
  57   2.0000      -0.436062       -11.8659
  58   2.0000      -0.432294       -11.7633
  59   2.0000      -0.424930       -11.5629
  60   2.0000      -0.422682       -11.5018
  61   2.0000      -0.419091       -11.4041
  62   2.0000      -0.407174       -11.0798
  63   2.0000      -0.344076        -9.3628
  64   2.0000      -0.328281        -8.9330
  65   2.0000      -0.316124        -8.6022
  66   2.0000      -0.305054        -8.3009
  67   0.0000       0.045874         1.2483
  68   0.0000       0.056059         1.5255
  69   0.0000       0.115521         3.1435
  70   0.0000       0.123034         3.3479
  71   0.0000       0.127556         3.4710

MULLIKEN ATOMIC CHARGES
-----------------------
   0 S :    0.113611
   1 C :   -0.130905
   2 C :   -0.093536
   3 C :    0.082260
   4 C :   -0.178199
   5 H :   -0.010552
   6 C :    0.101544
   7 H :   -0.009914
   8 H :    0.027395
   9 C :   -0.111753
  10 H :    0.038803
  11 H :    0.036239
  12 C :   -0.050816
  13 H :    0.042840
  14 H :    0.042925
  15 H :    0.040805
  16 S :    0.134275
  17 C :   -0.051364
  18 C :   -0.049213
  19 C :   -0.031746
  20 C :   -0.199012
  21 H :    0.017011
  22 C :    0.142051
  23 H :    0.025814
  24 H :   -0.008912
  25 C :   -0.072033
  26 H :    0.018119
  27 H :    0.013713
  28 C :   -0.020749
  29 H :    0.031114
  30 H :    0.024233
  31 H :    0.012418
  32 H :    0.053324
  33 H :    0.020211
Sum of atomic charges:   -0.0000000

LOEWDIN ATOMIC CHARGES
----------------------
   0 S :    0.389958
   1 C :   -0.199469
   2 C :   -0.059329
   3 C :   -0.042417
   4 C :   -0.184559
   5 H :    0.026068
   6 C :   -0.030129
   7 H :    0.015486
   8 H :    0.032130
   9 C :   -0.038772
  10 H :    0.027465
  11 H :    0.020747
  12 C :   -0.070381
  13 H :    0.031573
  14 H :    0.027792
  15 H :    0.028458
  16 S :    0.442803
  17 C :   -0.184483
  18 C :   -0.072510
  19 C :   -0.043474
  20 C :   -0.224585
  21 H :    0.029826
  22 C :   -0.021450
  23 H :    0.039048
  24 H :    0.017952
  25 C :   -0.039179
  26 H :    0.014641
  27 H :    0.020270
  28 C :   -0.055420
  29 H :    0.023613
  30 H :    0.016853
  31 H :    0.021872
  32 H :    0.027740
  33 H :    0.011862

  Mayer bond orders larger than 0.100000
B(  0-S ,  1-C ) :   1.1288 B(  0-S ,  4-C ) :   1.1181 B(  1-C ,  2-C ) :   1.6399
B(  1-C , 32-H ) :   0.9631 B(  2-C ,  3-C ) :   1.1700 B(  2-C ,  6-C ) :   1.0370
B(  3-C ,  4-C ) :   1.6613 B(  3-C ,  5-H ) :   1.0029 B(  4-C , 20-C ) :   1.0261
B(  6-C ,  7-H ) :   0.9338 B(  6-C ,  8-H ) :   0.9332 B(  6-C ,  9-C ) :   1.0606
B(  9-C , 10-H ) :   0.9578 B(  9-C , 11-H ) :   0.9591 B(  9-C , 12-C ) :   1.0573
B( 12-C , 13-H ) :   0.9776 B( 12-C , 14-H ) :   0.9758 B( 12-C , 15-H ) :   0.9766
B( 16-S , 17-C ) :   1.1712 B( 16-S , 20-C ) :   1.1613 B( 17-C , 18-C ) :   1.5898
B( 17-C , 20-C ) :   0.1024 B( 17-C , 33-H ) :   0.9765 B( 18-C , 19-C ) :   1.2583
B( 18-C , 21-H ) :   0.9910 B( 19-C , 20-C ) :   1.5644 B( 19-C , 22-C ) :   1.0459
B( 22-C , 23-H ) :   0.9143 B( 22-C , 24-H ) :   0.9392 B( 22-C , 25-C ) :   1.0752
B( 25-C , 26-H ) :   0.9517 B( 25-C , 27-H ) :   0.9535 B( 25-C , 28-C ) :   1.0759
B( 28-C , 29-H ) :   0.9795 B( 28-C , 30-H ) :   0.9738 B( 28-C , 31-H ) :   0.9740

Dispersion correction           -0.014890620
FINAL SINGLE POINT ENERGY     -1339.862303406010

DIPOLE MOMENT
-------------
                                X             Y             Z
Electronic contribution:      1.16351     -22.43478       4.11548
Nuclear contribution   :     -1.15959      22.87272      -3.89176
                        -----------------------------------------
Total Dipole Moment    :      0.00391       0.43793       0.22372
                        -----------------------------------------
Magnitude (a.u.)       :      0.49179
Magnitude (Debye)      :      1.25002

Rotational constants in cm-1:     0.019743     0.008755     0.007569
Rotational constants in MHz :   591.894781   262.479208   226.907469

                             ****ORCA TERMINATED NORMALLY****
TOTAL RUN TIME: 0 days 0 hours 0 minutes 29 seconds 254 msec
