                         Program Version 4.2.1 -  RELEASE  -
|  1> ! wB97X-D3 SP def2-SVP
|  2> %pal
|  3> nprocs 16
|  4> end
|  5>
|  6> * xyz 0 1
|  7> S 	 -11.8045 	 -6.74633 	 74.281
|  8> C 	 -10.436 	 -7.24897 	 75.2844
|  9> C 	 -10.6896 	 -8.06729 	 76.3318
| 10> C 	 -12.0976 	 -8.38695 	 76.3692
| 11> C 	 -12.8317 	 -7.72734 	 75.3563
| 12> H 	 -12.6817 	 -9.10345 	 77.0006
| 13> C 	 -9.60601 	 -8.65629 	 77.2939
| 14> H 	 -8.69663 	 -8.34089 	 76.7841
| 15> H 	 -9.76082 	 -9.77196 	 77.4176
| 16> C 	 -9.36215 	 -8.12467 	 78.736
| 17> H 	 -9.04595 	 -7.08356 	 78.6898
| 18> H 	 -10.2834 	 -8.19164 	 79.3196
| 19> C 	 -8.35827 	 -8.97583 	 79.5698
| 20> H 	 -7.32803 	 -8.92335 	 79.121
| 21> H 	 -8.29507 	 -8.51954 	 80.5757
| 22> H 	 -8.71563 	 -10.0268 	 79.7179
| 23> S 	 -14.9111 	 -5.93835 	 75.1422
| 24> C 	 -16.5352 	 -6.60537 	 75.1119
| 25> C 	 -16.5598 	 -7.97266 	 75.199
| 26> C 	 -15.302 	 -8.55433 	 75.3363
| 27> C 	 -14.2855 	 -7.58638 	 75.2456
| 28> H 	 -17.4809 	 -8.52403 	 75.2745
| 29> C 	 -15.1855 	 -10.0725 	 75.2595
| 30> H 	 -15.9825 	 -10.5302 	 75.8445
| 31> H 	 -14.2635 	 -10.3759 	 75.7854
| 32> C 	 -15.2487 	 -10.694 	 73.9281
| 33> H 	 -14.5162 	 -10.2781 	 73.2629
| 34> H 	 -16.1619 	 -10.4414 	 73.4885
| 35> C 	 -15.2183 	 -12.2457 	 73.873
| 36> H 	 -15.8499 	 -12.7984 	 74.5656
| 37> H 	 -14.1705 	 -12.5151 	 74.0204
| 38> H 	 -15.4198 	 -12.5537 	 72.855
| 39> H 	 -9.43626 	 -6.93012 	 75.0936
| 40> H 	 -17.4361 	 -5.9695 	 75.0255
| 41> *
| 42>
| 43>                          ****END OF INPUT****

CARTESIAN COORDINATES (ANGSTROEM)
---------------------------------
  S    -11.804500   -6.746330   74.281000
  C    -10.436000   -7.248970   75.284400
  C    -10.689600   -8.067290   76.331800
  C    -12.097600   -8.386950   76.369200
  C    -12.831700   -7.727340   75.356300
  H    -12.681700   -9.103450   77.000600
  C     -9.606010   -8.656290   77.293900
  H     -8.696630   -8.340890   76.784100
  H     -9.760820   -9.771960   77.417600
  C     -9.362150   -8.124670   78.736000
  H     -9.045950   -7.083560   78.689800
  H    -10.283400   -8.191640   79.319600
  C     -8.358270   -8.975830   79.569800
  H     -7.328030   -8.923350   79.121000
  H     -8.295070   -8.519540   80.575700
  H     -8.715630  -10.026800   79.717900
  S    -14.911100   -5.938350   75.142200
  C    -16.535200   -6.605370   75.111900
  C    -16.559800   -7.972660   75.199000
  C    -15.302000   -8.554330   75.336300
  C    -14.285500   -7.586380   75.245600
  H    -17.480900   -8.524030   75.274500
  C    -15.185500  -10.072500   75.259500
  H    -15.982500  -10.530200   75.844500
  H    -14.263500  -10.375900   75.785400
  C    -15.248700  -10.694000   73.928100
  H    -14.516200  -10.278100   73.262900
  H    -16.161900  -10.441400   73.488500
  C    -15.218300  -12.245700   73.873000
  H    -15.849900  -12.798400   74.565600
  H    -14.170500  -12.515100   74.020400
  H    -15.419800  -12.553700   72.855000
  H     -9.436260   -6.930120   75.093600
  H    -17.436100   -5.969500   75.025500

 Total Charge           Charge          ....    0
 Multiplicity           Mult            ....    1
 Number of Electrons    NEL             ....  134
 Basis Dimension        Dim             ....  322

ORBITAL ENERGIES
----------------

  NO   OCC          E(Eh)            E(eV)
   0   2.0000     -88.969553     -2420.9846
   1   2.0000     -88.969276     -2420.9771
   2   2.0000     -10.332772      -281.1690
   3   2.0000     -10.328968      -281.0655
   4   2.0000     -10.316771      -280.7336
   5   2.0000     -10.310964      -280.5756
   6   2.0000     -10.305899      -280.4378
   7   2.0000     -10.303408      -280.3700
   8   2.0000     -10.302695      -280.3506
   9   2.0000     -10.300059      -280.2789
  10   2.0000     -10.290703      -280.0243
  11   2.0000     -10.290432      -280.0169
  12   2.0000     -10.288828      -279.9733
  13   2.0000     -10.287722      -279.9432
  14   2.0000     -10.277340      -279.6606
  15   2.0000     -10.273907      -279.5672
  16   2.0000      -8.083567      -219.9650
  17   2.0000      -8.083483      -219.9627
  18   2.0000      -6.042017      -164.4116
  19   2.0000      -6.041973      -164.4104
  20   2.0000      -6.038339      -164.3115
  21   2.0000      -6.038231      -164.3086
  22   2.0000      -6.034314      -164.2020
  23   2.0000      -6.034079      -164.1956
  24   2.0000      -1.003200       -27.2985
  25   2.0000      -0.980286       -26.6749
  26   2.0000      -0.915276       -24.9059
  27   2.0000      -0.903323       -24.5807
  28   2.0000      -0.867980       -23.6189
  29   2.0000      -0.853019       -23.2118
  30   2.0000      -0.844104       -22.9692
  31   2.0000      -0.809549       -22.0289
  32   2.0000      -0.784070       -21.3356
  33   2.0000      -0.770754       -20.9733
  34   2.0000      -0.706404       -19.2222
  35   2.0000      -0.693916       -18.8824
  36   2.0000      -0.690891       -18.8001
  37   2.0000      -0.662894       -18.0383
  38   2.0000      -0.638226       -17.3670
  39   2.0000      -0.612659       -16.6713
  40   2.0000      -0.597732       -16.2651
  41   2.0000      -0.573726       -15.6119
  42   2.0000      -0.568842       -15.4790
  43   2.0000      -0.555159       -15.1066
  44   2.0000      -0.523942       -14.2572
  45   2.0000      -0.518789       -14.1170
  46   2.0000      -0.512807       -13.9542
  47   2.0000      -0.506445       -13.7811
  48   2.0000      -0.502251       -13.6669
  49   2.0000      -0.493598       -13.4315
  50   2.0000      -0.486188       -13.2298
  51   2.0000      -0.479985       -13.0611
  52   2.0000      -0.466335       -12.6896
  53   2.0000      -0.463396       -12.6096
  54   2.0000      -0.460222       -12.5233
  55   2.0000      -0.452635       -12.3168
  56   2.0000      -0.447637       -12.1808
  57   2.0000      -0.442468       -12.0402
  58   2.0000      -0.434189       -11.8149
  59   2.0000      -0.433029       -11.7833
  60   2.0000      -0.425409       -11.5760
  61   2.0000      -0.411895       -11.2082
  62   2.0000      -0.407904       -11.0996
  63   2.0000      -0.347066        -9.4441
  64   2.0000      -0.337487        -9.1835
  65   2.0000      -0.333437        -9.0733
  66   2.0000      -0.285149        -7.7593
  67   0.0000       0.027274         0.7422
  68   0.0000       0.067902         1.8477
  69   0.0000       0.102585         2.7915
  70   0.0000       0.115717         3.1488
  71   0.0000       0.133498         3.6327

MULLIKEN ATOMIC CHARGES
-----------------------
   0 S :    0.103861
   1 C :   -0.107327
   2 C :   -0.056050
   3 C :    0.022095
   4 C :   -0.180480
   5 H :    0.033878
   6 C :    0.048259
   7 H :    0.016467
   8 H :    0.044012
   9 C :   -0.071817
  10 H :    0.032787
  11 H :    0.028881
  12 C :   -0.090214
  13 H :    0.043249
  14 H :    0.043389
  15 H :    0.044462
  16 S :    0.114588
  17 C :   -0.103892
  18 C :   -0.025479
  19 C :   -0.025763
  20 C :   -0.158464
  21 H :    0.013932
  22 C :    0.079600
  23 H :    0.010400
  24 H :    0.006168
  25 C :   -0.033395
  26 H :    0.024166
  27 H :   -0.000729
  28 C :   -0.039633
  29 H :    0.034424
  30 H :    0.027404
  31 H :    0.029216
  32 H :    0.027638
  33 H :    0.064367
Sum of atomic charges:   -0.0000000

LOEWDIN ATOMIC CHARGES
----------------------
   0 S :    0.379682
   1 C :   -0.182684
   2 C :   -0.064813
   3 C :   -0.061467
   4 C :   -0.183461
   5 H :    0.038189
   6 C :   -0.032837
   7 H :    0.029808
   8 H :    0.038838
   9 C :   -0.043492
  10 H :    0.023595
  11 H :    0.022087
  12 C :   -0.072247
  13 H :    0.027984
  14 H :    0.031523
  15 H :    0.029182
  16 S :    0.403094
  17 C :   -0.187035
  18 C :   -0.069145
  19 C :   -0.058611
  20 C :   -0.194696
  21 H :    0.031627
  22 C :   -0.032004
  23 H :    0.029399
  24 H :    0.025539
  25 C :   -0.036648
  26 H :    0.026405
  27 H :    0.013796
  28 C :   -0.059334
  29 H :    0.023625
  30 H :    0.025407
  31 H :    0.027375
  32 H :    0.018142
  33 H :    0.033177

  Mayer bond orders larger than 0.100000
B(  0-S ,  1-C ) :   1.1184 B(  0-S ,  4-C ) :   1.1328 B(  1-C ,  2-C ) :   1.6761
B(  1-C , 32-H ) :   0.9574 B(  2-C ,  3-C ) :   1.1986 B(  2-C ,  6-C ) :   1.0093
B(  3-C ,  4-C ) :   1.6093 B(  3-C ,  5-H ) :   0.9783 B(  4-C , 20-C ) :   1.0432
B(  6-C ,  7-H ) :   0.9390 B(  6-C ,  8-H ) :   0.9448 B(  6-C ,  9-C ) :   1.0645
B(  9-C , 10-H ) :   0.9562 B(  9-C , 11-H ) :   0.9566 B(  9-C , 12-C ) :   1.0787
B( 12-C , 13-H ) :   0.9766 B( 12-C , 14-H ) :   0.9735 B( 12-C , 15-H ) :   0.9733
B( 16-S , 17-C ) :   1.1474 B( 16-S , 20-C ) :   1.1523 B( 17-C , 18-C ) :   1.5992
B( 17-C , 20-C ) :   0.1031 B( 17-C , 33-H ) :   0.9631 B( 18-C , 19-C ) :   1.2610
B( 18-C , 21-H ) :   0.9906 B( 19-C , 20-C ) :   1.5721 B( 19-C , 22-C ) :   1.0551
B( 22-C , 23-H ) :   0.9239 B( 22-C , 24-H ) :   0.9255 B( 22-C , 25-C ) :   1.0828
B( 25-C , 26-H ) :   0.9490 B( 25-C , 27-H ) :   0.9480 B( 25-C , 28-C ) :   1.0810
B( 28-C , 29-H ) :   0.9760 B( 28-C , 30-H ) :   0.9772 B( 28-C , 31-H ) :   0.9738

Dispersion correction           -0.013164805
FINAL SINGLE POINT ENERGY     -1339.876634306586

DIPOLE MOMENT
-------------
                                X             Y             Z
Electronic contribution:     -8.72015      22.98633     -11.29781
Nuclear contribution   :      8.71067     -23.43552      11.60389
                        -----------------------------------------
Total Dipole Moment    :     -0.00948      -0.44920       0.30608
                        -----------------------------------------
Magnitude (a.u.)       :      0.54365
Magnitude (Debye)      :      1.38184

Rotational constants in cm-1:     0.017658     0.007468     0.006250
Rotational constants in MHz :   529.369848   223.888915   187.377657

                             ****ORCA TERMINATED NORMALLY****
TOTAL RUN TIME: 0 days 0 hours 0 minutes 31 seconds 667 msec
