                         Program Version 4.2.1 -  RELEASE  -
|  1> ! wB97X-D3 SP def2-SVP
|  2> %pal
|  3> nprocs 16
|  4> end
|  5>
|  6> * xyz 0 1
|  7> S 	 -53.9367 	 13.9313 	 90.7812
|  8> C 	 -52.8869 	 15.2611 	 91.1532
|  9> C 	 -52.2501 	 15.8116 	 90.0359
| 10> C 	 -52.4687 	 14.9575 	 88.9371
| 11> C 	 -53.4092 	 13.9736 	 89.1242
| 12> H 	 -51.8817 	 15.0895 	 88.0635
| 13> C 	 -51.3616 	 17.066 	 89.9213
| 14> H 	 -51.4752 	 17.3938 	 88.8787
| 15> H 	 -50.3285 	 16.7793 	 89.961
| 16> C 	 -51.6462 	 18.3175 	 90.8294
| 17> H 	 -52.7171 	 18.5025 	 90.848
| 18> H 	 -51.2526 	 18.0321 	 91.8014
| 19> C 	 -50.907 	 19.5683 	 90.445
| 20> H 	 -49.8309 	 19.4005 	 90.6626
| 21> H 	 -51.2318 	 19.9195 	 89.4133
| 22> H 	 -51.0775 	 20.4316 	 91.0264
| 23> S 	 -53.7856 	 11.3018 	 88.699
| 24> C 	 -54.3184 	 10.6622 	 87.1366
| 25> C 	 -54.5142 	 11.7054 	 86.2694
| 26> C 	 -54.3779 	 13.011 	 86.8433
| 27> C 	 -53.9208 	 12.941 	 88.177
| 28> H 	 -54.9022 	 11.4866 	 85.3225
| 29> C 	 -54.4564 	 14.3429 	 86.0609
| 30> H 	 -54.1421 	 15.2517 	 86.7044
| 31> H 	 -55.518 	 14.5635 	 85.9347
| 32> C 	 -53.7062 	 14.432 	 84.7252
| 33> H 	 -54.0237 	 15.336 	 84.2221
| 34> H 	 -54.1403 	 13.5754 	 84.084
| 35> C 	 -52.1502 	 14.298 	 84.8095
| 36> H 	 -52.0794 	 13.2822 	 85.1788
| 37> H 	 -51.7494 	 14.9601 	 85.5419
| 38> H 	 -51.587 	 14.4206 	 83.8629
| 39> H 	 -52.9097 	 15.784 	 92.1031
| 40> H 	 -54.2575 	 9.60433 	 86.7611
| 41> *
| 42>
| 43>                          ****END OF INPUT****

CARTESIAN COORDINATES (ANGSTROEM)
---------------------------------
  S    -53.936700   13.931300   90.781200
  C    -52.886900   15.261100   91.153200
  C    -52.250100   15.811600   90.035900
  C    -52.468700   14.957500   88.937100
  C    -53.409200   13.973600   89.124200
  H    -51.881700   15.089500   88.063500
  C    -51.361600   17.066000   89.921300
  H    -51.475200   17.393800   88.878700
  H    -50.328500   16.779300   89.961000
  C    -51.646200   18.317500   90.829400
  H    -52.717100   18.502500   90.848000
  H    -51.252600   18.032100   91.801400
  C    -50.907000   19.568300   90.445000
  H    -49.830900   19.400500   90.662600
  H    -51.231800   19.919500   89.413300
  H    -51.077500   20.431600   91.026400
  S    -53.785600   11.301800   88.699000
  C    -54.318400   10.662200   87.136600
  C    -54.514200   11.705400   86.269400
  C    -54.377900   13.011000   86.843300
  C    -53.920800   12.941000   88.177000
  H    -54.902200   11.486600   85.322500
  C    -54.456400   14.342900   86.060900
  H    -54.142100   15.251700   86.704400
  H    -55.518000   14.563500   85.934700
  C    -53.706200   14.432000   84.725200
  H    -54.023700   15.336000   84.222100
  H    -54.140300   13.575400   84.084000
  C    -52.150200   14.298000   84.809500
  H    -52.079400   13.282200   85.178800
  H    -51.749400   14.960100   85.541900
  H    -51.587000   14.420600   83.862900
  H    -52.909700   15.784000   92.103100
  H    -54.257500    9.604330   86.761100

 Total Charge           Charge          ....    0
 Multiplicity           Mult            ....    1
 Number of Electrons    NEL             ....  134
 Basis Dimension        Dim             ....  322

ORBITAL ENERGIES
----------------

  NO   OCC          E(Eh)            E(eV)
   0   2.0000     -88.968522     -2420.9566
   1   2.0000     -88.965780     -2420.8820
   2   2.0000     -10.330550      -281.1085
   3   2.0000     -10.329921      -281.0914
   4   2.0000     -10.321481      -280.8618
   5   2.0000     -10.312390      -280.6144
   6   2.0000     -10.308067      -280.4968
   7   2.0000     -10.302748      -280.3520
   8   2.0000     -10.298429      -280.2345
   9   2.0000     -10.297879      -280.2195
  10   2.0000     -10.293878      -280.1107
  11   2.0000     -10.291929      -280.0576
  12   2.0000     -10.291015      -280.0327
  13   2.0000     -10.289215      -279.9838
  14   2.0000     -10.283941      -279.8403
  15   2.0000     -10.277602      -279.6678
  16   2.0000      -8.083591      -219.9657
  17   2.0000      -8.080485      -219.8812
  18   2.0000      -6.042003      -164.4113
  19   2.0000      -6.039035      -164.3305
  20   2.0000      -6.038075      -164.3044
  21   2.0000      -6.034825      -164.2159
  22   2.0000      -6.034415      -164.2048
  23   2.0000      -6.031357      -164.1216
  24   2.0000      -1.007928       -27.4271
  25   2.0000      -0.985477       -26.8162
  26   2.0000      -0.910433       -24.7741
  27   2.0000      -0.901308       -24.5258
  28   2.0000      -0.869932       -23.6721
  29   2.0000      -0.854973       -23.2650
  30   2.0000      -0.841571       -22.9003
  31   2.0000      -0.814968       -22.1764
  32   2.0000      -0.784458       -21.3462
  33   2.0000      -0.772726       -21.0269
  34   2.0000      -0.707702       -19.2575
  35   2.0000      -0.698571       -19.0091
  36   2.0000      -0.687223       -18.7003
  37   2.0000      -0.655976       -17.8500
  38   2.0000      -0.638221       -17.3669
  39   2.0000      -0.622481       -16.9386
  40   2.0000      -0.591954       -16.1079
  41   2.0000      -0.579228       -15.7616
  42   2.0000      -0.567868       -15.4525
  43   2.0000      -0.549612       -14.9557
  44   2.0000      -0.538270       -14.6471
  45   2.0000      -0.523542       -14.2463
  46   2.0000      -0.519315       -14.1313
  47   2.0000      -0.506202       -13.7745
  48   2.0000      -0.502756       -13.6807
  49   2.0000      -0.495942       -13.4953
  50   2.0000      -0.486747       -13.2451
  51   2.0000      -0.474741       -12.9184
  52   2.0000      -0.470459       -12.8018
  53   2.0000      -0.467052       -12.7091
  54   2.0000      -0.463084       -12.6012
  55   2.0000      -0.453594       -12.3429
  56   2.0000      -0.449027       -12.2187
  57   2.0000      -0.438840       -11.9414
  58   2.0000      -0.434938       -11.8353
  59   2.0000      -0.432043       -11.7565
  60   2.0000      -0.413838       -11.2611
  61   2.0000      -0.409365       -11.1394
  62   2.0000      -0.408443       -11.1143
  63   2.0000      -0.349233        -9.5031
  64   2.0000      -0.332666        -9.0523
  65   2.0000      -0.328324        -8.9341
  66   2.0000      -0.292225        -7.9518
  67   0.0000       0.032455         0.8831
  68   0.0000       0.068926         1.8756
  69   0.0000       0.110469         3.0060
  70   0.0000       0.117875         3.2075
  71   0.0000       0.134849         3.6694

MULLIKEN ATOMIC CHARGES
-----------------------
   0 S :    0.120644
   1 C :   -0.126714
   2 C :   -0.096542
   3 C :    0.041442
   4 C :   -0.136030
   5 H :   -0.011300
   6 C :    0.054051
   7 H :    0.015652
   8 H :    0.036498
   9 C :   -0.068334
  10 H :    0.038118
  11 H :    0.028648
  12 C :   -0.052631
  13 H :    0.035471
  14 H :    0.040336
  15 H :    0.022585
  16 S :    0.105038
  17 C :   -0.108023
  18 C :   -0.035813
  19 C :   -0.022299
  20 C :   -0.152332
  21 H :    0.006896
  22 C :    0.024009
  23 H :    0.037428
  24 H :    0.035656
  25 C :   -0.100077
  26 H :    0.028440
  27 H :    0.032959
  28 C :   -0.036768
  29 H :    0.039734
  30 H :    0.026325
  31 H :    0.047609
  32 H :    0.048533
  33 H :    0.080792
Sum of atomic charges:   -0.0000000

LOEWDIN ATOMIC CHARGES
----------------------
   0 S :    0.421858
   1 C :   -0.205299
   2 C :   -0.060758
   3 C :   -0.059640
   4 C :   -0.196382
   5 H :    0.024062
   6 C :   -0.030369
   7 H :    0.029029
   8 H :    0.031171
   9 C :   -0.040408
  10 H :    0.025314
  11 H :    0.023540
  12 C :   -0.071199
  13 H :    0.032567
  14 H :    0.032807
  15 H :    0.021570
  16 S :    0.411371
  17 C :   -0.192771
  18 C :   -0.069794
  19 C :   -0.061335
  20 C :   -0.205435
  21 H :    0.022614
  22 C :   -0.041909
  23 H :    0.038450
  24 H :    0.033987
  25 C :   -0.044840
  26 H :    0.019284
  27 H :    0.026700
  28 C :   -0.065254
  29 H :    0.030358
  30 H :    0.016927
  31 H :    0.032219
  32 H :    0.024577
  33 H :    0.046987

  Mayer bond orders larger than 0.100000
B(  0-S ,  1-C ) :   1.1519 B(  0-S ,  4-C ) :   1.1643 B(  1-C ,  2-C ) :   1.6002
B(  1-C , 32-H ) :   0.9632 B(  2-C ,  3-C ) :   1.2751 B(  2-C ,  6-C ) :   1.0050
B(  3-C ,  4-C ) :   1.5624 B(  3-C ,  5-H ) :   1.0004 B(  4-C , 20-C ) :   0.9969
B(  6-C ,  7-H ) :   0.9443 B(  6-C ,  8-H ) :   0.9367 B(  6-C ,  9-C ) :   1.0554
B(  9-C , 10-H ) :   0.9619 B(  9-C , 11-H ) :   0.9503 B(  9-C , 12-C ) :   1.0995
B( 12-C , 13-H ) :   0.9716 B( 12-C , 14-H ) :   0.9718 B( 12-C , 15-H ) :   0.9707
B( 16-S , 17-C ) :   1.1447 B( 16-S , 20-C ) :   1.1697 B( 17-C , 18-C ) :   1.6208
B( 17-C , 33-H ) :   0.9584 B( 18-C , 19-C ) :   1.2449 B( 18-C , 21-H ) :   0.9907
B( 19-C , 20-C ) :   1.5744 B( 19-C , 22-C ) :   1.0291 B( 22-C , 23-H ) :   0.9412
B( 22-C , 24-H ) :   0.9302 B( 22-C , 25-C ) :   1.0757 B( 25-C , 26-H ) :   0.9549
B( 25-C , 27-H ) :   0.9552 B( 25-C , 28-C ) :   1.0546 B( 28-C , 29-H ) :   0.9767
B( 28-C , 30-H ) :   0.9750 B( 28-C , 31-H ) :   0.9746

Dispersion correction           -0.014343730
FINAL SINGLE POINT ENERGY     -1339.873388088701

DIPOLE MOMENT
-------------
                                X             Y             Z
Electronic contribution:    -11.53118     -24.82158      12.36947
Nuclear contribution   :     11.80529      25.37999     -12.75062
                        -----------------------------------------
Total Dipole Moment    :      0.27411       0.55841      -0.38115
                        -----------------------------------------
Magnitude (a.u.)       :      0.72955
Magnitude (Debye)      :      1.85436

Rotational constants in cm-1:     0.020479     0.008004     0.006128
Rotational constants in MHz :   613.936520   239.968122   183.699472

                             ****ORCA TERMINATED NORMALLY****
TOTAL RUN TIME: 0 days 0 hours 0 minutes 29 seconds 814 msec
