                         Program Version 4.2.1 -  RELEASE  -
|  1> ! wB97X-D3 SP def2-SVP
|  2> %pal
|  3> nprocs 16
|  4> end
|  5>
|  6> * xyz 0 1
|  7> S 	 -41.8747 	 52.4268 	 107.313
|  8> C 	 -40.4052 	 53.3509 	 107.325
|  9> C 	 -39.3832 	 52.6361 	 107.951
| 10> C 	 -39.8334 	 51.3547 	 108.376
| 11> C 	 -41.0651 	 50.9888 	 107.877
| 12> H 	 -39.2595 	 50.6862 	 108.93
| 13> C 	 -37.9584 	 53.036 	 108.003
| 14> H 	 -37.7885 	 53.8237 	 107.312
| 15> H 	 -37.3353 	 52.2585 	 107.564
| 16> C 	 -37.4846 	 53.4435 	 109.4
| 17> H 	 -37.624 	 52.5959 	 110.088
| 18> H 	 -36.3838 	 53.6267 	 109.404
| 19> C 	 -38.1778 	 54.7747 	 109.853
| 20> H 	 -37.9814 	 55.5162 	 109.034
| 21> H 	 -39.2434 	 54.7341 	 109.995
| 22> H 	 -37.728 	 55.1494 	 110.801
| 23> S 	 -43.4679 	 49.6013 	 108.055
| 24> C 	 -43.4388 	 47.8901 	 108.442
| 25> C 	 -42.1784 	 47.368 	 108.547
| 26> C 	 -41.1853 	 48.3565 	 108.158
| 27> C 	 -41.7086 	 49.6955 	 108.003
| 28> H 	 -41.9698 	 46.3321 	 108.71
| 29> C 	 -39.7982 	 47.9584 	 107.7
| 30> H 	 -39.837 	 46.874 	 107.611
| 31> H 	 -39.1012 	 48.2396 	 108.471
| 32> C 	 -39.376 	 48.3626 	 106.335
| 33> H 	 -39.5802 	 49.3756 	 106.128
| 34> H 	 -39.937 	 47.8258 	 105.595
| 35> C 	 -37.8807 	 48.0353 	 106.108
| 36> H 	 -37.7275 	 47.0232 	 105.866
| 37> H 	 -37.3367 	 48.3206 	 106.988
| 38> H 	 -37.5411 	 48.6292 	 105.204
| 39> H 	 -40.2992 	 54.3645 	 107.028
| 40> H 	 -44.3028 	 47.3555 	 108.855
| 41> *
| 42>
| 43>                          ****END OF INPUT****

CARTESIAN COORDINATES (ANGSTROEM)
---------------------------------
  S    -41.874700   52.426800  107.313000
  C    -40.405200   53.350900  107.325000
  C    -39.383200   52.636100  107.951000
  C    -39.833400   51.354700  108.376000
  C    -41.065100   50.988800  107.877000
  H    -39.259500   50.686200  108.930000
  C    -37.958400   53.036000  108.003000
  H    -37.788500   53.823700  107.312000
  H    -37.335300   52.258500  107.564000
  C    -37.484600   53.443500  109.400000
  H    -37.624000   52.595900  110.088000
  H    -36.383800   53.626700  109.404000
  C    -38.177800   54.774700  109.853000
  H    -37.981400   55.516200  109.034000
  H    -39.243400   54.734100  109.995000
  H    -37.728000   55.149400  110.801000
  S    -43.467900   49.601300  108.055000
  C    -43.438800   47.890100  108.442000
  C    -42.178400   47.368000  108.547000
  C    -41.185300   48.356500  108.158000
  C    -41.708600   49.695500  108.003000
  H    -41.969800   46.332100  108.710000
  C    -39.798200   47.958400  107.700000
  H    -39.837000   46.874000  107.611000
  H    -39.101200   48.239600  108.471000
  C    -39.376000   48.362600  106.335000
  H    -39.580200   49.375600  106.128000
  H    -39.937000   47.825800  105.595000
  C    -37.880700   48.035300  106.108000
  H    -37.727500   47.023200  105.866000
  H    -37.336700   48.320600  106.988000
  H    -37.541100   48.629200  105.204000
  H    -40.299200   54.364500  107.028000
  H    -44.302800   47.355500  108.855000

 Total Charge           Charge          ....    0
 Multiplicity           Mult            ....    1
 Number of Electrons    NEL             ....  134
 Basis Dimension        Dim             ....  322

ORBITAL ENERGIES
----------------

  NO   OCC          E(Eh)            E(eV)
   0   2.0000     -88.967276     -2420.9227
   1   2.0000     -88.965736     -2420.8807
   2   2.0000     -10.334372      -281.2126
   3   2.0000     -10.331700      -281.1398
   4   2.0000     -10.319868      -280.8179
   5   2.0000     -10.312439      -280.6157
   6   2.0000     -10.310056      -280.5509
   7   2.0000     -10.299082      -280.2523
   8   2.0000     -10.297059      -280.1972
   9   2.0000     -10.293799      -280.1085
  10   2.0000     -10.288153      -279.9549
  11   2.0000     -10.286867      -279.9199
  12   2.0000     -10.285283      -279.8768
  13   2.0000     -10.283223      -279.8207
  14   2.0000     -10.274907      -279.5944
  15   2.0000     -10.272046      -279.5166
  16   2.0000      -8.081785      -219.9166
  17   2.0000      -8.080915      -219.8929
  18   2.0000      -6.040371      -164.3668
  19   2.0000      -6.039489      -164.3428
  20   2.0000      -6.036320      -164.2566
  21   2.0000      -6.035483      -164.2339
  22   2.0000      -6.032506      -164.1528
  23   2.0000      -6.031457      -164.1243
  24   2.0000      -1.007883       -27.4259
  25   2.0000      -0.983394       -26.7595
  26   2.0000      -0.916061       -24.9273
  27   2.0000      -0.914567       -24.8866
  28   2.0000      -0.870075       -23.6759
  29   2.0000      -0.850895       -23.1540
  30   2.0000      -0.843129       -22.9427
  31   2.0000      -0.816412       -22.2157
  32   2.0000      -0.782383       -21.2897
  33   2.0000      -0.769100       -20.9283
  34   2.0000      -0.714118       -19.4321
  35   2.0000      -0.700775       -19.0691
  36   2.0000      -0.690369       -18.7859
  37   2.0000      -0.663505       -18.0549
  38   2.0000      -0.641871       -17.4662
  39   2.0000      -0.628624       -17.1057
  40   2.0000      -0.594311       -16.1720
  41   2.0000      -0.577375       -15.7112
  42   2.0000      -0.569359       -15.4930
  43   2.0000      -0.551067       -14.9953
  44   2.0000      -0.540771       -14.7151
  45   2.0000      -0.522084       -14.2066
  46   2.0000      -0.517810       -14.0903
  47   2.0000      -0.512751       -13.9527
  48   2.0000      -0.508100       -13.8261
  49   2.0000      -0.501046       -13.6342
  50   2.0000      -0.490537       -13.3482
  51   2.0000      -0.484283       -13.1780
  52   2.0000      -0.470682       -12.8079
  53   2.0000      -0.463261       -12.6060
  54   2.0000      -0.456450       -12.4206
  55   2.0000      -0.452719       -12.3191
  56   2.0000      -0.443945       -12.0804
  57   2.0000      -0.441394       -12.0109
  58   2.0000      -0.437403       -11.9023
  59   2.0000      -0.425646       -11.5824
  60   2.0000      -0.421750       -11.4764
  61   2.0000      -0.412625       -11.2281
  62   2.0000      -0.408112       -11.1053
  63   2.0000      -0.360590        -9.8121
  64   2.0000      -0.333189        -9.0665
  65   2.0000      -0.324117        -8.8197
  66   2.0000      -0.278685        -7.5834
  67   0.0000       0.013934         0.3792
  68   0.0000       0.079382         2.1601
  69   0.0000       0.096266         2.6195
  70   0.0000       0.111451         3.0327
  71   0.0000       0.133821         3.6414

MULLIKEN ATOMIC CHARGES
-----------------------
   0 S :    0.101278
   1 C :   -0.093046
   2 C :   -0.096662
   3 C :    0.033969
   4 C :   -0.113929
   5 H :   -0.019341
   6 C :    0.073834
   7 H :    0.001715
   8 H :    0.031723
   9 C :   -0.077320
  10 H :    0.033160
  11 H :    0.035126
  12 C :   -0.073849
  13 H :    0.029292
  14 H :    0.046068
  15 H :    0.041633
  16 S :    0.095182
  17 C :   -0.089026
  18 C :   -0.012797
  19 C :   -0.083086
  20 C :   -0.132868
  21 H :    0.019896
  22 C :    0.047098
  23 H :    0.013458
  24 H :    0.030774
  25 C :   -0.037563
  26 H :    0.026566
  27 H :    0.017991
  28 C :   -0.042252
  29 H :    0.025230
  30 H :    0.023553
  31 H :    0.038610
  32 H :    0.035270
  33 H :    0.070315
Sum of atomic charges:    0.0000000

LOEWDIN ATOMIC CHARGES
----------------------
   0 S :    0.405700
   1 C :   -0.195740
   2 C :   -0.059218
   3 C :   -0.053589
   4 C :   -0.189778
   5 H :    0.017631
   6 C :   -0.034872
   7 H :    0.023747
   8 H :    0.033863
   9 C :   -0.039943
  10 H :    0.021964
  11 H :    0.027943
  12 C :   -0.068660
  13 H :    0.027966
  14 H :    0.022626
  15 H :    0.029699
  16 S :    0.396933
  17 C :   -0.185389
  18 C :   -0.068337
  19 C :   -0.050309
  20 C :   -0.193811
  21 H :    0.032136
  22 C :   -0.038106
  23 H :    0.032458
  24 H :    0.024743
  25 C :   -0.034821
  26 H :    0.016560
  27 H :    0.023990
  28 C :   -0.055161
  29 H :    0.016768
  30 H :    0.019077
  31 H :    0.035661
  32 H :    0.023069
  33 H :    0.035196

  Mayer bond orders larger than 0.100000
B(  0-S ,  1-C ) :   1.1355 B(  0-S ,  4-C ) :   1.1433 B(  1-C ,  2-C ) :   1.5914
B(  1-C , 32-H ) :   0.9722 B(  2-C ,  3-C ) :   1.2476 B(  2-C ,  6-C ) :   1.0293
B(  3-C ,  4-C ) :   1.5441 B(  3-C ,  5-H ) :   1.0057 B(  4-C , 20-C ) :   1.1115
B(  6-C ,  7-H ) :   0.9396 B(  6-C ,  8-H ) :   0.9396 B(  6-C ,  9-C ) :   1.0692
B(  9-C , 10-H ) :   0.9597 B(  9-C , 11-H ) :   0.9560 B(  9-C , 12-C ) :   1.0582
B( 12-C , 13-H ) :   0.9756 B( 12-C , 14-H ) :   0.9782 B( 12-C , 15-H ) :   0.9759
B( 16-S , 17-C ) :   1.1562 B( 16-S , 20-C ) :   1.1307 B( 17-C , 18-C ) :   1.6134
B( 17-C , 33-H ) :   0.9575 B( 18-C , 19-C ) :   1.2691 B( 18-C , 21-H ) :   0.9870
B( 19-C , 20-C ) :   1.5377 B( 19-C , 22-C ) :   1.0352 B( 22-C , 23-H ) :   0.9420
B( 22-C , 24-H ) :   0.9274 B( 22-C , 25-C ) :   1.0737 B( 25-C , 26-H ) :   0.9561
B( 25-C , 27-H ) :   0.9505 B( 25-C , 28-C ) :   1.0785 B( 28-C , 29-H ) :   0.9788
B( 28-C , 30-H ) :   0.9776 B( 28-C , 31-H ) :   0.9742

Dispersion correction           -0.014856225
FINAL SINGLE POINT ENERGY     -1339.872331844507

DIPOLE MOMENT
-------------
                                X             Y             Z
Electronic contribution:    -27.48285      -1.05616      -0.87283
Nuclear contribution   :     28.12258       0.79984       0.95493
                        -----------------------------------------
Total Dipole Moment    :      0.63973      -0.25633       0.08210
                        -----------------------------------------
Magnitude (a.u.)       :      0.69405
Magnitude (Debye)      :      1.76413

Rotational constants in cm-1:     0.019216     0.009076     0.007075
Rotational constants in MHz :   576.081494   272.095848   212.088243

                             ****ORCA TERMINATED NORMALLY****
TOTAL RUN TIME: 0 days 0 hours 0 minutes 31 seconds 631 msec
