                         Program Version 4.2.1 -  RELEASE  -
|  1> ! wB97X-D3 SP def2-SVP
|  2> %pal
|  3> nprocs 16
|  4> end
|  5>
|  6> * xyz 0 1
|  7> S 	 48.4891 	 10.8943 	 77.9201
|  8> C 	 48.4686 	 10.4501 	 79.6107
|  9> C 	 48.9678 	 11.4789 	 80.4423
| 10> C 	 49.5937 	 12.5033 	 79.7571
| 11> C 	 49.3982 	 12.3226 	 78.3446
| 12> H 	 50.0729 	 13.35 	 80.2296
| 13> C 	 49.0405 	 11.4027 	 81.9825
| 14> H 	 50.0786 	 11.3187 	 82.3491
| 15> H 	 48.6339 	 10.4554 	 82.2844
| 16> C 	 48.2056 	 12.4678 	 82.7225
| 17> H 	 48.4857 	 13.5405 	 82.5026
| 18> H 	 47.1105 	 12.376 	 82.4588
| 19> C 	 48.3857 	 12.4783 	 84.2746
| 20> H 	 47.7456 	 13.2021 	 84.667
| 21> H 	 48.118 	 11.5258 	 84.7823
| 22> H 	 49.4207 	 12.646 	 84.6041
| 23> S 	 51.0833 	 12.6733 	 76.2497
| 24> C 	 51.3054 	 14.3295 	 75.6475
| 25> C 	 50.4947 	 15.2407 	 76.2298
| 26> C 	 49.6333 	 14.6111 	 77.1881
| 27> C 	 49.8387 	 13.2635 	 77.3296
| 28> H 	 50.5145 	 16.2782 	 75.9389
| 29> C 	 48.5839 	 15.34 	 78.0676
| 30> H 	 48.0312 	 14.6545 	 78.6466
| 31> H 	 47.7987 	 15.6943 	 77.4568
| 32> C 	 49.1046 	 16.6031 	 78.7795
| 33> H 	 48.2367 	 17.1612 	 79.0509
| 34> H 	 49.6662 	 17.2911 	 78.0698
| 35> C 	 49.9339 	 16.298 	 79.9576
| 36> H 	 49.461 	 15.7435 	 80.7736
| 37> H 	 50.2083 	 17.252 	 80.3187
| 38> H 	 50.8014 	 15.6719 	 79.7525
| 39> H 	 48.0202 	 9.54069 	 79.9855
| 40> H 	 51.8645 	 14.4251 	 74.751
| 41> *
| 42>
| 43>                          ****END OF INPUT****

CARTESIAN COORDINATES (ANGSTROEM)
---------------------------------
  S     48.489100   10.894300   77.920100
  C     48.468600   10.450100   79.610700
  C     48.967800   11.478900   80.442300
  C     49.593700   12.503300   79.757100
  C     49.398200   12.322600   78.344600
  H     50.072900   13.350000   80.229600
  C     49.040500   11.402700   81.982500
  H     50.078600   11.318700   82.349100
  H     48.633900   10.455400   82.284400
  C     48.205600   12.467800   82.722500
  H     48.485700   13.540500   82.502600
  H     47.110500   12.376000   82.458800
  C     48.385700   12.478300   84.274600
  H     47.745600   13.202100   84.667000
  H     48.118000   11.525800   84.782300
  H     49.420700   12.646000   84.604100
  S     51.083300   12.673300   76.249700
  C     51.305400   14.329500   75.647500
  C     50.494700   15.240700   76.229800
  C     49.633300   14.611100   77.188100
  C     49.838700   13.263500   77.329600
  H     50.514500   16.278200   75.938900
  C     48.583900   15.340000   78.067600
  H     48.031200   14.654500   78.646600
  H     47.798700   15.694300   77.456800
  C     49.104600   16.603100   78.779500
  H     48.236700   17.161200   79.050900
  H     49.666200   17.291100   78.069800
  C     49.933900   16.298000   79.957600
  H     49.461000   15.743500   80.773600
  H     50.208300   17.252000   80.318700
  H     50.801400   15.671900   79.752500
  H     48.020200    9.540690   79.985500
  H     51.864500   14.425100   74.751000

 Total Charge           Charge          ....    0
 Multiplicity           Mult            ....    1
 Number of Electrons    NEL             ....  134
 Basis Dimension        Dim             ....  322

ORBITAL ENERGIES
----------------

  NO   OCC          E(Eh)            E(eV)
   0   2.0000     -88.974400     -2421.1165
   1   2.0000     -88.957695     -2420.6619
   2   2.0000     -10.330120      -281.0968
   3   2.0000     -10.317326      -280.7487
   4   2.0000     -10.314686      -280.6769
   5   2.0000     -10.313454      -280.6433
   6   2.0000     -10.301840      -280.3273
   7   2.0000     -10.300312      -280.2858
   8   2.0000     -10.299064      -280.2518
   9   2.0000     -10.294563      -280.1293
  10   2.0000     -10.294371      -280.1241
  11   2.0000     -10.294341      -280.1233
  12   2.0000     -10.285643      -279.8866
  13   2.0000     -10.280128      -279.7365
  14   2.0000     -10.278741      -279.6988
  15   2.0000     -10.268791      -279.4280
  16   2.0000      -8.088631      -220.1028
  17   2.0000      -8.072823      -219.6727
  18   2.0000      -6.046834      -164.5427
  19   2.0000      -6.043239      -164.4449
  20   2.0000      -6.039739      -164.3496
  21   2.0000      -6.031212      -164.1176
  22   2.0000      -6.027427      -164.0146
  23   2.0000      -6.023538      -163.9088
  24   2.0000      -1.004599       -27.3365
  25   2.0000      -0.981617       -26.7112
  26   2.0000      -0.911400       -24.8004
  27   2.0000      -0.905166       -24.6308
  28   2.0000      -0.867240       -23.5988
  29   2.0000      -0.853864       -23.2348
  30   2.0000      -0.847681       -23.0666
  31   2.0000      -0.811556       -22.0836
  32   2.0000      -0.786080       -21.3903
  33   2.0000      -0.771746       -21.0003
  34   2.0000      -0.705253       -19.1909
  35   2.0000      -0.697078       -18.9685
  36   2.0000      -0.692008       -18.8305
  37   2.0000      -0.657976       -17.9044
  38   2.0000      -0.639057       -17.3896
  39   2.0000      -0.622428       -16.9371
  40   2.0000      -0.602401       -16.3922
  41   2.0000      -0.565365       -15.3844
  42   2.0000      -0.555648       -15.1200
  43   2.0000      -0.553915       -15.0728
  44   2.0000      -0.536123       -14.5886
  45   2.0000      -0.528376       -14.3779
  46   2.0000      -0.527264       -14.3476
  47   2.0000      -0.506766       -13.7898
  48   2.0000      -0.504070       -13.7164
  49   2.0000      -0.498477       -13.5643
  50   2.0000      -0.486347       -13.2342
  51   2.0000      -0.479196       -13.0396
  52   2.0000      -0.469828       -12.7847
  53   2.0000      -0.467180       -12.7126
  54   2.0000      -0.458194       -12.4681
  55   2.0000      -0.449329       -12.2269
  56   2.0000      -0.446303       -12.1445
  57   2.0000      -0.441353       -12.0098
  58   2.0000      -0.431183       -11.7331
  59   2.0000      -0.423849       -11.5335
  60   2.0000      -0.423293       -11.5184
  61   2.0000      -0.411858       -11.2072
  62   2.0000      -0.409885       -11.1535
  63   2.0000      -0.341502        -9.2927
  64   2.0000      -0.336493        -9.1564
  65   2.0000      -0.322381        -8.7724
  66   2.0000      -0.293650        -7.9906
  67   0.0000       0.031683         0.8621
  68   0.0000       0.066876         1.8198
  69   0.0000       0.111816         3.0427
  70   0.0000       0.120991         3.2923
  71   0.0000       0.129008         3.5105

MULLIKEN ATOMIC CHARGES
-----------------------
   0 S :    0.139213
   1 C :   -0.121728
   2 C :   -0.079530
   3 C :    0.061543
   4 C :   -0.183786
   5 H :    0.001339
   6 C :    0.085373
   7 H :    0.038605
   8 H :   -0.000907
   9 C :   -0.127536
  10 H :    0.038698
  11 H :    0.045025
  12 C :   -0.041835
  13 H :    0.026210
  14 H :    0.024684
  15 H :    0.032670
  16 S :    0.084736
  17 C :   -0.084535
  18 C :   -0.019838
  19 C :   -0.033260
  20 C :   -0.163081
  21 H :    0.020702
  22 C :    0.113106
  23 H :    0.011799
  24 H :    0.007628
  25 C :   -0.086354
  26 H :    0.018815
  27 H :    0.033840
  28 C :   -0.018567
  29 H :    0.022902
  30 H :    0.019435
  31 H :    0.040455
  32 H :    0.043408
  33 H :    0.050771
Sum of atomic charges:   -0.0000000

LOEWDIN ATOMIC CHARGES
----------------------
   0 S :    0.428986
   1 C :   -0.207787
   2 C :   -0.062016
   3 C :   -0.050875
   4 C :   -0.198917
   5 H :    0.033385
   6 C :   -0.033297
   7 H :    0.034559
   8 H :    0.024722
   9 C :   -0.046335
  10 H :    0.025634
  11 H :    0.032374
  12 C :   -0.066213
  13 H :    0.018734
  14 H :    0.023194
  15 H :    0.025928
  16 S :    0.382869
  17 C :   -0.159506
  18 C :   -0.069174
  19 C :   -0.049851
  20 C :   -0.208499
  21 H :    0.034206
  22 C :   -0.026346
  23 H :    0.025268
  24 H :    0.027328
  25 C :   -0.038824
  26 H :    0.021600
  27 H :    0.030379
  28 C :   -0.065188
  29 H :    0.022767
  30 H :    0.022597
  31 H :    0.025633
  32 H :    0.023530
  33 H :    0.019136

  Mayer bond orders larger than 0.100000
B(  0-S ,  1-C ) :   1.1517 B(  0-S ,  4-C ) :   1.1950 B(  1-C ,  2-C ) :   1.5601
B(  1-C ,  4-C ) :   0.1151 B(  1-C , 32-H ) :   0.9675 B(  2-C ,  3-C ) :   1.2990
B(  2-C ,  6-C ) :   1.0260 B(  3-C ,  4-C ) :   1.4973 B(  3-C ,  5-H ) :   0.9943
B(  4-C , 20-C ) :   1.0162 B(  6-C ,  7-H ) :   0.9484 B(  6-C ,  8-H ) :   0.9343
B(  6-C ,  9-C ) :   1.0500 B(  9-C , 10-H ) :   0.9595 B(  9-C , 11-H ) :   0.9552
B(  9-C , 12-C ) :   1.0759 B( 12-C , 13-H ) :   0.9756 B( 12-C , 14-H ) :   0.9749
B( 12-C , 15-H ) :   0.9757 B( 16-S , 17-C ) :   1.1503 B( 16-S , 20-C ) :   1.1313
B( 17-C , 18-C ) :   1.6275 B( 17-C , 33-H ) :   0.9695 B( 18-C , 19-C ) :   1.2061
B( 18-C , 21-H ) :   0.9961 B( 19-C , 20-C ) :   1.6364 B( 19-C , 22-C ) :   1.0342
B( 22-C , 23-H ) :   0.9348 B( 22-C , 24-H ) :   0.9239 B( 22-C , 25-C ) :   1.0760
B( 25-C , 26-H ) :   0.9497 B( 25-C , 27-H ) :   0.9530 B( 25-C , 28-C ) :   1.0876
B( 28-C , 29-H ) :   0.9692 B( 28-C , 30-H ) :   0.9651 B( 28-C , 31-H ) :   0.9685

Dispersion correction           -0.015212558
FINAL SINGLE POINT ENERGY     -1339.874726378462

DIPOLE MOMENT
-------------
                                X             Y             Z
Electronic contribution:      5.24421     -15.13376     -27.59285
Nuclear contribution   :     -5.45806      15.60904      28.03785
                        -----------------------------------------
Total Dipole Moment    :     -0.21384       0.47528       0.44500
                        -----------------------------------------
Magnitude (a.u.)       :      0.68531
Magnitude (Debye)      :      1.74191

Rotational constants in cm-1:     0.018669     0.009400     0.006905
Rotational constants in MHz :   559.687552   281.814668   207.001032

                             ****ORCA TERMINATED NORMALLY****
TOTAL RUN TIME: 0 days 0 hours 0 minutes 31 seconds 468 msec
