                         Program Version 4.2.1 -  RELEASE  -
|  1> ! wB97X-D3 SP def2-SVP
|  2> %pal
|  3> nprocs 16
|  4> end
|  5>
|  6> * xyz 0 1
|  7> S 	 -10.4357 	 31.1662 	 53.4138
|  8> C 	 -9.41612 	 29.7887 	 53.6815
|  9> C 	 -8.18834 	 30.1402 	 54.1609
| 10> C 	 -7.98444 	 31.5746 	 54.2149
| 11> C 	 -9.00123 	 32.2 	 53.6011
| 12> H 	 -7.08613 	 32.2064 	 54.6041
| 13> C 	 -7.23527 	 29.1221 	 54.871
| 14> H 	 -6.17247 	 29.3736 	 54.684
| 15> H 	 -7.34577 	 28.0842 	 54.5513
| 16> C 	 -7.49623 	 29.0155 	 56.3551
| 17> H 	 -6.96728 	 28.2094 	 56.8099
| 18> H 	 -7.16105 	 29.9204 	 56.8835
| 19> C 	 -8.95281 	 28.9294 	 56.6537
| 20> H 	 -9.41429 	 29.8833 	 56.3527
| 21> H 	 -9.36437 	 28.146 	 56.012
| 22> H 	 -9.26583 	 28.8354 	 57.7265
| 23> S 	 -9.72044 	 34.6598 	 54.5502
| 24> C 	 -9.40788 	 36.0807 	 53.481
| 25> C 	 -8.93736 	 35.6248 	 52.2562
| 26> C 	 -8.54543 	 34.2687 	 52.2235
| 27> C 	 -9.01954 	 33.5599 	 53.3183
| 28> H 	 -8.90877 	 36.3365 	 51.4687
| 29> C 	 -7.86041 	 33.703 	 50.9619
| 30> H 	 -6.78532 	 33.5365 	 51.1346
| 31> H 	 -7.9316 	 34.5024 	 50.2308
| 32> C 	 -8.42025 	 32.492 	 50.2013
| 33> H 	 -9.31344 	 32.8693 	 49.7083
| 34> H 	 -8.71031 	 31.6755 	 50.9357
| 35> C 	 -7.53166 	 31.7104 	 49.2009
| 36> H 	 -6.60458 	 31.3744 	 49.5619
| 37> H 	 -7.31308 	 32.1892 	 48.3192
| 38> H 	 -8.05224 	 30.7579 	 48.9895
| 39> H 	 -9.80627 	 28.8079 	 53.8235
| 40> H 	 -9.77678 	 37.066 	 53.4846
| 41> *
| 42>
| 43>                          ****END OF INPUT****

CARTESIAN COORDINATES (ANGSTROEM)
---------------------------------
  S    -10.435700   31.166200   53.413800
  C     -9.416120   29.788700   53.681500
  C     -8.188340   30.140200   54.160900
  C     -7.984440   31.574600   54.214900
  C     -9.001230   32.200000   53.601100
  H     -7.086130   32.206400   54.604100
  C     -7.235270   29.122100   54.871000
  H     -6.172470   29.373600   54.684000
  H     -7.345770   28.084200   54.551300
  C     -7.496230   29.015500   56.355100
  H     -6.967280   28.209400   56.809900
  H     -7.161050   29.920400   56.883500
  C     -8.952810   28.929400   56.653700
  H     -9.414290   29.883300   56.352700
  H     -9.364370   28.146000   56.012000
  H     -9.265830   28.835400   57.726500
  S     -9.720440   34.659800   54.550200
  C     -9.407880   36.080700   53.481000
  C     -8.937360   35.624800   52.256200
  C     -8.545430   34.268700   52.223500
  C     -9.019540   33.559900   53.318300
  H     -8.908770   36.336500   51.468700
  C     -7.860410   33.703000   50.961900
  H     -6.785320   33.536500   51.134600
  H     -7.931600   34.502400   50.230800
  C     -8.420250   32.492000   50.201300
  H     -9.313440   32.869300   49.708300
  H     -8.710310   31.675500   50.935700
  C     -7.531660   31.710400   49.200900
  H     -6.604580   31.374400   49.561900
  H     -7.313080   32.189200   48.319200
  H     -8.052240   30.757900   48.989500
  H     -9.806270   28.807900   53.823500
  H     -9.776780   37.066000   53.484600

 Total Charge           Charge          ....    0
 Multiplicity           Mult            ....    1
 Number of Electrons    NEL             ....  134
 Basis Dimension        Dim             ....  322

ORBITAL ENERGIES
----------------

  NO   OCC          E(Eh)            E(eV)
   0   2.0000     -88.966965     -2420.9142
   1   2.0000     -88.966945     -2420.9136
   2   2.0000     -10.323560      -280.9183
   3   2.0000     -10.322102      -280.8787
   4   2.0000     -10.316318      -280.7213
   5   2.0000     -10.311406      -280.5876
   6   2.0000     -10.306117      -280.4437
   7   2.0000     -10.306025      -280.4412
   8   2.0000     -10.304359      -280.3959
   9   2.0000     -10.296291      -280.1763
  10   2.0000     -10.291451      -280.0446
  11   2.0000     -10.290999      -280.0323
  12   2.0000     -10.285303      -279.8773
  13   2.0000     -10.278208      -279.6842
  14   2.0000     -10.273420      -279.5540
  15   2.0000     -10.267329      -279.3882
  16   2.0000      -8.081632      -219.9124
  17   2.0000      -8.080016      -219.8684
  18   2.0000      -6.040165      -164.3612
  19   2.0000      -6.038810      -164.3244
  20   2.0000      -6.036495      -164.2614
  21   2.0000      -6.034752      -164.2140
  22   2.0000      -6.031984      -164.1386
  23   2.0000      -6.030569      -164.1001
  24   2.0000      -1.011332       -27.5197
  25   2.0000      -0.980604       -26.6836
  26   2.0000      -0.918969       -25.0064
  27   2.0000      -0.898775       -24.4569
  28   2.0000      -0.879041       -23.9199
  29   2.0000      -0.847873       -23.0718
  30   2.0000      -0.845492       -23.0070
  31   2.0000      -0.813696       -22.1418
  32   2.0000      -0.785370       -21.3710
  33   2.0000      -0.776573       -21.1316
  34   2.0000      -0.717541       -19.5253
  35   2.0000      -0.689938       -18.7742
  36   2.0000      -0.687400       -18.7051
  37   2.0000      -0.661377       -17.9970
  38   2.0000      -0.645529       -17.5657
  39   2.0000      -0.616624       -16.7792
  40   2.0000      -0.587726       -15.9928
  41   2.0000      -0.569256       -15.4903
  42   2.0000      -0.562870       -15.3165
  43   2.0000      -0.557358       -15.1665
  44   2.0000      -0.547333       -14.8937
  45   2.0000      -0.522070       -14.2063
  46   2.0000      -0.516986       -14.0679
  47   2.0000      -0.508173       -13.8281
  48   2.0000      -0.503174       -13.6921
  49   2.0000      -0.494773       -13.4635
  50   2.0000      -0.490438       -13.3455
  51   2.0000      -0.484984       -13.1971
  52   2.0000      -0.472302       -12.8520
  53   2.0000      -0.467164       -12.7122
  54   2.0000      -0.455727       -12.4010
  55   2.0000      -0.446474       -12.1492
  56   2.0000      -0.441185       -12.0053
  57   2.0000      -0.436242       -11.8707
  58   2.0000      -0.428858       -11.6698
  59   2.0000      -0.424099       -11.5403
  60   2.0000      -0.417760       -11.3678
  61   2.0000      -0.410873       -11.1804
  62   2.0000      -0.402917       -10.9639
  63   2.0000      -0.340522        -9.2661
  64   2.0000      -0.330519        -8.9939
  65   2.0000      -0.319029        -8.6812
  66   2.0000      -0.309585        -8.4242
  67   0.0000       0.033846         0.9210
  68   0.0000       0.045246         1.2312
  69   0.0000       0.105154         2.8614
  70   0.0000       0.114417         3.1134
  71   0.0000       0.125128         3.4049

MULLIKEN ATOMIC CHARGES
-----------------------
   0 S :    0.116105
   1 C :   -0.090109
   2 C :   -0.105130
   3 C :    0.020355
   4 C :   -0.192701
   5 H :    0.065284
   6 C :    0.049528
   7 H :    0.033204
   8 H :    0.025063
   9 C :   -0.051447
  10 H :    0.026357
  11 H :    0.020342
  12 C :   -0.070679
  13 H :    0.046805
  14 H :    0.013974
  15 H :    0.042639
  16 S :    0.101229
  17 C :   -0.062962
  18 C :   -0.058855
  19 C :    0.013374
  20 C :   -0.193021
  21 H :    0.011655
  22 C :    0.095283
  23 H :    0.033758
  24 H :    0.008872
  25 C :   -0.116988
  26 H :    0.031585
  27 H :    0.053716
  28 C :   -0.003053
  29 H :    0.009794
  30 H :    0.012393
  31 H :    0.031119
  32 H :    0.041177
  33 H :    0.041335
Sum of atomic charges:   -0.0000000

LOEWDIN ATOMIC CHARGES
----------------------
   0 S :    0.397168
   1 C :   -0.189025
   2 C :   -0.064046
   3 C :   -0.057045
   4 C :   -0.195493
   5 H :    0.058122
   6 C :   -0.030555
   7 H :    0.032348
   8 H :    0.029619
   9 C :   -0.045707
  10 H :    0.019925
  11 H :    0.021887
  12 C :   -0.068293
  13 H :    0.028579
  14 H :    0.016416
  15 H :    0.030530
  16 S :    0.369305
  17 C :   -0.172539
  18 C :   -0.061371
  19 C :   -0.049321
  20 C :   -0.186578
  21 H :    0.026034
  22 C :   -0.034690
  23 H :    0.033797
  24 H :    0.027539
  25 C :   -0.044862
  26 H :    0.023997
  27 H :    0.031328
  28 C :   -0.056739
  29 H :    0.018339
  30 H :    0.009756
  31 H :    0.036460
  32 H :    0.020741
  33 H :    0.024374

  Mayer bond orders larger than 0.100000
B(  0-S ,  1-C ) :   1.1280 B(  0-S ,  4-C ) :   1.1167 B(  1-C ,  2-C ) :   1.6494
B(  1-C , 32-H ) :   0.9665 B(  2-C ,  3-C ) :   1.1865 B(  2-C ,  6-C ) :   1.0277
B(  3-C ,  4-C ) :   1.6366 B(  3-C ,  5-H ) :   0.9773 B(  4-C , 20-C ) :   1.0672
B(  6-C ,  7-H ) :   0.9437 B(  6-C ,  8-H ) :   0.9470 B(  6-C ,  9-C ) :   1.0655
B(  9-C , 10-H ) :   0.9583 B(  9-C , 11-H ) :   0.9505 B(  9-C , 12-C ) :   1.0878
B( 12-C , 13-H ) :   0.9621 B( 12-C , 14-H ) :   0.9727 B( 12-C , 15-H ) :   0.9703
B( 16-S , 17-C ) :   1.1234 B( 16-S , 20-C ) :   1.1283 B( 17-C , 18-C ) :   1.6612
B( 17-C , 20-C ) :   0.1124 B( 17-C , 33-H ) :   0.9624 B( 18-C , 19-C ) :   1.2280
B( 18-C , 21-H ) :   0.9820 B( 19-C , 20-C ) :   1.6047 B( 19-C , 22-C ) :   1.0364
B( 22-C , 23-H ) :   0.9290 B( 22-C , 24-H ) :   0.9388 B( 22-C , 25-C ) :   1.0536
B( 25-C , 26-H ) :   0.9599 B( 25-C , 27-H ) :   0.9588 B( 25-C , 28-C ) :   1.0836
B( 28-C , 29-H ) :   0.9699 B( 28-C , 30-H ) :   0.9771 B( 28-C , 31-H ) :   0.9732

Dispersion correction           -0.015384081
FINAL SINGLE POINT ENERGY     -1339.843913471107

DIPOLE MOMENT
-------------
                                X             Y             Z
Electronic contribution:    -11.83952      14.63803       5.59454
Nuclear contribution   :     12.19271     -14.79831      -5.74154
                        -----------------------------------------
Total Dipole Moment    :      0.35318      -0.16028      -0.14700
                        -----------------------------------------
Magnitude (a.u.)       :      0.41477
Magnitude (Debye)      :      1.05427

Rotational constants in cm-1:     0.018892     0.009585     0.007448
Rotational constants in MHz :   566.371166   287.342233   223.298064

                             ****ORCA TERMINATED NORMALLY****
TOTAL RUN TIME: 0 days 0 hours 0 minutes 36 seconds 724 msec
