                         Program Version 4.2.1 -  RELEASE  -
|  1> ! wB97X-D3 SP def2-SVP
|  2> %pal
|  3> nprocs 16
|  4> end
|  5>
|  6> * xyz 0 1
|  7> S 	 -50.2749 	 5.93275 	 91.9318
|  8> C 	 -49.7721 	 6.04164 	 93.6422
|  9> C 	 -49.7813 	 7.35114 	 94.1769
| 10> C 	 -50.3176 	 8.28351 	 93.2099
| 11> C 	 -50.4922 	 7.69554 	 91.9725
| 12> H 	 -50.5497 	 9.36833 	 93.3092
| 13> C 	 -49.3151 	 7.70024 	 95.5441
| 14> H 	 -49.8744 	 6.95947 	 96.1274
| 15> H 	 -49.6577 	 8.68623 	 95.8385
| 16> C 	 -47.8616 	 7.49496 	 95.8029
| 17> H 	 -47.6641 	 7.55284 	 96.904
| 18> H 	 -47.473 	 6.46472 	 95.6869
| 19> C 	 -46.9729 	 8.55926 	 95.1157
| 20> H 	 -45.8835 	 8.75286 	 95.5565
| 21> H 	 -46.7714 	 8.19668 	 94.0956
| 22> H 	 -47.3521 	 9.61102 	 95.1332
| 23> S 	 -50.0853 	 7.66451 	 89.2621
| 24> C 	 -50.9608 	 8.75613 	 88.2533
| 25> C 	 -51.6743 	 9.66584 	 88.9775
| 26> C 	 -51.6592 	 9.39992 	 90.3992
| 27> C 	 -50.7943 	 8.34369 	 90.7148
| 28> H 	 -52.1577 	 10.4658 	 88.4081
| 29> C 	 -52.431 	 10.2782 	 91.3697
| 30> H 	 -51.6921 	 10.7337 	 92.0734
| 31> H 	 -52.9343 	 9.5038 	 91.9286
| 32> C 	 -53.2896 	 11.369 	 90.8282
| 33> H 	 -54.1247 	 11.4608 	 91.54
| 34> H 	 -53.8919 	 11.1107 	 89.9527
| 35> C 	 -52.5032 	 12.7031 	 90.6416
| 36> H 	 -53.2219 	 13.3964 	 90.2537
| 37> H 	 -51.6607 	 12.6107 	 89.9519
| 38> H 	 -52.1776 	 13.1798 	 91.4982
| 39> H 	 -49.1418 	 5.29052 	 94.1302
| 40> H 	 -50.8224 	 8.82957 	 87.1667
| 41> *
| 42>
| 43>                          ****END OF INPUT****

CARTESIAN COORDINATES (ANGSTROEM)
---------------------------------
  S    -50.274900    5.932750   91.931800
  C    -49.772100    6.041640   93.642200
  C    -49.781300    7.351140   94.176900
  C    -50.317600    8.283510   93.209900
  C    -50.492200    7.695540   91.972500
  H    -50.549700    9.368330   93.309200
  C    -49.315100    7.700240   95.544100
  H    -49.874400    6.959470   96.127400
  H    -49.657700    8.686230   95.838500
  C    -47.861600    7.494960   95.802900
  H    -47.664100    7.552840   96.904000
  H    -47.473000    6.464720   95.686900
  C    -46.972900    8.559260   95.115700
  H    -45.883500    8.752860   95.556500
  H    -46.771400    8.196680   94.095600
  H    -47.352100    9.611020   95.133200
  S    -50.085300    7.664510   89.262100
  C    -50.960800    8.756130   88.253300
  C    -51.674300    9.665840   88.977500
  C    -51.659200    9.399920   90.399200
  C    -50.794300    8.343690   90.714800
  H    -52.157700   10.465800   88.408100
  C    -52.431000   10.278200   91.369700
  H    -51.692100   10.733700   92.073400
  H    -52.934300    9.503800   91.928600
  C    -53.289600   11.369000   90.828200
  H    -54.124700   11.460800   91.540000
  H    -53.891900   11.110700   89.952700
  C    -52.503200   12.703100   90.641600
  H    -53.221900   13.396400   90.253700
  H    -51.660700   12.610700   89.951900
  H    -52.177600   13.179800   91.498200
  H    -49.141800    5.290520   94.130200
  H    -50.822400    8.829570   87.166700

 Total Charge           Charge          ....    0
 Multiplicity           Mult            ....    1
 Number of Electrons    NEL             ....  134
 Basis Dimension        Dim             ....  322

ORBITAL ENERGIES
----------------

  NO   OCC          E(Eh)            E(eV)
   0   2.0000     -88.967620     -2420.9320
   1   2.0000     -88.962913     -2420.8039
   2   2.0000     -10.329687      -281.0851
   3   2.0000     -10.322590      -280.8920
   4   2.0000     -10.312809      -280.6258
   5   2.0000     -10.312174      -280.6085
   6   2.0000     -10.305932      -280.4387
   7   2.0000     -10.304634      -280.4034
   8   2.0000     -10.298372      -280.2329
   9   2.0000     -10.293493      -280.1002
  10   2.0000     -10.292080      -280.0617
  11   2.0000     -10.291633      -280.0496
  12   2.0000     -10.291611      -280.0490
  13   2.0000     -10.291196      -280.0377
  14   2.0000     -10.289857      -280.0013
  15   2.0000     -10.275840      -279.6198
  16   2.0000      -8.081239      -219.9017
  17   2.0000      -8.078142      -219.8174
  18   2.0000      -6.039807      -164.3515
  19   2.0000      -6.036653      -164.2657
  20   2.0000      -6.036142      -164.2518
  21   2.0000      -6.032517      -164.1531
  22   2.0000      -6.031757      -164.1325
  23   2.0000      -6.028932      -164.0556
  24   2.0000      -1.004122       -27.3236
  25   2.0000      -0.977354       -26.5952
  26   2.0000      -0.918264       -24.9872
  27   2.0000      -0.914713       -24.8906
  28   2.0000      -0.864827       -23.5331
  29   2.0000      -0.851418       -23.1683
  30   2.0000      -0.839985       -22.8572
  31   2.0000      -0.813187       -22.1279
  32   2.0000      -0.787367       -21.4253
  33   2.0000      -0.770147       -20.9568
  34   2.0000      -0.714014       -19.4293
  35   2.0000      -0.705379       -19.1943
  36   2.0000      -0.693717       -18.8770
  37   2.0000      -0.652782       -17.7631
  38   2.0000      -0.629864       -17.1395
  39   2.0000      -0.612275       -16.6609
  40   2.0000      -0.595724       -16.2105
  41   2.0000      -0.573832       -15.6148
  42   2.0000      -0.564404       -15.3582
  43   2.0000      -0.554956       -15.1011
  44   2.0000      -0.537224       -14.6186
  45   2.0000      -0.528132       -14.3712
  46   2.0000      -0.517446       -14.0804
  47   2.0000      -0.511438       -13.9169
  48   2.0000      -0.503906       -13.7120
  49   2.0000      -0.492280       -13.3956
  50   2.0000      -0.487587       -13.2679
  51   2.0000      -0.477541       -12.9946
  52   2.0000      -0.467773       -12.7288
  53   2.0000      -0.464686       -12.6447
  54   2.0000      -0.457080       -12.4378
  55   2.0000      -0.449951       -12.2438
  56   2.0000      -0.442856       -12.0507
  57   2.0000      -0.440656       -11.9909
  58   2.0000      -0.435148       -11.8410
  59   2.0000      -0.432080       -11.7575
  60   2.0000      -0.425383       -11.5753
  61   2.0000      -0.408799       -11.1240
  62   2.0000      -0.404271       -11.0008
  63   2.0000      -0.348292        -9.4775
  64   2.0000      -0.329894        -8.9769
  65   2.0000      -0.327307        -8.9065
  66   2.0000      -0.280396        -7.6300
  67   0.0000       0.021961         0.5976
  68   0.0000       0.073764         2.0072
  69   0.0000       0.101570         2.7639
  70   0.0000       0.120077         3.2675
  71   0.0000       0.137933         3.7534

MULLIKEN ATOMIC CHARGES
-----------------------
   0 S :    0.106669
   1 C :   -0.120303
   2 C :   -0.111622
   3 C :   -0.005108
   4 C :   -0.138759
   5 H :    0.021236
   6 C :    0.102295
   7 H :    0.039782
   8 H :    0.020669
   9 C :   -0.073436
  10 H :    0.026460
  11 H :    0.030491
  12 C :   -0.109735
  13 H :    0.041914
  14 H :    0.053265
  15 H :    0.040412
  16 S :    0.102310
  17 C :   -0.093367
  18 C :   -0.053708
  19 C :   -0.059670
  20 C :   -0.148366
  21 H :    0.026371
  22 C :    0.051745
  23 H :    0.047620
  24 H :    0.036794
  25 C :   -0.067100
  26 H :    0.024817
  27 H :    0.028205
  28 C :   -0.015520
  29 H :    0.024055
  30 H :    0.039856
  31 H :    0.017980
  32 H :    0.052608
  33 H :    0.061142
Sum of atomic charges:   -0.0000000

LOEWDIN ATOMIC CHARGES
----------------------
   0 S :    0.380083
   1 C :   -0.207493
   2 C :   -0.049602
   3 C :   -0.073423
   4 C :   -0.173087
   5 H :    0.038035
   6 C :   -0.034632
   7 H :    0.044282
   8 H :    0.031028
   9 C :   -0.051085
  10 H :    0.028363
  11 H :    0.028469
  12 C :   -0.084334
  13 H :    0.036588
  14 H :    0.029504
  15 H :    0.027902
  16 S :    0.408833
  17 C :   -0.195550
  18 C :   -0.081513
  19 C :   -0.050847
  20 C :   -0.207576
  21 H :    0.034775
  22 C :   -0.039924
  23 H :    0.036702
  24 H :    0.036136
  25 C :   -0.046053
  26 H :    0.032416
  27 H :    0.026733
  28 C :   -0.055835
  29 H :    0.027362
  30 H :    0.028352
  31 H :    0.015955
  32 H :    0.025553
  33 H :    0.033883

  Mayer bond orders larger than 0.100000
B(  0-S ,  1-C ) :   1.1104 B(  0-S ,  4-C ) :   1.1394 B(  1-C ,  2-C ) :   1.6396
B(  1-C , 32-H ) :   0.9561 B(  2-C ,  3-C ) :   1.2089 B(  2-C ,  6-C ) :   1.0114
B(  3-C ,  4-C ) :   1.5901 B(  3-C ,  5-H ) :   0.9814 B(  4-C , 20-C ) :   1.0811
B(  6-C ,  7-H ) :   0.9265 B(  6-C ,  8-H ) :   0.9436 B(  6-C ,  9-C ) :   1.0876
B(  9-C , 10-H ) :   0.9515 B(  9-C , 11-H ) :   0.9552 B(  9-C , 12-C ) :   1.0498
B( 12-C , 13-H ) :   0.9763 B( 12-C , 14-H ) :   0.9777 B( 12-C , 15-H ) :   0.9764
B( 16-S , 17-C ) :   1.1582 B( 16-S , 20-C ) :   1.1339 B( 17-C , 18-C ) :   1.6178
B( 17-C , 33-H ) :   0.9586 B( 18-C , 19-C ) :   1.2401 B( 18-C , 21-H ) :   0.9825
B( 19-C , 20-C ) :   1.5776 B( 19-C , 22-C ) :   1.0251 B( 22-C , 23-H ) :   0.9288
B( 22-C , 24-H ) :   0.9216 B( 22-C , 25-C ) :   1.0835 B( 25-C , 26-H ) :   0.9449
B( 25-C , 27-H ) :   0.9511 B( 25-C , 28-C ) :   1.0735 B( 28-C , 29-H ) :   0.9715
B( 28-C , 30-H ) :   0.9781 B( 28-C , 31-H ) :   0.9719

Dispersion correction           -0.014169224
FINAL SINGLE POINT ENERGY     -1339.864002234272

DIPOLE MOMENT
-------------
                                X             Y             Z
Electronic contribution:     -1.05326     -19.69543     -15.47107
Nuclear contribution   :      0.96555      20.37250      15.78791
                        -----------------------------------------
Total Dipole Moment    :     -0.08771       0.67707       0.31684
                        -----------------------------------------
Magnitude (a.u.)       :      0.75267
Magnitude (Debye)      :      1.91312

Rotational constants in cm-1:     0.019479     0.008186     0.006594
Rotational constants in MHz :   583.973010   245.421663   197.685974

                             ****ORCA TERMINATED NORMALLY****
TOTAL RUN TIME: 0 days 0 hours 0 minutes 29 seconds 551 msec
