                         Program Version 4.2.1 -  RELEASE  -
|  1> ! wB97X-D3 SP def2-SVP
|  2> %pal
|  3> nprocs 16
|  4> end
|  5>
|  6> * xyz 0 1
|  7> S 	 18.0214 	 20.4645 	 39.7343
|  8> C 	 18.4061 	 20.4369 	 38.0146
|  9> C 	 17.2639 	 20.377 	 37.2375
| 10> C 	 16.0851 	 20.1685 	 38.0594
| 11> C 	 16.326 	 20.3467 	 39.4009
| 12> H 	 15.0971 	 20.0262 	 37.6506
| 13> C 	 17.26 	 20.5134 	 35.6977
| 14> H 	 17.3486 	 19.4437 	 35.3396
| 15> H 	 18.1524 	 21.0012 	 35.4915
| 16> C 	 16.0759 	 21.1871 	 35.0262
| 17> H 	 16.3211 	 21.1366 	 33.9456
| 18> H 	 15.1054 	 20.7126 	 35.2043
| 19> C 	 16.0546 	 22.6336 	 35.5406
| 20> H 	 15.6059 	 22.6049 	 36.5356
| 21> H 	 17.0469 	 23.2526 	 35.6177
| 22> H 	 15.3822 	 23.1862 	 34.9612
| 23> S 	 15.633 	 19.4762 	 41.9285
| 24> C 	 14.1213 	 19.8513 	 42.6031
| 25> C 	 13.3505 	 20.675 	 41.7211
| 26> C 	 14.0066 	 20.8493 	 40.4648
| 27> C 	 15.3564 	 20.3995 	 40.4589
| 28> H 	 12.3205 	 21.0468 	 42.0195
| 29> C 	 13.2915 	 21.5745 	 39.3643
| 30> H 	 12.1815 	 21.5495 	 39.6972
| 31> H 	 13.2073 	 20.9253 	 38.4226
| 32> C 	 13.7076 	 23.02 	 39.0954
| 33> H 	 14.8131 	 23.1146 	 39.0615
| 34> H 	 13.3344 	 23.5986 	 39.9444
| 35> C 	 13.1214 	 23.5342 	 37.7991
| 36> H 	 12.0213 	 23.6416 	 37.864
| 37> H 	 13.2561 	 22.7627 	 36.978
| 38> H 	 13.5358 	 24.5475 	 37.6948
| 39> H 	 19.4019 	 20.6224 	 37.6687
| 40> H 	 13.8174 	 19.7357 	 43.6745
| 41> *
| 42>
| 43>                          ****END OF INPUT****

CARTESIAN COORDINATES (ANGSTROEM)
---------------------------------
  S     18.021400   20.464500   39.734300
  C     18.406100   20.436900   38.014600
  C     17.263900   20.377000   37.237500
  C     16.085100   20.168500   38.059400
  C     16.326000   20.346700   39.400900
  H     15.097100   20.026200   37.650600
  C     17.260000   20.513400   35.697700
  H     17.348600   19.443700   35.339600
  H     18.152400   21.001200   35.491500
  C     16.075900   21.187100   35.026200
  H     16.321100   21.136600   33.945600
  H     15.105400   20.712600   35.204300
  C     16.054600   22.633600   35.540600
  H     15.605900   22.604900   36.535600
  H     17.046900   23.252600   35.617700
  H     15.382200   23.186200   34.961200
  S     15.633000   19.476200   41.928500
  C     14.121300   19.851300   42.603100
  C     13.350500   20.675000   41.721100
  C     14.006600   20.849300   40.464800
  C     15.356400   20.399500   40.458900
  H     12.320500   21.046800   42.019500
  C     13.291500   21.574500   39.364300
  H     12.181500   21.549500   39.697200
  H     13.207300   20.925300   38.422600
  C     13.707600   23.020000   39.095400
  H     14.813100   23.114600   39.061500
  H     13.334400   23.598600   39.944400
  C     13.121400   23.534200   37.799100
  H     12.021300   23.641600   37.864000
  H     13.256100   22.762700   36.978000
  H     13.535800   24.547500   37.694800
  H     19.401900   20.622400   37.668700
  H     13.817400   19.735700   43.674500

 Total Charge           Charge          ....    0
 Multiplicity           Mult            ....    1
 Number of Electrons    NEL             ....  134
 Basis Dimension        Dim             ....  322

ORBITAL ENERGIES
----------------

  NO   OCC          E(Eh)            E(eV)
   0   2.0000     -88.969569     -2420.9850
   1   2.0000     -88.964268     -2420.8408
   2   2.0000     -10.328048      -281.0405
   3   2.0000     -10.327673      -281.0303
   4   2.0000     -10.321208      -280.8544
   5   2.0000     -10.311186      -280.5816
   6   2.0000     -10.306691      -280.4593
   7   2.0000     -10.303977      -280.3855
   8   2.0000     -10.303093      -280.3614
   9   2.0000     -10.300709      -280.2965
  10   2.0000     -10.293822      -280.1091
  11   2.0000     -10.293194      -280.0920
  12   2.0000     -10.292116      -280.0627
  13   2.0000     -10.286608      -279.9128
  14   2.0000     -10.284765      -279.8627
  15   2.0000     -10.278287      -279.6864
  16   2.0000      -8.084619      -219.9937
  17   2.0000      -8.079309      -219.8492
  18   2.0000      -6.043044      -164.4396
  19   2.0000      -6.038778      -164.3235
  20   2.0000      -6.037863      -164.2986
  21   2.0000      -6.035765      -164.2415
  22   2.0000      -6.033848      -164.1893
  23   2.0000      -6.029938      -164.0830
  24   2.0000      -1.007648       -27.4195
  25   2.0000      -0.982999       -26.7488
  26   2.0000      -0.915439       -24.9104
  27   2.0000      -0.911585       -24.8055
  28   2.0000      -0.869057       -23.6482
  29   2.0000      -0.855834       -23.2884
  30   2.0000      -0.840744       -22.8778
  31   2.0000      -0.810250       -22.0480
  32   2.0000      -0.779870       -21.2214
  33   2.0000      -0.768793       -20.9199
  34   2.0000      -0.708373       -19.2758
  35   2.0000      -0.696453       -18.9515
  36   2.0000      -0.686177       -18.6718
  37   2.0000      -0.658303       -17.9133
  38   2.0000      -0.636947       -17.3322
  39   2.0000      -0.625284       -17.0148
  40   2.0000      -0.593258       -16.1434
  41   2.0000      -0.563406       -15.3310
  42   2.0000      -0.560957       -15.2644
  43   2.0000      -0.554527       -15.0894
  44   2.0000      -0.539329       -14.6759
  45   2.0000      -0.532293       -14.4844
  46   2.0000      -0.517697       -14.0873
  47   2.0000      -0.507362       -13.8060
  48   2.0000      -0.502787       -13.6815
  49   2.0000      -0.495598       -13.4859
  50   2.0000      -0.492678       -13.4065
  51   2.0000      -0.482970       -13.1423
  52   2.0000      -0.468349       -12.7444
  53   2.0000      -0.460788       -12.5387
  54   2.0000      -0.457415       -12.4469
  55   2.0000      -0.448079       -12.1929
  56   2.0000      -0.443977       -12.0812
  57   2.0000      -0.440662       -11.9910
  58   2.0000      -0.432633       -11.7726
  59   2.0000      -0.425570       -11.5803
  60   2.0000      -0.422087       -11.4856
  61   2.0000      -0.415151       -11.2968
  62   2.0000      -0.405264       -11.0278
  63   2.0000      -0.348828        -9.4921
  64   2.0000      -0.331740        -9.0271
  65   2.0000      -0.326684        -8.8895
  66   2.0000      -0.284935        -7.7535
  67   0.0000       0.021651         0.5891
  68   0.0000       0.077948         2.1211
  69   0.0000       0.107815         2.9338
  70   0.0000       0.110545         3.0081
  71   0.0000       0.126672         3.4469

MULLIKEN ATOMIC CHARGES
-----------------------
   0 S :    0.101697
   1 C :   -0.121002
   2 C :   -0.127417
   3 C :    0.029821
   4 C :   -0.136457
   5 H :   -0.005416
   6 C :    0.091134
   7 H :    0.049575
   8 H :    0.001551
   9 C :   -0.069857
  10 H :    0.041198
  11 H :    0.038285
  12 C :   -0.064713
  13 H :    0.034892
  14 H :    0.049568
  15 H :    0.018562
  16 S :    0.122598
  17 C :   -0.112179
  18 C :   -0.072699
  19 C :   -0.036582
  20 C :   -0.117676
  21 H :    0.046644
  22 C :   -0.029774
  23 H :    0.025843
  24 H :    0.035487
  25 C :   -0.056422
  26 H :    0.051434
  27 H :    0.031248
  28 C :   -0.051367
  29 H :    0.026620
  30 H :    0.037656
  31 H :    0.046422
  32 H :    0.041660
  33 H :    0.079666
Sum of atomic charges:   -0.0000000

LOEWDIN ATOMIC CHARGES
----------------------
   0 S :    0.401727
   1 C :   -0.196304
   2 C :   -0.054552
   3 C :   -0.065766
   4 C :   -0.196447
   5 H :    0.024876
   6 C :   -0.028046
   7 H :    0.040153
   8 H :    0.019577
   9 C :   -0.040564
  10 H :    0.031782
  11 H :    0.026370
  12 C :   -0.069632
  13 H :    0.026531
  14 H :    0.039823
  15 H :    0.013361
  16 S :    0.440151
  17 C :   -0.221436
  18 C :   -0.081812
  19 C :   -0.058425
  20 C :   -0.206023
  21 H :    0.042508
  22 C :   -0.048253
  23 H :    0.037059
  24 H :    0.029627
  25 C :   -0.044127
  26 H :    0.028844
  27 H :    0.028878
  28 C :   -0.070862
  29 H :    0.024813
  30 H :    0.029220
  31 H :    0.032874
  32 H :    0.021839
  33 H :    0.042237

  Mayer bond orders larger than 0.100000
B(  0-S ,  1-C ) :   1.1238 B(  0-S ,  4-C ) :   1.1526 B(  1-C ,  2-C ) :   1.6350
B(  1-C , 32-H ) :   0.9704 B(  2-C ,  3-C ) :   1.2231 B(  2-C ,  6-C ) :   1.0018
B(  3-C ,  4-C ) :   1.5747 B(  3-C ,  5-H ) :   0.9898 B(  4-C , 20-C ) :   1.0643
B(  6-C ,  7-H ) :   0.9339 B(  6-C ,  8-H ) :   0.9411 B(  6-C ,  9-C ) :   1.0812
B(  9-C , 10-H ) :   0.9532 B(  9-C , 11-H ) :   0.9497 B(  9-C , 12-C ) :   1.0720
B( 12-C , 13-H ) :   0.9667 B( 12-C , 14-H ) :   0.9728 B( 12-C , 15-H ) :   0.9719
B( 16-S , 17-C ) :   1.1996 B( 16-S , 20-C ) :   1.1525 B( 17-C , 18-C ) :   1.5454
B( 17-C , 20-C ) :   0.1146 B( 17-C , 33-H ) :   0.9579 B( 18-C , 19-C ) :   1.3074
B( 18-C , 21-H ) :   0.9759 B( 19-C , 20-C ) :   1.5210 B( 19-C , 22-C ) :   1.0483
B( 22-C , 23-H ) :   0.9314 B( 22-C , 24-H ) :   0.9349 B( 22-C , 25-C ) :   1.0538
B( 25-C , 26-H ) :   0.9594 B( 25-C , 27-H ) :   0.9459 B( 25-C , 28-C ) :   1.0817
B( 28-C , 29-H ) :   0.9707 B( 28-C , 30-H ) :   0.9690 B( 28-C , 31-H ) :   0.9713

Dispersion correction           -0.016311075
FINAL SINGLE POINT ENERGY     -1339.875341396823

DIPOLE MOMENT
-------------
                                X             Y             Z
Electronic contribution:     12.88586     -15.85259      24.16112
Nuclear contribution   :    -13.33823      16.20871     -24.63451
                        -----------------------------------------
Total Dipole Moment    :     -0.45237       0.35612      -0.47340
                        -----------------------------------------
Magnitude (a.u.)       :      0.74536
Magnitude (Debye)      :      1.89456

Rotational constants in cm-1:     0.018480     0.010851     0.007452
Rotational constants in MHz :   554.023085   325.305384   223.411566

                             ****ORCA TERMINATED NORMALLY****
TOTAL RUN TIME: 0 days 0 hours 0 minutes 36 seconds 533 msec
