                         Program Version 4.2.1 -  RELEASE  -
|  1> ! wB97X-D3 SP def2-SVP
|  2> %pal
|  3> nprocs 16
|  4> end
|  5>
|  6> * xyz 0 1
|  7> S 	 -100.171 	 40.2915 	 127.021
|  8> C 	 -98.7076 	 39.7458 	 127.901
|  9> C 	 -97.4651 	 40.1304 	 127.351
| 10> C 	 -97.6931 	 40.9103 	 126.216
| 11> C 	 -99.046 	 41.0636 	 125.84
| 12> H 	 -97.0014 	 41.3882 	 125.507
| 13> C 	 -96.0233 	 39.8142 	 127.863
| 14> H 	 -95.6166 	 39.0195 	 127.213
| 15> H 	 -96.1247 	 39.49 	 128.915
| 16> C 	 -95.1822 	 41.1036 	 127.973
| 17> H 	 -95.1084 	 41.5249 	 126.925
| 18> H 	 -95.7074 	 41.7995 	 128.66
| 19> C 	 -93.6966 	 41.0809 	 128.403
| 20> H 	 -93.49 	 40.5731 	 129.399
| 21> H 	 -93.053 	 40.6304 	 127.685
| 22> H 	 -93.3362 	 42.147 	 128.428
| 23> S 	 -100.081 	 43.5825 	 125.253
| 24> C 	 -100.367 	 44.1284 	 123.665
| 25> C 	 -99.9062 	 43.1674 	 122.798
| 26> C 	 -99.4593 	 41.9254 	 123.36
| 27> C 	 -99.4478 	 41.9862 	 124.766
| 28> H 	 -100.026 	 43.371 	 121.751
| 29> C 	 -99.1778 	 40.6658 	 122.46
| 30> H 	 -98.4235 	 40.0524 	 122.983
| 31> H 	 -98.7506 	 40.9125 	 121.51
| 32> C 	 -100.369 	 39.8141 	 122.153
| 33> H 	 -101.082 	 40.4053 	 121.557
| 34> H 	 -100.879 	 39.4748 	 123.065
| 35> C 	 -99.858 	 38.5414 	 121.392
| 36> H 	 -99.3295 	 38.7576 	 120.448
| 37> H 	 -100.741 	 37.9527 	 121.103
| 38> H 	 -99.1895 	 37.989 	 122.035
| 39> H 	 -98.7494 	 39.0932 	 128.79
| 40> H 	 -100.888 	 45.1029 	 123.443
| 41> *
| 42>
| 43>                          ****END OF INPUT****

CARTESIAN COORDINATES (ANGSTROEM)
---------------------------------
  S    -100.171000   40.291500  127.021000
  C    -98.707600   39.745800  127.901000
  C    -97.465100   40.130400  127.351000
  C    -97.693100   40.910300  126.216000
  C    -99.046000   41.063600  125.840000
  H    -97.001400   41.388200  125.507000
  C    -96.023300   39.814200  127.863000
  H    -95.616600   39.019500  127.213000
  H    -96.124700   39.490000  128.915000
  C    -95.182200   41.103600  127.973000
  H    -95.108400   41.524900  126.925000
  H    -95.707400   41.799500  128.660000
  C    -93.696600   41.080900  128.403000
  H    -93.490000   40.573100  129.399000
  H    -93.053000   40.630400  127.685000
  H    -93.336200   42.147000  128.428000
  S    -100.081000   43.582500  125.253000
  C    -100.367000   44.128400  123.665000
  C    -99.906200   43.167400  122.798000
  C    -99.459300   41.925400  123.360000
  C    -99.447800   41.986200  124.766000
  H    -100.026000   43.371000  121.751000
  C    -99.177800   40.665800  122.460000
  H    -98.423500   40.052400  122.983000
  H    -98.750600   40.912500  121.510000
  C    -100.369000   39.814100  122.153000
  H    -101.082000   40.405300  121.557000
  H    -100.879000   39.474800  123.065000
  C    -99.858000   38.541400  121.392000
  H    -99.329500   38.757600  120.448000
  H    -100.741000   37.952700  121.103000
  H    -99.189500   37.989000  122.035000
  H    -98.749400   39.093200  128.790000
  H    -100.888000   45.102900  123.443000

 Total Charge           Charge          ....    0
 Multiplicity           Mult            ....    1
 Number of Electrons    NEL             ....  134
 Basis Dimension        Dim             ....  322

ORBITAL ENERGIES
----------------

  NO   OCC          E(Eh)            E(eV)
   0   2.0000     -88.975506     -2421.1466
   1   2.0000     -88.957609     -2420.6596
   2   2.0000     -10.333441      -281.1872
   3   2.0000     -10.329296      -281.0744
   4   2.0000     -10.325253      -280.9644
   5   2.0000     -10.317203      -280.7454
   6   2.0000     -10.309109      -280.5251
   7   2.0000     -10.307963      -280.4939
   8   2.0000     -10.304918      -280.4111
   9   2.0000     -10.297241      -280.2022
  10   2.0000     -10.296890      -280.1926
  11   2.0000     -10.290647      -280.0227
  12   2.0000     -10.288823      -279.9731
  13   2.0000     -10.286693      -279.9151
  14   2.0000     -10.284841      -279.8648
  15   2.0000     -10.279558      -279.7210
  16   2.0000      -8.088159      -220.0900
  17   2.0000      -8.073019      -219.6780
  18   2.0000      -6.046595      -164.5362
  19   2.0000      -6.043122      -164.4417
  20   2.0000      -6.038956      -164.3284
  21   2.0000      -6.031432      -164.1236
  22   2.0000      -6.027201      -164.0085
  23   2.0000      -6.024048      -163.9227
  24   2.0000      -0.997907       -27.1544
  25   2.0000      -0.977309       -26.5939
  26   2.0000      -0.908169       -24.7125
  27   2.0000      -0.905134       -24.6299
  28   2.0000      -0.862813       -23.4783
  29   2.0000      -0.848536       -23.0898
  30   2.0000      -0.840962       -22.8837
  31   2.0000      -0.806521       -21.9466
  32   2.0000      -0.781391       -21.2627
  33   2.0000      -0.770233       -20.9591
  34   2.0000      -0.702146       -19.1064
  35   2.0000      -0.691447       -18.8152
  36   2.0000      -0.685968       -18.6661
  37   2.0000      -0.652562       -17.7571
  38   2.0000      -0.637811       -17.3557
  39   2.0000      -0.615647       -16.7526
  40   2.0000      -0.594191       -16.1688
  41   2.0000      -0.569148       -15.4873
  42   2.0000      -0.568205       -15.4616
  43   2.0000      -0.555926       -15.1275
  44   2.0000      -0.521046       -14.1784
  45   2.0000      -0.519852       -14.1459
  46   2.0000      -0.512938       -13.9577
  47   2.0000      -0.504917       -13.7395
  48   2.0000      -0.499352       -13.5881
  49   2.0000      -0.496342       -13.5062
  50   2.0000      -0.489868       -13.3300
  51   2.0000      -0.474891       -12.9225
  52   2.0000      -0.467780       -12.7289
  53   2.0000      -0.467548       -12.7226
  54   2.0000      -0.454462       -12.3665
  55   2.0000      -0.450230       -12.2514
  56   2.0000      -0.440390       -11.9836
  57   2.0000      -0.433688       -11.8012
  58   2.0000      -0.432074       -11.7573
  59   2.0000      -0.429972       -11.7001
  60   2.0000      -0.420798       -11.4505
  61   2.0000      -0.411689       -11.2026
  62   2.0000      -0.408280       -11.1099
  63   2.0000      -0.342000        -9.3063
  64   2.0000      -0.326820        -8.8932
  65   2.0000      -0.323682        -8.8078
  66   2.0000      -0.301120        -8.1939
  67   0.0000       0.032298         0.8789
  68   0.0000       0.056002         1.5239
  69   0.0000       0.105548         2.8721
  70   0.0000       0.127412         3.4671
  71   0.0000       0.133046         3.6204

MULLIKEN ATOMIC CHARGES
-----------------------
   0 S :    0.124170
   1 C :   -0.137061
   2 C :   -0.072508
   3 C :    0.018963
   4 C :   -0.179518
   5 H :    0.031113
   6 C :    0.104887
   7 H :    0.054126
   8 H :    0.022505
   9 C :   -0.145554
  10 H :    0.041363
  11 H :    0.050371
  12 C :   -0.054108
  13 H :    0.040612
  14 H :    0.024164
  15 H :    0.043817
  16 S :    0.097601
  17 C :   -0.116971
  18 C :   -0.039368
  19 C :   -0.002052
  20 C :   -0.197073
  21 H :    0.009131
  22 C :    0.067861
  23 H :    0.021216
  24 H :    0.010591
  25 C :   -0.069911
  26 H :    0.028934
  27 H :    0.035146
  28 C :   -0.055630
  29 H :    0.029827
  30 H :    0.038686
  31 H :    0.034202
  32 H :    0.054317
  33 H :    0.086153
Sum of atomic charges:   -0.0000000

LOEWDIN ATOMIC CHARGES
----------------------
   0 S :    0.379814
   1 C :   -0.183796
   2 C :   -0.066769
   3 C :   -0.051310
   4 C :   -0.194576
   5 H :    0.037939
   6 C :   -0.027696
   7 H :    0.036986
   8 H :    0.031670
   9 C :   -0.050843
  10 H :    0.029289
  11 H :    0.032881
  12 C :   -0.073896
  13 H :    0.028267
  14 H :    0.017308
  15 H :    0.037063
  16 S :    0.408372
  17 C :   -0.207476
  18 C :   -0.084530
  19 C :   -0.051411
  20 C :   -0.198475
  21 H :    0.025070
  22 C :   -0.028935
  23 H :    0.029687
  24 H :    0.024856
  25 C :   -0.037603
  26 H :    0.023291
  27 H :    0.026623
  28 C :   -0.063794
  29 H :    0.024296
  30 H :    0.028463
  31 H :    0.023552
  32 H :    0.029021
  33 H :    0.046664

  Mayer bond orders larger than 0.100000
B(  0-S ,  1-C ) :   1.1496 B(  0-S ,  4-C ) :   1.1279 B(  1-C ,  2-C ) :   1.6107
B(  1-C ,  4-C ) :   0.1074 B(  1-C , 32-H ) :   0.9582 B(  2-C ,  3-C ) :   1.2409
B(  2-C ,  6-C ) :   1.0086 B(  3-C ,  4-C ) :   1.5939 B(  3-C ,  5-H ) :   0.9804
B(  4-C , 20-C ) :   1.0364 B(  6-C ,  7-H ) :   0.9414 B(  6-C ,  8-H ) :   0.9386
B(  6-C ,  9-C ) :   1.0587 B(  9-C , 10-H ) :   0.9514 B(  9-C , 11-H ) :   0.9601
B(  9-C , 12-C ) :   1.0852 B( 12-C , 13-H ) :   0.9733 B( 12-C , 14-H ) :   0.9745
B( 12-C , 15-H ) :   0.9725 B( 16-S , 17-C ) :   1.1734 B( 16-S , 20-C ) :   1.1519
B( 17-C , 18-C ) :   1.5798 B( 17-C , 20-C ) :   0.1006 B( 17-C , 33-H ) :   0.9618
B( 18-C , 19-C ) :   1.2574 B( 18-C , 21-H ) :   0.9937 B( 19-C , 20-C ) :   1.5776
B( 19-C , 22-C ) :   1.0292 B( 22-C , 23-H ) :   0.9367 B( 22-C , 24-H ) :   0.9377
B( 22-C , 25-C ) :   1.0773 B( 25-C , 26-H ) :   0.9541 B( 25-C , 27-H ) :   0.9528
B( 25-C , 28-C ) :   1.0757 B( 28-C , 29-H ) :   0.9750 B( 28-C , 30-H ) :   0.9745
B( 28-C , 31-H ) :   0.9762

Dispersion correction           -0.013475354
FINAL SINGLE POINT ENERGY     -1339.874762769127

DIPOLE MOMENT
-------------
                                X             Y             Z
Electronic contribution:    -18.06872      11.20619       6.96874
Nuclear contribution   :     18.49637     -11.39303      -7.20102
                        -----------------------------------------
Total Dipole Moment    :      0.42765      -0.18684      -0.23228
                        -----------------------------------------
Magnitude (a.u.)       :      0.52129
Magnitude (Debye)      :      1.32501

Rotational constants in cm-1:     0.016990     0.007558     0.006880
Rotational constants in MHz :   509.348575   226.585669   206.243632

                             ****ORCA TERMINATED NORMALLY****
TOTAL RUN TIME: 0 days 0 hours 0 minutes 31 seconds 910 msec
