                         Program Version 4.2.1 -  RELEASE  -
|  1> ! wB97X-D3 SP def2-SVP
|  2> %pal
|  3> nprocs 16
|  4> end
|  5>
|  6> * xyz 0 1
|  7> S 	 -11.995 	 57.7787 	 59.192
|  8> C 	 -11.208 	 56.2236 	 59.5236
|  9> C 	 -11.807 	 55.5531 	 60.5594
| 10> C 	 -12.9485 	 56.2128 	 61.0623
| 11> C 	 -13.253 	 57.4251 	 60.4011
| 12> H 	 -13.5923 	 55.7729 	 61.824
| 13> C 	 -11.3098 	 54.2213 	 60.9931
| 14> H 	 -11.1999 	 53.6405 	 60.0857
| 15> H 	 -12.0643 	 53.6817 	 61.5767
| 16> C 	 -9.98465 	 54.1254 	 61.8296
| 17> H 	 -9.73941 	 53.0819 	 61.9926
| 18> H 	 -9.19141 	 54.5171 	 61.2064
| 19> C 	 -9.94327 	 54.7898 	 63.1759
| 20> H 	 -10.488 	 55.716 	 63.037
| 21> H 	 -10.4863 	 54.2812 	 63.8987
| 22> H 	 -8.9429 	 54.9453 	 63.6422
| 23> S 	 -14.0749 	 59.7773 	 61.6429
| 24> C 	 -15.7738 	 60.184 	 61.7936
| 25> C 	 -16.5107 	 59.0751 	 61.3028
| 26> C 	 -15.7358 	 58.0371 	 60.7912
| 27> C 	 -14.386 	 58.2331 	 60.7648
| 28> H 	 -17.5573 	 59.1415 	 61.2562
| 29> C 	 -16.392 	 56.8147 	 60.2617
| 30> H 	 -16.9664 	 56.6005 	 61.1918
| 31> H 	 -15.6373 	 55.9585 	 60.1426
| 32> C 	 -17.2651 	 57.0608 	 58.9212
| 33> H 	 -17.8197 	 58.0672 	 58.9204
| 34> H 	 -17.9928 	 56.2938 	 58.9224
| 35> C 	 -16.4565 	 56.8851 	 57.6379
| 36> H 	 -16.4446 	 57.7486 	 56.9357
| 37> H 	 -16.7925 	 55.9392 	 57.2176
| 38> H 	 -15.392 	 56.6608 	 57.8905
| 39> H 	 -10.4908 	 55.7508 	 58.8254
| 40> H 	 -16.2344 	 60.9765 	 62.3264
| 41> *
| 42>
| 43>                          ****END OF INPUT****

CARTESIAN COORDINATES (ANGSTROEM)
---------------------------------
  S    -11.995000   57.778700   59.192000
  C    -11.208000   56.223600   59.523600
  C    -11.807000   55.553100   60.559400
  C    -12.948500   56.212800   61.062300
  C    -13.253000   57.425100   60.401100
  H    -13.592300   55.772900   61.824000
  C    -11.309800   54.221300   60.993100
  H    -11.199900   53.640500   60.085700
  H    -12.064300   53.681700   61.576700
  C     -9.984650   54.125400   61.829600
  H     -9.739410   53.081900   61.992600
  H     -9.191410   54.517100   61.206400
  C     -9.943270   54.789800   63.175900
  H    -10.488000   55.716000   63.037000
  H    -10.486300   54.281200   63.898700
  H     -8.942900   54.945300   63.642200
  S    -14.074900   59.777300   61.642900
  C    -15.773800   60.184000   61.793600
  C    -16.510700   59.075100   61.302800
  C    -15.735800   58.037100   60.791200
  C    -14.386000   58.233100   60.764800
  H    -17.557300   59.141500   61.256200
  C    -16.392000   56.814700   60.261700
  H    -16.966400   56.600500   61.191800
  H    -15.637300   55.958500   60.142600
  C    -17.265100   57.060800   58.921200
  H    -17.819700   58.067200   58.920400
  H    -17.992800   56.293800   58.922400
  C    -16.456500   56.885100   57.637900
  H    -16.444600   57.748600   56.935700
  H    -16.792500   55.939200   57.217600
  H    -15.392000   56.660800   57.890500
  H    -10.490800   55.750800   58.825400
  H    -16.234400   60.976500   62.326400

 Total Charge           Charge          ....    0
 Multiplicity           Mult            ....    1
 Number of Electrons    NEL             ....  134
 Basis Dimension        Dim             ....  322

ORBITAL ENERGIES
----------------

  NO   OCC          E(Eh)            E(eV)
   0   2.0000     -88.973099     -2421.0811
   1   2.0000     -88.959402     -2420.7084
   2   2.0000     -10.336803      -281.2787
   3   2.0000     -10.324051      -280.9317
   4   2.0000     -10.320369      -280.8315
   5   2.0000     -10.319372      -280.8044
   6   2.0000     -10.300495      -280.2907
   7   2.0000     -10.299770      -280.2710
   8   2.0000     -10.298371      -280.2329
   9   2.0000     -10.295627      -280.1582
  10   2.0000     -10.293844      -280.1097
  11   2.0000     -10.293333      -280.0958
  12   2.0000     -10.288168      -279.9553
  13   2.0000     -10.284608      -279.8584
  14   2.0000     -10.277440      -279.6634
  15   2.0000     -10.268529      -279.4209
  16   2.0000      -8.086557      -220.0464
  17   2.0000      -8.073468      -219.6902
  18   2.0000      -6.045099      -164.4955
  19   2.0000      -6.041167      -164.3885
  20   2.0000      -6.037415      -164.2864
  21   2.0000      -6.032015      -164.1395
  22   2.0000      -6.027946      -164.0288
  23   2.0000      -6.024327      -163.9303
  24   2.0000      -1.003469       -27.3058
  25   2.0000      -0.983040       -26.7499
  26   2.0000      -0.912362       -24.8266
  27   2.0000      -0.900093       -24.4928
  28   2.0000      -0.870930       -23.6992
  29   2.0000      -0.853380       -23.2217
  30   2.0000      -0.848206       -23.0809
  31   2.0000      -0.812746       -22.1159
  32   2.0000      -0.781815       -21.2743
  33   2.0000      -0.766859       -20.8673
  34   2.0000      -0.708868       -19.2893
  35   2.0000      -0.703048       -19.1309
  36   2.0000      -0.696227       -18.9453
  37   2.0000      -0.664620       -18.0852
  38   2.0000      -0.638908       -17.3856
  39   2.0000      -0.613734       -16.7006
  40   2.0000      -0.588005       -16.0004
  41   2.0000      -0.576538       -15.6884
  42   2.0000      -0.555423       -15.1138
  43   2.0000      -0.550802       -14.9881
  44   2.0000      -0.546131       -14.8610
  45   2.0000      -0.535615       -14.5748
  46   2.0000      -0.519106       -14.1256
  47   2.0000      -0.513021       -13.9600
  48   2.0000      -0.503480       -13.7004
  49   2.0000      -0.494607       -13.4589
  50   2.0000      -0.483003       -13.1432
  51   2.0000      -0.478161       -13.0114
  52   2.0000      -0.473948       -12.8968
  53   2.0000      -0.465575       -12.6689
  54   2.0000      -0.458882       -12.4868
  55   2.0000      -0.447815       -12.1857
  56   2.0000      -0.439314       -11.9544
  57   2.0000      -0.435542       -11.8517
  58   2.0000      -0.428343       -11.6558
  59   2.0000      -0.423312       -11.5189
  60   2.0000      -0.419753       -11.4220
  61   2.0000      -0.415953       -11.3186
  62   2.0000      -0.401094       -10.9143
  63   2.0000      -0.339371        -9.2348
  64   2.0000      -0.334235        -9.0950
  65   2.0000      -0.324760        -8.8372
  66   2.0000      -0.295668        -8.0455
  67   0.0000       0.027849         0.7578
  68   0.0000       0.052182         1.4200
  69   0.0000       0.113284         3.0826
  70   0.0000       0.118654         3.2287
  71   0.0000       0.126197         3.4340

MULLIKEN ATOMIC CHARGES
-----------------------
   0 S :    0.125148
   1 C :   -0.139063
   2 C :   -0.080327
   3 C :    0.048122
   4 C :   -0.180901
   5 H :    0.021846
   6 C :    0.048802
   7 H :    0.030941
   8 H :    0.015283
   9 C :   -0.052717
  10 H :    0.023437
  11 H :    0.020145
  12 C :   -0.028259
  13 H :    0.029357
  14 H :    0.005095
  15 H :    0.044128
  16 S :    0.083874
  17 C :   -0.073781
  18 C :   -0.046557
  19 C :   -0.001516
  20 C :   -0.152027
  21 H :    0.001776
  22 C :   -0.006290
  23 H :    0.039962
  24 H :    0.041477
  25 C :   -0.064096
  26 H :    0.047659
  27 H :    0.022787
  28 C :   -0.061057
  29 H :    0.053937
  30 H :    0.029823
  31 H :    0.033171
  32 H :    0.067195
  33 H :    0.052625
Sum of atomic charges:   -0.0000000

LOEWDIN ATOMIC CHARGES
----------------------
   0 S :    0.397739
   1 C :   -0.189308
   2 C :   -0.074334
   3 C :   -0.051926
   4 C :   -0.193490
   5 H :    0.034228
   6 C :   -0.032375
   7 H :    0.035813
   8 H :    0.027545
   9 C :   -0.036286
  10 H :    0.022213
  11 H :    0.019933
  12 C :   -0.066171
  13 H :    0.028108
  14 H :    0.012992
  15 H :    0.035252
  16 S :    0.381605
  17 C :   -0.173670
  18 C :   -0.071695
  19 C :   -0.066119
  20 C :   -0.189515
  21 H :    0.021448
  22 C :   -0.038816
  23 H :    0.038553
  24 H :    0.035465
  25 C :   -0.038510
  26 H :    0.034108
  27 H :    0.016264
  28 C :   -0.074417
  29 H :    0.033227
  30 H :    0.027756
  31 H :    0.030086
  32 H :    0.036933
  33 H :    0.027361

  Mayer bond orders larger than 0.100000
B(  0-S ,  1-C ) :   1.1392 B(  0-S ,  4-C ) :   1.1464 B(  1-C ,  2-C ) :   1.5935
B(  1-C ,  4-C ) :   0.1042 B(  1-C , 32-H ) :   0.9612 B(  2-C ,  3-C ) :   1.2653
B(  2-C ,  6-C ) :   1.0209 B(  3-C ,  4-C ) :   1.5320 B(  3-C ,  5-H ) :   0.9910
B(  4-C , 20-C ) :   1.0599 B(  6-C ,  7-H ) :   0.9364 B(  6-C ,  8-H ) :   0.9435
B(  6-C ,  9-C ) :   1.0739 B(  9-C , 10-H ) :   0.9549 B(  9-C , 11-H ) :   0.9564
B(  9-C , 12-C ) :   1.0775 B( 12-C , 13-H ) :   0.9760 B( 12-C , 14-H ) :   0.9714
B( 12-C , 15-H ) :   0.9725 B( 16-S , 17-C ) :   1.1718 B( 16-S , 20-C ) :   1.1120
B( 17-C , 18-C ) :   1.5719 B( 17-C , 20-C ) :   0.1082 B( 17-C , 33-H ) :   0.9723
B( 18-C , 19-C ) :   1.2647 B( 18-C , 21-H ) :   0.9958 B( 19-C , 20-C ) :   1.5933
B( 19-C , 22-C ) :   1.0228 B( 22-C , 23-H ) :   0.9371 B( 22-C , 24-H ) :   0.9418
B( 22-C , 25-C ) :   1.0498 B( 25-C , 26-H ) :   0.9642 B( 25-C , 27-H ) :   0.9665
B( 25-C , 28-C ) :   1.0521 B( 28-C , 29-H ) :   0.9773 B( 28-C , 30-H ) :   0.9790
B( 28-C , 31-H ) :   0.9789

Dispersion correction           -0.014693406
FINAL SINGLE POINT ENERGY     -1339.859144591920

DIPOLE MOMENT
-------------
                                X             Y             Z
Electronic contribution:      2.02682      19.51440      -0.31939
Nuclear contribution   :     -2.33288     -20.20881       0.37854
                        -----------------------------------------
Total Dipole Moment    :     -0.30606      -0.69440       0.05915
                        -----------------------------------------
Magnitude (a.u.)       :      0.76116
Magnitude (Debye)      :      1.93473

Rotational constants in cm-1:     0.020101     0.008074     0.007149
Rotational constants in MHz :   602.601463   242.042139   214.325844

                             ****ORCA TERMINATED NORMALLY****
TOTAL RUN TIME: 0 days 0 hours 0 minutes 33 seconds 893 msec
