                         Program Version 4.2.1 -  RELEASE  -
|  1> ! wB97X-D3 SP def2-SVP
|  2> %pal
|  3> nprocs 16
|  4> end
|  5>
|  6> * xyz 0 1
|  7> S 	 25.2522 	 -12.2711 	 79.8778
|  8> C 	 26.0768 	 -12.6488 	 78.3235
|  9> C 	 25.1961 	 -13.1396 	 77.3629
| 10> C 	 23.819 	 -13.1965 	 77.7956
| 11> C 	 23.627 	 -12.716 	 79.1072
| 12> H 	 23.0387 	 -13.6861 	 77.1902
| 13> C 	 25.6134 	 -13.5513 	 75.9687
| 14> H 	 25.6187 	 -14.6263 	 76.1124
| 15> H 	 26.5257 	 -13.0604 	 75.5503
| 16> C 	 24.5073 	 -13.3203 	 74.9629
| 17> H 	 25.0031 	 -13.7197 	 74.0479
| 18> H 	 23.5127 	 -13.7723 	 75.042
| 19> C 	 24.2431 	 -11.8479 	 74.6995
| 20> H 	 23.5546 	 -11.5424 	 73.8872
| 21> H 	 23.707 	 -11.3892 	 75.5546
| 22> H 	 25.0971 	 -11.1972 	 74.4804
| 23> S 	 21.9729 	 -14.4415 	 80.5569
| 24> C 	 20.3797 	 -14 	 80.8255
| 25> C 	 20.2251 	 -12.6269 	 80.6082
| 26> C 	 21.3097 	 -11.9168 	 80.0875
| 27> C 	 22.3516 	 -12.8268 	 79.86
| 28> H 	 19.3023 	 -12.1645 	 80.8599
| 29> C 	 21.2273 	 -10.4028 	 79.75
| 30> H 	 20.2532 	 -10.0607 	 80.1759
| 31> H 	 21.0835 	 -10.1436 	 78.6315
| 32> C 	 22.3384 	 -9.57126 	 80.497
| 33> H 	 23.2549 	 -10.1302 	 80.3927
| 34> H 	 22.1238 	 -9.48843 	 81.5478
| 35> C 	 22.6368 	 -8.16717 	 79.8473
| 36> H 	 23.0717 	 -8.37843 	 78.8851
| 37> H 	 23.27 	 -7.51337 	 80.4144
| 38> H 	 21.6602 	 -7.68767 	 79.7039
| 39> H 	 27.0898 	 -12.548 	 78.1472
| 40> H 	 19.6667 	 -14.5763 	 81.3092
| 41> *
| 42>
| 43>                          ****END OF INPUT****

CARTESIAN COORDINATES (ANGSTROEM)
---------------------------------
  S     25.252200  -12.271100   79.877800
  C     26.076800  -12.648800   78.323500
  C     25.196100  -13.139600   77.362900
  C     23.819000  -13.196500   77.795600
  C     23.627000  -12.716000   79.107200
  H     23.038700  -13.686100   77.190200
  C     25.613400  -13.551300   75.968700
  H     25.618700  -14.626300   76.112400
  H     26.525700  -13.060400   75.550300
  C     24.507300  -13.320300   74.962900
  H     25.003100  -13.719700   74.047900
  H     23.512700  -13.772300   75.042000
  C     24.243100  -11.847900   74.699500
  H     23.554600  -11.542400   73.887200
  H     23.707000  -11.389200   75.554600
  H     25.097100  -11.197200   74.480400
  S     21.972900  -14.441500   80.556900
  C     20.379700  -14.000000   80.825500
  C     20.225100  -12.626900   80.608200
  C     21.309700  -11.916800   80.087500
  C     22.351600  -12.826800   79.860000
  H     19.302300  -12.164500   80.859900
  C     21.227300  -10.402800   79.750000
  H     20.253200  -10.060700   80.175900
  H     21.083500  -10.143600   78.631500
  C     22.338400   -9.571260   80.497000
  H     23.254900  -10.130200   80.392700
  H     22.123800   -9.488430   81.547800
  C     22.636800   -8.167170   79.847300
  H     23.071700   -8.378430   78.885100
  H     23.270000   -7.513370   80.414400
  H     21.660200   -7.687670   79.703900
  H     27.089800  -12.548000   78.147200
  H     19.666700  -14.576300   81.309200

 Total Charge           Charge          ....    0
 Multiplicity           Mult            ....    1
 Number of Electrons    NEL             ....  134
 Basis Dimension        Dim             ....  322

ORBITAL ENERGIES
----------------

  NO   OCC          E(Eh)            E(eV)
   0   2.0000     -88.967421     -2420.9266
   1   2.0000     -88.966734     -2420.9079
   2   2.0000     -10.340798      -281.3874
   3   2.0000     -10.330463      -281.1062
   4   2.0000     -10.312394      -280.6145
   5   2.0000     -10.308992      -280.5219
   6   2.0000     -10.307464      -280.4804
   7   2.0000     -10.307371      -280.4778
   8   2.0000     -10.303854      -280.3821
   9   2.0000     -10.302344      -280.3410
  10   2.0000     -10.298267      -280.2301
  11   2.0000     -10.290686      -280.0238
  12   2.0000     -10.286425      -279.9079
  13   2.0000     -10.282357      -279.7972
  14   2.0000     -10.275558      -279.6121
  15   2.0000     -10.273578      -279.5583
  16   2.0000      -8.082041      -219.9235
  17   2.0000      -8.079185      -219.8458
  18   2.0000      -6.040213      -164.3625
  19   2.0000      -6.037948      -164.3009
  20   2.0000      -6.036440      -164.2599
  21   2.0000      -6.034196      -164.1988
  22   2.0000      -6.033138      -164.1700
  23   2.0000      -6.029776      -164.0785
  24   2.0000      -1.000841       -27.2343
  25   2.0000      -0.973162       -26.4811
  26   2.0000      -0.915564       -24.9138
  27   2.0000      -0.898650       -24.4535
  28   2.0000      -0.861323       -23.4378
  29   2.0000      -0.851053       -23.1583
  30   2.0000      -0.837950       -22.8018
  31   2.0000      -0.807582       -21.9754
  32   2.0000      -0.781447       -21.2642
  33   2.0000      -0.772275       -21.0147
  34   2.0000      -0.708688       -19.2844
  35   2.0000      -0.693797       -18.8792
  36   2.0000      -0.690913       -18.8007
  37   2.0000      -0.661632       -18.0039
  38   2.0000      -0.631928       -17.1956
  39   2.0000      -0.623175       -16.9574
  40   2.0000      -0.597669       -16.2634
  41   2.0000      -0.569651       -15.5010
  42   2.0000      -0.559775       -15.2323
  43   2.0000      -0.556777       -15.1507
  44   2.0000      -0.526529       -14.3276
  45   2.0000      -0.519970       -14.1491
  46   2.0000      -0.518051       -14.0969
  47   2.0000      -0.509445       -13.8627
  48   2.0000      -0.506175       -13.7737
  49   2.0000      -0.495403       -13.4806
  50   2.0000      -0.484962       -13.1965
  51   2.0000      -0.475326       -12.9343
  52   2.0000      -0.469634       -12.7794
  53   2.0000      -0.463843       -12.6218
  54   2.0000      -0.456989       -12.4353
  55   2.0000      -0.441592       -12.0163
  56   2.0000      -0.439628       -11.9629
  57   2.0000      -0.435210       -11.8427
  58   2.0000      -0.431945       -11.7538
  59   2.0000      -0.429186       -11.6787
  60   2.0000      -0.424044       -11.5388
  61   2.0000      -0.410188       -11.1618
  62   2.0000      -0.399971       -10.8838
  63   2.0000      -0.338922        -9.2225
  64   2.0000      -0.329448        -8.9647
  65   2.0000      -0.312438        -8.5019
  66   2.0000      -0.306767        -8.3475
  67   0.0000       0.036309         0.9880
  68   0.0000       0.043356         1.1798
  69   0.0000       0.105768         2.8781
  70   0.0000       0.116178         3.1614
  71   0.0000       0.128343         3.4924

MULLIKEN ATOMIC CHARGES
-----------------------
   0 S :    0.088147
   1 C :   -0.096919
   2 C :   -0.121366
   3 C :    0.042285
   4 C :   -0.144578
   5 H :    0.032065
   6 C :    0.103843
   7 H :    0.047265
   8 H :    0.046913
   9 C :   -0.100854
  10 H :    0.032095
  11 H :    0.043352
  12 C :   -0.081056
  13 H :    0.029054
  14 H :    0.033002
  15 H :    0.024565
  16 S :    0.132612
  17 C :   -0.056701
  18 C :   -0.057870
  19 C :    0.034946
  20 C :   -0.232138
  21 H :   -0.002576
  22 C :    0.039087
  23 H :    0.017286
  24 H :    0.061412
  25 C :   -0.079695
  26 H :    0.027948
  27 H :    0.033105
  28 C :   -0.043366
  29 H :    0.035138
  30 H :    0.036741
  31 H :    0.025786
  32 H :    0.016176
  33 H :    0.034296
Sum of atomic charges:   -0.0000000

LOEWDIN ATOMIC CHARGES
----------------------
   0 S :    0.346993
   1 C :   -0.174450
   2 C :   -0.063121
   3 C :   -0.052588
   4 C :   -0.169917
   5 H :    0.038939
   6 C :   -0.029344
   7 H :    0.043016
   8 H :    0.041998
   9 C :   -0.051850
  10 H :    0.030867
  11 H :    0.028437
  12 C :   -0.082660
  13 H :    0.027892
  14 H :    0.027190
  15 H :    0.022815
  16 S :    0.434073
  17 C :   -0.201078
  18 C :   -0.074174
  19 C :   -0.049312
  20 C :   -0.193379
  21 H :    0.020831
  22 C :   -0.033714
  23 H :    0.030594
  24 H :    0.044587
  25 C :   -0.036890
  26 H :    0.012516
  27 H :    0.021747
  28 C :   -0.060306
  29 H :    0.025226
  30 H :    0.023138
  31 H :    0.022310
  32 H :    0.012237
  33 H :    0.017380

  Mayer bond orders larger than 0.100000
B(  0-S ,  1-C ) :   1.1158 B(  0-S ,  4-C ) :   1.1160 B(  1-C ,  2-C ) :   1.6461
B(  1-C , 32-H ) :   0.9778 B(  2-C ,  3-C ) :   1.2191 B(  2-C ,  6-C ) :   1.0028
B(  3-C ,  4-C ) :   1.6023 B(  3-C ,  5-H ) :   0.9784 B(  4-C , 20-C ) :   1.0223
B(  6-C ,  7-H ) :   0.9229 B(  6-C ,  8-H ) :   0.9504 B(  6-C ,  9-C ) :   1.0808
B(  9-C , 10-H ) :   0.9535 B(  9-C , 11-H ) :   0.9481 B(  9-C , 12-C ) :   1.0731
B( 12-C , 13-H ) :   0.9745 B( 12-C , 14-H ) :   0.9695 B( 12-C , 15-H ) :   0.9744
B( 16-S , 17-C ) :   1.1841 B( 16-S , 20-C ) :   1.1705 B( 17-C , 18-C ) :   1.5593
B( 17-C , 20-C ) :   0.1085 B( 17-C , 33-H ) :   0.9747 B( 18-C , 19-C ) :   1.3025
B( 18-C , 21-H ) :   0.9879 B( 19-C , 20-C ) :   1.5354 B( 19-C , 22-C ) :   1.0204
B( 22-C , 23-H ) :   0.9334 B( 22-C , 24-H ) :   0.9460 B( 22-C , 25-C ) :   1.0376
B( 25-C , 26-H ) :   0.9669 B( 25-C , 27-H ) :   0.9575 B( 25-C , 28-C ) :   1.0721
B( 28-C , 29-H ) :   0.9798 B( 28-C , 30-H ) :   0.9765 B( 28-C , 31-H ) :   0.9777

Dispersion correction           -0.014575444
FINAL SINGLE POINT ENERGY     -1339.853697890253

DIPOLE MOMENT
-------------
                                X             Y             Z
Electronic contribution:      1.27480     -16.42205      17.22594
Nuclear contribution   :     -1.46070      16.46136     -17.69487
                        -----------------------------------------
Total Dipole Moment    :     -0.18590       0.03931      -0.46893
                        -----------------------------------------
Magnitude (a.u.)       :      0.50597
Magnitude (Debye)      :      1.28607

Rotational constants in cm-1:     0.016388     0.009273     0.007933
Rotational constants in MHz :   491.295593   278.006508   237.827999

                             ****ORCA TERMINATED NORMALLY****
TOTAL RUN TIME: 0 days 0 hours 0 minutes 28 seconds 859 msec
