                         Program Version 4.2.1 -  RELEASE  -
|  1> ! wB97X-D3 SP def2-SVP
|  2> %pal
|  3> nprocs 16
|  4> end
|  5>
|  6> * xyz 0 1
|  7> S 	 -2.63794 	 -10.6427 	 86.4294
|  8> C 	 -2.06629 	 -12.2513 	 86.3166
|  9> C 	 -3.16206 	 -13.0992 	 86.1285
| 10> C 	 -4.32391 	 -12.4417 	 85.6769
| 11> C 	 -4.20121 	 -11.0483 	 85.808
| 12> H 	 -5.28361 	 -12.9097 	 85.4202
| 13> C 	 -3.07568 	 -14.6592 	 86.2272
| 14> H 	 -2.32721 	 -14.8683 	 85.4983
| 15> H 	 -4.00384 	 -15.0834 	 85.9579
| 16> C 	 -2.6335 	 -15.1241 	 87.594
| 17> H 	 -1.58773 	 -15.1986 	 87.6307
| 18> H 	 -3.0738 	 -14.5073 	 88.3851
| 19> C 	 -3.15874 	 -16.6318 	 87.8983
| 20> H 	 -2.86898 	 -17.2496 	 87.0241
| 21> H 	 -2.81279 	 -17.0952 	 88.8189
| 22> H 	 -4.25832 	 -16.5888 	 87.907
| 23> S 	 -4.26528 	 -8.76422 	 84.1068
| 24> C 	 -5.77813 	 -8.03906 	 83.7989
| 25> C 	 -6.79974 	 -8.66954 	 84.5367
| 26> C 	 -6.39575 	 -9.8607 	 85.2338
| 27> C 	 -5.00339 	 -10.0168 	 85.1534
| 28> H 	 -7.80521 	 -8.34844 	 84.3879
| 29> C 	 -7.34023 	 -10.7467 	 85.9601
| 30> H 	 -8.07913 	 -10.2361 	 86.5564
| 31> H 	 -6.86937 	 -11.2683 	 86.7763
| 32> C 	 -7.99291 	 -11.8537 	 85.1222
| 33> H 	 -7.15938 	 -12.3615 	 84.4732
| 34> H 	 -8.76335 	 -11.2772 	 84.5575
| 35> C 	 -8.63322 	 -12.9403 	 86.0274
| 36> H 	 -8.05267 	 -13.0364 	 86.9784
| 37> H 	 -8.50271 	 -14.0059 	 85.5583
| 38> H 	 -9.69588 	 -12.8422 	 86.2854
| 39> H 	 -1.11532 	 -12.6561 	 86.6705
| 40> H 	 -6.03586 	 -7.19608 	 83.1607
| 41> *
| 42>
| 43>                          ****END OF INPUT****

CARTESIAN COORDINATES (ANGSTROEM)
---------------------------------
  S     -2.637940  -10.642700   86.429400
  C     -2.066290  -12.251300   86.316600
  C     -3.162060  -13.099200   86.128500
  C     -4.323910  -12.441700   85.676900
  C     -4.201210  -11.048300   85.808000
  H     -5.283610  -12.909700   85.420200
  C     -3.075680  -14.659200   86.227200
  H     -2.327210  -14.868300   85.498300
  H     -4.003840  -15.083400   85.957900
  C     -2.633500  -15.124100   87.594000
  H     -1.587730  -15.198600   87.630700
  H     -3.073800  -14.507300   88.385100
  C     -3.158740  -16.631800   87.898300
  H     -2.868980  -17.249600   87.024100
  H     -2.812790  -17.095200   88.818900
  H     -4.258320  -16.588800   87.907000
  S     -4.265280   -8.764220   84.106800
  C     -5.778130   -8.039060   83.798900
  C     -6.799740   -8.669540   84.536700
  C     -6.395750   -9.860700   85.233800
  C     -5.003390  -10.016800   85.153400
  H     -7.805210   -8.348440   84.387900
  C     -7.340230  -10.746700   85.960100
  H     -8.079130  -10.236100   86.556400
  H     -6.869370  -11.268300   86.776300
  C     -7.992910  -11.853700   85.122200
  H     -7.159380  -12.361500   84.473200
  H     -8.763350  -11.277200   84.557500
  C     -8.633220  -12.940300   86.027400
  H     -8.052670  -13.036400   86.978400
  H     -8.502710  -14.005900   85.558300
  H     -9.695880  -12.842200   86.285400
  H     -1.115320  -12.656100   86.670500
  H     -6.035860   -7.196080   83.160700

 Total Charge           Charge          ....    0
 Multiplicity           Mult            ....    1
 Number of Electrons    NEL             ....  134
 Basis Dimension        Dim             ....  322

ORBITAL ENERGIES
----------------

  NO   OCC          E(Eh)            E(eV)
   0   2.0000     -88.970545     -2421.0116
   1   2.0000     -88.968034     -2420.9433
   2   2.0000     -10.330074      -281.0956
   3   2.0000     -10.328579      -281.0549
   4   2.0000     -10.317014      -280.7402
   5   2.0000     -10.311524      -280.5908
   6   2.0000     -10.303793      -280.3805
   7   2.0000     -10.301960      -280.3306
   8   2.0000     -10.301455      -280.3168
   9   2.0000     -10.296413      -280.1796
  10   2.0000     -10.293585      -280.1027
  11   2.0000     -10.291766      -280.0532
  12   2.0000     -10.287445      -279.9356
  13   2.0000     -10.287050      -279.9249
  14   2.0000     -10.285284      -279.8768
  15   2.0000     -10.285233      -279.8754
  16   2.0000      -8.084731      -219.9967
  17   2.0000      -8.083418      -219.9610
  18   2.0000      -6.043254      -164.4453
  19   2.0000      -6.041819      -164.4062
  20   2.0000      -6.039178      -164.3344
  21   2.0000      -6.037694      -164.2940
  22   2.0000      -6.035638      -164.2381
  23   2.0000      -6.034396      -164.2043
  24   2.0000      -1.008782       -27.4504
  25   2.0000      -0.984843       -26.7989
  26   2.0000      -0.913040       -24.8451
  27   2.0000      -0.909781       -24.7564
  28   2.0000      -0.864474       -23.5235
  29   2.0000      -0.850217       -23.1356
  30   2.0000      -0.844929       -22.9917
  31   2.0000      -0.808284       -21.9945
  32   2.0000      -0.782088       -21.2817
  33   2.0000      -0.769052       -20.9270
  34   2.0000      -0.705422       -19.1955
  35   2.0000      -0.699613       -19.0374
  36   2.0000      -0.692121       -18.8336
  37   2.0000      -0.659727       -17.9521
  38   2.0000      -0.637120       -17.3369
  39   2.0000      -0.617138       -16.7932
  40   2.0000      -0.599532       -16.3141
  41   2.0000      -0.575744       -15.6668
  42   2.0000      -0.568085       -15.4584
  43   2.0000      -0.565403       -15.3854
  44   2.0000      -0.523652       -14.2493
  45   2.0000      -0.519864       -14.1462
  46   2.0000      -0.513569       -13.9749
  47   2.0000      -0.509360       -13.8604
  48   2.0000      -0.507312       -13.8047
  49   2.0000      -0.501097       -13.6356
  50   2.0000      -0.489845       -13.3294
  51   2.0000      -0.481745       -13.1090
  52   2.0000      -0.472730       -12.8636
  53   2.0000      -0.466552       -12.6955
  54   2.0000      -0.455304       -12.3895
  55   2.0000      -0.448083       -12.1929
  56   2.0000      -0.444076       -12.0839
  57   2.0000      -0.436695       -11.8831
  58   2.0000      -0.432804       -11.7772
  59   2.0000      -0.427872       -11.6430
  60   2.0000      -0.423995       -11.5375
  61   2.0000      -0.413762       -11.2590
  62   2.0000      -0.407854       -11.0983
  63   2.0000      -0.348841        -9.4924
  64   2.0000      -0.333646        -9.0790
  65   2.0000      -0.326535        -8.8855
  66   2.0000      -0.285903        -7.7798
  67   0.0000       0.023107         0.6288
  68   0.0000       0.068644         1.8679
  69   0.0000       0.113118         3.0781
  70   0.0000       0.124758         3.3948
  71   0.0000       0.125292         3.4094

MULLIKEN ATOMIC CHARGES
-----------------------
   0 S :    0.124259
   1 C :   -0.117986
   2 C :   -0.141091
   3 C :    0.027223
   4 C :   -0.163908
   5 H :    0.009233
   6 C :    0.117516
   7 H :    0.035083
   8 H :    0.002318
   9 C :   -0.076994
  10 H :    0.025524
  11 H :    0.047172
  12 C :   -0.093872
  13 H :    0.034834
  14 H :    0.044272
  15 H :    0.034415
  16 S :    0.136774
  17 C :   -0.099674
  18 C :   -0.031205
  19 C :   -0.013560
  20 C :   -0.145576
  21 H :    0.006037
  22 C :    0.060257
  23 H :    0.020947
  24 H :    0.004158
  25 C :   -0.106031
  26 H :    0.061758
  27 H :    0.044040
  28 C :   -0.092999
  29 H :    0.033437
  30 H :    0.045790
  31 H :    0.050868
  32 H :    0.054576
  33 H :    0.062408
Sum of atomic charges:   -0.0000000

LOEWDIN ATOMIC CHARGES
----------------------
   0 S :    0.440774
   1 C :   -0.221517
   2 C :   -0.058538
   3 C :   -0.067805
   4 C :   -0.199784
   5 H :    0.032235
   6 C :   -0.022117
   7 H :    0.033857
   8 H :    0.019769
   9 C :   -0.033182
  10 H :    0.015446
  11 H :    0.027671
  12 C :   -0.069273
  13 H :    0.025246
  14 H :    0.023890
  15 H :    0.022638
  16 S :    0.419420
  17 C :   -0.206269
  18 C :   -0.070097
  19 C :   -0.049781
  20 C :   -0.192583
  21 H :    0.022947
  22 C :   -0.044739
  23 H :    0.031099
  24 H :    0.023310
  25 C :   -0.045714
  26 H :    0.036375
  27 H :    0.030629
  28 C :   -0.084015
  29 H :    0.026565
  30 H :    0.037965
  31 H :    0.027930
  32 H :    0.031373
  33 H :    0.036275

  Mayer bond orders larger than 0.100000
B(  0-S ,  1-C ) :   1.1595 B(  0-S ,  4-C ) :   1.1827 B(  1-C ,  2-C ) :   1.5510
B(  1-C ,  4-C ) :   0.1035 B(  1-C , 32-H ) :   0.9667 B(  2-C ,  3-C ) :   1.3095
B(  2-C ,  6-C ) :   1.0123 B(  3-C ,  4-C ) :   1.5052 B(  3-C ,  5-H ) :   0.9824
B(  4-C , 20-C ) :   1.0532 B(  6-C ,  7-H ) :   0.9353 B(  6-C ,  8-H ) :   0.9492
B(  6-C ,  9-C ) :   1.0576 B(  9-C , 10-H ) :   0.9549 B(  9-C , 11-H ) :   0.9687
B(  9-C , 12-C ) :   1.0731 B( 12-C , 13-H ) :   0.9764 B( 12-C , 14-H ) :   0.9791
B( 12-C , 15-H ) :   0.9806 B( 16-S , 17-C ) :   1.1669 B( 16-S , 20-C ) :   1.1384
B( 17-C , 18-C ) :   1.5909 B( 17-C , 33-H ) :   0.9651 B( 18-C , 19-C ) :   1.2628
B( 18-C , 21-H ) :   0.9897 B( 19-C , 20-C ) :   1.5626 B( 19-C , 22-C ) :   1.0632
B( 22-C , 23-H ) :   0.9326 B( 22-C , 24-H ) :   0.9212 B( 22-C , 25-C ) :   1.0452
B( 25-C , 26-H ) :   0.9549 B( 25-C , 27-H ) :   0.9580 B( 25-C , 28-C ) :   1.0580
B( 28-C , 29-H ) :   0.9738 B( 28-C , 30-H ) :   0.9784 B( 28-C , 31-H ) :   0.9764

Dispersion correction           -0.014187185
FINAL SINGLE POINT ENERGY     -1339.861138861348

DIPOLE MOMENT
-------------
                                X             Y             Z
Electronic contribution:     13.12786      28.09131      -8.64317
Nuclear contribution   :    -13.52644     -28.57100       8.75125
                        -----------------------------------------
Total Dipole Moment    :     -0.39858      -0.47969       0.10808
                        -----------------------------------------
Magnitude (a.u.)       :      0.63297
Magnitude (Debye)      :      1.60888

Rotational constants in cm-1:     0.019083     0.008656     0.006262
Rotational constants in MHz :   572.089004   259.513080   187.728257

                             ****ORCA TERMINATED NORMALLY****
TOTAL RUN TIME: 0 days 0 hours 0 minutes 32 seconds 344 msec
