                         Program Version 4.2.1 -  RELEASE  -
|  1> ! wB97X-D3 SP def2-SVP
|  2> %pal
|  3> nprocs 16
|  4> end
|  5>
|  6> * xyz 0 1
|  7> S 	 -4.52956 	 -15.5224 	 81.2219
|  8> C 	 -2.78656 	 -15.7358 	 80.8953
|  9> C 	 -1.95332 	 -15.739 	 82.0274
| 10> C 	 -2.73585 	 -15.2386 	 83.1126
| 11> C 	 -4.1029 	 -15.1942 	 82.8605
| 12> H 	 -2.42678 	 -15.057 	 84.1274
| 13> C 	 -0.515287 	 -16.081 	 82.086
| 14> H 	 -0.413822 	 -17.0102 	 81.4926
| 15> H 	 -0.403319 	 -16.4574 	 83.1456
| 16> C 	 0.467454 	 -14.9496 	 81.7753
| 17> H 	 0.368955 	 -14.7936 	 80.6696
| 18> H 	 -0.00485407 	 -14.1529 	 82.4095
| 19> C 	 1.89387 	 -15.2784 	 82.2349
| 20> H 	 1.91581 	 -15.7416 	 83.2427
| 21> H 	 2.48993 	 -15.7661 	 81.4639
| 22> H 	 2.38449 	 -14.3448 	 82.2732
| 23> S 	 -5.81123 	 -16.2532 	 84.7099
| 24> C 	 -6.60215 	 -15.1348 	 85.8246
| 25> C 	 -6.0051 	 -13.8888 	 85.8712
| 26> C 	 -5.19841 	 -13.7152 	 84.7444
| 27> C 	 -5.04009 	 -14.8807 	 83.9135
| 28> H 	 -6.256 	 -13.2154 	 86.6347
| 29> C 	 -4.75167 	 -12.3686 	 84.3689
| 30> H 	 -3.71145 	 -12.6081 	 83.9738
| 31> H 	 -4.55302 	 -11.8022 	 85.2949
| 32> C 	 -5.63147 	 -11.5921 	 83.3822
| 33> H 	 -6.70062 	 -11.484 	 83.7447
| 34> H 	 -5.69343 	 -12.0636 	 82.4046
| 35> C 	 -4.98641 	 -10.203 	 83.1278
| 36> H 	 -5.61826 	 -9.46336 	 82.7425
| 37> H 	 -4.02832 	 -10.2703 	 82.5364
| 38> H 	 -4.672 	 -9.79393 	 84.0279
| 39> H 	 -2.31708 	 -15.9663 	 79.95
| 40> H 	 -7.26685 	 -15.4006 	 86.611
| 41> *
| 42>
| 43>                          ****END OF INPUT****

CARTESIAN COORDINATES (ANGSTROEM)
---------------------------------
  S     -4.529560  -15.522400   81.221900
  C     -2.786560  -15.735800   80.895300
  C     -1.953320  -15.739000   82.027400
  C     -2.735850  -15.238600   83.112600
  C     -4.102900  -15.194200   82.860500
  H     -2.426780  -15.057000   84.127400
  C     -0.515287  -16.081000   82.086000
  H     -0.413822  -17.010200   81.492600
  H     -0.403319  -16.457400   83.145600
  C      0.467454  -14.949600   81.775300
  H      0.368955  -14.793600   80.669600
  H     -0.004854  -14.152900   82.409500
  C      1.893870  -15.278400   82.234900
  H      1.915810  -15.741600   83.242700
  H      2.489930  -15.766100   81.463900
  H      2.384490  -14.344800   82.273200
  S     -5.811230  -16.253200   84.709900
  C     -6.602150  -15.134800   85.824600
  C     -6.005100  -13.888800   85.871200
  C     -5.198410  -13.715200   84.744400
  C     -5.040090  -14.880700   83.913500
  H     -6.256000  -13.215400   86.634700
  C     -4.751670  -12.368600   84.368900
  H     -3.711450  -12.608100   83.973800
  H     -4.553020  -11.802200   85.294900
  C     -5.631470  -11.592100   83.382200
  H     -6.700620  -11.484000   83.744700
  H     -5.693430  -12.063600   82.404600
  C     -4.986410  -10.203000   83.127800
  H     -5.618260   -9.463360   82.742500
  H     -4.028320  -10.270300   82.536400
  H     -4.672000   -9.793930   84.027900
  H     -2.317080  -15.966300   79.950000
  H     -7.266850  -15.400600   86.611000

 Total Charge           Charge          ....    0
 Multiplicity           Mult            ....    1
 Number of Electrons    NEL             ....  134
 Basis Dimension        Dim             ....  322

ORBITAL ENERGIES
----------------

  NO   OCC          E(Eh)            E(eV)
   0   2.0000     -88.972794     -2421.0728
   1   2.0000     -88.964106     -2420.8364
   2   2.0000     -10.322827      -280.8984
   3   2.0000     -10.322285      -280.8836
   4   2.0000     -10.315226      -280.6916
   5   2.0000     -10.311990      -280.6035
   6   2.0000     -10.300729      -280.2971
   7   2.0000     -10.298407      -280.2339
   8   2.0000     -10.297867      -280.2192
   9   2.0000     -10.294150      -280.1181
  10   2.0000     -10.291643      -280.0498
  11   2.0000     -10.289048      -279.9792
  12   2.0000     -10.287704      -279.9427
  13   2.0000     -10.285486      -279.8823
  14   2.0000     -10.280758      -279.7537
  15   2.0000     -10.267057      -279.3808
  16   2.0000      -8.086866      -220.0548
  17   2.0000      -8.078295      -219.8216
  18   2.0000      -6.045256      -164.4998
  19   2.0000      -6.041650      -164.4016
  20   2.0000      -6.037609      -164.2917
  21   2.0000      -6.036659      -164.2658
  22   2.0000      -6.033002      -164.1663
  23   2.0000      -6.029126      -164.0609
  24   2.0000      -1.003371       -27.3031
  25   2.0000      -0.980297       -26.6752
  26   2.0000      -0.917419       -24.9642
  27   2.0000      -0.905353       -24.6359
  28   2.0000      -0.869143       -23.6506
  29   2.0000      -0.853262       -23.2184
  30   2.0000      -0.848406       -23.0863
  31   2.0000      -0.810996       -22.0683
  32   2.0000      -0.784890       -21.3579
  33   2.0000      -0.761675       -20.7262
  34   2.0000      -0.707767       -19.2593
  35   2.0000      -0.702391       -19.1130
  36   2.0000      -0.691944       -18.8288
  37   2.0000      -0.661262       -17.9939
  38   2.0000      -0.637983       -17.3604
  39   2.0000      -0.614986       -16.7346
  40   2.0000      -0.587475       -15.9860
  41   2.0000      -0.575054       -15.6480
  42   2.0000      -0.567576       -15.4445
  43   2.0000      -0.553373       -15.0581
  44   2.0000      -0.524424       -14.2703
  45   2.0000      -0.520316       -14.1585
  46   2.0000      -0.519631       -14.1399
  47   2.0000      -0.510112       -13.8808
  48   2.0000      -0.503565       -13.7027
  49   2.0000      -0.498512       -13.5652
  50   2.0000      -0.485627       -13.2146
  51   2.0000      -0.476628       -12.9697
  52   2.0000      -0.465014       -12.6537
  53   2.0000      -0.459682       -12.5086
  54   2.0000      -0.456991       -12.4354
  55   2.0000      -0.451126       -12.2758
  56   2.0000      -0.441811       -12.0223
  57   2.0000      -0.439947       -11.9716
  58   2.0000      -0.436511       -11.8781
  59   2.0000      -0.428633       -11.6637
  60   2.0000      -0.418067       -11.3762
  61   2.0000      -0.417512       -11.3611
  62   2.0000      -0.410506       -11.1704
  63   2.0000      -0.337392        -9.1809
  64   2.0000      -0.330888        -9.0039
  65   2.0000      -0.316773        -8.6198
  66   2.0000      -0.292755        -7.9663
  67   0.0000       0.033719         0.9175
  68   0.0000       0.053518         1.4563
  69   0.0000       0.105809         2.8792
  70   0.0000       0.108655         2.9566
  71   0.0000       0.124874         3.3980

MULLIKEN ATOMIC CHARGES
-----------------------
   0 S :    0.138843
   1 C :   -0.105836
   2 C :   -0.107654
   3 C :    0.045953
   4 C :   -0.192575
   5 H :    0.007846
   6 C :    0.029480
   7 H :    0.032261
   8 H :    0.026540
   9 C :   -0.080372
  10 H :    0.043462
  11 H :    0.039550
  12 C :   -0.011725
  13 H :    0.044220
  14 H :    0.035148
  15 H :    0.021697
  16 S :    0.107677
  17 C :   -0.070124
  18 C :   -0.025351
  19 C :   -0.042477
  20 C :   -0.155174
  21 H :    0.003552
  22 C :    0.033877
  23 H :    0.026083
  24 H :    0.018477
  25 C :   -0.047444
  26 H :    0.037923
  27 H :    0.034272
  28 C :   -0.010327
  29 H :    0.020191
  30 H :    0.035791
  31 H :   -0.004999
  32 H :    0.031922
  33 H :    0.039293
Sum of atomic charges:    0.0000000

LOEWDIN ATOMIC CHARGES
----------------------
   0 S :    0.413692
   1 C :   -0.188402
   2 C :   -0.061527
   3 C :   -0.054030
   4 C :   -0.220391
   5 H :    0.027795
   6 C :   -0.047545
   7 H :    0.031923
   8 H :    0.035409
   9 C :   -0.040081
  10 H :    0.033488
  11 H :    0.033612
  12 C :   -0.067815
  13 H :    0.033087
  14 H :    0.030181
  15 H :    0.024081
  16 S :    0.400541
  17 C :   -0.170365
  18 C :   -0.064647
  19 C :   -0.055660
  20 C :   -0.207478
  21 H :    0.027199
  22 C :   -0.044931
  23 H :    0.038095
  24 H :    0.029527
  25 C :   -0.034332
  26 H :    0.031330
  27 H :    0.026488
  28 C :   -0.062762
  29 H :    0.017738
  30 H :    0.034150
  31 H :    0.011340
  32 H :    0.021005
  33 H :    0.019284

  Mayer bond orders larger than 0.100000
B(  0-S ,  1-C ) :   1.1384 B(  0-S ,  4-C ) :   1.1418 B(  1-C ,  2-C ) :   1.6147
B(  1-C , 32-H ) :   0.9640 B(  2-C ,  3-C ) :   1.2291 B(  2-C ,  6-C ) :   1.0268
B(  3-C ,  4-C ) :   1.5880 B(  3-C ,  5-H ) :   0.9874 B(  4-C , 20-C ) :   1.0376
B(  6-C ,  7-H ) :   0.9310 B(  6-C ,  8-H ) :   0.9370 B(  6-C ,  9-C ) :   1.0483
B(  9-C , 10-H ) :   0.9526 B(  9-C , 11-H ) :   0.9574 B(  9-C , 12-C ) :   1.0824
B( 12-C , 13-H ) :   0.9723 B( 12-C , 14-H ) :   0.9713 B( 12-C , 15-H ) :   0.9710
B( 16-S , 17-C ) :   1.1693 B( 16-S , 20-C ) :   1.1447 B( 17-C , 18-C ) :   1.5916
B( 17-C , 20-C ) :   0.1113 B( 17-C , 33-H ) :   0.9656 B( 18-C , 19-C ) :   1.2668
B( 18-C , 21-H ) :   1.0020 B( 19-C , 20-C ) :   1.5419 B( 19-C , 22-C ) :   1.0595
B( 22-C , 23-H ) :   0.9202 B( 22-C , 24-H ) :   0.9327 B( 22-C , 25-C ) :   1.0643
B( 25-C , 26-H ) :   0.9554 B( 25-C , 27-H ) :   0.9542 B( 25-C , 28-C ) :   1.0759
B( 28-C , 29-H ) :   0.9736 B( 28-C , 30-H ) :   0.9743 B( 28-C , 31-H ) :   0.9718

Dispersion correction           -0.014121981
FINAL SINGLE POINT ENERGY     -1339.847034988287

DIPOLE MOMENT
-------------
                                X             Y             Z
Electronic contribution:    -19.86763     -16.91383       1.09628
Nuclear contribution   :     20.45370      17.22513      -0.87182
                        -----------------------------------------
Total Dipole Moment    :      0.58607       0.31130       0.22446
                        -----------------------------------------
Magnitude (a.u.)       :      0.70054
Magnitude (Debye)      :      1.78064

Rotational constants in cm-1:     0.017561     0.007985     0.006938
Rotational constants in MHz :   526.474061   239.378059   207.989075

                             ****ORCA TERMINATED NORMALLY****
TOTAL RUN TIME: 0 days 0 hours 0 minutes 26 seconds 293 msec
