                         Program Version 4.2.1 -  RELEASE  -
|  1> ! wB97X-D3 SP def2-SVP
|  2> %pal
|  3> nprocs 16
|  4> end
|  5>
|  6> * xyz 0 1
|  7> S 	 -54.3528 	 29.9234 	 97.5989
|  8> C 	 -53.4504 	 28.5492 	 96.8582
|  9> C 	 -52.69 	 28.9653 	 95.7766
| 10> C 	 -52.8095 	 30.3953 	 95.5494
| 11> C 	 -53.5755 	 31.0827 	 96.4843
| 12> H 	 -52.3277 	 31.0333 	 94.8338
| 13> C 	 -51.8931 	 27.9873 	 94.918
| 14> H 	 -52.4488 	 27.8026 	 93.9566
| 15> H 	 -51.8543 	 26.9955 	 95.369
| 16> C 	 -50.3338 	 28.1939 	 94.6664
| 17> H 	 -50.2387 	 29.2715 	 94.6539
| 18> H 	 -49.8056 	 27.8427 	 95.5343
| 19> C 	 -49.6729 	 27.6383 	 93.4341
| 20> H 	 -48.623 	 28.0009 	 93.2047
| 21> H 	 -49.7686 	 26.5466 	 93.4272
| 22> H 	 -50.1924 	 28.0657 	 92.5547
| 23> S 	 -55.4449 	 33.0626 	 96.2812
| 24> C 	 -54.9117 	 34.7021 	 96.0546
| 25> C 	 -53.5263 	 34.8018 	 96.0809
| 26> C 	 -52.869 	 33.5631 	 96.2835
| 27> C 	 -53.792 	 32.5228 	 96.5007
| 28> H 	 -53.0812 	 35.7134 	 95.9594
| 29> C 	 -51.3522 	 33.4568 	 96.2985
| 30> H 	 -51.0094 	 33.981 	 95.411
| 31> H 	 -51.1419 	 32.4037 	 96.0981
| 32> C 	 -50.7345 	 33.9249 	 97.6081
| 33> H 	 -51.4101 	 33.4866 	 98.3564
| 34> H 	 -50.7673 	 35.0423 	 97.8195
| 35> C 	 -49.2681 	 33.4937 	 97.8322
| 36> H 	 -48.8949 	 33.7855 	 98.8192
| 37> H 	 -48.6009 	 33.8302 	 97.0733
| 38> H 	 -49.2473 	 32.3539 	 97.8348
| 39> H 	 -53.5676 	 27.6205 	 97.2601
| 40> H 	 -55.4672 	 35.6177 	 96.1284
| 41> *
| 42>
| 43>                          ****END OF INPUT****

CARTESIAN COORDINATES (ANGSTROEM)
---------------------------------
  S    -54.352800   29.923400   97.598900
  C    -53.450400   28.549200   96.858200
  C    -52.690000   28.965300   95.776600
  C    -52.809500   30.395300   95.549400
  C    -53.575500   31.082700   96.484300
  H    -52.327700   31.033300   94.833800
  C    -51.893100   27.987300   94.918000
  H    -52.448800   27.802600   93.956600
  H    -51.854300   26.995500   95.369000
  C    -50.333800   28.193900   94.666400
  H    -50.238700   29.271500   94.653900
  H    -49.805600   27.842700   95.534300
  C    -49.672900   27.638300   93.434100
  H    -48.623000   28.000900   93.204700
  H    -49.768600   26.546600   93.427200
  H    -50.192400   28.065700   92.554700
  S    -55.444900   33.062600   96.281200
  C    -54.911700   34.702100   96.054600
  C    -53.526300   34.801800   96.080900
  C    -52.869000   33.563100   96.283500
  C    -53.792000   32.522800   96.500700
  H    -53.081200   35.713400   95.959400
  C    -51.352200   33.456800   96.298500
  H    -51.009400   33.981000   95.411000
  H    -51.141900   32.403700   96.098100
  C    -50.734500   33.924900   97.608100
  H    -51.410100   33.486600   98.356400
  H    -50.767300   35.042300   97.819500
  C    -49.268100   33.493700   97.832200
  H    -48.894900   33.785500   98.819200
  H    -48.600900   33.830200   97.073300
  H    -49.247300   32.353900   97.834800
  H    -53.567600   27.620500   97.260100
  H    -55.467200   35.617700   96.128400

 Total Charge           Charge          ....    0
 Multiplicity           Mult            ....    1
 Number of Electrons    NEL             ....  134
 Basis Dimension        Dim             ....  322

ORBITAL ENERGIES
----------------

  NO   OCC          E(Eh)            E(eV)
   0   2.0000     -88.968922     -2420.9675
   1   2.0000     -88.965075     -2420.8628
   2   2.0000     -10.333759      -281.1959
   3   2.0000     -10.328526      -281.0535
   4   2.0000     -10.317255      -280.7468
   5   2.0000     -10.315702      -280.7045
   6   2.0000     -10.313863      -280.6545
   7   2.0000     -10.305528      -280.4277
   8   2.0000     -10.301145      -280.3084
   9   2.0000     -10.298819      -280.2451
  10   2.0000     -10.292019      -280.0601
  11   2.0000     -10.291707      -280.0516
  12   2.0000     -10.286973      -279.9228
  13   2.0000     -10.286707      -279.9155
  14   2.0000     -10.286596      -279.9125
  15   2.0000     -10.281321      -279.7690
  16   2.0000      -8.083595      -219.9658
  17   2.0000      -8.078705      -219.8327
  18   2.0000      -6.042114      -164.4143
  19   2.0000      -6.038061      -164.3040
  20   2.0000      -6.037342      -164.2844
  21   2.0000      -6.034393      -164.2042
  22   2.0000      -6.033385      -164.1768
  23   2.0000      -6.029396      -164.0682
  24   2.0000      -1.003822       -27.3154
  25   2.0000      -0.977791       -26.6071
  26   2.0000      -0.909510       -24.7490
  27   2.0000      -0.904857       -24.6224
  28   2.0000      -0.872400       -23.7392
  29   2.0000      -0.851423       -23.1684
  30   2.0000      -0.844596       -22.9826
  31   2.0000      -0.816582       -22.2203
  32   2.0000      -0.783309       -21.3149
  33   2.0000      -0.771247       -20.9867
  34   2.0000      -0.707769       -19.2594
  35   2.0000      -0.696487       -18.9524
  36   2.0000      -0.695492       -18.9253
  37   2.0000      -0.664973       -18.0948
  38   2.0000      -0.651673       -17.7329
  39   2.0000      -0.618900       -16.8411
  40   2.0000      -0.592955       -16.1351
  41   2.0000      -0.570294       -15.5185
  42   2.0000      -0.560822       -15.2607
  43   2.0000      -0.558803       -15.2058
  44   2.0000      -0.532128       -14.4799
  45   2.0000      -0.525890       -14.3102
  46   2.0000      -0.515018       -14.0144
  47   2.0000      -0.511623       -13.9220
  48   2.0000      -0.506816       -13.7912
  49   2.0000      -0.501364       -13.6428
  50   2.0000      -0.496225       -13.5030
  51   2.0000      -0.485710       -13.2168
  52   2.0000      -0.473509       -12.8848
  53   2.0000      -0.466368       -12.6905
  54   2.0000      -0.455567       -12.3966
  55   2.0000      -0.449835       -12.2406
  56   2.0000      -0.444001       -12.0819
  57   2.0000      -0.437913       -11.9162
  58   2.0000      -0.426869       -11.6157
  59   2.0000      -0.423644       -11.5279
  60   2.0000      -0.420339       -11.4380
  61   2.0000      -0.412261       -11.2182
  62   2.0000      -0.407041       -11.0761
  63   2.0000      -0.345502        -9.4016
  64   2.0000      -0.333146        -9.0654
  65   2.0000      -0.330584        -8.9956
  66   2.0000      -0.295106        -8.0302
  67   0.0000       0.025262         0.6874
  68   0.0000       0.066817         1.8182
  69   0.0000       0.110219         2.9992
  70   0.0000       0.117767         3.2046
  71   0.0000       0.125028         3.4022

MULLIKEN ATOMIC CHARGES
-----------------------
   0 S :    0.084264
   1 C :   -0.091385
   2 C :   -0.047683
   3 C :    0.043770
   4 C :   -0.172836
   5 H :    0.015103
   6 C :    0.035741
   7 H :    0.049649
   8 H :    0.017937
   9 C :   -0.072733
  10 H :    0.017900
  11 H :    0.030255
  12 C :   -0.067708
  13 H :    0.049070
  14 H :    0.040608
  15 H :    0.025864
  16 S :    0.117423
  17 C :   -0.073918
  18 C :   -0.015853
  19 C :   -0.082744
  20 C :   -0.142236
  21 H :   -0.018514
  22 C :    0.119761
  23 H :    0.023667
  24 H :    0.005130
  25 C :   -0.096363
  26 H :    0.039095
  27 H :    0.038520
  28 C :   -0.048525
  29 H :    0.037147
  30 H :    0.031779
  31 H :    0.036140
  32 H :    0.017729
  33 H :    0.053946
Sum of atomic charges:    0.0000000

LOEWDIN ATOMIC CHARGES
----------------------
   0 S :    0.361458
   1 C :   -0.153057
   2 C :   -0.057720
   3 C :   -0.059770
   4 C :   -0.183485
   5 H :    0.028542
   6 C :   -0.038053
   7 H :    0.038841
   8 H :    0.029604
   9 C :   -0.045226
  10 H :    0.018012
  11 H :    0.021460
  12 C :   -0.073339
  13 H :    0.038851
  14 H :    0.025089
  15 H :    0.026913
  16 S :    0.419865
  17 C :   -0.188197
  18 C :   -0.057854
  19 C :   -0.049657
  20 C :   -0.205719
  21 H :    0.015832
  22 C :   -0.032101
  23 H :    0.029350
  24 H :    0.028651
  25 C :   -0.046983
  26 H :    0.030391
  27 H :    0.029164
  28 C :   -0.067049
  29 H :    0.027488
  30 H :    0.019490
  31 H :    0.031616
  32 H :    0.007411
  33 H :    0.030184

  Mayer bond orders larger than 0.100000
B(  0-S ,  1-C ) :   1.1250 B(  0-S ,  4-C ) :   1.1312 B(  1-C ,  2-C ) :   1.6201
B(  1-C , 32-H ) :   0.9871 B(  2-C ,  3-C ) :   1.1933 B(  2-C ,  6-C ) :   1.0334
B(  3-C ,  4-C ) :   1.6057 B(  3-C ,  5-H ) :   0.9875 B(  4-C , 20-C ) :   1.0276
B(  6-C ,  7-H ) :   0.9436 B(  6-C ,  8-H ) :   0.9456 B(  6-C ,  9-C ) :   1.0302
B(  9-C , 10-H ) :   0.9640 B(  9-C , 11-H ) :   0.9601 B(  9-C , 12-C ) :   1.0863
B( 12-C , 13-H ) :   0.9703 B( 12-C , 14-H ) :   0.9767 B( 12-C , 15-H ) :   0.9721
B( 16-S , 17-C ) :   1.1604 B( 16-S , 20-C ) :   1.1534 B( 17-C , 18-C ) :   1.6001
B( 17-C , 20-C ) :   0.1032 B( 17-C , 33-H ) :   0.9627 B( 18-C , 19-C ) :   1.2586
B( 18-C , 21-H ) :   1.0044 B( 19-C , 20-C ) :   1.5655 B( 19-C , 22-C ) :   1.0435
B( 22-C , 23-H ) :   0.9239 B( 22-C , 24-H ) :   0.9251 B( 22-C , 25-C ) :   1.0547
B( 25-C , 26-H ) :   0.9555 B( 25-C , 27-H ) :   0.9547 B( 25-C , 28-C ) :   1.0851
B( 28-C , 29-H ) :   0.9750 B( 28-C , 30-H ) :   0.9756 B( 28-C , 31-H ) :   0.9749

Dispersion correction           -0.013742471
FINAL SINGLE POINT ENERGY     -1339.870383387486

DIPOLE MOMENT
-------------
                                X             Y             Z
Electronic contribution:    -29.62803       5.27605       7.32995
Nuclear contribution   :     30.26220      -5.19966      -7.60963
                        -----------------------------------------
Total Dipole Moment    :      0.63418       0.07638      -0.27967
                        -----------------------------------------
Magnitude (a.u.)       :      0.69730
Magnitude (Debye)      :      1.77240

Rotational constants in cm-1:     0.016125     0.008697     0.006734
Rotational constants in MHz :   483.412388   260.728174   201.893657

                             ****ORCA TERMINATED NORMALLY****
TOTAL RUN TIME: 0 days 0 hours 0 minutes 29 seconds 405 msec
