                         Program Version 4.2.1 -  RELEASE  -
|  1> ! wB97X-D3 SP def2-SVP
|  2> %pal
|  3> nprocs 16
|  4> end
|  5>
|  6> * xyz 0 1
|  7> S 	 68.541 	 21.098 	 72.6064
|  8> C 	 67.3723 	 19.9804 	 72.0191
|  9> C 	 66.1141 	 20.526 	 72.0622
| 10> C 	 66.0733 	 21.859 	 72.4709
| 11> C 	 67.2988 	 22.3561 	 72.7645
| 12> H 	 65.1882 	 22.4969 	 72.5541
| 13> C 	 64.8694 	 19.8079 	 71.57
| 14> H 	 64.8138 	 20.1536 	 70.5414
| 15> H 	 63.9622 	 20.136 	 72.0441
| 16> C 	 64.9333 	 18.2571 	 71.564
| 17> H 	 65.6483 	 17.8636 	 70.8772
| 18> H 	 65.2718 	 17.9633 	 72.5735
| 19> C 	 63.6067 	 17.6327 	 71.2507
| 20> H 	 62.8375 	 17.9666 	 71.9506
| 21> H 	 63.2342 	 17.9589 	 70.2841
| 22> H 	 63.7362 	 16.5281 	 71.2255
| 23> S 	 67.1217 	 23.9872 	 74.935
| 24> C 	 67.4532 	 25.6844 	 74.7616
| 25> C 	 67.9377 	 25.9475 	 73.5077
| 26> C 	 68.0192 	 24.8282 	 72.6081
| 27> C 	 67.5083 	 23.69 	 73.2097
| 28> H 	 68.1719 	 27.0286 	 73.3353
| 29> C 	 68.5081 	 24.9435 	 71.1848
| 30> H 	 68.53 	 26.0501 	 71.0134
| 31> H 	 67.7934 	 24.5675 	 70.5066
| 32> C 	 69.8862 	 24.3264 	 70.9065
| 33> H 	 70.0245 	 23.2205 	 71.1686
| 34> H 	 70.6285 	 24.767 	 71.5816
| 35> C 	 70.351 	 24.6051 	 69.5145
| 36> H 	 71.3715 	 24.2764 	 69.2822
| 37> H 	 70.4301 	 25.7082 	 69.3885
| 38> H 	 69.6107 	 24.2421 	 68.8281
| 39> H 	 67.5275 	 18.9557 	 71.811
| 40> H 	 67.5342 	 26.4647 	 75.4922
| 41> *
| 42>
| 43>                          ****END OF INPUT****

CARTESIAN COORDINATES (ANGSTROEM)
---------------------------------
  S     68.541000   21.098000   72.606400
  C     67.372300   19.980400   72.019100
  C     66.114100   20.526000   72.062200
  C     66.073300   21.859000   72.470900
  C     67.298800   22.356100   72.764500
  H     65.188200   22.496900   72.554100
  C     64.869400   19.807900   71.570000
  H     64.813800   20.153600   70.541400
  H     63.962200   20.136000   72.044100
  C     64.933300   18.257100   71.564000
  H     65.648300   17.863600   70.877200
  H     65.271800   17.963300   72.573500
  C     63.606700   17.632700   71.250700
  H     62.837500   17.966600   71.950600
  H     63.234200   17.958900   70.284100
  H     63.736200   16.528100   71.225500
  S     67.121700   23.987200   74.935000
  C     67.453200   25.684400   74.761600
  C     67.937700   25.947500   73.507700
  C     68.019200   24.828200   72.608100
  C     67.508300   23.690000   73.209700
  H     68.171900   27.028600   73.335300
  C     68.508100   24.943500   71.184800
  H     68.530000   26.050100   71.013400
  H     67.793400   24.567500   70.506600
  C     69.886200   24.326400   70.906500
  H     70.024500   23.220500   71.168600
  H     70.628500   24.767000   71.581600
  C     70.351000   24.605100   69.514500
  H     71.371500   24.276400   69.282200
  H     70.430100   25.708200   69.388500
  H     69.610700   24.242100   68.828100
  H     67.527500   18.955700   71.811000
  H     67.534200   26.464700   75.492200

 Total Charge           Charge          ....    0
 Multiplicity           Mult            ....    1
 Number of Electrons    NEL             ....  134
 Basis Dimension        Dim             ....  322

ORBITAL ENERGIES
----------------

  NO   OCC          E(Eh)            E(eV)
   0   2.0000     -88.966722     -2420.9076
   1   2.0000     -88.962529     -2420.7935
   2   2.0000     -10.323092      -280.9056
   3   2.0000     -10.322254      -280.8828
   4   2.0000     -10.311608      -280.5931
   5   2.0000     -10.306282      -280.4482
   6   2.0000     -10.304769      -280.4070
   7   2.0000     -10.294324      -280.1228
   8   2.0000     -10.293376      -280.0970
   9   2.0000     -10.291475      -280.0453
  10   2.0000     -10.289193      -279.9832
  11   2.0000     -10.288467      -279.9634
  12   2.0000     -10.285114      -279.8722
  13   2.0000     -10.284020      -279.8424
  14   2.0000     -10.279621      -279.7227
  15   2.0000     -10.273294      -279.5505
  16   2.0000      -8.081066      -219.8970
  17   2.0000      -8.076887      -219.7833
  18   2.0000      -6.039572      -164.3451
  19   2.0000      -6.035610      -164.2373
  20   2.0000      -6.035454      -164.2330
  21   2.0000      -6.031865      -164.1354
  22   2.0000      -6.031456      -164.1243
  23   2.0000      -6.027574      -164.0186
  24   2.0000      -1.009706       -27.4755
  25   2.0000      -0.984928       -26.8013
  26   2.0000      -0.913822       -24.8664
  27   2.0000      -0.909790       -24.7566
  28   2.0000      -0.875201       -23.8154
  29   2.0000      -0.856084       -23.2952
  30   2.0000      -0.850760       -23.1504
  31   2.0000      -0.814937       -22.1756
  32   2.0000      -0.781075       -21.2541
  33   2.0000      -0.767458       -20.8836
  34   2.0000      -0.715563       -19.4715
  35   2.0000      -0.700056       -19.0495
  36   2.0000      -0.689820       -18.7710
  37   2.0000      -0.655926       -17.8486
  38   2.0000      -0.643303       -17.5052
  39   2.0000      -0.613090       -16.6830
  40   2.0000      -0.596082       -16.2202
  41   2.0000      -0.576513       -15.6877
  42   2.0000      -0.565963       -15.4006
  43   2.0000      -0.557508       -15.1706
  44   2.0000      -0.528970       -14.3940
  45   2.0000      -0.524215       -14.2646
  46   2.0000      -0.518911       -14.1203
  47   2.0000      -0.513641       -13.9769
  48   2.0000      -0.507888       -13.8203
  49   2.0000      -0.503060       -13.6889
  50   2.0000      -0.495413       -13.4809
  51   2.0000      -0.483545       -13.1579
  52   2.0000      -0.467213       -12.7135
  53   2.0000      -0.464537       -12.6407
  54   2.0000      -0.456710       -12.4277
  55   2.0000      -0.450762       -12.2659
  56   2.0000      -0.443527       -12.0690
  57   2.0000      -0.435299       -11.8451
  58   2.0000      -0.432254       -11.7622
  59   2.0000      -0.425247       -11.5716
  60   2.0000      -0.421057       -11.4575
  61   2.0000      -0.418364       -11.3843
  62   2.0000      -0.405212       -11.0264
  63   2.0000      -0.339943        -9.2503
  64   2.0000      -0.329169        -8.9571
  65   2.0000      -0.322170        -8.7667
  66   2.0000      -0.305232        -8.3058
  67   0.0000       0.041888         1.1398
  68   0.0000       0.054611         1.4860
  69   0.0000       0.116645         3.1741
  70   0.0000       0.123418         3.3584
  71   0.0000       0.134943         3.6720

MULLIKEN ATOMIC CHARGES
-----------------------
   0 S :    0.128872
   1 C :   -0.117191
   2 C :   -0.069781
   3 C :    0.019107
   4 C :   -0.147121
   5 H :    0.021347
   6 C :    0.071198
   7 H :    0.037528
   8 H :    0.016446
   9 C :   -0.100921
  10 H :    0.027867
  11 H :    0.032252
  12 C :   -0.030323
  13 H :    0.030458
  14 H :    0.020261
  15 H :    0.043103
  16 S :    0.109605
  17 C :   -0.069857
  18 C :   -0.087640
  19 C :    0.015491
  20 C :   -0.217300
  21 H :    0.030777
  22 C :    0.093954
  23 H :    0.018496
  24 H :    0.023169
  25 C :   -0.096356
  26 H :    0.040721
  27 H :    0.018746
  28 C :   -0.026815
  29 H :    0.036058
  30 H :    0.019549
  31 H :    0.027471
  32 H :    0.034236
  33 H :    0.046594
Sum of atomic charges:   -0.0000000

LOEWDIN ATOMIC CHARGES
----------------------
   0 S :    0.416640
   1 C :   -0.204606
   2 C :   -0.065429
   3 C :   -0.054464
   4 C :   -0.196483
   5 H :    0.039205
   6 C :   -0.028031
   7 H :    0.036920
   8 H :    0.025214
   9 C :   -0.044758
  10 H :    0.018755
  11 H :    0.024998
  12 C :   -0.063090
  13 H :    0.024858
  14 H :    0.022205
  15 H :    0.032771
  16 S :    0.395304
  17 C :   -0.193387
  18 C :   -0.082545
  19 C :   -0.049306
  20 C :   -0.185305
  21 H :    0.037356
  22 C :   -0.026420
  23 H :    0.036714
  24 H :    0.026745
  25 C :   -0.052194
  26 H :    0.023986
  27 H :    0.023009
  28 C :   -0.066066
  29 H :    0.028462
  30 H :    0.025856
  31 H :    0.020974
  32 H :    0.021448
  33 H :    0.030663

  Mayer bond orders larger than 0.100000
B(  0-S ,  1-C ) :   1.1389 B(  0-S ,  4-C ) :   1.1335 B(  1-C ,  2-C ) :   1.6103
B(  1-C , 32-H ) :   0.9665 B(  2-C ,  3-C ) :   1.2467 B(  2-C ,  6-C ) :   1.0120
B(  3-C ,  4-C ) :   1.5820 B(  3-C ,  5-H ) :   0.9987 B(  4-C , 20-C ) :   1.0549
B(  6-C ,  7-H ) :   0.9273 B(  6-C ,  8-H ) :   0.9485 B(  6-C ,  9-C ) :   1.0696
B(  9-C , 10-H ) :   0.9433 B(  9-C , 11-H ) :   0.9603 B(  9-C , 12-C ) :   1.0979
B( 12-C , 13-H ) :   0.9732 B( 12-C , 14-H ) :   0.9708 B( 12-C , 15-H ) :   0.9716
B( 16-S , 17-C ) :   1.1404 B( 16-S , 20-C ) :   1.1362 B( 17-C , 18-C ) :   1.6550
B( 17-C , 33-H ) :   0.9617 B( 18-C , 19-C ) :   1.2218 B( 18-C , 21-H ) :   0.9771
B( 19-C , 20-C ) :   1.5998 B( 19-C , 22-C ) :   1.0419 B( 22-C , 23-H ) :   0.9318
B( 22-C , 24-H ) :   0.9278 B( 22-C , 25-C ) :   1.0591 B( 25-C , 26-H ) :   0.9476
B( 25-C , 27-H ) :   0.9492 B( 25-C , 28-C ) :   1.0936 B( 28-C , 29-H ) :   0.9711
B( 28-C , 30-H ) :   0.9715 B( 28-C , 31-H ) :   0.9730

Dispersion correction           -0.013897743
FINAL SINGLE POINT ENERGY     -1339.887690002493

DIPOLE MOMENT
-------------
                                X             Y             Z
Electronic contribution:      4.68783       7.31182      18.49961
Nuclear contribution   :     -4.91599      -7.26865     -18.90479
                        -----------------------------------------
Total Dipole Moment    :     -0.22816       0.04317      -0.40518
                        -----------------------------------------
Magnitude (a.u.)       :      0.46700
Magnitude (Debye)      :      1.18703

Rotational constants in cm-1:     0.020672     0.007588     0.006275
Rotational constants in MHz :   619.732360   227.477994   188.121786

                             ****ORCA TERMINATED NORMALLY****
TOTAL RUN TIME: 0 days 0 hours 0 minutes 31 seconds 542 msec
