                         Program Version 4.2.1 -  RELEASE  -
|  1> ! wB97X-D3 SP def2-SVP
|  2> %pal
|  3> nprocs 16
|  4> end
|  5>
|  6> * xyz 0 1
|  7> S 	 -4.4163 	 34.6472 	 52.0253
|  8> C 	 -2.79517 	 34.229 	 52.4778
|  9> C 	 -2.49656 	 32.9518 	 52.0981
| 10> C 	 -3.3607 	 32.4872 	 51.0806
| 11> C 	 -4.45458 	 33.3712 	 50.9327
| 12> H 	 -3.38505 	 31.5149 	 50.5888
| 13> C 	 -1.33149 	 32.1373 	 52.6522
| 14> H 	 -1.42415 	 32.2022 	 53.7356
| 15> H 	 -0.471378 	 32.7158 	 52.4756
| 16> C 	 -1.17605 	 30.6931 	 52.1194
| 17> H 	 -2.1308 	 30.1963 	 52.083
| 18> H 	 -0.921487 	 30.8157 	 51.1355
| 19> C 	 -0.0406065 	 29.9538 	 52.7344
| 20> H 	 0.0614374 	 30.0964 	 53.7965
| 21> H 	 -0.0542742 	 28.8808 	 52.4474
| 22> H 	 0.967608 	 30.268 	 52.3645
| 23> S 	 -7.1657 	 33.2666 	 50.9613
| 24> C 	 -8.00471 	 32.8421 	 49.5099
| 25> C 	 -7.18151 	 32.5326 	 48.5196
| 26> C 	 -5.81014 	 32.9068 	 48.738
| 27> C 	 -5.60267 	 33.1727 	 50.1114
| 28> H 	 -7.63855 	 32.2706 	 47.6204
| 29> C 	 -4.71643 	 32.6648 	 47.659
| 30> H 	 -4.9529 	 31.8023 	 47.019
| 31> H 	 -3.79361 	 32.3632 	 48.1487
| 32> C 	 -4.50484 	 33.8485 	 46.7514
| 33> H 	 -5.49105 	 34.0068 	 46.2224
| 34> H 	 -3.8745 	 33.6428 	 45.9119
| 35> C 	 -4.06085 	 35.1158 	 47.4528
| 36> H 	 -4.7152 	 35.2839 	 48.2743
| 37> H 	 -3.94289 	 35.9833 	 46.8145
| 38> H 	 -3.08697 	 34.8244 	 47.857
| 39> H 	 -2.30029 	 34.7197 	 53.324
| 40> H 	 -9.04498 	 32.7254 	 49.5169
| 41> *
| 42>
| 43>                          ****END OF INPUT****

CARTESIAN COORDINATES (ANGSTROEM)
---------------------------------
  S     -4.416300   34.647200   52.025300
  C     -2.795170   34.229000   52.477800
  C     -2.496560   32.951800   52.098100
  C     -3.360700   32.487200   51.080600
  C     -4.454580   33.371200   50.932700
  H     -3.385050   31.514900   50.588800
  C     -1.331490   32.137300   52.652200
  H     -1.424150   32.202200   53.735600
  H     -0.471378   32.715800   52.475600
  C     -1.176050   30.693100   52.119400
  H     -2.130800   30.196300   52.083000
  H     -0.921487   30.815700   51.135500
  C     -0.040606   29.953800   52.734400
  H      0.061437   30.096400   53.796500
  H     -0.054274   28.880800   52.447400
  H      0.967608   30.268000   52.364500
  S     -7.165700   33.266600   50.961300
  C     -8.004710   32.842100   49.509900
  C     -7.181510   32.532600   48.519600
  C     -5.810140   32.906800   48.738000
  C     -5.602670   33.172700   50.111400
  H     -7.638550   32.270600   47.620400
  C     -4.716430   32.664800   47.659000
  H     -4.952900   31.802300   47.019000
  H     -3.793610   32.363200   48.148700
  C     -4.504840   33.848500   46.751400
  H     -5.491050   34.006800   46.222400
  H     -3.874500   33.642800   45.911900
  C     -4.060850   35.115800   47.452800
  H     -4.715200   35.283900   48.274300
  H     -3.942890   35.983300   46.814500
  H     -3.086970   34.824400   47.857000
  H     -2.300290   34.719700   53.324000
  H     -9.044980   32.725400   49.516900

 Total Charge           Charge          ....    0
 Multiplicity           Mult            ....    1
 Number of Electrons    NEL             ....  134
 Basis Dimension        Dim             ....  322

ORBITAL ENERGIES
----------------

  NO   OCC          E(Eh)            E(eV)
   0   2.0000     -88.967293     -2420.9231
   1   2.0000     -88.960156     -2420.7289
   2   2.0000     -10.328383      -281.0496
   3   2.0000     -10.323660      -280.9211
   4   2.0000     -10.308827      -280.5174
   5   2.0000     -10.306147      -280.4445
   6   2.0000     -10.304917      -280.4111
   7   2.0000     -10.300305      -280.2856
   8   2.0000     -10.294415      -280.1253
   9   2.0000     -10.292085      -280.0619
  10   2.0000     -10.289059      -279.9795
  11   2.0000     -10.283273      -279.8221
  12   2.0000     -10.281854      -279.7835
  13   2.0000     -10.280357      -279.7427
  14   2.0000     -10.278307      -279.6870
  15   2.0000     -10.263469      -279.2832
  16   2.0000      -8.083512      -219.9635
  17   2.0000      -8.075513      -219.7459
  18   2.0000      -6.041709      -164.4033
  19   2.0000      -6.037902      -164.2997
  20   2.0000      -6.034414      -164.2047
  21   2.0000      -6.034015      -164.1939
  22   2.0000      -6.030020      -164.0852
  23   2.0000      -6.026163      -163.9802
  24   2.0000      -1.016101       -27.6495
  25   2.0000      -0.988995       -26.9119
  26   2.0000      -0.919687       -25.0260
  27   2.0000      -0.909121       -24.7385
  28   2.0000      -0.879389       -23.9294
  29   2.0000      -0.852894       -23.2084
  30   2.0000      -0.843295       -22.9472
  31   2.0000      -0.815707       -22.1965
  32   2.0000      -0.786550       -21.4031
  33   2.0000      -0.774963       -21.0878
  34   2.0000      -0.721666       -19.6375
  35   2.0000      -0.696269       -18.9464
  36   2.0000      -0.689221       -18.7547
  37   2.0000      -0.657557       -17.8930
  38   2.0000      -0.640288       -17.4231
  39   2.0000      -0.621369       -16.9083
  40   2.0000      -0.599672       -16.3179
  41   2.0000      -0.572601       -15.5813
  42   2.0000      -0.567263       -15.4360
  43   2.0000      -0.556822       -15.1519
  44   2.0000      -0.543204       -14.7813
  45   2.0000      -0.527653       -14.3582
  46   2.0000      -0.513834       -13.9821
  47   2.0000      -0.509930       -13.8759
  48   2.0000      -0.505343       -13.7511
  49   2.0000      -0.497555       -13.5392
  50   2.0000      -0.488949       -13.3050
  51   2.0000      -0.487585       -13.2679
  52   2.0000      -0.477650       -12.9975
  53   2.0000      -0.466605       -12.6970
  54   2.0000      -0.460085       -12.5195
  55   2.0000      -0.448669       -12.2089
  56   2.0000      -0.444436       -12.0937
  57   2.0000      -0.438328       -11.9275
  58   2.0000      -0.436137       -11.8679
  59   2.0000      -0.428061       -11.6481
  60   2.0000      -0.419921       -11.4266
  61   2.0000      -0.416646       -11.3375
  62   2.0000      -0.403040       -10.9673
  63   2.0000      -0.346559        -9.4303
  64   2.0000      -0.332165        -9.0387
  65   2.0000      -0.330936        -9.0052
  66   2.0000      -0.287604        -7.8261
  67   0.0000       0.026248         0.7143
  68   0.0000       0.071063         1.9337
  69   0.0000       0.104930         2.8553
  70   0.0000       0.124920         3.3992
  71   0.0000       0.130529         3.5519

MULLIKEN ATOMIC CHARGES
-----------------------
   0 S :    0.129964
   1 C :   -0.123991
   2 C :   -0.098704
   3 C :    0.002838
   4 C :   -0.142157
   5 H :    0.024286
   6 C :    0.065263
   7 H :    0.024864
   8 H :    0.021376
   9 C :   -0.034679
  10 H :    0.035457
  11 H :    0.010972
  12 C :   -0.036149
  13 H :    0.027170
  14 H :    0.039283
  15 H :    0.024289
  16 S :    0.082747
  17 C :   -0.064689
  18 C :    0.002822
  19 C :   -0.048407
  20 C :   -0.166787
  21 H :   -0.002050
  22 C :    0.071025
  23 H :    0.026962
  24 H :    0.014355
  25 C :   -0.085919
  26 H :    0.015844
  27 H :    0.018927
  28 C :   -0.012622
  29 H :    0.034386
  30 H :    0.037309
  31 H :    0.020234
  32 H :    0.048841
  33 H :    0.036941
Sum of atomic charges:    0.0000000

LOEWDIN ATOMIC CHARGES
----------------------
   0 S :    0.452151
   1 C :   -0.217685
   2 C :   -0.053793
   3 C :   -0.070592
   4 C :   -0.217665
   5 H :    0.033909
   6 C :   -0.026356
   7 H :    0.030785
   8 H :    0.028679
   9 C :   -0.039781
  10 H :    0.025191
  11 H :    0.018865
  12 C :   -0.065186
  13 H :    0.021148
  14 H :    0.033613
  15 H :    0.029810
  16 S :    0.386121
  17 C :   -0.174444
  18 C :   -0.066423
  19 C :   -0.051347
  20 C :   -0.184509
  21 H :    0.023205
  22 C :   -0.028975
  23 H :    0.035143
  24 H :    0.023977
  25 C :   -0.047201
  26 H :    0.021975
  27 H :    0.017734
  28 C :   -0.058510
  29 H :    0.022018
  30 H :    0.025642
  31 H :    0.026841
  32 H :    0.027109
  33 H :    0.018550

  Mayer bond orders larger than 0.100000
B(  0-S ,  1-C ) :   1.1389 B(  0-S ,  4-C ) :   1.2006 B(  1-C ,  2-C ) :   1.5995
B(  1-C ,  4-C ) :   0.1046 B(  1-C , 32-H ) :   0.9691 B(  2-C ,  3-C ) :   1.2766
B(  2-C ,  6-C ) :   0.9944 B(  3-C ,  4-C ) :   1.5021 B(  3-C ,  5-H ) :   0.9886
B(  4-C , 20-C ) :   1.0622 B(  6-C ,  7-H ) :   0.9323 B(  6-C ,  8-H ) :   0.9358
B(  6-C ,  9-C ) :   1.0827 B(  9-C , 10-H ) :   0.9542 B(  9-C , 11-H ) :   0.9392
B(  9-C , 12-C ) :   1.0885 B( 12-C , 13-H ) :   0.9770 B( 12-C , 14-H ) :   0.9692
B( 12-C , 15-H ) :   0.9709 B( 16-S , 17-C ) :   1.1344 B( 16-S , 20-C ) :   1.1381
B( 17-C , 18-C ) :   1.6591 B( 17-C , 33-H ) :   0.9705 B( 18-C , 19-C ) :   1.2090
B( 18-C , 21-H ) :   0.9883 B( 19-C , 20-C ) :   1.5887 B( 19-C , 22-C ) :   1.0281
B( 22-C , 23-H ) :   0.9397 B( 22-C , 24-H ) :   0.9426 B( 22-C , 25-C ) :   1.0755
B( 25-C , 26-H ) :   0.9504 B( 25-C , 27-H ) :   0.9546 B( 25-C , 28-C ) :   1.0742
B( 28-C , 29-H ) :   0.9736 B( 28-C , 30-H ) :   0.9737 B( 28-C , 31-H ) :   0.9720

Dispersion correction           -0.014469888
FINAL SINGLE POINT ENERGY     -1339.864848228886

DIPOLE MOMENT
-------------
                                X             Y             Z
Electronic contribution:    -20.83377       9.63342       9.23571
Nuclear contribution   :     21.20082     -10.11428      -9.38957
                        -----------------------------------------
Total Dipole Moment    :      0.36705      -0.48085      -0.15385
                        -----------------------------------------
Magnitude (a.u.)       :      0.62420
Magnitude (Debye)      :      1.58658

Rotational constants in cm-1:     0.019254     0.008198     0.007408
Rotational constants in MHz :   577.208391   245.761147   222.090369

                             ****ORCA TERMINATED NORMALLY****
TOTAL RUN TIME: 0 days 0 hours 0 minutes 35 seconds 763 msec
