                         Program Version 4.2.1 -  RELEASE  -
|  1> ! wB97X-D3 SP def2-SVP
|  2> %pal
|  3> nprocs 16
|  4> end
|  5>
|  6> * xyz 0 1
|  7> S 	 -18.8718 	 -5.49187 	 81.415
|  8> C 	 -18.6806 	 -6.52559 	 80.1226
|  9> C 	 -18.5236 	 -7.85617 	 80.4817
| 10> C 	 -18.5466 	 -7.99158 	 81.9073
| 11> C 	 -18.8028 	 -6.82141 	 82.5764
| 12> H 	 -18.4272 	 -8.85798 	 82.4653
| 13> C 	 -18.2088 	 -8.91429 	 79.4693
| 14> H 	 -18.7021 	 -8.74392 	 78.5389
| 15> H 	 -18.5731 	 -9.85889 	 79.8206
| 16> C 	 -16.7135 	 -8.87245 	 79.0342
| 17> H 	 -16.3452 	 -7.8473 	 78.9086
| 18> H 	 -16.0712 	 -9.36179 	 79.7703
| 19> C 	 -16.3434 	 -9.57735 	 77.6998
| 20> H 	 -16.9502 	 -9.07907 	 76.8902
| 21> H 	 -15.2767 	 -9.43261 	 77.5207
| 22> H 	 -16.4945 	 -10.6572 	 77.7015
| 23> S 	 -20.6393 	 -6.9951 	 84.6108
| 24> C 	 -20.2609 	 -6.51237 	 86.2147
| 25> C 	 -18.8912 	 -6.44456 	 86.3657
| 26> C 	 -18.1313 	 -6.53794 	 85.1037
| 27> C 	 -18.9851 	 -6.74287 	 84.0273
| 28> H 	 -18.5331 	 -6.17918 	 87.3341
| 29> C 	 -16.6258 	 -6.20551 	 84.8815
| 30> H 	 -16.4497 	 -5.31481 	 84.3104
| 31> H 	 -16.2179 	 -7.03322 	 84.2891
| 32> C 	 -15.8543 	 -6.09977 	 86.2293
| 33> H 	 -16.0729 	 -6.9904 	 86.7871
| 34> H 	 -16.1867 	 -5.39321 	 86.9477
| 35> C 	 -14.3235 	 -6.22451 	 86.1701
| 36> H 	 -13.8894 	 -5.93949 	 87.1695
| 37> H 	 -13.818 	 -5.6766 	 85.4246
| 38> H 	 -14.0449 	 -7.21884 	 85.9189
| 39> H 	 -18.6346 	 -6.09279 	 79.1156
| 40> H 	 -20.929 	 -6.44212 	 87.058
| 41> *
| 42>
| 43>                          ****END OF INPUT****

CARTESIAN COORDINATES (ANGSTROEM)
---------------------------------
  S    -18.871800   -5.491870   81.415000
  C    -18.680600   -6.525590   80.122600
  C    -18.523600   -7.856170   80.481700
  C    -18.546600   -7.991580   81.907300
  C    -18.802800   -6.821410   82.576400
  H    -18.427200   -8.857980   82.465300
  C    -18.208800   -8.914290   79.469300
  H    -18.702100   -8.743920   78.538900
  H    -18.573100   -9.858890   79.820600
  C    -16.713500   -8.872450   79.034200
  H    -16.345200   -7.847300   78.908600
  H    -16.071200   -9.361790   79.770300
  C    -16.343400   -9.577350   77.699800
  H    -16.950200   -9.079070   76.890200
  H    -15.276700   -9.432610   77.520700
  H    -16.494500  -10.657200   77.701500
  S    -20.639300   -6.995100   84.610800
  C    -20.260900   -6.512370   86.214700
  C    -18.891200   -6.444560   86.365700
  C    -18.131300   -6.537940   85.103700
  C    -18.985100   -6.742870   84.027300
  H    -18.533100   -6.179180   87.334100
  C    -16.625800   -6.205510   84.881500
  H    -16.449700   -5.314810   84.310400
  H    -16.217900   -7.033220   84.289100
  C    -15.854300   -6.099770   86.229300
  H    -16.072900   -6.990400   86.787100
  H    -16.186700   -5.393210   86.947700
  C    -14.323500   -6.224510   86.170100
  H    -13.889400   -5.939490   87.169500
  H    -13.818000   -5.676600   85.424600
  H    -14.044900   -7.218840   85.918900
  H    -18.634600   -6.092790   79.115600
  H    -20.929000   -6.442120   87.058000

 Total Charge           Charge          ....    0
 Multiplicity           Mult            ....    1
 Number of Electrons    NEL             ....  134
 Basis Dimension        Dim             ....  322

ORBITAL ENERGIES
----------------

  NO   OCC          E(Eh)            E(eV)
   0   2.0000     -88.965702     -2420.8798
   1   2.0000     -88.958866     -2420.6938
   2   2.0000     -10.325378      -280.9678
   3   2.0000     -10.325015      -280.9579
   4   2.0000     -10.314591      -280.6743
   5   2.0000     -10.311757      -280.5972
   6   2.0000     -10.310460      -280.5619
   7   2.0000     -10.299357      -280.2597
   8   2.0000     -10.296343      -280.1777
   9   2.0000     -10.294936      -280.1395
  10   2.0000     -10.290475      -280.0181
  11   2.0000     -10.288926      -279.9759
  12   2.0000     -10.287943      -279.9492
  13   2.0000     -10.283093      -279.8172
  14   2.0000     -10.280261      -279.7401
  15   2.0000     -10.274038      -279.5708
  16   2.0000      -8.081758      -219.9158
  17   2.0000      -8.074144      -219.7086
  18   2.0000      -6.040075      -164.3588
  19   2.0000      -6.035912      -164.2455
  20   2.0000      -6.032819      -164.1613
  21   2.0000      -6.032679      -164.1575
  22   2.0000      -6.028469      -164.0430
  23   2.0000      -6.024941      -163.9470
  24   2.0000      -1.008527       -27.4434
  25   2.0000      -0.985795       -26.8248
  26   2.0000      -0.909020       -24.7357
  27   2.0000      -0.903592       -24.5880
  28   2.0000      -0.873154       -23.7597
  29   2.0000      -0.852061       -23.1858
  30   2.0000      -0.844152       -22.9706
  31   2.0000      -0.816824       -22.2269
  32   2.0000      -0.781864       -21.2756
  33   2.0000      -0.769116       -20.9287
  34   2.0000      -0.709029       -19.2937
  35   2.0000      -0.697450       -18.9786
  36   2.0000      -0.695248       -18.9187
  37   2.0000      -0.656986       -17.8775
  38   2.0000      -0.648536       -17.6476
  39   2.0000      -0.619316       -16.8524
  40   2.0000      -0.593176       -16.1411
  41   2.0000      -0.573446       -15.6043
  42   2.0000      -0.562483       -15.3059
  43   2.0000      -0.560536       -15.2530
  44   2.0000      -0.529312       -14.4033
  45   2.0000      -0.523100       -14.2343
  46   2.0000      -0.514840       -14.0095
  47   2.0000      -0.511750       -13.9254
  48   2.0000      -0.504197       -13.7199
  49   2.0000      -0.498849       -13.5744
  50   2.0000      -0.493835       -13.4379
  51   2.0000      -0.481571       -13.1042
  52   2.0000      -0.472275       -12.8513
  53   2.0000      -0.467459       -12.7202
  54   2.0000      -0.463724       -12.6186
  55   2.0000      -0.449596       -12.2341
  56   2.0000      -0.446174       -12.1410
  57   2.0000      -0.436767       -11.8850
  58   2.0000      -0.436385       -11.8746
  59   2.0000      -0.425235       -11.5712
  60   2.0000      -0.417300       -11.3553
  61   2.0000      -0.411621       -11.2008
  62   2.0000      -0.410061       -11.1583
  63   2.0000      -0.338823        -9.2198
  64   2.0000      -0.325803        -8.8655
  65   2.0000      -0.318370        -8.6633
  66   2.0000      -0.310471        -8.4483
  67   0.0000       0.047895         1.3033
  68   0.0000       0.053288         1.4500
  69   0.0000       0.115548         3.1442
  70   0.0000       0.130601         3.5538
  71   0.0000       0.133082         3.6214

MULLIKEN ATOMIC CHARGES
-----------------------
   0 S :    0.134937
   1 C :   -0.138914
   2 C :   -0.075868
   3 C :    0.068080
   4 C :   -0.183765
   5 H :   -0.013023
   6 C :    0.132516
   7 H :    0.003619
   8 H :    0.017399
   9 C :   -0.100781
  10 H :    0.034138
  11 H :    0.026165
  12 C :   -0.071063
  13 H :    0.036438
  14 H :    0.037968
  15 H :    0.036535
  16 S :    0.106624
  17 C :   -0.074723
  18 C :   -0.057162
  19 C :   -0.019149
  20 C :   -0.193948
  21 H :    0.008892
  22 C :    0.103621
  23 H :    0.043076
  24 H :    0.029192
  25 C :   -0.098875
  26 H :    0.016404
  27 H :    0.024511
  28 C :   -0.017447
  29 H :    0.037397
  30 H :    0.013931
  31 H :    0.017576
  32 H :    0.060044
  33 H :    0.055654
Sum of atomic charges:   -0.0000000

LOEWDIN ATOMIC CHARGES
----------------------
   0 S :    0.439825
   1 C :   -0.215766
   2 C :   -0.067708
   3 C :   -0.042341
   4 C :   -0.208368
   5 H :    0.022603
   6 C :   -0.028000
   7 H :    0.026924
   8 H :    0.027639
   9 C :   -0.040356
  10 H :    0.026258
  11 H :    0.021198
  12 C :   -0.070125
  13 H :    0.026244
  14 H :    0.028192
  15 H :    0.022216
  16 S :    0.406589
  17 C :   -0.190551
  18 C :   -0.077015
  19 C :   -0.047796
  20 C :   -0.195613
  21 H :    0.023850
  22 C :   -0.021464
  23 H :    0.030758
  24 H :    0.036527
  25 C :   -0.049428
  26 H :    0.025584
  27 H :    0.018308
  28 C :   -0.059918
  29 H :    0.035254
  30 H :    0.013912
  31 H :    0.019630
  32 H :    0.031130
  33 H :    0.031810

  Mayer bond orders larger than 0.100000
B(  0-S ,  1-C ) :   1.1890 B(  0-S ,  4-C ) :   1.1460 B(  1-C ,  2-C ) :   1.5612
B(  1-C , 32-H ) :   0.9659 B(  2-C ,  3-C ) :   1.2527 B(  2-C ,  6-C ) :   1.0475
B(  3-C ,  4-C ) :   1.5751 B(  3-C ,  5-H ) :   1.0082 B(  4-C , 20-C ) :   1.0242
B(  6-C ,  7-H ) :   0.9348 B(  6-C ,  8-H ) :   0.9350 B(  6-C ,  9-C ) :   1.0471
B(  9-C , 10-H ) :   0.9614 B(  9-C , 11-H ) :   0.9558 B(  9-C , 12-C ) :   1.0839
B( 12-C , 13-H ) :   0.9742 B( 12-C , 14-H ) :   0.9746 B( 12-C , 15-H ) :   0.9769
B( 16-S , 17-C ) :   1.1573 B( 16-S , 20-C ) :   1.1440 B( 17-C , 18-C ) :   1.6286
B( 17-C , 33-H ) :   0.9641 B( 18-C , 19-C ) :   1.2079 B( 18-C , 21-H ) :   0.9920
B( 19-C , 20-C ) :   1.6242 B( 19-C , 22-C ) :   1.0270 B( 22-C , 23-H ) :   0.9403
B( 22-C , 24-H ) :   0.9327 B( 22-C , 25-C ) :   1.0682 B( 25-C , 26-H ) :   0.9532
B( 25-C , 27-H ) :   0.9586 B( 25-C , 28-C ) :   1.0748 B( 28-C , 29-H ) :   0.9727
B( 28-C , 30-H ) :   0.9765 B( 28-C , 31-H ) :   0.9775

Dispersion correction           -0.013481099
FINAL SINGLE POINT ENERGY     -1339.872920639358

DIPOLE MOMENT
-------------
                                X             Y             Z
Electronic contribution:    -24.14794       9.21799       5.61625
Nuclear contribution   :     24.64080      -9.42701      -5.65949
                        -----------------------------------------
Total Dipole Moment    :      0.49286      -0.20901      -0.04324
                        -----------------------------------------
Magnitude (a.u.)       :      0.53709
Magnitude (Debye)      :      1.36518

Rotational constants in cm-1:     0.018384     0.007428     0.006034
Rotational constants in MHz :   551.153372   222.699306   180.894016

                             ****ORCA TERMINATED NORMALLY****
TOTAL RUN TIME: 0 days 0 hours 0 minutes 31 seconds 789 msec
