                         Program Version 4.2.1 -  RELEASE  -
|  1> ! wB97X-D3 SP def2-SVP
|  2> %pal
|  3> nprocs 16
|  4> end
|  5>
|  6> * xyz 0 1
|  7> S 	 0.267771 	 26.3561 	 37.7041
|  8> C 	 -1.14321 	 26.4782 	 36.6752
|  9> C 	 -1.76192 	 25.2707 	 36.5697
| 10> C 	 -1.07097 	 24.2021 	 37.2633
| 11> C 	 0.131175 	 24.6501 	 37.7607
| 12> H 	 -1.38118 	 23.1635 	 37.4381
| 13> C 	 -3.13999 	 25.0522 	 36.094
| 14> H 	 -3.93014 	 25.7954 	 36.2656
| 15> H 	 -3.49365 	 24.1998 	 36.6272
| 16> C 	 -3.15265 	 24.7518 	 34.5783
| 17> H 	 -2.93695 	 25.617 	 33.879
| 18> H 	 -2.46358 	 23.9644 	 34.3257
| 19> C 	 -4.38456 	 24.0282 	 34.0384
| 20> H 	 -4.96209 	 23.4866 	 34.8327
| 21> H 	 -5.10512 	 24.7591 	 33.7222
| 22> H 	 -4.11813 	 23.3295 	 33.3053
| 23> S 	 2.55879 	 24.6661 	 39.0909
| 24> C 	 3.34754 	 23.1191 	 39.4916
| 25> C 	 2.58789 	 22.0752 	 39.1013
| 26> C 	 1.38866 	 22.4696 	 38.4726
| 27> C 	 1.13433 	 23.8801 	 38.496
| 28> H 	 2.95017 	 21.0465 	 39.0388
| 29> C 	 0.677353 	 21.3876 	 37.742
| 30> H 	 1.30309 	 20.5459 	 37.4213
| 31> H 	 0.37382 	 21.8419 	 36.7636
| 32> C 	 -0.550912 	 20.7543 	 38.5317
| 33> H 	 -1.18887 	 21.5588 	 38.7892
| 34> H 	 -0.0918543 	 20.2173 	 39.3621
| 35> C 	 -1.30171 	 19.7109 	 37.6648
| 36> H 	 -2.01452 	 19.2846 	 38.3104
| 37> H 	 -0.644785 	 18.8697 	 37.3771
| 38> H 	 -1.85342 	 20.1016 	 36.8123
| 39> H 	 -1.52458 	 27.3089 	 36.1061
| 40> H 	 4.30586 	 23.0355 	 39.8677
| 41> *
| 42>
| 43>                          ****END OF INPUT****

CARTESIAN COORDINATES (ANGSTROEM)
---------------------------------
  S      0.267771   26.356100   37.704100
  C     -1.143210   26.478200   36.675200
  C     -1.761920   25.270700   36.569700
  C     -1.070970   24.202100   37.263300
  C      0.131175   24.650100   37.760700
  H     -1.381180   23.163500   37.438100
  C     -3.139990   25.052200   36.094000
  H     -3.930140   25.795400   36.265600
  H     -3.493650   24.199800   36.627200
  C     -3.152650   24.751800   34.578300
  H     -2.936950   25.617000   33.879000
  H     -2.463580   23.964400   34.325700
  C     -4.384560   24.028200   34.038400
  H     -4.962090   23.486600   34.832700
  H     -5.105120   24.759100   33.722200
  H     -4.118130   23.329500   33.305300
  S      2.558790   24.666100   39.090900
  C      3.347540   23.119100   39.491600
  C      2.587890   22.075200   39.101300
  C      1.388660   22.469600   38.472600
  C      1.134330   23.880100   38.496000
  H      2.950170   21.046500   39.038800
  C      0.677353   21.387600   37.742000
  H      1.303090   20.545900   37.421300
  H      0.373820   21.841900   36.763600
  C     -0.550912   20.754300   38.531700
  H     -1.188870   21.558800   38.789200
  H     -0.091854   20.217300   39.362100
  C     -1.301710   19.710900   37.664800
  H     -2.014520   19.284600   38.310400
  H     -0.644785   18.869700   37.377100
  H     -1.853420   20.101600   36.812300
  H     -1.524580   27.308900   36.106100
  H      4.305860   23.035500   39.867700

 Total Charge           Charge          ....    0
 Multiplicity           Mult            ....    1
 Number of Electrons    NEL             ....  134
 Basis Dimension        Dim             ....  322

ORBITAL ENERGIES
----------------

  NO   OCC          E(Eh)            E(eV)
   0   2.0000     -88.967126     -2420.9186
   1   2.0000     -88.966070     -2420.8899
   2   2.0000     -10.331712      -281.1402
   3   2.0000     -10.329501      -281.0800
   4   2.0000     -10.314108      -280.6611
   5   2.0000     -10.308937      -280.5204
   6   2.0000     -10.302134      -280.3353
   7   2.0000     -10.297363      -280.2055
   8   2.0000     -10.294770      -280.1349
   9   2.0000     -10.293022      -280.0874
  10   2.0000     -10.291509      -280.0462
  11   2.0000     -10.290173      -280.0098
  12   2.0000     -10.288879      -279.9746
  13   2.0000     -10.284584      -279.8578
  14   2.0000     -10.278896      -279.7030
  15   2.0000     -10.271398      -279.4989
  16   2.0000      -8.081678      -219.9136
  17   2.0000      -8.081597      -219.9114
  18   2.0000      -6.040293      -164.3647
  19   2.0000      -6.040224      -164.3629
  20   2.0000      -6.036255      -164.2549
  21   2.0000      -6.036149      -164.2520
  22   2.0000      -6.032302      -164.1473
  23   2.0000      -6.032043      -164.1402
  24   2.0000      -1.012758       -27.5585
  25   2.0000      -0.988407       -26.8959
  26   2.0000      -0.916911       -24.9504
  27   2.0000      -0.906474       -24.6664
  28   2.0000      -0.875099       -23.8127
  29   2.0000      -0.854302       -23.2467
  30   2.0000      -0.849843       -23.1254
  31   2.0000      -0.820364       -22.3232
  32   2.0000      -0.782891       -21.3036
  33   2.0000      -0.770505       -20.9665
  34   2.0000      -0.710580       -19.3359
  35   2.0000      -0.698179       -18.9984
  36   2.0000      -0.694786       -18.9061
  37   2.0000      -0.668763       -18.1980
  38   2.0000      -0.639593       -17.4042
  39   2.0000      -0.622449       -16.9377
  40   2.0000      -0.599675       -16.3180
  41   2.0000      -0.574887       -15.6435
  42   2.0000      -0.571060       -15.5393
  43   2.0000      -0.561389       -15.2762
  44   2.0000      -0.531556       -14.4644
  45   2.0000      -0.524122       -14.2621
  46   2.0000      -0.519047       -14.1240
  47   2.0000      -0.513108       -13.9624
  48   2.0000      -0.506305       -13.7772
  49   2.0000      -0.504140       -13.7184
  50   2.0000      -0.497839       -13.5469
  51   2.0000      -0.489885       -13.3304
  52   2.0000      -0.468859       -12.7583
  53   2.0000      -0.464701       -12.6452
  54   2.0000      -0.461212       -12.5502
  55   2.0000      -0.454981       -12.3807
  56   2.0000      -0.446296       -12.1443
  57   2.0000      -0.432764       -11.7761
  58   2.0000      -0.430890       -11.7251
  59   2.0000      -0.429645       -11.6912
  60   2.0000      -0.416690       -11.3387
  61   2.0000      -0.415476       -11.3057
  62   2.0000      -0.410267       -11.1639
  63   2.0000      -0.364484        -9.9181
  64   2.0000      -0.334335        -9.0977
  65   2.0000      -0.323932        -8.8146
  66   2.0000      -0.280027        -7.6199
  67   0.0000       0.016430         0.4471
  68   0.0000       0.084827         2.3083
  69   0.0000       0.094492         2.5713
  70   0.0000       0.114512         3.1160
  71   0.0000       0.132823         3.6143

MULLIKEN ATOMIC CHARGES
-----------------------
   0 S :    0.097976
   1 C :   -0.091299
   2 C :   -0.062375
   3 C :   -0.023533
   4 C :   -0.100837
   5 H :    0.006160
   6 C :    0.084309
   7 H :    0.035220
   8 H :    0.006226
   9 C :   -0.115135
  10 H :    0.043383
  11 H :    0.020274
  12 C :   -0.039671
  13 H :    0.020077
  14 H :    0.023457
  15 H :    0.031778
  16 S :    0.080099
  17 C :   -0.057179
  18 C :   -0.003605
  19 C :   -0.076552
  20 C :   -0.072073
  21 H :    0.025366
  22 C :   -0.019982
  23 H :    0.020107
  24 H :    0.035438
  25 C :   -0.065524
  26 H :    0.033535
  27 H :    0.032509
  28 C :   -0.026851
  29 H :    0.021893
  30 H :    0.032381
  31 H :    0.034976
  32 H :    0.038818
  33 H :    0.030636
Sum of atomic charges:    0.0000000

LOEWDIN ATOMIC CHARGES
----------------------
   0 S :    0.412184
   1 C :   -0.196240
   2 C :   -0.058379
   3 C :   -0.073550
   4 C :   -0.187720
   5 H :    0.034038
   6 C :   -0.030665
   7 H :    0.032602
   8 H :    0.028098
   9 C :   -0.047809
  10 H :    0.030509
  11 H :    0.022284
  12 C :   -0.065719
  13 H :    0.027175
  14 H :    0.019855
  15 H :    0.019144
  16 S :    0.398534
  17 C :   -0.157877
  18 C :   -0.069958
  19 C :   -0.057940
  20 C :   -0.205189
  21 H :    0.037397
  22 C :   -0.043829
  23 H :    0.028044
  24 H :    0.031647
  25 C :   -0.026828
  26 H :    0.015018
  27 H :    0.028534
  28 C :   -0.064649
  29 H :    0.020855
  30 H :    0.028635
  31 H :    0.024483
  32 H :    0.031494
  33 H :    0.015825

  Mayer bond orders larger than 0.100000
B(  0-S ,  1-C ) :   1.1133 B(  0-S ,  4-C ) :   1.1542 B(  1-C ,  2-C ) :   1.6436
B(  1-C , 32-H ) :   0.9662 B(  2-C ,  3-C ) :   1.2171 B(  2-C ,  6-C ) :   1.0269
B(  3-C ,  4-C ) :   1.5682 B(  3-C ,  5-H ) :   0.9872 B(  4-C , 20-C ) :   1.0857
B(  6-C ,  7-H ) :   0.9491 B(  6-C ,  8-H ) :   0.9361 B(  6-C ,  9-C ) :   1.0564
B(  9-C , 10-H ) :   0.9590 B(  9-C , 11-H ) :   0.9677 B(  9-C , 12-C ) :   1.0685
B( 12-C , 13-H ) :   0.9721 B( 12-C , 14-H ) :   0.9734 B( 12-C , 15-H ) :   0.9847
B( 16-S , 17-C ) :   1.1536 B( 16-S , 20-C ) :   1.1322 B( 17-C , 18-C ) :   1.5886
B( 17-C , 33-H ) :   0.9762 B( 18-C , 19-C ) :   1.2910 B( 18-C , 21-H ) :   0.9848
B( 19-C , 20-C ) :   1.5318 B( 19-C , 22-C ) :   1.0485 B( 22-C , 23-H ) :   0.9418
B( 22-C , 24-H ) :   0.9314 B( 22-C , 25-C ) :   1.0520 B( 25-C , 26-H ) :   0.9573
B( 25-C , 27-H ) :   0.9523 B( 25-C , 28-C ) :   1.0864 B( 28-C , 29-H ) :   0.9726
B( 28-C , 30-H ) :   0.9718 B( 28-C , 31-H ) :   0.9758

Dispersion correction           -0.013898337
FINAL SINGLE POINT ENERGY     -1339.855402514034

DIPOLE MOMENT
-------------
                                X             Y             Z
Electronic contribution:     23.33620      20.12104      14.43868
Nuclear contribution   :    -23.63530     -20.78510     -14.72876
                        -----------------------------------------
Total Dipole Moment    :     -0.29910      -0.66407      -0.29009
                        -----------------------------------------
Magnitude (a.u.)       :      0.78396
Magnitude (Debye)      :      1.99267

Rotational constants in cm-1:     0.017690     0.009371     0.006355
Rotational constants in MHz :   530.338851   280.923604   190.505794

                             ****ORCA TERMINATED NORMALLY****
TOTAL RUN TIME: 0 days 0 hours 0 minutes 37 seconds 560 msec
