                         Program Version 4.2.1 -  RELEASE  -
|  1> ! wB97X-D3 SP def2-SVP
|  2> %pal
|  3> nprocs 16
|  4> end
|  5>
|  6> * xyz 0 1
|  7> S 	 -64.8533 	 52.6219 	 128.292
|  8> C 	 -66.1694 	 53.4619 	 129.092
|  9> C 	 -66.3451 	 54.7388 	 128.538
| 10> C 	 -65.5396 	 54.9227 	 127.381
| 11> C 	 -64.7011 	 53.8686 	 127.069
| 12> H 	 -65.4355 	 55.8122 	 126.773
| 13> C 	 -67.5096 	 55.6724 	 129.01
| 14> H 	 -67.054 	 56.6855 	 128.889
| 15> H 	 -67.7423 	 55.5337 	 130.09
| 16> C 	 -68.9063 	 55.5753 	 128.292
| 17> H 	 -69.5671 	 54.8024 	 128.725
| 18> H 	 -69.3967 	 56.5129 	 128.333
| 19> C 	 -68.8892 	 55.277 	 126.84
| 20> H 	 -68.2535 	 56.0612 	 126.334
| 21> H 	 -68.4431 	 54.413 	 126.397
| 22> H 	 -69.9382 	 55.4044 	 126.45
| 23> S 	 -62.0145 	 53.1808 	 126.379
| 24> C 	 -61.6839 	 53.1726 	 124.713
| 25> C 	 -62.5815 	 53.9021 	 124.004
| 26> C 	 -63.7893 	 54.1327 	 124.708
| 27> C 	 -63.7334 	 53.7083 	 126.019
| 28> H 	 -62.3726 	 54.1451 	 122.994
| 29> C 	 -64.8955 	 54.9057 	 124.036
| 30> H 	 -64.4931 	 55.267 	 123.106
| 31> H 	 -64.9358 	 55.8534 	 124.67
| 32> C 	 -66.1875 	 54.1931 	 123.808
| 33> H 	 -66.5498 	 53.7208 	 124.664
| 34> H 	 -65.9821 	 53.565 	 122.966
| 35> C 	 -67.3331 	 55.093 	 123.389
| 36> H 	 -67.1649 	 55.4719 	 122.382
| 37> H 	 -67.5102 	 55.9099 	 124.141
| 38> H 	 -68.1985 	 54.6111 	 123.293
| 39> H 	 -66.8861 	 52.9763 	 129.73
| 40> H 	 -60.7051 	 53.0827 	 124.294
| 41> *
| 42>
| 43>                          ****END OF INPUT****

CARTESIAN COORDINATES (ANGSTROEM)
---------------------------------
  S    -64.853300   52.621900  128.292000
  C    -66.169400   53.461900  129.092000
  C    -66.345100   54.738800  128.538000
  C    -65.539600   54.922700  127.381000
  C    -64.701100   53.868600  127.069000
  H    -65.435500   55.812200  126.773000
  C    -67.509600   55.672400  129.010000
  H    -67.054000   56.685500  128.889000
  H    -67.742300   55.533700  130.090000
  C    -68.906300   55.575300  128.292000
  H    -69.567100   54.802400  128.725000
  H    -69.396700   56.512900  128.333000
  C    -68.889200   55.277000  126.840000
  H    -68.253500   56.061200  126.334000
  H    -68.443100   54.413000  126.397000
  H    -69.938200   55.404400  126.450000
  S    -62.014500   53.180800  126.379000
  C    -61.683900   53.172600  124.713000
  C    -62.581500   53.902100  124.004000
  C    -63.789300   54.132700  124.708000
  C    -63.733400   53.708300  126.019000
  H    -62.372600   54.145100  122.994000
  C    -64.895500   54.905700  124.036000
  H    -64.493100   55.267000  123.106000
  H    -64.935800   55.853400  124.670000
  C    -66.187500   54.193100  123.808000
  H    -66.549800   53.720800  124.664000
  H    -65.982100   53.565000  122.966000
  C    -67.333100   55.093000  123.389000
  H    -67.164900   55.471900  122.382000
  H    -67.510200   55.909900  124.141000
  H    -68.198500   54.611100  123.293000
  H    -66.886100   52.976300  129.730000
  H    -60.705100   53.082700  124.294000

 Total Charge           Charge          ....    0
 Multiplicity           Mult            ....    1
 Number of Electrons    NEL             ....  134
 Basis Dimension        Dim             ....  322

ORBITAL ENERGIES
----------------

  NO   OCC          E(Eh)            E(eV)
   0   2.0000     -88.965503     -2420.8744
   1   2.0000     -88.964608     -2420.8501
   2   2.0000     -10.330112      -281.0966
   3   2.0000     -10.328323      -281.0480
   4   2.0000     -10.315939      -280.7110
   5   2.0000     -10.308635      -280.5122
   6   2.0000     -10.307829      -280.4903
   7   2.0000     -10.304607      -280.4026
   8   2.0000     -10.300161      -280.2816
   9   2.0000     -10.297480      -280.2087
  10   2.0000     -10.292277      -280.0671
  11   2.0000     -10.287953      -279.9494
  12   2.0000     -10.285561      -279.8844
  13   2.0000     -10.277761      -279.6721
  14   2.0000     -10.275649      -279.6146
  15   2.0000     -10.267790      -279.4008
  16   2.0000      -8.080081      -219.8702
  17   2.0000      -8.079339      -219.8500
  18   2.0000      -6.038631      -164.3195
  19   2.0000      -6.037731      -164.2950
  20   2.0000      -6.034918      -164.2185
  21   2.0000      -6.033712      -164.1857
  22   2.0000      -6.030479      -164.0977
  23   2.0000      -6.030348      -164.0941
  24   2.0000      -1.007823       -27.4243
  25   2.0000      -0.985888       -26.8274
  26   2.0000      -0.919276       -25.0148
  27   2.0000      -0.908785       -24.7293
  28   2.0000      -0.873418       -23.7669
  29   2.0000      -0.859179       -23.3794
  30   2.0000      -0.845465       -23.0063
  31   2.0000      -0.815946       -22.2030
  32   2.0000      -0.788331       -21.4516
  33   2.0000      -0.774352       -21.0712
  34   2.0000      -0.712978       -19.4011
  35   2.0000      -0.699367       -19.0307
  36   2.0000      -0.693515       -18.8715
  37   2.0000      -0.662504       -18.0277
  38   2.0000      -0.641901       -17.4670
  39   2.0000      -0.615329       -16.7440
  40   2.0000      -0.594964       -16.1898
  41   2.0000      -0.580819       -15.8049
  42   2.0000      -0.568373       -15.4662
  43   2.0000      -0.555495       -15.1158
  44   2.0000      -0.544615       -14.8197
  45   2.0000      -0.526154       -14.3174
  46   2.0000      -0.518120       -14.0988
  47   2.0000      -0.512065       -13.9340
  48   2.0000      -0.510077       -13.8799
  49   2.0000      -0.501419       -13.6443
  50   2.0000      -0.496503       -13.5105
  51   2.0000      -0.485553       -13.2126
  52   2.0000      -0.472804       -12.8657
  53   2.0000      -0.462611       -12.5883
  54   2.0000      -0.457326       -12.4445
  55   2.0000      -0.449123       -12.2213
  56   2.0000      -0.442733       -12.0474
  57   2.0000      -0.434881       -11.8337
  58   2.0000      -0.433405       -11.7935
  59   2.0000      -0.425214       -11.5707
  60   2.0000      -0.418977       -11.4009
  61   2.0000      -0.415628       -11.3098
  62   2.0000      -0.405434       -11.0324
  63   2.0000      -0.352538        -9.5930
  64   2.0000      -0.334145        -9.0925
  65   2.0000      -0.329614        -8.9692
  66   2.0000      -0.286003        -7.7825
  67   0.0000       0.020539         0.5589
  68   0.0000       0.063449         1.7265
  69   0.0000       0.100680         2.7396
  70   0.0000       0.119326         3.2470
  71   0.0000       0.124546         3.3891

MULLIKEN ATOMIC CHARGES
-----------------------
   0 S :    0.104620
   1 C :   -0.114379
   2 C :   -0.085797
   3 C :    0.014427
   4 C :   -0.174135
   5 H :    0.005051
   6 C :    0.035952
   7 H :    0.037668
   8 H :    0.039559
   9 C :   -0.022959
  10 H :    0.032285
  11 H :    0.026328
  12 C :   -0.099718
  13 H :    0.016066
  14 H :    0.041126
  15 H :    0.039015
  16 S :    0.102120
  17 C :   -0.052996
  18 C :   -0.053892
  19 C :   -0.037941
  20 C :   -0.122170
  21 H :    0.005950
  22 C :    0.049075
  23 H :   -0.000124
  24 H :    0.034211
  25 C :   -0.015184
  26 H :    0.027073
  27 H :    0.026110
  28 C :   -0.006026
  29 H :    0.015080
  30 H :    0.029711
  31 H :   -0.001135
  32 H :    0.055092
  33 H :    0.049936
Sum of atomic charges:   -0.0000000

LOEWDIN ATOMIC CHARGES
----------------------
   0 S :    0.406598
   1 C :   -0.192265
   2 C :   -0.064072
   3 C :   -0.068644
   4 C :   -0.188919
   5 H :    0.028693
   6 C :   -0.034749
   7 H :    0.035543
   8 H :    0.036656
   9 C :   -0.041808
  10 H :    0.026746
  11 H :    0.026940
  12 C :   -0.075501
  13 H :    0.022233
  14 H :    0.018528
  15 H :    0.033755
  16 S :    0.390996
  17 C :   -0.193952
  18 C :   -0.070099
  19 C :   -0.050689
  20 C :   -0.180647
  21 H :    0.025309
  22 C :   -0.030401
  23 H :    0.025353
  24 H :    0.034231
  25 C :   -0.029502
  26 H :    0.018397
  27 H :    0.029489
  28 C :   -0.052062
  29 H :    0.023557
  30 H :    0.028040
  31 H :    0.006791
  32 H :    0.027920
  33 H :    0.027535

  Mayer bond orders larger than 0.100000
B(  0-S ,  1-C ) :   1.1537 B(  0-S ,  4-C ) :   1.1517 B(  1-C ,  2-C ) :   1.5825
B(  1-C ,  4-C ) :   0.1077 B(  1-C , 32-H ) :   0.9720 B(  2-C ,  3-C ) :   1.2455
B(  2-C ,  6-C ) :   1.0270 B(  3-C ,  4-C ) :   1.5574 B(  3-C ,  5-H ) :   0.9924
B(  4-C , 20-C ) :   1.0769 B(  6-C ,  7-H ) :   0.9387 B(  6-C ,  8-H ) :   0.9491
B(  6-C ,  9-C ) :   1.0594 B(  9-C , 10-H ) :   0.9558 B(  9-C , 11-H ) :   0.9500
B(  9-C , 12-C ) :   1.0963 B( 12-C , 13-H ) :   0.9668 B( 12-C , 14-H ) :   0.9687
B( 12-C , 15-H ) :   0.9691 B( 16-S , 17-C ) :   1.1580 B( 16-S , 20-C ) :   1.1170
B( 17-C , 18-C ) :   1.6253 B( 17-C , 33-H ) :   0.9576 B( 18-C , 19-C ) :   1.2453
B( 18-C , 21-H ) :   0.9919 B( 19-C , 20-C ) :   1.5993 B( 19-C , 22-C ) :   1.0314
B( 22-C , 23-H ) :   0.9272 B( 22-C , 24-H ) :   0.9316 B( 22-C , 25-C ) :   1.0653
B( 25-C , 26-H ) :   0.9579 B( 25-C , 27-H ) :   0.9462 B( 25-C , 28-C ) :   1.1027
B( 28-C , 29-H ) :   0.9673 B( 28-C , 30-H ) :   0.9694 B( 28-C , 31-H ) :   0.9680

Dispersion correction           -0.016307000
FINAL SINGLE POINT ENERGY     -1339.851970394392

DIPOLE MOMENT
-------------
                                X             Y             Z
Electronic contribution:     26.33854     -14.46457      11.04127
Nuclear contribution   :    -26.82837      14.96938     -11.45294
                        -----------------------------------------
Total Dipole Moment    :     -0.48983       0.50481      -0.41167
                        -----------------------------------------
Magnitude (a.u.)       :      0.81501
Magnitude (Debye)      :      2.07159

Rotational constants in cm-1:     0.019244     0.010372     0.007262
Rotational constants in MHz :   576.932936   310.941435   217.717242

                             ****ORCA TERMINATED NORMALLY****
TOTAL RUN TIME: 0 days 0 hours 0 minutes 36 seconds 615 msec
