                         Program Version 4.2.1 -  RELEASE  -
|  1> ! wB97X-D3 SP def2-SVP
|  2> %pal
|  3> nprocs 16
|  4> end
|  5>
|  6> * xyz 0 1
|  7> S 	 -15.8056 	 39.7341 	 38.3434
|  8> C 	 -14.5384 	 40.9067 	 38.7115
|  9> C 	 -13.3313 	 40.3298 	 39.1448
| 10> C 	 -13.4248 	 38.8875 	 39.0799
| 11> C 	 -14.6606 	 38.3845 	 38.6106
| 12> H 	 -12.6988 	 38.2252 	 39.4156
| 13> C 	 -12.0137 	 41.0618 	 39.6622
| 14> H 	 -11.8537 	 40.6138 	 40.6811
| 15> H 	 -12.31 	 42.1004 	 39.8289
| 16> C 	 -10.8792 	 40.88 	 38.7665
| 17> H 	 -10.7025 	 39.7679 	 38.598
| 18> H 	 -11.1795 	 41.3053 	 37.8591
| 19> C 	 -9.54314 	 41.623 	 39.2153
| 20> H 	 -9.74178 	 42.7196 	 39.3959
| 21> H 	 -9.05094 	 41.2252 	 40.101
| 22> H 	 -8.8529 	 41.5154 	 38.356
| 23> S 	 -15.9987 	 36.2747 	 39.7076
| 24> C 	 -15.8438 	 34.6978 	 39.0387
| 25> C 	 -15.3456 	 34.7838 	 37.731
| 26> C 	 -14.7583 	 36.0495 	 37.469
| 27> C 	 -15.0108 	 36.9697 	 38.4803
| 28> H 	 -15.2196 	 33.9333 	 37.082
| 29> C 	 -14.0539 	 36.2944 	 36.1538
| 30> H 	 -13.4192 	 35.4074 	 35.9721
| 31> H 	 -13.3596 	 37.0758 	 36.4059
| 32> C 	 -14.9824 	 36.5585 	 35.0033
| 33> H 	 -15.8118 	 37.0729 	 35.3757
| 34> H 	 -15.2711 	 35.5785 	 34.5814
| 35> C 	 -14.3267 	 37.3703 	 33.9212
| 36> H 	 -13.5412 	 36.8194 	 33.3556
| 37> H 	 -13.9522 	 38.3013 	 34.4032
| 38> H 	 -15.0675 	 37.7601 	 33.2247
| 39> H 	 -14.8303 	 41.9088 	 38.8721
| 40> H 	 -16.3608 	 33.7454 	 39.301
| 41> *
| 42>
| 43>                          ****END OF INPUT****

CARTESIAN COORDINATES (ANGSTROEM)
---------------------------------
  S    -15.805600   39.734100   38.343400
  C    -14.538400   40.906700   38.711500
  C    -13.331300   40.329800   39.144800
  C    -13.424800   38.887500   39.079900
  C    -14.660600   38.384500   38.610600
  H    -12.698800   38.225200   39.415600
  C    -12.013700   41.061800   39.662200
  H    -11.853700   40.613800   40.681100
  H    -12.310000   42.100400   39.828900
  C    -10.879200   40.880000   38.766500
  H    -10.702500   39.767900   38.598000
  H    -11.179500   41.305300   37.859100
  C     -9.543140   41.623000   39.215300
  H     -9.741780   42.719600   39.395900
  H     -9.050940   41.225200   40.101000
  H     -8.852900   41.515400   38.356000
  S    -15.998700   36.274700   39.707600
  C    -15.843800   34.697800   39.038700
  C    -15.345600   34.783800   37.731000
  C    -14.758300   36.049500   37.469000
  C    -15.010800   36.969700   38.480300
  H    -15.219600   33.933300   37.082000
  C    -14.053900   36.294400   36.153800
  H    -13.419200   35.407400   35.972100
  H    -13.359600   37.075800   36.405900
  C    -14.982400   36.558500   35.003300
  H    -15.811800   37.072900   35.375700
  H    -15.271100   35.578500   34.581400
  C    -14.326700   37.370300   33.921200
  H    -13.541200   36.819400   33.355600
  H    -13.952200   38.301300   34.403200
  H    -15.067500   37.760100   33.224700
  H    -14.830300   41.908800   38.872100
  H    -16.360800   33.745400   39.301000

 Total Charge           Charge          ....    0
 Multiplicity           Mult            ....    1
 Number of Electrons    NEL             ....  134
 Basis Dimension        Dim             ....  322

ORBITAL ENERGIES
----------------

  NO   OCC          E(Eh)            E(eV)
   0   2.0000     -88.967989     -2420.9421
   1   2.0000     -88.966461     -2420.9005
   2   2.0000     -10.334382      -281.2128
   3   2.0000     -10.321476      -280.8616
   4   2.0000     -10.317743      -280.7601
   5   2.0000     -10.317094      -280.7424
   6   2.0000     -10.310740      -280.5695
   7   2.0000     -10.299601      -280.2664
   8   2.0000     -10.297654      -280.2134
   9   2.0000     -10.295811      -280.1633
  10   2.0000     -10.289641      -279.9954
  11   2.0000     -10.289576      -279.9936
  12   2.0000     -10.288797      -279.9724
  13   2.0000     -10.282027      -279.7882
  14   2.0000     -10.276355      -279.6338
  15   2.0000     -10.275803      -279.6188
  16   2.0000      -8.081946      -219.9209
  17   2.0000      -8.081787      -219.9166
  18   2.0000      -6.040398      -164.3676
  19   2.0000      -6.040324      -164.3656
  20   2.0000      -6.036439      -164.2599
  21   2.0000      -6.036294      -164.2559
  22   2.0000      -6.032764      -164.1598
  23   2.0000      -6.032566      -164.1545
  24   2.0000      -1.005622       -27.3644
  25   2.0000      -0.977300       -26.5937
  26   2.0000      -0.915638       -24.9158
  27   2.0000      -0.912612       -24.8334
  28   2.0000      -0.865077       -23.5399
  29   2.0000      -0.852380       -23.1944
  30   2.0000      -0.842178       -22.9168
  31   2.0000      -0.808418       -21.9982
  32   2.0000      -0.781109       -21.2551
  33   2.0000      -0.769233       -20.9319
  34   2.0000      -0.702867       -19.1260
  35   2.0000      -0.695490       -18.9252
  36   2.0000      -0.691770       -18.8240
  37   2.0000      -0.660662       -17.9775
  38   2.0000      -0.647613       -17.6224
  39   2.0000      -0.617428       -16.8011
  40   2.0000      -0.591403       -16.0929
  41   2.0000      -0.570567       -15.5259
  42   2.0000      -0.569426       -15.4949
  43   2.0000      -0.556399       -15.1404
  44   2.0000      -0.524373       -14.2689
  45   2.0000      -0.521794       -14.1987
  46   2.0000      -0.520150       -14.1540
  47   2.0000      -0.503910       -13.7121
  48   2.0000      -0.502498       -13.6737
  49   2.0000      -0.496454       -13.5092
  50   2.0000      -0.493700       -13.4343
  51   2.0000      -0.480345       -13.0708
  52   2.0000      -0.468238       -12.7414
  53   2.0000      -0.466548       -12.6954
  54   2.0000      -0.458538       -12.4774
  55   2.0000      -0.447363       -12.1734
  56   2.0000      -0.444536       -12.0964
  57   2.0000      -0.439894       -11.9701
  58   2.0000      -0.429458       -11.6861
  59   2.0000      -0.424546       -11.5525
  60   2.0000      -0.418446       -11.3865
  61   2.0000      -0.416471       -11.3328
  62   2.0000      -0.412357       -11.2208
  63   2.0000      -0.335600        -9.1321
  64   2.0000      -0.328011        -8.9256
  65   2.0000      -0.322989        -8.7890
  66   2.0000      -0.305583        -8.3153
  67   0.0000       0.039583         1.0771
  68   0.0000       0.050719         1.3801
  69   0.0000       0.112805         3.0696
  70   0.0000       0.118759         3.2316
  71   0.0000       0.128361         3.4929

MULLIKEN ATOMIC CHARGES
-----------------------
   0 S :    0.103467
   1 C :   -0.118572
   2 C :   -0.101676
   3 C :    0.067467
   4 C :   -0.177418
   5 H :   -0.006849
   6 C :    0.077030
   7 H :    0.039046
   8 H :    0.017083
   9 C :   -0.069396
  10 H :    0.042852
  11 H :    0.018995
  12 C :   -0.067938
  13 H :    0.040312
  14 H :    0.039560
  15 H :    0.044094
  16 S :    0.131796
  17 C :   -0.096658
  18 C :   -0.048548
  19 C :   -0.065038
  20 C :   -0.191123
  21 H :    0.016488
  22 C :    0.086335
  23 H :    0.021151
  24 H :    0.013051
  25 C :   -0.019917
  26 H :    0.019690
  27 H :    0.026968
  28 C :   -0.060573
  29 H :    0.040303
  30 H :    0.034321
  31 H :    0.029344
  32 H :    0.042089
  33 H :    0.072265
Sum of atomic charges:   -0.0000000

LOEWDIN ATOMIC CHARGES
----------------------
   0 S :    0.383416
   1 C :   -0.190610
   2 C :   -0.055380
   3 C :   -0.047713
   4 C :   -0.191017
   5 H :    0.019826
   6 C :   -0.029280
   7 H :    0.035294
   8 H :    0.027082
   9 C :   -0.044836
  10 H :    0.033606
  11 H :    0.020684
  12 C :   -0.068421
  13 H :    0.030864
  14 H :    0.023228
  15 H :    0.030878
  16 S :    0.440750
  17 C :   -0.207676
  18 C :   -0.072308
  19 C :   -0.051568
  20 C :   -0.225732
  21 H :    0.027300
  22 C :   -0.031865
  23 H :    0.031610
  24 H :    0.026128
  25 C :   -0.035962
  26 H :    0.019783
  27 H :    0.027406
  28 C :   -0.066638
  29 H :    0.028171
  30 H :    0.029993
  31 H :    0.025112
  32 H :    0.016607
  33 H :    0.041269

  Mayer bond orders larger than 0.100000
B(  0-S ,  1-C ) :   1.1454 B(  0-S ,  4-C ) :   1.1386 B(  1-C ,  2-C ) :   1.6147
B(  1-C ,  4-C ) :   0.1014 B(  1-C , 32-H ) :   0.9680 B(  2-C ,  3-C ) :   1.2365
B(  2-C ,  6-C ) :   1.0060 B(  3-C ,  4-C ) :   1.5894 B(  3-C ,  5-H ) :   0.9960
B(  4-C , 20-C ) :   1.0275 B(  6-C ,  7-H ) :   0.9399 B(  6-C ,  8-H ) :   0.9398
B(  6-C ,  9-C ) :   1.0739 B(  9-C , 10-H ) :   0.9539 B(  9-C , 11-H ) :   0.9495
B(  9-C , 12-C ) :   1.0724 B( 12-C , 13-H ) :   0.9744 B( 12-C , 14-H ) :   0.9780
B( 12-C , 15-H ) :   0.9776 B( 16-S , 17-C ) :   1.1773 B( 16-S , 20-C ) :   1.1590
B( 17-C , 18-C ) :   1.5786 B( 17-C , 20-C ) :   0.1036 B( 17-C , 33-H ) :   0.9594
B( 18-C , 19-C ) :   1.2783 B( 18-C , 21-H ) :   0.9844 B( 19-C , 20-C ) :   1.5736
B( 19-C , 22-C ) :   1.0470 B( 22-C , 23-H ) :   0.9250 B( 22-C , 24-H ) :   0.9306
B( 22-C , 25-C ) :   1.0626 B( 25-C , 26-H ) :   0.9553 B( 25-C , 27-H ) :   0.9451
B( 25-C , 28-C ) :   1.1015 B( 28-C , 29-H ) :   0.9734 B( 28-C , 30-H ) :   0.9741
B( 28-C , 31-H ) :   0.9727

Dispersion correction           -0.013932619
FINAL SINGLE POINT ENERGY     -1339.871268994741

DIPOLE MOMENT
-------------
                                X             Y             Z
Electronic contribution:    -21.55650      -7.34861      13.23639
Nuclear contribution   :     21.99705       7.36348     -13.40239
                        -----------------------------------------
Total Dipole Moment    :      0.44054       0.01487      -0.16600
                        -----------------------------------------
Magnitude (a.u.)       :      0.47102
Magnitude (Debye)      :      1.19723

Rotational constants in cm-1:     0.017868     0.007865     0.006886
Rotational constants in MHz :   535.666294   235.778993   206.427123

                             ****ORCA TERMINATED NORMALLY****
TOTAL RUN TIME: 0 days 0 hours 0 minutes 33 seconds 587 msec
