                         Program Version 4.2.1 -  RELEASE  -
|  1> ! wB97X-D3 SP def2-SVP
|  2> %pal
|  3> nprocs 16
|  4> end
|  5>
|  6> * xyz 0 1
|  7> S 	 -37.3905 	 55.9853 	 110.359
|  8> C 	 -37.6991 	 56.7078 	 111.977
|  9> C 	 -37.3376 	 55.8942 	 113.026
| 10> C 	 -36.8661 	 54.6632 	 112.529
| 11> C 	 -36.9198 	 54.5345 	 111.117
| 12> H 	 -36.5205 	 53.8143 	 113.108
| 13> C 	 -37.2755 	 56.4095 	 114.477
| 14> H 	 -38.2698 	 56.6859 	 114.691
| 15> H 	 -36.8148 	 57.3807 	 114.669
| 16> C 	 -36.9435 	 55.4006 	 115.583
| 17> H 	 -36.1779 	 54.7953 	 115.128
| 18> H 	 -36.534 	 55.8909 	 116.511
| 19> C 	 -38.1252 	 54.5604 	 116.072
| 20> H 	 -37.8858 	 53.747 	 116.714
| 21> H 	 -38.9615 	 55.0475 	 116.648
| 22> H 	 -38.6339 	 53.9664 	 115.262
| 23> S 	 -34.997 	 52.6633 	 110.52
| 24> C 	 -35.253 	 51.4887 	 109.241
| 25> C 	 -36.5265 	 51.6767 	 108.694
| 26> C 	 -37.2861 	 52.7346 	 109.332
| 27> C 	 -36.545 	 53.4307 	 110.212
| 28> H 	 -36.926 	 51.0575 	 107.922
| 29> C 	 -38.7204 	 53.0431 	 108.877
| 30> H 	 -38.8777 	 52.4779 	 107.987
| 31> H 	 -38.7973 	 54.0618 	 108.555
| 32> C 	 -39.804 	 52.6694 	 109.802
| 33> H 	 -40.6377 	 53.099 	 109.365
| 34> H 	 -39.6416 	 53.1381 	 110.749
| 35> C 	 -40.0378 	 51.1588 	 109.907
| 36> H 	 -40.9055 	 51.1144 	 110.542
| 37> H 	 -39.2368 	 50.6301 	 110.386
| 38> H 	 -40.1737 	 50.6303 	 108.975
| 39> H 	 -37.9968 	 57.7377 	 112.057
| 40> H 	 -34.5436 	 50.6549 	 108.869
| 41> *
| 42>
| 43>                          ****END OF INPUT****

CARTESIAN COORDINATES (ANGSTROEM)
---------------------------------
  S    -37.390500   55.985300  110.359000
  C    -37.699100   56.707800  111.977000
  C    -37.337600   55.894200  113.026000
  C    -36.866100   54.663200  112.529000
  C    -36.919800   54.534500  111.117000
  H    -36.520500   53.814300  113.108000
  C    -37.275500   56.409500  114.477000
  H    -38.269800   56.685900  114.691000
  H    -36.814800   57.380700  114.669000
  C    -36.943500   55.400600  115.583000
  H    -36.177900   54.795300  115.128000
  H    -36.534000   55.890900  116.511000
  C    -38.125200   54.560400  116.072000
  H    -37.885800   53.747000  116.714000
  H    -38.961500   55.047500  116.648000
  H    -38.633900   53.966400  115.262000
  S    -34.997000   52.663300  110.520000
  C    -35.253000   51.488700  109.241000
  C    -36.526500   51.676700  108.694000
  C    -37.286100   52.734600  109.332000
  C    -36.545000   53.430700  110.212000
  H    -36.926000   51.057500  107.922000
  C    -38.720400   53.043100  108.877000
  H    -38.877700   52.477900  107.987000
  H    -38.797300   54.061800  108.555000
  C    -39.804000   52.669400  109.802000
  H    -40.637700   53.099000  109.365000
  H    -39.641600   53.138100  110.749000
  C    -40.037800   51.158800  109.907000
  H    -40.905500   51.114400  110.542000
  H    -39.236800   50.630100  110.386000
  H    -40.173700   50.630300  108.975000
  H    -37.996800   57.737700  112.057000
  H    -34.543600   50.654900  108.869000

 Total Charge           Charge          ....    0
 Multiplicity           Mult            ....    1
 Number of Electrons    NEL             ....  134
 Basis Dimension        Dim             ....  322

ORBITAL ENERGIES
----------------

  NO   OCC          E(Eh)            E(eV)
   0   2.0000     -88.969197     -2420.9749
   1   2.0000     -88.964437     -2420.8454
   2   2.0000     -10.330684      -281.1122
   3   2.0000     -10.326592      -281.0009
   4   2.0000     -10.322403      -280.8869
   5   2.0000     -10.312693      -280.6226
   6   2.0000     -10.306767      -280.4614
   7   2.0000     -10.298078      -280.2250
   8   2.0000     -10.297723      -280.2153
   9   2.0000     -10.294025      -280.1147
  10   2.0000     -10.293129      -280.0903
  11   2.0000     -10.291628      -280.0494
  12   2.0000     -10.281042      -279.7614
  13   2.0000     -10.278502      -279.6923
  14   2.0000     -10.268834      -279.4292
  15   2.0000     -10.268226      -279.4126
  16   2.0000      -8.083700      -219.9687
  17   2.0000      -8.078930      -219.8389
  18   2.0000      -6.041959      -164.4101
  19   2.0000      -6.038275      -164.3098
  20   2.0000      -6.037576      -164.2908
  21   2.0000      -6.034719      -164.2131
  22   2.0000      -6.033417      -164.1776
  23   2.0000      -6.029615      -164.0742
  24   2.0000      -1.007242       -27.4084
  25   2.0000      -0.983102       -26.7516
  26   2.0000      -0.916758       -24.9462
  27   2.0000      -0.913481       -24.8571
  28   2.0000      -0.867664       -23.6103
  29   2.0000      -0.847430       -23.0597
  30   2.0000      -0.841582       -22.9006
  31   2.0000      -0.811017       -22.0689
  32   2.0000      -0.789044       -21.4710
  33   2.0000      -0.778833       -21.1931
  34   2.0000      -0.712674       -19.3929
  35   2.0000      -0.699891       -19.0450
  36   2.0000      -0.682022       -18.5588
  37   2.0000      -0.666006       -18.1230
  38   2.0000      -0.639676       -17.4065
  39   2.0000      -0.623751       -16.9731
  40   2.0000      -0.595316       -16.1994
  41   2.0000      -0.566039       -15.4027
  42   2.0000      -0.554400       -15.0860
  43   2.0000      -0.549611       -14.9557
  44   2.0000      -0.548308       -14.9202
  45   2.0000      -0.536411       -14.5965
  46   2.0000      -0.519875       -14.1465
  47   2.0000      -0.511858       -13.9284
  48   2.0000      -0.498338       -13.5605
  49   2.0000      -0.489839       -13.3292
  50   2.0000      -0.486372       -13.2349
  51   2.0000      -0.478012       -13.0074
  52   2.0000      -0.476777       -12.9738
  53   2.0000      -0.467922       -12.7328
  54   2.0000      -0.460726       -12.5370
  55   2.0000      -0.448204       -12.1963
  56   2.0000      -0.438681       -11.9371
  57   2.0000      -0.437406       -11.9024
  58   2.0000      -0.432788       -11.7768
  59   2.0000      -0.422813       -11.5053
  60   2.0000      -0.420633       -11.4460
  61   2.0000      -0.417612       -11.3638
  62   2.0000      -0.410624       -11.1736
  63   2.0000      -0.340057        -9.2534
  64   2.0000      -0.335277        -9.1234
  65   2.0000      -0.329642        -8.9700
  66   2.0000      -0.294640        -8.0176
  67   0.0000       0.031236         0.8500
  68   0.0000       0.067287         1.8310
  69   0.0000       0.110440         3.0052
  70   0.0000       0.114416         3.1134
  71   0.0000       0.132130         3.5954

MULLIKEN ATOMIC CHARGES
-----------------------
   0 S :    0.118330
   1 C :   -0.145040
   2 C :   -0.033898
   3 C :    0.006820
   4 C :   -0.181728
   5 H :    0.013073
   6 C :    0.089404
   7 H :    0.007557
   8 H :    0.038945
   9 C :   -0.065695
  10 H :    0.031883
  11 H :    0.041283
  12 C :   -0.086053
  13 H :    0.022292
  14 H :    0.039431
  15 H :    0.030330
  16 S :    0.104694
  17 C :   -0.120810
  18 C :   -0.023409
  19 C :   -0.057813
  20 C :   -0.148199
  21 H :    0.009154
  22 C :    0.101372
  23 H :   -0.012666
  24 H :    0.021629
  25 C :   -0.012486
  26 H :    0.006342
  27 H :    0.030707
  28 C :   -0.039528
  29 H :    0.030413
  30 H :    0.031751
  31 H :    0.021422
  32 H :    0.039749
  33 H :    0.090744
Sum of atomic charges:   -0.0000000

LOEWDIN ATOMIC CHARGES
----------------------
   0 S :    0.425641
   1 C :   -0.182624
   2 C :   -0.055045
   3 C :   -0.075600
   4 C :   -0.202629
   5 H :    0.028408
   6 C :   -0.034155
   7 H :    0.029802
   8 H :    0.038643
   9 C :   -0.042546
  10 H :    0.023066
  11 H :    0.036221
  12 C :   -0.083635
  13 H :    0.021766
  14 H :    0.031278
  15 H :    0.029535
  16 S :    0.401294
  17 C :   -0.201127
  18 C :   -0.070779
  19 C :   -0.056741
  20 C :   -0.205690
  21 H :    0.024397
  22 C :   -0.027654
  23 H :    0.022838
  24 H :    0.023022
  25 C :   -0.029569
  26 H :    0.018728
  27 H :    0.025380
  28 C :   -0.058810
  29 H :    0.027709
  30 H :    0.023346
  31 H :    0.021804
  32 H :    0.020219
  33 H :    0.053509

  Mayer bond orders larger than 0.100000
B(  0-S ,  1-C ) :   1.1437 B(  0-S ,  4-C ) :   1.1975 B(  1-C ,  2-C ) :   1.6050
B(  1-C ,  4-C ) :   0.1097 B(  1-C , 32-H ) :   0.9750 B(  2-C ,  3-C ) :   1.2647
B(  2-C ,  6-C ) :   0.9857 B(  3-C ,  4-C ) :   1.5502 B(  3-C ,  5-H ) :   0.9898
B(  4-C , 20-C ) :   0.9927 B(  6-C ,  7-H ) :   0.9307 B(  6-C ,  8-H ) :   0.9436
B(  6-C ,  9-C ) :   1.0671 B(  9-C , 10-H ) :   0.9547 B(  9-C , 11-H ) :   0.9529
B(  9-C , 12-C ) :   1.0849 B( 12-C , 13-H ) :   0.9731 B( 12-C , 14-H ) :   0.9722
B( 12-C , 15-H ) :   0.9735 B( 16-S , 17-C ) :   1.1498 B( 16-S , 20-C ) :   1.1246
B( 17-C , 18-C ) :   1.6132 B( 17-C , 33-H ) :   0.9555 B( 18-C , 19-C ) :   1.2380
B( 18-C , 21-H ) :   0.9879 B( 19-C , 20-C ) :   1.6348 B( 19-C , 22-C ) :   1.0289
B( 22-C , 23-H ) :   0.9217 B( 22-C , 24-H ) :   0.9330 B( 22-C , 25-C ) :   1.0887
B( 25-C , 26-H ) :   0.9455 B( 25-C , 27-H ) :   0.9526 B( 25-C , 28-C ) :   1.0774
B( 28-C , 29-H ) :   0.9743 B( 28-C , 30-H ) :   0.9765 B( 28-C , 31-H ) :   0.9732

Dispersion correction           -0.014749517
FINAL SINGLE POINT ENERGY     -1339.864991178260

DIPOLE MOMENT
-------------
                                X             Y             Z
Electronic contribution:     15.99527       5.32253     -14.23291
Nuclear contribution   :    -16.34116      -5.38608      14.45048
                        -----------------------------------------
Total Dipole Moment    :     -0.34589      -0.06355       0.21756
                        -----------------------------------------
Magnitude (a.u.)       :      0.41354
Magnitude (Debye)      :      1.05113

Rotational constants in cm-1:     0.018897     0.008288     0.007855
Rotational constants in MHz :   566.510564   248.477558   235.475726

                             ****ORCA TERMINATED NORMALLY****
TOTAL RUN TIME: 0 days 0 hours 0 minutes 30 seconds 472 msec
