                         Program Version 4.2.1 -  RELEASE  -
|  1> ! wB97X-D3 SP def2-SVP
|  2> %pal
|  3> nprocs 16
|  4> end
|  5>
|  6> * xyz 0 1
|  7> S 	 55.6698 	 4.21397 	 89.3393
|  8> C 	 56.265 	 4.77902 	 87.8467
|  9> C 	 55.6813 	 4.22137 	 86.7601
| 10> C 	 54.9099 	 3.07855 	 87.1661
| 11> C 	 54.9424 	 2.84383 	 88.5525
| 12> H 	 54.3545 	 2.44841 	 86.4899
| 13> C 	 55.8057 	 4.69546 	 85.3153
| 14> H 	 56.2157 	 5.69984 	 85.3049
| 15> H 	 54.7315 	 4.69921 	 84.9298
| 16> C 	 56.8168 	 3.93746 	 84.4668
| 17> H 	 57.8095 	 4.0152 	 84.9613
| 18> H 	 56.5242 	 2.8971 	 84.3845
| 19> C 	 56.942 	 4.35802 	 83.0144
| 20> H 	 57.1446 	 5.39091 	 82.8848
| 21> H 	 57.5937 	 3.72762 	 82.4045
| 22> H 	 56.0048 	 4.20774 	 82.5744
| 23> S 	 53.4235 	 2.10805 	 90.7318
| 24> C 	 52.8335 	 0.524533 	 90.8961
| 25> C 	 53.4882 	 -0.308684 	 90.0062
| 26> C 	 54.2349 	 0.390938 	 89.0124
| 27> C 	 54.28 	 1.76971 	 89.2522
| 28> H 	 53.3138 	 -1.35694 	 89.9542
| 29> C 	 54.9228 	 -0.298757 	 87.8921
| 30> H 	 55.8075 	 -0.712724 	 88.342
| 31> H 	 55.3266 	 0.489835 	 87.2592
| 32> C 	 54.0807 	 -1.28384 	 87.0052
| 33> H 	 53.4446 	 -0.745946 	 86.3474
| 34> H 	 53.522 	 -1.89839 	 87.7305
| 35> C 	 54.9237 	 -2.13294 	 86.1348
| 36> H 	 55.4207 	 -1.56844 	 85.3356
| 37> H 	 54.3362 	 -2.8812 	 85.5829
| 38> H 	 55.5771 	 -2.74227 	 86.7145
| 39> H 	 56.9466 	 5.53267 	 87.6336
| 40> H 	 52.1335 	 0.270603 	 91.6574
| 41> *
| 42>
| 43>                          ****END OF INPUT****

CARTESIAN COORDINATES (ANGSTROEM)
---------------------------------
  S     55.669800    4.213970   89.339300
  C     56.265000    4.779020   87.846700
  C     55.681300    4.221370   86.760100
  C     54.909900    3.078550   87.166100
  C     54.942400    2.843830   88.552500
  H     54.354500    2.448410   86.489900
  C     55.805700    4.695460   85.315300
  H     56.215700    5.699840   85.304900
  H     54.731500    4.699210   84.929800
  C     56.816800    3.937460   84.466800
  H     57.809500    4.015200   84.961300
  H     56.524200    2.897100   84.384500
  C     56.942000    4.358020   83.014400
  H     57.144600    5.390910   82.884800
  H     57.593700    3.727620   82.404500
  H     56.004800    4.207740   82.574400
  S     53.423500    2.108050   90.731800
  C     52.833500    0.524533   90.896100
  C     53.488200   -0.308684   90.006200
  C     54.234900    0.390938   89.012400
  C     54.280000    1.769710   89.252200
  H     53.313800   -1.356940   89.954200
  C     54.922800   -0.298757   87.892100
  H     55.807500   -0.712724   88.342000
  H     55.326600    0.489835   87.259200
  C     54.080700   -1.283840   87.005200
  H     53.444600   -0.745946   86.347400
  H     53.522000   -1.898390   87.730500
  C     54.923700   -2.132940   86.134800
  H     55.420700   -1.568440   85.335600
  H     54.336200   -2.881200   85.582900
  H     55.577100   -2.742270   86.714500
  H     56.946600    5.532670   87.633600
  H     52.133500    0.270603   91.657400

 Total Charge           Charge          ....    0
 Multiplicity           Mult            ....    1
 Number of Electrons    NEL             ....  134
 Basis Dimension        Dim             ....  322

ORBITAL ENERGIES
----------------

  NO   OCC          E(Eh)            E(eV)
   0   2.0000     -88.967864     -2420.9387
   1   2.0000     -88.961646     -2420.7695
   2   2.0000     -10.329857      -281.0897
   3   2.0000     -10.323402      -280.9140
   4   2.0000     -10.313920      -280.6560
   5   2.0000     -10.301234      -280.3108
   6   2.0000     -10.299788      -280.2715
   7   2.0000     -10.299497      -280.2635
   8   2.0000     -10.296339      -280.1776
   9   2.0000     -10.294215      -280.1198
  10   2.0000     -10.290149      -280.0092
  11   2.0000     -10.286998      -279.9235
  12   2.0000     -10.285805      -279.8910
  13   2.0000     -10.283864      -279.8382
  14   2.0000     -10.273969      -279.5689
  15   2.0000     -10.270717      -279.4804
  16   2.0000      -8.083487      -219.9629
  17   2.0000      -8.077805      -219.8082
  18   2.0000      -6.041980      -164.4106
  19   2.0000      -6.038088      -164.3047
  20   2.0000      -6.036147      -164.2519
  21   2.0000      -6.034006      -164.1936
  22   2.0000      -6.032067      -164.1409
  23   2.0000      -6.028719      -164.0498
  24   2.0000      -1.013046       -27.5664
  25   2.0000      -0.992138       -26.9974
  26   2.0000      -0.915858       -24.9218
  27   2.0000      -0.913680       -24.8625
  28   2.0000      -0.875592       -23.8261
  29   2.0000      -0.860815       -23.4240
  30   2.0000      -0.849706       -23.1217
  31   2.0000      -0.814949       -22.1759
  32   2.0000      -0.786228       -21.3944
  33   2.0000      -0.774579       -21.0774
  34   2.0000      -0.708477       -19.2786
  35   2.0000      -0.702554       -19.1175
  36   2.0000      -0.697977       -18.9929
  37   2.0000      -0.662144       -18.0179
  38   2.0000      -0.638023       -17.3615
  39   2.0000      -0.622523       -16.9397
  40   2.0000      -0.601000       -16.3540
  41   2.0000      -0.573953       -15.6181
  42   2.0000      -0.571051       -15.5391
  43   2.0000      -0.568768       -15.4770
  44   2.0000      -0.529474       -14.4077
  45   2.0000      -0.525774       -14.3070
  46   2.0000      -0.519597       -14.1390
  47   2.0000      -0.517357       -14.0780
  48   2.0000      -0.510316       -13.8864
  49   2.0000      -0.501246       -13.6396
  50   2.0000      -0.497925       -13.5492
  51   2.0000      -0.488807       -13.3011
  52   2.0000      -0.470889       -12.8135
  53   2.0000      -0.466446       -12.6926
  54   2.0000      -0.462389       -12.5822
  55   2.0000      -0.453799       -12.3485
  56   2.0000      -0.448056       -12.1922
  57   2.0000      -0.437975       -11.9179
  58   2.0000      -0.434228       -11.8159
  59   2.0000      -0.424754       -11.5581
  60   2.0000      -0.421547       -11.4709
  61   2.0000      -0.418650       -11.3920
  62   2.0000      -0.408983       -11.1290
  63   2.0000      -0.355944        -9.6857
  64   2.0000      -0.331475        -9.0199
  65   2.0000      -0.326326        -8.8798
  66   2.0000      -0.281722        -7.6661
  67   0.0000       0.028894         0.7863
  68   0.0000       0.071520         1.9461
  69   0.0000       0.108763         2.9596
  70   0.0000       0.124816         3.3964
  71   0.0000       0.132615         3.6086

MULLIKEN ATOMIC CHARGES
-----------------------
   0 S :    0.127798
   1 C :   -0.067562
   2 C :   -0.099554
   3 C :    0.017036
   4 C :   -0.152235
   5 H :    0.008582
   6 C :    0.057399
   7 H :    0.011960
   8 H :    0.047882
   9 C :   -0.082682
  10 H :    0.034561
  11 H :    0.020685
  12 C :    0.002379
  13 H :    0.018002
  14 H :    0.035158
  15 H :    0.002773
  16 S :    0.099132
  17 C :   -0.083035
  18 C :   -0.015892
  19 C :   -0.066713
  20 C :   -0.139034
  21 H :    0.008552
  22 C :    0.075057
  23 H :    0.031074
  24 H :    0.001207
  25 C :   -0.045341
  26 H :    0.022643
  27 H :    0.025757
  28 C :   -0.030632
  29 H :    0.032924
  30 H :    0.023930
  31 H :    0.019065
  32 H :    0.004707
  33 H :    0.054417
Sum of atomic charges:   -0.0000000

LOEWDIN ATOMIC CHARGES
----------------------
   0 S :    0.426334
   1 C :   -0.201976
   2 C :   -0.063325
   3 C :   -0.060381
   4 C :   -0.194184
   5 H :    0.025407
   6 C :   -0.032497
   7 H :    0.027771
   8 H :    0.042041
   9 C :   -0.042758
  10 H :    0.027855
  11 H :    0.020998
  12 C :   -0.060745
  13 H :    0.017630
  14 H :    0.031079
  15 H :    0.018006
  16 S :    0.424616
  17 C :   -0.189951
  18 C :   -0.071234
  19 C :   -0.055703
  20 C :   -0.205625
  21 H :    0.023664
  22 C :   -0.035996
  23 H :    0.034784
  24 H :    0.027677
  25 C :   -0.031539
  26 H :    0.021878
  27 H :    0.023333
  28 C :   -0.063844
  29 H :    0.027326
  30 H :    0.027971
  31 H :    0.019442
  32 H :    0.016274
  33 H :    0.025672

  Mayer bond orders larger than 0.100000
B(  0-S ,  1-C ) :   1.1371 B(  0-S ,  4-C ) :   1.1476 B(  1-C ,  2-C ) :   1.6348
B(  1-C , 32-H ) :   0.9635 B(  2-C ,  3-C ) :   1.2430 B(  2-C ,  6-C ) :   1.0260
B(  3-C ,  4-C ) :   1.5422 B(  3-C ,  5-H ) :   0.9943 B(  4-C , 20-C ) :   1.0802
B(  6-C ,  7-H ) :   0.9333 B(  6-C ,  8-H ) :   0.9392 B(  6-C ,  9-C ) :   1.0667
B(  9-C , 10-H ) :   0.9540 B(  9-C , 11-H ) :   0.9561 B(  9-C , 12-C ) :   1.0892
B( 12-C , 13-H ) :   0.9729 B( 12-C , 14-H ) :   0.9723 B( 12-C , 15-H ) :   0.9679
B( 16-S , 17-C ) :   1.1852 B( 16-S , 20-C ) :   1.1423 B( 17-C , 18-C ) :   1.5517
B( 17-C , 20-C ) :   0.1019 B( 17-C , 33-H ) :   0.9771 B( 18-C , 19-C ) :   1.2707
B( 18-C , 21-H ) :   0.9939 B( 19-C , 20-C ) :   1.5585 B( 19-C , 22-C ) :   1.0516
B( 22-C , 23-H ) :   0.9278 B( 22-C , 24-H ) :   0.9220 B( 22-C , 25-C ) :   1.0503
B( 25-C , 26-H ) :   0.9537 B( 25-C , 27-H ) :   0.9576 B( 25-C , 28-C ) :   1.1013
B( 28-C , 29-H ) :   0.9723 B( 28-C , 30-H ) :   0.9692 B( 28-C , 31-H ) :   0.9731

Dispersion correction           -0.013437575
FINAL SINGLE POINT ENERGY     -1339.874311859235

DIPOLE MOMENT
-------------
                                X             Y             Z
Electronic contribution:     -7.26834      11.01654      30.40145
Nuclear contribution   :      7.28025     -11.34168     -31.05067
                        -----------------------------------------
Total Dipole Moment    :      0.01191      -0.32514      -0.64922
                        -----------------------------------------
Magnitude (a.u.)       :      0.72619
Magnitude (Debye)      :      1.84582

Rotational constants in cm-1:     0.016807     0.008925     0.006084
Rotational constants in MHz :   503.853731   267.551450   182.403805

                             ****ORCA TERMINATED NORMALLY****
TOTAL RUN TIME: 0 days 0 hours 0 minutes 29 seconds 258 msec
