                         Program Version 4.2.1 -  RELEASE  -
|  1> ! wB97X-D3 SP def2-SVP
|  2> %pal
|  3> nprocs 16
|  4> end
|  5>
|  6> * xyz 0 1
|  7> S 	 -105.11 	 40.2056 	 128.074
|  8> C 	 -104.538 	 39.1504 	 129.334
|  9> C 	 -104.025 	 37.9731 	 128.872
| 10> C 	 -104.124 	 37.8791 	 127.455
| 11> C 	 -104.594 	 39.0742 	 126.827
| 12> H 	 -103.824 	 37.1137 	 126.844
| 13> C 	 -103.303 	 36.8464 	 129.642
| 14> H 	 -103.478 	 35.8197 	 129.209
| 15> H 	 -103.792 	 36.742 	 130.647
| 16> C 	 -101.752 	 37.0447 	 129.896
| 17> H 	 -101.468 	 36.3869 	 130.671
| 18> H 	 -101.258 	 36.6291 	 129.015
| 19> C 	 -101.11 	 38.4686 	 129.98
| 20> H 	 -101.421 	 39.1372 	 129.175
| 21> H 	 -101.272 	 38.9716 	 130.881
| 22> H 	 -100.008 	 38.3658 	 129.974
| 23> S 	 -103.459 	 40.6339 	 124.829
| 24> C 	 -103.939 	 40.2468 	 123.167
| 25> C 	 -104.795 	 39.1912 	 123.061
| 26> C 	 -105.167 	 38.6833 	 124.328
| 27> C 	 -104.583 	 39.3615 	 125.407
| 28> H 	 -105.043 	 38.8337 	 122.023
| 29> C 	 -106.257 	 37.6519 	 124.433
| 30> H 	 -105.87 	 36.6785 	 124.852
| 31> H 	 -106.684 	 37.4366 	 123.43
| 32> C 	 -107.472 	 38.0206 	 125.303
| 33> H 	 -108.064 	 38.6833 	 124.678
| 34> H 	 -107.145 	 38.4914 	 126.206
| 35> C 	 -108.344 	 36.8481 	 125.662
| 36> H 	 -108.923 	 36.4943 	 124.704
| 37> H 	 -109.142 	 37.1318 	 126.394
| 38> H 	 -107.764 	 36.012 	 126.052
| 39> H 	 -104.456 	 39.4806 	 130.341
| 40> H 	 -103.541 	 40.8077 	 122.334
| 41> *
| 42>
| 43>                          ****END OF INPUT****

CARTESIAN COORDINATES (ANGSTROEM)
---------------------------------
  S    -105.110000   40.205600  128.074000
  C    -104.538000   39.150400  129.334000
  C    -104.025000   37.973100  128.872000
  C    -104.124000   37.879100  127.455000
  C    -104.594000   39.074200  126.827000
  H    -103.824000   37.113700  126.844000
  C    -103.303000   36.846400  129.642000
  H    -103.478000   35.819700  129.209000
  H    -103.792000   36.742000  130.647000
  C    -101.752000   37.044700  129.896000
  H    -101.468000   36.386900  130.671000
  H    -101.258000   36.629100  129.015000
  C    -101.110000   38.468600  129.980000
  H    -101.421000   39.137200  129.175000
  H    -101.272000   38.971600  130.881000
  H    -100.008000   38.365800  129.974000
  S    -103.459000   40.633900  124.829000
  C    -103.939000   40.246800  123.167000
  C    -104.795000   39.191200  123.061000
  C    -105.167000   38.683300  124.328000
  C    -104.583000   39.361500  125.407000
  H    -105.043000   38.833700  122.023000
  C    -106.257000   37.651900  124.433000
  H    -105.870000   36.678500  124.852000
  H    -106.684000   37.436600  123.430000
  C    -107.472000   38.020600  125.303000
  H    -108.064000   38.683300  124.678000
  H    -107.145000   38.491400  126.206000
  C    -108.344000   36.848100  125.662000
  H    -108.923000   36.494300  124.704000
  H    -109.142000   37.131800  126.394000
  H    -107.764000   36.012000  126.052000
  H    -104.456000   39.480600  130.341000
  H    -103.541000   40.807700  122.334000

 Total Charge           Charge          ....    0
 Multiplicity           Mult            ....    1
 Number of Electrons    NEL             ....  134
 Basis Dimension        Dim             ....  322

ORBITAL ENERGIES
----------------

  NO   OCC          E(Eh)            E(eV)
   0   2.0000     -88.969352     -2420.9791
   1   2.0000     -88.966082     -2420.8902
   2   2.0000     -10.332317      -281.1566
   3   2.0000     -10.329371      -281.0765
   4   2.0000     -10.317857      -280.7632
   5   2.0000     -10.311693      -280.5954
   6   2.0000     -10.305952      -280.4392
   7   2.0000     -10.305093      -280.4158
   8   2.0000     -10.303161      -280.3633
   9   2.0000     -10.296962      -280.1946
  10   2.0000     -10.293103      -280.0896
  11   2.0000     -10.291900      -280.0568
  12   2.0000     -10.288450      -279.9629
  13   2.0000     -10.282488      -279.8007
  14   2.0000     -10.275618      -279.6138
  15   2.0000     -10.274721      -279.5894
  16   2.0000      -8.083726      -219.9694
  17   2.0000      -8.080040      -219.8691
  18   2.0000      -6.042222      -164.4172
  19   2.0000      -6.038542      -164.3171
  20   2.0000      -6.038155      -164.3066
  21   2.0000      -6.034759      -164.2141
  22   2.0000      -6.034650      -164.2112
  23   2.0000      -6.030758      -164.1053
  24   2.0000      -1.002401       -27.2767
  25   2.0000      -0.981971       -26.7208
  26   2.0000      -0.907367       -24.6907
  27   2.0000      -0.899650       -24.4807
  28   2.0000      -0.867789       -23.6137
  29   2.0000      -0.850259       -23.1367
  30   2.0000      -0.846260       -23.0279
  31   2.0000      -0.810056       -22.0427
  32   2.0000      -0.784549       -21.3487
  33   2.0000      -0.767742       -20.8913
  34   2.0000      -0.708312       -19.2741
  35   2.0000      -0.700453       -19.0603
  36   2.0000      -0.682745       -18.5784
  37   2.0000      -0.660020       -17.9600
  38   2.0000      -0.646484       -17.5917
  39   2.0000      -0.613409       -16.6917
  40   2.0000      -0.593878       -16.1602
  41   2.0000      -0.571404       -15.5487
  42   2.0000      -0.563612       -15.3366
  43   2.0000      -0.547870       -14.9083
  44   2.0000      -0.535540       -14.5728
  45   2.0000      -0.515858       -14.0372
  46   2.0000      -0.513015       -13.9598
  47   2.0000      -0.510046       -13.8791
  48   2.0000      -0.501918       -13.6579
  49   2.0000      -0.492723       -13.4077
  50   2.0000      -0.490097       -13.3362
  51   2.0000      -0.483171       -13.1477
  52   2.0000      -0.468106       -12.7378
  53   2.0000      -0.463362       -12.6087
  54   2.0000      -0.459521       -12.5042
  55   2.0000      -0.447324       -12.1723
  56   2.0000      -0.440361       -11.9828
  57   2.0000      -0.435412       -11.8482
  58   2.0000      -0.429088       -11.6761
  59   2.0000      -0.427361       -11.6291
  60   2.0000      -0.421617       -11.4728
  61   2.0000      -0.413734       -11.2583
  62   2.0000      -0.406730       -11.0677
  63   2.0000      -0.340894        -9.2762
  64   2.0000      -0.332422        -9.0457
  65   2.0000      -0.329090        -8.9550
  66   2.0000      -0.295285        -8.0351
  67   0.0000       0.026223         0.7136
  68   0.0000       0.061397         1.6707
  69   0.0000       0.110286         3.0010
  70   0.0000       0.115953         3.1552
  71   0.0000       0.132930         3.6172

MULLIKEN ATOMIC CHARGES
-----------------------
   0 S :    0.121345
   1 C :   -0.115173
   2 C :   -0.067654
   3 C :    0.084844
   4 C :   -0.212469
   5 H :   -0.024024
   6 C :    0.032007
   7 H :    0.040180
   8 H :    0.029877
   9 C :   -0.066702
  10 H :    0.023544
  11 H :    0.025164
  12 C :   -0.040723
  13 H :    0.053475
  14 H :    0.014163
  15 H :    0.032911
  16 S :    0.101945
  17 C :   -0.096641
  18 C :   -0.048769
  19 C :    0.013436
  20 C :   -0.159401
  21 H :    0.042565
  22 C :    0.038192
  23 H :    0.027591
  24 H :    0.020030
  25 C :   -0.049864
  26 H :    0.027059
  27 H :    0.034848
  28 C :   -0.087496
  29 H :    0.033012
  30 H :    0.046323
  31 H :    0.033346
  32 H :    0.038461
  33 H :    0.054596
Sum of atomic charges:    0.0000000

LOEWDIN ATOMIC CHARGES
----------------------
   0 S :    0.411886
   1 C :   -0.192545
   2 C :   -0.066519
   3 C :   -0.041243
   4 C :   -0.200454
   5 H :    0.015016
   6 C :   -0.036612
   7 H :    0.038314
   8 H :    0.030828
   9 C :   -0.039165
  10 H :    0.019431
  11 H :    0.025274
  12 C :   -0.064842
  13 H :    0.032256
  14 H :    0.011927
  15 H :    0.033238
  16 S :    0.380574
  17 C :   -0.168526
  18 C :   -0.079173
  19 C :   -0.052604
  20 C :   -0.193246
  21 H :    0.046402
  22 C :   -0.034863
  23 H :    0.031429
  24 H :    0.030697
  25 C :   -0.040977
  26 H :    0.024741
  27 H :    0.018540
  28 C :   -0.071745
  29 H :    0.030879
  30 H :    0.032296
  31 H :    0.020579
  32 H :    0.022192
  33 H :    0.026018

  Mayer bond orders larger than 0.100000
B(  0-S ,  1-C ) :   1.1463 B(  0-S ,  4-C ) :   1.1517 B(  1-C ,  2-C ) :   1.6041
B(  1-C , 32-H ) :   0.9703 B(  2-C ,  3-C ) :   1.2456 B(  2-C ,  6-C ) :   1.0199
B(  3-C ,  4-C ) :   1.5493 B(  3-C ,  5-H ) :   1.0091 B(  4-C , 20-C ) :   1.0563
B(  6-C ,  7-H ) :   0.9504 B(  6-C ,  8-H ) :   0.9453 B(  6-C ,  9-C ) :   1.0499
B(  9-C , 10-H ) :   0.9594 B(  9-C , 11-H ) :   0.9597 B(  9-C , 12-C ) :   1.0831
B( 12-C , 13-H ) :   0.9685 B( 12-C , 14-H ) :   0.9773 B( 12-C , 15-H ) :   0.9730
B( 16-S , 17-C ) :   1.1526 B( 16-S , 20-C ) :   1.1280 B( 17-C , 18-C ) :   1.6309
B( 17-C , 20-C ) :   0.1010 B( 17-C , 33-H ) :   0.9640 B( 18-C , 19-C ) :   1.2343
B( 18-C , 21-H ) :   0.9822 B( 19-C , 20-C ) :   1.5875 B( 19-C , 22-C ) :   1.0456
B( 22-C , 23-H ) :   0.9268 B( 22-C , 24-H ) :   0.9443 B( 22-C , 25-C ) :   1.0606
B( 25-C , 26-H ) :   0.9546 B( 25-C , 27-H ) :   0.9532 B( 25-C , 28-C ) :   1.0922
B( 28-C , 29-H ) :   0.9734 B( 28-C , 30-H ) :   0.9719 B( 28-C , 31-H ) :   0.9733

Dispersion correction           -0.014936421
FINAL SINGLE POINT ENERGY     -1339.876291473434

DIPOLE MOMENT
-------------
                                X             Y             Z
Electronic contribution:      2.14790      17.84868      -7.41350
Nuclear contribution   :     -2.00553     -18.31532       7.37980
                        -----------------------------------------
Total Dipole Moment    :      0.14237      -0.46665      -0.03370
                        -----------------------------------------
Magnitude (a.u.)       :      0.48905
Magnitude (Debye)      :      1.24306

Rotational constants in cm-1:     0.018318     0.009079     0.007413
Rotational constants in MHz :   549.166237   272.171828   222.240040

                             ****ORCA TERMINATED NORMALLY****
TOTAL RUN TIME: 0 days 0 hours 0 minutes 34 seconds 632 msec
