                         Program Version 4.2.1 -  RELEASE  -
|  1> ! wB97X-D3 SP def2-SVP
|  2> %pal
|  3> nprocs 16
|  4> end
|  5>
|  6> * xyz 0 1
|  7> S 	 8.48898 	 -4.74192 	 88.2303
|  8> C 	 9.48719 	 -4.35058 	 89.6359
|  9> C 	 10.8311 	 -4.31718 	 89.3584
| 10> C 	 11.0679 	 -4.52728 	 87.959
| 11> C 	 9.95343 	 -4.76533 	 87.2164
| 12> H 	 12.0249 	 -4.41867 	 87.4778
| 13> C 	 11.893 	 -3.93975 	 90.3268
| 14> H 	 12.4719 	 -4.79166 	 90.5178
| 15> H 	 11.4125 	 -3.54963 	 91.2398
| 16> C 	 12.8233 	 -2.74367 	 89.8692
| 17> H 	 13.4121 	 -3.15568 	 89.0826
| 18> H 	 12.2963 	 -1.89034 	 89.4203
| 19> C 	 13.763 	 -2.12033 	 91.0182
| 20> H 	 13.131 	 -1.6693 	 91.8765
| 21> H 	 14.5657 	 -2.76421 	 91.4067
| 22> H 	 14.2925 	 -1.19351 	 90.6365
| 23> S 	 10.8978 	 -5.99883 	 85.0395
| 24> C 	 10.4737 	 -5.31891 	 83.4894
| 25> C 	 9.70455 	 -4.1494 	 83.5572
| 26> C 	 9.35461 	 -3.86357 	 84.8812
| 27> C 	 9.89972 	 -4.78993 	 85.7535
| 28> H 	 9.23181 	 -3.62314 	 82.6856
| 29> C 	 8.71955 	 -2.49955 	 85.3452
| 30> H 	 7.99019 	 -2.7606 	 86.1354
| 31> H 	 8.14407 	 -2.01034 	 84.566
| 32> C 	 9.78755 	 -1.43661 	 85.7621
| 33> H 	 10.3986 	 -1.23872 	 84.802
| 34> H 	 10.5065 	 -1.784 	 86.4493
| 35> C 	 9.16394 	 -0.203901 	 86.314
| 36> H 	 8.63789 	 -0.370409 	 87.2976
| 37> H 	 8.487 	 0.229417 	 85.5626
| 38> H 	 9.93136 	 0.586472 	 86.4044
| 39> H 	 9.15742 	 -4.19607 	 90.612
| 40> H 	 10.5196 	 -5.71343 	 82.5083
| 41> *
| 42>
| 43>                          ****END OF INPUT****

CARTESIAN COORDINATES (ANGSTROEM)
---------------------------------
  S      8.488980   -4.741920   88.230300
  C      9.487190   -4.350580   89.635900
  C     10.831100   -4.317180   89.358400
  C     11.067900   -4.527280   87.959000
  C      9.953430   -4.765330   87.216400
  H     12.024900   -4.418670   87.477800
  C     11.893000   -3.939750   90.326800
  H     12.471900   -4.791660   90.517800
  H     11.412500   -3.549630   91.239800
  C     12.823300   -2.743670   89.869200
  H     13.412100   -3.155680   89.082600
  H     12.296300   -1.890340   89.420300
  C     13.763000   -2.120330   91.018200
  H     13.131000   -1.669300   91.876500
  H     14.565700   -2.764210   91.406700
  H     14.292500   -1.193510   90.636500
  S     10.897800   -5.998830   85.039500
  C     10.473700   -5.318910   83.489400
  C      9.704550   -4.149400   83.557200
  C      9.354610   -3.863570   84.881200
  C      9.899720   -4.789930   85.753500
  H      9.231810   -3.623140   82.685600
  C      8.719550   -2.499550   85.345200
  H      7.990190   -2.760600   86.135400
  H      8.144070   -2.010340   84.566000
  C      9.787550   -1.436610   85.762100
  H     10.398600   -1.238720   84.802000
  H     10.506500   -1.784000   86.449300
  C      9.163940   -0.203901   86.314000
  H      8.637890   -0.370409   87.297600
  H      8.487000    0.229417   85.562600
  H      9.931360    0.586472   86.404400
  H      9.157420   -4.196070   90.612000
  H     10.519600   -5.713430   82.508300

 Total Charge           Charge          ....    0
 Multiplicity           Mult            ....    1
 Number of Electrons    NEL             ....  134
 Basis Dimension        Dim             ....  322

ORBITAL ENERGIES
----------------

  NO   OCC          E(Eh)            E(eV)
   0   2.0000     -88.975002     -2421.1329
   1   2.0000     -88.966824     -2420.9104
   2   2.0000     -10.327314      -281.0205
   3   2.0000     -10.321614      -280.8654
   4   2.0000     -10.313285      -280.6388
   5   2.0000     -10.308783      -280.5162
   6   2.0000     -10.300253      -280.2841
   7   2.0000     -10.297683      -280.2142
   8   2.0000     -10.297478      -280.2086
   9   2.0000     -10.296166      -280.1729
  10   2.0000     -10.295182      -280.1461
  11   2.0000     -10.294498      -280.1275
  12   2.0000     -10.292139      -280.0634
  13   2.0000     -10.290493      -280.0185
  14   2.0000     -10.283662      -279.8327
  15   2.0000     -10.278939      -279.7041
  16   2.0000      -8.089593      -220.1290
  17   2.0000      -8.080470      -219.8808
  18   2.0000      -6.047960      -164.5733
  19   2.0000      -6.044202      -164.4711
  20   2.0000      -6.040437      -164.3686
  21   2.0000      -6.039139      -164.3333
  22   2.0000      -6.035227      -164.2269
  23   2.0000      -6.031033      -164.1128
  24   2.0000      -1.009224       -27.4624
  25   2.0000      -0.984121       -26.7793
  26   2.0000      -0.905725       -24.6460
  27   2.0000      -0.903709       -24.5912
  28   2.0000      -0.868144       -23.6234
  29   2.0000      -0.854189       -23.2437
  30   2.0000      -0.841165       -22.8893
  31   2.0000      -0.813177       -22.1277
  32   2.0000      -0.779257       -21.2046
  33   2.0000      -0.767742       -20.8913
  34   2.0000      -0.709319       -19.3015
  35   2.0000      -0.697001       -18.9663
  36   2.0000      -0.687322       -18.7030
  37   2.0000      -0.667092       -18.1525
  38   2.0000      -0.637868       -17.3573
  39   2.0000      -0.619068       -16.8457
  40   2.0000      -0.592608       -16.1257
  41   2.0000      -0.571234       -15.5441
  42   2.0000      -0.562084       -15.2951
  43   2.0000      -0.555982       -15.1290
  44   2.0000      -0.519967       -14.1490
  45   2.0000      -0.518635       -14.1128
  46   2.0000      -0.515256       -14.0208
  47   2.0000      -0.506540       -13.7836
  48   2.0000      -0.502448       -13.6723
  49   2.0000      -0.499034       -13.5794
  50   2.0000      -0.490003       -13.3337
  51   2.0000      -0.473018       -12.8715
  52   2.0000      -0.467757       -12.7283
  53   2.0000      -0.462118       -12.5749
  54   2.0000      -0.459673       -12.5083
  55   2.0000      -0.454056       -12.3555
  56   2.0000      -0.445700       -12.1281
  57   2.0000      -0.438584       -11.9345
  58   2.0000      -0.429329       -11.6826
  59   2.0000      -0.426462       -11.6046
  60   2.0000      -0.421248       -11.4627
  61   2.0000      -0.416593       -11.3361
  62   2.0000      -0.413331       -11.2473
  63   2.0000      -0.342579        -9.3221
  64   2.0000      -0.340630        -9.2690
  65   2.0000      -0.327966        -8.9244
  66   2.0000      -0.292715        -7.9652
  67   0.0000       0.034597         0.9414
  68   0.0000       0.065502         1.7824
  69   0.0000       0.108427         2.9505
  70   0.0000       0.113356         3.0846
  71   0.0000       0.133016         3.6196

MULLIKEN ATOMIC CHARGES
-----------------------
   0 S :    0.106012
   1 C :   -0.098835
   2 C :   -0.083799
   3 C :    0.029213
   4 C :   -0.145487
   5 H :    0.010248
   6 C :    0.106630
   7 H :    0.032894
   8 H :    0.016898
   9 C :   -0.099538
  10 H :    0.029088
  11 H :    0.043150
  12 C :   -0.110503
  13 H :    0.046476
  14 H :    0.048282
  15 H :    0.041496
  16 S :    0.143617
  17 C :   -0.065289
  18 C :   -0.081012
  19 C :   -0.014093
  20 C :   -0.196811
  21 H :    0.040337
  22 C :    0.069305
  23 H :    0.024868
  24 H :    0.011261
  25 C :   -0.074213
  26 H :    0.031438
  27 H :    0.023421
  28 C :   -0.045590
  29 H :    0.052653
  30 H :    0.022237
  31 H :    0.031279
  32 H :    0.015411
  33 H :    0.038957
Sum of atomic charges:    0.0000000

LOEWDIN ATOMIC CHARGES
----------------------
   0 S :    0.385745
   1 C :   -0.180870
   2 C :   -0.062194
   3 C :   -0.065617
   4 C :   -0.183154
   5 H :    0.027161
   6 C :   -0.024543
   7 H :    0.028103
   8 H :    0.030922
   9 C :   -0.036988
  10 H :    0.016149
  11 H :    0.028926
  12 C :   -0.082717
  13 H :    0.033534
  14 H :    0.025269
  15 H :    0.032639
  16 S :    0.440948
  17 C :   -0.193150
  18 C :   -0.073002
  19 C :   -0.059128
  20 C :   -0.207857
  21 H :    0.042035
  22 C :   -0.027850
  23 H :    0.022747
  24 H :    0.024375
  25 C :   -0.043096
  26 H :    0.032484
  27 H :    0.015974
  28 C :   -0.071007
  29 H :    0.035017
  30 H :    0.023206
  31 H :    0.028737
  32 H :    0.014350
  33 H :    0.022851

  Mayer bond orders larger than 0.100000
B(  0-S ,  1-C ) :   1.1191 B(  0-S ,  4-C ) :   1.1289 B(  1-C ,  2-C ) :   1.6550
B(  1-C , 32-H ) :   0.9684 B(  2-C ,  3-C ) :   1.2044 B(  2-C ,  6-C ) :   1.0370
B(  3-C ,  4-C ) :   1.6216 B(  3-C ,  5-H ) :   0.9887 B(  4-C , 20-C ) :   1.0044
B(  6-C ,  7-H ) :   0.9288 B(  6-C ,  8-H ) :   0.9454 B(  6-C ,  9-C ) :   1.0497
B(  9-C , 10-H ) :   0.9546 B(  9-C , 11-H ) :   0.9638 B(  9-C , 12-C ) :   1.0731
B( 12-C , 13-H ) :   0.9750 B( 12-C , 14-H ) :   0.9779 B( 12-C , 15-H ) :   0.9766
B( 16-S , 17-C ) :   1.1550 B( 16-S , 20-C ) :   1.1653 B( 17-C , 18-C ) :   1.6026
B( 17-C , 20-C ) :   0.1021 B( 17-C , 33-H ) :   0.9660 B( 18-C , 19-C ) :   1.2838
B( 18-C , 21-H ) :   0.9724 B( 19-C , 20-C ) :   1.5762 B( 19-C , 22-C ) :   1.0379
B( 22-C , 23-H ) :   0.9319 B( 22-C , 24-H ) :   0.9392 B( 22-C , 25-C ) :   1.0494
B( 25-C , 26-H ) :   0.9506 B( 25-C , 27-H ) :   0.9573 B( 25-C , 28-C ) :   1.0937
B( 28-C , 29-H ) :   0.9713 B( 28-C , 30-H ) :   0.9705 B( 28-C , 31-H ) :   0.9693

Dispersion correction           -0.015036362
FINAL SINGLE POINT ENERGY     -1339.870139834871

DIPOLE MOMENT
-------------
                                X             Y             Z
Electronic contribution:     -9.89533     -23.94489     -10.56035
Nuclear contribution   :     10.21021      24.45412      10.62547
                        -----------------------------------------
Total Dipole Moment    :      0.31488       0.50923       0.06513
                        -----------------------------------------
Magnitude (a.u.)       :      0.60225
Magnitude (Debye)      :      1.53079

Rotational constants in cm-1:     0.017443     0.008821     0.007936
Rotational constants in MHz :   522.938764   264.457793   237.922239

                             ****ORCA TERMINATED NORMALLY****
TOTAL RUN TIME: 0 days 0 hours 0 minutes 35 seconds 652 msec
