                         Program Version 4.2.1 -  RELEASE  -
|  1> ! wB97X-D3 SP def2-SVP
|  2> %pal
|  3> nprocs 16
|  4> end
|  5>
|  6> * xyz 0 1
|  7> S 	 -40.7506 	 26.9612 	 84.7542
|  8> C 	 -40.5533 	 25.467 	 85.644
|  9> C 	 -41.5952 	 24.5508 	 85.4008
| 10> C 	 -42.5108 	 25.0823 	 84.3692
| 11> C 	 -42.2249 	 26.3491 	 83.9873
| 12> H 	 -43.3784 	 24.4824 	 84.0209
| 13> C 	 -41.7127 	 23.1597 	 85.9649
| 14> H 	 -42.2285 	 23.1524 	 86.9462
| 15> H 	 -40.7495 	 22.8082 	 86.1097
| 16> C 	 -42.356 	 22.0814 	 85.068
| 17> H 	 -42.4324 	 21.1935 	 85.6853
| 18> H 	 -43.4179 	 22.3204 	 84.8544
| 19> C 	 -41.7195 	 21.8785 	 83.6918
| 20> H 	 -42.4156 	 21.1629 	 83.1505
| 21> H 	 -41.6411 	 22.8252 	 83.1174
| 22> H 	 -40.7513 	 21.5753 	 83.7754
| 23> S 	 -44.3589 	 27.9653 	 83.5516
| 24> C 	 -44.3786 	 28.943 	 82.1359
| 25> C 	 -43.4077 	 28.5842 	 81.2295
| 26> C 	 -42.4766 	 27.6319 	 81.7649
| 27> C 	 -42.8588 	 27.2376 	 83.0385
| 28> H 	 -43.3985 	 29.0274 	 80.2258
| 29> C 	 -41.2328 	 27.1879 	 80.98
| 30> H 	 -40.3504 	 27.0841 	 81.6693
| 31> H 	 -41.0837 	 28.0746 	 80.3559
| 32> C 	 -41.2978 	 25.9653 	 80.1315
| 33> H 	 -41.4163 	 25.0569 	 80.7001
| 34> H 	 -40.4426 	 25.8215 	 79.5771
| 35> C 	 -42.4327 	 26.0589 	 79.15
| 36> H 	 -43.3278 	 25.9835 	 79.7145
| 37> H 	 -42.1806 	 25.2631 	 78.3997
| 38> H 	 -42.5399 	 26.9563 	 78.5787
| 39> H 	 -39.6814 	 25.2801 	 86.2662
| 40> H 	 -45.0861 	 29.7705 	 81.8487
| 41> *
| 42>
| 43>                          ****END OF INPUT****

CARTESIAN COORDINATES (ANGSTROEM)
---------------------------------
  S    -40.750600   26.961200   84.754200
  C    -40.553300   25.467000   85.644000
  C    -41.595200   24.550800   85.400800
  C    -42.510800   25.082300   84.369200
  C    -42.224900   26.349100   83.987300
  H    -43.378400   24.482400   84.020900
  C    -41.712700   23.159700   85.964900
  H    -42.228500   23.152400   86.946200
  H    -40.749500   22.808200   86.109700
  C    -42.356000   22.081400   85.068000
  H    -42.432400   21.193500   85.685300
  H    -43.417900   22.320400   84.854400
  C    -41.719500   21.878500   83.691800
  H    -42.415600   21.162900   83.150500
  H    -41.641100   22.825200   83.117400
  H    -40.751300   21.575300   83.775400
  S    -44.358900   27.965300   83.551600
  C    -44.378600   28.943000   82.135900
  C    -43.407700   28.584200   81.229500
  C    -42.476600   27.631900   81.764900
  C    -42.858800   27.237600   83.038500
  H    -43.398500   29.027400   80.225800
  C    -41.232800   27.187900   80.980000
  H    -40.350400   27.084100   81.669300
  H    -41.083700   28.074600   80.355900
  C    -41.297800   25.965300   80.131500
  H    -41.416300   25.056900   80.700100
  H    -40.442600   25.821500   79.577100
  C    -42.432700   26.058900   79.150000
  H    -43.327800   25.983500   79.714500
  H    -42.180600   25.263100   78.399700
  H    -42.539900   26.956300   78.578700
  H    -39.681400   25.280100   86.266200
  H    -45.086100   29.770500   81.848700

 Total Charge           Charge          ....    0
 Multiplicity           Mult            ....    1
 Number of Electrons    NEL             ....  134
 Basis Dimension        Dim             ....  322

ORBITAL ENERGIES
----------------

  NO   OCC          E(Eh)            E(eV)
   0   2.0000     -88.966975     -2420.9145
   1   2.0000     -88.963243     -2420.8129
   2   2.0000     -10.326463      -280.9973
   3   2.0000     -10.321809      -280.8707
   4   2.0000     -10.316961      -280.7388
   5   2.0000     -10.316190      -280.7178
   6   2.0000     -10.306252      -280.4474
   7   2.0000     -10.304598      -280.4024
   8   2.0000     -10.298780      -280.2441
   9   2.0000     -10.292913      -280.0844
  10   2.0000     -10.289518      -279.9920
  11   2.0000     -10.288547      -279.9656
  12   2.0000     -10.288417      -279.9621
  13   2.0000     -10.276564      -279.6395
  14   2.0000     -10.270123      -279.4642
  15   2.0000     -10.266947      -279.3778
  16   2.0000      -8.082233      -219.9287
  17   2.0000      -8.077664      -219.8044
  18   2.0000      -6.040678      -164.3752
  19   2.0000      -6.036654      -164.2657
  20   2.0000      -6.036259      -164.2550
  21   2.0000      -6.033038      -164.1673
  22   2.0000      -6.032181      -164.1440
  23   2.0000      -6.028374      -164.0404
  24   2.0000      -1.006956       -27.4007
  25   2.0000      -0.980585       -26.6831
  26   2.0000      -0.917261       -24.9599
  27   2.0000      -0.912832       -24.8394
  28   2.0000      -0.868314       -23.6280
  29   2.0000      -0.851507       -23.1707
  30   2.0000      -0.840929       -22.8828
  31   2.0000      -0.816028       -22.2053
  32   2.0000      -0.785793       -21.3825
  33   2.0000      -0.771485       -20.9932
  34   2.0000      -0.712245       -19.3812
  35   2.0000      -0.699058       -19.0223
  36   2.0000      -0.684235       -18.6190
  37   2.0000      -0.658992       -17.9321
  38   2.0000      -0.637817       -17.3559
  39   2.0000      -0.623998       -16.9798
  40   2.0000      -0.587795       -15.9947
  41   2.0000      -0.568761       -15.4768
  42   2.0000      -0.560161       -15.2428
  43   2.0000      -0.552347       -15.0301
  44   2.0000      -0.544077       -14.8051
  45   2.0000      -0.531542       -14.4640
  46   2.0000      -0.524359       -14.2685
  47   2.0000      -0.517625       -14.0853
  48   2.0000      -0.498957       -13.5773
  49   2.0000      -0.496924       -13.5220
  50   2.0000      -0.487172       -13.2566
  51   2.0000      -0.476500       -12.9662
  52   2.0000      -0.474604       -12.9146
  53   2.0000      -0.466457       -12.6929
  54   2.0000      -0.459858       -12.5134
  55   2.0000      -0.448154       -12.1949
  56   2.0000      -0.443725       -12.0744
  57   2.0000      -0.438011       -11.9189
  58   2.0000      -0.432015       -11.7557
  59   2.0000      -0.421988       -11.4829
  60   2.0000      -0.418769       -11.3953
  61   2.0000      -0.413539       -11.2530
  62   2.0000      -0.407264       -11.0822
  63   2.0000      -0.336422        -9.1545
  64   2.0000      -0.333284        -9.0691
  65   2.0000      -0.321888        -8.7590
  66   2.0000      -0.302696        -8.2368
  67   0.0000       0.043913         1.1949
  68   0.0000       0.059925         1.6306
  69   0.0000       0.110839         3.0161
  70   0.0000       0.117345         3.1931
  71   0.0000       0.127716         3.4753

MULLIKEN ATOMIC CHARGES
-----------------------
   0 S :    0.109948
   1 C :   -0.129983
   2 C :   -0.126371
   3 C :    0.036622
   4 C :   -0.158038
   5 H :    0.028816
   6 C :    0.109964
   7 H :    0.050070
   8 H :    0.002707
   9 C :   -0.117398
  10 H :    0.028382
  11 H :    0.024429
  12 C :   -0.034617
  13 H :    0.048151
  14 H :    0.043740
  15 H :    0.012466
  16 S :    0.136151
  17 C :   -0.102207
  18 C :   -0.067730
  19 C :   -0.024856
  20 C :   -0.199049
  21 H :    0.026885
  22 C :    0.071478
  23 H :    0.032595
  24 H :    0.017808
  25 C :    0.006619
  26 H :    0.026177
  27 H :    0.005123
  28 C :   -0.069976
  29 H :    0.041052
  30 H :    0.035773
  31 H :    0.013623
  32 H :    0.051185
  33 H :    0.070462
Sum of atomic charges:   -0.0000000

LOEWDIN ATOMIC CHARGES
----------------------
   0 S :    0.398837
   1 C :   -0.197996
   2 C :   -0.060945
   3 C :   -0.064668
   4 C :   -0.191124
   5 H :    0.039359
   6 C :   -0.033201
   7 H :    0.041254
   8 H :    0.021099
   9 C :   -0.045389
  10 H :    0.025718
  11 H :    0.020439
  12 C :   -0.061557
  13 H :    0.038625
  14 H :    0.032289
  15 H :    0.008775
  16 S :    0.427894
  17 C :   -0.205060
  18 C :   -0.080829
  19 C :   -0.052318
  20 C :   -0.213263
  21 H :    0.034151
  22 C :   -0.031491
  23 H :    0.032108
  24 H :    0.030727
  25 C :   -0.034972
  26 H :    0.026993
  27 H :    0.014689
  28 C :   -0.062781
  29 H :    0.022899
  30 H :    0.033827
  31 H :    0.015639
  32 H :    0.027021
  33 H :    0.043253

  Mayer bond orders larger than 0.100000
B(  0-S ,  1-C ) :   1.1371 B(  0-S ,  4-C ) :   1.1347 B(  1-C ,  2-C ) :   1.6311
B(  1-C , 32-H ) :   0.9688 B(  2-C ,  3-C ) :   1.2084 B(  2-C ,  6-C ) :   1.0177
B(  3-C ,  4-C ) :   1.6345 B(  3-C ,  5-H ) :   0.9835 B(  4-C , 20-C ) :   1.0058
B(  6-C ,  7-H ) :   0.9280 B(  6-C ,  8-H ) :   0.9376 B(  6-C ,  9-C ) :   1.0870
B(  9-C , 10-H ) :   0.9530 B(  9-C , 11-H ) :   0.9513 B(  9-C , 12-C ) :   1.0709
B( 12-C , 13-H ) :   0.9734 B( 12-C , 14-H ) :   0.9700 B( 12-C , 15-H ) :   0.9746
B( 16-S , 17-C ) :   1.1591 B( 16-S , 20-C ) :   1.1522 B( 17-C , 18-C ) :   1.6286
B( 17-C , 33-H ) :   0.9567 B( 18-C , 19-C ) :   1.2322 B( 18-C , 21-H ) :   0.9822
B( 19-C , 20-C ) :   1.5996 B( 19-C , 22-C ) :   1.0246 B( 22-C , 23-H ) :   0.9293
B( 22-C , 24-H ) :   0.9326 B( 22-C , 25-C ) :   1.0948 B( 25-C , 26-H ) :   0.9474
B( 25-C , 27-H ) :   0.9508 B( 25-C , 28-C ) :   1.0762 B( 28-C , 29-H ) :   0.9741
B( 28-C , 30-H ) :   0.9741 B( 28-C , 31-H ) :   0.9762

Dispersion correction           -0.015271869
FINAL SINGLE POINT ENERGY     -1339.874156917710

DIPOLE MOMENT
-------------
                                X             Y             Z
Electronic contribution:     -4.09029      20.42449      13.06997
Nuclear contribution   :      4.19403     -20.85411     -13.32140
                        -----------------------------------------
Total Dipole Moment    :      0.10374      -0.42962      -0.25143
                        -----------------------------------------
Magnitude (a.u.)       :      0.50848
Magnitude (Debye)      :      1.29245

Rotational constants in cm-1:     0.018732     0.009219     0.007904
Rotational constants in MHz :   561.567173   276.377579   236.958588

                             ****ORCA TERMINATED NORMALLY****
TOTAL RUN TIME: 0 days 0 hours 0 minutes 29 seconds 480 msec
