                         Program Version 4.2.1 -  RELEASE  -
|  1> ! wB97X-D3 SP def2-SVP
|  2> %pal
|  3> nprocs 16
|  4> end
|  5>
|  6> * xyz 0 1
|  7> S 	 32.3136 	 1.66676 	 65.6458
|  8> C 	 32.9454 	 3.08311 	 64.8127
|  9> C 	 32.0585 	 3.51769 	 63.8445
| 10> C 	 30.907 	 2.68163 	 63.7569
| 11> C 	 30.906 	 1.59058 	 64.6182
| 12> H 	 30.0148 	 2.84895 	 63.135
| 13> C 	 32.0852 	 4.90056 	 63.2248
| 14> H 	 33.0308 	 5.28905 	 63.5962
| 15> H 	 31.2694 	 5.48003 	 63.5992
| 16> C 	 32.0186 	 4.98703 	 61.6813
| 17> H 	 31.0281 	 4.57378 	 61.3495
| 18> H 	 32.0391 	 5.97826 	 61.3653
| 19> C 	 33.2417 	 4.22751 	 61.0643
| 20> H 	 33.3704 	 3.26874 	 61.6282
| 21> H 	 33.0747 	 3.95567 	 60.0662
| 22> H 	 34.0283 	 4.87752 	 61.1334
| 23> S 	 30.2431 	 -1.08131 	 64.5221
| 24> C 	 28.616 	 -1.53163 	 64.8499
| 25> C 	 27.775 	 -0.481082 	 64.9932
| 26> C 	 28.4484 	 0.795992 	 64.7968
| 27> C 	 29.8386 	 0.623634 	 64.6777
| 28> H 	 26.777 	 -0.624181 	 65.2399
| 29> C 	 27.7177 	 2.10409 	 64.9586
| 30> H 	 28.4891 	 2.88087 	 65.037
| 31> H 	 27.2254 	 2.01879 	 65.9468
| 32> C 	 26.7988 	 2.51528 	 63.7822
| 33> H 	 25.9568 	 1.71289 	 63.8538
| 34> H 	 27.2796 	 2.44283 	 62.7894
| 35> C 	 26.1445 	 3.93054 	 63.9249
| 36> H 	 26.9139 	 4.75513 	 63.8321
| 37> H 	 25.7 	 4.07586 	 64.9283
| 38> H 	 25.3343 	 4.12182 	 63.2234
| 39> H 	 33.8514 	 3.50955 	 65.1066
| 40> H 	 28.3097 	 -2.51249 	 64.883
| 41> *
| 42>
| 43>                          ****END OF INPUT****

CARTESIAN COORDINATES (ANGSTROEM)
---------------------------------
  S     32.313600    1.666760   65.645800
  C     32.945400    3.083110   64.812700
  C     32.058500    3.517690   63.844500
  C     30.907000    2.681630   63.756900
  C     30.906000    1.590580   64.618200
  H     30.014800    2.848950   63.135000
  C     32.085200    4.900560   63.224800
  H     33.030800    5.289050   63.596200
  H     31.269400    5.480030   63.599200
  C     32.018600    4.987030   61.681300
  H     31.028100    4.573780   61.349500
  H     32.039100    5.978260   61.365300
  C     33.241700    4.227510   61.064300
  H     33.370400    3.268740   61.628200
  H     33.074700    3.955670   60.066200
  H     34.028300    4.877520   61.133400
  S     30.243100   -1.081310   64.522100
  C     28.616000   -1.531630   64.849900
  C     27.775000   -0.481082   64.993200
  C     28.448400    0.795992   64.796800
  C     29.838600    0.623634   64.677700
  H     26.777000   -0.624181   65.239900
  C     27.717700    2.104090   64.958600
  H     28.489100    2.880870   65.037000
  H     27.225400    2.018790   65.946800
  C     26.798800    2.515280   63.782200
  H     25.956800    1.712890   63.853800
  H     27.279600    2.442830   62.789400
  C     26.144500    3.930540   63.924900
  H     26.913900    4.755130   63.832100
  H     25.700000    4.075860   64.928300
  H     25.334300    4.121820   63.223400
  H     33.851400    3.509550   65.106600
  H     28.309700   -2.512490   64.883000

 Total Charge           Charge          ....    0
 Multiplicity           Mult            ....    1
 Number of Electrons    NEL             ....  134
 Basis Dimension        Dim             ....  322

ORBITAL ENERGIES
----------------

  NO   OCC          E(Eh)            E(eV)
   0   2.0000     -88.967105     -2420.9180
   1   2.0000     -88.962980     -2420.8058
   2   2.0000     -10.327774      -281.0330
   3   2.0000     -10.326914      -281.0096
   4   2.0000     -10.314148      -280.6622
   5   2.0000     -10.307595      -280.4839
   6   2.0000     -10.307132      -280.4713
   7   2.0000     -10.302964      -280.3579
   8   2.0000     -10.301217      -280.3104
   9   2.0000     -10.294482      -280.1271
  10   2.0000     -10.293274      -280.0942
  11   2.0000     -10.289424      -279.9895
  12   2.0000     -10.288671      -279.9690
  13   2.0000     -10.288199      -279.9561
  14   2.0000     -10.284843      -279.8648
  15   2.0000     -10.265849      -279.3480
  16   2.0000      -8.081706      -219.9144
  17   2.0000      -8.078480      -219.8266
  18   2.0000      -6.040194      -164.3620
  19   2.0000      -6.036951      -164.2738
  20   2.0000      -6.036182      -164.2529
  21   2.0000      -6.032911      -164.1638
  22   2.0000      -6.032541      -164.1538
  23   2.0000      -6.029212      -164.0632
  24   2.0000      -1.007010       -27.4021
  25   2.0000      -0.985321       -26.8120
  26   2.0000      -0.910787       -24.7838
  27   2.0000      -0.905143       -24.6302
  28   2.0000      -0.872654       -23.7461
  29   2.0000      -0.848561       -23.0905
  30   2.0000      -0.843443       -22.9512
  31   2.0000      -0.816259       -22.2115
  32   2.0000      -0.783417       -21.3179
  33   2.0000      -0.772753       -21.0277
  34   2.0000      -0.711431       -19.3590
  35   2.0000      -0.699202       -19.0262
  36   2.0000      -0.695439       -18.9239
  37   2.0000      -0.662837       -18.0367
  38   2.0000      -0.642720       -17.4893
  39   2.0000      -0.619534       -16.8584
  40   2.0000      -0.596378       -16.2283
  41   2.0000      -0.570768       -15.5314
  42   2.0000      -0.561083       -15.2678
  43   2.0000      -0.554211       -15.0808
  44   2.0000      -0.546358       -14.8672
  45   2.0000      -0.523815       -14.2537
  46   2.0000      -0.521160       -14.1815
  47   2.0000      -0.517171       -14.0729
  48   2.0000      -0.506185       -13.7740
  49   2.0000      -0.502357       -13.6698
  50   2.0000      -0.483619       -13.1599
  51   2.0000      -0.477441       -12.9918
  52   2.0000      -0.472936       -12.8692
  53   2.0000      -0.462165       -12.5761
  54   2.0000      -0.460062       -12.5189
  55   2.0000      -0.455300       -12.3894
  56   2.0000      -0.442363       -12.0373
  57   2.0000      -0.439875       -11.9696
  58   2.0000      -0.430076       -11.7030
  59   2.0000      -0.426015       -11.5925
  60   2.0000      -0.421507       -11.4698
  61   2.0000      -0.420168       -11.4334
  62   2.0000      -0.408857       -11.1256
  63   2.0000      -0.345786        -9.4093
  64   2.0000      -0.331494        -9.0204
  65   2.0000      -0.328040        -8.9264
  66   2.0000      -0.294411        -8.0113
  67   0.0000       0.031524         0.8578
  68   0.0000       0.072440         1.9712
  69   0.0000       0.109346         2.9754
  70   0.0000       0.120083         3.2676
  71   0.0000       0.124287         3.3820

MULLIKEN ATOMIC CHARGES
-----------------------
   0 S :    0.114921
   1 C :   -0.115201
   2 C :   -0.068415
   3 C :    0.008910
   4 C :   -0.150900
   5 H :    0.018259
   6 C :    0.071375
   7 H :    0.006529
   8 H :    0.037043
   9 C :   -0.070037
  10 H :    0.027817
  11 H :    0.016993
  12 C :   -0.022831
  13 H :    0.048867
  14 H :    0.020958
  15 H :    0.015089
  16 S :    0.109874
  17 C :   -0.046440
  18 C :   -0.005323
  19 C :   -0.029289
  20 C :   -0.173407
  21 H :   -0.006791
  22 C :    0.043088
  23 H :    0.019718
  24 H :    0.043986
  25 C :   -0.108006
  26 H :    0.037696
  27 H :    0.048166
  28 C :   -0.058849
  29 H :    0.037655
  30 H :    0.030042
  31 H :    0.043101
  32 H :    0.031093
  33 H :    0.024308
Sum of atomic charges:   -0.0000000

LOEWDIN ATOMIC CHARGES
----------------------
   0 S :    0.408115
   1 C :   -0.180460
   2 C :   -0.066330
   3 C :   -0.064086
   4 C :   -0.202171
   5 H :    0.032696
   6 C :   -0.024169
   7 H :    0.025932
   8 H :    0.030556
   9 C :   -0.033367
  10 H :    0.022790
  11 H :    0.013648
  12 C :   -0.053010
  13 H :    0.035004
  14 H :    0.018063
  15 H :    0.012777
  16 S :    0.410418
  17 C :   -0.172719
  18 C :   -0.062772
  19 C :   -0.046547
  20 C :   -0.199231
  21 H :    0.021059
  22 C :   -0.040145
  23 H :    0.026190
  24 H :    0.038599
  25 C :   -0.045639
  26 H :    0.030648
  27 H :    0.027532
  28 C :   -0.074492
  29 H :    0.028821
  30 H :    0.026841
  31 H :    0.026993
  32 H :    0.015649
  33 H :    0.012803

  Mayer bond orders larger than 0.100000
B(  0-S ,  1-C ) :   1.1443 B(  0-S ,  4-C ) :   1.1547 B(  1-C ,  2-C ) :   1.5793
B(  1-C , 32-H ) :   0.9775 B(  2-C ,  3-C ) :   1.2400 B(  2-C ,  6-C ) :   1.0197
B(  3-C ,  4-C ) :   1.5584 B(  3-C ,  5-H ) :   0.9935 B(  4-C , 20-C ) :   1.0589
B(  6-C ,  7-H ) :   0.9412 B(  6-C ,  8-H ) :   0.9453 B(  6-C ,  9-C ) :   1.0701
B(  9-C , 10-H ) :   0.9583 B(  9-C , 11-H ) :   0.9594 B(  9-C , 12-C ) :   1.0643
B( 12-C , 13-H ) :   0.9771 B( 12-C , 14-H ) :   0.9754 B( 12-C , 15-H ) :   0.9781
B( 16-S , 17-C ) :   1.1516 B( 16-S , 20-C ) :   1.1393 B( 17-C , 18-C ) :   1.6245
B( 17-C , 33-H ) :   0.9755 B( 18-C , 19-C ) :   1.2126 B( 18-C , 21-H ) :   1.0026
B( 19-C , 20-C ) :   1.5944 B( 19-C , 22-C ) :   1.0475 B( 22-C , 23-H ) :   0.9327
B( 22-C , 24-H ) :   0.9372 B( 22-C , 25-C ) :   1.0474 B( 25-C , 26-H ) :   0.9560
B( 25-C , 27-H ) :   0.9569 B( 25-C , 28-C ) :   1.0751 B( 28-C , 29-H ) :   0.9744
B( 28-C , 30-H ) :   0.9741 B( 28-C , 31-H ) :   0.9765

Dispersion correction           -0.014404743
FINAL SINGLE POINT ENERGY     -1339.880470333186

DIPOLE MOMENT
-------------
                                X             Y             Z
Electronic contribution:     10.21751     -22.67801      13.61932
Nuclear contribution   :    -10.67017      23.18225     -13.73951
                        -----------------------------------------
Total Dipole Moment    :     -0.45266       0.50424      -0.12019
                        -----------------------------------------
Magnitude (a.u.)       :      0.68819
Magnitude (Debye)      :      1.74924

Rotational constants in cm-1:     0.016465     0.009396     0.006975
Rotational constants in MHz :   493.606873   281.673133   209.093980

                             ****ORCA TERMINATED NORMALLY****
TOTAL RUN TIME: 0 days 0 hours 0 minutes 30 seconds 788 msec
