                         Program Version 4.2.1 -  RELEASE  -
|  1> ! wB97X-D3 SP def2-SVP
|  2> %pal
|  3> nprocs 16
|  4> end
|  5>
|  6> * xyz 0 1
|  7> S 	 54.7718 	 8.91058 	 76.5139
|  8> C 	 55.4797 	 10.4031 	 77.0659
|  9> C 	 56.021 	 11.0664 	 75.9759
| 10> C 	 56.0609 	 10.3492 	 74.733
| 11> C 	 55.4174 	 9.09842 	 74.9126
| 12> H 	 56.4952 	 10.6368 	 73.8013
| 13> C 	 56.4196 	 12.5144 	 75.9067
| 14> H 	 56.2744 	 13.052 	 76.8132
| 15> H 	 55.8953 	 12.9124 	 75.0485
| 16> C 	 57.9478 	 12.6284 	 75.56
| 17> H 	 58.3899 	 12.0426 	 76.2904
| 18> H 	 58.177 	 12.1297 	 74.567
| 19> C 	 58.483 	 14.128 	 75.5423
| 20> H 	 58.0989 	 14.6734 	 76.4657
| 21> H 	 59.5477 	 14.1317 	 75.5232
| 22> H 	 58.0341 	 14.7786 	 74.7302
| 23> S 	 53.3614 	 7.68305 	 73.7581
| 24> C 	 53.4327 	 7.11104 	 72.1263
| 25> C 	 54.7303 	 7.20714 	 71.6529
| 26> C 	 55.6042 	 7.91161 	 72.5623
| 27> C 	 54.9557 	 8.31027 	 73.7653
| 28> H 	 54.8356 	 6.87497 	 70.7172
| 29> C 	 57.111 	 7.9614 	 72.226
| 30> H 	 57.4669 	 7.03891 	 71.746
| 31> H 	 57.544 	 7.96709 	 73.2547
| 32> C 	 57.7741 	 9.2323 	 71.6008
| 33> H 	 58.8935 	 9.17239 	 71.4871
| 34> H 	 57.7981 	 10.0693 	 72.2862
| 35> C 	 57.1989 	 9.74018 	 70.2354
| 36> H 	 57.405 	 8.96013 	 69.487
| 37> H 	 57.6287 	 10.6676 	 69.9059
| 38> H 	 56.1589 	 9.76927 	 70.2136
| 39> H 	 55.4035 	 10.8862 	 78.0678
| 40> H 	 52.5691 	 6.91631 	 71.4578
| 41> *
| 42>
| 43>                          ****END OF INPUT****

CARTESIAN COORDINATES (ANGSTROEM)
---------------------------------
  S     54.771800    8.910580   76.513900
  C     55.479700   10.403100   77.065900
  C     56.021000   11.066400   75.975900
  C     56.060900   10.349200   74.733000
  C     55.417400    9.098420   74.912600
  H     56.495200   10.636800   73.801300
  C     56.419600   12.514400   75.906700
  H     56.274400   13.052000   76.813200
  H     55.895300   12.912400   75.048500
  C     57.947800   12.628400   75.560000
  H     58.389900   12.042600   76.290400
  H     58.177000   12.129700   74.567000
  C     58.483000   14.128000   75.542300
  H     58.098900   14.673400   76.465700
  H     59.547700   14.131700   75.523200
  H     58.034100   14.778600   74.730200
  S     53.361400    7.683050   73.758100
  C     53.432700    7.111040   72.126300
  C     54.730300    7.207140   71.652900
  C     55.604200    7.911610   72.562300
  C     54.955700    8.310270   73.765300
  H     54.835600    6.874970   70.717200
  C     57.111000    7.961400   72.226000
  H     57.466900    7.038910   71.746000
  H     57.544000    7.967090   73.254700
  C     57.774100    9.232300   71.600800
  H     58.893500    9.172390   71.487100
  H     57.798100   10.069300   72.286200
  C     57.198900    9.740180   70.235400
  H     57.405000    8.960130   69.487000
  H     57.628700   10.667600   69.905900
  H     56.158900    9.769270   70.213600
  H     55.403500   10.886200   78.067800
  H     52.569100    6.916310   71.457800

 Total Charge           Charge          ....    0
 Multiplicity           Mult            ....    1
 Number of Electrons    NEL             ....  134
 Basis Dimension        Dim             ....  322

ORBITAL ENERGIES
----------------

  NO   OCC          E(Eh)            E(eV)
   0   2.0000     -88.972489     -2421.0645
   1   2.0000     -88.965686     -2420.8794
   2   2.0000     -10.337333      -281.2931
   3   2.0000     -10.333209      -281.1809
   4   2.0000     -10.319120      -280.7975
   5   2.0000     -10.315750      -280.7058
   6   2.0000     -10.311638      -280.5939
   7   2.0000     -10.302447      -280.3438
   8   2.0000     -10.299628      -280.2671
   9   2.0000     -10.298562      -280.2381
  10   2.0000     -10.294574      -280.1296
  11   2.0000     -10.290715      -280.0246
  12   2.0000     -10.290665      -280.0232
  13   2.0000     -10.288710      -279.9700
  14   2.0000     -10.286939      -279.9219
  15   2.0000     -10.271605      -279.5046
  16   2.0000      -8.087160      -220.0628
  17   2.0000      -8.081363      -219.9051
  18   2.0000      -6.045770      -164.5138
  19   2.0000      -6.041641      -164.4014
  20   2.0000      -6.039825      -164.3520
  21   2.0000      -6.037845      -164.2981
  22   2.0000      -6.035598      -164.2370
  23   2.0000      -6.032246      -164.1458
  24   2.0000      -1.010433       -27.4953
  25   2.0000      -0.987280       -26.8652
  26   2.0000      -0.910560       -24.7776
  27   2.0000      -0.898197       -24.4412
  28   2.0000      -0.871058       -23.7027
  29   2.0000      -0.848897       -23.0997
  30   2.0000      -0.842933       -22.9374
  31   2.0000      -0.816417       -22.2158
  32   2.0000      -0.781150       -21.2562
  33   2.0000      -0.772228       -21.0134
  34   2.0000      -0.712684       -19.3931
  35   2.0000      -0.701290       -19.0831
  36   2.0000      -0.691722       -18.8227
  37   2.0000      -0.666137       -18.1265
  38   2.0000      -0.639809       -17.4101
  39   2.0000      -0.623391       -16.9633
  40   2.0000      -0.585116       -15.9218
  41   2.0000      -0.573104       -15.5949
  42   2.0000      -0.564525       -15.3615
  43   2.0000      -0.548090       -14.9143
  44   2.0000      -0.542922       -14.7737
  45   2.0000      -0.524921       -14.2838
  46   2.0000      -0.519411       -14.1339
  47   2.0000      -0.512579       -13.9480
  48   2.0000      -0.507575       -13.8118
  49   2.0000      -0.496871       -13.5205
  50   2.0000      -0.490456       -13.3460
  51   2.0000      -0.478952       -13.0329
  52   2.0000      -0.475575       -12.9411
  53   2.0000      -0.469764       -12.7829
  54   2.0000      -0.465693       -12.6722
  55   2.0000      -0.447827       -12.1860
  56   2.0000      -0.444506       -12.0956
  57   2.0000      -0.433549       -11.7975
  58   2.0000      -0.430407       -11.7120
  59   2.0000      -0.425078       -11.5670
  60   2.0000      -0.419815       -11.4238
  61   2.0000      -0.415805       -11.3146
  62   2.0000      -0.408185       -11.1073
  63   2.0000      -0.358076        -9.7437
  64   2.0000      -0.331397        -9.0178
  65   2.0000      -0.325703        -8.8628
  66   2.0000      -0.284769        -7.7490
  67   0.0000       0.021894         0.5958
  68   0.0000       0.071318         1.9407
  69   0.0000       0.104018         2.8305
  70   0.0000       0.118996         3.2381
  71   0.0000       0.123627         3.3641

MULLIKEN ATOMIC CHARGES
-----------------------
   0 S :    0.110884
   1 C :   -0.124356
   2 C :   -0.092832
   3 C :    0.021374
   4 C :   -0.113306
   5 H :    0.000571
   6 C :    0.093030
   7 H :    0.009434
   8 H :    0.037634
   9 C :   -0.113807
  10 H :    0.020083
  11 H :    0.039192
  12 C :   -0.060181
  13 H :    0.030726
  14 H :    0.043504
  15 H :    0.042239
  16 S :    0.107109
  17 C :   -0.126485
  18 C :    0.012544
  19 C :   -0.042931
  20 C :   -0.131579
  21 H :   -0.030248
  22 C :    0.044795
  23 H :    0.044367
  24 H :    0.036780
  25 C :   -0.084671
  26 H :    0.029228
  27 H :    0.007172
  28 C :   -0.025897
  29 H :    0.019395
  30 H :    0.032852
  31 H :    0.020372
  32 H :    0.065000
  33 H :    0.078009
Sum of atomic charges:    0.0000000

LOEWDIN ATOMIC CHARGES
----------------------
   0 S :    0.419393
   1 C :   -0.219655
   2 C :   -0.059533
   3 C :   -0.050840
   4 C :   -0.192256
   5 H :    0.025573
   6 C :   -0.023918
   7 H :    0.021300
   8 H :    0.033535
   9 C :   -0.035369
  10 H :    0.012748
  11 H :    0.025530
  12 C :   -0.073618
  13 H :    0.029257
  14 H :    0.021824
  15 H :    0.032112
  16 S :    0.429346
  17 C :   -0.203610
  18 C :   -0.056728
  19 C :   -0.063991
  20 C :   -0.204947
  21 H :    0.009986
  22 C :   -0.036611
  23 H :    0.035374
  24 H :    0.041741
  25 C :   -0.047928
  26 H :    0.032614
  27 H :    0.012959
  28 C :   -0.064255
  29 H :    0.025623
  30 H :    0.024267
  31 H :    0.014923
  32 H :    0.043311
  33 H :    0.041844

  Mayer bond orders larger than 0.100000
B(  0-S ,  1-C ) :   1.1152 B(  0-S ,  4-C ) :   1.1713 B(  1-C ,  2-C ) :   1.6067
B(  1-C , 32-H ) :   0.9642 B(  2-C ,  3-C ) :   1.2419 B(  2-C ,  6-C ) :   1.0421
B(  3-C ,  4-C ) :   1.5193 B(  3-C ,  5-H ) :   0.9951 B(  4-C , 20-C ) :   1.0608
B(  6-C ,  7-H ) :   0.9435 B(  6-C ,  8-H ) :   0.9397 B(  6-C ,  9-C ) :   1.0471
B(  9-C , 10-H ) :   0.9606 B(  9-C , 11-H ) :   0.9574 B(  9-C , 12-C ) :   1.0701
B( 12-C , 13-H ) :   0.9744 B( 12-C , 14-H ) :   0.9776 B( 12-C , 15-H ) :   0.9757
B( 16-S , 17-C ) :   1.1655 B( 16-S , 20-C ) :   1.1619 B( 17-C , 18-C ) :   1.5922
B( 17-C , 33-H ) :   0.9613 B( 18-C , 19-C ) :   1.2460 B( 18-C , 21-H ) :   1.0150
B( 19-C , 20-C ) :   1.5446 B( 19-C , 22-C ) :   1.0248 B( 22-C , 23-H ) :   0.9540
B( 22-C , 24-H ) :   0.9312 B( 22-C , 25-C ) :   1.0645 B( 25-C , 26-H ) :   0.9485
B( 25-C , 27-H ) :   0.9558 B( 25-C , 28-C ) :   1.0703 B( 28-C , 29-H ) :   0.9751
B( 28-C , 30-H ) :   0.9757 B( 28-C , 31-H ) :   0.9771

Dispersion correction           -0.014470050
FINAL SINGLE POINT ENERGY     -1339.847479309986

DIPOLE MOMENT
-------------
                                X             Y             Z
Electronic contribution:    -22.22219     -19.88004      11.74601
Nuclear contribution   :     22.51910      20.36182     -12.06171
                        -----------------------------------------
Total Dipole Moment    :      0.29691       0.48178      -0.31570
                        -----------------------------------------
Magnitude (a.u.)       :      0.64802
Magnitude (Debye)      :      1.64715

Rotational constants in cm-1:     0.017351     0.009541     0.006614
Rotational constants in MHz :   520.170166   286.018949   198.293399

                             ****ORCA TERMINATED NORMALLY****
TOTAL RUN TIME: 0 days 0 hours 0 minutes 30 seconds 199 msec
