                         Program Version 4.2.1 -  RELEASE  -
|  1> ! wB97X-D3 SP def2-SVP
|  2> %pal
|  3> nprocs 16
|  4> end
|  5>
|  6> * xyz 0 1
|  7> S 	 -64.6914 	 57.1218 	 127.929
|  8> C 	 -65.808 	 55.7929 	 127.876
|  9> C 	 -65.1822 	 54.5425 	 127.878
| 10> C 	 -63.7948 	 54.7679 	 127.591
| 11> C 	 -63.3164 	 56.017 	 127.697
| 12> H 	 -63.0791 	 53.9452 	 127.503
| 13> C 	 -65.9709 	 53.2413 	 128.026
| 14> H 	 -66.6364 	 53.4168 	 128.885
| 15> H 	 -65.2743 	 52.47 	 128.375
| 16> C 	 -66.7525 	 52.7668 	 126.83
| 17> H 	 -67.4179 	 53.586 	 126.504
| 18> H 	 -66.075 	 52.4165 	 125.991
| 19> C 	 -67.5373 	 51.4681 	 127.352
| 20> H 	 -68.0131 	 51.614 	 128.296
| 21> H 	 -68.3428 	 51.1729 	 126.629
| 22> H 	 -66.8612 	 50.6207 	 127.554
| 23> S 	 -60.6758 	 55.972 	 128.595
| 24> C 	 -59.4944 	 56.7551 	 127.656
| 25> C 	 -60.08 	 57.4778 	 126.653
| 26> C 	 -61.5117 	 57.338 	 126.473
| 27> C 	 -61.9894 	 56.5432 	 127.542
| 28> H 	 -59.4663 	 58.1021 	 125.987
| 29> C 	 -62.4111 	 57.988 	 125.388
| 30> H 	 -62.7293 	 59.0554 	 125.786
| 31> H 	 -63.3314 	 57.4211 	 125.268
| 32> C 	 -61.794 	 58.0924 	 123.983
| 33> H 	 -61.6668 	 57.068 	 123.651
| 34> H 	 -60.7801 	 58.4442 	 124.076
| 35> C 	 -62.7084 	 58.8373 	 122.919
| 36> H 	 -62.2089 	 59.0283 	 121.943
| 37> H 	 -62.9439 	 59.8266 	 123.255
| 38> H 	 -63.5872 	 58.1872 	 122.721
| 39> H 	 -66.8642 	 55.9054 	 127.962
| 40> H 	 -58.4547 	 56.7625 	 127.838
| 41> *
| 42>
| 43>                          ****END OF INPUT****

CARTESIAN COORDINATES (ANGSTROEM)
---------------------------------
  S    -64.691400   57.121800  127.929000
  C    -65.808000   55.792900  127.876000
  C    -65.182200   54.542500  127.878000
  C    -63.794800   54.767900  127.591000
  C    -63.316400   56.017000  127.697000
  H    -63.079100   53.945200  127.503000
  C    -65.970900   53.241300  128.026000
  H    -66.636400   53.416800  128.885000
  H    -65.274300   52.470000  128.375000
  C    -66.752500   52.766800  126.830000
  H    -67.417900   53.586000  126.504000
  H    -66.075000   52.416500  125.991000
  C    -67.537300   51.468100  127.352000
  H    -68.013100   51.614000  128.296000
  H    -68.342800   51.172900  126.629000
  H    -66.861200   50.620700  127.554000
  S    -60.675800   55.972000  128.595000
  C    -59.494400   56.755100  127.656000
  C    -60.080000   57.477800  126.653000
  C    -61.511700   57.338000  126.473000
  C    -61.989400   56.543200  127.542000
  H    -59.466300   58.102100  125.987000
  C    -62.411100   57.988000  125.388000
  H    -62.729300   59.055400  125.786000
  H    -63.331400   57.421100  125.268000
  C    -61.794000   58.092400  123.983000
  H    -61.666800   57.068000  123.651000
  H    -60.780100   58.444200  124.076000
  C    -62.708400   58.837300  122.919000
  H    -62.208900   59.028300  121.943000
  H    -62.943900   59.826600  123.255000
  H    -63.587200   58.187200  122.721000
  H    -66.864200   55.905400  127.962000
  H    -58.454700   56.762500  127.838000

 Total Charge           Charge          ....    0
 Multiplicity           Mult            ....    1
 Number of Electrons    NEL             ....  134
 Basis Dimension        Dim             ....  322

ORBITAL ENERGIES
----------------

  NO   OCC          E(Eh)            E(eV)
   0   2.0000     -88.966900     -2420.9124
   1   2.0000     -88.961319     -2420.7606
   2   2.0000     -10.326210      -280.9905
   3   2.0000     -10.321172      -280.8534
   4   2.0000     -10.311775      -280.5977
   5   2.0000     -10.311672      -280.5949
   6   2.0000     -10.310196      -280.5547
   7   2.0000     -10.303113      -280.3620
   8   2.0000     -10.300384      -280.2877
   9   2.0000     -10.298981      -280.2495
  10   2.0000     -10.294826      -280.1364
  11   2.0000     -10.294773      -280.1350
  12   2.0000     -10.290504      -280.0189
  13   2.0000     -10.287135      -279.9272
  14   2.0000     -10.285619      -279.8859
  15   2.0000     -10.285007      -279.8693
  16   2.0000      -8.081911      -219.9200
  17   2.0000      -8.075760      -219.7526
  18   2.0000      -6.040410      -164.3679
  19   2.0000      -6.036268      -164.2552
  20   2.0000      -6.034259      -164.2005
  21   2.0000      -6.032787      -164.1605
  22   2.0000      -6.030302      -164.0929
  23   2.0000      -6.026563      -163.9911
  24   2.0000      -1.005169       -27.3520
  25   2.0000      -0.983563       -26.7641
  26   2.0000      -0.911447       -24.8017
  27   2.0000      -0.901229       -24.5237
  28   2.0000      -0.869189       -23.6518
  29   2.0000      -0.845546       -23.0085
  30   2.0000      -0.840573       -22.8732
  31   2.0000      -0.811875       -22.0922
  32   2.0000      -0.780568       -21.2403
  33   2.0000      -0.767696       -20.8901
  34   2.0000      -0.705235       -19.1904
  35   2.0000      -0.703424       -19.1411
  36   2.0000      -0.697134       -18.9700
  37   2.0000      -0.653066       -17.7708
  38   2.0000      -0.636062       -17.3081
  39   2.0000      -0.616881       -16.7862
  40   2.0000      -0.600269       -16.3342
  41   2.0000      -0.571583       -15.5536
  42   2.0000      -0.560008       -15.2386
  43   2.0000      -0.557367       -15.1667
  44   2.0000      -0.525067       -14.2878
  45   2.0000      -0.518008       -14.0957
  46   2.0000      -0.513247       -13.9662
  47   2.0000      -0.508202       -13.8289
  48   2.0000      -0.503942       -13.7130
  49   2.0000      -0.495491       -13.4830
  50   2.0000      -0.490022       -13.3342
  51   2.0000      -0.470777       -12.8105
  52   2.0000      -0.467865       -12.7313
  53   2.0000      -0.465314       -12.6618
  54   2.0000      -0.457642       -12.4531
  55   2.0000      -0.450464       -12.2577
  56   2.0000      -0.446337       -12.1454
  57   2.0000      -0.439559       -11.9610
  58   2.0000      -0.428788       -11.6679
  59   2.0000      -0.424376       -11.5479
  60   2.0000      -0.423158       -11.5147
  61   2.0000      -0.418846       -11.3974
  62   2.0000      -0.414783       -11.2868
  63   2.0000      -0.340817        -9.2741
  64   2.0000      -0.330454        -8.9921
  65   2.0000      -0.323825        -8.8117
  66   2.0000      -0.297585        -8.0977
  67   0.0000       0.034693         0.9441
  68   0.0000       0.068906         1.8750
  69   0.0000       0.111160         3.0248
  70   0.0000       0.120515         3.2794
  71   0.0000       0.129443         3.5223

MULLIKEN ATOMIC CHARGES
-----------------------
   0 S :    0.102692
   1 C :   -0.116889
   2 C :   -0.091008
   3 C :    0.038346
   4 C :   -0.181449
   5 H :    0.007403
   6 C :    0.034272
   7 H :    0.033611
   8 H :    0.022832
   9 C :   -0.066012
  10 H :    0.038982
  11 H :    0.051317
  12 C :   -0.065151
  13 H :    0.019335
  14 H :    0.045689
  15 H :    0.036106
  16 S :    0.124654
  17 C :   -0.072265
  18 C :   -0.047191
  19 C :   -0.013962
  20 C :   -0.165988
  21 H :    0.020015
  22 C :    0.042058
  23 H :    0.058305
  24 H :    0.036940
  25 C :   -0.095250
  26 H :    0.029367
  27 H :    0.023512
  28 C :   -0.046140
  29 H :    0.038338
  30 H :    0.029618
  31 H :    0.045825
  32 H :    0.037314
  33 H :    0.044772
Sum of atomic charges:    0.0000000

LOEWDIN ATOMIC CHARGES
----------------------
   0 S :    0.398226
   1 C :   -0.190704
   2 C :   -0.065457
   3 C :   -0.062340
   4 C :   -0.192996
   5 H :    0.030409
   6 C :   -0.039250
   7 H :    0.035255
   8 H :    0.031185
   9 C :   -0.036789
  10 H :    0.026432
  11 H :    0.035290
  12 C :   -0.070902
  13 H :    0.017359
  14 H :    0.030406
  15 H :    0.028460
  16 S :    0.421466
  17 C :   -0.196880
  18 C :   -0.077664
  19 C :   -0.043684
  20 C :   -0.202091
  21 H :    0.028559
  22 C :   -0.038003
  23 H :    0.043996
  24 H :    0.027897
  25 C :   -0.044305
  26 H :    0.025480
  27 H :    0.016141
  28 C :   -0.064170
  29 H :    0.031533
  30 H :    0.020366
  31 H :    0.032466
  32 H :    0.018201
  33 H :    0.026105

  Mayer bond orders larger than 0.100000
B(  0-S ,  1-C ) :   1.1619 B(  0-S ,  4-C ) :   1.1153 B(  1-C ,  2-C ) :   1.5959
B(  1-C , 32-H ) :   0.9699 B(  2-C ,  3-C ) :   1.2370 B(  2-C ,  6-C ) :   1.0121
B(  3-C ,  4-C ) :   1.6354 B(  3-C ,  5-H ) :   0.9848 B(  4-C , 20-C ) :   1.0209
B(  6-C ,  7-H ) :   0.9407 B(  6-C ,  8-H ) :   0.9399 B(  6-C ,  9-C ) :   1.0707
B(  9-C , 10-H ) :   0.9573 B(  9-C , 11-H ) :   0.9553 B(  9-C , 12-C ) :   1.0588
B( 12-C , 13-H ) :   0.9767 B( 12-C , 14-H ) :   0.9761 B( 12-C , 15-H ) :   0.9762
B( 16-S , 17-C ) :   1.1593 B( 16-S , 20-C ) :   1.1506 B( 17-C , 18-C ) :   1.6080
B( 17-C , 33-H ) :   0.9714 B( 18-C , 19-C ) :   1.2510 B( 18-C , 21-H ) :   0.9804
B( 19-C , 20-C ) :   1.5664 B( 19-C , 22-C ) :   1.0355 B( 22-C , 23-H ) :   0.9376
B( 22-C , 24-H ) :   0.9324 B( 22-C , 25-C ) :   1.0510 B( 25-C , 26-H ) :   0.9580
B( 25-C , 27-H ) :   0.9606 B( 25-C , 28-C ) :   1.0729 B( 28-C , 29-H ) :   0.9761
B( 28-C , 30-H ) :   0.9778 B( 28-C , 31-H ) :   0.9756

Dispersion correction           -0.013527491
FINAL SINGLE POINT ENERGY     -1339.880478185916

DIPOLE MOMENT
-------------
                                X             Y             Z
Electronic contribution:     13.31945       8.01560      17.28221
Nuclear contribution   :    -13.43108      -8.27049     -17.64551
                        -----------------------------------------
Total Dipole Moment    :     -0.11164      -0.25488      -0.36330
                        -----------------------------------------
Magnitude (a.u.)       :      0.45762
Magnitude (Debye)      :      1.16317

Rotational constants in cm-1:     0.018575     0.007342     0.006116
Rotational constants in MHz :   556.862367   220.096028   183.346550

                             ****ORCA TERMINATED NORMALLY****
TOTAL RUN TIME: 0 days 0 hours 0 minutes 29 seconds 432 msec
