                         Program Version 4.2.1 -  RELEASE  -
|  1> ! wB97X-D3 SP def2-SVP
|  2> %pal
|  3> nprocs 16
|  4> end
|  5>
|  6> * xyz 0 1
|  7> S 	 -70.9988 	 39.618 	 121.769
|  8> C 	 -70.1649 	 40.6429 	 122.923
|  9> C 	 -68.887 	 40.1995 	 123.229
| 10> C 	 -68.5411 	 39.1723 	 122.278
| 11> C 	 -69.6153 	 38.6535 	 121.557
| 12> H 	 -67.5378 	 38.7397 	 122.33
| 13> C 	 -67.8861 	 40.7516 	 124.192
| 14> H 	 -68.3068 	 41.608 	 124.675
| 15> H 	 -67.0023 	 41.0535 	 123.67
| 16> C 	 -67.275 	 39.7822 	 125.22
| 17> H 	 -68.0403 	 39.3614 	 125.787
| 18> H 	 -66.8738 	 38.9547 	 124.613
| 19> C 	 -66.082 	 40.4325 	 125.939
| 20> H 	 -65.8095 	 39.736 	 126.738
| 21> H 	 -65.2979 	 40.5832 	 125.241
| 22> H 	 -66.3609 	 41.3302 	 126.348
| 23> S 	 -69.7675 	 37.8043 	 118.919
| 24> C 	 -69.2021 	 36.28 	 118.469
| 25> C 	 -68.9091 	 35.5412 	 119.56
| 26> C 	 -69.1147 	 36.2757 	 120.814
| 27> C 	 -69.5707 	 37.5462 	 120.673
| 28> H 	 -68.5668 	 34.4826 	 119.502
| 29> C 	 -68.9906 	 35.591 	 122.124
| 30> H 	 -69.6073 	 34.6942 	 122.213
| 31> H 	 -69.4907 	 36.1282 	 122.885
| 32> C 	 -67.5532 	 35.066 	 122.55
| 33> H 	 -67.4025 	 34.0935 	 122.083
| 34> H 	 -67.4957 	 34.8333 	 123.621
| 35> C 	 -66.3416 	 35.8536 	 122.109
| 36> H 	 -66.4391 	 36.9017 	 122.488
| 37> H 	 -66.3703 	 35.9503 	 121.006
| 38> H 	 -65.3497 	 35.388 	 122.44
| 39> H 	 -70.5972 	 41.5689 	 123.331
| 40> H 	 -69.0365 	 36.011 	 117.4
| 41> *
| 42>
| 43>                          ****END OF INPUT****

CARTESIAN COORDINATES (ANGSTROEM)
---------------------------------
  S    -70.998800   39.618000  121.769000
  C    -70.164900   40.642900  122.923000
  C    -68.887000   40.199500  123.229000
  C    -68.541100   39.172300  122.278000
  C    -69.615300   38.653500  121.557000
  H    -67.537800   38.739700  122.330000
  C    -67.886100   40.751600  124.192000
  H    -68.306800   41.608000  124.675000
  H    -67.002300   41.053500  123.670000
  C    -67.275000   39.782200  125.220000
  H    -68.040300   39.361400  125.787000
  H    -66.873800   38.954700  124.613000
  C    -66.082000   40.432500  125.939000
  H    -65.809500   39.736000  126.738000
  H    -65.297900   40.583200  125.241000
  H    -66.360900   41.330200  126.348000
  S    -69.767500   37.804300  118.919000
  C    -69.202100   36.280000  118.469000
  C    -68.909100   35.541200  119.560000
  C    -69.114700   36.275700  120.814000
  C    -69.570700   37.546200  120.673000
  H    -68.566800   34.482600  119.502000
  C    -68.990600   35.591000  122.124000
  H    -69.607300   34.694200  122.213000
  H    -69.490700   36.128200  122.885000
  C    -67.553200   35.066000  122.550000
  H    -67.402500   34.093500  122.083000
  H    -67.495700   34.833300  123.621000
  C    -66.341600   35.853600  122.109000
  H    -66.439100   36.901700  122.488000
  H    -66.370300   35.950300  121.006000
  H    -65.349700   35.388000  122.440000
  H    -70.597200   41.568900  123.331000
  H    -69.036500   36.011000  117.400000

 Total Charge           Charge          ....    0
 Multiplicity           Mult            ....    1
 Number of Electrons    NEL             ....  134
 Basis Dimension        Dim             ....  322

ORBITAL ENERGIES
----------------

  NO   OCC          E(Eh)            E(eV)
   0   2.0000     -88.967232     -2420.9215
   1   2.0000     -88.955758     -2420.6092
   2   2.0000     -10.325002      -280.9576
   3   2.0000     -10.321923      -280.8738
   4   2.0000     -10.317863      -280.7633
   5   2.0000     -10.316366      -280.7226
   6   2.0000     -10.302928      -280.3569
   7   2.0000     -10.300782      -280.2985
   8   2.0000     -10.295183      -280.1462
   9   2.0000     -10.294380      -280.1243
  10   2.0000     -10.287014      -279.9239
  11   2.0000     -10.286150      -279.9004
  12   2.0000     -10.285623      -279.8860
  13   2.0000     -10.283394      -279.8254
  14   2.0000     -10.283222      -279.8207
  15   2.0000     -10.274015      -279.5702
  16   2.0000      -8.082802      -219.9442
  17   2.0000      -8.072149      -219.6543
  18   2.0000      -6.041248      -164.3907
  19   2.0000      -6.037141      -164.2790
  20   2.0000      -6.033633      -164.1835
  21   2.0000      -6.030629      -164.1017
  22   2.0000      -6.026331      -163.9848
  23   2.0000      -6.022888      -163.8911
  24   2.0000      -1.013518       -27.5792
  25   2.0000      -0.990035       -26.9402
  26   2.0000      -0.920630       -25.0516
  27   2.0000      -0.906286       -24.6613
  28   2.0000      -0.877639       -23.8818
  29   2.0000      -0.853884       -23.2354
  30   2.0000      -0.842826       -22.9345
  31   2.0000      -0.812007       -22.0958
  32   2.0000      -0.787257       -21.4223
  33   2.0000      -0.776841       -21.1389
  34   2.0000      -0.713973       -19.4282
  35   2.0000      -0.699959       -19.0468
  36   2.0000      -0.690928       -18.8011
  37   2.0000      -0.655948       -17.8492
  38   2.0000      -0.639535       -17.4026
  39   2.0000      -0.624885       -17.0040
  40   2.0000      -0.601170       -16.3587
  41   2.0000      -0.581188       -15.8149
  42   2.0000      -0.565309       -15.3828
  43   2.0000      -0.544183       -14.8080
  44   2.0000      -0.543642       -14.7933
  45   2.0000      -0.528682       -14.3862
  46   2.0000      -0.520394       -14.1606
  47   2.0000      -0.511420       -13.9165
  48   2.0000      -0.506906       -13.7936
  49   2.0000      -0.504254       -13.7215
  50   2.0000      -0.494456       -13.4548
  51   2.0000      -0.485210       -13.2032
  52   2.0000      -0.468785       -12.7563
  53   2.0000      -0.464227       -12.6323
  54   2.0000      -0.456906       -12.4330
  55   2.0000      -0.454935       -12.3794
  56   2.0000      -0.442141       -12.0313
  57   2.0000      -0.438858       -11.9419
  58   2.0000      -0.435704       -11.8561
  59   2.0000      -0.429217       -11.6796
  60   2.0000      -0.423523       -11.5247
  61   2.0000      -0.412157       -11.2154
  62   2.0000      -0.401805       -10.9337
  63   2.0000      -0.342374        -9.3165
  64   2.0000      -0.330001        -8.9798
  65   2.0000      -0.323447        -8.8014
  66   2.0000      -0.300050        -8.1648
  67   0.0000       0.036692         0.9984
  68   0.0000       0.069048         1.8789
  69   0.0000       0.113889         3.0991
  70   0.0000       0.119587         3.2541
  71   0.0000       0.122978         3.3464

MULLIKEN ATOMIC CHARGES
-----------------------
   0 S :    0.125283
   1 C :   -0.135094
   2 C :   -0.083061
   3 C :    0.037793
   4 C :   -0.161212
   5 H :   -0.001404
   6 C :    0.081344
   7 H :    0.008308
   8 H :    0.017515
   9 C :   -0.097028
  10 H :    0.019669
  11 H :    0.021170
  12 C :    0.014974
  13 H :    0.039878
  14 H :    0.027323
  15 H :    0.012456
  16 S :    0.086837
  17 C :   -0.090836
  18 C :   -0.035513
  19 C :   -0.053241
  20 C :   -0.123242
  21 H :    0.034073
  22 C :    0.077215
  23 H :    0.028140
  24 H :    0.012382
  25 C :   -0.093480
  26 H :    0.019900
  27 H :    0.030552
  28 C :   -0.070286
  29 H :    0.027688
  30 H :    0.040938
  31 H :    0.049473
  32 H :    0.051599
  33 H :    0.079887
Sum of atomic charges:   -0.0000000

LOEWDIN ATOMIC CHARGES
----------------------
   0 S :    0.429601
   1 C :   -0.198732
   2 C :   -0.061051
   3 C :   -0.052551
   4 C :   -0.218142
   5 H :    0.025728
   6 C :   -0.031135
   7 H :    0.023427
   8 H :    0.031109
   9 C :   -0.029932
  10 H :    0.013042
  11 H :    0.023271
  12 C :   -0.045955
  13 H :    0.033989
  14 H :    0.023759
  15 H :    0.012303
  16 S :    0.404446
  17 C :   -0.196740
  18 C :   -0.086271
  19 C :   -0.052284
  20 C :   -0.194229
  21 H :    0.038083
  22 C :   -0.035921
  23 H :    0.039497
  24 H :    0.026024
  25 C :   -0.046475
  26 H :    0.019571
  27 H :    0.025590
  28 C :   -0.077169
  29 H :    0.019991
  30 H :    0.027937
  31 H :    0.035962
  32 H :    0.029822
  33 H :    0.043432

  Mayer bond orders larger than 0.100000
B(  0-S ,  1-C ) :   1.1447 B(  0-S ,  4-C ) :   1.1578 B(  1-C ,  2-C ) :   1.6003
B(  1-C , 32-H ) :   0.9631 B(  2-C ,  3-C ) :   1.2500 B(  2-C ,  6-C ) :   1.0427
B(  3-C ,  4-C ) :   1.5548 B(  3-C ,  5-H ) :   0.9867 B(  4-C , 20-C ) :   1.0380
B(  6-C ,  7-H ) :   0.9372 B(  6-C ,  8-H ) :   0.9354 B(  6-C ,  9-C ) :   1.0539
B(  9-C , 10-H ) :   0.9594 B(  9-C , 11-H ) :   0.9553 B(  9-C , 12-C ) :   1.0775
B( 12-C , 13-H ) :   0.9730 B( 12-C , 14-H ) :   0.9722 B( 12-C , 15-H ) :   0.9761
B( 16-S , 17-C ) :   1.1766 B( 16-S , 20-C ) :   1.1076 B( 17-C , 18-C ) :   1.6014
B( 17-C , 33-H ) :   0.9613 B( 18-C , 19-C ) :   1.2085 B( 18-C , 21-H ) :   0.9900
B( 19-C , 20-C ) :   1.6303 B( 19-C , 22-C ) :   1.0688 B( 22-C , 23-H ) :   0.9383
B( 22-C , 24-H ) :   0.9355 B( 22-C , 25-C ) :   1.0388 B( 25-C , 26-H ) :   0.9551
B( 25-C , 27-H ) :   0.9570 B( 25-C , 28-C ) :   1.0963 B( 28-C , 29-H ) :   0.9712
B( 28-C , 30-H ) :   0.9616 B( 28-C , 31-H ) :   0.9682

Dispersion correction           -0.015101994
FINAL SINGLE POINT ENERGY     -1339.872343707802

DIPOLE MOMENT
-------------
                                X             Y             Z
Electronic contribution:    -22.16411       4.96093     -21.57586
Nuclear contribution   :     22.68285      -5.18179      22.02770
                        -----------------------------------------
Total Dipole Moment    :      0.51873      -0.22086       0.45185
                        -----------------------------------------
Magnitude (a.u.)       :      0.72252
Magnitude (Debye)      :      1.83649

Rotational constants in cm-1:     0.018557     0.009584     0.006995
Rotational constants in MHz :   556.328413   287.317835   209.706794

                             ****ORCA TERMINATED NORMALLY****
TOTAL RUN TIME: 0 days 0 hours 0 minutes 35 seconds 317 msec
