                         Program Version 4.2.1 -  RELEASE  -
|  1> ! wB97X-D3 SP def2-SVP
|  2> %pal
|  3> nprocs 16
|  4> end
|  5>
|  6> * xyz 0 1
|  7> S 	 -2.88466 	 46.9633 	 45.9354
|  8> C 	 -1.55138 	 47.9313 	 45.3477
|  9> C 	 -1.68631 	 49.2632 	 45.7171
| 10> C 	 -2.87397 	 49.5073 	 46.4719
| 11> C 	 -3.66847 	 48.4081 	 46.4596
| 12> H 	 -3.34585 	 50.5096 	 46.8051
| 13> C 	 -0.686079 	 50.2926 	 45.4839
| 14> H 	 -0.13273 	 49.9484 	 44.588
| 15> H 	 0.033427 	 50.0857 	 46.2663
| 16> C 	 -1.13291 	 51.6825 	 45.4714
| 17> H 	 -1.86149 	 51.9222 	 46.1862
| 18> H 	 -0.30736 	 52.3625 	 45.65
| 19> C 	 -1.8562 	 52.004 	 44.1249
| 20> H 	 -1.28855 	 51.7706 	 43.2408
| 21> H 	 -2.66044 	 51.3631 	 43.994
| 22> H 	 -2.27468 	 53.0555 	 44.0885
| 23> S 	 -6.27143 	 48.7388 	 45.6549
| 24> C 	 -7.60208 	 48.3004 	 46.6867
| 25> C 	 -7.14988 	 47.6164 	 47.7529
| 26> C 	 -5.7044 	 47.6368 	 47.904
| 27> C 	 -5.04339 	 48.326 	 46.8789
| 28> H 	 -7.90644 	 47.1669 	 48.2808
| 29> C 	 -5.0631 	 47.0071 	 49.1052
| 30> H 	 -4.17256 	 46.609 	 48.5926
| 31> H 	 -5.71957 	 46.2336 	 49.3513
| 32> C 	 -4.60873 	 47.9192 	 50.2568
| 33> H 	 -5.36352 	 48.689 	 50.5763
| 34> H 	 -3.73841 	 48.5196 	 49.8869
| 35> C 	 -4.11081 	 47.105 	 51.483
| 36> H 	 -3.94573 	 47.8244 	 52.2769
| 37> H 	 -3.17119 	 46.7051 	 51.2166
| 38> H 	 -4.88411 	 46.3605 	 51.8549
| 39> H 	 -0.698667 	 47.5193 	 44.943
| 40> H 	 -8.64883 	 48.4644 	 46.4555
| 41> *
| 42>
| 43>                          ****END OF INPUT****

CARTESIAN COORDINATES (ANGSTROEM)
---------------------------------
  S     -2.884660   46.963300   45.935400
  C     -1.551380   47.931300   45.347700
  C     -1.686310   49.263200   45.717100
  C     -2.873970   49.507300   46.471900
  C     -3.668470   48.408100   46.459600
  H     -3.345850   50.509600   46.805100
  C     -0.686079   50.292600   45.483900
  H     -0.132730   49.948400   44.588000
  H      0.033427   50.085700   46.266300
  C     -1.132910   51.682500   45.471400
  H     -1.861490   51.922200   46.186200
  H     -0.307360   52.362500   45.650000
  C     -1.856200   52.004000   44.124900
  H     -1.288550   51.770600   43.240800
  H     -2.660440   51.363100   43.994000
  H     -2.274680   53.055500   44.088500
  S     -6.271430   48.738800   45.654900
  C     -7.602080   48.300400   46.686700
  C     -7.149880   47.616400   47.752900
  C     -5.704400   47.636800   47.904000
  C     -5.043390   48.326000   46.878900
  H     -7.906440   47.166900   48.280800
  C     -5.063100   47.007100   49.105200
  H     -4.172560   46.609000   48.592600
  H     -5.719570   46.233600   49.351300
  C     -4.608730   47.919200   50.256800
  H     -5.363520   48.689000   50.576300
  H     -3.738410   48.519600   49.886900
  C     -4.110810   47.105000   51.483000
  H     -3.945730   47.824400   52.276900
  H     -3.171190   46.705100   51.216600
  H     -4.884110   46.360500   51.854900
  H     -0.698667   47.519300   44.943000
  H     -8.648830   48.464400   46.455500

 Total Charge           Charge          ....    0
 Multiplicity           Mult            ....    1
 Number of Electrons    NEL             ....  134
 Basis Dimension        Dim             ....  322

ORBITAL ENERGIES
----------------

  NO   OCC          E(Eh)            E(eV)
   0   2.0000     -88.966272     -2420.8953
   1   2.0000     -88.955576     -2420.6043
   2   2.0000     -10.323509      -280.9169
   3   2.0000     -10.322009      -280.8762
   4   2.0000     -10.310734      -280.5693
   5   2.0000     -10.305513      -280.4273
   6   2.0000     -10.304355      -280.3957
   7   2.0000     -10.299760      -280.2707
   8   2.0000     -10.297878      -280.2195
   9   2.0000     -10.290816      -280.0273
  10   2.0000     -10.284390      -279.8525
  11   2.0000     -10.282208      -279.7931
  12   2.0000     -10.282116      -279.7906
  13   2.0000     -10.281128      -279.7637
  14   2.0000     -10.277444      -279.6635
  15   2.0000     -10.271928      -279.5134
  16   2.0000      -8.081328      -219.9041
  17   2.0000      -8.070478      -219.6089
  18   2.0000      -6.039705      -164.3487
  19   2.0000      -6.035899      -164.2452
  20   2.0000      -6.032105      -164.1419
  21   2.0000      -6.029124      -164.0608
  22   2.0000      -6.024944      -163.9471
  23   2.0000      -6.021083      -163.8420
  24   2.0000      -1.011011       -27.5110
  25   2.0000      -0.985071       -26.8052
  26   2.0000      -0.928135       -25.2558
  27   2.0000      -0.904586       -24.6150
  28   2.0000      -0.873760       -23.7762
  29   2.0000      -0.848707       -23.0945
  30   2.0000      -0.844737       -22.9865
  31   2.0000      -0.822421       -22.3792
  32   2.0000      -0.785035       -21.3619
  33   2.0000      -0.768051       -20.8997
  34   2.0000      -0.719617       -19.5818
  35   2.0000      -0.701570       -19.0907
  36   2.0000      -0.688741       -18.7416
  37   2.0000      -0.660362       -17.9694
  38   2.0000      -0.641375       -17.4527
  39   2.0000      -0.625827       -17.0296
  40   2.0000      -0.586121       -15.9492
  41   2.0000      -0.574646       -15.6369
  42   2.0000      -0.565145       -15.3784
  43   2.0000      -0.560342       -15.2477
  44   2.0000      -0.531757       -14.4698
  45   2.0000      -0.529630       -14.4120
  46   2.0000      -0.523469       -14.2443
  47   2.0000      -0.518129       -14.0990
  48   2.0000      -0.508025       -13.8241
  49   2.0000      -0.495890       -13.4938
  50   2.0000      -0.490517       -13.3477
  51   2.0000      -0.477782       -13.0011
  52   2.0000      -0.470268       -12.7966
  53   2.0000      -0.460468       -12.5300
  54   2.0000      -0.457141       -12.4394
  55   2.0000      -0.451518       -12.2864
  56   2.0000      -0.443976       -12.0812
  57   2.0000      -0.438131       -11.9221
  58   2.0000      -0.435316       -11.8456
  59   2.0000      -0.425662       -11.5828
  60   2.0000      -0.420065       -11.4306
  61   2.0000      -0.415597       -11.3090
  62   2.0000      -0.406088       -11.0502
  63   2.0000      -0.335951        -9.1417
  64   2.0000      -0.326876        -8.8948
  65   2.0000      -0.316575        -8.6145
  66   2.0000      -0.305017        -8.2999
  67   0.0000       0.038989         1.0609
  68   0.0000       0.058271         1.5856
  69   0.0000       0.108934         2.9642
  70   0.0000       0.117523         3.1980
  71   0.0000       0.130803         3.5593

MULLIKEN ATOMIC CHARGES
-----------------------
   0 S :    0.130328
   1 C :   -0.095197
   2 C :   -0.119406
   3 C :    0.008444
   4 C :   -0.183090
   5 H :    0.057116
   6 C :    0.078688
   7 H :    0.021945
   8 H :    0.038466
   9 C :   -0.016143
  10 H :    0.016481
  11 H :    0.027178
  12 C :   -0.052232
  13 H :    0.019286
  14 H :    0.014208
  15 H :    0.044068
  16 S :    0.084338
  17 C :   -0.090933
  18 C :   -0.004940
  19 C :   -0.063700
  20 C :   -0.153449
  21 H :   -0.016985
  22 C :    0.123863
  23 H :    0.014697
  24 H :    0.004346
  25 C :   -0.097272
  26 H :    0.037627
  27 H :    0.034326
  28 C :   -0.034671
  29 H :    0.029397
  30 H :    0.029028
  31 H :    0.045137
  32 H :    0.011957
  33 H :    0.057097
Sum of atomic charges:   -0.0000000

LOEWDIN ATOMIC CHARGES
----------------------
   0 S :    0.421946
   1 C :   -0.194069
   2 C :   -0.055012
   3 C :   -0.072128
   4 C :   -0.202809
   5 H :    0.053264
   6 C :   -0.042552
   7 H :    0.037656
   8 H :    0.040581
   9 C :   -0.034719
  10 H :    0.018984
  11 H :    0.027543
  12 C :   -0.061245
  13 H :    0.021530
  14 H :    0.015834
  15 H :    0.033115
  16 S :    0.386561
  17 C :   -0.176634
  18 C :   -0.073765
  19 C :   -0.046915
  20 C :   -0.202197
  21 H :    0.019178
  22 C :   -0.034892
  23 H :    0.030873
  24 H :    0.020803
  25 C :   -0.042102
  26 H :    0.025266
  27 H :    0.030605
  28 C :   -0.063146
  29 H :    0.025579
  30 H :    0.019831
  31 H :    0.032093
  32 H :    0.008772
  33 H :    0.032175

  Mayer bond orders larger than 0.100000
B(  0-S ,  1-C ) :   1.1251 B(  0-S ,  4-C ) :   1.1620 B(  1-C ,  2-C ) :   1.6138
B(  1-C , 32-H ) :   0.9802 B(  2-C ,  3-C ) :   1.2185 B(  2-C ,  6-C ) :   1.0230
B(  3-C ,  4-C ) :   1.6044 B(  3-C ,  5-H ) :   0.9684 B(  4-C , 20-C ) :   1.0415
B(  6-C ,  7-H ) :   0.9348 B(  6-C ,  8-H ) :   0.9160 B(  6-C ,  9-C ) :   1.0872
B(  9-C , 10-H ) :   0.9481 B(  9-C , 11-H ) :   0.9479 B(  9-C , 12-C ) :   1.0685
B( 12-C , 13-H ) :   0.9737 B( 12-C , 14-H ) :   0.9744 B( 12-C , 15-H ) :   0.9755
B( 16-S , 17-C ) :   1.1541 B( 16-S , 20-C ) :   1.1259 B( 17-C , 18-C ) :   1.6329
B( 17-C , 33-H ) :   0.9649 B( 18-C , 19-C ) :   1.2020 B( 18-C , 21-H ) :   1.0085
B( 19-C , 20-C ) :   1.5919 B( 19-C , 22-C ) :   1.0382 B( 22-C , 23-H ) :   0.9153
B( 22-C , 24-H ) :   0.9331 B( 22-C , 25-C ) :   1.0658 B( 25-C , 26-H ) :   0.9620
B( 25-C , 27-H ) :   0.9512 B( 25-C , 28-C ) :   1.0793 B( 28-C , 29-H ) :   0.9742
B( 28-C , 30-H ) :   0.9770 B( 28-C , 31-H ) :   0.9765

Dispersion correction           -0.014408203
FINAL SINGLE POINT ENERGY     -1339.851515990688

DIPOLE MOMENT
-------------
                                X             Y             Z
Electronic contribution:    -10.06257     -10.00210     -11.19314
Nuclear contribution   :     10.26079      10.14574      11.52253
                        -----------------------------------------
Total Dipole Moment    :      0.19822       0.14364       0.32939
                        -----------------------------------------
Magnitude (a.u.)       :      0.41039
Magnitude (Debye)      :      1.04312

Rotational constants in cm-1:     0.018322     0.008766     0.007404
Rotational constants in MHz :   549.285193   262.795793   221.958262

                             ****ORCA TERMINATED NORMALLY****
TOTAL RUN TIME: 0 days 0 hours 0 minutes 32 seconds 948 msec
