                         Program Version 4.2.1 -  RELEASE  -
|  1> ! wB97X-D3 SP def2-SVP
|  2> %pal
|  3> nprocs 16
|  4> end
|  5>
|  6> * xyz 0 1
|  7> S 	 25.892 	 6.41888 	 74.4455
|  8> C 	 25.9889 	 4.73294 	 73.9464
|  9> C 	 25.3757 	 3.8948 	 74.8021
| 10> C 	 24.9249 	 4.65874 	 75.934
| 11> C 	 25.1337 	 6.03695 	 75.9343
| 12> H 	 24.4516 	 4.2049 	 76.8149
| 13> C 	 25.2308 	 2.41578 	 74.7457
| 14> H 	 25.774 	 1.96252 	 75.5992
| 15> H 	 25.7212 	 1.9675 	 73.8529
| 16> C 	 23.7813 	 1.8909 	 74.679
| 17> H 	 23.8766 	 0.786252 	 74.5031
| 18> H 	 23.3133 	 1.96456 	 75.6554
| 19> C 	 22.9097 	 2.66397 	 73.663
| 20> H 	 23.3726 	 2.67901 	 72.6976
| 21> H 	 21.9357 	 2.25588 	 73.7386
| 22> H 	 22.8205 	 3.64059 	 74.0552
| 23> S 	 22.9767 	 7.17682 	 77.0918
| 24> C 	 23.1553 	 8.62895 	 78.078
| 25> C 	 24.519 	 8.92366 	 78.1579
| 26> C 	 25.4045 	 8.00007 	 77.5016
| 27> C 	 24.6856 	 7.00666 	 76.866
| 28> H 	 24.6945 	 9.9239 	 78.7005
| 29> C 	 26.944 	 8.31994 	 77.4496
| 30> H 	 26.9088 	 9.345 	 77.0635
| 31> H 	 27.4211 	 7.79524 	 76.5523
| 32> C 	 27.7569 	 7.92246 	 78.7269
| 33> H 	 27.2092 	 8.28522 	 79.5218
| 34> H 	 28.8215 	 8.26482 	 78.6402
| 35> C 	 27.7678 	 6.39933 	 79.0755
| 36> H 	 28.2843 	 6.26552 	 80.054
| 37> H 	 28.3616 	 5.89746 	 78.2607
| 38> H 	 26.7894 	 6.00802 	 78.9819
| 39> H 	 26.5105 	 4.47016 	 73.0747
| 40> H 	 22.3531 	 9.27777 	 78.3906
| 41> *
| 42>
| 43>                          ****END OF INPUT****

CARTESIAN COORDINATES (ANGSTROEM)
---------------------------------
  S     25.892000    6.418880   74.445500
  C     25.988900    4.732940   73.946400
  C     25.375700    3.894800   74.802100
  C     24.924900    4.658740   75.934000
  C     25.133700    6.036950   75.934300
  H     24.451600    4.204900   76.814900
  C     25.230800    2.415780   74.745700
  H     25.774000    1.962520   75.599200
  H     25.721200    1.967500   73.852900
  C     23.781300    1.890900   74.679000
  H     23.876600    0.786252   74.503100
  H     23.313300    1.964560   75.655400
  C     22.909700    2.663970   73.663000
  H     23.372600    2.679010   72.697600
  H     21.935700    2.255880   73.738600
  H     22.820500    3.640590   74.055200
  S     22.976700    7.176820   77.091800
  C     23.155300    8.628950   78.078000
  C     24.519000    8.923660   78.157900
  C     25.404500    8.000070   77.501600
  C     24.685600    7.006660   76.866000
  H     24.694500    9.923900   78.700500
  C     26.944000    8.319940   77.449600
  H     26.908800    9.345000   77.063500
  H     27.421100    7.795240   76.552300
  C     27.756900    7.922460   78.726900
  H     27.209200    8.285220   79.521800
  H     28.821500    8.264820   78.640200
  C     27.767800    6.399330   79.075500
  H     28.284300    6.265520   80.054000
  H     28.361600    5.897460   78.260700
  H     26.789400    6.008020   78.981900
  H     26.510500    4.470160   73.074700
  H     22.353100    9.277770   78.390600

 Total Charge           Charge          ....    0
 Multiplicity           Mult            ....    1
 Number of Electrons    NEL             ....  134
 Basis Dimension        Dim             ....  322

ORBITAL ENERGIES
----------------

  NO   OCC          E(Eh)            E(eV)
   0   2.0000     -88.966780     -2420.9092
   1   2.0000     -88.962983     -2420.8058
   2   2.0000     -10.325797      -280.9792
   3   2.0000     -10.324506      -280.9441
   4   2.0000     -10.320743      -280.8417
   5   2.0000     -10.310732      -280.5693
   6   2.0000     -10.308716      -280.5144
   7   2.0000     -10.304008      -280.3863
   8   2.0000     -10.301862      -280.3279
   9   2.0000     -10.298338      -280.2320
  10   2.0000     -10.294802      -280.1358
  11   2.0000     -10.292992      -280.0866
  12   2.0000     -10.287864      -279.9470
  13   2.0000     -10.286273      -279.9037
  14   2.0000     -10.276570      -279.6397
  15   2.0000     -10.267016      -279.3797
  16   2.0000      -8.081538      -219.9098
  17   2.0000      -8.078196      -219.8189
  18   2.0000      -6.040005      -164.3569
  19   2.0000      -6.036707      -164.2672
  20   2.0000      -6.035951      -164.2466
  21   2.0000      -6.032577      -164.1548
  22   2.0000      -6.032403      -164.1500
  23   2.0000      -6.028979      -164.0569
  24   2.0000      -1.012321       -27.5467
  25   2.0000      -0.986831       -26.8530
  26   2.0000      -0.914878       -24.8951
  27   2.0000      -0.898543       -24.4506
  28   2.0000      -0.874489       -23.7961
  29   2.0000      -0.846822       -23.0432
  30   2.0000      -0.841235       -22.8912
  31   2.0000      -0.810866       -22.0648
  32   2.0000      -0.786782       -21.4094
  33   2.0000      -0.774071       -21.0635
  34   2.0000      -0.710764       -19.3409
  35   2.0000      -0.696751       -18.9596
  36   2.0000      -0.689680       -18.7672
  37   2.0000      -0.659967       -17.9586
  38   2.0000      -0.638303       -17.3691
  39   2.0000      -0.620081       -16.8733
  40   2.0000      -0.593861       -16.1598
  41   2.0000      -0.568795       -15.4777
  42   2.0000      -0.558221       -15.1900
  43   2.0000      -0.552690       -15.0394
  44   2.0000      -0.540115       -14.6973
  45   2.0000      -0.537945       -14.6382
  46   2.0000      -0.518458       -14.1079
  47   2.0000      -0.512391       -13.9429
  48   2.0000      -0.506149       -13.7730
  49   2.0000      -0.497409       -13.5352
  50   2.0000      -0.483940       -13.1687
  51   2.0000      -0.479893       -13.0585
  52   2.0000      -0.469326       -12.7710
  53   2.0000      -0.462893       -12.5960
  54   2.0000      -0.455575       -12.3968
  55   2.0000      -0.446489       -12.1496
  56   2.0000      -0.438654       -11.9364
  57   2.0000      -0.435408       -11.8480
  58   2.0000      -0.433488       -11.7958
  59   2.0000      -0.419591       -11.4176
  60   2.0000      -0.419426       -11.4132
  61   2.0000      -0.415770       -11.3137
  62   2.0000      -0.400609       -10.9011
  63   2.0000      -0.343334        -9.3426
  64   2.0000      -0.333101        -9.0641
  65   2.0000      -0.327408        -8.9092
  66   2.0000      -0.301618        -8.2074
  67   0.0000       0.033529         0.9124
  68   0.0000       0.067683         1.8418
  69   0.0000       0.114265         3.1093
  70   0.0000       0.117654         3.2015
  71   0.0000       0.130734         3.5575

MULLIKEN ATOMIC CHARGES
-----------------------
   0 S :    0.109615
   1 C :   -0.128584
   2 C :   -0.044817
   3 C :   -0.012088
   4 C :   -0.147641
   5 H :    0.010263
   6 C :    0.053654
   7 H :    0.045644
   8 H :    0.020543
   9 C :   -0.124448
  10 H :    0.036379
  11 H :    0.025523
  12 C :    0.010679
  13 H :    0.031874
  14 H :    0.028240
  15 H :    0.032025
  16 S :    0.118543
  17 C :   -0.111072
  18 C :   -0.075238
  19 C :   -0.048260
  20 C :   -0.154787
  21 H :    0.052701
  22 C :    0.043717
  23 H :    0.042595
  24 H :    0.024965
  25 C :   -0.037702
  26 H :    0.014295
  27 H :    0.049023
  28 C :   -0.073937
  29 H :    0.051939
  30 H :    0.030817
  31 H :    0.036971
  32 H :    0.025495
  33 H :    0.063074
Sum of atomic charges:    0.0000000

LOEWDIN ATOMIC CHARGES
----------------------
   0 S :    0.418044
   1 C :   -0.177365
   2 C :   -0.068650
   3 C :   -0.066643
   4 C :   -0.211141
   5 H :    0.027442
   6 C :   -0.038297
   7 H :    0.038747
   8 H :    0.031190
   9 C :   -0.041386
  10 H :    0.026776
  11 H :    0.018170
  12 C :   -0.051987
  13 H :    0.023670
  14 H :    0.024971
  15 H :    0.025706
  16 S :    0.415676
  17 C :   -0.189316
  18 C :   -0.081910
  19 C :   -0.060225
  20 C :   -0.210736
  21 H :    0.046629
  22 C :   -0.038104
  23 H :    0.036457
  24 H :    0.026919
  25 C :   -0.035348
  26 H :    0.011837
  27 H :    0.032776
  28 C :   -0.062391
  29 H :    0.033358
  30 H :    0.027474
  31 H :    0.019619
  32 H :    0.016314
  33 H :    0.031726

  Mayer bond orders larger than 0.100000
B(  0-S ,  1-C ) :   1.1456 B(  0-S ,  4-C ) :   1.1441 B(  1-C ,  2-C ) :   1.6061
B(  1-C , 32-H ) :   0.9740 B(  2-C ,  3-C ) :   1.2207 B(  2-C ,  6-C ) :   1.0296
B(  3-C ,  4-C ) :   1.5732 B(  3-C ,  5-H ) :   0.9969 B(  4-C , 20-C ) :   1.0611
B(  6-C ,  7-H ) :   0.9399 B(  6-C ,  8-H ) :   0.9426 B(  6-C ,  9-C ) :   1.0632
B(  9-C , 10-H ) :   0.9603 B(  9-C , 11-H ) :   0.9555 B(  9-C , 12-C ) :   1.0749
B( 12-C , 13-H ) :   0.9793 B( 12-C , 14-H ) :   0.9713 B( 12-C , 15-H ) :   0.9636
B( 16-S , 17-C ) :   1.1486 B( 16-S , 20-C ) :   1.1557 B( 17-C , 18-C ) :   1.6209
B( 17-C , 20-C ) :   0.1001 B( 17-C , 33-H ) :   0.9695 B( 18-C , 19-C ) :   1.2296
B( 18-C , 21-H ) :   0.9741 B( 19-C , 20-C ) :   1.5703 B( 19-C , 22-C ) :   1.0171
B( 22-C , 23-H ) :   0.9454 B( 22-C , 24-H ) :   0.9366 B( 22-C , 25-C ) :   1.0485
B( 25-C , 26-H ) :   0.9609 B( 25-C , 27-H ) :   0.9590 B( 25-C , 28-C ) :   1.0701
B( 28-C , 29-H ) :   0.9747 B( 28-C , 30-H ) :   0.9770 B( 28-C , 31-H ) :   0.9762

Dispersion correction           -0.015224279
FINAL SINGLE POINT ENERGY     -1339.871744160349

DIPOLE MOMENT
-------------
                                X             Y             Z
Electronic contribution:     -6.99060      12.68772      -3.51623
Nuclear contribution   :      7.08471     -12.78294       3.62253
                        -----------------------------------------
Total Dipole Moment    :      0.09411      -0.09522       0.10630
                        -----------------------------------------
Magnitude (a.u.)       :      0.17095
Magnitude (Debye)      :      0.43452

Rotational constants in cm-1:     0.021078     0.008683     0.007419
Rotational constants in MHz :   631.893425   260.322528   222.428700

                             ****ORCA TERMINATED NORMALLY****
TOTAL RUN TIME: 0 days 0 hours 0 minutes 34 seconds 336 msec
