                         Program Version 4.2.1 -  RELEASE  -
|  1> ! wB97X-D3 SP def2-SVP
|  2> %pal
|  3> nprocs 16
|  4> end
|  5>
|  6> * xyz 0 1
|  7> S 	 23.5787 	 6.73566 	 74.5036
|  8> C 	 22.3153 	 5.97643 	 73.5458
|  9> C 	 21.0606 	 6.36238 	 73.9963
| 10> C 	 21.1124 	 7.48149 	 74.8933
| 11> C 	 22.4145 	 7.82457 	 75.1954
| 12> H 	 20.2729 	 8.02473 	 75.2998
| 13> C 	 19.712 	 5.95974 	 73.5063
| 14> H 	 18.9178 	 6.15434 	 74.2736
| 15> H 	 19.6618 	 4.9526 	 73.1358
| 16> C 	 19.2854 	 6.80577 	 72.2694
| 17> H 	 18.2697 	 6.59532 	 72.0356
| 18> H 	 19.2355 	 7.86239 	 72.5775
| 19> C 	 20.272 	 6.64603 	 71.0684
| 20> H 	 21.2756 	 7.03442 	 71.2462
| 21> H 	 20.3188 	 5.61472 	 70.8604
| 22> H 	 19.9489 	 7.18493 	 70.1963
| 23> S 	 24.1575 	 8.42909 	 77.2848
| 24> C 	 23.8119 	 9.77564 	 78.2739
| 25> C 	 22.7827 	 10.4907 	 77.8607
| 26> C 	 22.1841 	 10.0165 	 76.6545
| 27> C 	 22.8261 	 8.83778 	 76.168
| 28> H 	 22.4072 	 11.2195 	 78.489
| 29> C 	 20.8384 	 10.5808 	 76.1153
| 30> H 	 20.7569 	 10.1744 	 75.1327
| 31> H 	 20.7203 	 11.6239 	 75.8783
| 32> C 	 19.6196 	 10.1274 	 76.8657
| 33> H 	 19.6206 	 9.04586 	 77.074
| 34> H 	 18.771 	 10.3242 	 76.1916
| 35> C 	 19.4748 	 10.8328 	 78.2543
| 36> H 	 20.2413 	 10.3361 	 78.8887
| 37> H 	 18.5363 	 10.7987 	 78.7638
| 38> H 	 19.6861 	 11.9037 	 78.1344
| 39> H 	 22.4673 	 5.3215 	 72.7074
| 40> H 	 24.3623 	 10.0444 	 79.1174
| 41> *
| 42>
| 43>                          ****END OF INPUT****

CARTESIAN COORDINATES (ANGSTROEM)
---------------------------------
  S     23.578700    6.735660   74.503600
  C     22.315300    5.976430   73.545800
  C     21.060600    6.362380   73.996300
  C     21.112400    7.481490   74.893300
  C     22.414500    7.824570   75.195400
  H     20.272900    8.024730   75.299800
  C     19.712000    5.959740   73.506300
  H     18.917800    6.154340   74.273600
  H     19.661800    4.952600   73.135800
  C     19.285400    6.805770   72.269400
  H     18.269700    6.595320   72.035600
  H     19.235500    7.862390   72.577500
  C     20.272000    6.646030   71.068400
  H     21.275600    7.034420   71.246200
  H     20.318800    5.614720   70.860400
  H     19.948900    7.184930   70.196300
  S     24.157500    8.429090   77.284800
  C     23.811900    9.775640   78.273900
  C     22.782700   10.490700   77.860700
  C     22.184100   10.016500   76.654500
  C     22.826100    8.837780   76.168000
  H     22.407200   11.219500   78.489000
  C     20.838400   10.580800   76.115300
  H     20.756900   10.174400   75.132700
  H     20.720300   11.623900   75.878300
  C     19.619600   10.127400   76.865700
  H     19.620600    9.045860   77.074000
  H     18.771000   10.324200   76.191600
  C     19.474800   10.832800   78.254300
  H     20.241300   10.336100   78.888700
  H     18.536300   10.798700   78.763800
  H     19.686100   11.903700   78.134400
  H     22.467300    5.321500   72.707400
  H     24.362300   10.044400   79.117400

 Total Charge           Charge          ....    0
 Multiplicity           Mult            ....    1
 Number of Electrons    NEL             ....  134
 Basis Dimension        Dim             ....  322

ORBITAL ENERGIES
----------------

  NO   OCC          E(Eh)            E(eV)
   0   2.0000     -88.968270     -2420.9497
   1   2.0000     -88.963776     -2420.8274
   2   2.0000     -10.333573      -281.1908
   3   2.0000     -10.330557      -281.1088
   4   2.0000     -10.315033      -280.6863
   5   2.0000     -10.309746      -280.5424
   6   2.0000     -10.303235      -280.3653
   7   2.0000     -10.302028      -280.3324
   8   2.0000     -10.293568      -280.1022
   9   2.0000     -10.292994      -280.0866
  10   2.0000     -10.291161      -280.0367
  11   2.0000     -10.289177      -279.9827
  12   2.0000     -10.287286      -279.9313
  13   2.0000     -10.280017      -279.7335
  14   2.0000     -10.279956      -279.7318
  15   2.0000     -10.273514      -279.5565
  16   2.0000      -8.083062      -219.9513
  17   2.0000      -8.079084      -219.8431
  18   2.0000      -6.041607      -164.4005
  19   2.0000      -6.037716      -164.2946
  20   2.0000      -6.037540      -164.2898
  21   2.0000      -6.033637      -164.1836
  22   2.0000      -6.033585      -164.1822
  23   2.0000      -6.029794      -164.0790
  24   2.0000      -1.008819       -27.4514
  25   2.0000      -0.987988       -26.8845
  26   2.0000      -0.914336       -24.8804
  27   2.0000      -0.913387       -24.8545
  28   2.0000      -0.869984       -23.6735
  29   2.0000      -0.850041       -23.1308
  30   2.0000      -0.841371       -22.8949
  31   2.0000      -0.815075       -22.1793
  32   2.0000      -0.789242       -21.4764
  33   2.0000      -0.780015       -21.2253
  34   2.0000      -0.711181       -19.3522
  35   2.0000      -0.701259       -19.0822
  36   2.0000      -0.692814       -18.8524
  37   2.0000      -0.662088       -18.0163
  38   2.0000      -0.639875       -17.4119
  39   2.0000      -0.626459       -17.0468
  40   2.0000      -0.608294       -16.5525
  41   2.0000      -0.572538       -15.5795
  42   2.0000      -0.557432       -15.1685
  43   2.0000      -0.547948       -14.9104
  44   2.0000      -0.546431       -14.8691
  45   2.0000      -0.538291       -14.6476
  46   2.0000      -0.521125       -14.1805
  47   2.0000      -0.505889       -13.7659
  48   2.0000      -0.500836       -13.6285
  49   2.0000      -0.499690       -13.5973
  50   2.0000      -0.498266       -13.5585
  51   2.0000      -0.483149       -13.1471
  52   2.0000      -0.472920       -12.8688
  53   2.0000      -0.467654       -12.7255
  54   2.0000      -0.460208       -12.5229
  55   2.0000      -0.454343       -12.3633
  56   2.0000      -0.443295       -12.0627
  57   2.0000      -0.438576       -11.9342
  58   2.0000      -0.432770       -11.7763
  59   2.0000      -0.427171       -11.6239
  60   2.0000      -0.421395       -11.4667
  61   2.0000      -0.417819       -11.3694
  62   2.0000      -0.412065       -11.2129
  63   2.0000      -0.357772        -9.7355
  64   2.0000      -0.334448        -9.1008
  65   2.0000      -0.328414        -8.9366
  66   2.0000      -0.283515        -7.7148
  67   0.0000       0.023143         0.6298
  68   0.0000       0.075415         2.0522
  69   0.0000       0.102866         2.7991
  70   0.0000       0.122078         3.3219
  71   0.0000       0.133844         3.6421

MULLIKEN ATOMIC CHARGES
-----------------------
   0 S :    0.110838
   1 C :   -0.118287
   2 C :   -0.057245
   3 C :   -0.002277
   4 C :   -0.113703
   5 H :   -0.006641
   6 C :    0.045504
   7 H :    0.038613
   8 H :    0.021318
   9 C :   -0.070521
  10 H :    0.022366
  11 H :    0.019152
  12 C :   -0.041936
  13 H :    0.048843
  14 H :    0.016105
  15 H :    0.030164
  16 S :    0.090804
  17 C :   -0.052275
  18 C :   -0.006817
  19 C :   -0.053173
  20 C :   -0.120207
  21 H :   -0.008906
  22 C :    0.070557
  23 H :    0.008233
  24 H :    0.026344
  25 C :   -0.104461
  26 H :    0.046922
  27 H :    0.031358
  28 C :   -0.052126
  29 H :    0.046403
  30 H :    0.033336
  31 H :    0.025944
  32 H :    0.045047
  33 H :    0.030726
Sum of atomic charges:   -0.0000000

LOEWDIN ATOMIC CHARGES
----------------------
   0 S :    0.405063
   1 C :   -0.195184
   2 C :   -0.055465
   3 C :   -0.060431
   4 C :   -0.188906
   5 H :    0.029839
   6 C :   -0.033226
   7 H :    0.038832
   8 H :    0.024477
   9 C :   -0.032503
  10 H :    0.017076
  11 H :    0.019837
  12 C :   -0.061852
  13 H :    0.029742
  14 H :    0.015531
  15 H :    0.025937
  16 S :    0.401500
  17 C :   -0.182184
  18 C :   -0.071070
  19 C :   -0.047976
  20 C :   -0.182958
  21 H :    0.021567
  22 C :   -0.036523
  23 H :    0.026789
  24 H :    0.031292
  25 C :   -0.042074
  26 H :    0.024021
  27 H :    0.024432
  28 C :   -0.068998
  29 H :    0.032179
  30 H :    0.021849
  31 H :    0.022733
  32 H :    0.026048
  33 H :    0.020606

  Mayer bond orders larger than 0.100000
B(  0-S ,  1-C ) :   1.1226 B(  0-S ,  4-C ) :   1.1517 B(  1-C ,  2-C ) :   1.6076
B(  1-C , 32-H ) :   0.9712 B(  2-C ,  3-C ) :   1.2210 B(  2-C ,  6-C ) :   1.0529
B(  3-C ,  4-C ) :   1.5577 B(  3-C ,  5-H ) :   0.9925 B(  4-C , 20-C ) :   1.0547
B(  6-C ,  7-H ) :   0.9384 B(  6-C ,  8-H ) :   0.9405 B(  6-C ,  9-C ) :   1.0666
B(  9-C , 10-H ) :   0.9594 B(  9-C , 11-H ) :   0.9550 B(  9-C , 12-C ) :   1.0693
B( 12-C , 13-H ) :   0.9711 B( 12-C , 14-H ) :   0.9776 B( 12-C , 15-H ) :   0.9721
B( 16-S , 17-C ) :   1.1504 B( 16-S , 20-C ) :   1.1395 B( 17-C , 18-C ) :   1.6316
B( 17-C , 33-H ) :   0.9668 B( 18-C , 19-C ) :   1.2389 B( 18-C , 21-H ) :   1.0019
B( 19-C , 20-C ) :   1.5869 B( 19-C , 22-C ) :   1.0369 B( 22-C , 23-H ) :   0.9248
B( 22-C , 24-H ) :   0.9365 B( 22-C , 25-C ) :   1.0789 B( 25-C , 26-H ) :   0.9457
B( 25-C , 27-H ) :   0.9555 B( 25-C , 28-C ) :   1.0678 B( 28-C , 29-H ) :   0.9717
B( 28-C , 30-H ) :   0.9734 B( 28-C , 31-H ) :   0.9750

Dispersion correction           -0.015285056
FINAL SINGLE POINT ENERGY     -1339.871450103324

DIPOLE MOMENT
-------------
                                X             Y             Z
Electronic contribution:     25.65670      -5.91272       7.61526
Nuclear contribution   :    -26.42600       6.10033      -7.67028
                        -----------------------------------------
Total Dipole Moment    :     -0.76930       0.18761      -0.05503
                        -----------------------------------------
Magnitude (a.u.)       :      0.79376
Magnitude (Debye)      :      2.01757

Rotational constants in cm-1:     0.020265     0.009386     0.006867
Rotational constants in MHz :   607.542025   281.396061   205.862971

                             ****ORCA TERMINATED NORMALLY****
TOTAL RUN TIME: 0 days 0 hours 0 minutes 37 seconds 946 msec
