                         Program Version 4.2.1 -  RELEASE  -
|  1> ! wB97X-D3 SP def2-SVP
|  2> %pal
|  3> nprocs 16
|  4> end
|  5>
|  6> * xyz 0 1
|  7> S 	 9.1218 	 -8.08135 	 67.348
|  8> C 	 8.27441 	 -7.01813 	 68.3855
|  9> C 	 8.98868 	 -6.67181 	 69.5248
| 10> C 	 10.163 	 -7.43523 	 69.5819
| 11> C 	 10.347 	 -8.28116 	 68.5329
| 12> H 	 10.8686 	 -7.42957 	 70.46
| 13> C 	 8.60289 	 -5.52196 	 70.5142
| 14> H 	 8.90553 	 -5.69706 	 71.5304
| 15> H 	 7.48446 	 -5.6485 	 70.7197
| 16> C 	 8.86648 	 -4.02288 	 70.1206
| 17> H 	 9.90038 	 -3.94656 	 69.888
| 18> H 	 8.2308 	 -3.71559 	 69.3091
| 19> C 	 8.72739 	 -2.9725 	 71.1948
| 20> H 	 9.42547 	 -3.18291 	 72.04
| 21> H 	 8.97271 	 -1.98675 	 70.932
| 22> H 	 7.70502 	 -2.92788 	 71.4316
| 23> S 	 10.8578 	 -10.9218 	 69.0314
| 24> C 	 12.3811 	 -11.6249 	 68.6996
| 25> C 	 13.2129 	 -10.7533 	 68.0518
| 26> C 	 12.5453 	 -9.5188 	 67.8459
| 27> C 	 11.3364 	 -9.41073 	 68.4315
| 28> H 	 14.1709 	 -11.0084 	 67.66
| 29> C 	 13.1622 	 -8.31042 	 67.0909
| 30> H 	 14.2189 	 -8.52281 	 66.7406
| 31> H 	 13.3956 	 -7.47279 	 67.7318
| 32> C 	 12.4483 	 -7.79973 	 65.8135
| 33> H 	 11.3931 	 -7.58371 	 65.9693
| 34> H 	 12.5015 	 -8.55909 	 65.0933
| 35> C 	 13.162 	 -6.59326 	 65.2004
| 36> H 	 12.5361 	 -6.00036 	 64.4859
| 37> H 	 14.1262 	 -6.95807 	 64.7886
| 38> H 	 13.4085 	 -5.77308 	 65.8967
| 39> H 	 7.34685 	 -6.54756 	 68.1241
| 40> H 	 12.7744 	 -12.5744 	 69.0517
| 41> *
| 42>
| 43>                          ****END OF INPUT****

CARTESIAN COORDINATES (ANGSTROEM)
---------------------------------
  S      9.121800   -8.081350   67.348000
  C      8.274410   -7.018130   68.385500
  C      8.988680   -6.671810   69.524800
  C     10.163000   -7.435230   69.581900
  C     10.347000   -8.281160   68.532900
  H     10.868600   -7.429570   70.460000
  C      8.602890   -5.521960   70.514200
  H      8.905530   -5.697060   71.530400
  H      7.484460   -5.648500   70.719700
  C      8.866480   -4.022880   70.120600
  H      9.900380   -3.946560   69.888000
  H      8.230800   -3.715590   69.309100
  C      8.727390   -2.972500   71.194800
  H      9.425470   -3.182910   72.040000
  H      8.972710   -1.986750   70.932000
  H      7.705020   -2.927880   71.431600
  S     10.857800  -10.921800   69.031400
  C     12.381100  -11.624900   68.699600
  C     13.212900  -10.753300   68.051800
  C     12.545300   -9.518800   67.845900
  C     11.336400   -9.410730   68.431500
  H     14.170900  -11.008400   67.660000
  C     13.162200   -8.310420   67.090900
  H     14.218900   -8.522810   66.740600
  H     13.395600   -7.472790   67.731800
  C     12.448300   -7.799730   65.813500
  H     11.393100   -7.583710   65.969300
  H     12.501500   -8.559090   65.093300
  C     13.162000   -6.593260   65.200400
  H     12.536100   -6.000360   64.485900
  H     14.126200   -6.958070   64.788600
  H     13.408500   -5.773080   65.896700
  H      7.346850   -6.547560   68.124100
  H     12.774400  -12.574400   69.051700

 Total Charge           Charge          ....    0
 Multiplicity           Mult            ....    1
 Number of Electrons    NEL             ....  134
 Basis Dimension        Dim             ....  322

ORBITAL ENERGIES
----------------

  NO   OCC          E(Eh)            E(eV)
   0   2.0000     -88.969940     -2420.9951
   1   2.0000     -88.962528     -2420.7934
   2   2.0000     -10.325562      -280.9728
   3   2.0000     -10.317553      -280.7549
   4   2.0000     -10.312364      -280.6137
   5   2.0000     -10.311624      -280.5936
   6   2.0000     -10.304033      -280.3870
   7   2.0000     -10.302874      -280.3554
   8   2.0000     -10.296694      -280.1873
   9   2.0000     -10.294664      -280.1321
  10   2.0000     -10.290395      -280.0159
  11   2.0000     -10.288351      -279.9603
  12   2.0000     -10.283935      -279.8401
  13   2.0000     -10.278993      -279.7056
  14   2.0000     -10.275298      -279.6051
  15   2.0000     -10.272311      -279.5238
  16   2.0000      -8.085388      -220.0146
  17   2.0000      -8.079104      -219.8436
  18   2.0000      -6.043602      -164.4548
  19   2.0000      -6.039770      -164.3505
  20   2.0000      -6.037498      -164.2887
  21   2.0000      -6.036435      -164.2597
  22   2.0000      -6.033215      -164.1721
  23   2.0000      -6.030006      -164.0848
  24   2.0000      -1.019248       -27.7351
  25   2.0000      -0.998892       -27.1812
  26   2.0000      -0.907007       -24.6809
  27   2.0000      -0.900663       -24.5083
  28   2.0000      -0.870827       -23.6964
  29   2.0000      -0.856438       -23.3049
  30   2.0000      -0.848350       -23.0848
  31   2.0000      -0.818908       -22.2836
  32   2.0000      -0.783017       -21.3070
  33   2.0000      -0.767141       -20.8750
  34   2.0000      -0.702215       -19.1082
  35   2.0000      -0.698271       -19.0009
  36   2.0000      -0.689936       -18.7741
  37   2.0000      -0.665513       -18.1095
  38   2.0000      -0.645408       -17.5624
  39   2.0000      -0.619764       -16.8646
  40   2.0000      -0.597610       -16.2618
  41   2.0000      -0.576103       -15.6766
  42   2.0000      -0.571127       -15.5412
  43   2.0000      -0.561142       -15.2695
  44   2.0000      -0.527095       -14.3430
  45   2.0000      -0.520612       -14.1666
  46   2.0000      -0.514577       -14.0023
  47   2.0000      -0.504225       -13.7207
  48   2.0000      -0.498644       -13.5688
  49   2.0000      -0.497507       -13.5379
  50   2.0000      -0.491204       -13.3663
  51   2.0000      -0.477521       -12.9940
  52   2.0000      -0.474218       -12.9041
  53   2.0000      -0.466398       -12.6913
  54   2.0000      -0.463787       -12.6203
  55   2.0000      -0.457413       -12.4468
  56   2.0000      -0.442965       -12.0537
  57   2.0000      -0.436934       -11.8896
  58   2.0000      -0.426496       -11.6056
  59   2.0000      -0.422665       -11.5013
  60   2.0000      -0.417071       -11.3491
  61   2.0000      -0.413018       -11.2388
  62   2.0000      -0.407842       -11.0979
  63   2.0000      -0.342768        -9.3272
  64   2.0000      -0.330852        -9.0029
  65   2.0000      -0.319950        -8.7063
  66   2.0000      -0.317138        -8.6298
  67   0.0000       0.047932         1.3043
  68   0.0000       0.058296         1.5863
  69   0.0000       0.117685         3.2024
  70   0.0000       0.129438         3.5222
  71   0.0000       0.133576         3.6348

MULLIKEN ATOMIC CHARGES
-----------------------
   0 S :    0.142137
   1 C :   -0.118446
   2 C :   -0.068297
   3 C :    0.031498
   4 C :   -0.176443
   5 H :    0.029973
   6 C :    0.040435
   7 H :    0.009312
   8 H :    0.025327
   9 C :   -0.036316
  10 H :    0.021896
  11 H :    0.026757
  12 C :   -0.031811
  13 H :    0.032207
  14 H :    0.019802
  15 H :    0.017700
  16 S :    0.131342
  17 C :   -0.082688
  18 C :   -0.026622
  19 C :   -0.012981
  20 C :   -0.167694
  21 H :    0.007336
  22 C :    0.038213
  23 H :    0.003898
  24 H :    0.026155
  25 C :   -0.032670
  26 H :    0.025009
  27 H :    0.016316
  28 C :   -0.080174
  29 H :    0.038568
  30 H :    0.034207
  31 H :    0.024033
  32 H :    0.038306
  33 H :    0.053713
Sum of atomic charges:    0.0000000

LOEWDIN ATOMIC CHARGES
----------------------
   0 S :    0.454452
   1 C :   -0.196427
   2 C :   -0.068669
   3 C :   -0.061558
   4 C :   -0.211774
   5 H :    0.042842
   6 C :   -0.037613
   7 H :    0.024378
   8 H :    0.036979
   9 C :   -0.035482
  10 H :    0.020966
  11 H :    0.022353
  12 C :   -0.059047
  13 H :    0.030130
  14 H :    0.021685
  15 H :    0.017219
  16 S :    0.450080
  17 C :   -0.196913
  18 C :   -0.069712
  19 C :   -0.061787
  20 C :   -0.220833
  21 H :    0.029118
  22 C :   -0.034907
  23 H :    0.028698
  24 H :    0.026943
  25 C :   -0.040617
  26 H :    0.008478
  27 H :    0.017571
  28 C :   -0.072938
  29 H :    0.032314
  30 H :    0.026370
  31 H :    0.023042
  32 H :    0.022456
  33 H :    0.032204

  Mayer bond orders larger than 0.100000
B(  0-S ,  1-C ) :   1.1757 B(  0-S ,  4-C ) :   1.1735 B(  1-C ,  2-C ) :   1.5846
B(  1-C , 32-H ) :   0.9694 B(  2-C ,  3-C ) :   1.2739 B(  2-C ,  6-C ) :   1.0168
B(  3-C ,  4-C ) :   1.5928 B(  3-C ,  5-H ) :   0.9874 B(  4-C , 20-C ) :   0.9538
B(  6-C ,  7-H ) :   0.9443 B(  6-C ,  8-H ) :   0.9387 B(  6-C ,  9-C ) :   1.0516
B(  9-C , 10-H ) :   0.9587 B(  9-C , 11-H ) :   0.9571 B(  9-C , 12-C ) :   1.0920
B( 12-C , 13-H ) :   0.9723 B( 12-C , 14-H ) :   0.9712 B( 12-C , 15-H ) :   0.9762
B( 16-S , 17-C ) :   1.1806 B( 16-S , 20-C ) :   1.1608 B( 17-C , 18-C ) :   1.5867
B( 17-C , 33-H ) :   0.9627 B( 18-C , 19-C ) :   1.2709 B( 18-C , 21-H ) :   0.9975
B( 19-C , 20-C ) :   1.6241 B( 19-C , 22-C ) :   1.0232 B( 22-C , 23-H ) :   0.9390
B( 22-C , 24-H ) :   0.9432 B( 22-C , 25-C ) :   1.0556 B( 25-C , 26-H ) :   0.9535
B( 25-C , 27-H ) :   0.9530 B( 25-C , 28-C ) :   1.0816 B( 28-C , 29-H ) :   0.9728
B( 28-C , 30-H ) :   0.9764 B( 28-C , 31-H ) :   0.9749

Dispersion correction           -0.013976276
FINAL SINGLE POINT ENERGY     -1339.866954033621

DIPOLE MOMENT
-------------
                                X             Y             Z
Electronic contribution:     -5.14754     -25.98125      -0.21588
Nuclear contribution   :      5.29729      26.43851       0.36598
                        -----------------------------------------
Total Dipole Moment    :      0.14975       0.45725       0.15011
                        -----------------------------------------
Magnitude (a.u.)       :      0.50402
Magnitude (Debye)      :      1.28112

Rotational constants in cm-1:     0.019507     0.007894     0.006696
Rotational constants in MHz :   584.802180   236.657322   200.753999

                             ****ORCA TERMINATED NORMALLY****
TOTAL RUN TIME: 0 days 0 hours 0 minutes 34 seconds 169 msec
