                         Program Version 4.2.1 -  RELEASE  -
|  1> ! wB97X-D3 SP def2-SVP
|  2> %pal
|  3> nprocs 16
|  4> end
|  5>
|  6> * xyz 0 1
|  7> S 	 8.75861 	 -10.1412 	 65.0576
|  8> C 	 8.39662 	 -9.66541 	 66.6674
|  9> C 	 9.18414 	 -10.2856 	 67.6532
| 10> C 	 10.1074 	 -11.2019 	 66.9793
| 11> C 	 9.98623 	 -11.3509 	 65.6386
| 12> H 	 10.8397 	 -11.829 	 67.3928
| 13> C 	 8.8695 	 -10.1887 	 69.17
| 14> H 	 8.37846 	 -11.1351 	 69.5513
| 15> H 	 8.11163 	 -9.39508 	 69.2556
| 16> C 	 10.0301 	 -9.89444 	 70.0791
| 17> H 	 10.8287 	 -10.6936 	 70.0421
| 18> H 	 10.4937 	 -9.03758 	 69.6904
| 19> C 	 9.44068 	 -9.68266 	 71.4792
| 20> H 	 10.1692 	 -9.56032 	 72.2352
| 21> H 	 8.87805 	 -8.77594 	 71.616
| 22> H 	 8.83722 	 -10.5382 	 71.8638
| 23> S 	 12.1795 	 -10.96 	 64.1695
| 24> C 	 12.9095 	 -12.3392 	 63.3712
| 25> C 	 12.3026 	 -13.5258 	 63.7553
| 26> C 	 11.1008 	 -13.3763 	 64.4625
| 27> C 	 10.8968 	 -12.017 	 64.7514
| 28> H 	 12.7689 	 -14.3811 	 63.3631
| 29> C 	 10.3952 	 -14.5252 	 65.0427
| 30> H 	 10.2729 	 -14.4359 	 66.1087
| 31> H 	 11.0328 	 -15.3811 	 64.9682
| 32> C 	 9.04257 	 -14.9501 	 64.2897
| 33> H 	 9.28084 	 -15.3846 	 63.3525
| 34> H 	 8.39355 	 -14.067 	 64.1054
| 35> C 	 8.26149 	 -16.0253 	 65.0746
| 36> H 	 8.75175 	 -16.925 	 65.1229
| 37> H 	 7.29707 	 -16.2064 	 64.5866
| 38> H 	 8.12031 	 -15.6986 	 66.0889
| 39> H 	 7.50836 	 -9.12235 	 66.976
| 40> H 	 13.8404 	 -12.3421 	 62.7885
| 41> *
| 42>
| 43>                          ****END OF INPUT****

CARTESIAN COORDINATES (ANGSTROEM)
---------------------------------
  S      8.758610  -10.141200   65.057600
  C      8.396620   -9.665410   66.667400
  C      9.184140  -10.285600   67.653200
  C     10.107400  -11.201900   66.979300
  C      9.986230  -11.350900   65.638600
  H     10.839700  -11.829000   67.392800
  C      8.869500  -10.188700   69.170000
  H      8.378460  -11.135100   69.551300
  H      8.111630   -9.395080   69.255600
  C     10.030100   -9.894440   70.079100
  H     10.828700  -10.693600   70.042100
  H     10.493700   -9.037580   69.690400
  C      9.440680   -9.682660   71.479200
  H     10.169200   -9.560320   72.235200
  H      8.878050   -8.775940   71.616000
  H      8.837220  -10.538200   71.863800
  S     12.179500  -10.960000   64.169500
  C     12.909500  -12.339200   63.371200
  C     12.302600  -13.525800   63.755300
  C     11.100800  -13.376300   64.462500
  C     10.896800  -12.017000   64.751400
  H     12.768900  -14.381100   63.363100
  C     10.395200  -14.525200   65.042700
  H     10.272900  -14.435900   66.108700
  H     11.032800  -15.381100   64.968200
  C      9.042570  -14.950100   64.289700
  H      9.280840  -15.384600   63.352500
  H      8.393550  -14.067000   64.105400
  C      8.261490  -16.025300   65.074600
  H      8.751750  -16.925000   65.122900
  H      7.297070  -16.206400   64.586600
  H      8.120310  -15.698600   66.088900
  H      7.508360   -9.122350   66.976000
  H     13.840400  -12.342100   62.788500

 Total Charge           Charge          ....    0
 Multiplicity           Mult            ....    1
 Number of Electrons    NEL             ....  134
 Basis Dimension        Dim             ....  322

ORBITAL ENERGIES
----------------

  NO   OCC          E(Eh)            E(eV)
   0   2.0000     -88.967242     -2420.9217
   1   2.0000     -88.960867     -2420.7483
   2   2.0000     -10.324518      -280.9444
   3   2.0000     -10.324102      -280.9331
   4   2.0000     -10.315789      -280.7069
   5   2.0000     -10.314551      -280.6732
   6   2.0000     -10.306364      -280.4504
   7   2.0000     -10.303009      -280.3591
   8   2.0000     -10.298947      -280.2486
   9   2.0000     -10.292064      -280.0613
  10   2.0000     -10.288634      -279.9680
  11   2.0000     -10.286809      -279.9183
  12   2.0000     -10.286737      -279.9163
  13   2.0000     -10.286729      -279.9161
  14   2.0000     -10.276842      -279.6471
  15   2.0000     -10.267943      -279.4049
  16   2.0000      -8.081687      -219.9139
  17   2.0000      -8.075380      -219.7423
  18   2.0000      -6.040096      -164.3594
  19   2.0000      -6.036279      -164.2555
  20   2.0000      -6.033858      -164.1896
  21   2.0000      -6.032511      -164.1530
  22   2.0000      -6.029964      -164.0837
  23   2.0000      -6.026135      -163.9795
  24   2.0000      -1.004538       -27.3349
  25   2.0000      -0.978781       -26.6340
  26   2.0000      -0.913292       -24.8519
  27   2.0000      -0.905149       -24.6304
  28   2.0000      -0.873593       -23.7717
  29   2.0000      -0.855084       -23.2680
  30   2.0000      -0.842373       -22.9221
  31   2.0000      -0.814922       -22.1752
  32   2.0000      -0.782475       -21.2922
  33   2.0000      -0.768052       -20.8998
  34   2.0000      -0.712178       -19.3793
  35   2.0000      -0.701273       -19.0826
  36   2.0000      -0.689454       -18.7610
  37   2.0000      -0.661639       -18.0041
  38   2.0000      -0.648236       -17.6394
  39   2.0000      -0.615196       -16.7403
  40   2.0000      -0.596043       -16.2192
  41   2.0000      -0.575154       -15.6507
  42   2.0000      -0.564594       -15.3634
  43   2.0000      -0.556462       -15.1421
  44   2.0000      -0.525158       -14.2903
  45   2.0000      -0.522167       -14.2089
  46   2.0000      -0.512414       -13.9435
  47   2.0000      -0.504889       -13.7387
  48   2.0000      -0.502941       -13.6857
  49   2.0000      -0.499706       -13.5977
  50   2.0000      -0.494557       -13.4576
  51   2.0000      -0.479134       -13.0379
  52   2.0000      -0.468258       -12.7419
  53   2.0000      -0.464474       -12.6390
  54   2.0000      -0.454808       -12.3760
  55   2.0000      -0.446890       -12.1605
  56   2.0000      -0.445380       -12.1194
  57   2.0000      -0.438071       -11.9205
  58   2.0000      -0.434139       -11.8135
  59   2.0000      -0.432244       -11.7620
  60   2.0000      -0.423924       -11.5356
  61   2.0000      -0.418264       -11.3815
  62   2.0000      -0.414830       -11.2881
  63   2.0000      -0.342487        -9.3195
  64   2.0000      -0.329450        -8.9648
  65   2.0000      -0.315393        -8.5823
  66   2.0000      -0.303234        -8.2514
  67   0.0000       0.038687         1.0527
  68   0.0000       0.051387         1.3983
  69   0.0000       0.108422         2.9503
  70   0.0000       0.118766         3.2318
  71   0.0000       0.128867         3.5066

MULLIKEN ATOMIC CHARGES
-----------------------
   0 S :    0.097573
   1 C :   -0.105941
   2 C :   -0.078171
   3 C :    0.070513
   4 C :   -0.184647
   5 H :   -0.009368
   6 C :    0.027936
   7 H :    0.046128
   8 H :    0.017314
   9 C :   -0.058110
  10 H :    0.042271
  11 H :    0.019586
  12 C :   -0.036210
  13 H :    0.013187
  14 H :    0.028292
  15 H :    0.032355
  16 S :    0.128518
  17 C :   -0.102638
  18 C :   -0.040719
  19 C :    0.032821
  20 C :   -0.190498
  21 H :   -0.000165
  22 C :    0.068197
  23 H :    0.023591
  24 H :    0.004843
  25 C :   -0.083279
  26 H :    0.020785
  27 H :    0.045720
  28 C :   -0.010773
  29 H :    0.008944
  30 H :    0.035745
  31 H :    0.023300
  32 H :    0.052518
  33 H :    0.060380
Sum of atomic charges:    0.0000000

LOEWDIN ATOMIC CHARGES
----------------------
   0 S :    0.379966
   1 C :   -0.199055
   2 C :   -0.068259
   3 C :   -0.048224
   4 C :   -0.189670
   5 H :    0.022154
   6 C :   -0.032483
   7 H :    0.035950
   8 H :    0.029354
   9 C :   -0.040779
  10 H :    0.030816
  11 H :    0.019537
  12 C :   -0.066645
  13 H :    0.019416
  14 H :    0.025913
  15 H :    0.030978
  16 S :    0.416045
  17 C :   -0.188936
  18 C :   -0.066963
  19 C :   -0.050646
  20 C :   -0.198048
  21 H :    0.023843
  22 C :   -0.029935
  23 H :    0.029400
  24 H :    0.028505
  25 C :   -0.026243
  26 H :    0.017524
  27 H :    0.028174
  28 C :   -0.058026
  29 H :    0.011206
  30 H :    0.030796
  31 H :    0.022450
  32 H :    0.028986
  33 H :    0.032897

  Mayer bond orders larger than 0.100000
B(  0-S ,  1-C ) :   1.1592 B(  0-S ,  4-C ) :   1.0983 B(  1-C ,  2-C ) :   1.6287
B(  1-C , 32-H ) :   0.9570 B(  2-C ,  3-C ) :   1.1902 B(  2-C ,  6-C ) :   1.0188
B(  3-C ,  4-C ) :   1.6518 B(  3-C ,  5-H ) :   0.9955 B(  4-C , 20-C ) :   1.0281
B(  6-C ,  7-H ) :   0.9436 B(  6-C ,  8-H ) :   0.9439 B(  6-C ,  9-C ) :   1.0577
B(  9-C , 10-H ) :   0.9552 B(  9-C , 11-H ) :   0.9546 B(  9-C , 12-C ) :   1.0827
B( 12-C , 13-H ) :   0.9705 B( 12-C , 14-H ) :   0.9732 B( 12-C , 15-H ) :   0.9730
B( 16-S , 17-C ) :   1.1541 B( 16-S , 20-C ) :   1.1654 B( 17-C , 18-C ) :   1.6205
B( 17-C , 20-C ) :   0.1057 B( 17-C , 33-H ) :   0.9625 B( 18-C , 19-C ) :   1.2457
B( 18-C , 21-H ) :   0.9923 B( 19-C , 20-C ) :   1.5552 B( 19-C , 22-C ) :   1.0583
B( 22-C , 23-H ) :   0.9358 B( 22-C , 24-H ) :   0.9304 B( 22-C , 25-C ) :   1.0418
B( 25-C , 26-H ) :   0.9554 B( 25-C , 27-H ) :   0.9661 B( 25-C , 28-C ) :   1.0860
B( 28-C , 29-H ) :   0.9736 B( 28-C , 30-H ) :   0.9729 B( 28-C , 31-H ) :   0.9760

Dispersion correction           -0.013454406
FINAL SINGLE POINT ENERGY     -1339.864609364472

DIPOLE MOMENT
-------------
                                X             Y             Z
Electronic contribution:      8.30186      12.77743     -20.32843
Nuclear contribution   :     -8.18755     -13.25409      20.86472
                        -----------------------------------------
Total Dipole Moment    :      0.11431      -0.47666       0.53629
                        -----------------------------------------
Magnitude (a.u.)       :      0.72655
Magnitude (Debye)      :      1.84673

Rotational constants in cm-1:     0.017265     0.007769     0.006747
Rotational constants in MHz :   517.601001   232.900152   202.273903

                             ****ORCA TERMINATED NORMALLY****
TOTAL RUN TIME: 0 days 0 hours 0 minutes 31 seconds 769 msec
