                         Program Version 4.2.1 -  RELEASE  -
|  1> ! wB97X-D3 SP def2-SVP
|  2> %pal
|  3> nprocs 16
|  4> end
|  5>
|  6> * xyz 0 1
|  7> S 	 41.512 	 13.5508 	 89.6885
|  8> C 	 42.7626 	 12.7589 	 88.6738
|  9> C 	 42.4484 	 11.4363 	 88.4291
| 10> C 	 41.1921 	 11.0311 	 89.0756
| 11> C 	 40.5252 	 12.0888 	 89.6989
| 12> H 	 40.7022 	 9.9942 	 89.0044
| 13> C 	 43.3045 	 10.522 	 87.5963
| 14> H 	 44.1691 	 11.0765 	 87.2841
| 15> H 	 42.7924 	 10.2763 	 86.6111
| 16> C 	 43.8122 	 9.2407 	 88.3027
| 17> H 	 43.0271 	 8.60599 	 88.4915
| 18> H 	 44.539 	 8.58208 	 87.825
| 19> C 	 44.5078 	 9.57667 	 89.6054
| 20> H 	 45.2321 	 10.4117 	 89.685
| 21> H 	 43.6828 	 9.89239 	 90.3474
| 22> H 	 45.0701 	 8.7402 	 89.9916
| 23> S 	 38.1135 	 13.2323 	 89.5329
| 24> C 	 36.7615 	 12.7552 	 90.4532
| 25> C 	 37.0092 	 11.7019 	 91.2382
| 26> C 	 38.4222 	 11.3462 	 91.1892
| 27> C 	 39.1328 	 12.0779 	 90.2303
| 28> H 	 36.2126 	 11.2281 	 91.831
| 29> C 	 39.1001 	 10.1594 	 91.8862
| 30> H 	 39.5409 	 10.5299 	 92.8065
| 31> H 	 39.9646 	 9.83716 	 91.353
| 32> C 	 38.1897 	 8.98063 	 92.2497
| 33> H 	 37.966 	 8.33799 	 91.3537
| 34> H 	 37.3402 	 9.40237 	 92.7459
| 35> C 	 38.7874 	 8.02428 	 93.3193
| 36> H 	 39.6003 	 7.32995 	 93.0593
| 37> H 	 38.047 	 7.31801 	 93.6345
| 38> H 	 39.0727 	 8.54971 	 94.2673
| 39> H 	 43.6861 	 13.2977 	 88.3854
| 40> H 	 35.7723 	 13.1921 	 90.43
| 41> *
| 42>
| 43>                          ****END OF INPUT****

CARTESIAN COORDINATES (ANGSTROEM)
---------------------------------
  S     41.512000   13.550800   89.688500
  C     42.762600   12.758900   88.673800
  C     42.448400   11.436300   88.429100
  C     41.192100   11.031100   89.075600
  C     40.525200   12.088800   89.698900
  H     40.702200    9.994200   89.004400
  C     43.304500   10.522000   87.596300
  H     44.169100   11.076500   87.284100
  H     42.792400   10.276300   86.611100
  C     43.812200    9.240700   88.302700
  H     43.027100    8.605990   88.491500
  H     44.539000    8.582080   87.825000
  C     44.507800    9.576670   89.605400
  H     45.232100   10.411700   89.685000
  H     43.682800    9.892390   90.347400
  H     45.070100    8.740200   89.991600
  S     38.113500   13.232300   89.532900
  C     36.761500   12.755200   90.453200
  C     37.009200   11.701900   91.238200
  C     38.422200   11.346200   91.189200
  C     39.132800   12.077900   90.230300
  H     36.212600   11.228100   91.831000
  C     39.100100   10.159400   91.886200
  H     39.540900   10.529900   92.806500
  H     39.964600    9.837160   91.353000
  C     38.189700    8.980630   92.249700
  H     37.966000    8.337990   91.353700
  H     37.340200    9.402370   92.745900
  C     38.787400    8.024280   93.319300
  H     39.600300    7.329950   93.059300
  H     38.047000    7.318010   93.634500
  H     39.072700    8.549710   94.267300
  H     43.686100   13.297700   88.385400
  H     35.772300   13.192100   90.430000

 Total Charge           Charge          ....    0
 Multiplicity           Mult            ....    1
 Number of Electrons    NEL             ....  134
 Basis Dimension        Dim             ....  322

ORBITAL ENERGIES
----------------

  NO   OCC          E(Eh)            E(eV)
   0   2.0000     -88.967563     -2420.9305
   1   2.0000     -88.961683     -2420.7705
   2   2.0000     -10.339108      -281.3414
   3   2.0000     -10.323630      -280.9203
   4   2.0000     -10.322897      -280.9003
   5   2.0000     -10.310296      -280.5574
   6   2.0000     -10.308182      -280.4999
   7   2.0000     -10.308020      -280.4955
   8   2.0000     -10.306896      -280.4649
   9   2.0000     -10.297572      -280.2112
  10   2.0000     -10.294118      -280.1172
  11   2.0000     -10.291464      -280.0450
  12   2.0000     -10.284803      -279.8637
  13   2.0000     -10.282392      -279.7981
  14   2.0000     -10.279323      -279.7146
  15   2.0000     -10.277540      -279.6661
  16   2.0000      -8.081446      -219.9073
  17   2.0000      -8.078513      -219.8275
  18   2.0000      -6.040110      -164.3597
  19   2.0000      -6.036920      -164.2729
  20   2.0000      -6.036069      -164.2498
  21   2.0000      -6.032533      -164.1536
  22   2.0000      -6.032076      -164.1411
  23   2.0000      -6.029426      -164.0690
  24   2.0000      -1.012233       -27.5443
  25   2.0000      -0.982428       -26.7332
  26   2.0000      -0.913649       -24.8616
  27   2.0000      -0.906055       -24.6550
  28   2.0000      -0.871828       -23.7236
  29   2.0000      -0.846495       -23.0343
  30   2.0000      -0.841463       -22.8974
  31   2.0000      -0.818497       -22.2724
  32   2.0000      -0.780321       -21.2336
  33   2.0000      -0.770643       -20.9703
  34   2.0000      -0.709439       -19.3048
  35   2.0000      -0.700732       -19.0679
  36   2.0000      -0.692829       -18.8528
  37   2.0000      -0.650576       -17.7031
  38   2.0000      -0.637909       -17.3584
  39   2.0000      -0.619254       -16.8507
  40   2.0000      -0.598731       -16.2923
  41   2.0000      -0.569406       -15.4943
  42   2.0000      -0.566983       -15.4284
  43   2.0000      -0.553351       -15.0574
  44   2.0000      -0.542507       -14.7624
  45   2.0000      -0.519936       -14.1482
  46   2.0000      -0.515257       -14.0209
  47   2.0000      -0.509046       -13.8518
  48   2.0000      -0.499147       -13.5825
  49   2.0000      -0.497635       -13.5413
  50   2.0000      -0.486297       -13.2328
  51   2.0000      -0.478918       -13.0320
  52   2.0000      -0.469550       -12.7771
  53   2.0000      -0.464000       -12.6261
  54   2.0000      -0.461082       -12.5467
  55   2.0000      -0.456126       -12.4118
  56   2.0000      -0.444023       -12.0825
  57   2.0000      -0.435960       -11.8631
  58   2.0000      -0.430897       -11.7253
  59   2.0000      -0.425036       -11.5658
  60   2.0000      -0.421726       -11.4758
  61   2.0000      -0.413662       -11.2563
  62   2.0000      -0.405190       -11.0258
  63   2.0000      -0.348360        -9.4794
  64   2.0000      -0.329604        -8.9690
  65   2.0000      -0.326753        -8.8914
  66   2.0000      -0.299277        -8.1437
  67   0.0000       0.035865         0.9759
  68   0.0000       0.071557         1.9472
  69   0.0000       0.112892         3.0719
  70   0.0000       0.119593         3.2543
  71   0.0000       0.131174         3.5694

MULLIKEN ATOMIC CHARGES
-----------------------
   0 S :    0.107557
   1 C :   -0.142801
   2 C :   -0.101022
   3 C :    0.020776
   4 C :   -0.156888
   5 H :    0.054952
   6 C :    0.081586
   7 H :    0.008537
   8 H :    0.052274
   9 C :   -0.030899
  10 H :    0.010261
  11 H :    0.028527
  12 C :   -0.104701
  13 H :    0.031024
  14 H :    0.046683
  15 H :    0.029705
  16 S :    0.120884
  17 C :   -0.075514
  18 C :   -0.057290
  19 C :   -0.033999
  20 C :   -0.174921
  21 H :    0.031881
  22 C :    0.102826
  23 H :    0.019473
  24 H :    0.004589
  25 C :   -0.079748
  26 H :    0.048353
  27 H :    0.030388
  28 C :   -0.078901
  29 H :    0.033924
  30 H :    0.021225
  31 H :    0.033202
  32 H :    0.068655
  33 H :    0.049400
Sum of atomic charges:   -0.0000000

LOEWDIN ATOMIC CHARGES
----------------------
   0 S :    0.381060
   1 C :   -0.186241
   2 C :   -0.062241
   3 C :   -0.071819
   4 C :   -0.190158
   5 H :    0.046578
   6 C :   -0.030579
   7 H :    0.026146
   8 H :    0.041091
   9 C :   -0.040996
  10 H :    0.012521
  11 H :    0.029119
  12 C :   -0.076098
  13 H :    0.025140
  14 H :    0.034130
  15 H :    0.021534
  16 S :    0.451815
  17 C :   -0.199556
  18 C :   -0.080393
  19 C :   -0.053278
  20 C :   -0.223704
  21 H :    0.037811
  22 C :   -0.033799
  23 H :    0.032887
  24 H :    0.023063
  25 C :   -0.037129
  26 H :    0.033545
  27 H :    0.022144
  28 C :   -0.076623
  29 H :    0.024802
  30 H :    0.022561
  31 H :    0.027923
  32 H :    0.036479
  33 H :    0.032264

  Mayer bond orders larger than 0.100000
B(  0-S ,  1-C ) :   1.1168 B(  0-S ,  4-C ) :   1.1535 B(  1-C ,  2-C ) :   1.6369
B(  1-C , 32-H ) :   0.9621 B(  2-C ,  3-C ) :   1.2028 B(  2-C ,  6-C ) :   1.0317
B(  3-C ,  4-C ) :   1.6028 B(  3-C ,  5-H ) :   0.9733 B(  4-C , 20-C ) :   1.0053
B(  6-C ,  7-H ) :   0.9412 B(  6-C ,  8-H ) :   0.9405 B(  6-C ,  9-C ) :   1.0552
B(  9-C , 10-H ) :   0.9540 B(  9-C , 11-H ) :   0.9625 B(  9-C , 12-C ) :   1.0700
B( 12-C , 13-H ) :   0.9787 B( 12-C , 14-H ) :   0.9694 B( 12-C , 15-H ) :   0.9762
B( 16-S , 17-C ) :   1.1704 B( 16-S , 20-C ) :   1.1676 B( 17-C , 18-C ) :   1.6213
B( 17-C , 33-H ) :   0.9620 B( 18-C , 19-C ) :   1.2367 B( 18-C , 21-H ) :   0.9865
B( 19-C , 20-C ) :   1.5930 B( 19-C , 22-C ) :   1.0303 B( 22-C , 23-H ) :   0.9209
B( 22-C , 24-H ) :   0.9403 B( 22-C , 25-C ) :   1.0747 B( 25-C , 26-H ) :   0.9568
B( 25-C , 27-H ) :   0.9477 B( 25-C , 28-C ) :   1.0872 B( 28-C , 29-H ) :   0.9760
B( 28-C , 30-H ) :   0.9736 B( 28-C , 31-H ) :   0.9729

Dispersion correction           -0.014006927
FINAL SINGLE POINT ENERGY     -1339.872458548775

DIPOLE MOMENT
-------------
                                X             Y             Z
Electronic contribution:    -10.23796      26.58271      -8.01040
Nuclear contribution   :     10.30067     -27.21273       8.05454
                        -----------------------------------------
Total Dipole Moment    :      0.06271      -0.63003       0.04415
                        -----------------------------------------
Magnitude (a.u.)       :      0.63468
Magnitude (Debye)      :      1.61322

Rotational constants in cm-1:     0.016801     0.009231     0.006514
Rotational constants in MHz :   503.672508   276.739063   195.282459

                             ****ORCA TERMINATED NORMALLY****
TOTAL RUN TIME: 0 days 0 hours 0 minutes 29 seconds 408 msec
