                         Program Version 4.2.1 -  RELEASE  -
|  1> ! wB97X-D3 SP def2-SVP
|  2> %pal
|  3> nprocs 16
|  4> end
|  5>
|  6> * xyz 0 1
|  7> S 	 -11.0905 	 -8.48007 	 74.5971
|  8> C 	 -9.61242 	 -8.22361 	 75.4581
|  9> C 	 -9.78689 	 -7.35859 	 76.4985
| 10> C 	 -11.1362 	 -6.89796 	 76.6383
| 11> C 	 -11.9907 	 -7.43759 	 75.76
| 12> H 	 -11.483 	 -6.10235 	 77.3128
| 13> C 	 -8.69438 	 -6.94387 	 77.4454
| 14> H 	 -9.16567 	 -6.11398 	 78.0429
| 15> H 	 -7.8011 	 -6.5681 	 76.8815
| 16> C 	 -8.30543 	 -7.97522 	 78.4618
| 17> H 	 -9.25226 	 -8.14026 	 79.0188
| 18> H 	 -8.08532 	 -8.86292 	 77.9724
| 19> C 	 -7.22033 	 -7.59399 	 79.4206
| 20> H 	 -7.22237 	 -8.27767 	 80.2554
| 21> H 	 -6.20443 	 -7.67014 	 78.9691
| 22> H 	 -7.24269 	 -6.53422 	 79.8772
| 23> S 	 -13.9704 	 -5.59458 	 75.9041
| 24> C 	 -15.5698 	 -6.11088 	 75.8292
| 25> C 	 -15.7576 	 -7.34154 	 75.3322
| 26> C 	 -14.5036 	 -8.06354 	 75.2732
| 27> C 	 -13.4662 	 -7.21982 	 75.5698
| 28> H 	 -16.7623 	 -7.74711 	 75.0779
| 29> C 	 -14.4622 	 -9.63827 	 75.1188
| 30> H 	 -13.445 	 -9.82715 	 74.8262
| 31> H 	 -14.9947 	 -10.0025 	 74.2671
| 32> C 	 -14.8351 	 -10.4352 	 76.4207
| 33> H 	 -14.8803 	 -11.5335 	 76.2648
| 34> H 	 -15.8985 	 -10.1343 	 76.6029
| 35> C 	 -13.9784 	 -10.0068 	 77.6709
| 36> H 	 -14.1738 	 -8.92085 	 77.815
| 37> H 	 -12.8763 	 -10.1598 	 77.5686
| 38> H 	 -14.3027 	 -10.4945 	 78.5963
| 39> H 	 -8.71387 	 -8.77048 	 75.2158
| 40> H 	 -16.3741 	 -5.4136 	 75.8943
| 41> *
| 42>
| 43>                          ****END OF INPUT****

CARTESIAN COORDINATES (ANGSTROEM)
---------------------------------
  S    -11.090500   -8.480070   74.597100
  C     -9.612420   -8.223610   75.458100
  C     -9.786890   -7.358590   76.498500
  C    -11.136200   -6.897960   76.638300
  C    -11.990700   -7.437590   75.760000
  H    -11.483000   -6.102350   77.312800
  C     -8.694380   -6.943870   77.445400
  H     -9.165670   -6.113980   78.042900
  H     -7.801100   -6.568100   76.881500
  C     -8.305430   -7.975220   78.461800
  H     -9.252260   -8.140260   79.018800
  H     -8.085320   -8.862920   77.972400
  C     -7.220330   -7.593990   79.420600
  H     -7.222370   -8.277670   80.255400
  H     -6.204430   -7.670140   78.969100
  H     -7.242690   -6.534220   79.877200
  S    -13.970400   -5.594580   75.904100
  C    -15.569800   -6.110880   75.829200
  C    -15.757600   -7.341540   75.332200
  C    -14.503600   -8.063540   75.273200
  C    -13.466200   -7.219820   75.569800
  H    -16.762300   -7.747110   75.077900
  C    -14.462200   -9.638270   75.118800
  H    -13.445000   -9.827150   74.826200
  H    -14.994700  -10.002500   74.267100
  C    -14.835100  -10.435200   76.420700
  H    -14.880300  -11.533500   76.264800
  H    -15.898500  -10.134300   76.602900
  C    -13.978400  -10.006800   77.670900
  H    -14.173800   -8.920850   77.815000
  H    -12.876300  -10.159800   77.568600
  H    -14.302700  -10.494500   78.596300
  H     -8.713870   -8.770480   75.215800
  H    -16.374100   -5.413600   75.894300

 Total Charge           Charge          ....    0
 Multiplicity           Mult            ....    1
 Number of Electrons    NEL             ....  134
 Basis Dimension        Dim             ....  322

ORBITAL ENERGIES
----------------

  NO   OCC          E(Eh)            E(eV)
   0   2.0000     -88.966608     -2420.9045
   1   2.0000     -88.962186     -2420.7842
   2   2.0000     -10.331725      -281.1405
   3   2.0000     -10.328186      -281.0442
   4   2.0000     -10.310586      -280.5653
   5   2.0000     -10.307641      -280.4852
   6   2.0000     -10.306713      -280.4599
   7   2.0000     -10.297264      -280.2028
   8   2.0000     -10.295190      -280.1464
   9   2.0000     -10.293922      -280.1119
  10   2.0000     -10.293158      -280.0911
  11   2.0000     -10.292545      -280.0744
  12   2.0000     -10.291162      -280.0368
  13   2.0000     -10.283448      -279.8268
  14   2.0000     -10.278212      -279.6844
  15   2.0000     -10.278081      -279.6808
  16   2.0000      -8.083209      -219.9553
  17   2.0000      -8.076491      -219.7725
  18   2.0000      -6.041538      -164.3986
  19   2.0000      -6.037682      -164.2937
  20   2.0000      -6.035068      -164.2226
  21   2.0000      -6.033820      -164.1886
  22   2.0000      -6.031095      -164.1144
  23   2.0000      -6.027172      -164.0077
  24   2.0000      -1.014806       -27.6143
  25   2.0000      -0.991923       -26.9916
  26   2.0000      -0.916492       -24.9390
  27   2.0000      -0.896770       -24.4024
  28   2.0000      -0.871543       -23.7159
  29   2.0000      -0.850680       -23.1482
  30   2.0000      -0.841737       -22.9048
  31   2.0000      -0.818699       -22.2779
  32   2.0000      -0.781130       -21.2556
  33   2.0000      -0.770363       -20.9626
  34   2.0000      -0.701082       -19.0774
  35   2.0000      -0.696981       -18.9658
  36   2.0000      -0.689763       -18.7694
  37   2.0000      -0.664085       -18.0707
  38   2.0000      -0.638938       -17.3864
  39   2.0000      -0.617862       -16.8129
  40   2.0000      -0.596983       -16.2447
  41   2.0000      -0.573641       -15.6096
  42   2.0000      -0.561317       -15.2742
  43   2.0000      -0.546718       -14.8769
  44   2.0000      -0.537099       -14.6152
  45   2.0000      -0.519455       -14.1351
  46   2.0000      -0.514414       -13.9979
  47   2.0000      -0.512066       -13.9340
  48   2.0000      -0.503227       -13.6935
  49   2.0000      -0.497661       -13.5420
  50   2.0000      -0.488414       -13.2904
  51   2.0000      -0.475709       -12.9447
  52   2.0000      -0.466401       -12.6914
  53   2.0000      -0.463001       -12.5989
  54   2.0000      -0.462015       -12.5721
  55   2.0000      -0.449857       -12.2412
  56   2.0000      -0.444864       -12.1054
  57   2.0000      -0.433765       -11.8034
  58   2.0000      -0.430430       -11.7126
  59   2.0000      -0.427232       -11.6256
  60   2.0000      -0.417083       -11.3494
  61   2.0000      -0.412405       -11.2221
  62   2.0000      -0.407619       -11.0919
  63   2.0000      -0.355811        -9.6821
  64   2.0000      -0.335178        -9.1207
  65   2.0000      -0.330726        -8.9995
  66   2.0000      -0.295329        -8.0363
  67   0.0000       0.032043         0.8719
  68   0.0000       0.082421         2.2428
  69   0.0000       0.105994         2.8842
  70   0.0000       0.117717         3.2032
  71   0.0000       0.126811         3.4507

MULLIKEN ATOMIC CHARGES
-----------------------
   0 S :    0.089282
   1 C :   -0.124745
   2 C :   -0.079046
   3 C :   -0.001628
   4 C :   -0.111809
   5 H :    0.025914
   6 C :    0.035871
   7 H :    0.019737
   8 H :    0.039387
   9 C :   -0.035474
  10 H :    0.024405
  11 H :    0.007800
  12 C :   -0.057601
  13 H :    0.032916
  14 H :    0.031790
  15 H :    0.038993
  16 S :    0.116500
  17 C :   -0.070586
  18 C :   -0.043283
  19 C :   -0.092204
  20 C :   -0.149580
  21 H :    0.033967
  22 C :    0.117057
  23 H :   -0.000714
  24 H :    0.021890
  25 C :   -0.088855
  26 H :    0.043440
  27 H :    0.029287
  28 C :   -0.077754
  29 H :    0.050380
  30 H :    0.050583
  31 H :    0.033505
  32 H :    0.048635
  33 H :    0.041940
Sum of atomic charges:   -0.0000000

LOEWDIN ATOMIC CHARGES
----------------------
   0 S :    0.390907
   1 C :   -0.194491
   2 C :   -0.068038
   3 C :   -0.076143
   4 C :   -0.166987
   5 H :    0.034421
   6 C :   -0.036360
   7 H :    0.032752
   8 H :    0.032370
   9 C :   -0.043455
  10 H :    0.030546
  11 H :    0.013585
  12 C :   -0.072503
  13 H :    0.025690
  14 H :    0.027206
  15 H :    0.033835
  16 S :    0.438007
  17 C :   -0.198246
  18 C :   -0.072649
  19 C :   -0.055974
  20 C :   -0.198445
  21 H :    0.039551
  22 C :   -0.027893
  23 H :    0.011445
  24 H :    0.027757
  25 C :   -0.041323
  26 H :    0.026481
  27 H :    0.025143
  28 C :   -0.073614
  29 H :    0.032600
  30 H :    0.030449
  31 H :    0.024511
  32 H :    0.027680
  33 H :    0.021185

  Mayer bond orders larger than 0.100000
B(  0-S ,  1-C ) :   1.1360 B(  0-S ,  4-C ) :   1.1322 B(  1-C ,  2-C ) :   1.6255
B(  1-C , 32-H ) :   0.9722 B(  2-C ,  3-C ) :   1.2265 B(  2-C ,  6-C ) :   1.0213
B(  3-C ,  4-C ) :   1.6307 B(  3-C ,  5-H ) :   0.9802 B(  4-C , 20-C ) :   0.9998
B(  6-C ,  7-H ) :   0.9385 B(  6-C ,  8-H ) :   0.9397 B(  6-C ,  9-C ) :   1.0728
B(  9-C , 10-H ) :   0.9498 B(  9-C , 11-H ) :   0.9527 B(  9-C , 12-C ) :   1.0879
B( 12-C , 13-H ) :   0.9728 B( 12-C , 14-H ) :   0.9715 B( 12-C , 15-H ) :   0.9724
B( 16-S , 17-C ) :   1.1597 B( 16-S , 20-C ) :   1.1476 B( 17-C , 18-C ) :   1.6435
B( 17-C , 33-H ) :   0.9632 B( 18-C , 19-C ) :   1.2127 B( 18-C , 21-H ) :   0.9853
B( 19-C , 20-C ) :   1.6371 B( 19-C , 22-C ) :   1.0268 B( 22-C , 23-H ) :   0.9277
B( 22-C , 24-H ) :   0.9389 B( 22-C , 25-C ) :   1.0545 B( 25-C , 26-H ) :   0.9603
B( 25-C , 27-H ) :   0.9585 B( 25-C , 28-C ) :   1.0643 B( 28-C , 29-H ) :   0.9731
B( 28-C , 30-H ) :   0.9778 B( 28-C , 31-H ) :   0.9753

Dispersion correction           -0.015095522
FINAL SINGLE POINT ENERGY     -1339.885631175646

DIPOLE MOMENT
-------------
                                X             Y             Z
Electronic contribution:     -9.59505      11.00397     -16.95850
Nuclear contribution   :      9.58028     -11.14302      17.25412
                        -----------------------------------------
Total Dipole Moment    :     -0.01477      -0.13905       0.29563
                        -----------------------------------------
Magnitude (a.u.)       :      0.32703
Magnitude (Debye)      :      0.83124

Rotational constants in cm-1:     0.021826     0.007809     0.007189
Rotational constants in MHz :   654.315397   234.111310   215.523173

                             ****ORCA TERMINATED NORMALLY****
TOTAL RUN TIME: 0 days 0 hours 0 minutes 34 seconds 554 msec
