                         Program Version 4.2.1 -  RELEASE  -
|  1> ! wB97X-D3 SP def2-SVP
|  2> %pal
|  3> nprocs 16
|  4> end
|  5>
|  6> * xyz 0 1
|  7> S 	 0.652232 	 13.0822 	 48.1661
|  8> C 	 0.608487 	 11.6635 	 47.1473
|  9> C 	 1.66818 	 11.7196 	 46.2137
| 10> C 	 2.50041 	 12.8663 	 46.3802
| 11> C 	 2.12667 	 13.6995 	 47.3944
| 12> H 	 3.27401 	 13.2136 	 45.7041
| 13> C 	 1.95887 	 10.7179 	 45.1514
| 14> H 	 1.39111 	 9.85258 	 45.3979
| 15> H 	 3.04321 	 10.406 	 45.2578
| 16> C 	 1.76161 	 11.1434 	 43.7544
| 17> H 	 0.899107 	 11.7406 	 43.6131
| 18> H 	 2.63063 	 11.7086 	 43.4812
| 19> C 	 1.75856 	 9.86315 	 42.8795
| 20> H 	 1.00355 	 9.11592 	 43.1917
| 21> H 	 1.57778 	 10.1541 	 41.8839
| 22> H 	 2.7286 	 9.3842 	 42.8952
| 23> S 	 2.7726 	 15.1409 	 49.6562
| 24> C 	 3.93714 	 16.4233 	 49.5288
| 25> C 	 4.07973 	 16.8284 	 48.2464
| 26> C 	 3.47619 	 15.962 	 47.2942
| 27> C 	 2.78594 	 14.9026 	 47.8747
| 28> H 	 4.64838 	 17.7636 	 48.0297
| 29> C 	 3.64801 	 16.0998 	 45.8311
| 30> H 	 4.12378 	 15.2396 	 45.4306
| 31> H 	 4.2178 	 17.0716 	 45.6923
| 32> C 	 2.36014 	 16.3373 	 44.9553
| 33> H 	 1.85249 	 17.2015 	 45.2798
| 34> H 	 1.74331 	 15.5011 	 45.1442
| 35> C 	 2.59613 	 16.3841 	 43.4327
| 36> H 	 3.09253 	 17.333 	 43.2142
| 37> H 	 1.66039 	 16.2427 	 42.9375
| 38> H 	 3.13391 	 15.4545 	 43.2092
| 39> H 	 -0.0833235 	 10.9444 	 47.2186
| 40> H 	 4.45488 	 17.0511 	 50.3279
| 41> *
| 42>
| 43>                          ****END OF INPUT****

CARTESIAN COORDINATES (ANGSTROEM)
---------------------------------
  S      0.652232   13.082200   48.166100
  C      0.608487   11.663500   47.147300
  C      1.668180   11.719600   46.213700
  C      2.500410   12.866300   46.380200
  C      2.126670   13.699500   47.394400
  H      3.274010   13.213600   45.704100
  C      1.958870   10.717900   45.151400
  H      1.391110    9.852580   45.397900
  H      3.043210   10.406000   45.257800
  C      1.761610   11.143400   43.754400
  H      0.899107   11.740600   43.613100
  H      2.630630   11.708600   43.481200
  C      1.758560    9.863150   42.879500
  H      1.003550    9.115920   43.191700
  H      1.577780   10.154100   41.883900
  H      2.728600    9.384200   42.895200
  S      2.772600   15.140900   49.656200
  C      3.937140   16.423300   49.528800
  C      4.079730   16.828400   48.246400
  C      3.476190   15.962000   47.294200
  C      2.785940   14.902600   47.874700
  H      4.648380   17.763600   48.029700
  C      3.648010   16.099800   45.831100
  H      4.123780   15.239600   45.430600
  H      4.217800   17.071600   45.692300
  C      2.360140   16.337300   44.955300
  H      1.852490   17.201500   45.279800
  H      1.743310   15.501100   45.144200
  C      2.596130   16.384100   43.432700
  H      3.092530   17.333000   43.214200
  H      1.660390   16.242700   42.937500
  H      3.133910   15.454500   43.209200
  H     -0.083323   10.944400   47.218600
  H      4.454880   17.051100   50.327900

 Total Charge           Charge          ....    0
 Multiplicity           Mult            ....    1
 Number of Electrons    NEL             ....  134
 Basis Dimension        Dim             ....  322

ORBITAL ENERGIES
----------------

  NO   OCC          E(Eh)            E(eV)
   0   2.0000     -88.966202     -2420.8934
   1   2.0000     -88.964847     -2420.8566
   2   2.0000     -10.333062      -281.1769
   3   2.0000     -10.330498      -281.1071
   4   2.0000     -10.319188      -280.7994
   5   2.0000     -10.310822      -280.5717
   6   2.0000     -10.303814      -280.3810
   7   2.0000     -10.302449      -280.3439
   8   2.0000     -10.293614      -280.1035
   9   2.0000     -10.292380      -280.0699
  10   2.0000     -10.292214      -280.0654
  11   2.0000     -10.285050      -279.8705
  12   2.0000     -10.280054      -279.7345
  13   2.0000     -10.277977      -279.6780
  14   2.0000     -10.276993      -279.6512
  15   2.0000     -10.275349      -279.6065
  16   2.0000      -8.080531      -219.8824
  17   2.0000      -8.079200      -219.8462
  18   2.0000      -6.039118      -164.3327
  19   2.0000      -6.037829      -164.2977
  20   2.0000      -6.035060      -164.2223
  21   2.0000      -6.033834      -164.1890
  22   2.0000      -6.031277      -164.1194
  23   2.0000      -6.029762      -164.0782
  24   2.0000      -1.007025       -27.4025
  25   2.0000      -0.985094       -26.8058
  26   2.0000      -0.923373       -25.1263
  27   2.0000      -0.908946       -24.7337
  28   2.0000      -0.872944       -23.7540
  29   2.0000      -0.855515       -23.2797
  30   2.0000      -0.847961       -23.0742
  31   2.0000      -0.819482       -22.2992
  32   2.0000      -0.781086       -21.2544
  33   2.0000      -0.770135       -20.9564
  34   2.0000      -0.714364       -19.4388
  35   2.0000      -0.705283       -19.1917
  36   2.0000      -0.691720       -18.8227
  37   2.0000      -0.660873       -17.9833
  38   2.0000      -0.647867       -17.6294
  39   2.0000      -0.624304       -16.9882
  40   2.0000      -0.593727       -16.1561
  41   2.0000      -0.581973       -15.8363
  42   2.0000      -0.574872       -15.6431
  43   2.0000      -0.562675       -15.3112
  44   2.0000      -0.530416       -14.4334
  45   2.0000      -0.522399       -14.2152
  46   2.0000      -0.518764       -14.1163
  47   2.0000      -0.512437       -13.9441
  48   2.0000      -0.509569       -13.8661
  49   2.0000      -0.505475       -13.7547
  50   2.0000      -0.495182       -13.4746
  51   2.0000      -0.482391       -13.1265
  52   2.0000      -0.470745       -12.8096
  53   2.0000      -0.469261       -12.7692
  54   2.0000      -0.460371       -12.5273
  55   2.0000      -0.450072       -12.2471
  56   2.0000      -0.446417       -12.1476
  57   2.0000      -0.442484       -12.0406
  58   2.0000      -0.434215       -11.8156
  59   2.0000      -0.426834       -11.6148
  60   2.0000      -0.421132       -11.4596
  61   2.0000      -0.416575       -11.3356
  62   2.0000      -0.407425       -11.0866
  63   2.0000      -0.356731        -9.7071
  64   2.0000      -0.332488        -9.0475
  65   2.0000      -0.326815        -8.8931
  66   2.0000      -0.285369        -7.7653
  67   0.0000       0.021795         0.5931
  68   0.0000       0.069415         1.8889
  69   0.0000       0.106230         2.8907
  70   0.0000       0.119862         3.2616
  71   0.0000       0.121980         3.3193

MULLIKEN ATOMIC CHARGES
-----------------------
   0 S :    0.098222
   1 C :   -0.064904
   2 C :   -0.086407
   3 C :    0.009056
   4 C :   -0.113674
   5 H :    0.001665
   6 C :    0.056401
   7 H :   -0.000752
   8 H :    0.035994
   9 C :   -0.044279
  10 H :    0.027385
  11 H :    0.022001
  12 C :   -0.034622
  13 H :    0.036393
  14 H :    0.021631
  15 H :    0.025518
  16 S :    0.098175
  17 C :   -0.095772
  18 C :   -0.062919
  19 C :   -0.006813
  20 C :   -0.147210
  21 H :    0.031847
  22 C :    0.033616
  23 H :    0.025798
  24 H :    0.022318
  25 C :   -0.079558
  26 H :    0.017966
  27 H :    0.021349
  28 C :   -0.017809
  29 H :    0.043962
  30 H :    0.031907
  31 H :    0.019554
  32 H :   -0.003569
  33 H :    0.077528
Sum of atomic charges:   -0.0000000

LOEWDIN ATOMIC CHARGES
----------------------
   0 S :    0.394119
   1 C :   -0.179762
   2 C :   -0.053528
   3 C :   -0.070985
   4 C :   -0.178230
   5 H :    0.029372
   6 C :   -0.038205
   7 H :    0.021030
   8 H :    0.040707
   9 C :   -0.033167
  10 H :    0.019784
  11 H :    0.023276
  12 C :   -0.055455
  13 H :    0.027547
  14 H :    0.018156
  15 H :    0.025105
  16 S :    0.389979
  17 C :   -0.197407
  18 C :   -0.083608
  19 C :   -0.058156
  20 C :   -0.177857
  21 H :    0.039812
  22 C :   -0.032701
  23 H :    0.022488
  24 H :    0.035997
  25 C :   -0.032459
  26 H :    0.015418
  27 H :    0.015392
  28 C :   -0.058221
  29 H :    0.027432
  30 H :    0.026395
  31 H :    0.025321
  32 H :    0.001588
  33 H :    0.050823

  Mayer bond orders larger than 0.100000
B(  0-S ,  1-C ) :   1.1315 B(  0-S ,  4-C ) :   1.1406 B(  1-C ,  2-C ) :   1.5861
B(  1-C , 32-H ) :   0.9888 B(  2-C ,  3-C ) :   1.2360 B(  2-C ,  6-C ) :   1.0386
B(  3-C ,  4-C ) :   1.5777 B(  3-C ,  5-H ) :   0.9924 B(  4-C , 20-C ) :   1.0647
B(  6-C ,  7-H ) :   0.9421 B(  6-C ,  8-H ) :   0.9313 B(  6-C ,  9-C ) :   1.0663
B(  9-C , 10-H ) :   0.9594 B(  9-C , 11-H ) :   0.9453 B(  9-C , 12-C ) :   1.0896
B( 12-C , 13-H ) :   0.9776 B( 12-C , 14-H ) :   0.9740 B( 12-C , 15-H ) :   0.9725
B( 16-S , 17-C ) :   1.1488 B( 16-S , 20-C ) :   1.1174 B( 17-C , 18-C ) :   1.6363
B( 17-C , 33-H ) :   0.9513 B( 18-C , 19-C ) :   1.2421 B( 18-C , 21-H ) :   0.9801
B( 19-C , 20-C ) :   1.5777 B( 19-C , 22-C ) :   1.0563 B( 22-C , 23-H ) :   0.9314
B( 22-C , 24-H ) :   0.9315 B( 22-C , 25-C ) :   1.0617 B( 25-C , 26-H ) :   0.9558
B( 25-C , 27-H ) :   0.9559 B( 25-C , 28-C ) :   1.0882 B( 28-C , 29-H ) :   0.9780
B( 28-C , 30-H ) :   0.9722 B( 28-C , 31-H ) :   0.9712

Dispersion correction           -0.014248117
FINAL SINGLE POINT ENERGY     -1339.866585986392

DIPOLE MOMENT
-------------
                                X             Y             Z
Electronic contribution:     -3.34597       5.17522      31.20961
Nuclear contribution   :      3.56600      -5.12923     -31.88344
                        -----------------------------------------
Total Dipole Moment    :      0.22003       0.04598      -0.67383
                        -----------------------------------------
Magnitude (a.u.)       :      0.71033
Magnitude (Debye)      :      1.80553

Rotational constants in cm-1:     0.018959     0.008970     0.006693
Rotational constants in MHz :   568.389419   268.925726   200.644847

                             ****ORCA TERMINATED NORMALLY****
TOTAL RUN TIME: 0 days 0 hours 0 minutes 33 seconds 379 msec
