                         Program Version 4.2.1 -  RELEASE  -
|  1> ! wB97X-D3 SP def2-SVP
|  2> %pal
|  3> nprocs 16
|  4> end
|  5>
|  6> * xyz 0 1
|  7> S 	 0.775449 	 -2.35449 	 81.9297
|  8> C 	 0.0529808 	 -3.74707 	 82.7493
|  9> C 	 -0.33661 	 -3.38759 	 84.0614
| 10> C 	 0.00386969 	 -2.02826 	 84.3824
| 11> C 	 0.769579 	 -1.38792 	 83.4469
| 12> H 	 -0.11263 	 -1.54231 	 85.3042
| 13> C 	 -0.847577 	 -4.38826 	 85.1128
| 14> H 	 -1.6328 	 -4.99638 	 84.5947
| 15> H 	 -1.51607 	 -3.85705 	 85.8234
| 16> C 	 0.261771 	 -5.25176 	 85.753
| 17> H 	 -0.199874 	 -5.83389 	 86.4106
| 18> H 	 0.706959 	 -5.91715 	 84.9798
| 19> C 	 1.427 	 -4.46664 	 86.3851
| 20> H 	 1.84523 	 -3.68054 	 85.7329
| 21> H 	 0.910405 	 -3.87725 	 87.183
| 22> H 	 2.16076 	 -5.13468 	 86.7931
| 23> S 	 2.97863 	 0.0468994 	 82.4984
| 24> C 	 3.17341 	 1.75881 	 82.9047
| 25> C 	 2.19405 	 2.18315 	 83.7778
| 26> C 	 1.26129 	 1.15539 	 84.1162
| 27> C 	 1.54169 	 -0.108376 	 83.5193
| 28> H 	 2.19534 	 3.24407 	 83.9668
| 29> C 	 0.0550004 	 1.4846 	 85.0277
| 30> H 	 -0.00783118 	 2.48828 	 85.2264
| 31> H 	 0.237591 	 0.859468 	 85.8672
| 32> C 	 -1.28327 	 1.17222 	 84.2956
| 33> H 	 -1.47506 	 0.0913579 	 84.1971
| 34> H 	 -1.26433 	 1.66529 	 83.2979
| 35> C 	 -2.44801 	 1.69425 	 85.144
| 36> H 	 -2.24017 	 2.7212 	 85.416
| 37> H 	 -2.64428 	 1.05562 	 86.0839
| 38> H 	 -3.39076 	 1.6606 	 84.6646
| 39> H 	 -0.143931 	 -4.71517 	 82.3835
| 40> H 	 3.91293 	 2.44108 	 82.5208
| 41> *
| 42>
| 43>                          ****END OF INPUT****

CARTESIAN COORDINATES (ANGSTROEM)
---------------------------------
  S      0.775449   -2.354490   81.929700
  C      0.052981   -3.747070   82.749300
  C     -0.336610   -3.387590   84.061400
  C      0.003870   -2.028260   84.382400
  C      0.769579   -1.387920   83.446900
  H     -0.112630   -1.542310   85.304200
  C     -0.847577   -4.388260   85.112800
  H     -1.632800   -4.996380   84.594700
  H     -1.516070   -3.857050   85.823400
  C      0.261771   -5.251760   85.753000
  H     -0.199874   -5.833890   86.410600
  H      0.706959   -5.917150   84.979800
  C      1.427000   -4.466640   86.385100
  H      1.845230   -3.680540   85.732900
  H      0.910405   -3.877250   87.183000
  H      2.160760   -5.134680   86.793100
  S      2.978630    0.046899   82.498400
  C      3.173410    1.758810   82.904700
  C      2.194050    2.183150   83.777800
  C      1.261290    1.155390   84.116200
  C      1.541690   -0.108376   83.519300
  H      2.195340    3.244070   83.966800
  C      0.055000    1.484600   85.027700
  H     -0.007831    2.488280   85.226400
  H      0.237591    0.859468   85.867200
  C     -1.283270    1.172220   84.295600
  H     -1.475060    0.091358   84.197100
  H     -1.264330    1.665290   83.297900
  C     -2.448010    1.694250   85.144000
  H     -2.240170    2.721200   85.416000
  H     -2.644280    1.055620   86.083900
  H     -3.390760    1.660600   84.664600
  H     -0.143931   -4.715170   82.383500
  H      3.912930    2.441080   82.520800

 Total Charge           Charge          ....    0
 Multiplicity           Mult            ....    1
 Number of Electrons    NEL             ....  134
 Basis Dimension        Dim             ....  322

ORBITAL ENERGIES
----------------

  NO   OCC          E(Eh)            E(eV)
   0   2.0000     -88.969089     -2420.9720
   1   2.0000     -88.967199     -2420.9206
   2   2.0000     -10.338374      -281.3215
   3   2.0000     -10.337405      -281.2951
   4   2.0000     -10.319645      -280.8118
   5   2.0000     -10.315373      -280.6956
   6   2.0000     -10.311810      -280.5986
   7   2.0000     -10.306462      -280.4531
   8   2.0000     -10.299720      -280.2696
   9   2.0000     -10.295206      -280.1468
  10   2.0000     -10.292107      -280.0625
  11   2.0000     -10.287207      -279.9291
  12   2.0000     -10.285697      -279.8881
  13   2.0000     -10.281204      -279.7658
  14   2.0000     -10.277131      -279.6549
  15   2.0000     -10.276761      -279.6449
  16   2.0000      -8.082829      -219.9450
  17   2.0000      -8.080565      -219.8834
  18   2.0000      -6.041398      -164.3948
  19   2.0000      -6.039272      -164.3369
  20   2.0000      -6.037381      -164.2855
  21   2.0000      -6.035300      -164.2289
  22   2.0000      -6.033658      -164.1842
  23   2.0000      -6.031138      -164.1156
  24   2.0000      -0.998485       -27.1702
  25   2.0000      -0.977325       -26.5944
  26   2.0000      -0.908107       -24.7108
  27   2.0000      -0.907204       -24.6863
  28   2.0000      -0.865351       -23.5474
  29   2.0000      -0.848099       -23.0779
  30   2.0000      -0.841125       -22.8882
  31   2.0000      -0.818885       -22.2830
  32   2.0000      -0.780441       -21.2369
  33   2.0000      -0.768834       -20.9210
  34   2.0000      -0.706304       -19.2195
  35   2.0000      -0.704109       -19.1598
  36   2.0000      -0.688761       -18.7422
  37   2.0000      -0.661065       -17.9885
  38   2.0000      -0.641970       -17.4689
  39   2.0000      -0.616470       -16.7750
  40   2.0000      -0.589933       -16.0529
  41   2.0000      -0.578405       -15.7392
  42   2.0000      -0.573732       -15.6120
  43   2.0000      -0.551008       -14.9937
  44   2.0000      -0.544235       -14.8094
  45   2.0000      -0.516801       -14.0629
  46   2.0000      -0.515482       -14.0270
  47   2.0000      -0.509330       -13.8596
  48   2.0000      -0.503259       -13.6944
  49   2.0000      -0.502354       -13.6697
  50   2.0000      -0.490805       -13.3555
  51   2.0000      -0.480770       -13.0824
  52   2.0000      -0.473885       -12.8951
  53   2.0000      -0.463879       -12.6228
  54   2.0000      -0.454720       -12.3736
  55   2.0000      -0.447452       -12.1758
  56   2.0000      -0.442437       -12.0393
  57   2.0000      -0.435317       -11.8456
  58   2.0000      -0.425796       -11.5865
  59   2.0000      -0.424796       -11.5593
  60   2.0000      -0.419450       -11.4138
  61   2.0000      -0.417297       -11.3552
  62   2.0000      -0.406738       -11.0679
  63   2.0000      -0.353999        -9.6328
  64   2.0000      -0.333271        -9.0688
  65   2.0000      -0.328922        -8.9504
  66   2.0000      -0.284253        -7.7349
  67   0.0000       0.017302         0.4708
  68   0.0000       0.072333         1.9683
  69   0.0000       0.103450         2.8150
  70   0.0000       0.120835         3.2881
  71   0.0000       0.134907         3.6710

MULLIKEN ATOMIC CHARGES
-----------------------
   0 S :    0.100166
   1 C :   -0.085639
   2 C :   -0.119105
   3 C :    0.043199
   4 C :   -0.135180
   5 H :   -0.011241
   6 C :    0.012886
   7 H :    0.031202
   8 H :    0.025986
   9 C :    0.004772
  10 H :    0.001045
  11 H :    0.027079
  12 C :   -0.067493
  13 H :    0.059770
  14 H :    0.019583
  15 H :    0.042887
  16 S :    0.101743
  17 C :   -0.095271
  18 C :   -0.032438
  19 C :   -0.067198
  20 C :   -0.134180
  21 H :    0.021032
  22 C :    0.132217
  23 H :   -0.009676
  24 H :    0.037115
  25 C :   -0.119568
  26 H :    0.049709
  27 H :    0.045167
  28 C :   -0.042417
  29 H :    0.020146
  30 H :    0.032812
  31 H :    0.026151
  32 H :    0.029561
  33 H :    0.055182
Sum of atomic charges:   -0.0000000

LOEWDIN ATOMIC CHARGES
----------------------
   0 S :    0.376206
   1 C :   -0.188313
   2 C :   -0.058322
   3 C :   -0.068838
   4 C :   -0.164747
   5 H :    0.021305
   6 C :   -0.038761
   7 H :    0.035659
   8 H :    0.030113
   9 C :   -0.027043
  10 H :    0.004801
  11 H :    0.026983
  12 C :   -0.064194
  13 H :    0.032923
  14 H :    0.025943
  15 H :    0.025268
  16 S :    0.397550
  17 C :   -0.176305
  18 C :   -0.077174
  19 C :   -0.046794
  20 C :   -0.200460
  21 H :    0.034442
  22 C :   -0.014722
  23 H :    0.016454
  24 H :    0.029305
  25 C :   -0.041042
  26 H :    0.027465
  27 H :    0.031272
  28 C :   -0.069331
  29 H :    0.017586
  30 H :    0.032391
  31 H :    0.018898
  32 H :    0.021051
  33 H :    0.030429

  Mayer bond orders larger than 0.100000
B(  0-S ,  1-C ) :   1.1223 B(  0-S ,  4-C ) :   1.1345 B(  1-C ,  2-C ) :   1.6144
B(  1-C , 32-H ) :   0.9746 B(  2-C ,  3-C ) :   1.2289 B(  2-C ,  6-C ) :   1.0228
B(  3-C ,  4-C ) :   1.5884 B(  3-C ,  5-H ) :   0.9964 B(  4-C , 20-C ) :   1.0616
B(  6-C ,  7-H ) :   0.9396 B(  6-C ,  8-H ) :   0.9453 B(  6-C ,  9-C ) :   1.0632
B(  9-C , 10-H ) :   0.9542 B(  9-C , 11-H ) :   0.9533 B(  9-C , 12-C ) :   1.0736
B( 12-C , 13-H ) :   0.9724 B( 12-C , 14-H ) :   0.9758 B( 12-C , 15-H ) :   0.9740
B( 16-S , 17-C ) :   1.1558 B( 16-S , 20-C ) :   1.1372 B( 17-C , 18-C ) :   1.6102
B( 17-C , 33-H ) :   0.9646 B( 18-C , 19-C ) :   1.2604 B( 18-C , 21-H ) :   0.9912
B( 19-C , 20-C ) :   1.5491 B( 19-C , 22-C ) :   1.0297 B( 22-C , 23-H ) :   0.9356
B( 22-C , 24-H ) :   0.9317 B( 22-C , 25-C ) :   1.0628 B( 25-C , 26-H ) :   0.9496
B( 25-C , 27-H ) :   0.9568 B( 25-C , 28-C ) :   1.0893 B( 28-C , 29-H ) :   0.9735
B( 28-C , 30-H ) :   0.9725 B( 28-C , 31-H ) :   0.9737

Dispersion correction           -0.015038748
FINAL SINGLE POINT ENERGY     -1339.859738243995

DIPOLE MOMENT
-------------
                                X             Y             Z
Electronic contribution:     14.89434       3.04062     -19.59145
Nuclear contribution   :    -15.21328      -2.90212      20.08069
                        -----------------------------------------
Total Dipole Moment    :     -0.31894       0.13850       0.48924
                        -----------------------------------------
Magnitude (a.u.)       :      0.60022
Magnitude (Debye)      :      1.52564

Rotational constants in cm-1:     0.017580     0.009362     0.007590
Rotational constants in MHz :   527.034447   280.657422   227.541691

                             ****ORCA TERMINATED NORMALLY****
TOTAL RUN TIME: 0 days 0 hours 0 minutes 35 seconds 185 msec
