                         Program Version 4.2.1 -  RELEASE  -
|  1> ! wB97X-D3 SP def2-SVP
|  2> %pal
|  3> nprocs 16
|  4> end
|  5>
|  6> * xyz 0 1
|  7> S 	 -82.6242 	 54.4754 	 134.798
|  8> C 	 -83.5298 	 53.2856 	 135.612
|  9> C 	 -82.8242 	 52.8802 	 136.753
| 10> C 	 -81.6128 	 53.6069 	 136.972
| 11> C 	 -81.3228 	 54.4043 	 135.923
| 12> H 	 -80.837 	 53.4994 	 137.766
| 13> C 	 -83.1953 	 51.8457 	 137.68
| 14> H 	 -82.2038 	 51.5311 	 138.082
| 15> H 	 -83.7452 	 51.0978 	 137.14
| 16> C 	 -84.0819 	 52.2688 	 138.83
| 17> H 	 -83.6799 	 52.9758 	 139.536
| 18> H 	 -85.063 	 52.715 	 138.459
| 19> C 	 -84.4717 	 51.1133 	 139.698
| 20> H 	 -85.2781 	 50.568 	 139.241
| 21> H 	 -83.5983 	 50.3977 	 139.909
| 22> H 	 -84.7718 	 51.5824 	 140.707
| 23> S 	 -80.3967 	 57.0132 	 136.052
| 24> C 	 -78.8235 	 57.4023 	 135.57
| 25> C 	 -78.0696 	 56.2298 	 135.431
| 26> C 	 -78.8557 	 55.0237 	 135.503
| 27> C 	 -80.1837 	 55.2756 	 135.738
| 28> H 	 -77.011 	 56.2727 	 135.3
| 29> C 	 -78.2244 	 53.6815 	 135.319
| 30> H 	 -77.8229 	 53.4495 	 134.313
| 31> H 	 -78.9815 	 52.9823 	 135.393
| 32> C 	 -77.1809 	 53.3324 	 136.311
| 33> H 	 -76.4847 	 54.1229 	 136.385
| 34> H 	 -76.6687 	 52.3708 	 136.037
| 35> C 	 -77.6642 	 53.0524 	 137.734
| 36> H 	 -76.8032 	 52.9808 	 138.435
| 37> H 	 -78.2549 	 52.0842 	 137.77
| 38> H 	 -78.3317 	 53.7856 	 138.075
| 39> H 	 -84.5551 	 52.9689 	 135.427
| 40> H 	 -78.3082 	 58.3448 	 135.702
| 41> *
| 42>
| 43>                          ****END OF INPUT****

CARTESIAN COORDINATES (ANGSTROEM)
---------------------------------
  S    -82.624200   54.475400  134.798000
  C    -83.529800   53.285600  135.612000
  C    -82.824200   52.880200  136.753000
  C    -81.612800   53.606900  136.972000
  C    -81.322800   54.404300  135.923000
  H    -80.837000   53.499400  137.766000
  C    -83.195300   51.845700  137.680000
  H    -82.203800   51.531100  138.082000
  H    -83.745200   51.097800  137.140000
  C    -84.081900   52.268800  138.830000
  H    -83.679900   52.975800  139.536000
  H    -85.063000   52.715000  138.459000
  C    -84.471700   51.113300  139.698000
  H    -85.278100   50.568000  139.241000
  H    -83.598300   50.397700  139.909000
  H    -84.771800   51.582400  140.707000
  S    -80.396700   57.013200  136.052000
  C    -78.823500   57.402300  135.570000
  C    -78.069600   56.229800  135.431000
  C    -78.855700   55.023700  135.503000
  C    -80.183700   55.275600  135.738000
  H    -77.011000   56.272700  135.300000
  C    -78.224400   53.681500  135.319000
  H    -77.822900   53.449500  134.313000
  H    -78.981500   52.982300  135.393000
  C    -77.180900   53.332400  136.311000
  H    -76.484700   54.122900  136.385000
  H    -76.668700   52.370800  136.037000
  C    -77.664200   53.052400  137.734000
  H    -76.803200   52.980800  138.435000
  H    -78.254900   52.084200  137.770000
  H    -78.331700   53.785600  138.075000
  H    -84.555100   52.968900  135.427000
  H    -78.308200   58.344800  135.702000

 Total Charge           Charge          ....    0
 Multiplicity           Mult            ....    1
 Number of Electrons    NEL             ....  134
 Basis Dimension        Dim             ....  322

ORBITAL ENERGIES
----------------

  NO   OCC          E(Eh)            E(eV)
   0   2.0000     -88.963583     -2420.8222
   1   2.0000     -88.963478     -2420.8193
   2   2.0000     -10.324943      -280.9560
   3   2.0000     -10.321240      -280.8552
   4   2.0000     -10.315335      -280.6945
   5   2.0000     -10.311460      -280.5891
   6   2.0000     -10.302576      -280.3474
   7   2.0000     -10.294866      -280.1375
   8   2.0000     -10.293001      -280.0868
   9   2.0000     -10.291639      -280.0497
  10   2.0000     -10.284857      -279.8652
  11   2.0000     -10.283954      -279.8406
  12   2.0000     -10.283681      -279.8332
  13   2.0000     -10.281535      -279.7748
  14   2.0000     -10.280247      -279.7398
  15   2.0000     -10.277172      -279.6561
  16   2.0000      -8.079620      -219.8576
  17   2.0000      -8.078948      -219.8394
  18   2.0000      -6.038014      -164.3027
  19   2.0000      -6.037390      -164.2857
  20   2.0000      -6.033720      -164.1859
  21   2.0000      -6.033299      -164.1744
  22   2.0000      -6.030640      -164.1021
  23   2.0000      -6.029769      -164.0783
  24   2.0000      -1.015395       -27.6303
  25   2.0000      -0.991818       -26.9887
  26   2.0000      -0.924095       -25.1459
  27   2.0000      -0.920607       -25.0510
  28   2.0000      -0.874150       -23.7868
  29   2.0000      -0.857711       -23.3395
  30   2.0000      -0.848074       -23.0773
  31   2.0000      -0.816832       -22.2271
  32   2.0000      -0.787166       -21.4199
  33   2.0000      -0.769750       -20.9460
  34   2.0000      -0.704454       -19.1692
  35   2.0000      -0.697816       -18.9885
  36   2.0000      -0.691771       -18.8241
  37   2.0000      -0.656103       -17.8535
  38   2.0000      -0.646900       -17.6030
  39   2.0000      -0.624618       -16.9967
  40   2.0000      -0.607556       -16.5324
  41   2.0000      -0.572412       -15.5761
  42   2.0000      -0.567825       -15.4513
  43   2.0000      -0.552918       -15.0457
  44   2.0000      -0.545120       -14.8335
  45   2.0000      -0.530799       -14.4438
  46   2.0000      -0.521833       -14.1998
  47   2.0000      -0.512882       -13.9562
  48   2.0000      -0.511964       -13.9312
  49   2.0000      -0.504723       -13.7342
  50   2.0000      -0.497303       -13.5323
  51   2.0000      -0.476453       -12.9649
  52   2.0000      -0.468971       -12.7614
  53   2.0000      -0.465181       -12.6582
  54   2.0000      -0.460218       -12.5232
  55   2.0000      -0.447318       -12.1722
  56   2.0000      -0.444164       -12.0863
  57   2.0000      -0.434810       -11.8318
  58   2.0000      -0.431955       -11.7541
  59   2.0000      -0.421080       -11.4582
  60   2.0000      -0.418352       -11.3839
  61   2.0000      -0.415444       -11.3048
  62   2.0000      -0.413988       -11.2652
  63   2.0000      -0.340624        -9.2688
  64   2.0000      -0.331196        -9.0123
  65   2.0000      -0.318964        -8.6794
  66   2.0000      -0.305961        -8.3256
  67   0.0000       0.041154         1.1199
  68   0.0000       0.059726         1.6252
  69   0.0000       0.113196         3.0802
  70   0.0000       0.118170         3.2156
  71   0.0000       0.134318         3.6550

MULLIKEN ATOMIC CHARGES
-----------------------
   0 S :    0.128934
   1 C :   -0.106694
   2 C :   -0.101254
   3 C :    0.031109
   4 C :   -0.186193
   5 H :    0.026055
   6 C :    0.087306
   7 H :    0.025576
   8 H :    0.014667
   9 C :   -0.081993
  10 H :    0.022226
  11 H :    0.029465
  12 C :   -0.076962
  13 H :    0.034779
  14 H :    0.037891
  15 H :    0.044144
  16 S :    0.118329
  17 C :   -0.072335
  18 C :   -0.061534
  19 C :   -0.018362
  20 C :   -0.182540
  21 H :    0.013301
  22 C :    0.143521
  23 H :    0.036764
  24 H :   -0.016113
  25 C :   -0.078307
  26 H :    0.016020
  27 H :    0.035924
  28 C :   -0.074312
  29 H :    0.041206
  30 H :    0.029736
  31 H :    0.028307
  32 H :    0.048390
  33 H :    0.062947
Sum of atomic charges:   -0.0000000

LOEWDIN ATOMIC CHARGES
----------------------
   0 S :    0.444045
   1 C :   -0.220342
   2 C :   -0.065349
   3 C :   -0.064354
   4 C :   -0.209819
   5 H :    0.041754
   6 C :   -0.038371
   7 H :    0.038947
   8 H :    0.031265
   9 C :   -0.047242
  10 H :    0.020581
  11 H :    0.029841
  12 C :   -0.073158
  13 H :    0.018628
  14 H :    0.029367
  15 H :    0.035839
  16 S :    0.421825
  17 C :   -0.203553
  18 C :   -0.071741
  19 C :   -0.049961
  20 C :   -0.198555
  21 H :    0.023935
  22 C :   -0.031562
  23 H :    0.040631
  24 H :    0.018651
  25 C :   -0.038526
  26 H :    0.014139
  27 H :    0.032826
  28 C :   -0.066210
  29 H :    0.031337
  30 H :    0.027240
  31 H :    0.010904
  32 H :    0.032966
  33 H :    0.034022

  Mayer bond orders larger than 0.100000
B(  0-S ,  1-C ) :   1.1501 B(  0-S ,  4-C ) :   1.1746 B(  1-C ,  2-C ) :   1.5763
B(  1-C , 32-H ) :   0.9700 B(  2-C ,  3-C ) :   1.2407 B(  2-C ,  6-C ) :   1.0471
B(  3-C ,  4-C ) :   1.5934 B(  3-C ,  5-H ) :   0.9836 B(  4-C , 20-C ) :   1.0009
B(  6-C ,  7-H ) :   0.9261 B(  6-C ,  8-H ) :   0.9312 B(  6-C ,  9-C ) :   1.0814
B(  9-C , 10-H ) :   0.9581 B(  9-C , 11-H ) :   0.9513 B(  9-C , 12-C ) :   1.0787
B( 12-C , 13-H ) :   0.9771 B( 12-C , 14-H ) :   0.9697 B( 12-C , 15-H ) :   0.9771
B( 16-S , 17-C ) :   1.1745 B( 16-S , 20-C ) :   1.1509 B( 17-C , 18-C ) :   1.5930
B( 17-C , 33-H ) :   0.9635 B( 18-C , 19-C ) :   1.2369 B( 18-C , 21-H ) :   0.9910
B( 19-C , 20-C ) :   1.5982 B( 19-C , 22-C ) :   1.0519 B( 22-C , 23-H ) :   0.9295
B( 22-C , 24-H ) :   0.9154 B( 22-C , 25-C ) :   1.0755 B( 25-C , 26-H ) :   0.9589
B( 25-C , 27-H ) :   0.9528 B( 25-C , 28-C ) :   1.0781 B( 28-C , 29-H ) :   0.9714
B( 28-C , 30-H ) :   0.9736 B( 28-C , 31-H ) :   0.9743

Dispersion correction           -0.014627530
FINAL SINGLE POINT ENERGY     -1339.869539620978

DIPOLE MOMENT
-------------
                                X             Y             Z
Electronic contribution:     -3.66346      21.04219     -17.16207
Nuclear contribution   :      3.90838     -21.42387      17.53670
                        -----------------------------------------
Total Dipole Moment    :      0.24492      -0.38168       0.37463
                        -----------------------------------------
Magnitude (a.u.)       :      0.58822
Magnitude (Debye)      :      1.49515

Rotational constants in cm-1:     0.020221     0.008318     0.006894
Rotational constants in MHz :   606.224704   249.364516   206.674497

                             ****ORCA TERMINATED NORMALLY****
TOTAL RUN TIME: 0 days 0 hours 0 minutes 34 seconds 380 msec
