                         Program Version 4.2.1 -  RELEASE  -
|  1> ! wB97X-D3 SP def2-SVP
|  2> %pal
|  3> nprocs 16
|  4> end
|  5>
|  6> * xyz 0 1
|  7> S 	 2.59478 	 -18.4143 	 84.6765
|  8> C 	 3.2941 	 -19.6582 	 85.7071
|  9> C 	 3.40553 	 -19.2777 	 87.0352
| 10> C 	 3.07117 	 -17.8886 	 87.1669
| 11> C 	 2.70454 	 -17.2755 	 85.9895
| 12> H 	 3.10915 	 -17.3044 	 88.0205
| 13> C 	 3.62586 	 -20.16 	 88.2226
| 14> H 	 2.71977 	 -20.692 	 88.3767
| 15> H 	 3.71126 	 -19.4905 	 89.089
| 16> C 	 4.80345 	 -21.2012 	 88.1645
| 17> H 	 4.63594 	 -21.9296 	 87.3209
| 18> H 	 5.75713 	 -20.718 	 87.9699
| 19> C 	 4.98306 	 -22.0217 	 89.3994
| 20> H 	 5.80596 	 -22.6548 	 89.4026
| 21> H 	 5.132 	 -21.3398 	 90.2775
| 22> H 	 3.99158 	 -22.5517 	 89.5879
| 23> S 	 0.642719 	 -15.6266 	 85.4165
| 24> C 	 1.01396 	 -13.8505 	 85.4604
| 25> C 	 2.3546 	 -13.523 	 85.8376
| 26> C 	 3.07403 	 -14.7308 	 86.0857
| 27> C 	 2.28605 	 -15.8892 	 85.8767
| 28> H 	 2.78046 	 -12.5122 	 85.8251
| 29> C 	 4.54299 	 -14.7429 	 86.4014
| 30> H 	 4.56721 	 -15.2781 	 87.3445
| 31> H 	 4.85283 	 -13.7284 	 86.4397
| 32> C 	 5.43727 	 -15.4933 	 85.4274
| 33> H 	 5.5703 	 -14.8669 	 84.5241
| 34> H 	 5.05749 	 -16.5446 	 85.1147
| 35> C 	 6.85259 	 -15.7668 	 85.8451
| 36> H 	 7.22619 	 -14.827 	 86.3808
| 37> H 	 7.50405 	 -15.9029 	 84.957
| 38> H 	 6.85169 	 -16.5793 	 86.5172
| 39> H 	 3.31758 	 -20.7614 	 85.6797
| 40> H 	 0.317956 	 -13.1044 	 85.0438
| 41> *
| 42>
| 43>                          ****END OF INPUT****

CARTESIAN COORDINATES (ANGSTROEM)
---------------------------------
  S      2.594780  -18.414300   84.676500
  C      3.294100  -19.658200   85.707100
  C      3.405530  -19.277700   87.035200
  C      3.071170  -17.888600   87.166900
  C      2.704540  -17.275500   85.989500
  H      3.109150  -17.304400   88.020500
  C      3.625860  -20.160000   88.222600
  H      2.719770  -20.692000   88.376700
  H      3.711260  -19.490500   89.089000
  C      4.803450  -21.201200   88.164500
  H      4.635940  -21.929600   87.320900
  H      5.757130  -20.718000   87.969900
  C      4.983060  -22.021700   89.399400
  H      5.805960  -22.654800   89.402600
  H      5.132000  -21.339800   90.277500
  H      3.991580  -22.551700   89.587900
  S      0.642719  -15.626600   85.416500
  C      1.013960  -13.850500   85.460400
  C      2.354600  -13.523000   85.837600
  C      3.074030  -14.730800   86.085700
  C      2.286050  -15.889200   85.876700
  H      2.780460  -12.512200   85.825100
  C      4.542990  -14.742900   86.401400
  H      4.567210  -15.278100   87.344500
  H      4.852830  -13.728400   86.439700
  C      5.437270  -15.493300   85.427400
  H      5.570300  -14.866900   84.524100
  H      5.057490  -16.544600   85.114700
  C      6.852590  -15.766800   85.845100
  H      7.226190  -14.827000   86.380800
  H      7.504050  -15.902900   84.957000
  H      6.851690  -16.579300   86.517200
  H      3.317580  -20.761400   85.679700
  H      0.317956  -13.104400   85.043800

 Total Charge           Charge          ....    0
 Multiplicity           Mult            ....    1
 Number of Electrons    NEL             ....  134
 Basis Dimension        Dim             ....  322

ORBITAL ENERGIES
----------------

  NO   OCC          E(Eh)            E(eV)
   0   2.0000     -88.973417     -2421.0898
   1   2.0000     -88.972004     -2421.0513
   2   2.0000     -10.327520      -281.0261
   3   2.0000     -10.324545      -280.9452
   4   2.0000     -10.322507      -280.8897
   5   2.0000     -10.311077      -280.5787
   6   2.0000     -10.304942      -280.4117
   7   2.0000     -10.304190      -280.3913
   8   2.0000     -10.299712      -280.2694
   9   2.0000     -10.295792      -280.1627
  10   2.0000     -10.293432      -280.0985
  11   2.0000     -10.287068      -279.9254
  12   2.0000     -10.286139      -279.9001
  13   2.0000     -10.282053      -279.7889
  14   2.0000     -10.281427      -279.7719
  15   2.0000     -10.274010      -279.5700
  16   2.0000      -8.087197      -220.0638
  17   2.0000      -8.085886      -220.0281
  18   2.0000      -6.045513      -164.5068
  19   2.0000      -6.044538      -164.4802
  20   2.0000      -6.042022      -164.4118
  21   2.0000      -6.040526      -164.3711
  22   2.0000      -6.038035      -164.3033
  23   2.0000      -6.036524      -164.2622
  24   2.0000      -1.005467       -27.3602
  25   2.0000      -0.978097       -26.6154
  26   2.0000      -0.914350       -24.8807
  27   2.0000      -0.910434       -24.7742
  28   2.0000      -0.870302       -23.6821
  29   2.0000      -0.854530       -23.2530
  30   2.0000      -0.852491       -23.1975
  31   2.0000      -0.812722       -22.1153
  32   2.0000      -0.784534       -21.3483
  33   2.0000      -0.766501       -20.8576
  34   2.0000      -0.706494       -19.2247
  35   2.0000      -0.696115       -18.9423
  36   2.0000      -0.676225       -18.4010
  37   2.0000      -0.667249       -18.1568
  38   2.0000      -0.636590       -17.3225
  39   2.0000      -0.615308       -16.7434
  40   2.0000      -0.589500       -16.0411
  41   2.0000      -0.576989       -15.7007
  42   2.0000      -0.569347       -15.4927
  43   2.0000      -0.562337       -15.3020
  44   2.0000      -0.534464       -14.5435
  45   2.0000      -0.521589       -14.1932
  46   2.0000      -0.519568       -14.1382
  47   2.0000      -0.505040       -13.7428
  48   2.0000      -0.503918       -13.7123
  49   2.0000      -0.496975       -13.5234
  50   2.0000      -0.487617       -13.2687
  51   2.0000      -0.484510       -13.1842
  52   2.0000      -0.477087       -12.9822
  53   2.0000      -0.461300       -12.5526
  54   2.0000      -0.453626       -12.3438
  55   2.0000      -0.449453       -12.2302
  56   2.0000      -0.446934       -12.1617
  57   2.0000      -0.439104       -11.9486
  58   2.0000      -0.432916       -11.7802
  59   2.0000      -0.428436       -11.6583
  60   2.0000      -0.417317       -11.3558
  61   2.0000      -0.414088       -11.2679
  62   2.0000      -0.406113       -11.0509
  63   2.0000      -0.342493        -9.3197
  64   2.0000      -0.332657        -9.0521
  65   2.0000      -0.324832        -8.8391
  66   2.0000      -0.291008        -7.9187
  67   0.0000       0.027733         0.7546
  68   0.0000       0.059717         1.6250
  69   0.0000       0.099581         2.7097
  70   0.0000       0.117178         3.1886
  71   0.0000       0.128548         3.4980

MULLIKEN ATOMIC CHARGES
-----------------------
   0 S :    0.129807
   1 C :   -0.097081
   2 C :   -0.111585
   3 C :    0.064200
   4 C :   -0.195401
   5 H :   -0.018457
   6 C :    0.078268
   7 H :    0.033453
   8 H :    0.018767
   9 C :   -0.096842
  10 H :    0.034736
  11 H :    0.032037
  12 C :   -0.037853
  13 H :    0.030465
  14 H :    0.025867
  15 H :    0.033510
  16 S :    0.125853
  17 C :   -0.116145
  18 C :   -0.038807
  19 C :   -0.053648
  20 C :   -0.172691
  21 H :    0.034727
  22 C :    0.154737
  23 H :    0.020399
  24 H :    0.004979
  25 C :   -0.125865
  26 H :    0.023596
  27 H :    0.059806
  28 C :   -0.046701
  29 H :    0.021099
  30 H :    0.044795
  31 H :    0.029061
  32 H :    0.044061
  33 H :    0.066852
Sum of atomic charges:   -0.0000000

LOEWDIN ATOMIC CHARGES
----------------------
   0 S :    0.411978
   1 C :   -0.216367
   2 C :   -0.059604
   3 C :   -0.056693
   4 C :   -0.200206
   5 H :    0.017220
   6 C :   -0.029541
   7 H :    0.032310
   8 H :    0.032193
   9 C :   -0.043237
  10 H :    0.026695
  11 H :    0.023823
  12 C :   -0.064907
  13 H :    0.017526
  14 H :    0.027472
  15 H :    0.031377
  16 S :    0.405762
  17 C :   -0.175811
  18 C :   -0.064442
  19 C :   -0.049573
  20 C :   -0.214814
  21 H :    0.039250
  22 C :   -0.029302
  23 H :    0.033901
  24 H :    0.026333
  25 C :   -0.052578
  26 H :    0.023171
  27 H :    0.035916
  28 C :   -0.064962
  29 H :    0.025354
  30 H :    0.032785
  31 H :    0.015376
  32 H :    0.035388
  33 H :    0.028208

  Mayer bond orders larger than 0.100000
B(  0-S ,  1-C ) :   1.1221 B(  0-S ,  4-C ) :   1.1384 B(  1-C ,  2-C ) :   1.6379
B(  1-C , 32-H ) :   0.9540 B(  2-C ,  3-C ) :   1.2298 B(  2-C ,  6-C ) :   1.0221
B(  3-C ,  4-C ) :   1.5859 B(  3-C ,  5-H ) :   1.0024 B(  4-C , 20-C ) :   1.0317
B(  6-C ,  7-H ) :   0.9282 B(  6-C ,  8-H ) :   0.9426 B(  6-C ,  9-C ) :   1.0563
B(  9-C , 10-H ) :   0.9510 B(  9-C , 11-H ) :   0.9586 B(  9-C , 12-C ) :   1.0957
B( 12-C , 13-H ) :   0.9734 B( 12-C , 14-H ) :   0.9716 B( 12-C , 15-H ) :   0.9723
B( 16-S , 17-C ) :   1.1531 B( 16-S , 20-C ) :   1.1582 B( 17-C , 18-C ) :   1.5909
B( 17-C , 20-C ) :   0.1108 B( 17-C , 33-H ) :   0.9629 B( 18-C , 19-C ) :   1.2691
B( 18-C , 21-H ) :   0.9817 B( 19-C , 20-C ) :   1.5652 B( 19-C , 22-C ) :   1.0403
B( 22-C , 23-H ) :   0.9174 B( 22-C , 24-H ) :   0.9234 B( 22-C , 25-C ) :   1.0710
B( 25-C , 26-H ) :   0.9560 B( 25-C , 27-H ) :   0.9516 B( 25-C , 28-C ) :   1.0833
B( 28-C , 29-H ) :   0.9702 B( 28-C , 30-H ) :   0.9742 B( 28-C , 31-H ) :   0.9775

Dispersion correction           -0.014586998
FINAL SINGLE POINT ENERGY     -1339.856862197838

DIPOLE MOMENT
-------------
                                X             Y             Z
Electronic contribution:    -23.26886       9.96200     -14.09244
Nuclear contribution   :     23.56764      -9.97237      14.50329
                        -----------------------------------------
Total Dipole Moment    :      0.29878      -0.01037       0.41084
                        -----------------------------------------
Magnitude (a.u.)       :      0.50810
Magnitude (Debye)      :      1.29149

Rotational constants in cm-1:     0.020749     0.008059     0.006783
Rotational constants in MHz :   622.030466   241.616551   203.356527

                             ****ORCA TERMINATED NORMALLY****
TOTAL RUN TIME: 0 days 0 hours 0 minutes 37 seconds 204 msec
