                         Program Version 4.2.1 -  RELEASE  -
|  1> ! wB97X-D3 SP def2-SVP
|  2> %pal
|  3> nprocs 16
|  4> end
|  5>
|  6> * xyz 0 1
|  7> S 	 21.5742 	 32.7681 	 54.8737
|  8> C 	 21.1109 	 31.8492 	 56.2347
|  9> C 	 22.1842 	 31.5424 	 57.0864
| 10> C 	 23.4474 	 31.9253 	 56.5155
| 11> C 	 23.2708 	 32.7309 	 55.4368
| 12> H 	 24.4412 	 31.9128 	 56.9897
| 13> C 	 22.1195 	 30.6618 	 58.2658
| 14> H 	 22.073 	 29.7143 	 57.8063
| 15> H 	 21.2083 	 30.8219 	 58.7564
| 16> C 	 23.261 	 30.6142 	 59.2772
| 17> H 	 24.3133 	 30.6978 	 58.8583
| 18> H 	 23.1317 	 31.5441 	 59.9257
| 19> C 	 23.2572 	 29.4352 	 60.304
| 20> H 	 22.3466 	 29.3017 	 60.8435
| 21> H 	 23.3904 	 28.5459 	 59.7888
| 22> H 	 23.9803 	 29.5647 	 61.0982
| 23> S 	 25.3252 	 32.723 	 53.5788
| 24> C 	 26.2242 	 34.2231 	 53.3057
| 25> C 	 25.5689 	 35.2918 	 53.8407
| 26> C 	 24.4605 	 34.9137 	 54.6594
| 27> C 	 24.26 	 33.5432 	 54.7092
| 28> H 	 25.9608 	 36.2481 	 53.7823
| 29> C 	 23.6824 	 36.0173 	 55.3249
| 30> H 	 22.8176 	 35.4803 	 55.7524
| 31> H 	 23.3056 	 36.6771 	 54.505
| 32> C 	 24.2421 	 36.7608 	 56.5126
| 33> H 	 23.4347 	 37.4247 	 56.8396
| 34> H 	 25.0447 	 37.3299 	 56.2492
| 35> C 	 24.6955 	 36.0279 	 57.7742
| 36> H 	 25.5578 	 35.4099 	 57.4807
| 37> H 	 24.0148 	 35.2961 	 58.1424
| 38> H 	 24.9471 	 36.6933 	 58.5666
| 39> H 	 20.1033 	 31.4982 	 56.3241
| 40> H 	 27.1426 	 34.3717 	 52.7825
| 41> *
| 42>
| 43>                          ****END OF INPUT****

CARTESIAN COORDINATES (ANGSTROEM)
---------------------------------
  S     21.574200   32.768100   54.873700
  C     21.110900   31.849200   56.234700
  C     22.184200   31.542400   57.086400
  C     23.447400   31.925300   56.515500
  C     23.270800   32.730900   55.436800
  H     24.441200   31.912800   56.989700
  C     22.119500   30.661800   58.265800
  H     22.073000   29.714300   57.806300
  H     21.208300   30.821900   58.756400
  C     23.261000   30.614200   59.277200
  H     24.313300   30.697800   58.858300
  H     23.131700   31.544100   59.925700
  C     23.257200   29.435200   60.304000
  H     22.346600   29.301700   60.843500
  H     23.390400   28.545900   59.788800
  H     23.980300   29.564700   61.098200
  S     25.325200   32.723000   53.578800
  C     26.224200   34.223100   53.305700
  C     25.568900   35.291800   53.840700
  C     24.460500   34.913700   54.659400
  C     24.260000   33.543200   54.709200
  H     25.960800   36.248100   53.782300
  C     23.682400   36.017300   55.324900
  H     22.817600   35.480300   55.752400
  H     23.305600   36.677100   54.505000
  C     24.242100   36.760800   56.512600
  H     23.434700   37.424700   56.839600
  H     25.044700   37.329900   56.249200
  C     24.695500   36.027900   57.774200
  H     25.557800   35.409900   57.480700
  H     24.014800   35.296100   58.142400
  H     24.947100   36.693300   58.566600
  H     20.103300   31.498200   56.324100
  H     27.142600   34.371700   52.782500

 Total Charge           Charge          ....    0
 Multiplicity           Mult            ....    1
 Number of Electrons    NEL             ....  134
 Basis Dimension        Dim             ....  322

ORBITAL ENERGIES
----------------

  NO   OCC          E(Eh)            E(eV)
   0   2.0000     -88.964790     -2420.8550
   1   2.0000     -88.962869     -2420.8027
   2   2.0000     -10.328126      -281.0426
   3   2.0000     -10.324143      -280.9342
   4   2.0000     -10.312977      -280.6304
   5   2.0000     -10.310479      -280.5624
   6   2.0000     -10.303270      -280.3662
   7   2.0000     -10.299011      -280.2503
   8   2.0000     -10.298111      -280.2258
   9   2.0000     -10.295244      -280.1478
  10   2.0000     -10.288015      -279.9511
  11   2.0000     -10.282475      -279.8004
  12   2.0000     -10.282334      -279.7965
  13   2.0000     -10.274686      -279.5884
  14   2.0000     -10.273794      -279.5641
  15   2.0000     -10.268173      -279.4112
  16   2.0000      -8.079643      -219.8583
  17   2.0000      -8.077215      -219.7922
  18   2.0000      -6.038002      -164.3024
  19   2.0000      -6.035873      -164.2445
  20   2.0000      -6.034145      -164.1974
  21   2.0000      -6.031786      -164.1332
  22   2.0000      -6.030550      -164.0996
  23   2.0000      -6.027836      -164.0257
  24   2.0000      -1.004657       -27.3381
  25   2.0000      -0.983978       -26.7754
  26   2.0000      -0.913809       -24.8660
  27   2.0000      -0.908684       -24.7266
  28   2.0000      -0.869357       -23.6564
  29   2.0000      -0.852627       -23.2012
  30   2.0000      -0.847487       -23.0613
  31   2.0000      -0.821978       -22.3672
  32   2.0000      -0.785253       -21.3678
  33   2.0000      -0.771321       -20.9887
  34   2.0000      -0.713108       -19.4046
  35   2.0000      -0.698141       -18.9974
  36   2.0000      -0.686407       -18.6781
  37   2.0000      -0.663907       -18.0658
  38   2.0000      -0.643814       -17.5191
  39   2.0000      -0.621372       -16.9084
  40   2.0000      -0.593788       -16.1578
  41   2.0000      -0.572083       -15.5672
  42   2.0000      -0.565572       -15.3900
  43   2.0000      -0.551512       -15.0074
  44   2.0000      -0.543602       -14.7922
  45   2.0000      -0.526031       -14.3140
  46   2.0000      -0.519335       -14.1318
  47   2.0000      -0.515108       -14.0168
  48   2.0000      -0.502921       -13.6852
  49   2.0000      -0.498820       -13.5736
  50   2.0000      -0.494922       -13.4675
  51   2.0000      -0.480991       -13.0884
  52   2.0000      -0.471910       -12.8413
  53   2.0000      -0.461772       -12.5654
  54   2.0000      -0.458930       -12.4881
  55   2.0000      -0.454144       -12.3579
  56   2.0000      -0.444647       -12.0995
  57   2.0000      -0.437755       -11.9119
  58   2.0000      -0.433679       -11.8010
  59   2.0000      -0.424906       -11.5623
  60   2.0000      -0.416563       -11.3353
  61   2.0000      -0.414228       -11.2717
  62   2.0000      -0.404004       -10.9935
  63   2.0000      -0.342629        -9.3234
  64   2.0000      -0.332114        -9.0373
  65   2.0000      -0.316387        -8.6093
  66   2.0000      -0.300155        -8.1676
  67   0.0000       0.040626         1.1055
  68   0.0000       0.061310         1.6683
  69   0.0000       0.108428         2.9505
  70   0.0000       0.121116         3.2957
  71   0.0000       0.125130         3.4050

MULLIKEN ATOMIC CHARGES
-----------------------
   0 S :    0.122086
   1 C :   -0.122715
   2 C :   -0.099168
   3 C :    0.042164
   4 C :   -0.183489
   5 H :    0.035683
   6 C :    0.122347
   7 H :    0.029344
   8 H :    0.012684
   9 C :   -0.145724
  10 H :    0.047613
  11 H :    0.035254
  12 C :   -0.010312
  13 H :    0.015897
  14 H :    0.017996
  15 H :    0.033782
  16 S :    0.108652
  17 C :   -0.075394
  18 C :   -0.008625
  19 C :   -0.035634
  20 C :   -0.184943
  21 H :   -0.006978
  22 C :    0.061667
  23 H :    0.014564
  24 H :    0.047987
  25 C :   -0.035240
  26 H :    0.028753
  27 H :    0.002381
  28 C :   -0.040306
  29 H :    0.029281
  30 H :    0.018678
  31 H :    0.034579
  32 H :    0.042685
  33 H :    0.044451
Sum of atomic charges:    0.0000000

LOEWDIN ATOMIC CHARGES
----------------------
   0 S :    0.411887
   1 C :   -0.210887
   2 C :   -0.056764
   3 C :   -0.060223
   4 C :   -0.181527
   5 H :    0.041950
   6 C :   -0.035597
   7 H :    0.034545
   8 H :    0.027267
   9 C :   -0.046146
  10 H :    0.029352
  11 H :    0.029162
  12 C :   -0.057596
  13 H :    0.021637
  14 H :    0.014673
  15 H :    0.029774
  16 S :    0.392603
  17 C :   -0.170583
  18 C :   -0.064133
  19 C :   -0.058564
  20 C :   -0.207268
  21 H :    0.019888
  22 C :   -0.037979
  23 H :    0.028634
  24 H :    0.043294
  25 C :   -0.035868
  26 H :    0.029562
  27 H :    0.007070
  28 C :   -0.058955
  29 H :    0.027907
  30 H :    0.019129
  31 H :    0.025207
  32 H :    0.021945
  33 H :    0.026602

  Mayer bond orders larger than 0.100000
B(  0-S ,  1-C ) :   1.1513 B(  0-S ,  4-C ) :   1.1468 B(  1-C ,  2-C ) :   1.5985
B(  1-C , 32-H ) :   0.9750 B(  2-C ,  3-C ) :   1.2276 B(  2-C ,  6-C ) :   1.0251
B(  3-C ,  4-C ) :   1.6276 B(  3-C ,  5-H ) :   0.9726 B(  4-C , 20-C ) :   1.0002
B(  6-C ,  7-H ) :   0.9314 B(  6-C ,  8-H ) :   0.9312 B(  6-C ,  9-C ) :   1.0591
B(  9-C , 10-H ) :   0.9529 B(  9-C , 11-H ) :   0.9583 B(  9-C , 12-C ) :   1.0825
B( 12-C , 13-H ) :   0.9738 B( 12-C , 14-H ) :   0.9764 B( 12-C , 15-H ) :   0.9745
B( 16-S , 17-C ) :   1.1389 B( 16-S , 20-C ) :   1.1368 B( 17-C , 18-C ) :   1.6328
B( 17-C , 33-H ) :   0.9678 B( 18-C , 19-C ) :   1.2174 B( 18-C , 21-H ) :   0.9996
B( 19-C , 20-C ) :   1.6154 B( 19-C , 22-C ) :   1.0445 B( 22-C , 23-H ) :   0.9215
B( 22-C , 24-H ) :   0.9352 B( 22-C , 25-C ) :   1.0788 B( 25-C , 26-H ) :   0.9517
B( 25-C , 27-H ) :   0.9545 B( 25-C , 28-C ) :   1.0825 B( 28-C , 29-H ) :   0.9719
B( 28-C , 30-H ) :   0.9741 B( 28-C , 31-H ) :   0.9729

Dispersion correction           -0.014621990
FINAL SINGLE POINT ENERGY     -1339.863018639834

DIPOLE MOMENT
-------------
                                X             Y             Z
Electronic contribution:     -1.61108      -2.10014     -26.02215
Nuclear contribution   :      1.63978       2.20155      26.56992
                        -----------------------------------------
Total Dipole Moment    :      0.02870       0.10141       0.54777
                        -----------------------------------------
Magnitude (a.u.)       :      0.55782
Magnitude (Debye)      :      1.41787

Rotational constants in cm-1:     0.018450     0.008120     0.007470
Rotational constants in MHz :   553.121381   243.419089   223.940069

                             ****ORCA TERMINATED NORMALLY****
TOTAL RUN TIME: 0 days 0 hours 0 minutes 35 seconds 4 msec
