                         Program Version 4.2.1 -  RELEASE  -
|  1> ! wB97X-D3 SP def2-SVP
|  2> %pal
|  3> nprocs 16
|  4> end
|  5>
|  6> * xyz 0 1
|  7> S 	 0.628931 	 15.3956 	 85.577
|  8> C 	 -0.390572 	 14.9853 	 84.1925
|  9> C 	 -1.33166 	 13.9789 	 84.4646
| 10> C 	 -1.10739 	 13.5523 	 85.8406
| 11> C 	 -0.0660983 	 14.1185 	 86.5418
| 12> H 	 -1.71822 	 12.864 	 86.4055
| 13> C 	 -2.30686 	 13.4332 	 83.509
| 14> H 	 -2.34984 	 12.3432 	 83.6051
| 15> H 	 -1.9115 	 13.568 	 82.4999
| 16> C 	 -3.77765 	 13.925 	 83.822
| 17> H 	 -3.89211 	 14.9475 	 83.7706
| 18> H 	 -4.44086 	 13.4498 	 83.0679
| 19> C 	 -4.28502 	 13.4919 	 85.1244
| 20> H 	 -3.86726 	 12.474 	 85.4083
| 21> H 	 -4.0296 	 14.1131 	 86.0381
| 22> H 	 -5.34271 	 13.5391 	 85.1745
| 23> S 	 -1.23732 	 14.0987 	 89.0208
| 24> C 	 -0.237266 	 14.2417 	 90.4609
| 25> C 	 1.09341 	 14.0394 	 90.177
| 26> C 	 1.35973 	 14.0111 	 88.7604
| 27> C 	 0.214584 	 14.0841 	 87.9728
| 28> H 	 1.86593 	 14.2515 	 90.8189
| 29> C 	 2.71886 	 13.9533 	 88.1545
| 30> H 	 3.22936 	 14.6641 	 88.753
| 31> H 	 2.5857 	 14.4728 	 87.2306
| 32> C 	 3.3599 	 12.5729 	 87.8692
| 33> H 	 3.2311 	 12.0082 	 88.7635
| 34> H 	 4.49392 	 12.6715 	 87.6773
| 35> C 	 2.85108 	 11.6689 	 86.7599
| 36> H 	 1.85014 	 11.3014 	 86.9823
| 37> H 	 3.40569 	 10.7195 	 86.7077
| 38> H 	 2.8652 	 12.0991 	 85.7996
| 39> H 	 -0.221576 	 15.3102 	 83.1775
| 40> H 	 -0.526672 	 14.6079 	 91.413
| 41> *
| 42>
| 43>                          ****END OF INPUT****

CARTESIAN COORDINATES (ANGSTROEM)
---------------------------------
  S      0.628931   15.395600   85.577000
  C     -0.390572   14.985300   84.192500
  C     -1.331660   13.978900   84.464600
  C     -1.107390   13.552300   85.840600
  C     -0.066098   14.118500   86.541800
  H     -1.718220   12.864000   86.405500
  C     -2.306860   13.433200   83.509000
  H     -2.349840   12.343200   83.605100
  H     -1.911500   13.568000   82.499900
  C     -3.777650   13.925000   83.822000
  H     -3.892110   14.947500   83.770600
  H     -4.440860   13.449800   83.067900
  C     -4.285020   13.491900   85.124400
  H     -3.867260   12.474000   85.408300
  H     -4.029600   14.113100   86.038100
  H     -5.342710   13.539100   85.174500
  S     -1.237320   14.098700   89.020800
  C     -0.237266   14.241700   90.460900
  C      1.093410   14.039400   90.177000
  C      1.359730   14.011100   88.760400
  C      0.214584   14.084100   87.972800
  H      1.865930   14.251500   90.818900
  C      2.718860   13.953300   88.154500
  H      3.229360   14.664100   88.753000
  H      2.585700   14.472800   87.230600
  C      3.359900   12.572900   87.869200
  H      3.231100   12.008200   88.763500
  H      4.493920   12.671500   87.677300
  C      2.851080   11.668900   86.759900
  H      1.850140   11.301400   86.982300
  H      3.405690   10.719500   86.707700
  H      2.865200   12.099100   85.799600
  H     -0.221576   15.310200   83.177500
  H     -0.526672   14.607900   91.413000

 Total Charge           Charge          ....    0
 Multiplicity           Mult            ....    1
 Number of Electrons    NEL             ....  134
 Basis Dimension        Dim             ....  322

ORBITAL ENERGIES
----------------

  NO   OCC          E(Eh)            E(eV)
   0   2.0000     -88.965447     -2420.8729
   1   2.0000     -88.965284     -2420.8685
   2   2.0000     -10.329340      -281.0756
   3   2.0000     -10.328880      -281.0631
   4   2.0000     -10.319851      -280.8174
   5   2.0000     -10.315128      -280.6889
   6   2.0000     -10.305475      -280.4262
   7   2.0000     -10.303493      -280.3723
   8   2.0000     -10.297071      -280.1975
   9   2.0000     -10.294235      -280.1204
  10   2.0000     -10.289982      -280.0046
  11   2.0000     -10.289273      -279.9854
  12   2.0000     -10.284422      -279.8533
  13   2.0000     -10.283491      -279.8280
  14   2.0000     -10.277967      -279.6777
  15   2.0000     -10.268732      -279.4264
  16   2.0000      -8.079463      -219.8534
  17   2.0000      -8.079414      -219.8520
  18   2.0000      -6.038144      -164.3063
  19   2.0000      -6.038093      -164.3049
  20   2.0000      -6.034033      -164.1944
  21   2.0000      -6.034011      -164.1938
  22   2.0000      -6.030110      -164.0876
  23   2.0000      -6.030035      -164.0856
  24   2.0000      -1.003794       -27.3146
  25   2.0000      -0.980308       -26.6755
  26   2.0000      -0.919445       -25.0194
  27   2.0000      -0.907415       -24.6920
  28   2.0000      -0.872756       -23.7489
  29   2.0000      -0.852830       -23.2067
  30   2.0000      -0.845714       -23.0130
  31   2.0000      -0.816561       -22.2198
  32   2.0000      -0.787967       -21.4417
  33   2.0000      -0.772075       -21.0092
  34   2.0000      -0.705300       -19.1922
  35   2.0000      -0.703098       -19.1323
  36   2.0000      -0.694408       -18.8958
  37   2.0000      -0.671151       -18.2629
  38   2.0000      -0.639629       -17.4052
  39   2.0000      -0.614675       -16.7262
  40   2.0000      -0.593249       -16.1431
  41   2.0000      -0.579518       -15.7695
  42   2.0000      -0.557544       -15.1715
  43   2.0000      -0.549839       -14.9619
  44   2.0000      -0.545771       -14.8512
  45   2.0000      -0.542427       -14.7602
  46   2.0000      -0.519962       -14.1489
  47   2.0000      -0.512383       -13.9426
  48   2.0000      -0.500483       -13.6188
  49   2.0000      -0.496469       -13.5096
  50   2.0000      -0.490949       -13.3594
  51   2.0000      -0.476320       -12.9613
  52   2.0000      -0.473209       -12.8767
  53   2.0000      -0.466092       -12.6830
  54   2.0000      -0.460003       -12.5173
  55   2.0000      -0.447342       -12.1728
  56   2.0000      -0.444558       -12.0971
  57   2.0000      -0.436652       -11.8819
  58   2.0000      -0.432266       -11.7626
  59   2.0000      -0.426570       -11.6076
  60   2.0000      -0.416358       -11.3297
  61   2.0000      -0.411052       -11.1853
  62   2.0000      -0.402956       -10.9650
  63   2.0000      -0.347124        -9.4457
  64   2.0000      -0.331348        -9.0164
  65   2.0000      -0.327136        -8.9018
  66   2.0000      -0.290260        -7.8984
  67   0.0000       0.027155         0.7389
  68   0.0000       0.064151         1.7456
  69   0.0000       0.099379         2.7042
  70   0.0000       0.116417         3.1679
  71   0.0000       0.126379         3.4389

MULLIKEN ATOMIC CHARGES
-----------------------
   0 S :    0.096177
   1 C :   -0.113339
   2 C :   -0.084290
   3 C :   -0.010755
   4 C :   -0.111505
   5 H :    0.000735
   6 C :    0.054992
   7 H :    0.031372
   8 H :    0.024212
   9 C :   -0.012304
  10 H :    0.017813
  11 H :    0.034918
  12 C :   -0.088339
  13 H :    0.031509
  14 H :    0.040782
  15 H :    0.029014
  16 S :    0.093918
  17 C :   -0.074474
  18 C :    0.026584
  19 C :   -0.128066
  20 C :   -0.135980
  21 H :   -0.006715
  22 C :    0.134913
  23 H :    0.011761
  24 H :   -0.006261
  25 C :   -0.061779
  26 H :    0.017035
  27 H :    0.041950
  28 C :   -0.032569
  29 H :    0.026838
  30 H :    0.029453
  31 H :    0.029011
  32 H :    0.043090
  33 H :    0.050299
Sum of atomic charges:    0.0000000

LOEWDIN ATOMIC CHARGES
----------------------
   0 S :    0.403746
   1 C :   -0.192271
   2 C :   -0.056295
   3 C :   -0.070459
   4 C :   -0.196620
   5 H :    0.020747
   6 C :   -0.033069
   7 H :    0.034414
   8 H :    0.033297
   9 C :   -0.029974
  10 H :    0.016685
  11 H :    0.031228
  12 C :   -0.073513
  13 H :    0.027004
  14 H :    0.031849
  15 H :    0.023268
  16 S :    0.386295
  17 C :   -0.165080
  18 C :   -0.063597
  19 C :   -0.050964
  20 C :   -0.186235
  21 H :    0.017780
  22 C :   -0.035079
  23 H :    0.030085
  24 H :    0.017937
  25 C :   -0.038617
  26 H :    0.019635
  27 H :    0.034753
  28 C :   -0.062931
  29 H :    0.025720
  30 H :    0.031989
  31 H :    0.018039
  32 H :    0.024110
  33 H :    0.026124

  Mayer bond orders larger than 0.100000
B(  0-S ,  1-C ) :   1.1398 B(  0-S ,  4-C ) :   1.1369 B(  1-C ,  2-C ) :   1.6154
B(  1-C , 32-H ) :   0.9625 B(  2-C ,  3-C ) :   1.2122 B(  2-C ,  6-C ) :   1.0397
B(  3-C ,  4-C ) :   1.6036 B(  3-C ,  5-H ) :   0.9932 B(  4-C , 20-C ) :   1.0391
B(  6-C ,  7-H ) :   0.9402 B(  6-C ,  8-H ) :   0.9398 B(  6-C ,  9-C ) :   1.0589
B(  9-C , 10-H ) :   0.9514 B(  9-C , 11-H ) :   0.9545 B(  9-C , 12-C ) :   1.0903
B( 12-C , 13-H ) :   0.9703 B( 12-C , 14-H ) :   0.9647 B( 12-C , 15-H ) :   0.9674
B( 16-S , 17-C ) :   1.1568 B( 16-S , 20-C ) :   1.1083 B( 17-C , 18-C ) :   1.6142
B( 17-C , 33-H ) :   0.9686 B( 18-C , 19-C ) :   1.2431 B( 18-C , 21-H ) :   0.9860
B( 19-C , 20-C ) :   1.6001 B( 19-C , 22-C ) :   1.0374 B( 22-C , 23-H ) :   0.9235
B( 22-C , 24-H ) :   0.9232 B( 22-C , 25-C ) :   1.0504 B( 25-C , 26-H ) :   0.9565
B( 25-C , 27-H ) :   0.9556 B( 25-C , 28-C ) :   1.0935 B( 28-C , 29-H ) :   0.9709
B( 28-C , 30-H ) :   0.9688 B( 28-C , 31-H ) :   0.9751

Dispersion correction           -0.015263649
FINAL SINGLE POINT ENERGY     -1339.858072628551

DIPOLE MOMENT
-------------
                                X             Y             Z
Electronic contribution:      1.23241      10.93598       8.74053
Nuclear contribution   :     -1.28874     -11.04288      -8.85403
                        -----------------------------------------
Total Dipole Moment    :     -0.05633      -0.10690      -0.11350
                        -----------------------------------------
Magnitude (a.u.)       :      0.16578
Magnitude (Debye)      :      0.42138

Rotational constants in cm-1:     0.020440     0.009208     0.007497
Rotational constants in MHz :   612.783832   276.049583   224.768140

                             ****ORCA TERMINATED NORMALLY****
TOTAL RUN TIME: 0 days 0 hours 0 minutes 37 seconds 452 msec
