                         Program Version 4.2.1 -  RELEASE  -
|  1> ! wB97X-D3 SP def2-SVP
|  2> %pal
|  3> nprocs 16
|  4> end
|  5>
|  6> * xyz 0 1
|  7> S 	 -108.403 	 41.8993 	 128.893
|  8> C 	 -107.567 	 41.0874 	 130.239
|  9> C 	 -106.979 	 39.9077 	 129.864
| 10> C 	 -107.143 	 39.691 	 128.452
| 11> C 	 -107.991 	 40.6123 	 127.848
| 12> H 	 -106.682 	 38.8632 	 127.895
| 13> C 	 -106.151 	 39.1004 	 130.761
| 14> H 	 -106.929 	 38.4549 	 131.201
| 15> H 	 -105.705 	 39.7578 	 131.534
| 16> C 	 -105.127 	 38.1082 	 130.105
| 17> H 	 -104.735 	 37.4031 	 130.776
| 18> H 	 -105.458 	 37.5417 	 129.263
| 19> C 	 -103.95 	 38.8135 	 129.5
| 20> H 	 -104.244 	 39.6185 	 128.84
| 21> H 	 -103.24 	 39.1746 	 130.196
| 22> H 	 -103.331 	 38.0908 	 128.952
| 23> S 	 -107.448 	 42.1891 	 125.61
| 24> C 	 -107.724 	 41.5167 	 124.136
| 25> C 	 -108.332 	 40.2647 	 124.149
| 26> C 	 -108.433 	 39.7979 	 125.478
| 27> C 	 -108.063 	 40.7319 	 126.464
| 28> H 	 -108.593 	 39.8675 	 123.17
| 29> C 	 -108.957 	 38.4333 	 125.781
| 30> H 	 -108.158 	 37.9314 	 126.37
| 31> H 	 -108.883 	 37.9948 	 124.775
| 32> C 	 -110.344 	 38.2878 	 126.437
| 33> H 	 -110.978 	 39.0502 	 125.995
| 34> H 	 -110.351 	 38.289 	 127.484
| 35> C 	 -110.896 	 36.9176 	 126.007
| 36> H 	 -111.2 	 36.9455 	 125.016
| 37> H 	 -111.854 	 36.7349 	 126.512
| 38> H 	 -110.154 	 36.2099 	 126.229
| 39> H 	 -107.558 	 41.5205 	 131.195
| 40> H 	 -107.515 	 41.9917 	 123.139
| 41> *
| 42>
| 43>                          ****END OF INPUT****

CARTESIAN COORDINATES (ANGSTROEM)
---------------------------------
  S    -108.403000   41.899300  128.893000
  C    -107.567000   41.087400  130.239000
  C    -106.979000   39.907700  129.864000
  C    -107.143000   39.691000  128.452000
  C    -107.991000   40.612300  127.848000
  H    -106.682000   38.863200  127.895000
  C    -106.151000   39.100400  130.761000
  H    -106.929000   38.454900  131.201000
  H    -105.705000   39.757800  131.534000
  C    -105.127000   38.108200  130.105000
  H    -104.735000   37.403100  130.776000
  H    -105.458000   37.541700  129.263000
  C    -103.950000   38.813500  129.500000
  H    -104.244000   39.618500  128.840000
  H    -103.240000   39.174600  130.196000
  H    -103.331000   38.090800  128.952000
  S    -107.448000   42.189100  125.610000
  C    -107.724000   41.516700  124.136000
  C    -108.332000   40.264700  124.149000
  C    -108.433000   39.797900  125.478000
  C    -108.063000   40.731900  126.464000
  H    -108.593000   39.867500  123.170000
  C    -108.957000   38.433300  125.781000
  H    -108.158000   37.931400  126.370000
  H    -108.883000   37.994800  124.775000
  C    -110.344000   38.287800  126.437000
  H    -110.978000   39.050200  125.995000
  H    -110.351000   38.289000  127.484000
  C    -110.896000   36.917600  126.007000
  H    -111.200000   36.945500  125.016000
  H    -111.854000   36.734900  126.512000
  H    -110.154000   36.209900  126.229000
  H    -107.558000   41.520500  131.195000
  H    -107.515000   41.991700  123.139000

 Total Charge           Charge          ....    0
 Multiplicity           Mult            ....    1
 Number of Electrons    NEL             ....  134
 Basis Dimension        Dim             ....  322

ORBITAL ENERGIES
----------------

  NO   OCC          E(Eh)            E(eV)
   0   2.0000     -88.965140     -2420.8645
   1   2.0000     -88.963562     -2420.8216
   2   2.0000     -10.319810      -280.8163
   3   2.0000     -10.316818      -280.7349
   4   2.0000     -10.309903      -280.5467
   5   2.0000     -10.308070      -280.4968
   6   2.0000     -10.299767      -280.2709
   7   2.0000     -10.297346      -280.2050
   8   2.0000     -10.297173      -280.2003
   9   2.0000     -10.294631      -280.1312
  10   2.0000     -10.287695      -279.9424
  11   2.0000     -10.286231      -279.9026
  12   2.0000     -10.283432      -279.8264
  13   2.0000     -10.277139      -279.6552
  14   2.0000     -10.267518      -279.3934
  15   2.0000     -10.264030      -279.2985
  16   2.0000      -8.080313      -219.8765
  17   2.0000      -8.079607      -219.8573
  18   2.0000      -6.038728      -164.3221
  19   2.0000      -6.037830      -164.2977
  20   2.0000      -6.034876      -164.2173
  21   2.0000      -6.033808      -164.1883
  22   2.0000      -6.031041      -164.1130
  23   2.0000      -6.030705      -164.1038
  24   2.0000      -1.011904       -27.5353
  25   2.0000      -0.987388       -26.8682
  26   2.0000      -0.920636       -25.0518
  27   2.0000      -0.911358       -24.7993
  28   2.0000      -0.877618       -23.8812
  29   2.0000      -0.858460       -23.3599
  30   2.0000      -0.847935       -23.0735
  31   2.0000      -0.811430       -22.0801
  32   2.0000      -0.785926       -21.3861
  33   2.0000      -0.767963       -20.8973
  34   2.0000      -0.715560       -19.4714
  35   2.0000      -0.703774       -19.1507
  36   2.0000      -0.691904       -18.8277
  37   2.0000      -0.655053       -17.8249
  38   2.0000      -0.637036       -17.3346
  39   2.0000      -0.624506       -16.9937
  40   2.0000      -0.593034       -16.1373
  41   2.0000      -0.569491       -15.4966
  42   2.0000      -0.567133       -15.4325
  43   2.0000      -0.558586       -15.1999
  44   2.0000      -0.543463       -14.7884
  45   2.0000      -0.531637       -14.4666
  46   2.0000      -0.525765       -14.3068
  47   2.0000      -0.518127       -14.0989
  48   2.0000      -0.502951       -13.6860
  49   2.0000      -0.495898       -13.4941
  50   2.0000      -0.486199       -13.2302
  51   2.0000      -0.481600       -13.1050
  52   2.0000      -0.468695       -12.7538
  53   2.0000      -0.462219       -12.5776
  54   2.0000      -0.461375       -12.5546
  55   2.0000      -0.450250       -12.2519
  56   2.0000      -0.442341       -12.0367
  57   2.0000      -0.435778       -11.8581
  58   2.0000      -0.434521       -11.8239
  59   2.0000      -0.426821       -11.6144
  60   2.0000      -0.423238       -11.5169
  61   2.0000      -0.421004       -11.4561
  62   2.0000      -0.407497       -11.0886
  63   2.0000      -0.343489        -9.3468
  64   2.0000      -0.330943        -9.0054
  65   2.0000      -0.327465        -8.9108
  66   2.0000      -0.281127        -7.6499
  67   0.0000       0.029485         0.8023
  68   0.0000       0.069280         1.8852
  69   0.0000       0.118989         3.2378
  70   0.0000       0.126176         3.4334
  71   0.0000       0.128386         3.4936

MULLIKEN ATOMIC CHARGES
-----------------------
   0 S :    0.104525
   1 C :   -0.136883
   2 C :   -0.072978
   3 C :   -0.007495
   4 C :   -0.144566
   5 H :    0.024229
   6 C :    0.080011
   7 H :    0.048668
   8 H :    0.041319
   9 C :   -0.043308
  10 H :    0.016767
  11 H :    0.019157
  12 C :   -0.056782
  13 H :    0.040960
  14 H :    0.014100
  15 H :    0.022541
  16 S :    0.132059
  17 C :   -0.111681
  18 C :   -0.057417
  19 C :   -0.064844
  20 C :   -0.136773
  21 H :    0.018967
  22 C :    0.057949
  23 H :    0.022340
  24 H :    0.012505
  25 C :   -0.016933
  26 H :    0.029777
  27 H :    0.030724
  28 C :   -0.028992
  29 H :    0.015279
  30 H :    0.023585
  31 H :    0.028382
  32 H :    0.027249
  33 H :    0.067559
Sum of atomic charges:   -0.0000000

LOEWDIN ATOMIC CHARGES
----------------------
   0 S :    0.412019
   1 C :   -0.183876
   2 C :   -0.060994
   3 C :   -0.058887
   4 C :   -0.212554
   5 H :    0.031722
   6 C :   -0.032087
   7 H :    0.045778
   8 H :    0.038774
   9 C :   -0.037404
  10 H :    0.021625
  11 H :    0.023364
  12 C :   -0.064370
  13 H :    0.024934
  14 H :    0.015754
  15 H :    0.026984
  16 S :    0.436982
  17 C :   -0.224726
  18 C :   -0.090628
  19 C :   -0.054421
  20 C :   -0.200750
  21 H :    0.034839
  22 C :   -0.038505
  23 H :    0.031853
  24 H :    0.032061
  25 C :   -0.024584
  26 H :    0.026225
  27 H :    0.020043
  28 C :   -0.052468
  29 H :    0.014527
  30 H :    0.026415
  31 H :    0.018032
  32 H :    0.014258
  33 H :    0.040064

  Mayer bond orders larger than 0.100000
B(  0-S ,  1-C ) :   1.1273 B(  0-S ,  4-C ) :   1.1564 B(  1-C ,  2-C ) :   1.5999
B(  1-C , 32-H ) :   0.9804 B(  2-C ,  3-C ) :   1.2541 B(  2-C ,  6-C ) :   1.0081
B(  3-C ,  4-C ) :   1.5348 B(  3-C ,  5-H ) :   0.9803 B(  4-C , 20-C ) :   1.0990
B(  6-C ,  7-H ) :   0.9178 B(  6-C ,  8-H ) :   0.9491 B(  6-C ,  9-C ) :   1.0808
B(  9-C , 10-H ) :   0.9512 B(  9-C , 11-H ) :   0.9544 B(  9-C , 12-C ) :   1.0816
B( 12-C , 13-H ) :   0.9757 B( 12-C , 14-H ) :   0.9732 B( 12-C , 15-H ) :   0.9729
B( 16-S , 17-C ) :   1.2137 B( 16-S , 20-C ) :   1.1206 B( 17-C , 18-C ) :   1.5710
B( 17-C , 33-H ) :   0.9528 B( 18-C , 19-C ) :   1.2660 B( 18-C , 21-H ) :   0.9952
B( 19-C , 20-C ) :   1.5506 B( 19-C , 22-C ) :   1.0526 B( 22-C , 23-H ) :   0.9120
B( 22-C , 24-H ) :   0.9372 B( 22-C , 25-C ) :   1.0566 B( 25-C , 26-H ) :   0.9600
B( 25-C , 27-H ) :   0.9530 B( 25-C , 28-C ) :   1.0901 B( 28-C , 29-H ) :   0.9772
B( 28-C , 30-H ) :   0.9726 B( 28-C , 31-H ) :   0.9757

Dispersion correction           -0.014436407
FINAL SINGLE POINT ENERGY     -1339.856658551137

DIPOLE MOMENT
-------------
                                X             Y             Z
Electronic contribution:     -3.27840      24.30598      -3.92013
Nuclear contribution   :      3.50850     -24.87291       3.98990
                        -----------------------------------------
Total Dipole Moment    :      0.23011      -0.56693       0.06977
                        -----------------------------------------
Magnitude (a.u.)       :      0.61581
Magnitude (Debye)      :      1.56527

Rotational constants in cm-1:     0.016340     0.009469     0.008031
Rotational constants in MHz :   489.856541   283.862519   240.774340

                             ****ORCA TERMINATED NORMALLY****
TOTAL RUN TIME: 0 days 0 hours 0 minutes 35 seconds 219 msec
