                         Program Version 4.2.1 -  RELEASE  -
|  1> ! wB97X-D3 SP def2-SVP
|  2> %pal
|  3> nprocs 16
|  4> end
|  5>
|  6> * xyz 0 1
|  7> S 	 -0.893181 	 27.1551 	 39.2987
|  8> C 	 -1.27049 	 26.7604 	 37.6614
|  9> C 	 -0.223998 	 26.9947 	 36.8046
| 10> C 	 0.982774 	 27.3422 	 37.5662
| 11> C 	 0.790115 	 27.3366 	 38.9294
| 12> H 	 1.92953 	 27.7245 	 37.1994
| 13> C 	 -0.209312 	 26.9189 	 35.3075
| 14> H 	 0.471377 	 27.6941 	 35.0424
| 15> H 	 -1.26536 	 27.0764 	 34.999
| 16> C 	 0.250465 	 25.5148 	 34.8832
| 17> H 	 1.21524 	 25.3896 	 35.2477
| 18> H 	 -0.422297 	 24.7232 	 35.345
| 19> C 	 -0.00758265 	 25.2927 	 33.3624
| 20> H 	 0.30541 	 24.3085 	 33.0197
| 21> H 	 -1.07119 	 25.516 	 33.0908
| 22> H 	 0.634336 	 26.0231 	 32.8303
| 23> S 	 1.37333 	 29.1986 	 40.8975
| 24> C 	 2.90553 	 29.2266 	 41.6345
| 25> C 	 3.77007 	 28.3223 	 41.1056
| 26> C 	 3.17205 	 27.4804 	 40.1265
| 27> C 	 1.81176 	 27.784 	 39.943
| 28> H 	 4.84282 	 28.2857 	 41.4254
| 29> C 	 3.98572 	 26.3722 	 39.3997
| 30> H 	 4.99954 	 26.6931 	 39.3143
| 31> H 	 3.61384 	 26.336 	 38.4153
| 32> C 	 3.92448 	 24.9693 	 40.0825
| 33> H 	 4.29514 	 25.0672 	 41.1275
| 34> H 	 4.53042 	 24.2611 	 39.4879
| 35> C 	 2.57028 	 24.267 	 40.2167
| 36> H 	 1.9248 	 24.765 	 40.8011
| 37> H 	 2.64638 	 23.2975 	 40.6592
| 38> H 	 2.14413 	 24.2306 	 39.1805
| 39> H 	 -2.24428 	 26.3724 	 37.3164
| 40> H 	 3.18899 	 29.9173 	 42.3838
| 41> *
| 42>
| 43>                          ****END OF INPUT****

CARTESIAN COORDINATES (ANGSTROEM)
---------------------------------
  S     -0.893181   27.155100   39.298700
  C     -1.270490   26.760400   37.661400
  C     -0.223998   26.994700   36.804600
  C      0.982774   27.342200   37.566200
  C      0.790115   27.336600   38.929400
  H      1.929530   27.724500   37.199400
  C     -0.209312   26.918900   35.307500
  H      0.471377   27.694100   35.042400
  H     -1.265360   27.076400   34.999000
  C      0.250465   25.514800   34.883200
  H      1.215240   25.389600   35.247700
  H     -0.422297   24.723200   35.345000
  C     -0.007583   25.292700   33.362400
  H      0.305410   24.308500   33.019700
  H     -1.071190   25.516000   33.090800
  H      0.634336   26.023100   32.830300
  S      1.373330   29.198600   40.897500
  C      2.905530   29.226600   41.634500
  C      3.770070   28.322300   41.105600
  C      3.172050   27.480400   40.126500
  C      1.811760   27.784000   39.943000
  H      4.842820   28.285700   41.425400
  C      3.985720   26.372200   39.399700
  H      4.999540   26.693100   39.314300
  H      3.613840   26.336000   38.415300
  C      3.924480   24.969300   40.082500
  H      4.295140   25.067200   41.127500
  H      4.530420   24.261100   39.487900
  C      2.570280   24.267000   40.216700
  H      1.924800   24.765000   40.801100
  H      2.646380   23.297500   40.659200
  H      2.144130   24.230600   39.180500
  H     -2.244280   26.372400   37.316400
  H      3.188990   29.917300   42.383800

 Total Charge           Charge          ....    0
 Multiplicity           Mult            ....    1
 Number of Electrons    NEL             ....  134
 Basis Dimension        Dim             ....  322

ORBITAL ENERGIES
----------------

  NO   OCC          E(Eh)            E(eV)
   0   2.0000     -88.965383     -2420.8711
   1   2.0000     -88.964766     -2420.8544
   2   2.0000     -10.331144      -281.1247
   3   2.0000     -10.330308      -281.1020
   4   2.0000     -10.312739      -280.6239
   5   2.0000     -10.308390      -280.5055
   6   2.0000     -10.306374      -280.4507
   7   2.0000     -10.301377      -280.3147
   8   2.0000     -10.294721      -280.1336
   9   2.0000     -10.292628      -280.0766
  10   2.0000     -10.292533      -280.0741
  11   2.0000     -10.290095      -280.0077
  12   2.0000     -10.288877      -279.9746
  13   2.0000     -10.287399      -279.9344
  14   2.0000     -10.285092      -279.8716
  15   2.0000     -10.260224      -279.1949
  16   2.0000      -8.080808      -219.8900
  17   2.0000      -8.080382      -219.8784
  18   2.0000      -6.039337      -164.3387
  19   2.0000      -6.038723      -164.3220
  20   2.0000      -6.035314      -164.2293
  21   2.0000      -6.034806      -164.2154
  22   2.0000      -6.031412      -164.1231
  23   2.0000      -6.031229      -164.1181
  24   2.0000      -1.008000       -27.4291
  25   2.0000      -0.989005       -26.9122
  26   2.0000      -0.915900       -24.9229
  27   2.0000      -0.902396       -24.5554
  28   2.0000      -0.865510       -23.5517
  29   2.0000      -0.849698       -23.1215
  30   2.0000      -0.844571       -22.9819
  31   2.0000      -0.813665       -22.1410
  32   2.0000      -0.785766       -21.3818
  33   2.0000      -0.773272       -21.0418
  34   2.0000      -0.702823       -19.1248
  35   2.0000      -0.697383       -18.9768
  36   2.0000      -0.688947       -18.7472
  37   2.0000      -0.657351       -17.8874
  38   2.0000      -0.640541       -17.4300
  39   2.0000      -0.617816       -16.8116
  40   2.0000      -0.595658       -16.2087
  41   2.0000      -0.572146       -15.5689
  42   2.0000      -0.561857       -15.2889
  43   2.0000      -0.550252       -14.9731
  44   2.0000      -0.543546       -14.7906
  45   2.0000      -0.523421       -14.2430
  46   2.0000      -0.513998       -13.9866
  47   2.0000      -0.512877       -13.9561
  48   2.0000      -0.502112       -13.6632
  49   2.0000      -0.497105       -13.5269
  50   2.0000      -0.491808       -13.3828
  51   2.0000      -0.477067       -12.9816
  52   2.0000      -0.471055       -12.8181
  53   2.0000      -0.467812       -12.7298
  54   2.0000      -0.459355       -12.4997
  55   2.0000      -0.449215       -12.2238
  56   2.0000      -0.443831       -12.0773
  57   2.0000      -0.442488       -12.0407
  58   2.0000      -0.434992       -11.8367
  59   2.0000      -0.431120       -11.7314
  60   2.0000      -0.415618       -11.3095
  61   2.0000      -0.411283       -11.1916
  62   2.0000      -0.411223       -11.1899
  63   2.0000      -0.348256        -9.4765
  64   2.0000      -0.332646        -9.0518
  65   2.0000      -0.324978        -8.8431
  66   2.0000      -0.294019        -8.0007
  67   0.0000       0.034428         0.9368
  68   0.0000       0.072297         1.9673
  69   0.0000       0.108480         2.9519
  70   0.0000       0.123519         3.3611
  71   0.0000       0.133133         3.6227

MULLIKEN ATOMIC CHARGES
-----------------------
   0 S :    0.110812
   1 C :   -0.122631
   2 C :   -0.118015
   3 C :    0.014700
   4 C :   -0.146249
   5 H :    0.022650
   6 C :    0.096161
   7 H :    0.028942
   8 H :    0.024454
   9 C :   -0.078817
  10 H :    0.015831
  11 H :    0.037553
  12 C :   -0.039812
  13 H :    0.038364
  14 H :    0.040286
  15 H :    0.024436
  16 S :    0.110077
  17 C :   -0.069687
  18 C :   -0.056037
  19 C :   -0.080934
  20 C :   -0.159309
  21 H :    0.034716
  22 C :    0.143387
  23 H :    0.014920
  24 H :   -0.004159
  25 C :   -0.095979
  26 H :    0.029101
  27 H :    0.034582
  28 C :   -0.009278
  29 H :    0.008080
  30 H :    0.028007
  31 H :    0.030948
  32 H :    0.051357
  33 H :    0.041546
Sum of atomic charges:    0.0000000

LOEWDIN ATOMIC CHARGES
----------------------
   0 S :    0.415780
   1 C :   -0.210390
   2 C :   -0.058898
   3 C :   -0.069888
   4 C :   -0.200625
   5 H :    0.030149
   6 C :   -0.026504
   7 H :    0.030487
   8 H :    0.033798
   9 C :   -0.034022
  10 H :    0.013302
  11 H :    0.032137
  12 C :   -0.068631
  13 H :    0.023641
  14 H :    0.030209
  15 H :    0.023386
  16 S :    0.421558
  17 C :   -0.194355
  18 C :   -0.081762
  19 C :   -0.056108
  20 C :   -0.196972
  21 H :    0.040673
  22 C :   -0.021212
  23 H :    0.028784
  24 H :    0.019463
  25 C :   -0.037148
  26 H :    0.025025
  27 H :    0.025579
  28 C :   -0.056352
  29 H :    0.005802
  30 H :    0.025790
  31 H :    0.031121
  32 H :    0.033220
  33 H :    0.022964

  Mayer bond orders larger than 0.100000
B(  0-S ,  1-C ) :   1.1325 B(  0-S ,  4-C ) :   1.1590 B(  1-C ,  2-C ) :   1.6348
B(  1-C , 32-H ) :   0.9635 B(  2-C ,  3-C ) :   1.2157 B(  2-C ,  6-C ) :   1.0220
B(  3-C ,  4-C ) :   1.5968 B(  3-C ,  5-H ) :   0.9834 B(  4-C , 20-C ) :   1.0025
B(  6-C ,  7-H ) :   0.9331 B(  6-C ,  8-H ) :   0.9384 B(  6-C ,  9-C ) :   1.0640
B(  9-C , 10-H ) :   0.9593 B(  9-C , 11-H ) :   0.9602 B(  9-C , 12-C ) :   1.0694
B( 12-C , 13-H ) :   0.9763 B( 12-C , 14-H ) :   0.9753 B( 12-C , 15-H ) :   0.9740
B( 16-S , 17-C ) :   1.1675 B( 16-S , 20-C ) :   1.1574 B( 17-C , 18-C ) :   1.6035
B( 17-C , 33-H ) :   0.9700 B( 18-C , 19-C ) :   1.2612 B( 18-C , 21-H ) :   0.9838
B( 19-C , 20-C ) :   1.5964 B( 19-C , 22-C ) :   1.0284 B( 22-C , 23-H ) :   0.9330
B( 22-C , 24-H ) :   0.9277 B( 22-C , 25-C ) :   1.0727 B( 25-C , 26-H ) :   0.9559
B( 25-C , 27-H ) :   0.9579 B( 25-C , 28-C ) :   1.0851 B( 28-C , 29-H ) :   0.9728
B( 28-C , 30-H ) :   0.9705 B( 28-C , 31-H ) :   0.9732

Dispersion correction           -0.014751205
FINAL SINGLE POINT ENERGY     -1339.877345530337

DIPOLE MOMENT
-------------
                                X             Y             Z
Electronic contribution:     -8.08740      18.21271      18.94725
Nuclear contribution   :      8.45508     -18.32569     -19.40978
                        -----------------------------------------
Total Dipole Moment    :      0.36768      -0.11298      -0.46253
                        -----------------------------------------
Magnitude (a.u.)       :      0.60157
Magnitude (Debye)      :      1.52906

Rotational constants in cm-1:     0.020260     0.008337     0.006991
Rotational constants in MHz :   607.377259   249.942786   209.598483

                             ****ORCA TERMINATED NORMALLY****
TOTAL RUN TIME: 0 days 0 hours 0 minutes 35 seconds 821 msec
