                         Program Version 4.2.1 -  RELEASE  -
|  1> ! wB97X-D3 SP def2-SVP
|  2> %pal
|  3> nprocs 16
|  4> end
|  5>
|  6> * xyz 0 1
|  7> S 	 48.1005 	 3.48214 	 88.0949
|  8> C 	 49.4016 	 3.56625 	 86.9174
|  9> C 	 50.6409 	 3.10079 	 87.424
| 10> C 	 50.451 	 2.67456 	 88.7985
| 11> C 	 49.1792 	 2.93251 	 89.329
| 12> H 	 51.224 	 2.29327 	 89.4951
| 13> C 	 51.9527 	 3.15282 	 86.6737
| 14> H 	 51.8664 	 3.53985 	 85.6188
| 15> H 	 52.26 	 2.10257 	 86.4752
| 16> C 	 53.0553 	 3.8417 	 87.4637
| 17> H 	 52.7132 	 4.83044 	 87.7827
| 18> H 	 53.1805 	 3.22548 	 88.3497
| 19> C 	 54.3739 	 4.01652 	 86.7595
| 20> H 	 54.2293 	 4.20038 	 85.6947
| 21> H 	 55.0899 	 4.70689 	 87.1692
| 22> H 	 54.8074 	 3.06679 	 86.8485
| 23> S 	 48.6953 	 4.35891 	 91.5258
| 24> C 	 49.0416 	 3.65411 	 93.1067
| 25> C 	 49.1312 	 2.2973 	 92.9818
| 26> C 	 49.1245 	 1.7982 	 91.6213
| 27> C 	 48.8856 	 2.83151 	 90.7145
| 28> H 	 49.2251 	 1.66518 	 93.9077
| 29> C 	 49.4766 	 0.331234 	 91.2237
| 30> H 	 50.1648 	 0.0168958 	 92.078
| 31> H 	 50.0157 	 0.320894 	 90.2731
| 32> C 	 48.3186 	 -0.70484 	 91.2237
| 33> H 	 47.4532 	 -0.282881 	 91.768
| 34> H 	 48.5706 	 -1.64665 	 91.6753
| 35> C 	 47.8016 	 -1.20396 	 89.8861
| 36> H 	 48.4004 	 -1.9635 	 89.326
| 37> H 	 47.6392 	 -0.401827 	 89.2041
| 38> H 	 46.809 	 -1.61687 	 90.0707
| 39> H 	 49.2239 	 3.91355 	 85.9341
| 40> H 	 48.8269 	 4.14226 	 94.0435
| 41> *
| 42>
| 43>                          ****END OF INPUT****

CARTESIAN COORDINATES (ANGSTROEM)
---------------------------------
  S     48.100500    3.482140   88.094900
  C     49.401600    3.566250   86.917400
  C     50.640900    3.100790   87.424000
  C     50.451000    2.674560   88.798500
  C     49.179200    2.932510   89.329000
  H     51.224000    2.293270   89.495100
  C     51.952700    3.152820   86.673700
  H     51.866400    3.539850   85.618800
  H     52.260000    2.102570   86.475200
  C     53.055300    3.841700   87.463700
  H     52.713200    4.830440   87.782700
  H     53.180500    3.225480   88.349700
  C     54.373900    4.016520   86.759500
  H     54.229300    4.200380   85.694700
  H     55.089900    4.706890   87.169200
  H     54.807400    3.066790   86.848500
  S     48.695300    4.358910   91.525800
  C     49.041600    3.654110   93.106700
  C     49.131200    2.297300   92.981800
  C     49.124500    1.798200   91.621300
  C     48.885600    2.831510   90.714500
  H     49.225100    1.665180   93.907700
  C     49.476600    0.331234   91.223700
  H     50.164800    0.016896   92.078000
  H     50.015700    0.320894   90.273100
  C     48.318600   -0.704840   91.223700
  H     47.453200   -0.282881   91.768000
  H     48.570600   -1.646650   91.675300
  C     47.801600   -1.203960   89.886100
  H     48.400400   -1.963500   89.326000
  H     47.639200   -0.401827   89.204100
  H     46.809000   -1.616870   90.070700
  H     49.223900    3.913550   85.934100
  H     48.826900    4.142260   94.043500

 Total Charge           Charge          ....    0
 Multiplicity           Mult            ....    1
 Number of Electrons    NEL             ....  134
 Basis Dimension        Dim             ....  322

ORBITAL ENERGIES
----------------

  NO   OCC          E(Eh)            E(eV)
   0   2.0000     -88.968952     -2420.9683
   1   2.0000     -88.961863     -2420.7754
   2   2.0000     -10.326270      -280.9921
   3   2.0000     -10.323932      -280.9285
   4   2.0000     -10.316726      -280.7324
   5   2.0000     -10.315415      -280.6967
   6   2.0000     -10.310924      -280.5745
   7   2.0000     -10.309953      -280.5481
   8   2.0000     -10.301015      -280.3049
   9   2.0000     -10.300583      -280.2931
  10   2.0000     -10.300250      -280.2841
  11   2.0000     -10.300023      -280.2779
  12   2.0000     -10.283701      -279.8337
  13   2.0000     -10.283015      -279.8151
  14   2.0000     -10.270458      -279.4734
  15   2.0000     -10.270383      -279.4713
  16   2.0000      -8.083671      -219.9679
  17   2.0000      -8.076921      -219.7842
  18   2.0000      -6.042106      -164.4141
  19   2.0000      -6.038085      -164.3046
  20   2.0000      -6.035547      -164.2356
  21   2.0000      -6.034629      -164.2106
  22   2.0000      -6.031321      -164.1206
  23   2.0000      -6.027573      -164.0186
  24   2.0000      -1.007881       -27.4258
  25   2.0000      -0.980291       -26.6751
  26   2.0000      -0.916971       -24.9520
  27   2.0000      -0.901010       -24.5177
  28   2.0000      -0.874911       -23.8075
  29   2.0000      -0.851615       -23.1736
  30   2.0000      -0.845897       -23.0180
  31   2.0000      -0.812081       -22.0978
  32   2.0000      -0.783284       -21.3142
  33   2.0000      -0.771674       -20.9983
  34   2.0000      -0.709010       -19.2931
  35   2.0000      -0.693678       -18.8759
  36   2.0000      -0.690487       -18.7891
  37   2.0000      -0.656766       -17.8715
  38   2.0000      -0.644379       -17.5344
  39   2.0000      -0.616451       -16.7745
  40   2.0000      -0.592457       -16.1216
  41   2.0000      -0.571461       -15.5502
  42   2.0000      -0.563619       -15.3368
  43   2.0000      -0.553026       -15.0486
  44   2.0000      -0.533178       -14.5085
  45   2.0000      -0.524604       -14.2752
  46   2.0000      -0.520141       -14.1537
  47   2.0000      -0.513081       -13.9616
  48   2.0000      -0.505929       -13.7670
  49   2.0000      -0.502542       -13.6749
  50   2.0000      -0.490896       -13.3580
  51   2.0000      -0.478609       -13.0236
  52   2.0000      -0.472172       -12.8485
  53   2.0000      -0.465846       -12.6763
  54   2.0000      -0.456578       -12.4241
  55   2.0000      -0.449672       -12.2362
  56   2.0000      -0.439207       -11.9514
  57   2.0000      -0.433613       -11.7992
  58   2.0000      -0.431221       -11.7341
  59   2.0000      -0.426922       -11.6172
  60   2.0000      -0.425036       -11.5658
  61   2.0000      -0.410141       -11.1605
  62   2.0000      -0.403761       -10.9869
  63   2.0000      -0.344600        -9.3771
  64   2.0000      -0.329554        -8.9676
  65   2.0000      -0.325241        -8.8502
  66   2.0000      -0.296767        -8.0754
  67   0.0000       0.032503         0.8844
  68   0.0000       0.063627         1.7314
  69   0.0000       0.116417         3.1679
  70   0.0000       0.118135         3.2146
  71   0.0000       0.122826         3.3423

MULLIKEN ATOMIC CHARGES
-----------------------
   0 S :    0.121894
   1 C :   -0.119993
   2 C :   -0.062823
   3 C :    0.019094
   4 C :   -0.176532
   5 H :    0.035942
   6 C :    0.047142
   7 H :    0.024757
   8 H :    0.033022
   9 C :   -0.097965
  10 H :    0.034679
  11 H :    0.028006
  12 C :   -0.000918
  13 H :    0.026065
  14 H :    0.038188
  15 H :    0.008529
  16 S :    0.096565
  17 C :   -0.088880
  18 C :   -0.058802
  19 C :   -0.060888
  20 C :   -0.144582
  21 H :    0.040768
  22 C :    0.060658
  23 H :    0.035621
  24 H :    0.033363
  25 C :   -0.057163
  26 H :    0.037374
  27 H :    0.025987
  28 C :   -0.067915
  29 H :    0.039187
  30 H :    0.022495
  31 H :    0.027987
  32 H :    0.036630
  33 H :    0.062509
Sum of atomic charges:    0.0000000

LOEWDIN ATOMIC CHARGES
----------------------
   0 S :    0.416222
   1 C :   -0.191237
   2 C :   -0.053619
   3 C :   -0.061246
   4 C :   -0.215360
   5 H :    0.034951
   6 C :   -0.037389
   7 H :    0.032657
   8 H :    0.034510
   9 C :   -0.041426
  10 H :    0.024446
  11 H :    0.023028
  12 C :   -0.061377
  13 H :    0.025851
  14 H :    0.028349
  15 H :    0.020175
  16 S :    0.404894
  17 C :   -0.184861
  18 C :   -0.075930
  19 C :   -0.056224
  20 C :   -0.204642
  21 H :    0.039806
  22 C :   -0.033192
  23 H :    0.041375
  24 H :    0.030333
  25 C :   -0.046348
  26 H :    0.030837
  27 H :    0.024006
  28 C :   -0.069644
  29 H :    0.026669
  30 H :    0.017442
  31 H :    0.028704
  32 H :    0.017332
  33 H :    0.030912

  Mayer bond orders larger than 0.100000
B(  0-S ,  1-C ) :   1.1468 B(  0-S ,  4-C ) :   1.1530 B(  1-C ,  2-C ) :   1.5881
B(  1-C , 32-H ) :   0.9754 B(  2-C ,  3-C ) :   1.2444 B(  2-C ,  6-C ) :   1.0321
B(  3-C ,  4-C ) :   1.5698 B(  3-C ,  5-H ) :   0.9764 B(  4-C , 20-C ) :   1.0308
B(  6-C ,  7-H ) :   0.9421 B(  6-C ,  8-H ) :   0.9318 B(  6-C ,  9-C ) :   1.0554
B(  9-C , 10-H ) :   0.9609 B(  9-C , 11-H ) :   0.9549 B(  9-C , 12-C ) :   1.0831
B( 12-C , 13-H ) :   0.9733 B( 12-C , 14-H ) :   0.9743 B( 12-C , 15-H ) :   0.9713
B( 16-S , 17-C ) :   1.1442 B( 16-S , 20-C ) :   1.1479 B( 17-C , 18-C ) :   1.6352
B( 17-C , 33-H ) :   0.9636 B( 18-C , 19-C ) :   1.2377 B( 18-C , 21-H ) :   0.9757
B( 19-C , 20-C ) :   1.5916 B( 19-C , 22-C ) :   1.0366 B( 22-C , 23-H ) :   0.9383
B( 22-C , 24-H ) :   0.9442 B( 22-C , 25-C ) :   1.0436 B( 25-C , 26-H ) :   0.9612
B( 25-C , 27-H ) :   0.9589 B( 25-C , 28-C ) :   1.0851 B( 28-C , 29-H ) :   0.9772
B( 28-C , 30-H ) :   0.9749 B( 28-C , 31-H ) :   0.9723

Dispersion correction           -0.013993096
FINAL SINGLE POINT ENERGY     -1339.872808491722

DIPOLE MOMENT
-------------
                                X             Y             Z
Electronic contribution:    -16.01400      14.87038       6.90226
Nuclear contribution   :     16.50668     -15.23251      -6.86305
                        -----------------------------------------
Total Dipole Moment    :      0.49268      -0.36213       0.03921
                        -----------------------------------------
Magnitude (a.u.)       :      0.61271
Magnitude (Debye)      :      1.55737

Rotational constants in cm-1:     0.017020     0.008232     0.007555
Rotational constants in MHz :   510.255375   246.796653   226.480006

                             ****ORCA TERMINATED NORMALLY****
TOTAL RUN TIME: 0 days 0 hours 0 minutes 28 seconds 710 msec
