                         Program Version 4.2.1 -  RELEASE  -
|  1> ! wB97X-D3 SP def2-SVP
|  2> %pal
|  3> nprocs 16
|  4> end
|  5>
|  6> * xyz 0 1
|  7> S 	 -35.299 	 74.9597 	 150.112
|  8> C 	 -34.0892 	 76.2 	 149.816
|  9> C 	 -32.9566 	 76.074 	 150.591
| 10> C 	 -33.1166 	 74.9979 	 151.534
| 11> C 	 -34.2628 	 74.2363 	 151.305
| 12> H 	 -32.3215 	 74.6071 	 152.161
| 13> C 	 -31.7436 	 77.0008 	 150.54
| 14> H 	 -31.9396 	 77.8105 	 151.257
| 15> H 	 -31.7183 	 77.3691 	 149.555
| 16> C 	 -30.3597 	 76.42 	 150.884
| 17> H 	 -30.294 	 76.1252 	 151.944
| 18> H 	 -30.0386 	 75.608 	 150.239
| 19> C 	 -29.2303 	 77.3946 	 150.703
| 20> H 	 -28.2858 	 76.985 	 150.934
| 21> H 	 -29.2389 	 77.8436 	 149.698
| 22> H 	 -29.3553 	 78.2351 	 151.446
| 23> S 	 -35.6167 	 71.8915 	 150.891
| 24> C 	 -35.4898 	 70.6826 	 152.185
| 25> C 	 -35.0357 	 71.1881 	 153.388
| 26> C 	 -34.629 	 72.556 	 153.27
| 27> C 	 -34.7653 	 73.0282 	 151.941
| 28> H 	 -35.0477 	 70.5679 	 154.263
| 29> C 	 -34.0947 	 73.4351 	 154.396
| 30> H 	 -34.9424 	 73.8176 	 154.887
| 31> H 	 -33.5206 	 74.2667 	 154.003
| 32> C 	 -33.1652 	 72.6604 	 155.38
| 33> H 	 -32.186 	 72.5747 	 154.924
| 34> H 	 -33.5097 	 71.6906 	 155.742
| 35> C 	 -32.9136 	 73.5888 	 156.635
| 36> H 	 -32.1873 	 73.1032 	 157.284
| 37> H 	 -33.8149 	 73.7559 	 157.348
| 38> H 	 -32.3883 	 74.4428 	 156.239
| 39> H 	 -34.1045 	 76.9415 	 148.991
| 40> H 	 -35.4006 	 69.6018 	 152.045
| 41> *
| 42>
| 43>                          ****END OF INPUT****

CARTESIAN COORDINATES (ANGSTROEM)
---------------------------------
  S    -35.299000   74.959700  150.112000
  C    -34.089200   76.200000  149.816000
  C    -32.956600   76.074000  150.591000
  C    -33.116600   74.997900  151.534000
  C    -34.262800   74.236300  151.305000
  H    -32.321500   74.607100  152.161000
  C    -31.743600   77.000800  150.540000
  H    -31.939600   77.810500  151.257000
  H    -31.718300   77.369100  149.555000
  C    -30.359700   76.420000  150.884000
  H    -30.294000   76.125200  151.944000
  H    -30.038600   75.608000  150.239000
  C    -29.230300   77.394600  150.703000
  H    -28.285800   76.985000  150.934000
  H    -29.238900   77.843600  149.698000
  H    -29.355300   78.235100  151.446000
  S    -35.616700   71.891500  150.891000
  C    -35.489800   70.682600  152.185000
  C    -35.035700   71.188100  153.388000
  C    -34.629000   72.556000  153.270000
  C    -34.765300   73.028200  151.941000
  H    -35.047700   70.567900  154.263000
  C    -34.094700   73.435100  154.396000
  H    -34.942400   73.817600  154.887000
  H    -33.520600   74.266700  154.003000
  C    -33.165200   72.660400  155.380000
  H    -32.186000   72.574700  154.924000
  H    -33.509700   71.690600  155.742000
  C    -32.913600   73.588800  156.635000
  H    -32.187300   73.103200  157.284000
  H    -33.814900   73.755900  157.348000
  H    -32.388300   74.442800  156.239000
  H    -34.104500   76.941500  148.991000
  H    -35.400600   69.601800  152.045000

 Total Charge           Charge          ....    0
 Multiplicity           Mult            ....    1
 Number of Electrons    NEL             ....  134
 Basis Dimension        Dim             ....  322

ORBITAL ENERGIES
----------------

  NO   OCC          E(Eh)            E(eV)
   0   2.0000     -88.968067     -2420.9442
   1   2.0000     -88.966075     -2420.8900
   2   2.0000     -10.330051      -281.0950
   3   2.0000     -10.328063      -281.0409
   4   2.0000     -10.317625      -280.7569
   5   2.0000     -10.311767      -280.5975
   6   2.0000     -10.307459      -280.4802
   7   2.0000     -10.302073      -280.3337
   8   2.0000     -10.296502      -280.1821
   9   2.0000     -10.294688      -280.1327
  10   2.0000     -10.293441      -280.0988
  11   2.0000     -10.292036      -280.0605
  12   2.0000     -10.289250      -279.9847
  13   2.0000     -10.288056      -279.9522
  14   2.0000     -10.285482      -279.8822
  15   2.0000     -10.278766      -279.6994
  16   2.0000      -8.082202      -219.9279
  17   2.0000      -8.080982      -219.8947
  18   2.0000      -6.040748      -164.3771
  19   2.0000      -6.039503      -164.3432
  20   2.0000      -6.036926      -164.2731
  21   2.0000      -6.035578      -164.2364
  22   2.0000      -6.032825      -164.1615
  23   2.0000      -6.031622      -164.1288
  24   2.0000      -1.004542       -27.3350
  25   2.0000      -0.978780       -26.6339
  26   2.0000      -0.916109       -24.9286
  27   2.0000      -0.905468       -24.6390
  28   2.0000      -0.872679       -23.7468
  29   2.0000      -0.849465       -23.1151
  30   2.0000      -0.844683       -22.9850
  31   2.0000      -0.814612       -22.1667
  32   2.0000      -0.784215       -21.3396
  33   2.0000      -0.766796       -20.8656
  34   2.0000      -0.707975       -19.2650
  35   2.0000      -0.699130       -19.0243
  36   2.0000      -0.687723       -18.7139
  37   2.0000      -0.656497       -17.8642
  38   2.0000      -0.635415       -17.2905
  39   2.0000      -0.620190       -16.8762
  40   2.0000      -0.593581       -16.1522
  41   2.0000      -0.580455       -15.7950
  42   2.0000      -0.570455       -15.5229
  43   2.0000      -0.563449       -15.3322
  44   2.0000      -0.532534       -14.4910
  45   2.0000      -0.520474       -14.1628
  46   2.0000      -0.512803       -13.9541
  47   2.0000      -0.507642       -13.8136
  48   2.0000      -0.502969       -13.6865
  49   2.0000      -0.500363       -13.6156
  50   2.0000      -0.489933       -13.3318
  51   2.0000      -0.477842       -13.0027
  52   2.0000      -0.467410       -12.7189
  53   2.0000      -0.464182       -12.6310
  54   2.0000      -0.460554       -12.5323
  55   2.0000      -0.455855       -12.4044
  56   2.0000      -0.447488       -12.1768
  57   2.0000      -0.431869       -11.7517
  58   2.0000      -0.431357       -11.7378
  59   2.0000      -0.430440       -11.7129
  60   2.0000      -0.426867       -11.6157
  61   2.0000      -0.419017       -11.4020
  62   2.0000      -0.412497       -11.2246
  63   2.0000      -0.351072        -9.5532
  64   2.0000      -0.335361        -9.1256
  65   2.0000      -0.329434        -8.9643
  66   2.0000      -0.277339        -7.5468
  67   0.0000       0.019542         0.5318
  68   0.0000       0.067284         1.8309
  69   0.0000       0.100087         2.7235
  70   0.0000       0.118558         3.2261
  71   0.0000       0.129351         3.5198

MULLIKEN ATOMIC CHARGES
-----------------------
   0 S :    0.099040
   1 C :   -0.128580
   2 C :   -0.096735
   3 C :   -0.000088
   4 C :   -0.135911
   5 H :    0.025918
   6 C :    0.098480
   7 H :    0.047237
   8 H :    0.008088
   9 C :   -0.099993
  10 H :    0.033359
  11 H :    0.036040
  12 C :   -0.046451
  13 H :    0.027711
  14 H :    0.032367
  15 H :    0.021267
  16 S :    0.102527
  17 C :   -0.090384
  18 C :   -0.047012
  19 C :   -0.041179
  20 C :   -0.142662
  21 H :    0.019392
  22 C :    0.120770
  23 H :    0.029922
  24 H :    0.011888
  25 C :   -0.109257
  26 H :    0.033305
  27 H :    0.036455
  28 C :   -0.074364
  29 H :    0.024030
  30 H :    0.054986
  31 H :    0.029746
  32 H :    0.049753
  33 H :    0.070336
Sum of atomic charges:    0.0000000

LOEWDIN ATOMIC CHARGES
----------------------
   0 S :    0.401889
   1 C :   -0.209294
   2 C :   -0.057456
   3 C :   -0.079462
   4 C :   -0.182410
   5 H :    0.029441
   6 C :   -0.024190
   7 H :    0.040577
   8 H :    0.024208
   9 C :   -0.046023
  10 H :    0.025596
  11 H :    0.026516
  12 C :   -0.062190
  13 H :    0.020230
  14 H :    0.024787
  15 H :    0.025088
  16 S :    0.385336
  17 C :   -0.183957
  18 C :   -0.064231
  19 C :   -0.049070
  20 C :   -0.197175
  21 H :    0.031061
  22 C :   -0.022754
  23 H :    0.029573
  24 H :    0.030338
  25 C :   -0.033960
  26 H :    0.025479
  27 H :    0.018920
  28 C :   -0.074302
  29 H :    0.021097
  30 H :    0.036351
  31 H :    0.022256
  32 H :    0.031621
  33 H :    0.036110

  Mayer bond orders larger than 0.100000
B(  0-S ,  1-C ) :   1.1196 B(  0-S ,  4-C ) :   1.1524 B(  1-C ,  2-C ) :   1.6528
B(  1-C , 32-H ) :   0.9588 B(  2-C ,  3-C ) :   1.2327 B(  2-C ,  6-C ) :   1.0155
B(  3-C ,  4-C ) :   1.5931 B(  3-C ,  5-H ) :   0.9727 B(  4-C , 20-C ) :   1.0509
B(  6-C ,  7-H ) :   0.9333 B(  6-C ,  8-H ) :   0.9375 B(  6-C ,  9-C ) :   1.0757
B(  9-C , 10-H ) :   0.9460 B(  9-C , 11-H ) :   0.9587 B(  9-C , 12-C ) :   1.0972
B( 12-C , 13-H ) :   0.9733 B( 12-C , 14-H ) :   0.9733 B( 12-C , 15-H ) :   0.9720
B( 16-S , 17-C ) :   1.1411 B( 16-S , 20-C ) :   1.1284 B( 17-C , 18-C ) :   1.6317
B( 17-C , 33-H ) :   0.9562 B( 18-C , 19-C ) :   1.2307 B( 18-C , 21-H ) :   0.9908
B( 19-C , 20-C ) :   1.5812 B( 19-C , 22-C ) :   1.0295 B( 22-C , 23-H ) :   0.9300
B( 22-C , 24-H ) :   0.9333 B( 22-C , 25-C ) :   1.0566 B( 25-C , 26-H ) :   0.9584
B( 25-C , 27-H ) :   0.9606 B( 25-C , 28-C ) :   1.0817 B( 28-C , 29-H ) :   0.9750
B( 28-C , 30-H ) :   0.9754 B( 28-C , 31-H ) :   0.9743

Dispersion correction           -0.013282717
FINAL SINGLE POINT ENERGY     -1339.865941445213

DIPOLE MOMENT
-------------
                                X             Y             Z
Electronic contribution:    -25.04797     -11.28222     -17.18183
Nuclear contribution   :     25.77316      11.33036      17.61934
                        -----------------------------------------
Total Dipole Moment    :      0.72519       0.04813       0.43751
                        -----------------------------------------
Magnitude (a.u.)       :      0.84832
Magnitude (Debye)      :      2.15625

Rotational constants in cm-1:     0.015839     0.008895     0.006276
Rotational constants in MHz :   474.842128   266.651137   188.154224

                             ****ORCA TERMINATED NORMALLY****
TOTAL RUN TIME: 0 days 0 hours 0 minutes 33 seconds 607 msec
