                         Program Version 4.2.1 -  RELEASE  -
|  1> ! wB97X-D3 SP def2-SVP
|  2> %pal
|  3> nprocs 16
|  4> end
|  5>
|  6> * xyz 0 1
|  7> S 	 67.4241 	 29.4994 	 71.7446
|  8> C 	 67.3069 	 29.6868 	 69.9872
|  9> C 	 68.56 	 29.3809 	 69.4042
| 10> C 	 69.558 	 28.9944 	 70.3659
| 11> C 	 69.1076 	 29.0327 	 71.7032
| 12> H 	 70.4976 	 28.6135 	 70.0602
| 13> C 	 68.8006 	 29.1547 	 67.9176
| 14> H 	 69.8334 	 29.1061 	 67.7105
| 15> H 	 68.4652 	 30.0341 	 67.3896
| 16> C 	 68.2095 	 27.868 	 67.2893
| 17> H 	 67.1347 	 27.8344 	 67.2528
| 18> H 	 68.442 	 27.9452 	 66.2867
| 19> C 	 68.7173 	 26.526 	 67.8974
| 20> H 	 69.8153 	 26.3865 	 67.5774
| 21> H 	 68.7996 	 26.6695 	 68.9666
| 22> H 	 68.1953 	 25.6256 	 67.6103
| 23> S 	 71.407 	 29.3571 	 73.325
| 24> C 	 71.516 	 28.5216 	 74.7638
| 25> C 	 70.5173 	 27.6134 	 74.9205
| 26> C 	 69.5236 	 27.6669 	 73.8579
| 27> C 	 69.8891 	 28.6407 	 72.8638
| 28> H 	 70.4952 	 26.8186 	 75.6561
| 29> C 	 68.3078 	 26.7288 	 73.8701
| 30> H 	 67.5153 	 27.0303 	 73.1979
| 31> H 	 67.8994 	 26.7723 	 74.8649
| 32> C 	 68.5748 	 25.2101 	 73.6453
| 33> H 	 67.6908 	 24.5287 	 73.5787
| 34> H 	 69.1435 	 24.8918 	 74.5208
| 35> C 	 69.4861 	 25.0423 	 72.4793
| 36> H 	 69.3418 	 24.0391 	 72.0465
| 37> H 	 70.5105 	 25.2113 	 72.6143
| 38> H 	 69.2398 	 25.7212 	 71.6608
| 39> H 	 66.376 	 29.7952 	 69.4072
| 40> H 	 72.4288 	 28.5184 	 75.3629
| 41> *
| 42>
| 43>                          ****END OF INPUT****

CARTESIAN COORDINATES (ANGSTROEM)
---------------------------------
  S     67.424100   29.499400   71.744600
  C     67.306900   29.686800   69.987200
  C     68.560000   29.380900   69.404200
  C     69.558000   28.994400   70.365900
  C     69.107600   29.032700   71.703200
  H     70.497600   28.613500   70.060200
  C     68.800600   29.154700   67.917600
  H     69.833400   29.106100   67.710500
  H     68.465200   30.034100   67.389600
  C     68.209500   27.868000   67.289300
  H     67.134700   27.834400   67.252800
  H     68.442000   27.945200   66.286700
  C     68.717300   26.526000   67.897400
  H     69.815300   26.386500   67.577400
  H     68.799600   26.669500   68.966600
  H     68.195300   25.625600   67.610300
  S     71.407000   29.357100   73.325000
  C     71.516000   28.521600   74.763800
  C     70.517300   27.613400   74.920500
  C     69.523600   27.666900   73.857900
  C     69.889100   28.640700   72.863800
  H     70.495200   26.818600   75.656100
  C     68.307800   26.728800   73.870100
  H     67.515300   27.030300   73.197900
  H     67.899400   26.772300   74.864900
  C     68.574800   25.210100   73.645300
  H     67.690800   24.528700   73.578700
  H     69.143500   24.891800   74.520800
  C     69.486100   25.042300   72.479300
  H     69.341800   24.039100   72.046500
  H     70.510500   25.211300   72.614300
  H     69.239800   25.721200   71.660800
  H     66.376000   29.795200   69.407200
  H     72.428800   28.518400   75.362900

 Total Charge           Charge          ....    0
 Multiplicity           Mult            ....    1
 Number of Electrons    NEL             ....  134
 Basis Dimension        Dim             ....  322

ORBITAL ENERGIES
----------------

  NO   OCC          E(Eh)            E(eV)
   0   2.0000     -88.971969     -2421.0504
   1   2.0000     -88.968655     -2420.9602
   2   2.0000     -10.334499      -281.2160
   3   2.0000     -10.330875      -281.1174
   4   2.0000     -10.321152      -280.8528
   5   2.0000     -10.313891      -280.6552
   6   2.0000     -10.312052      -280.6052
   7   2.0000     -10.305206      -280.4189
   8   2.0000     -10.295210      -280.1469
   9   2.0000     -10.294370      -280.1240
  10   2.0000     -10.289545      -279.9927
  11   2.0000     -10.288407      -279.9618
  12   2.0000     -10.285268      -279.8764
  13   2.0000     -10.281320      -279.7689
  14   2.0000     -10.280994      -279.7601
  15   2.0000     -10.261733      -279.2360
  16   2.0000      -8.085448      -220.0162
  17   2.0000      -8.084916      -220.0017
  18   2.0000      -6.044047      -164.4669
  19   2.0000      -6.043299      -164.4465
  20   2.0000      -6.039931      -164.3549
  21   2.0000      -6.039045      -164.3308
  22   2.0000      -6.036372      -164.2580
  23   2.0000      -6.035869      -164.2443
  24   2.0000      -1.008229       -27.4353
  25   2.0000      -0.983665       -26.7669
  26   2.0000      -0.911502       -24.8032
  27   2.0000      -0.908560       -24.7232
  28   2.0000      -0.867832       -23.6149
  29   2.0000      -0.849157       -23.1067
  30   2.0000      -0.842730       -22.9318
  31   2.0000      -0.811064       -22.0702
  32   2.0000      -0.784834       -21.3564
  33   2.0000      -0.773543       -21.0492
  34   2.0000      -0.707989       -19.2654
  35   2.0000      -0.704365       -19.1667
  36   2.0000      -0.691723       -18.8227
  37   2.0000      -0.655669       -17.8417
  38   2.0000      -0.637945       -17.3594
  39   2.0000      -0.614137       -16.7115
  40   2.0000      -0.599662       -16.3176
  41   2.0000      -0.573939       -15.6177
  42   2.0000      -0.554693       -15.0940
  43   2.0000      -0.552829       -15.0433
  44   2.0000      -0.549156       -14.9433
  45   2.0000      -0.538071       -14.6417
  46   2.0000      -0.509171       -13.8552
  47   2.0000      -0.508170       -13.8280
  48   2.0000      -0.500577       -13.6214
  49   2.0000      -0.499886       -13.6026
  50   2.0000      -0.490783       -13.3549
  51   2.0000      -0.474713       -12.9176
  52   2.0000      -0.470374       -12.7995
  53   2.0000      -0.469111       -12.7652
  54   2.0000      -0.458883       -12.4868
  55   2.0000      -0.455585       -12.3971
  56   2.0000      -0.447581       -12.1793
  57   2.0000      -0.435535       -11.8515
  58   2.0000      -0.425903       -11.5894
  59   2.0000      -0.423838       -11.5332
  60   2.0000      -0.420354       -11.4384
  61   2.0000      -0.413486       -11.2515
  62   2.0000      -0.407494       -11.0885
  63   2.0000      -0.344587        -9.3767
  64   2.0000      -0.331984        -9.0337
  65   2.0000      -0.328311        -8.9338
  66   2.0000      -0.293678        -7.9914
  67   0.0000       0.025056         0.6818
  68   0.0000       0.070827         1.9273
  69   0.0000       0.107605         2.9281
  70   0.0000       0.117972         3.2102
  71   0.0000       0.126610         3.4452

MULLIKEN ATOMIC CHARGES
-----------------------
   0 S :    0.124449
   1 C :   -0.137824
   2 C :   -0.102052
   3 C :    0.029714
   4 C :   -0.149478
   5 H :   -0.000030
   6 C :    0.072738
   7 H :    0.007043
   8 H :    0.028025
   9 C :   -0.024914
  10 H :    0.015221
  11 H :    0.009366
  12 C :   -0.080541
  13 H :    0.024963
  14 H :    0.048871
  15 H :    0.044813
  16 S :    0.135585
  17 C :   -0.086702
  18 C :   -0.028591
  19 C :   -0.078883
  20 C :   -0.156314
  21 H :    0.019278
  22 C :    0.082646
  23 H :    0.024334
  24 H :    0.023724
  25 C :   -0.086710
  26 H :    0.045113
  27 H :    0.018120
  28 C :   -0.025517
  29 H :    0.024222
  30 H :    0.025260
  31 H :    0.019160
  32 H :    0.066413
  33 H :    0.068498
Sum of atomic charges:    0.0000000

LOEWDIN ATOMIC CHARGES
----------------------
   0 S :    0.422357
   1 C :   -0.204685
   2 C :   -0.061242
   3 C :   -0.062077
   4 C :   -0.195538
   5 H :    0.023216
   6 C :   -0.026662
   7 H :    0.023908
   8 H :    0.033543
   9 C :   -0.032565
  10 H :    0.018371
  11 H :    0.014433
  12 C :   -0.069116
  13 H :    0.030113
  14 H :    0.025338
  15 H :    0.026007
  16 S :    0.454504
  17 C :   -0.212944
  18 C :   -0.074737
  19 C :   -0.043934
  20 C :   -0.217779
  21 H :    0.029805
  22 C :   -0.034170
  23 H :    0.019519
  24 H :    0.029912
  25 C :   -0.042584
  26 H :    0.033224
  27 H :    0.019785
  28 C :   -0.070021
  29 H :    0.026693
  30 H :    0.019453
  31 H :    0.024724
  32 H :    0.036989
  33 H :    0.036162

  Mayer bond orders larger than 0.100000
B(  0-S ,  1-C ) :   1.1451 B(  0-S ,  4-C ) :   1.1646 B(  1-C ,  2-C ) :   1.5712
B(  1-C ,  4-C ) :   0.1020 B(  1-C , 32-H ) :   0.9676 B(  2-C ,  3-C ) :   1.2757
B(  2-C ,  6-C ) :   1.0344 B(  3-C ,  4-C ) :   1.5187 B(  3-C ,  5-H ) :   0.9975
B(  4-C , 20-C ) :   1.0602 B(  6-C ,  7-H ) :   0.9427 B(  6-C ,  8-H ) :   0.9333
B(  6-C ,  9-C ) :   1.0713 B(  9-C , 10-H ) :   0.9567 B(  9-C , 11-H ) :   0.9537
B(  9-C , 12-C ) :   1.0630 B( 12-C , 13-H ) :   0.9734 B( 12-C , 14-H ) :   0.9798
B( 12-C , 15-H ) :   0.9755 B( 16-S , 17-C ) :   1.1886 B( 16-S , 20-C ) :   1.1585
B( 17-C , 18-C ) :   1.5693 B( 17-C , 33-H ) :   0.9619 B( 18-C , 19-C ) :   1.2836
B( 18-C , 21-H ) :   0.9893 B( 19-C , 20-C ) :   1.5256 B( 19-C , 22-C ) :   1.0440
B( 22-C , 23-H ) :   0.9345 B( 22-C , 24-H ) :   0.9366 B( 22-C , 25-C ) :   1.0675
B( 25-C , 26-H ) :   0.9609 B( 25-C , 27-H ) :   0.9540 B( 25-C , 28-C ) :   1.0837
B( 28-C , 29-H ) :   0.9710 B( 28-C , 30-H ) :   0.9633 B( 28-C , 31-H ) :   0.9766

Dispersion correction           -0.016029353
FINAL SINGLE POINT ENERGY     -1339.876548086672

DIPOLE MOMENT
-------------
                                X             Y             Z
Electronic contribution:      3.67696      20.20555      14.00630
Nuclear contribution   :     -3.64237     -20.74384     -14.27121
                        -----------------------------------------
Total Dipole Moment    :      0.03459      -0.53829      -0.26492
                        -----------------------------------------
Magnitude (a.u.)       :      0.60094
Magnitude (Debye)      :      1.52747

Rotational constants in cm-1:     0.019869     0.009054     0.008006
Rotational constants in MHz :   595.659223   271.419519   240.017120

                             ****ORCA TERMINATED NORMALLY****
TOTAL RUN TIME: 0 days 0 hours 0 minutes 30 seconds 241 msec
