                         Program Version 4.2.1 -  RELEASE  -
|  1> ! wB97X-D3 SP def2-SVP
|  2> %pal
|  3> nprocs 16
|  4> end
|  5>
|  6> * xyz 0 1
|  7> S 	 8.36399 	 20.5734 	 57.7269
|  8> C 	 9.47413 	 21.8667 	 57.3866
|  9> C 	 8.78762 	 23.0602 	 57.1049
| 10> C 	 7.34717 	 22.9272 	 57.2023
| 11> C 	 6.98858 	 21.6343 	 57.4386
| 12> H 	 6.63463 	 23.6843 	 57.0319
| 13> C 	 9.49114 	 24.4109 	 56.8746
| 14> H 	 10.2888 	 24.4549 	 57.5502
| 15> H 	 8.81921 	 25.1839 	 57.1805
| 16> C 	 10.0269 	 24.672 	 55.4662
| 17> H 	 10.6063 	 25.5534 	 55.6262
| 18> H 	 10.775 	 23.8818 	 55.1655
| 19> C 	 8.92962 	 24.8165 	 54.4521
| 20> H 	 8.23358 	 23.983 	 54.4987
| 21> H 	 8.48391 	 25.7397 	 54.7256
| 22> H 	 9.16527 	 24.8925 	 53.364
| 23> S 	 4.72653 	 21.4118 	 55.8122
| 24> C 	 3.38905 	 20.4073 	 56.2501
| 25> C 	 3.59427 	 19.8752 	 57.5281
| 26> C 	 4.84738 	 20.2033 	 58.0913
| 27> C 	 5.57339 	 21.0455 	 57.2578
| 28> H 	 2.78724 	 19.359 	 57.9786
| 29> C 	 5.19312 	 19.831 	 59.5039
| 30> H 	 6.22863 	 19.4412 	 59.6172
| 31> H 	 4.40998 	 19.2068 	 59.9738
| 32> C 	 5.10854 	 21.0736 	 60.4229
| 33> H 	 4.42828 	 21.9002 	 60.0799
| 34> H 	 6.09497 	 21.4653 	 60.3182
| 35> C 	 4.81351 	 20.8137 	 61.9154
| 36> H 	 4.97035 	 21.7585 	 62.4101
| 37> H 	 5.39869 	 20.0053 	 62.2494
| 38> H 	 3.78566 	 20.7069 	 62.0694
| 39> H 	 10.5729 	 21.8622 	 57.4807
| 40> H 	 2.47681 	 20.2107 	 55.738
| 41> *
| 42>
| 43>                          ****END OF INPUT****

CARTESIAN COORDINATES (ANGSTROEM)
---------------------------------
  S      8.363990   20.573400   57.726900
  C      9.474130   21.866700   57.386600
  C      8.787620   23.060200   57.104900
  C      7.347170   22.927200   57.202300
  C      6.988580   21.634300   57.438600
  H      6.634630   23.684300   57.031900
  C      9.491140   24.410900   56.874600
  H     10.288800   24.454900   57.550200
  H      8.819210   25.183900   57.180500
  C     10.026900   24.672000   55.466200
  H     10.606300   25.553400   55.626200
  H     10.775000   23.881800   55.165500
  C      8.929620   24.816500   54.452100
  H      8.233580   23.983000   54.498700
  H      8.483910   25.739700   54.725600
  H      9.165270   24.892500   53.364000
  S      4.726530   21.411800   55.812200
  C      3.389050   20.407300   56.250100
  C      3.594270   19.875200   57.528100
  C      4.847380   20.203300   58.091300
  C      5.573390   21.045500   57.257800
  H      2.787240   19.359000   57.978600
  C      5.193120   19.831000   59.503900
  H      6.228630   19.441200   59.617200
  H      4.409980   19.206800   59.973800
  C      5.108540   21.073600   60.422900
  H      4.428280   21.900200   60.079900
  H      6.094970   21.465300   60.318200
  C      4.813510   20.813700   61.915400
  H      4.970350   21.758500   62.410100
  H      5.398690   20.005300   62.249400
  H      3.785660   20.706900   62.069400
  H     10.572900   21.862200   57.480700
  H      2.476810   20.210700   55.738000

 Total Charge           Charge          ....    0
 Multiplicity           Mult            ....    1
 Number of Electrons    NEL             ....  134
 Basis Dimension        Dim             ....  322

ORBITAL ENERGIES
----------------

  NO   OCC          E(Eh)            E(eV)
   0   2.0000     -88.970056     -2420.9983
   1   2.0000     -88.969622     -2420.9865
   2   2.0000     -10.334482      -281.2156
   3   2.0000     -10.326943      -281.0104
   4   2.0000     -10.316828      -280.7352
   5   2.0000     -10.313072      -280.6330
   6   2.0000     -10.304262      -280.3932
   7   2.0000     -10.300081      -280.2795
   8   2.0000     -10.292730      -280.0794
   9   2.0000     -10.291783      -280.0537
  10   2.0000     -10.288673      -279.9690
  11   2.0000     -10.285613      -279.8858
  12   2.0000     -10.284813      -279.8640
  13   2.0000     -10.276867      -279.6478
  14   2.0000     -10.272274      -279.5228
  15   2.0000     -10.265994      -279.3519
  16   2.0000      -8.084986      -220.0037
  17   2.0000      -8.083898      -219.9740
  18   2.0000      -6.043402      -164.4493
  19   2.0000      -6.042519      -164.4253
  20   2.0000      -6.039293      -164.3375
  21   2.0000      -6.038456      -164.3147
  22   2.0000      -6.036024      -164.2486
  23   2.0000      -6.034591      -164.2096
  24   2.0000      -1.006634       -27.3919
  25   2.0000      -0.985905       -26.8278
  26   2.0000      -0.914050       -24.8726
  27   2.0000      -0.908471       -24.7207
  28   2.0000      -0.862402       -23.4671
  29   2.0000      -0.852558       -23.1993
  30   2.0000      -0.847066       -23.0498
  31   2.0000      -0.816962       -22.2307
  32   2.0000      -0.784431       -21.3454
  33   2.0000      -0.772744       -21.0274
  34   2.0000      -0.700810       -19.0700
  35   2.0000      -0.698464       -19.0062
  36   2.0000      -0.681500       -18.5445
  37   2.0000      -0.664092       -18.0709
  38   2.0000      -0.641352       -17.4521
  39   2.0000      -0.615688       -16.7537
  40   2.0000      -0.596986       -16.2448
  41   2.0000      -0.577375       -15.7112
  42   2.0000      -0.563355       -15.3297
  43   2.0000      -0.551807       -15.0154
  44   2.0000      -0.545145       -14.8342
  45   2.0000      -0.534504       -14.5446
  46   2.0000      -0.516992       -14.0681
  47   2.0000      -0.510755       -13.8984
  48   2.0000      -0.500704       -13.6249
  49   2.0000      -0.494659       -13.4604
  50   2.0000      -0.488108       -13.2821
  51   2.0000      -0.478286       -13.0148
  52   2.0000      -0.472999       -12.8709
  53   2.0000      -0.467353       -12.7173
  54   2.0000      -0.462082       -12.5739
  55   2.0000      -0.448795       -12.2123
  56   2.0000      -0.443454       -12.0670
  57   2.0000      -0.441513       -12.0142
  58   2.0000      -0.434615       -11.8265
  59   2.0000      -0.420689       -11.4475
  60   2.0000      -0.419998       -11.4287
  61   2.0000      -0.412575       -11.2267
  62   2.0000      -0.402571       -10.9545
  63   2.0000      -0.343835        -9.3562
  64   2.0000      -0.333447        -9.0735
  65   2.0000      -0.328790        -8.9468
  66   2.0000      -0.293660        -7.9909
  67   0.0000       0.034393         0.9359
  68   0.0000       0.069496         1.8911
  69   0.0000       0.106289         2.8923
  70   0.0000       0.123014         3.3474
  71   0.0000       0.131646         3.5823

MULLIKEN ATOMIC CHARGES
-----------------------
   0 S :    0.115887
   1 C :   -0.117686
   2 C :   -0.130417
   3 C :    0.038588
   4 C :   -0.127184
   5 H :    0.000446
   6 C :    0.081174
   7 H :    0.010356
   8 H :    0.011044
   9 C :   -0.052430
  10 H :    0.021651
  11 H :    0.029521
  12 C :   -0.039798
  13 H :    0.039400
  14 H :    0.014688
  15 H :    0.039208
  16 S :    0.134215
  17 C :   -0.092348
  18 C :   -0.040950
  19 C :   -0.025940
  20 C :   -0.160111
  21 H :    0.006216
  22 C :    0.073330
  23 H :    0.040371
  24 H :    0.020607
  25 C :   -0.132431
  26 H :    0.038393
  27 H :    0.024348
  28 C :    0.005665
  29 H :    0.025105
  30 H :    0.031247
  31 H :    0.015888
  32 H :    0.056768
  33 H :    0.045179
Sum of atomic charges:    0.0000000

LOEWDIN ATOMIC CHARGES
----------------------
   0 S :    0.409185
   1 C :   -0.210426
   2 C :   -0.057266
   3 C :   -0.066390
   4 C :   -0.181399
   5 H :    0.025935
   6 C :   -0.023917
   7 H :    0.023859
   8 H :    0.025921
   9 C :   -0.038449
  10 H :    0.020150
  11 H :    0.025710
  12 C :   -0.068171
  13 H :    0.027519
  14 H :    0.020826
  15 H :    0.031326
  16 S :    0.444359
  17 C :   -0.197660
  18 C :   -0.064496
  19 C :   -0.060947
  20 C :   -0.214122
  21 H :    0.025310
  22 C :   -0.036273
  23 H :    0.033206
  24 H :    0.031208
  25 C :   -0.043282
  26 H :    0.027819
  27 H :    0.016203
  28 C :   -0.056899
  29 H :    0.031321
  30 H :    0.019918
  31 H :    0.017452
  32 H :    0.035326
  33 H :    0.027144

  Mayer bond orders larger than 0.100000
B(  0-S ,  1-C ) :   1.1329 B(  0-S ,  4-C ) :   1.1540 B(  1-C ,  2-C ) :   1.6268
B(  1-C , 32-H ) :   0.9622 B(  2-C ,  3-C ) :   1.2177 B(  2-C ,  6-C ) :   1.0136
B(  3-C ,  4-C ) :   1.5882 B(  3-C ,  5-H ) :   1.0056 B(  4-C , 20-C ) :   0.9861
B(  6-C ,  7-H ) :   0.9371 B(  6-C ,  8-H ) :   0.9432 B(  6-C ,  9-C ) :   1.0750
B(  9-C , 10-H ) :   0.9572 B(  9-C , 11-H ) :   0.9549 B(  9-C , 12-C ) :   1.0638
B( 12-C , 13-H ) :   0.9768 B( 12-C , 14-H ) :   0.9744 B( 12-C , 15-H ) :   0.9743
B( 16-S , 17-C ) :   1.1739 B( 16-S , 20-C ) :   1.1658 B( 17-C , 18-C ) :   1.5782
B( 17-C , 33-H ) :   0.9704 B( 18-C , 19-C ) :   1.2848 B( 18-C , 21-H ) :   0.9941
B( 19-C , 20-C ) :   1.5443 B( 19-C , 22-C ) :   1.0641 B( 22-C , 23-H ) :   0.9265
B( 22-C , 24-H ) :   0.9442 B( 22-C , 25-C ) :   1.0353 B( 25-C , 26-H ) :   0.9618
B( 25-C , 27-H ) :   0.9555 B( 25-C , 28-C ) :   1.0956 B( 28-C , 29-H ) :   0.9688
B( 28-C , 30-H ) :   0.9740 B( 28-C , 31-H ) :   0.9724

Dispersion correction           -0.014710072
FINAL SINGLE POINT ENERGY     -1339.871871444959

DIPOLE MOMENT
-------------
                                X             Y             Z
Electronic contribution:     -4.00977     -11.45984      -8.42913
Nuclear contribution   :      3.96485      11.84438       8.67432
                        -----------------------------------------
Total Dipole Moment    :     -0.04493       0.38454       0.24519
                        -----------------------------------------
Magnitude (a.u.)       :      0.45827
Magnitude (Debye)      :      1.16482

Rotational constants in cm-1:     0.020313     0.008416     0.006883
Rotational constants in MHz :   608.961429   252.309004   206.340358

                             ****ORCA TERMINATED NORMALLY****
TOTAL RUN TIME: 0 days 0 hours 0 minutes 32 seconds 871 msec
