                         Program Version 4.2.1 -  RELEASE  -
|  1> ! wB97X-D3 SP def2-SVP
|  2> %pal
|  3> nprocs 16
|  4> end
|  5>
|  6> * xyz 0 1
|  7> S 	 -68.9585 	 46.5178 	 134.502
|  8> C 	 -69.2531 	 47.3509 	 133.006
|  9> C 	 -70.3142 	 46.7892 	 132.302
| 10> C 	 -70.9495 	 45.8203 	 133.089
| 11> C 	 -70.4136 	 45.6208 	 134.341
| 12> H 	 -71.8716 	 45.1744 	 132.848
| 13> C 	 -70.5691 	 47.1278 	 130.93
| 14> H 	 -69.7304 	 47.5834 	 130.488
| 15> H 	 -71.3529 	 47.8635 	 130.956
| 16> C 	 -70.9674 	 45.9068 	 130.108
| 17> H 	 -70.4162 	 45.0089 	 130.37
| 18> H 	 -71.8852 	 45.5216 	 130.409
| 19> C 	 -71.0539 	 46.1308 	 128.631
| 20> H 	 -71.3602 	 45.2356 	 128.11
| 21> H 	 -71.7679 	 46.9382 	 128.328
| 22> H 	 -70.0901 	 46.38 	 128.303
| 23> S 	 -72.66 	 44.7695 	 135.694
| 24> C 	 -72.6106 	 43.2054 	 136.548
| 25> C 	 -71.299 	 42.8308 	 136.713
| 26> C 	 -70.3042 	 43.5992 	 135.965
| 27> C 	 -70.8808 	 44.613 	 135.305
| 28> H 	 -71.0533 	 42.0001 	 137.309
| 29> C 	 -68.8273 	 43.158 	 135.848
| 30> H 	 -68.4987 	 43.3005 	 134.797
| 31> H 	 -68.7344 	 42.0404 	 136.029
| 32> C 	 -67.902 	 43.8774 	 136.72
| 33> H 	 -67.8425 	 43.4727 	 137.748
| 34> H 	 -68.2521 	 44.9345 	 136.784
| 35> C 	 -66.4794 	 43.8769 	 136.089
| 36> H 	 -66.4318 	 44.176 	 135.066
| 37> H 	 -66.0829 	 42.876 	 136.023
| 38> H 	 -65.859 	 44.4257 	 136.765
| 39> H 	 -68.6573 	 48.1203 	 132.532
| 40> H 	 -73.3335 	 42.6449 	 137.086
| 41> *
| 42>
| 43>                          ****END OF INPUT****

CARTESIAN COORDINATES (ANGSTROEM)
---------------------------------
  S    -68.958500   46.517800  134.502000
  C    -69.253100   47.350900  133.006000
  C    -70.314200   46.789200  132.302000
  C    -70.949500   45.820300  133.089000
  C    -70.413600   45.620800  134.341000
  H    -71.871600   45.174400  132.848000
  C    -70.569100   47.127800  130.930000
  H    -69.730400   47.583400  130.488000
  H    -71.352900   47.863500  130.956000
  C    -70.967400   45.906800  130.108000
  H    -70.416200   45.008900  130.370000
  H    -71.885200   45.521600  130.409000
  C    -71.053900   46.130800  128.631000
  H    -71.360200   45.235600  128.110000
  H    -71.767900   46.938200  128.328000
  H    -70.090100   46.380000  128.303000
  S    -72.660000   44.769500  135.694000
  C    -72.610600   43.205400  136.548000
  C    -71.299000   42.830800  136.713000
  C    -70.304200   43.599200  135.965000
  C    -70.880800   44.613000  135.305000
  H    -71.053300   42.000100  137.309000
  C    -68.827300   43.158000  135.848000
  H    -68.498700   43.300500  134.797000
  H    -68.734400   42.040400  136.029000
  C    -67.902000   43.877400  136.720000
  H    -67.842500   43.472700  137.748000
  H    -68.252100   44.934500  136.784000
  C    -66.479400   43.876900  136.089000
  H    -66.431800   44.176000  135.066000
  H    -66.082900   42.876000  136.023000
  H    -65.859000   44.425700  136.765000
  H    -68.657300   48.120300  132.532000
  H    -73.333500   42.644900  137.086000

 Total Charge           Charge          ....    0
 Multiplicity           Mult            ....    1
 Number of Electrons    NEL             ....  134
 Basis Dimension        Dim             ....  322

ORBITAL ENERGIES
----------------

  NO   OCC          E(Eh)            E(eV)
   0   2.0000     -88.970532     -2421.0113
   1   2.0000     -88.963049     -2420.8076
   2   2.0000     -10.329608      -281.0829
   3   2.0000     -10.325888      -280.9817
   4   2.0000     -10.315241      -280.6920
   5   2.0000     -10.310486      -280.5626
   6   2.0000     -10.301811      -280.3265
   7   2.0000     -10.295664      -280.1593
   8   2.0000     -10.294690      -280.1327
   9   2.0000     -10.294560      -280.1292
  10   2.0000     -10.290739      -280.0252
  11   2.0000     -10.283800      -279.8364
  12   2.0000     -10.282393      -279.7981
  13   2.0000     -10.275774      -279.6180
  14   2.0000     -10.273384      -279.5530
  15   2.0000     -10.269862      -279.4572
  16   2.0000      -8.085111      -220.0071
  17   2.0000      -8.076078      -219.7612
  18   2.0000      -6.043462      -164.4510
  19   2.0000      -6.039661      -164.3475
  20   2.0000      -6.036049      -164.2492
  21   2.0000      -6.034984      -164.2203
  22   2.0000      -6.031012      -164.1122
  23   2.0000      -6.026302      -163.9840
  24   2.0000      -1.010625       -27.5005
  25   2.0000      -0.981711       -26.7137
  26   2.0000      -0.926467       -25.2104
  27   2.0000      -0.913584       -24.8599
  28   2.0000      -0.872382       -23.7387
  29   2.0000      -0.854063       -23.2402
  30   2.0000      -0.844073       -22.9684
  31   2.0000      -0.815950       -22.2031
  32   2.0000      -0.785146       -21.3649
  33   2.0000      -0.774364       -21.0715
  34   2.0000      -0.719699       -19.5840
  35   2.0000      -0.696561       -18.9544
  36   2.0000      -0.689532       -18.7631
  37   2.0000      -0.670107       -18.2345
  38   2.0000      -0.634643       -17.2695
  39   2.0000      -0.617470       -16.8022
  40   2.0000      -0.594871       -16.1873
  41   2.0000      -0.574311       -15.6278
  42   2.0000      -0.571849       -15.5608
  43   2.0000      -0.567194       -15.4341
  44   2.0000      -0.530800       -14.4438
  45   2.0000      -0.528339       -14.3768
  46   2.0000      -0.519134       -14.1264
  47   2.0000      -0.511663       -13.9231
  48   2.0000      -0.505406       -13.7528
  49   2.0000      -0.499233       -13.5848
  50   2.0000      -0.495235       -13.4760
  51   2.0000      -0.479147       -13.0383
  52   2.0000      -0.472544       -12.8586
  53   2.0000      -0.466354       -12.6902
  54   2.0000      -0.460567       -12.5327
  55   2.0000      -0.453448       -12.3390
  56   2.0000      -0.447554       -12.1786
  57   2.0000      -0.442253       -12.0343
  58   2.0000      -0.433388       -11.7931
  59   2.0000      -0.423029       -11.5112
  60   2.0000      -0.414034       -11.2664
  61   2.0000      -0.411828       -11.2064
  62   2.0000      -0.406815       -11.0700
  63   2.0000      -0.348396        -9.4803
  64   2.0000      -0.331992        -9.0340
  65   2.0000      -0.326660        -8.8889
  66   2.0000      -0.294832        -8.0228
  67   0.0000       0.030788         0.8378
  68   0.0000       0.073453         1.9988
  69   0.0000       0.100392         2.7318
  70   0.0000       0.112455         3.0600
  71   0.0000       0.136692         3.7196

MULLIKEN ATOMIC CHARGES
-----------------------
   0 S :    0.117888
   1 C :   -0.112398
   2 C :   -0.104852
   3 C :   -0.021788
   4 C :   -0.141863
   5 H :    0.045575
   6 C :    0.158752
   7 H :   -0.001276
   8 H :    0.032728
   9 C :   -0.092827
  10 H :    0.022486
  11 H :    0.002601
  12 C :   -0.007040
  13 H :    0.027789
  14 H :    0.033323
  15 H :    0.014071
  16 S :    0.084088
  17 C :   -0.057498
  18 C :   -0.035778
  19 C :   -0.017041
  20 C :   -0.170730
  21 H :   -0.001822
  22 C :    0.037002
  23 H :    0.034621
  24 H :    0.033056
  25 C :   -0.084240
  26 H :    0.035961
  27 H :    0.037363
  28 C :   -0.023778
  29 H :    0.026930
  30 H :    0.014626
  31 H :    0.030735
  32 H :    0.040010
  33 H :    0.043327
Sum of atomic charges:    0.0000000

LOEWDIN ATOMIC CHARGES
----------------------
   0 S :    0.438507
   1 C :   -0.203491
   2 C :   -0.063479
   3 C :   -0.073551
   4 C :   -0.214444
   5 H :    0.043550
   6 C :   -0.022879
   7 H :    0.023655
   8 H :    0.037741
   9 C :   -0.042200
  10 H :    0.028126
  11 H :    0.014839
  12 C :   -0.056740
  13 H :    0.027429
  14 H :    0.030879
  15 H :    0.015116
  16 S :    0.355989
  17 C :   -0.174709
  18 C :   -0.059994
  19 C :   -0.060134
  20 C :   -0.158695
  21 H :    0.019815
  22 C :   -0.038335
  23 H :    0.033310
  24 H :    0.036448
  25 C :   -0.047537
  26 H :    0.028392
  27 H :    0.019472
  28 C :   -0.058349
  29 H :    0.019695
  30 H :    0.021665
  31 H :    0.023651
  32 H :    0.027378
  33 H :    0.028879

  Mayer bond orders larger than 0.100000
B(  0-S ,  1-C ) :   1.1490 B(  0-S ,  4-C ) :   1.1608 B(  1-C ,  2-C ) :   1.5825
B(  1-C , 32-H ) :   0.9683 B(  2-C ,  3-C ) :   1.2662 B(  2-C ,  6-C ) :   1.0372
B(  3-C ,  4-C ) :   1.5465 B(  3-C ,  5-H ) :   0.9771 B(  4-C , 20-C ) :   1.0160
B(  6-C ,  7-H ) :   0.9374 B(  6-C ,  8-H ) :   0.9066 B(  6-C ,  9-C ) :   1.0677
B(  9-C , 10-H ) :   0.9553 B(  9-C , 11-H ) :   0.9352 B(  9-C , 12-C ) :   1.1017
B( 12-C , 13-H ) :   0.9695 B( 12-C , 14-H ) :   0.9711 B( 12-C , 15-H ) :   0.9742
B( 16-S , 17-C ) :   1.1041 B( 16-S , 20-C ) :   1.1030 B( 17-C , 18-C ) :   1.6833
B( 17-C , 33-H ) :   0.9667 B( 18-C , 19-C ) :   1.1818 B( 18-C , 21-H ) :   0.9860
B( 19-C , 20-C ) :   1.6852 B( 19-C , 22-C ) :   1.0296 B( 22-C , 23-H ) :   0.9444
B( 22-C , 24-H ) :   0.9300 B( 22-C , 25-C ) :   1.0664 B( 25-C , 26-H ) :   0.9468
B( 25-C , 27-H ) :   0.9557 B( 25-C , 28-C ) :   1.0818 B( 28-C , 29-H ) :   0.9746
B( 28-C , 30-H ) :   0.9709 B( 28-C , 31-H ) :   0.9741

Dispersion correction           -0.014362310
FINAL SINGLE POINT ENERGY     -1339.863674908300

DIPOLE MOMENT
-------------
                                X             Y             Z
Electronic contribution:    -10.66773       4.44209      14.59507
Nuclear contribution   :     10.90800      -4.74091     -14.95598
                        -----------------------------------------
Total Dipole Moment    :      0.24026      -0.29882      -0.36092
                        -----------------------------------------
Magnitude (a.u.)       :      0.52657
Magnitude (Debye)      :      1.33844

Rotational constants in cm-1:     0.018512     0.008703     0.006882
Rotational constants in MHz :   554.962567   260.907111   206.303385

                             ****ORCA TERMINATED NORMALLY****
TOTAL RUN TIME: 0 days 0 hours 0 minutes 33 seconds 55 msec
