                         Program Version 4.2.1 -  RELEASE  -
|  1> ! wB97X-D3 SP def2-SVP
|  2> %pal
|  3> nprocs 16
|  4> end
|  5>
|  6> * xyz 0 1
|  7> S 	 -10.9522 	 59.5271 	 56.1032
|  8> C 	 -10.0426 	 59.2725 	 54.6385
|  9> C 	 -9.12964 	 60.2815 	 54.405
| 10> C 	 -9.20375 	 61.2738 	 55.4487
| 11> C 	 -10.1718 	 61.051 	 56.3946
| 12> H 	 -8.59227 	 62.1692 	 55.4831
| 13> C 	 -8.12519 	 60.3264 	 53.2929
| 14> H 	 -7.66361 	 59.3231 	 53.1335
| 15> H 	 -7.31889 	 60.8867 	 53.7743
| 16> C 	 -8.51889 	 61.0111 	 51.9616
| 17> H 	 -7.82312 	 60.7789 	 51.1836
| 18> H 	 -9.39355 	 60.4964 	 51.6579
| 19> C 	 -8.84715 	 62.5108 	 52.0389
| 20> H 	 -9.66325 	 62.6157 	 52.7949
| 21> H 	 -8.10727 	 63.1284 	 52.4939
| 22> H 	 -9.02557 	 63.0343 	 51.1151
| 23> S 	 -11.0202 	 60.9111 	 58.9755
| 24> C 	 -11.1518 	 62.4228 	 59.9075
| 25> C 	 -10.6782 	 63.5171 	 59.1683
| 26> C 	 -10.361 	 63.1903 	 57.8111
| 27> C 	 -10.4453 	 61.822 	 57.5818
| 28> H 	 -10.5666 	 64.4833 	 59.7205
| 29> C 	 -10.2427 	 64.3141 	 56.6943
| 30> H 	 -11.0709 	 64.9973 	 56.7706
| 31> H 	 -10.4858 	 63.8479 	 55.765
| 32> C 	 -9.11627 	 65.2892 	 56.589
| 33> H 	 -8.24447 	 64.6233 	 56.6578
| 34> H 	 -9.1528 	 65.8649 	 57.4842
| 35> C 	 -9.27154 	 66.1858 	 55.3236
| 36> H 	 -9.00227 	 67.1528 	 55.536
| 37> H 	 -10.3206 	 66.1676 	 55.0118
| 38> H 	 -8.59806 	 65.9829 	 54.5297
| 39> H 	 -9.9187 	 58.443 	 54.0241
| 40> H 	 -11.4252 	 62.5771 	 60.979
| 41> *
| 42>
| 43>                          ****END OF INPUT****

CARTESIAN COORDINATES (ANGSTROEM)
---------------------------------
  S    -10.952200   59.527100   56.103200
  C    -10.042600   59.272500   54.638500
  C     -9.129640   60.281500   54.405000
  C     -9.203750   61.273800   55.448700
  C    -10.171800   61.051000   56.394600
  H     -8.592270   62.169200   55.483100
  C     -8.125190   60.326400   53.292900
  H     -7.663610   59.323100   53.133500
  H     -7.318890   60.886700   53.774300
  C     -8.518890   61.011100   51.961600
  H     -7.823120   60.778900   51.183600
  H     -9.393550   60.496400   51.657900
  C     -8.847150   62.510800   52.038900
  H     -9.663250   62.615700   52.794900
  H     -8.107270   63.128400   52.493900
  H     -9.025570   63.034300   51.115100
  S    -11.020200   60.911100   58.975500
  C    -11.151800   62.422800   59.907500
  C    -10.678200   63.517100   59.168300
  C    -10.361000   63.190300   57.811100
  C    -10.445300   61.822000   57.581800
  H    -10.566600   64.483300   59.720500
  C    -10.242700   64.314100   56.694300
  H    -11.070900   64.997300   56.770600
  H    -10.485800   63.847900   55.765000
  C     -9.116270   65.289200   56.589000
  H     -8.244470   64.623300   56.657800
  H     -9.152800   65.864900   57.484200
  C     -9.271540   66.185800   55.323600
  H     -9.002270   67.152800   55.536000
  H    -10.320600   66.167600   55.011800
  H     -8.598060   65.982900   54.529700
  H     -9.918700   58.443000   54.024100
  H    -11.425200   62.577100   60.979000

 Total Charge           Charge          ....    0
 Multiplicity           Mult            ....    1
 Number of Electrons    NEL             ....  134
 Basis Dimension        Dim             ....  322

ORBITAL ENERGIES
----------------

  NO   OCC          E(Eh)            E(eV)
   0   2.0000     -88.971063     -2421.0257
   1   2.0000     -88.969217     -2420.9755
   2   2.0000     -10.331445      -281.1329
   3   2.0000     -10.327288      -281.0198
   4   2.0000     -10.324478      -280.9433
   5   2.0000     -10.311146      -280.5805
   6   2.0000     -10.307207      -280.4734
   7   2.0000     -10.301466      -280.3171
   8   2.0000     -10.299461      -280.2626
   9   2.0000     -10.295819      -280.1635
  10   2.0000     -10.292659      -280.0775
  11   2.0000     -10.287967      -279.9498
  12   2.0000     -10.285240      -279.8756
  13   2.0000     -10.284979      -279.8685
  14   2.0000     -10.276854      -279.6474
  15   2.0000     -10.275542      -279.6117
  16   2.0000      -8.084952      -220.0027
  17   2.0000      -8.083989      -219.9765
  18   2.0000      -6.043588      -164.4544
  19   2.0000      -6.042618      -164.4280
  20   2.0000      -6.039686      -164.3482
  21   2.0000      -6.038490      -164.3157
  22   2.0000      -6.035503      -164.2344
  23   2.0000      -6.034620      -164.2104
  24   2.0000      -1.009498       -27.4698
  25   2.0000      -0.981653       -26.7121
  26   2.0000      -0.914484       -24.8844
  27   2.0000      -0.911725       -24.8093
  28   2.0000      -0.870663       -23.6919
  29   2.0000      -0.853699       -23.2303
  30   2.0000      -0.843666       -22.9573
  31   2.0000      -0.814902       -22.1746
  32   2.0000      -0.788736       -21.4626
  33   2.0000      -0.778917       -21.1954
  34   2.0000      -0.713984       -19.4285
  35   2.0000      -0.710932       -19.3454
  36   2.0000      -0.698284       -19.0013
  37   2.0000      -0.659863       -17.9558
  38   2.0000      -0.635674       -17.2976
  39   2.0000      -0.617045       -16.7906
  40   2.0000      -0.595753       -16.2113
  41   2.0000      -0.571170       -15.5423
  42   2.0000      -0.568344       -15.4654
  43   2.0000      -0.552740       -15.0408
  44   2.0000      -0.538551       -14.6547
  45   2.0000      -0.526607       -14.3297
  46   2.0000      -0.514902       -14.0112
  47   2.0000      -0.510185       -13.8828
  48   2.0000      -0.505203       -13.7473
  49   2.0000      -0.497262       -13.5312
  50   2.0000      -0.488268       -13.2864
  51   2.0000      -0.484823       -13.1927
  52   2.0000      -0.473827       -12.8935
  53   2.0000      -0.470220       -12.7953
  54   2.0000      -0.464490       -12.6394
  55   2.0000      -0.448926       -12.2159
  56   2.0000      -0.447862       -12.1870
  57   2.0000      -0.439137       -11.9495
  58   2.0000      -0.432225       -11.7614
  59   2.0000      -0.429865       -11.6972
  60   2.0000      -0.422037       -11.4842
  61   2.0000      -0.412416       -11.2224
  62   2.0000      -0.411761       -11.2046
  63   2.0000      -0.356769        -9.7082
  64   2.0000      -0.335337        -9.1250
  65   2.0000      -0.330313        -8.9883
  66   2.0000      -0.286014        -7.7828
  67   0.0000       0.020294         0.5522
  68   0.0000       0.078611         2.1391
  69   0.0000       0.096465         2.6249
  70   0.0000       0.112891         3.0719
  71   0.0000       0.127417         3.4672

MULLIKEN ATOMIC CHARGES
-----------------------
   0 S :    0.111827
   1 C :   -0.059040
   2 C :   -0.133216
   3 C :    0.011053
   4 C :   -0.126275
   5 H :    0.005690
   6 C :    0.035207
   7 H :    0.035829
   8 H :    0.020075
   9 C :   -0.000335
  10 H :    0.022731
  11 H :    0.014267
  12 C :   -0.057364
  13 H :    0.039797
  14 H :    0.010076
  15 H :    0.038294
  16 S :    0.105845
  17 C :   -0.115675
  18 C :   -0.057175
  19 C :   -0.012735
  20 C :   -0.132699
  21 H :    0.042214
  22 C :    0.004215
  23 H :    0.015354
  24 H :    0.018608
  25 C :   -0.040628
  26 H :    0.026374
  27 H :    0.018008
  28 C :    0.001635
  29 H :    0.007868
  30 H :    0.035068
  31 H :    0.029747
  32 H :    0.012220
  33 H :    0.073139
Sum of atomic charges:   -0.0000000

LOEWDIN ATOMIC CHARGES
----------------------
   0 S :    0.412978
   1 C :   -0.193792
   2 C :   -0.063491
   3 C :   -0.064749
   4 C :   -0.196353
   5 H :    0.029067
   6 C :   -0.036221
   7 H :    0.037880
   8 H :    0.030947
   9 C :   -0.032962
  10 H :    0.021525
  11 H :    0.021050
  12 C :   -0.070316
  13 H :    0.033664
  14 H :    0.017496
  15 H :    0.027651
  16 S :    0.389701
  17 C :   -0.191568
  18 C :   -0.073004
  19 C :   -0.057667
  20 C :   -0.184519
  21 H :    0.040892
  22 C :   -0.035273
  23 H :    0.026656
  24 H :    0.022511
  25 C :   -0.037484
  26 H :    0.021910
  27 H :    0.018686
  28 C :   -0.051989
  29 H :    0.018287
  30 H :    0.031186
  31 H :    0.027636
  32 H :    0.018471
  33 H :    0.041196

  Mayer bond orders larger than 0.100000
B(  0-S ,  1-C ) :   1.1286 B(  0-S ,  4-C ) :   1.1384 B(  1-C ,  2-C ) :   1.6289
B(  1-C , 32-H ) :   0.9657 B(  2-C ,  3-C ) :   1.2424 B(  2-C ,  6-C ) :   1.0181
B(  3-C ,  4-C ) :   1.5689 B(  3-C ,  5-H ) :   0.9921 B(  4-C , 20-C ) :   1.0740
B(  6-C ,  7-H ) :   0.9403 B(  6-C ,  8-H ) :   0.9413 B(  6-C ,  9-C ) :   1.0612
B(  9-C , 10-H ) :   0.9559 B(  9-C , 11-H ) :   0.9533 B(  9-C , 12-C ) :   1.0723
B( 12-C , 13-H ) :   0.9729 B( 12-C , 14-H ) :   0.9746 B( 12-C , 15-H ) :   0.9740
B( 16-S , 17-C ) :   1.1295 B( 16-S , 20-C ) :   1.1291 B( 17-C , 18-C ) :   1.6486
B( 17-C , 33-H ) :   0.9603 B( 18-C , 19-C ) :   1.2232 B( 18-C , 21-H ) :   0.9781
B( 19-C , 20-C ) :   1.6067 B( 19-C , 22-C ) :   1.0184 B( 22-C , 23-H ) :   0.9381
B( 22-C , 24-H ) :   0.9451 B( 22-C , 25-C ) :   1.0548 B( 25-C , 26-H ) :   0.9599
B( 25-C , 27-H ) :   0.9575 B( 25-C , 28-C ) :   1.0621 B( 28-C , 29-H ) :   0.9699
B( 28-C , 30-H ) :   0.9769 B( 28-C , 31-H ) :   0.9727

Dispersion correction           -0.014553489
FINAL SINGLE POINT ENERGY     -1339.858174264624

DIPOLE MOMENT
-------------
                                X             Y             Z
Electronic contribution:    -11.99419     -21.49729      21.50648
Nuclear contribution   :     12.37915      22.07770     -21.81592
                        -----------------------------------------
Total Dipole Moment    :      0.38497       0.58041      -0.30944
                        -----------------------------------------
Magnitude (a.u.)       :      0.76212
Magnitude (Debye)      :      1.93716

Rotational constants in cm-1:     0.016291     0.010494     0.006651
Rotational constants in MHz :   488.401625   314.610120   199.380278

                             ****ORCA TERMINATED NORMALLY****
TOTAL RUN TIME: 0 days 0 hours 0 minutes 33 seconds 289 msec
