                         Program Version 4.2.1 -  RELEASE  -
|  1> ! wB97X-D3 SP def2-SVP
|  2> %pal
|  3> nprocs 16
|  4> end
|  5>
|  6> * xyz 0 1
|  7> S 	 -56.1032 	 17.4493 	 87.9377
|  8> C 	 -54.6794 	 17.4551 	 86.9771
|  9> C 	 -54.5419 	 18.613 	 86.2631
| 10> C 	 -55.7046 	 19.4922 	 86.5329
| 11> C 	 -56.7069 	 18.9283 	 87.3001
| 12> H 	 -55.8957 	 20.4511 	 86.108
| 13> C 	 -53.3822 	 18.994 	 85.3314
| 14> H 	 -52.6457 	 18.2033 	 85.6386
| 15> H 	 -52.9679 	 19.9318 	 85.7419
| 16> C 	 -53.6851 	 18.9927 	 83.8595
| 17> H 	 -52.8192 	 18.8403 	 83.2571
| 18> H 	 -54.4107 	 18.1854 	 83.5797
| 19> C 	 -54.3465 	 20.1786 	 83.343
| 20> H 	 -55.3326 	 20.2125 	 83.7547
| 21> H 	 -53.9417 	 21.1753 	 83.4888
| 22> H 	 -54.4662 	 19.9712 	 82.2508
| 23> S 	 -58.6061 	 20.1047 	 85.9733
| 24> C 	 -60.2576 	 20.1849 	 86.6655
| 25> C 	 -60.2456 	 19.8346 	 88.05
| 26> C 	 -58.9728 	 19.391 	 88.4763
| 27> C 	 -58.0617 	 19.5057 	 87.4818
| 28> H 	 -61.1801 	 19.7671 	 88.6559
| 29> C 	 -58.7143 	 18.8681 	 89.8653
| 30> H 	 -57.9622 	 17.9936 	 89.8178
| 31> H 	 -59.5804 	 18.4071 	 90.3024
| 32> C 	 -58.0959 	 19.8801 	 90.8546
| 33> H 	 -58.9103 	 20.5844 	 91.1473
| 34> H 	 -57.3435 	 20.4653 	 90.3411
| 35> C 	 -57.415 	 19.1627 	 92.0397
| 36> H 	 -57.0085 	 19.8222 	 92.8238
| 37> H 	 -56.5303 	 18.5919 	 91.6698
| 38> H 	 -58.0484 	 18.5035 	 92.6158
| 39> H 	 -53.9116 	 16.7351 	 86.901
| 40> H 	 -61.0828 	 20.4815 	 85.9223
| 41> *
| 42>
| 43>                          ****END OF INPUT****

CARTESIAN COORDINATES (ANGSTROEM)
---------------------------------
  S    -56.103200   17.449300   87.937700
  C    -54.679400   17.455100   86.977100
  C    -54.541900   18.613000   86.263100
  C    -55.704600   19.492200   86.532900
  C    -56.706900   18.928300   87.300100
  H    -55.895700   20.451100   86.108000
  C    -53.382200   18.994000   85.331400
  H    -52.645700   18.203300   85.638600
  H    -52.967900   19.931800   85.741900
  C    -53.685100   18.992700   83.859500
  H    -52.819200   18.840300   83.257100
  H    -54.410700   18.185400   83.579700
  C    -54.346500   20.178600   83.343000
  H    -55.332600   20.212500   83.754700
  H    -53.941700   21.175300   83.488800
  H    -54.466200   19.971200   82.250800
  S    -58.606100   20.104700   85.973300
  C    -60.257600   20.184900   86.665500
  C    -60.245600   19.834600   88.050000
  C    -58.972800   19.391000   88.476300
  C    -58.061700   19.505700   87.481800
  H    -61.180100   19.767100   88.655900
  C    -58.714300   18.868100   89.865300
  H    -57.962200   17.993600   89.817800
  H    -59.580400   18.407100   90.302400
  C    -58.095900   19.880100   90.854600
  H    -58.910300   20.584400   91.147300
  H    -57.343500   20.465300   90.341100
  C    -57.415000   19.162700   92.039700
  H    -57.008500   19.822200   92.823800
  H    -56.530300   18.591900   91.669800
  H    -58.048400   18.503500   92.615800
  H    -53.911600   16.735100   86.901000
  H    -61.082800   20.481500   85.922300

 Total Charge           Charge          ....    0
 Multiplicity           Mult            ....    1
 Number of Electrons    NEL             ....  134
 Basis Dimension        Dim             ....  322

ORBITAL ENERGIES
----------------

  NO   OCC          E(Eh)            E(eV)
   0   2.0000     -88.968878     -2420.9662
   1   2.0000     -88.964327     -2420.8424
   2   2.0000     -10.332801      -281.1698
   3   2.0000     -10.327855      -281.0352
   4   2.0000     -10.324397      -280.9411
   5   2.0000     -10.307351      -280.4773
   6   2.0000     -10.306158      -280.4448
   7   2.0000     -10.301703      -280.3236
   8   2.0000     -10.301609      -280.3210
   9   2.0000     -10.296532      -280.1829
  10   2.0000     -10.296499      -280.1820
  11   2.0000     -10.288963      -279.9769
  12   2.0000     -10.288803      -279.9726
  13   2.0000     -10.280500      -279.7466
  14   2.0000     -10.279760      -279.7265
  15   2.0000     -10.269097      -279.4363
  16   2.0000      -8.083779      -219.9708
  17   2.0000      -8.079578      -219.8565
  18   2.0000      -6.042136      -164.4149
  19   2.0000      -6.038342      -164.3116
  20   2.0000      -6.038225      -164.3085
  21   2.0000      -6.034577      -164.2092
  22   2.0000      -6.033927      -164.1915
  23   2.0000      -6.030258      -164.0917
  24   2.0000      -1.012769       -27.5588
  25   2.0000      -0.987097       -26.8603
  26   2.0000      -0.919990       -25.0342
  27   2.0000      -0.908310       -24.7164
  28   2.0000      -0.873557       -23.7707
  29   2.0000      -0.855802       -23.2876
  30   2.0000      -0.843307       -22.9476
  31   2.0000      -0.810288       -22.0490
  32   2.0000      -0.783121       -21.3098
  33   2.0000      -0.772835       -21.0299
  34   2.0000      -0.701754       -19.0957
  35   2.0000      -0.696739       -18.9592
  36   2.0000      -0.687645       -18.7118
  37   2.0000      -0.673950       -18.3391
  38   2.0000      -0.637753       -17.3541
  39   2.0000      -0.611242       -16.6327
  40   2.0000      -0.597310       -16.2536
  41   2.0000      -0.573908       -15.6168
  42   2.0000      -0.563984       -15.3468
  43   2.0000      -0.556515       -15.1435
  44   2.0000      -0.538444       -14.6518
  45   2.0000      -0.524983       -14.2855
  46   2.0000      -0.520140       -14.1537
  47   2.0000      -0.514360       -13.9964
  48   2.0000      -0.507415       -13.8075
  49   2.0000      -0.494583       -13.4583
  50   2.0000      -0.488411       -13.2903
  51   2.0000      -0.475612       -12.9421
  52   2.0000      -0.473204       -12.8765
  53   2.0000      -0.464579       -12.6418
  54   2.0000      -0.457863       -12.4591
  55   2.0000      -0.446829       -12.1588
  56   2.0000      -0.436224       -11.8703
  57   2.0000      -0.434621       -11.8266
  58   2.0000      -0.431460       -11.7406
  59   2.0000      -0.430155       -11.7051
  60   2.0000      -0.425071       -11.5668
  61   2.0000      -0.412239       -11.2176
  62   2.0000      -0.406625       -11.0648
  63   2.0000      -0.353970        -9.6320
  64   2.0000      -0.336243        -9.1496
  65   2.0000      -0.324719        -8.8361
  66   2.0000      -0.288914        -7.8617
  67   0.0000       0.028717         0.7814
  68   0.0000       0.074394         2.0244
  69   0.0000       0.100248         2.7279
  70   0.0000       0.124604         3.3906
  71   0.0000       0.128193         3.4883

MULLIKEN ATOMIC CHARGES
-----------------------
   0 S :    0.100787
   1 C :   -0.083768
   2 C :   -0.126653
   3 C :   -0.011677
   4 C :   -0.107387
   5 H :    0.005039
   6 C :    0.071466
   7 H :    0.016607
   8 H :    0.041209
   9 C :   -0.029626
  10 H :    0.023296
  11 H :    0.035625
  12 C :   -0.058583
  13 H :    0.018283
  14 H :    0.029802
  15 H :    0.034088
  16 S :    0.099969
  17 C :   -0.146501
  18 C :   -0.030520
  19 C :   -0.048984
  20 C :   -0.119989
  21 H :    0.039788
  22 C :    0.021086
  23 H :    0.033882
  24 H :    0.018910
  25 C :   -0.045191
  26 H :    0.033501
  27 H :    0.034962
  28 C :   -0.067341
  29 H :    0.033039
  30 H :    0.043613
  31 H :    0.026625
  32 H :    0.022131
  33 H :    0.092512
Sum of atomic charges:   -0.0000000

LOEWDIN ATOMIC CHARGES
----------------------
   0 S :    0.426321
   1 C :   -0.207549
   2 C :   -0.058041
   3 C :   -0.086274
   4 C :   -0.201960
   5 H :    0.014200
   6 C :   -0.034298
   7 H :    0.034524
   8 H :    0.036364
   9 C :   -0.047491
  10 H :    0.021484
  11 H :    0.039298
  12 C :   -0.067035
  13 H :    0.018982
  14 H :    0.020127
  15 H :    0.034947
  16 S :    0.423530
  17 C :   -0.187988
  18 C :   -0.065286
  19 C :   -0.067845
  20 C :   -0.195051
  21 H :    0.040971
  22 C :   -0.035941
  23 H :    0.029179
  24 H :    0.026214
  25 C :   -0.037318
  26 H :    0.026528
  27 H :    0.026059
  28 C :   -0.072635
  29 H :    0.028486
  30 H :    0.032286
  31 H :    0.020582
  32 H :    0.022155
  33 H :    0.042473

  Mayer bond orders larger than 0.100000
B(  0-S ,  1-C ) :   1.1290 B(  0-S ,  4-C ) :   1.1413 B(  1-C ,  2-C ) :   1.6528
B(  1-C , 32-H ) :   0.9639 B(  2-C ,  3-C ) :   1.2081 B(  2-C ,  6-C ) :   1.0142
B(  3-C ,  4-C ) :   1.5722 B(  3-C ,  5-H ) :   0.9924 B(  4-C , 20-C ) :   1.0265
B(  6-C ,  7-H ) :   0.9346 B(  6-C ,  8-H ) :   0.9434 B(  6-C ,  9-C ) :   1.0575
B(  9-C , 10-H ) :   0.9552 B(  9-C , 11-H ) :   0.9505 B(  9-C , 12-C ) :   1.0892
B( 12-C , 13-H ) :   0.9699 B( 12-C , 14-H ) :   0.9749 B( 12-C , 15-H ) :   0.9681
B( 16-S , 17-C ) :   1.1595 B( 16-S , 20-C ) :   1.1558 B( 17-C , 18-C ) :   1.5708
B( 17-C , 33-H ) :   0.9622 B( 18-C , 19-C ) :   1.2480 B( 18-C , 21-H ) :   0.9845
B( 19-C , 20-C ) :   1.6050 B( 19-C , 22-C ) :   1.0456 B( 22-C , 23-H ) :   0.9394
B( 22-C , 24-H ) :   0.9289 B( 22-C , 25-C ) :   1.0488 B( 25-C , 26-H ) :   0.9536
B( 25-C , 27-H ) :   0.9604 B( 25-C , 28-C ) :   1.0769 B( 28-C , 29-H ) :   0.9737
B( 28-C , 30-H ) :   0.9727 B( 28-C , 31-H ) :   0.9764

Dispersion correction           -0.014485727
FINAL SINGLE POINT ENERGY     -1339.868196344169

DIPOLE MOMENT
-------------
                                X             Y             Z
Electronic contribution:     -9.37461      -3.60605      -3.13419
Nuclear contribution   :      9.38573       3.66741       3.10392
                        -----------------------------------------
Total Dipole Moment    :      0.01112       0.06137      -0.03027
                        -----------------------------------------
Magnitude (a.u.)       :      0.06932
Magnitude (Debye)      :      0.17621

Rotational constants in cm-1:     0.020311     0.009031     0.006858
Rotational constants in MHz :   608.897450   270.751241   205.600951

                             ****ORCA TERMINATED NORMALLY****
TOTAL RUN TIME: 0 days 0 hours 0 minutes 30 seconds 561 msec
