                         Program Version 4.2.1 -  RELEASE  -
|  1> ! wB97X-D3 SP def2-SVP
|  2> %pal
|  3> nprocs 16
|  4> end
|  5>
|  6> * xyz 0 1
|  7> S 	 53.2614 	 23.9846 	 92.9045
|  8> C 	 51.5185 	 24.0503 	 93.1373
|  9> C 	 51.1036 	 23.0378 	 93.9333
| 10> C 	 52.1705 	 22.0979 	 94.2439
| 11> C 	 53.3776 	 22.3958 	 93.7218
| 12> H 	 52.0483 	 21.1134 	 94.765
| 13> C 	 49.6294 	 22.7505 	 94.2499
| 14> H 	 49.2668 	 21.9154 	 93.6181
| 15> H 	 49.1506 	 23.6432 	 93.7729
| 16> C 	 49.2201 	 22.7926 	 95.7714
| 17> H 	 48.1703 	 22.4997 	 96.0045
| 18> H 	 49.6467 	 21.9113 	 96.2475
| 19> C 	 49.6719 	 24.1163 	 96.4275
| 20> H 	 50.799 	 24.1281 	 96.5688
| 21> H 	 49.4653 	 24.9255 	 95.707
| 22> H 	 49.2361 	 24.3153 	 97.3704
| 23> S 	 55.8161 	 22.1645 	 94.7413
| 24> C 	 56.7103 	 20.6941 	 94.5502
| 25> C 	 55.9913 	 19.7715 	 93.8334
| 26> C 	 54.6961 	 20.1388 	 93.4548
| 27> C 	 54.5306 	 21.5252 	 93.7363
| 28> H 	 56.379 	 18.7844 	 93.6637
| 29> C 	 53.9136 	 19.2573 	 92.4904
| 30> H 	 54.5989 	 18.4661 	 92.0376
| 31> H 	 53.7336 	 19.7264 	 91.4962
| 32> C 	 52.5498 	 18.663 	 92.9466
| 33> H 	 52.2609 	 17.8941 	 92.2442
| 34> H 	 51.8111 	 19.4446 	 92.8534
| 35> C 	 52.4948 	 18.0314 	 94.3767
| 36> H 	 53.1109 	 17.1951 	 94.495
| 37> H 	 51.431 	 17.5499 	 94.4387
| 38> H 	 52.5699 	 18.722 	 95.233
| 39> H 	 50.8835 	 24.9052 	 92.7
| 40> H 	 57.6886 	 20.4208 	 94.9936
| 41> *
| 42>
| 43>                          ****END OF INPUT****

CARTESIAN COORDINATES (ANGSTROEM)
---------------------------------
  S     53.261400   23.984600   92.904500
  C     51.518500   24.050300   93.137300
  C     51.103600   23.037800   93.933300
  C     52.170500   22.097900   94.243900
  C     53.377600   22.395800   93.721800
  H     52.048300   21.113400   94.765000
  C     49.629400   22.750500   94.249900
  H     49.266800   21.915400   93.618100
  H     49.150600   23.643200   93.772900
  C     49.220100   22.792600   95.771400
  H     48.170300   22.499700   96.004500
  H     49.646700   21.911300   96.247500
  C     49.671900   24.116300   96.427500
  H     50.799000   24.128100   96.568800
  H     49.465300   24.925500   95.707000
  H     49.236100   24.315300   97.370400
  S     55.816100   22.164500   94.741300
  C     56.710300   20.694100   94.550200
  C     55.991300   19.771500   93.833400
  C     54.696100   20.138800   93.454800
  C     54.530600   21.525200   93.736300
  H     56.379000   18.784400   93.663700
  C     53.913600   19.257300   92.490400
  H     54.598900   18.466100   92.037600
  H     53.733600   19.726400   91.496200
  C     52.549800   18.663000   92.946600
  H     52.260900   17.894100   92.244200
  H     51.811100   19.444600   92.853400
  C     52.494800   18.031400   94.376700
  H     53.110900   17.195100   94.495000
  H     51.431000   17.549900   94.438700
  H     52.569900   18.722000   95.233000
  H     50.883500   24.905200   92.700000
  H     57.688600   20.420800   94.993600

 Total Charge           Charge          ....    0
 Multiplicity           Mult            ....    1
 Number of Electrons    NEL             ....  134
 Basis Dimension        Dim             ....  322

ORBITAL ENERGIES
----------------

  NO   OCC          E(Eh)            E(eV)
   0   2.0000     -88.969248     -2420.9763
   1   2.0000     -88.960414     -2420.7359
   2   2.0000     -10.329892      -281.0907
   3   2.0000     -10.325921      -280.9826
   4   2.0000     -10.320868      -280.8451
   5   2.0000     -10.315822      -280.7078
   6   2.0000     -10.308510      -280.5088
   7   2.0000     -10.301958      -280.3305
   8   2.0000     -10.301006      -280.3046
   9   2.0000     -10.300548      -280.2922
  10   2.0000     -10.294035      -280.1149
  11   2.0000     -10.293141      -280.0906
  12   2.0000     -10.290209      -280.0108
  13   2.0000     -10.287337      -279.9327
  14   2.0000     -10.284733      -279.8618
  15   2.0000     -10.279647      -279.7234
  16   2.0000      -8.084178      -219.9817
  17   2.0000      -8.074921      -219.7298
  18   2.0000      -6.042516      -164.4252
  19   2.0000      -6.038588      -164.3183
  20   2.0000      -6.035169      -164.2253
  21   2.0000      -6.033642      -164.1837
  22   2.0000      -6.029561      -164.0727
  23   2.0000      -6.025340      -163.9578
  24   2.0000      -1.007879       -27.4258
  25   2.0000      -0.984500       -26.7896
  26   2.0000      -0.903859       -24.5952
  27   2.0000      -0.901820       -24.5398
  28   2.0000      -0.871485       -23.7143
  29   2.0000      -0.850914       -23.1546
  30   2.0000      -0.837962       -22.8021
  31   2.0000      -0.812718       -22.1152
  32   2.0000      -0.782216       -21.2852
  33   2.0000      -0.768756       -20.9189
  34   2.0000      -0.713338       -19.4109
  35   2.0000      -0.700130       -19.0515
  36   2.0000      -0.686415       -18.6783
  37   2.0000      -0.660140       -17.9633
  38   2.0000      -0.637186       -17.3387
  39   2.0000      -0.614077       -16.7099
  40   2.0000      -0.594500       -16.1772
  41   2.0000      -0.561018       -15.2661
  42   2.0000      -0.554512       -15.0890
  43   2.0000      -0.550288       -14.9741
  44   2.0000      -0.537009       -14.6128
  45   2.0000      -0.528417       -14.3790
  46   2.0000      -0.509651       -13.8683
  47   2.0000      -0.507460       -13.8087
  48   2.0000      -0.501085       -13.6352
  49   2.0000      -0.490215       -13.3394
  50   2.0000      -0.483811       -13.1652
  51   2.0000      -0.481712       -13.1080
  52   2.0000      -0.469757       -12.7827
  53   2.0000      -0.467476       -12.7207
  54   2.0000      -0.451955       -12.2983
  55   2.0000      -0.446955       -12.1623
  56   2.0000      -0.444461       -12.0944
  57   2.0000      -0.439122       -11.9491
  58   2.0000      -0.434234       -11.8161
  59   2.0000      -0.423538       -11.5250
  60   2.0000      -0.418891       -11.3986
  61   2.0000      -0.410014       -11.1570
  62   2.0000      -0.402469       -10.9518
  63   2.0000      -0.346382        -9.4255
  64   2.0000      -0.334310        -9.0970
  65   2.0000      -0.326995        -8.8980
  66   2.0000      -0.297923        -8.1069
  67   0.0000       0.031003         0.8436
  68   0.0000       0.063128         1.7178
  69   0.0000       0.113654         3.0927
  70   0.0000       0.120254         3.2723
  71   0.0000       0.125040         3.4025

MULLIKEN ATOMIC CHARGES
-----------------------
   0 S :    0.090715
   1 C :   -0.162117
   2 C :   -0.084377
   3 C :    0.025684
   4 C :   -0.138403
   5 H :    0.026221
   6 C :    0.027664
   7 H :    0.052706
   8 H :    0.014600
   9 C :   -0.065332
  10 H :    0.029810
  11 H :    0.019327
  12 C :   -0.049282
  13 H :    0.054153
  14 H :    0.028417
  15 H :    0.032884
  16 S :    0.119190
  17 C :   -0.084502
  18 C :   -0.050054
  19 C :    0.024899
  20 C :   -0.178237
  21 H :    0.009161
  22 C :   -0.000640
  23 H :    0.025509
  24 H :    0.043340
  25 C :   -0.057309
  26 H :    0.025165
  27 H :    0.034138
  28 C :   -0.071602
  29 H :    0.024134
  30 H :    0.033846
  31 H :    0.051036
  32 H :    0.085425
  33 H :    0.063832
Sum of atomic charges:   -0.0000000

LOEWDIN ATOMIC CHARGES
----------------------
   0 S :    0.367602
   1 C :   -0.197673
   2 C :   -0.075224
   3 C :   -0.063468
   4 C :   -0.195033
   5 H :    0.039565
   6 C :   -0.035354
   7 H :    0.036093
   8 H :    0.028570
   9 C :   -0.050704
  10 H :    0.028930
  11 H :    0.019867
  12 C :   -0.064389
  13 H :    0.038418
  14 H :    0.026320
  15 H :    0.019936
  16 S :    0.431007
  17 C :   -0.201865
  18 C :   -0.071499
  19 C :   -0.055367
  20 C :   -0.189575
  21 H :    0.027560
  22 C :   -0.045193
  23 H :    0.036597
  24 H :    0.041913
  25 C :   -0.040073
  26 H :    0.026591
  27 H :    0.021308
  28 C :   -0.070782
  29 H :    0.015158
  30 H :    0.038180
  31 H :    0.025120
  32 H :    0.048909
  33 H :    0.038556

  Mayer bond orders larger than 0.100000
B(  0-S ,  1-C ) :   1.1248 B(  0-S ,  4-C ) :   1.1092 B(  1-C ,  2-C ) :   1.6597
B(  1-C , 32-H ) :   0.9501 B(  2-C ,  3-C ) :   1.1785 B(  2-C ,  6-C ) :   1.0118
B(  3-C ,  4-C ) :   1.6446 B(  3-C ,  5-H ) :   0.9873 B(  4-C , 20-C ) :   1.0166
B(  6-C ,  7-H ) :   0.9500 B(  6-C ,  8-H ) :   0.9459 B(  6-C ,  9-C ) :   1.0476
B(  9-C , 10-H ) :   0.9602 B(  9-C , 11-H ) :   0.9566 B(  9-C , 12-C ) :   1.0616
B( 12-C , 13-H ) :   0.9696 B( 12-C , 14-H ) :   0.9794 B( 12-C , 15-H ) :   0.9762
B( 16-S , 17-C ) :   1.1574 B( 16-S , 20-C ) :   1.1835 B( 17-C , 18-C ) :   1.5923
B( 17-C , 20-C ) :   0.1079 B( 17-C , 33-H ) :   0.9623 B( 18-C , 19-C ) :   1.2768
B( 18-C , 21-H ) :   0.9857 B( 19-C , 20-C ) :   1.5384 B( 19-C , 22-C ) :   1.0232
B( 22-C , 23-H ) :   0.9491 B( 22-C , 24-H ) :   0.9429 B( 22-C , 25-C ) :   1.0606
B( 25-C , 26-H ) :   0.9510 B( 25-C , 27-H ) :   0.9572 B( 25-C , 28-C ) :   1.0794
B( 28-C , 29-H ) :   0.9764 B( 28-C , 30-H ) :   0.9730 B( 28-C , 31-H ) :   0.9714

Dispersion correction           -0.015305598
FINAL SINGLE POINT ENERGY     -1339.863777367279

DIPOLE MOMENT
-------------
                                X             Y             Z
Electronic contribution:     21.67265      13.13547      -5.45583
Nuclear contribution   :    -22.08199     -13.73856       5.47337
                        -----------------------------------------
Total Dipole Moment    :     -0.40933      -0.60309       0.01753
                        -----------------------------------------
Magnitude (a.u.)       :      0.72909
Magnitude (Debye)      :      1.85321

Rotational constants in cm-1:     0.018463     0.009337     0.007579
Rotational constants in MHz :   553.494968   279.929170   227.206636

                             ****ORCA TERMINATED NORMALLY****
TOTAL RUN TIME: 0 days 0 hours 0 minutes 31 seconds 72 msec
