                         Program Version 4.2.1 -  RELEASE  -
|  1> ! wB97X-D3 SP def2-SVP
|  2> %pal
|  3> nprocs 16
|  4> end
|  5>
|  6> * xyz 0 1
|  7> S 	 -36.0432 	 23.1358 	 77.5855
|  8> C 	 -34.7653 	 24.163 	 78.0469
|  9> C 	 -34.8759 	 25.426 	 77.4612
| 10> C 	 -36.1063 	 25.5802 	 76.6628
| 11> C 	 -36.8578 	 24.413 	 76.6779
| 12> H 	 -36.4837 	 26.5517 	 76.2573
| 13> C 	 -33.9296 	 26.6301 	 77.7453
| 14> H 	 -34.1988 	 27.3673 	 76.9673
| 15> H 	 -32.8946 	 26.2333 	 77.6017
| 16> C 	 -34.2394 	 27.2622 	 79.1153
| 17> H 	 -35.2973 	 27.322 	 79.333
| 18> H 	 -33.8723 	 26.578 	 79.8863
| 19> C 	 -33.5959 	 28.6146 	 79.5059
| 20> H 	 -33.71 	 28.7628 	 80.5352
| 21> H 	 -32.5643 	 28.5153 	 79.1747
| 22> H 	 -34.0833 	 29.4275 	 79.011
| 23> S 	 -39.532 	 23.9795 	 77.3123
| 24> C 	 -40.7246 	 24.1179 	 76.0416
| 25> C 	 -40.1842 	 24.5836 	 74.8722
| 26> C 	 -38.744 	 24.8045 	 74.9566
| 27> C 	 -38.2299 	 24.3299 	 76.1628
| 28> H 	 -40.6649 	 24.8106 	 73.9767
| 29> C 	 -37.9393 	 25.3834 	 73.7981
| 30> H 	 -37.8998 	 24.5247 	 73.1338
| 31> H 	 -36.8844 	 25.5254 	 74.0099
| 32> C 	 -38.5833 	 26.5225 	 72.9691
| 33> H 	 -39.429 	 26.083 	 72.3367
| 34> H 	 -37.825 	 26.8975 	 72.3312
| 35> C 	 -39.0441 	 27.6649 	 73.9139
| 36> H 	 -39.6952 	 27.2201 	 74.5902
| 37> H 	 -39.4793 	 28.5558 	 73.4818
| 38> H 	 -38.1753 	 27.9506 	 74.5506
| 39> H 	 -33.8894 	 23.8054 	 78.643
| 40> H 	 -41.7189 	 23.7996 	 76.1909
| 41> *
| 42>
| 43>                          ****END OF INPUT****

CARTESIAN COORDINATES (ANGSTROEM)
---------------------------------
  S    -36.043200   23.135800   77.585500
  C    -34.765300   24.163000   78.046900
  C    -34.875900   25.426000   77.461200
  C    -36.106300   25.580200   76.662800
  C    -36.857800   24.413000   76.677900
  H    -36.483700   26.551700   76.257300
  C    -33.929600   26.630100   77.745300
  H    -34.198800   27.367300   76.967300
  H    -32.894600   26.233300   77.601700
  C    -34.239400   27.262200   79.115300
  H    -35.297300   27.322000   79.333000
  H    -33.872300   26.578000   79.886300
  C    -33.595900   28.614600   79.505900
  H    -33.710000   28.762800   80.535200
  H    -32.564300   28.515300   79.174700
  H    -34.083300   29.427500   79.011000
  S    -39.532000   23.979500   77.312300
  C    -40.724600   24.117900   76.041600
  C    -40.184200   24.583600   74.872200
  C    -38.744000   24.804500   74.956600
  C    -38.229900   24.329900   76.162800
  H    -40.664900   24.810600   73.976700
  C    -37.939300   25.383400   73.798100
  H    -37.899800   24.524700   73.133800
  H    -36.884400   25.525400   74.009900
  C    -38.583300   26.522500   72.969100
  H    -39.429000   26.083000   72.336700
  H    -37.825000   26.897500   72.331200
  C    -39.044100   27.664900   73.913900
  H    -39.695200   27.220100   74.590200
  H    -39.479300   28.555800   73.481800
  H    -38.175300   27.950600   74.550600
  H    -33.889400   23.805400   78.643000
  H    -41.718900   23.799600   76.190900

 Total Charge           Charge          ....    0
 Multiplicity           Mult            ....    1
 Number of Electrons    NEL             ....  134
 Basis Dimension        Dim             ....  322

ORBITAL ENERGIES
----------------

  NO   OCC          E(Eh)            E(eV)
   0   2.0000     -88.967527     -2420.9295
   1   2.0000     -88.962264     -2420.7863
   2   2.0000     -10.330290      -281.1015
   3   2.0000     -10.325662      -280.9756
   4   2.0000     -10.316220      -280.7186
   5   2.0000     -10.316161      -280.7170
   6   2.0000     -10.306769      -280.4614
   7   2.0000     -10.306391      -280.4511
   8   2.0000     -10.302634      -280.3489
   9   2.0000     -10.300687      -280.2960
  10   2.0000     -10.295232      -280.1475
  11   2.0000     -10.292863      -280.0830
  12   2.0000     -10.291509      -280.0462
  13   2.0000     -10.283517      -279.8287
  14   2.0000     -10.273395      -279.5533
  15   2.0000     -10.271438      -279.5000
  16   2.0000      -8.082662      -219.9404
  17   2.0000      -8.077003      -219.7864
  18   2.0000      -6.041175      -164.3887
  19   2.0000      -6.037013      -164.2755
  20   2.0000      -6.035675      -164.2391
  21   2.0000      -6.033494      -164.1797
  22   2.0000      -6.031593      -164.1280
  23   2.0000      -6.027511      -164.0169
  24   2.0000      -1.002263       -27.2730
  25   2.0000      -0.981028       -26.6951
  26   2.0000      -0.909441       -24.7472
  27   2.0000      -0.904536       -24.6137
  28   2.0000      -0.869196       -23.6520
  29   2.0000      -0.848555       -23.0903
  30   2.0000      -0.842536       -22.9266
  31   2.0000      -0.812767       -22.1165
  32   2.0000      -0.784331       -21.3427
  33   2.0000      -0.770589       -20.9688
  34   2.0000      -0.705366       -19.1940
  35   2.0000      -0.696354       -18.9487
  36   2.0000      -0.692357       -18.8400
  37   2.0000      -0.662389       -18.0245
  38   2.0000      -0.639469       -17.4008
  39   2.0000      -0.612169       -16.6580
  40   2.0000      -0.599282       -16.3073
  41   2.0000      -0.563419       -15.3314
  42   2.0000      -0.558847       -15.2070
  43   2.0000      -0.553093       -15.0504
  44   2.0000      -0.548556       -14.9270
  45   2.0000      -0.530395       -14.4328
  46   2.0000      -0.514254       -13.9936
  47   2.0000      -0.509394       -13.8613
  48   2.0000      -0.501437       -13.6448
  49   2.0000      -0.497461       -13.5366
  50   2.0000      -0.489287       -13.3142
  51   2.0000      -0.479186       -13.0393
  52   2.0000      -0.476047       -12.9539
  53   2.0000      -0.463917       -12.6238
  54   2.0000      -0.455546       -12.3960
  55   2.0000      -0.450629       -12.2622
  56   2.0000      -0.448208       -12.1963
  57   2.0000      -0.438772       -11.9396
  58   2.0000      -0.434492       -11.8231
  59   2.0000      -0.423885       -11.5345
  60   2.0000      -0.421482       -11.4691
  61   2.0000      -0.414360       -11.2753
  62   2.0000      -0.411369       -11.1939
  63   2.0000      -0.349175        -9.5015
  64   2.0000      -0.325963        -8.8699
  65   2.0000      -0.324518        -8.8306
  66   2.0000      -0.292469        -7.9585
  67   0.0000       0.031243         0.8502
  68   0.0000       0.073623         2.0034
  69   0.0000       0.108092         2.9413
  70   0.0000       0.118691         3.2298
  71   0.0000       0.130402         3.5484

MULLIKEN ATOMIC CHARGES
-----------------------
   0 S :    0.124225
   1 C :   -0.137812
   2 C :   -0.129290
   3 C :    0.024164
   4 C :   -0.175178
   5 H :    0.038957
   6 C :    0.069949
   7 H :    0.021915
   8 H :    0.045247
   9 C :   -0.105625
  10 H :    0.030385
  11 H :    0.018762
  12 C :   -0.004114
  13 H :    0.027418
  14 H :    0.029786
  15 H :    0.025528
  16 S :    0.098540
  17 C :   -0.068280
  18 C :    0.018494
  19 C :   -0.081830
  20 C :   -0.142182
  21 H :   -0.008977
  22 C :    0.044962
  23 H :    0.039002
  24 H :    0.026882
  25 C :   -0.079397
  26 H :    0.043354
  27 H :    0.029346
  28 C :   -0.028594
  29 H :    0.022322
  30 H :    0.041640
  31 H :    0.023202
  32 H :    0.070295
  33 H :    0.046901
Sum of atomic charges:    0.0000000

LOEWDIN ATOMIC CHARGES
----------------------
   0 S :    0.421082
   1 C :   -0.223544
   2 C :   -0.063575
   3 C :   -0.063800
   4 C :   -0.198038
   5 H :    0.039435
   6 C :   -0.033534
   7 H :    0.028965
   8 H :    0.036218
   9 C :   -0.046525
  10 H :    0.023894
  11 H :    0.022564
  12 C :   -0.054776
  13 H :    0.021458
  14 H :    0.026627
  15 H :    0.019453
  16 S :    0.391853
  17 C :   -0.170607
  18 C :   -0.062516
  19 C :   -0.049475
  20 C :   -0.197958
  21 H :    0.019688
  22 C :   -0.039833
  23 H :    0.040917
  24 H :    0.030441
  25 C :   -0.035473
  26 H :    0.028584
  27 H :    0.021634
  28 C :   -0.063788
  29 H :    0.016161
  30 H :    0.024444
  31 H :    0.029421
  32 H :    0.039655
  33 H :    0.020948

  Mayer bond orders larger than 0.100000
B(  0-S ,  1-C ) :   1.1464 B(  0-S ,  4-C ) :   1.1582 B(  1-C ,  2-C ) :   1.6056
B(  1-C , 32-H ) :   0.9635 B(  2-C ,  3-C ) :   1.2487 B(  2-C ,  6-C ) :   1.0198
B(  3-C ,  4-C ) :   1.5706 B(  3-C ,  5-H ) :   0.9780 B(  4-C , 20-C ) :   1.0302
B(  6-C ,  7-H ) :   0.9439 B(  6-C ,  8-H ) :   0.9402 B(  6-C ,  9-C ) :   1.0583
B(  9-C , 10-H ) :   0.9586 B(  9-C , 11-H ) :   0.9553 B(  9-C , 12-C ) :   1.0835
B( 12-C , 13-H ) :   0.9742 B( 12-C , 14-H ) :   0.9751 B( 12-C , 15-H ) :   0.9770
B( 16-S , 17-C ) :   1.1493 B( 16-S , 20-C ) :   1.1330 B( 17-C , 18-C ) :   1.5989
B( 17-C , 33-H ) :   0.9750 B( 18-C , 19-C ) :   1.2268 B( 18-C , 21-H ) :   0.9967
B( 19-C , 20-C ) :   1.6165 B( 19-C , 22-C ) :   1.0272 B( 22-C , 23-H ) :   0.9302
B( 22-C , 24-H ) :   0.9385 B( 22-C , 25-C ) :   1.0731 B( 25-C , 26-H ) :   0.9510
B( 25-C , 27-H ) :   0.9558 B( 25-C , 28-C ) :   1.0703 B( 28-C , 29-H ) :   0.9719
B( 28-C , 30-H ) :   0.9762 B( 28-C , 31-H ) :   0.9699

Dispersion correction           -0.014524552
FINAL SINGLE POINT ENERGY     -1339.875813418178

DIPOLE MOMENT
-------------
                                X             Y             Z
Electronic contribution:     -9.43531     -24.18298       5.74971
Nuclear contribution   :      9.59104      24.68648      -6.00783
                        -----------------------------------------
Total Dipole Moment    :      0.15573       0.50350      -0.25812
                        -----------------------------------------
Magnitude (a.u.)       :      0.58685
Magnitude (Debye)      :      1.49165

Rotational constants in cm-1:     0.018550     0.008220     0.006738
Rotational constants in MHz :   556.105320   246.441435   201.996181

                             ****ORCA TERMINATED NORMALLY****
TOTAL RUN TIME: 0 days 0 hours 0 minutes 29 seconds 923 msec
