                         Program Version 4.2.1 -  RELEASE  -
|  1> ! wB97X-D3 SP def2-SVP
|  2> %pal
|  3> nprocs 16
|  4> end
|  5>
|  6> * xyz 0 1
|  7> S 	 -55.2645 	 62.3494 	 134.277
|  8> C 	 -54.6578 	 61.818 	 132.665
|  9> C 	 -53.3928 	 61.3411 	 132.799
| 10> C 	 -52.8875 	 61.4851 	 134.135
| 11> C 	 -53.7534 	 62.0012 	 135.046
| 12> H 	 -51.8544 	 61.1614 	 134.374
| 13> C 	 -52.5954 	 61.0628 	 131.603
| 14> H 	 -52.1626 	 62.0382 	 131.248
| 15> H 	 -53.327 	 60.6687 	 130.817
| 16> C 	 -51.5169 	 59.9688 	 131.817
| 17> H 	 -50.9544 	 60.2393 	 132.716
| 18> H 	 -51.9844 	 59.0356 	 132.108
| 19> C 	 -50.559 	 59.7476 	 130.669
| 20> H 	 -49.6122 	 59.1625 	 130.816
| 21> H 	 -51.0095 	 59.1178 	 129.908
| 22> H 	 -50.2179 	 60.6406 	 130.185
| 23> S 	 -53.8438 	 64.1155 	 136.827
| 24> C 	 -52.9092 	 64.0706 	 138.321
| 25> C 	 -52.2427 	 62.8818 	 138.341
| 26> C 	 -52.6426 	 61.8897 	 137.397
| 27> C 	 -53.4481 	 62.4445 	 136.41
| 28> H 	 -51.4813 	 62.7348 	 139.051
| 29> C 	 -52.1744 	 60.4584 	 137.433
| 30> H 	 -51.7317 	 60.2905 	 138.438
| 31> H 	 -51.2744 	 60.359 	 136.722
| 32> C 	 -53.2497 	 59.307 	 137.389
| 33> H 	 -52.8832 	 58.3307 	 137.258
| 34> H 	 -53.7592 	 59.4551 	 136.33
| 35> C 	 -54.1929 	 59.3295 	 138.514
| 36> H 	 -54.4159 	 60.3351 	 138.938
| 37> H 	 -53.9076 	 58.6609 	 139.343
| 38> H 	 -55.1649 	 58.9611 	 138.029
| 39> H 	 -55.1649 	 62.0411 	 131.715
| 40> H 	 -52.4218 	 64.8878 	 138.89
| 41> *
| 42>
| 43>                          ****END OF INPUT****

CARTESIAN COORDINATES (ANGSTROEM)
---------------------------------
  S    -55.264500   62.349400  134.277000
  C    -54.657800   61.818000  132.665000
  C    -53.392800   61.341100  132.799000
  C    -52.887500   61.485100  134.135000
  C    -53.753400   62.001200  135.046000
  H    -51.854400   61.161400  134.374000
  C    -52.595400   61.062800  131.603000
  H    -52.162600   62.038200  131.248000
  H    -53.327000   60.668700  130.817000
  C    -51.516900   59.968800  131.817000
  H    -50.954400   60.239300  132.716000
  H    -51.984400   59.035600  132.108000
  C    -50.559000   59.747600  130.669000
  H    -49.612200   59.162500  130.816000
  H    -51.009500   59.117800  129.908000
  H    -50.217900   60.640600  130.185000
  S    -53.843800   64.115500  136.827000
  C    -52.909200   64.070600  138.321000
  C    -52.242700   62.881800  138.341000
  C    -52.642600   61.889700  137.397000
  C    -53.448100   62.444500  136.410000
  H    -51.481300   62.734800  139.051000
  C    -52.174400   60.458400  137.433000
  H    -51.731700   60.290500  138.438000
  H    -51.274400   60.359000  136.722000
  C    -53.249700   59.307000  137.389000
  H    -52.883200   58.330700  137.258000
  H    -53.759200   59.455100  136.330000
  C    -54.192900   59.329500  138.514000
  H    -54.415900   60.335100  138.938000
  H    -53.907600   58.660900  139.343000
  H    -55.164900   58.961100  138.029000
  H    -55.164900   62.041100  131.715000
  H    -52.421800   64.887800  138.890000

 Total Charge           Charge          ....    0
 Multiplicity           Mult            ....    1
 Number of Electrons    NEL             ....  134
 Basis Dimension        Dim             ....  322

ORBITAL ENERGIES
----------------

  NO   OCC          E(Eh)            E(eV)
   0   2.0000     -88.965562     -2420.8760
   1   2.0000     -88.963155     -2420.8105
   2   2.0000     -10.332404      -281.1590
   3   2.0000     -10.332105      -281.1509
   4   2.0000     -10.317142      -280.7437
   5   2.0000     -10.315976      -280.7120
   6   2.0000     -10.304747      -280.4064
   7   2.0000     -10.301158      -280.3087
   8   2.0000     -10.301033      -280.3054
   9   2.0000     -10.297106      -280.1985
  10   2.0000     -10.296063      -280.1701
  11   2.0000     -10.290044      -280.0063
  12   2.0000     -10.289685      -279.9966
  13   2.0000     -10.287999      -279.9507
  14   2.0000     -10.279030      -279.7066
  15   2.0000     -10.278742      -279.6988
  16   2.0000      -8.079764      -219.8616
  17   2.0000      -8.077734      -219.8063
  18   2.0000      -6.038442      -164.3143
  19   2.0000      -6.036410      -164.2591
  20   2.0000      -6.034284      -164.2012
  21   2.0000      -6.032207      -164.1447
  22   2.0000      -6.030373      -164.0948
  23   2.0000      -6.028374      -164.0404
  24   2.0000      -1.009415       -27.4676
  25   2.0000      -0.986954       -26.8564
  26   2.0000      -0.917183       -24.9578
  27   2.0000      -0.906853       -24.6767
  28   2.0000      -0.873919       -23.7805
  29   2.0000      -0.852185       -23.1891
  30   2.0000      -0.844218       -22.9723
  31   2.0000      -0.820700       -22.3324
  32   2.0000      -0.780428       -21.2365
  33   2.0000      -0.770322       -20.9615
  34   2.0000      -0.718211       -19.5435
  35   2.0000      -0.697723       -18.9860
  36   2.0000      -0.683904       -18.6100
  37   2.0000      -0.659895       -17.9567
  38   2.0000      -0.638894       -17.3852
  39   2.0000      -0.623169       -16.9573
  40   2.0000      -0.583618       -15.8811
  41   2.0000      -0.572745       -15.5852
  42   2.0000      -0.563269       -15.3273
  43   2.0000      -0.556877       -15.1534
  44   2.0000      -0.540747       -14.7145
  45   2.0000      -0.522763       -14.2251
  46   2.0000      -0.518765       -14.1163
  47   2.0000      -0.510724       -13.8975
  48   2.0000      -0.504957       -13.7406
  49   2.0000      -0.502743       -13.6803
  50   2.0000      -0.489535       -13.3209
  51   2.0000      -0.482460       -13.1284
  52   2.0000      -0.477358       -12.9896
  53   2.0000      -0.464858       -12.6494
  54   2.0000      -0.461282       -12.5521
  55   2.0000      -0.455281       -12.3888
  56   2.0000      -0.437820       -11.9137
  57   2.0000      -0.435095       -11.8395
  58   2.0000      -0.431255       -11.7351
  59   2.0000      -0.425551       -11.5798
  60   2.0000      -0.416339       -11.3292
  61   2.0000      -0.408951       -11.1281
  62   2.0000      -0.388347       -10.5675
  63   2.0000      -0.350390        -9.5346
  64   2.0000      -0.330131        -8.9833
  65   2.0000      -0.328481        -8.9384
  66   2.0000      -0.295778        -8.0485
  67   0.0000       0.022439         0.6106
  68   0.0000       0.068817         1.8726
  69   0.0000       0.111374         3.0306
  70   0.0000       0.116360         3.1663
  71   0.0000       0.127395         3.4666

MULLIKEN ATOMIC CHARGES
-----------------------
   0 S :    0.089321
   1 C :   -0.140012
   2 C :   -0.067952
   3 C :    0.017656
   4 C :   -0.134684
   5 H :    0.017206
   6 C :    0.013939
   7 H :    0.059449
   8 H :    0.040270
   9 C :   -0.078722
  10 H :    0.026405
  11 H :    0.028279
  12 C :   -0.038287
  13 H :    0.033719
  14 H :    0.022858
  15 H :    0.023094
  16 S :    0.095211
  17 C :   -0.076661
  18 C :   -0.051000
  19 C :   -0.052586
  20 C :   -0.120732
  21 H :    0.003631
  22 C :    0.018910
  23 H :    0.016761
  24 H :    0.053501
  25 C :   -0.064484
  26 H :    0.016925
  27 H :    0.045875
  28 C :   -0.078052
  29 H :    0.051650
  30 H :    0.041825
  31 H :    0.047360
  32 H :    0.060759
  33 H :    0.078569
Sum of atomic charges:   -0.0000000

LOEWDIN ATOMIC CHARGES
----------------------
   0 S :    0.384453
   1 C :   -0.179020
   2 C :   -0.073707
   3 C :   -0.067451
   4 C :   -0.195038
   5 H :    0.032492
   6 C :   -0.034367
   7 H :    0.041783
   8 H :    0.039815
   9 C :   -0.045318
  10 H :    0.021016
  11 H :    0.027149
  12 C :   -0.074427
  13 H :    0.033996
  14 H :    0.024815
  15 H :    0.021359
  16 S :    0.397037
  17 C :   -0.201675
  18 C :   -0.061390
  19 C :   -0.065558
  20 C :   -0.182426
  21 H :    0.021673
  22 C :   -0.045107
  23 H :    0.028922
  24 H :    0.038787
  25 C :   -0.050080
  26 H :    0.019570
  27 H :    0.033181
  28 C :   -0.076850
  29 H :    0.031693
  30 H :    0.027385
  31 H :    0.044053
  32 H :    0.035502
  33 H :    0.047737

  Mayer bond orders larger than 0.100000
B(  0-S ,  1-C ) :   1.1139 B(  0-S ,  4-C ) :   1.1486 B(  1-C ,  2-C ) :   1.6266
B(  1-C , 32-H ) :   0.9686 B(  2-C ,  3-C ) :   1.2296 B(  2-C ,  6-C ) :   1.0359
B(  3-C ,  4-C ) :   1.5850 B(  3-C ,  5-H ) :   0.9836 B(  4-C , 20-C ) :   1.0353
B(  6-C ,  7-H ) :   0.9362 B(  6-C ,  8-H ) :   0.9421 B(  6-C ,  9-C ) :   1.0553
B(  9-C , 10-H ) :   0.9536 B(  9-C , 11-H ) :   0.9580 B(  9-C , 12-C ) :   1.0830
B( 12-C , 13-H ) :   0.9733 B( 12-C , 14-H ) :   0.9725 B( 12-C , 15-H ) :   0.9742
B( 16-S , 17-C ) :   1.1299 B( 16-S , 20-C ) :   1.1476 B( 17-C , 18-C ) :   1.6397
B( 17-C , 33-H ) :   0.9535 B( 18-C , 19-C ) :   1.2503 B( 18-C , 21-H ) :   0.9858
B( 19-C , 20-C ) :   1.5727 B( 19-C , 22-C ) :   1.0390 B( 22-C , 23-H ) :   0.9377
B( 22-C , 24-H ) :   0.9303 B( 22-C , 25-C ) :   1.0545 B( 25-C , 26-H ) :   0.9541
B( 25-C , 27-H ) :   0.9604 B( 25-C , 28-C ) :   1.0620 B( 28-C , 29-H ) :   0.9780
B( 28-C , 30-H ) :   0.9727 B( 28-C , 31-H ) :   0.9705

Dispersion correction           -0.014459320
FINAL SINGLE POINT ENERGY     -1339.857948844427

DIPOLE MOMENT
-------------
                                X             Y             Z
Electronic contribution:    -13.88260      21.06065       6.93596
Nuclear contribution   :     14.64209     -21.42124      -7.17062
                        -----------------------------------------
Total Dipole Moment    :      0.75949      -0.36059      -0.23466
                        -----------------------------------------
Magnitude (a.u.)       :      0.87288
Magnitude (Debye)      :      2.21867

Rotational constants in cm-1:     0.018824     0.008398     0.007299
Rotational constants in MHz :   564.331121   251.755125   218.828432

                             ****ORCA TERMINATED NORMALLY****
TOTAL RUN TIME: 0 days 0 hours 0 minutes 35 seconds 706 msec
