                         Program Version 4.2.1 -  RELEASE  -
|  1> ! wB97X-D3 SP def2-SVP
|  2> %pal
|  3> nprocs 16
|  4> end
|  5>
|  6> * xyz 0 1
|  7> S 	 -68.0696 	 52.6977 	 122.649
|  8> C 	 -67.7824 	 52.3085 	 124.289
|  9> C 	 -68.9821 	 52.2257 	 125.019
| 10> C 	 -70.1016 	 52.5307 	 124.211
| 11> C 	 -69.8262 	 52.6378 	 122.857
| 12> H 	 -71.0596 	 52.5773 	 124.556
| 13> C 	 -69.0447 	 51.9303 	 126.461
| 14> H 	 -68.9581 	 52.987 	 126.928
| 15> H 	 -68.2504 	 51.2621 	 126.705
| 16> C 	 -70.2511 	 51.2872 	 127.18
| 17> H 	 -71.0291 	 52.0538 	 127.218
| 18> H 	 -70.8121 	 50.4379 	 126.757
| 19> C 	 -69.8642 	 50.9165 	 128.562
| 20> H 	 -68.9762 	 50.3778 	 128.568
| 21> H 	 -69.7665 	 51.7934 	 129.23
| 22> H 	 -70.6204 	 50.2495 	 128.982
| 23> S 	 -70.1983 	 54.0345 	 120.504
| 24> C 	 -71.6234 	 53.8306 	 119.607
| 25> C 	 -72.5494 	 53.0181 	 120.215
| 26> C 	 -72.0093 	 52.5333 	 121.484
| 27> C 	 -70.7242 	 52.8758 	 121.687
| 28> H 	 -73.59 	 52.8487 	 119.759
| 29> C 	 -72.8222 	 51.6121 	 122.343
| 30> H 	 -73.3453 	 52.1716 	 123.097
| 31> H 	 -72.1718 	 50.9503 	 122.875
| 32> C 	 -73.8985 	 50.7929 	 121.64
| 33> H 	 -73.4412 	 50.1017 	 120.914
| 34> H 	 -74.5745 	 51.4869 	 121.187
| 35> C 	 -74.7611 	 49.9302 	 122.576
| 36> H 	 -75.7962 	 50.0665 	 122.244
| 37> H 	 -74.7305 	 50.2763 	 123.634
| 38> H 	 -74.5137 	 48.8923 	 122.6
| 39> H 	 -66.7847 	 52.079 	 124.613
| 40> H 	 -71.8037 	 54.2528 	 118.617
| 41> *
| 42>
| 43>                          ****END OF INPUT****

CARTESIAN COORDINATES (ANGSTROEM)
---------------------------------
  S    -68.069600   52.697700  122.649000
  C    -67.782400   52.308500  124.289000
  C    -68.982100   52.225700  125.019000
  C    -70.101600   52.530700  124.211000
  C    -69.826200   52.637800  122.857000
  H    -71.059600   52.577300  124.556000
  C    -69.044700   51.930300  126.461000
  H    -68.958100   52.987000  126.928000
  H    -68.250400   51.262100  126.705000
  C    -70.251100   51.287200  127.180000
  H    -71.029100   52.053800  127.218000
  H    -70.812100   50.437900  126.757000
  C    -69.864200   50.916500  128.562000
  H    -68.976200   50.377800  128.568000
  H    -69.766500   51.793400  129.230000
  H    -70.620400   50.249500  128.982000
  S    -70.198300   54.034500  120.504000
  C    -71.623400   53.830600  119.607000
  C    -72.549400   53.018100  120.215000
  C    -72.009300   52.533300  121.484000
  C    -70.724200   52.875800  121.687000
  H    -73.590000   52.848700  119.759000
  C    -72.822200   51.612100  122.343000
  H    -73.345300   52.171600  123.097000
  H    -72.171800   50.950300  122.875000
  C    -73.898500   50.792900  121.640000
  H    -73.441200   50.101700  120.914000
  H    -74.574500   51.486900  121.187000
  C    -74.761100   49.930200  122.576000
  H    -75.796200   50.066500  122.244000
  H    -74.730500   50.276300  123.634000
  H    -74.513700   48.892300  122.600000
  H    -66.784700   52.079000  124.613000
  H    -71.803700   54.252800  118.617000

 Total Charge           Charge          ....    0
 Multiplicity           Mult            ....    1
 Number of Electrons    NEL             ....  134
 Basis Dimension        Dim             ....  322

ORBITAL ENERGIES
----------------

  NO   OCC          E(Eh)            E(eV)
   0   2.0000     -88.963243     -2420.8129
   1   2.0000     -88.962579     -2420.7948
   2   2.0000     -10.332207      -281.1537
   3   2.0000     -10.322376      -280.8861
   4   2.0000     -10.312383      -280.6142
   5   2.0000     -10.310607      -280.5659
   6   2.0000     -10.299889      -280.2742
   7   2.0000     -10.299446      -280.2622
   8   2.0000     -10.298936      -280.2483
   9   2.0000     -10.295262      -280.1483
  10   2.0000     -10.286687      -279.9150
  11   2.0000     -10.286177      -279.9011
  12   2.0000     -10.283533      -279.8292
  13   2.0000     -10.283443      -279.8267
  14   2.0000     -10.277762      -279.6721
  15   2.0000     -10.272744      -279.5356
  16   2.0000      -8.078834      -219.8362
  17   2.0000      -8.078427      -219.8252
  18   2.0000      -6.037279      -164.2827
  19   2.0000      -6.036790      -164.2694
  20   2.0000      -6.033264      -164.1735
  21   2.0000      -6.032826      -164.1615
  22   2.0000      -6.029424      -164.0690
  23   2.0000      -6.029386      -164.0679
  24   2.0000      -1.011164       -27.5152
  25   2.0000      -0.989351       -26.9216
  26   2.0000      -0.918981       -25.0067
  27   2.0000      -0.914157       -24.8755
  28   2.0000      -0.871130       -23.7047
  29   2.0000      -0.859090       -23.3770
  30   2.0000      -0.847617       -23.0648
  31   2.0000      -0.819118       -22.2893
  32   2.0000      -0.783018       -21.3070
  33   2.0000      -0.769466       -20.9382
  34   2.0000      -0.710090       -19.3225
  35   2.0000      -0.701067       -19.0770
  36   2.0000      -0.687844       -18.7172
  37   2.0000      -0.654651       -17.8140
  38   2.0000      -0.642703       -17.4888
  39   2.0000      -0.628408       -17.0999
  40   2.0000      -0.601235       -16.3604
  41   2.0000      -0.577904       -15.7256
  42   2.0000      -0.576554       -15.6888
  43   2.0000      -0.568424       -15.4676
  44   2.0000      -0.530758       -14.4427
  45   2.0000      -0.519935       -14.1482
  46   2.0000      -0.515998       -14.0410
  47   2.0000      -0.512775       -13.9533
  48   2.0000      -0.505563       -13.7571
  49   2.0000      -0.499572       -13.5941
  50   2.0000      -0.490588       -13.3496
  51   2.0000      -0.480716       -13.0809
  52   2.0000      -0.477798       -13.0016
  53   2.0000      -0.469477       -12.7751
  54   2.0000      -0.457444       -12.4477
  55   2.0000      -0.454676       -12.3724
  56   2.0000      -0.449827       -12.2404
  57   2.0000      -0.431902       -11.7526
  58   2.0000      -0.429820       -11.6960
  59   2.0000      -0.427602       -11.6356
  60   2.0000      -0.419951       -11.4274
  61   2.0000      -0.418858       -11.3977
  62   2.0000      -0.411865       -11.2074
  63   2.0000      -0.354401        -9.6438
  64   2.0000      -0.328973        -8.9518
  65   2.0000      -0.327244        -8.9048
  66   2.0000      -0.286799        -7.8042
  67   0.0000       0.030546         0.8312
  68   0.0000       0.080792         2.1985
  69   0.0000       0.109925         2.9912
  70   0.0000       0.124374         3.3844
  71   0.0000       0.132813         3.6140

MULLIKEN ATOMIC CHARGES
-----------------------
   0 S :    0.099532
   1 C :   -0.117192
   2 C :   -0.068927
   3 C :    0.061360
   4 C :   -0.148909
   5 H :   -0.032590
   6 C :    0.021126
   7 H :    0.064114
   8 H :    0.020559
   9 C :   -0.080333
  10 H :    0.019655
  11 H :    0.032488
  12 C :   -0.021318
  13 H :    0.013129
  14 H :    0.032747
  15 H :    0.028287
  16 S :    0.107916
  17 C :   -0.080242
  18 C :   -0.075688
  19 C :   -0.069897
  20 C :   -0.106216
  21 H :    0.053845
  22 C :    0.075456
  23 H :    0.024308
  24 H :    0.023116
  25 C :   -0.093858
  26 H :    0.041177
  27 H :    0.025508
  28 C :   -0.042352
  29 H :    0.031003
  30 H :    0.024103
  31 H :    0.036486
  32 H :    0.045230
  33 H :    0.056377
Sum of atomic charges:   -0.0000000

LOEWDIN ATOMIC CHARGES
----------------------
   0 S :    0.412537
   1 C :   -0.207792
   2 C :   -0.064312
   3 C :   -0.055209
   4 C :   -0.178253
   5 H :    0.013694
   6 C :   -0.038103
   7 H :    0.055209
   8 H :    0.026819
   9 C :   -0.051063
  10 H :    0.020764
  11 H :    0.026297
  12 C :   -0.057784
  13 H :    0.014022
  14 H :    0.028940
  15 H :    0.029605
  16 S :    0.423401
  17 C :   -0.199232
  18 C :   -0.085142
  19 C :   -0.058009
  20 C :   -0.202904
  21 H :    0.048194
  22 C :   -0.033096
  23 H :    0.028414
  24 H :    0.026747
  25 C :   -0.039127
  26 H :    0.029982
  27 H :    0.017307
  28 C :   -0.065720
  29 H :    0.029787
  30 H :    0.026237
  31 H :    0.022121
  32 H :    0.023685
  33 H :    0.031989

  Mayer bond orders larger than 0.100000
B(  0-S ,  1-C ) :   1.1595 B(  0-S ,  4-C ) :   1.1682 B(  1-C ,  2-C ) :   1.5583
B(  1-C ,  4-C ) :   0.1054 B(  1-C , 32-H ) :   0.9764 B(  2-C ,  3-C ) :   1.2674
B(  2-C ,  6-C ) :   1.0287 B(  3-C ,  4-C ) :   1.5382 B(  3-C ,  5-H ) :   1.0077
B(  4-C , 20-C ) :   1.0192 B(  6-C ,  7-H ) :   0.9275 B(  6-C ,  8-H ) :   0.9522
B(  6-C ,  9-C ) :   1.0603 B(  9-C , 10-H ) :   0.9430 B(  9-C , 11-H ) :   0.9607
B(  9-C , 12-C ) :   1.0980 B( 12-C , 13-H ) :   0.9736 B( 12-C , 14-H ) :   0.9726
B( 12-C , 15-H ) :   0.9708 B( 16-S , 17-C ) :   1.1672 B( 16-S , 20-C ) :   1.1220
B( 17-C , 18-C ) :   1.6268 B( 17-C , 33-H ) :   0.9597 B( 18-C , 19-C ) :   1.2119
B( 18-C , 21-H ) :   0.9763 B( 19-C , 20-C ) :   1.6646 B( 19-C , 22-C ) :   1.0447
B( 22-C , 23-H ) :   0.9105 B( 22-C , 24-H ) :   0.9375 B( 22-C , 25-C ) :   1.0932
B( 25-C , 26-H ) :   0.9588 B( 25-C , 27-H ) :   0.9492 B( 25-C , 28-C ) :   1.0741
B( 28-C , 29-H ) :   0.9794 B( 28-C , 30-H ) :   0.9742 B( 28-C , 31-H ) :   0.9777

Dispersion correction           -0.013189584
FINAL SINGLE POINT ENERGY     -1339.871291495698

DIPOLE MOMENT
-------------
                                X             Y             Z
Electronic contribution:     18.06290      15.72304     -22.11657
Nuclear contribution   :    -18.59530     -16.00507      22.57931
                        -----------------------------------------
Total Dipole Moment    :     -0.53240      -0.28203       0.46274
                        -----------------------------------------
Magnitude (a.u.)       :      0.75969
Magnitude (Debye)      :      1.93097

Rotational constants in cm-1:     0.016415     0.008886     0.006037
Rotational constants in MHz :   492.115882   266.398359   180.984054

                             ****ORCA TERMINATED NORMALLY****
TOTAL RUN TIME: 0 days 0 hours 0 minutes 33 seconds 643 msec
