                         Program Version 4.2.1 -  RELEASE  -
|  1> ! wB97X-D3 SP def2-SVP
|  2> %pal
|  3> nprocs 16
|  4> end
|  5>
|  6> * xyz 0 1
|  7> S 	 11.6047 	 -10.8635 	 94.1386
|  8> C 	 12.59 	 -10.0478 	 95.3795
|  9> C 	 11.7914 	 -9.24437 	 96.171
| 10> C 	 10.362 	 -9.60962 	 96.0314
| 11> C 	 10.1215 	 -10.5103 	 95.0224
| 12> H 	 9.50692 	 -9.16279 	 96.4856
| 13> C 	 12.2693 	 -8.18168 	 97.1825
| 14> H 	 11.67 	 -7.35012 	 96.8498
| 15> H 	 13.2729 	 -7.9224 	 96.9242
| 16> C 	 12.0461 	 -8.42145 	 98.7207
| 17> H 	 12.0312 	 -7.47803 	 99.2987
| 18> H 	 11.0703 	 -8.86999 	 98.8429
| 19> C 	 13.0462 	 -9.49051 	 99.2616
| 20> H 	 14.0324 	 -9.2197 	 99.1079
| 21> H 	 12.9097 	 -9.65014 	 100.323
| 22> H 	 13.0606 	 -10.4567 	 98.6675
| 23> S 	 8.87651 	 -11.2901 	 92.7491
| 24> C 	 7.18176 	 -11.8054 	 92.8026
| 25> C 	 6.67359 	 -11.8093 	 94.0417
| 26> C 	 7.61782 	 -11.3718 	 95.0326
| 27> C 	 8.8363 	 -10.9738 	 94.4673
| 28> H 	 5.70635 	 -12.2611 	 94.1702
| 29> C 	 7.42456 	 -11.6514 	 96.4242
| 30> H 	 8.42493 	 -11.8527 	 96.8961
| 31> H 	 6.77234 	 -12.5244 	 96.5281
| 32> C 	 6.67851 	 -10.6109 	 97.1977
| 33> H 	 5.59805 	 -10.5777 	 96.8674
| 34> H 	 7.01347 	 -9.60226 	 96.9506
| 35> C 	 6.80928 	 -10.7112 	 98.7355
| 36> H 	 6.29986 	 -9.85053 	 99.2006
| 37> H 	 7.88261 	 -10.5578 	 98.8909
| 38> H 	 6.485 	 -11.6467 	 99.193
| 39> H 	 13.6463 	 -10.0687 	 95.4065
| 40> H 	 6.6208 	 -12.1835 	 91.9902
| 41> *
| 42>
| 43>                          ****END OF INPUT****

CARTESIAN COORDINATES (ANGSTROEM)
---------------------------------
  S     11.604700  -10.863500   94.138600
  C     12.590000  -10.047800   95.379500
  C     11.791400   -9.244370   96.171000
  C     10.362000   -9.609620   96.031400
  C     10.121500  -10.510300   95.022400
  H      9.506920   -9.162790   96.485600
  C     12.269300   -8.181680   97.182500
  H     11.670000   -7.350120   96.849800
  H     13.272900   -7.922400   96.924200
  C     12.046100   -8.421450   98.720700
  H     12.031200   -7.478030   99.298700
  H     11.070300   -8.869990   98.842900
  C     13.046200   -9.490510   99.261600
  H     14.032400   -9.219700   99.107900
  H     12.909700   -9.650140  100.323000
  H     13.060600  -10.456700   98.667500
  S      8.876510  -11.290100   92.749100
  C      7.181760  -11.805400   92.802600
  C      6.673590  -11.809300   94.041700
  C      7.617820  -11.371800   95.032600
  C      8.836300  -10.973800   94.467300
  H      5.706350  -12.261100   94.170200
  C      7.424560  -11.651400   96.424200
  H      8.424930  -11.852700   96.896100
  H      6.772340  -12.524400   96.528100
  C      6.678510  -10.610900   97.197700
  H      5.598050  -10.577700   96.867400
  H      7.013470   -9.602260   96.950600
  C      6.809280  -10.711200   98.735500
  H      6.299860   -9.850530   99.200600
  H      7.882610  -10.557800   98.890900
  H      6.485000  -11.646700   99.193000
  H     13.646300  -10.068700   95.406500
  H      6.620800  -12.183500   91.990200

 Total Charge           Charge          ....    0
 Multiplicity           Mult            ....    1
 Number of Electrons    NEL             ....  134
 Basis Dimension        Dim             ....  322

ORBITAL ENERGIES
----------------

  NO   OCC          E(Eh)            E(eV)
   0   2.0000     -88.964775     -2420.8546
   1   2.0000     -88.963462     -2420.8189
   2   2.0000     -10.334055      -281.2039
   3   2.0000     -10.330058      -281.0952
   4   2.0000     -10.316839      -280.7355
   5   2.0000     -10.312399      -280.6146
   6   2.0000     -10.311811      -280.5986
   7   2.0000     -10.300761      -280.2980
   8   2.0000     -10.297639      -280.2130
   9   2.0000     -10.295894      -280.1655
  10   2.0000     -10.295348      -280.1507
  11   2.0000     -10.290400      -280.0160
  12   2.0000     -10.286693      -279.9151
  13   2.0000     -10.285357      -279.8788
  14   2.0000     -10.281177      -279.7651
  15   2.0000     -10.275729      -279.6168
  16   2.0000      -8.079535      -219.8553
  17   2.0000      -8.077858      -219.8097
  18   2.0000      -6.038182      -164.3073
  19   2.0000      -6.036653      -164.2657
  20   2.0000      -6.034203      -164.1990
  21   2.0000      -6.032635      -164.1563
  22   2.0000      -6.029989      -164.0843
  23   2.0000      -6.028104      -164.0330
  24   2.0000      -1.007512       -27.4158
  25   2.0000      -0.981627       -26.7114
  26   2.0000      -0.919047       -25.0086
  27   2.0000      -0.905527       -24.6406
  28   2.0000      -0.871812       -23.7232
  29   2.0000      -0.852966       -23.2104
  30   2.0000      -0.840051       -22.8589
  31   2.0000      -0.823119       -22.3982
  32   2.0000      -0.782403       -21.2903
  33   2.0000      -0.772786       -21.0286
  34   2.0000      -0.712495       -19.3880
  35   2.0000      -0.701959       -19.1013
  36   2.0000      -0.691356       -18.8128
  37   2.0000      -0.665465       -18.1082
  38   2.0000      -0.645129       -17.5549
  39   2.0000      -0.618823       -16.8390
  40   2.0000      -0.600577       -16.3425
  41   2.0000      -0.571486       -15.5509
  42   2.0000      -0.561910       -15.2904
  43   2.0000      -0.549156       -14.9433
  44   2.0000      -0.535483       -14.5712
  45   2.0000      -0.528156       -14.3719
  46   2.0000      -0.522101       -14.2071
  47   2.0000      -0.512517       -13.9463
  48   2.0000      -0.508909       -13.8481
  49   2.0000      -0.502088       -13.6625
  50   2.0000      -0.486330       -13.2337
  51   2.0000      -0.484707       -13.1895
  52   2.0000      -0.471179       -12.8214
  53   2.0000      -0.464844       -12.6490
  54   2.0000      -0.454178       -12.3588
  55   2.0000      -0.451317       -12.2810
  56   2.0000      -0.444193       -12.0871
  57   2.0000      -0.438990       -11.9455
  58   2.0000      -0.435211       -11.8427
  59   2.0000      -0.430438       -11.7128
  60   2.0000      -0.423561       -11.5257
  61   2.0000      -0.412631       -11.2283
  62   2.0000      -0.410631       -11.1738
  63   2.0000      -0.360328        -9.8050
  64   2.0000      -0.332662        -9.0522
  65   2.0000      -0.323044        -8.7905
  66   2.0000      -0.287166        -7.8142
  67   0.0000       0.022445         0.6108
  68   0.0000       0.069588         1.8936
  69   0.0000       0.099371         2.7040
  70   0.0000       0.115864         3.1528
  71   0.0000       0.124646         3.3918

MULLIKEN ATOMIC CHARGES
-----------------------
   0 S :    0.076565
   1 C :   -0.096720
   2 C :   -0.107491
   3 C :    0.014816
   4 C :   -0.102590
   5 H :    0.000433
   6 C :    0.078242
   7 H :    0.030828
   8 H :    0.010771
   9 C :   -0.050720
  10 H :    0.042817
  11 H :    0.027523
  12 C :   -0.049482
  13 H :    0.003277
  14 H :    0.039391
  15 H :    0.041150
  16 S :    0.083028
  17 C :   -0.065792
  18 C :   -0.023214
  19 C :   -0.021302
  20 C :   -0.131839
  21 H :    0.016792
  22 C :    0.046532
  23 H :    0.038772
  24 H :    0.024244
  25 C :   -0.111342
  26 H :    0.025859
  27 H :    0.018222
  28 C :   -0.035871
  29 H :    0.038758
  30 H :    0.026537
  31 H :    0.038327
  32 H :    0.035618
  33 H :    0.037861
Sum of atomic charges:   -0.0000000

LOEWDIN ATOMIC CHARGES
----------------------
   0 S :    0.369150
   1 C :   -0.179608
   2 C :   -0.050471
   3 C :   -0.067335
   4 C :   -0.177913
   5 H :    0.025979
   6 C :   -0.028890
   7 H :    0.035180
   8 H :    0.023377
   9 C :   -0.035019
  10 H :    0.029850
  11 H :    0.022802
  12 C :   -0.068286
  13 H :    0.010241
  14 H :    0.025905
  15 H :    0.037481
  16 S :    0.387892
  17 C :   -0.166121
  18 C :   -0.065578
  19 C :   -0.059272
  20 C :   -0.187595
  21 H :    0.034457
  22 C :   -0.043059
  23 H :    0.038110
  24 H :    0.036539
  25 C :   -0.046462
  26 H :    0.023875
  27 H :    0.016477
  28 C :   -0.064244
  29 H :    0.030157
  30 H :    0.025366
  31 H :    0.023060
  32 H :    0.020786
  33 H :    0.023173

  Mayer bond orders larger than 0.100000
B(  0-S ,  1-C ) :   1.1088 B(  0-S ,  4-C ) :   1.1224 B(  1-C ,  2-C ) :   1.6427
B(  1-C , 32-H ) :   0.9780 B(  2-C ,  3-C ) :   1.1749 B(  2-C ,  6-C ) :   1.0214
B(  3-C ,  4-C ) :   1.6154 B(  3-C ,  5-H ) :   0.9962 B(  4-C , 20-C ) :   1.0562
B(  6-C ,  7-H ) :   0.9322 B(  6-C ,  8-H ) :   0.9464 B(  6-C ,  9-C ) :   1.0592
B(  9-C , 10-H ) :   0.9575 B(  9-C , 11-H ) :   0.9588 B(  9-C , 12-C ) :   1.0641
B( 12-C , 13-H ) :   0.9764 B( 12-C , 14-H ) :   0.9761 B( 12-C , 15-H ) :   0.9744
B( 16-S , 17-C ) :   1.1293 B( 16-S , 20-C ) :   1.1247 B( 17-C , 18-C ) :   1.6698
B( 17-C , 33-H ) :   0.9666 B( 18-C , 19-C ) :   1.2056 B( 18-C , 21-H ) :   0.9886
B( 19-C , 20-C ) :   1.5937 B( 19-C , 22-C ) :   1.0722 B( 22-C , 23-H ) :   0.9353
B( 22-C , 24-H ) :   0.9262 B( 22-C , 25-C ) :   1.0534 B( 25-C , 26-H ) :   0.9497
B( 25-C , 27-H ) :   0.9568 B( 25-C , 28-C ) :   1.0773 B( 28-C , 29-H ) :   0.9740
B( 28-C , 30-H ) :   0.9748 B( 28-C , 31-H ) :   0.9757

Dispersion correction           -0.014355971
FINAL SINGLE POINT ENERGY     -1339.868053019998

DIPOLE MOMENT
-------------
                                X             Y             Z
Electronic contribution:      2.49876      -7.04774     -30.02063
Nuclear contribution   :     -2.72247       7.21082      30.57530
                        -----------------------------------------
Total Dipole Moment    :     -0.22371       0.16308       0.55466
                        -----------------------------------------
Magnitude (a.u.)       :      0.61991
Magnitude (Debye)      :      1.57570

Rotational constants in cm-1:     0.017952     0.009502     0.006555
Rotational constants in MHz :   538.180018   284.872389   196.500154

                             ****ORCA TERMINATED NORMALLY****
TOTAL RUN TIME: 0 days 0 hours 0 minutes 34 seconds 451 msec
