                         Program Version 4.2.1 -  RELEASE  -
|  1> ! wB97X-D3 SP def2-SVP
|  2> %pal
|  3> nprocs 16
|  4> end
|  5>
|  6> * xyz 0 1
|  7> S 	 -30.8073 	 70.0985 	 107.217
|  8> C 	 -29.2373 	 70.8157 	 107.207
|  9> C 	 -28.2652 	 69.9458 	 107.508
| 10> C 	 -28.7778 	 68.6354 	 107.897
| 11> C 	 -30.1427 	 68.5848 	 107.87
| 12> H 	 -28.3477 	 67.6835 	 108.35
| 13> C 	 -26.8087 	 70.306 	 107.566
| 14> H 	 -26.4989 	 70.3436 	 108.659
| 15> H 	 -26.6567 	 71.352 	 107.389
| 16> C 	 -25.8761 	 69.493 	 106.79
| 17> H 	 -24.9054 	 69.9051 	 106.928
| 18> H 	 -25.9659 	 68.451 	 107.171
| 19> C 	 -26.3459 	 69.4054 	 105.348
| 20> H 	 -25.7352 	 68.6265 	 104.921
| 21> H 	 -27.3385 	 69.0863 	 105.006
| 22> H 	 -26.0216 	 70.2342 	 104.81
| 23> S 	 -32.211 	 67.5413 	 109.432
| 24> C 	 -32.7515 	 65.8916 	 109.031
| 25> C 	 -32.0824 	 65.3024 	 107.994
| 26> C 	 -31.0692 	 66.176 	 107.548
| 27> C 	 -31.0414 	 67.4451 	 108.105
| 28> H 	 -32.4485 	 64.3606 	 107.57
| 29> C 	 -30.2752 	 65.7133 	 106.329
| 30> H 	 -29.7731 	 66.5102 	 105.887
| 31> H 	 -30.964 	 65.425 	 105.569
| 32> C 	 -29.4372 	 64.5361 	 106.527
| 33> H 	 -28.8814 	 64.27 	 105.653
| 34> H 	 -30.0709 	 63.6244 	 106.794
| 35> C 	 -28.4575 	 64.7771 	 107.752
| 36> H 	 -29.0025 	 64.917 	 108.624
| 37> H 	 -27.716 	 65.5302 	 107.559
| 38> H 	 -27.867 	 63.8815 	 107.838
| 39> H 	 -28.9892 	 71.7986 	 107.341
| 40> H 	 -33.6736 	 65.4932 	 109.502
| 41> *
| 42>
| 43>                          ****END OF INPUT****

CARTESIAN COORDINATES (ANGSTROEM)
---------------------------------
  S    -30.807300   70.098500  107.217000
  C    -29.237300   70.815700  107.207000
  C    -28.265200   69.945800  107.508000
  C    -28.777800   68.635400  107.897000
  C    -30.142700   68.584800  107.870000
  H    -28.347700   67.683500  108.350000
  C    -26.808700   70.306000  107.566000
  H    -26.498900   70.343600  108.659000
  H    -26.656700   71.352000  107.389000
  C    -25.876100   69.493000  106.790000
  H    -24.905400   69.905100  106.928000
  H    -25.965900   68.451000  107.171000
  C    -26.345900   69.405400  105.348000
  H    -25.735200   68.626500  104.921000
  H    -27.338500   69.086300  105.006000
  H    -26.021600   70.234200  104.810000
  S    -32.211000   67.541300  109.432000
  C    -32.751500   65.891600  109.031000
  C    -32.082400   65.302400  107.994000
  C    -31.069200   66.176000  107.548000
  C    -31.041400   67.445100  108.105000
  H    -32.448500   64.360600  107.570000
  C    -30.275200   65.713300  106.329000
  H    -29.773100   66.510200  105.887000
  H    -30.964000   65.425000  105.569000
  C    -29.437200   64.536100  106.527000
  H    -28.881400   64.270000  105.653000
  H    -30.070900   63.624400  106.794000
  C    -28.457500   64.777100  107.752000
  H    -29.002500   64.917000  108.624000
  H    -27.716000   65.530200  107.559000
  H    -27.867000   63.881500  107.838000
  H    -28.989200   71.798600  107.341000
  H    -33.673600   65.493200  109.502000

 Total Charge           Charge          ....    0
 Multiplicity           Mult            ....    1
 Number of Electrons    NEL             ....  134
 Basis Dimension        Dim             ....  322

ORBITAL ENERGIES
----------------

  NO   OCC          E(Eh)            E(eV)
   0   2.0000     -88.966194     -2420.8932
   1   2.0000     -88.958541     -2420.6850
   2   2.0000     -10.328482      -281.0523
   3   2.0000     -10.328163      -281.0436
   4   2.0000     -10.323800      -280.9249
   5   2.0000     -10.304747      -280.4064
   6   2.0000     -10.299652      -280.2678
   7   2.0000     -10.298843      -280.2458
   8   2.0000     -10.297925      -280.2208
   9   2.0000     -10.296614      -280.1851
  10   2.0000     -10.286567      -279.9117
  11   2.0000     -10.283892      -279.8389
  12   2.0000     -10.283190      -279.8198
  13   2.0000     -10.274650      -279.5874
  14   2.0000     -10.267713      -279.3987
  15   2.0000     -10.265426      -279.3364
  16   2.0000      -8.080378      -219.8783
  17   2.0000      -8.073756      -219.6981
  18   2.0000      -6.038852      -164.3255
  19   2.0000      -6.035028      -164.2215
  20   2.0000      -6.032357      -164.1488
  21   2.0000      -6.031135      -164.1155
  22   2.0000      -6.028309      -164.0386
  23   2.0000      -6.024261      -163.9285
  24   2.0000      -1.005964       -27.3737
  25   2.0000      -0.986927       -26.8557
  26   2.0000      -0.923388       -25.1267
  27   2.0000      -0.916315       -24.9342
  28   2.0000      -0.874375       -23.7930
  29   2.0000      -0.844550       -22.9814
  30   2.0000      -0.841772       -22.9058
  31   2.0000      -0.819294       -22.2941
  32   2.0000      -0.789347       -21.4792
  33   2.0000      -0.781226       -21.2582
  34   2.0000      -0.712083       -19.3768
  35   2.0000      -0.694844       -18.9077
  36   2.0000      -0.691592       -18.8192
  37   2.0000      -0.659880       -17.9562
  38   2.0000      -0.645253       -17.5582
  39   2.0000      -0.616845       -16.7852
  40   2.0000      -0.602084       -16.3835
  41   2.0000      -0.574551       -15.6343
  42   2.0000      -0.557641       -15.1742
  43   2.0000      -0.554082       -15.0773
  44   2.0000      -0.547670       -14.9028
  45   2.0000      -0.543737       -14.7958
  46   2.0000      -0.518170       -14.1001
  47   2.0000      -0.513996       -13.9865
  48   2.0000      -0.504977       -13.7411
  49   2.0000      -0.496531       -13.5113
  50   2.0000      -0.488757       -13.2998
  51   2.0000      -0.478362       -13.0169
  52   2.0000      -0.472707       -12.8630
  53   2.0000      -0.468090       -12.7374
  54   2.0000      -0.459365       -12.5000
  55   2.0000      -0.453288       -12.3346
  56   2.0000      -0.445392       -12.1197
  57   2.0000      -0.433765       -11.8033
  58   2.0000      -0.423237       -11.5169
  59   2.0000      -0.420706       -11.4480
  60   2.0000      -0.417339       -11.3564
  61   2.0000      -0.410944       -11.1824
  62   2.0000      -0.406056       -11.0494
  63   2.0000      -0.342647        -9.3239
  64   2.0000      -0.330191        -8.9849
  65   2.0000      -0.326280        -8.8785
  66   2.0000      -0.305392        -8.3101
  67   0.0000       0.031992         0.8705
  68   0.0000       0.070401         1.9157
  69   0.0000       0.113863         3.0984
  70   0.0000       0.115204         3.1349
  71   0.0000       0.126290         3.4365

MULLIKEN ATOMIC CHARGES
-----------------------
   0 S :    0.092483
   1 C :   -0.054581
   2 C :   -0.114296
   3 C :    0.015907
   4 C :   -0.171065
   5 H :    0.039572
   6 C :    0.065962
   7 H :    0.031149
   8 H :   -0.006215
   9 C :   -0.039124
  10 H :    0.028895
  11 H :    0.030852
  12 C :   -0.034312
  13 H :    0.008531
  14 H :    0.053617
  15 H :    0.009911
  16 S :    0.101874
  17 C :   -0.106253
  18 C :   -0.031419
  19 C :   -0.040275
  20 C :   -0.168640
  21 H :    0.037633
  22 C :    0.135125
  23 H :    0.002949
  24 H :    0.015358
  25 C :   -0.101173
  26 H :    0.026581
  27 H :    0.030569
  28 C :   -0.036194
  29 H :    0.042237
  30 H :    0.028176
  31 H :    0.018194
  32 H :    0.019858
  33 H :    0.068114
Sum of atomic charges:    0.0000000

LOEWDIN ATOMIC CHARGES
----------------------
   0 S :    0.386937
   1 C :   -0.193780
   2 C :   -0.054557
   3 C :   -0.072163
   4 C :   -0.182020
   5 H :    0.048707
   6 C :   -0.043458
   7 H :    0.035860
   8 H :    0.021252
   9 C :   -0.035226
  10 H :    0.028380
  11 H :    0.027544
  12 C :   -0.067633
  13 H :    0.025237
  14 H :    0.035115
  15 H :    0.015926
  16 S :    0.384401
  17 C :   -0.163835
  18 C :   -0.074457
  19 C :   -0.044829
  20 C :   -0.205495
  21 H :    0.042195
  22 C :   -0.031294
  23 H :    0.020457
  24 H :    0.030943
  25 C :   -0.034575
  26 H :    0.021664
  27 H :    0.026696
  28 C :   -0.057770
  29 H :    0.017633
  30 H :    0.019837
  31 H :    0.023567
  32 H :    0.016919
  33 H :    0.031824

  Mayer bond orders larger than 0.100000
B(  0-S ,  1-C ) :   1.1159 B(  0-S ,  4-C ) :   1.1359 B(  1-C ,  2-C ) :   1.6810
B(  1-C , 32-H ) :   0.9609 B(  2-C ,  3-C ) :   1.1573 B(  2-C ,  6-C ) :   1.0294
B(  3-C ,  4-C ) :   1.6515 B(  3-C ,  5-H ) :   0.9803 B(  4-C , 20-C ) :   1.0023
B(  6-C ,  7-H ) :   0.9299 B(  6-C ,  8-H ) :   0.9323 B(  6-C ,  9-C ) :   1.0859
B(  9-C , 10-H ) :   0.9477 B(  9-C , 11-H ) :   0.9544 B(  9-C , 12-C ) :   1.0813
B( 12-C , 13-H ) :   0.9683 B( 12-C , 14-H ) :   0.9705 B( 12-C , 15-H ) :   0.9729
B( 16-S , 17-C ) :   1.1604 B( 16-S , 20-C ) :   1.1239 B( 17-C , 18-C ) :   1.6241
B( 17-C , 33-H ) :   0.9588 B( 18-C , 19-C ) :   1.2068 B( 18-C , 21-H ) :   0.9909
B( 19-C , 20-C ) :   1.6211 B( 19-C , 22-C ) :   1.0379 B( 22-C , 23-H ) :   0.9310
B( 22-C , 24-H ) :   0.9310 B( 22-C , 25-C ) :   1.0825 B( 25-C , 26-H ) :   0.9536
B( 25-C , 27-H ) :   0.9523 B( 25-C , 28-C ) :   1.0766 B( 28-C , 29-H ) :   0.9721
B( 28-C , 30-H ) :   0.9717 B( 28-C , 31-H ) :   0.9705

Dispersion correction           -0.015806298
FINAL SINGLE POINT ENERGY     -1339.847499166556

DIPOLE MOMENT
-------------
                                X             Y             Z
Electronic contribution:    -23.89969      10.02435      10.38034
Nuclear contribution   :     24.34501     -10.45354     -10.57457
                        -----------------------------------------
Total Dipole Moment    :      0.44532      -0.42919      -0.19423
                        -----------------------------------------
Magnitude (a.u.)       :      0.64826
Magnitude (Debye)      :      1.64775

Rotational constants in cm-1:     0.019889     0.009859     0.007407
Rotational constants in MHz :   596.267371   295.554771   222.053202

                             ****ORCA TERMINATED NORMALLY****
TOTAL RUN TIME: 0 days 0 hours 0 minutes 29 seconds 655 msec
