                         Program Version 4.2.1 -  RELEASE  -
|  1> ! wB97X-D3 SP def2-SVP
|  2> %pal
|  3> nprocs 16
|  4> end
|  5>
|  6> * xyz 0 1
|  7> S 	 -103.016 	 52.9635 	 117.803
|  8> C 	 -102.958 	 54.3696 	 116.804
|  9> C 	 -103.711 	 55.435 	 117.32
| 10> C 	 -104.177 	 55.1648 	 118.648
| 11> C 	 -103.879 	 53.8751 	 119.096
| 12> H 	 -104.605 	 55.7752 	 119.421
| 13> C 	 -103.936 	 56.7542 	 116.669
| 14> H 	 -103.641 	 56.5745 	 115.616
| 15> H 	 -103.091 	 57.3468 	 117.054
| 16> C 	 -105.178 	 57.6567 	 116.933
| 17> H 	 -105.17 	 57.7627 	 117.988
| 18> H 	 -105.075 	 58.6155 	 116.408
| 19> C 	 -106.46 	 57.0991 	 116.409
| 20> H 	 -107.384 	 57.6207 	 116.706
| 21> H 	 -106.397 	 57.2127 	 115.394
| 22> H 	 -106.56 	 56.024 	 116.644
| 23> S 	 -102.642 	 53.0291 	 121.416
| 24> C 	 -103.674 	 52.645 	 122.777
| 25> C 	 -105.04 	 52.8949 	 122.573
| 26> C 	 -105.198 	 53.4737 	 121.306
| 27> C 	 -104.085 	 53.4465 	 120.487
| 28> H 	 -105.788 	 52.7282 	 123.358
| 29> C 	 -106.611 	 53.8433 	 120.834
| 30> H 	 -107.086 	 52.8125 	 120.907
| 31> H 	 -106.679 	 54.2417 	 119.823
| 32> C 	 -107.324 	 54.8178 	 121.648
| 33> H 	 -106.779 	 55.7224 	 121.456
| 34> H 	 -107.284 	 54.6086 	 122.738
| 35> C 	 -108.822 	 54.7997 	 121.348
| 36> H 	 -108.92 	 55.1461 	 120.291
| 37> H 	 -109.4 	 55.4623 	 121.946
| 38> H 	 -109.239 	 53.8391 	 121.405
| 39> H 	 -102.61 	 54.4144 	 115.722
| 40> H 	 -103.273 	 52.5756 	 123.734
| 41> *
| 42>
| 43>                          ****END OF INPUT****

CARTESIAN COORDINATES (ANGSTROEM)
---------------------------------
  S    -103.016000   52.963500  117.803000
  C    -102.958000   54.369600  116.804000
  C    -103.711000   55.435000  117.320000
  C    -104.177000   55.164800  118.648000
  C    -103.879000   53.875100  119.096000
  H    -104.605000   55.775200  119.421000
  C    -103.936000   56.754200  116.669000
  H    -103.641000   56.574500  115.616000
  H    -103.091000   57.346800  117.054000
  C    -105.178000   57.656700  116.933000
  H    -105.170000   57.762700  117.988000
  H    -105.075000   58.615500  116.408000
  C    -106.460000   57.099100  116.409000
  H    -107.384000   57.620700  116.706000
  H    -106.397000   57.212700  115.394000
  H    -106.560000   56.024000  116.644000
  S    -102.642000   53.029100  121.416000
  C    -103.674000   52.645000  122.777000
  C    -105.040000   52.894900  122.573000
  C    -105.198000   53.473700  121.306000
  C    -104.085000   53.446500  120.487000
  H    -105.788000   52.728200  123.358000
  C    -106.611000   53.843300  120.834000
  H    -107.086000   52.812500  120.907000
  H    -106.679000   54.241700  119.823000
  C    -107.324000   54.817800  121.648000
  H    -106.779000   55.722400  121.456000
  H    -107.284000   54.608600  122.738000
  C    -108.822000   54.799700  121.348000
  H    -108.920000   55.146100  120.291000
  H    -109.400000   55.462300  121.946000
  H    -109.239000   53.839100  121.405000
  H    -102.610000   54.414400  115.722000
  H    -103.273000   52.575600  123.734000

 Total Charge           Charge          ....    0
 Multiplicity           Mult            ....    1
 Number of Electrons    NEL             ....  134
 Basis Dimension        Dim             ....  322

ORBITAL ENERGIES
----------------

  NO   OCC          E(Eh)            E(eV)
   0   2.0000     -88.969671     -2420.9878
   1   2.0000     -88.966676     -2420.9063
   2   2.0000     -10.332797      -281.1697
   3   2.0000     -10.326313      -280.9933
   4   2.0000     -10.318350      -280.7766
   5   2.0000     -10.315600      -280.7017
   6   2.0000     -10.305049      -280.4146
   7   2.0000     -10.303446      -280.3710
   8   2.0000     -10.298684      -280.2414
   9   2.0000     -10.293753      -280.1072
  10   2.0000     -10.293389      -280.0973
  11   2.0000     -10.288953      -279.9766
  12   2.0000     -10.288277      -279.9582
  13   2.0000     -10.281291      -279.7681
  14   2.0000     -10.274559      -279.5850
  15   2.0000     -10.268704      -279.4257
  16   2.0000      -8.083493      -219.9630
  17   2.0000      -8.081283      -219.9029
  18   2.0000      -6.042088      -164.4136
  19   2.0000      -6.039655      -164.3474
  20   2.0000      -6.038137      -164.3061
  21   2.0000      -6.035905      -164.2453
  22   2.0000      -6.034202      -164.1990
  23   2.0000      -6.032096      -164.1417
  24   2.0000      -1.003802       -27.3148
  25   2.0000      -0.982579       -26.7373
  26   2.0000      -0.922348       -25.0984
  27   2.0000      -0.914378       -24.8815
  28   2.0000      -0.870315       -23.6825
  29   2.0000      -0.855631       -23.2829
  30   2.0000      -0.851838       -23.1797
  31   2.0000      -0.814269       -22.1574
  32   2.0000      -0.784269       -21.3410
  33   2.0000      -0.771431       -20.9917
  34   2.0000      -0.709517       -19.3069
  35   2.0000      -0.695905       -18.9365
  36   2.0000      -0.691891       -18.8273
  37   2.0000      -0.663426       -18.0527
  38   2.0000      -0.638449       -17.3731
  39   2.0000      -0.618042       -16.8178
  40   2.0000      -0.603687       -16.4272
  41   2.0000      -0.573303       -15.6004
  42   2.0000      -0.567403       -15.4398
  43   2.0000      -0.551181       -14.9984
  44   2.0000      -0.549971       -14.9655
  45   2.0000      -0.526968       -14.3395
  46   2.0000      -0.522386       -14.2148
  47   2.0000      -0.514499       -14.0002
  48   2.0000      -0.503864       -13.7108
  49   2.0000      -0.492271       -13.3954
  50   2.0000      -0.486886       -13.2488
  51   2.0000      -0.483409       -13.1542
  52   2.0000      -0.472449       -12.8560
  53   2.0000      -0.463650       -12.6166
  54   2.0000      -0.458078       -12.4649
  55   2.0000      -0.456726       -12.4282
  56   2.0000      -0.441587       -12.0162
  57   2.0000      -0.439147       -11.9498
  58   2.0000      -0.435297       -11.8450
  59   2.0000      -0.424305       -11.5459
  60   2.0000      -0.422392       -11.4939
  61   2.0000      -0.419143       -11.4055
  62   2.0000      -0.410653       -11.1744
  63   2.0000      -0.347098        -9.4450
  64   2.0000      -0.332664        -9.0523
  65   2.0000      -0.322796        -8.7837
  66   2.0000      -0.288525        -7.8512
  67   0.0000       0.029483         0.8023
  68   0.0000       0.061410         1.6710
  69   0.0000       0.109306         2.9744
  70   0.0000       0.117075         3.1858
  71   0.0000       0.119777         3.2593

MULLIKEN ATOMIC CHARGES
-----------------------
   0 S :    0.123388
   1 C :   -0.143778
   2 C :   -0.091434
   3 C :    0.026662
   4 C :   -0.172407
   5 H :    0.014569
   6 C :    0.027024
   7 H :    0.010961
   8 H :    0.047541
   9 C :   -0.034434
  10 H :    0.023414
  11 H :    0.035172
  12 C :   -0.026270
  13 H :    0.034505
  14 H :    0.006048
  15 H :    0.037451
  16 S :    0.110274
  17 C :   -0.072959
  18 C :   -0.046646
  19 C :   -0.016826
  20 C :   -0.164002
  21 H :    0.036924
  22 C :    0.027227
  23 H :    0.041529
  24 H :    0.022906
  25 C :   -0.081904
  26 H :    0.021730
  27 H :    0.023265
  28 C :   -0.004463
  29 H :    0.021810
  30 H :    0.027654
  31 H :    0.020266
  32 H :    0.073003
  33 H :    0.041802
Sum of atomic charges:    0.0000000

LOEWDIN ATOMIC CHARGES
----------------------
   0 S :    0.397931
   1 C :   -0.226098
   2 C :   -0.065576
   3 C :   -0.063389
   4 C :   -0.181026
   5 H :    0.029584
   6 C :   -0.042235
   7 H :    0.027897
   8 H :    0.044077
   9 C :   -0.032729
  10 H :    0.017235
  11 H :    0.033847
  12 C :   -0.064151
  13 H :    0.028632
  14 H :    0.013931
  15 H :    0.028450
  16 S :    0.405570
  17 C :   -0.169373
  18 C :   -0.067589
  19 C :   -0.055135
  20 C :   -0.200937
  21 H :    0.039445
  22 C :   -0.034837
  23 H :    0.038797
  24 H :    0.027692
  25 C :   -0.046606
  26 H :    0.022600
  27 H :    0.021124
  28 C :   -0.053450
  29 H :    0.028497
  30 H :    0.020992
  31 H :    0.019427
  32 H :    0.044105
  33 H :    0.013300

  Mayer bond orders larger than 0.100000
B(  0-S ,  1-C ) :   1.1360 B(  0-S ,  4-C ) :   1.1431 B(  1-C ,  2-C ) :   1.6113
B(  1-C , 32-H ) :   0.9504 B(  2-C ,  3-C ) :   1.2139 B(  2-C ,  6-C ) :   1.0256
B(  3-C ,  4-C ) :   1.5860 B(  3-C ,  5-H ) :   0.9890 B(  4-C , 20-C ) :   1.0431
B(  6-C ,  7-H ) :   0.9359 B(  6-C ,  8-H ) :   0.9293 B(  6-C ,  9-C ) :   1.0731
B(  9-C , 10-H ) :   0.9480 B(  9-C , 11-H ) :   0.9534 B(  9-C , 12-C ) :   1.0820
B( 12-C , 13-H ) :   0.9726 B( 12-C , 14-H ) :   0.9733 B( 12-C , 15-H ) :   0.9759
B( 16-S , 17-C ) :   1.1762 B( 16-S , 20-C ) :   1.1329 B( 17-C , 18-C ) :   1.5834
B( 17-C , 20-C ) :   0.1022 B( 17-C , 33-H ) :   0.9696 B( 18-C , 19-C ) :   1.2536
B( 18-C , 21-H ) :   0.9876 B( 19-C , 20-C ) :   1.5934 B( 19-C , 22-C ) :   1.0258
B( 22-C , 23-H ) :   0.9418 B( 22-C , 24-H ) :   0.9395 B( 22-C , 25-C ) :   1.0576
B( 25-C , 26-H ) :   0.9533 B( 25-C , 27-H ) :   0.9546 B( 25-C , 28-C ) :   1.0814
B( 28-C , 29-H ) :   0.9706 B( 28-C , 30-H ) :   0.9743 B( 28-C , 31-H ) :   0.9737

Dispersion correction           -0.014250667
FINAL SINGLE POINT ENERGY     -1339.853943743285

DIPOLE MOMENT
-------------
                                X             Y             Z
Electronic contribution:     24.66535     -18.55324       4.28390
Nuclear contribution   :    -25.15263      19.14067      -4.17906
                        -----------------------------------------
Total Dipole Moment    :     -0.48728       0.58742       0.10483
                        -----------------------------------------
Magnitude (a.u.)       :      0.77039
Magnitude (Debye)      :      1.95817

Rotational constants in cm-1:     0.015661     0.010235     0.006822
Rotational constants in MHz :   469.516417   306.847781   204.529538

                             ****ORCA TERMINATED NORMALLY****
TOTAL RUN TIME: 0 days 0 hours 0 minutes 35 seconds 375 msec
