                         Program Version 4.2.1 -  RELEASE  -
|  1> ! wB97X-D3 SP def2-SVP
|  2> %pal
|  3> nprocs 16
|  4> end
|  5>
|  6> * xyz 0 1
|  7> S 	 -48.6617 	 8.96215 	 90.6828
|  8> C 	 -48.5091 	 10.5447 	 91.4142
|  9> C 	 -49.0479 	 11.5365 	 90.5378
| 10> C 	 -49.6626 	 10.9448 	 89.361
| 11> C 	 -49.6213 	 9.56174 	 89.3174
| 12> H 	 -50.0373 	 11.3661 	 88.498
| 13> C 	 -48.8576 	 13.0785 	 90.7912
| 14> H 	 -48.7219 	 13.3833 	 91.8704
| 15> H 	 -49.7935 	 13.4809 	 90.5307
| 16> C 	 -47.7752 	 13.8712 	 90.0237
| 17> H 	 -47.7565 	 14.9297 	 90.2817
| 18> H 	 -46.7979 	 13.4842 	 90.2702
| 19> C 	 -47.8932 	 13.5793 	 88.4601
| 20> H 	 -47.9266 	 12.5107 	 88.3206
| 21> H 	 -48.8416 	 14.056 	 88.1431
| 22> H 	 -47.1124 	 13.9599 	 87.8546
| 23> S 	 -49.6014 	 8.64543 	 86.707
| 24> C 	 -50.8486 	 7.62438 	 86.1279
| 25> C 	 -51.7369 	 7.30974 	 87.0912
| 26> C 	 -51.372 	 7.78216 	 88.3832
| 27> C 	 -50.2686 	 8.66158 	 88.3162
| 28> H 	 -52.5486 	 6.72571 	 86.866
| 29> C 	 -52.3574 	 7.67208 	 89.5052
| 30> H 	 -51.8568 	 7.66193 	 90.4442
| 31> H 	 -52.8712 	 6.73343 	 89.4224
| 32> C 	 -53.3708 	 8.8572 	 89.6535
| 33> H 	 -53.6775 	 9.33011 	 88.7304
| 34> H 	 -52.8838 	 9.596 	 90.1868
| 35> C 	 -54.6202 	 8.38172 	 90.3214
| 36> H 	 -55.2579 	 7.7991 	 89.5842
| 37> H 	 -55.2413 	 9.25854 	 90.4651
| 38> H 	 -54.489 	 7.8046 	 91.258
| 39> H 	 -47.8612 	 10.6648 	 92.2094
| 40> H 	 -51.1317 	 7.36681 	 85.1173
| 41> *
| 42>
| 43>                          ****END OF INPUT****

CARTESIAN COORDINATES (ANGSTROEM)
---------------------------------
  S    -48.661700    8.962150   90.682800
  C    -48.509100   10.544700   91.414200
  C    -49.047900   11.536500   90.537800
  C    -49.662600   10.944800   89.361000
  C    -49.621300    9.561740   89.317400
  H    -50.037300   11.366100   88.498000
  C    -48.857600   13.078500   90.791200
  H    -48.721900   13.383300   91.870400
  H    -49.793500   13.480900   90.530700
  C    -47.775200   13.871200   90.023700
  H    -47.756500   14.929700   90.281700
  H    -46.797900   13.484200   90.270200
  C    -47.893200   13.579300   88.460100
  H    -47.926600   12.510700   88.320600
  H    -48.841600   14.056000   88.143100
  H    -47.112400   13.959900   87.854600
  S    -49.601400    8.645430   86.707000
  C    -50.848600    7.624380   86.127900
  C    -51.736900    7.309740   87.091200
  C    -51.372000    7.782160   88.383200
  C    -50.268600    8.661580   88.316200
  H    -52.548600    6.725710   86.866000
  C    -52.357400    7.672080   89.505200
  H    -51.856800    7.661930   90.444200
  H    -52.871200    6.733430   89.422400
  C    -53.370800    8.857200   89.653500
  H    -53.677500    9.330110   88.730400
  H    -52.883800    9.596000   90.186800
  C    -54.620200    8.381720   90.321400
  H    -55.257900    7.799100   89.584200
  H    -55.241300    9.258540   90.465100
  H    -54.489000    7.804600   91.258000
  H    -47.861200   10.664800   92.209400
  H    -51.131700    7.366810   85.117300

 Total Charge           Charge          ....    0
 Multiplicity           Mult            ....    1
 Number of Electrons    NEL             ....  134
 Basis Dimension        Dim             ....  322

ORBITAL ENERGIES
----------------

  NO   OCC          E(Eh)            E(eV)
   0   2.0000     -88.967284     -2420.9229
   1   2.0000     -88.966218     -2420.8939
   2   2.0000     -10.335559      -281.2449
   3   2.0000     -10.330359      -281.1034
   4   2.0000     -10.319095      -280.7969
   5   2.0000     -10.318727      -280.7868
   6   2.0000     -10.309245      -280.5288
   7   2.0000     -10.302791      -280.3532
   8   2.0000     -10.297763      -280.2164
   9   2.0000     -10.297304      -280.2039
  10   2.0000     -10.289407      -279.9890
  11   2.0000     -10.282053      -279.7889
  12   2.0000     -10.281224      -279.7663
  13   2.0000     -10.278689      -279.6973
  14   2.0000     -10.274668      -279.5879
  15   2.0000     -10.273970      -279.5689
  16   2.0000      -8.082558      -219.9376
  17   2.0000      -8.080447      -219.8801
  18   2.0000      -6.041052      -164.3854
  19   2.0000      -6.038844      -164.3253
  20   2.0000      -6.036855      -164.2712
  21   2.0000      -6.034886      -164.2176
  22   2.0000      -6.033438      -164.1782
  23   2.0000      -6.031481      -164.1249
  24   2.0000      -1.006366       -27.3846
  25   2.0000      -0.982944       -26.7473
  26   2.0000      -0.911117       -24.7928
  27   2.0000      -0.901521       -24.5316
  28   2.0000      -0.869910       -23.6715
  29   2.0000      -0.854182       -23.2435
  30   2.0000      -0.840215       -22.8634
  31   2.0000      -0.819020       -22.2867
  32   2.0000      -0.782022       -21.2799
  33   2.0000      -0.768558       -20.9135
  34   2.0000      -0.705783       -19.2053
  35   2.0000      -0.702309       -19.1108
  36   2.0000      -0.692234       -18.8367
  37   2.0000      -0.665256       -18.1025
  38   2.0000      -0.653314       -17.7776
  39   2.0000      -0.615104       -16.7378
  40   2.0000      -0.598407       -16.2835
  41   2.0000      -0.572907       -15.5896
  42   2.0000      -0.561376       -15.2758
  43   2.0000      -0.546052       -14.8588
  44   2.0000      -0.540564       -14.7095
  45   2.0000      -0.526680       -14.3317
  46   2.0000      -0.517591       -14.0844
  47   2.0000      -0.513998       -13.9866
  48   2.0000      -0.507876       -13.8200
  49   2.0000      -0.500736       -13.6257
  50   2.0000      -0.490480       -13.3466
  51   2.0000      -0.477068       -12.9817
  52   2.0000      -0.468617       -12.7517
  53   2.0000      -0.464951       -12.6520
  54   2.0000      -0.457961       -12.4618
  55   2.0000      -0.453815       -12.3489
  56   2.0000      -0.443333       -12.0637
  57   2.0000      -0.436471       -11.8770
  58   2.0000      -0.431690       -11.7469
  59   2.0000      -0.425615       -11.5816
  60   2.0000      -0.421251       -11.4628
  61   2.0000      -0.414815       -11.2877
  62   2.0000      -0.407095       -11.0776
  63   2.0000      -0.338658        -9.2154
  64   2.0000      -0.334926        -9.1138
  65   2.0000      -0.323426        -8.8009
  66   2.0000      -0.303929        -8.2703
  67   0.0000       0.034618         0.9420
  68   0.0000       0.059761         1.6262
  69   0.0000       0.107857         2.9349
  70   0.0000       0.122874         3.3436
  71   0.0000       0.131991         3.5917

MULLIKEN ATOMIC CHARGES
-----------------------
   0 S :    0.107630
   1 C :   -0.090012
   2 C :   -0.095004
   3 C :    0.079295
   4 C :   -0.175508
   5 H :   -0.015113
   6 C :    0.061148
   7 H :    0.036192
   8 H :    0.014567
   9 C :   -0.057150
  10 H :    0.037944
  11 H :    0.020690
  12 C :   -0.074537
  13 H :    0.046908
  14 H :    0.028820
  15 H :    0.029879
  16 S :    0.122814
  17 C :   -0.061618
  18 C :   -0.034776
  19 C :   -0.007066
  20 C :   -0.194444
  21 H :   -0.014612
  22 C :    0.079078
  23 H :    0.013742
  24 H :    0.013229
  25 C :   -0.020481
  26 H :    0.019773
  27 H :    0.017170
  28 C :   -0.077019
  29 H :    0.032664
  30 H :    0.026469
  31 H :    0.045286
  32 H :    0.035506
  33 H :    0.048535
Sum of atomic charges:    0.0000000

LOEWDIN ATOMIC CHARGES
----------------------
   0 S :    0.401420
   1 C :   -0.180561
   2 C :   -0.054912
   3 C :   -0.055278
   4 C :   -0.193087
   5 H :    0.019615
   6 C :   -0.033361
   7 H :    0.038303
   8 H :    0.020769
   9 C :   -0.034555
  10 H :    0.025310
  11 H :    0.018558
  12 C :   -0.064326
  13 H :    0.026101
  14 H :    0.023872
  15 H :    0.018726
  16 S :    0.429764
  17 C :   -0.196701
  18 C :   -0.063631
  19 C :   -0.048878
  20 C :   -0.210072
  21 H :    0.018100
  22 C :   -0.027526
  23 H :    0.027404
  24 H :    0.025176
  25 C :   -0.029350
  26 H :    0.023628
  27 H :    0.015743
  28 C :   -0.069104
  29 H :    0.029807
  30 H :    0.025496
  31 H :    0.027118
  32 H :    0.013006
  33 H :    0.033426

  Mayer bond orders larger than 0.100000
B(  0-S ,  1-C ) :   1.1628 B(  0-S ,  4-C ) :   1.1537 B(  1-C ,  2-C ) :   1.5767
B(  1-C ,  4-C ) :   0.1018 B(  1-C , 32-H ) :   0.9825 B(  2-C ,  3-C ) :   1.2289
B(  2-C ,  6-C ) :   1.0108 B(  3-C ,  4-C ) :   1.5844 B(  3-C ,  5-H ) :   1.0005
B(  4-C , 20-C ) :   1.0047 B(  6-C ,  7-H ) :   0.9501 B(  6-C ,  8-H ) :   0.9416
B(  6-C ,  9-C ) :   1.0636 B(  9-C , 10-H ) :   0.9592 B(  9-C , 11-H ) :   0.9579
B(  9-C , 12-C ) :   1.0663 B( 12-C , 13-H ) :   0.9724 B( 12-C , 14-H ) :   0.9799
B( 12-C , 15-H ) :   0.9758 B( 16-S , 17-C ) :   1.1563 B( 16-S , 20-C ) :   1.1598
B( 17-C , 18-C ) :   1.6233 B( 17-C , 33-H ) :   0.9604 B( 18-C , 19-C ) :   1.2431
B( 18-C , 21-H ) :   1.0021 B( 19-C , 20-C ) :   1.5591 B( 19-C , 22-C ) :   1.0827
B( 22-C , 23-H ) :   0.9196 B( 22-C , 24-H ) :   0.9399 B( 22-C , 25-C ) :   1.0453
B( 25-C , 26-H ) :   0.9582 B( 25-C , 27-H ) :   0.9540 B( 25-C , 28-C ) :   1.0902
B( 28-C , 29-H ) :   0.9743 B( 28-C , 30-H ) :   0.9696 B( 28-C , 31-H ) :   0.9735

Dispersion correction           -0.014711896
FINAL SINGLE POINT ENERGY     -1339.859942173374

DIPOLE MOMENT
-------------
                                X             Y             Z
Electronic contribution:     11.54664     -14.14626      -5.67633
Nuclear contribution   :    -11.88496      14.50541       5.67511
                        -----------------------------------------
Total Dipole Moment    :     -0.33832       0.35915      -0.00122
                        -----------------------------------------
Magnitude (a.u.)       :      0.49341
Magnitude (Debye)      :      1.25414

Rotational constants in cm-1:     0.018539     0.008430     0.007231
Rotational constants in MHz :   555.775375   252.734233   216.788623

                             ****ORCA TERMINATED NORMALLY****
TOTAL RUN TIME: 0 days 0 hours 0 minutes 30 seconds 166 msec
