                         Program Version 4.2.1 -  RELEASE  -
|  1> ! wB97X-D3 SP def2-SVP
|  2> %pal
|  3> nprocs 16
|  4> end
|  5>
|  6> * xyz 0 1
|  7> S 	 -0.0425493 	 -6.15368 	 89.1918
|  8> C 	 0.980385 	 -6.32726 	 90.6763
|  9> C 	 0.765471 	 -7.54771 	 91.3855
| 10> C 	 -0.386672 	 -8.2347 	 90.8261
| 11> C 	 -0.945464 	 -7.59478 	 89.7225
| 12> H 	 -0.816865 	 -9.12986 	 91.3205
| 13> C 	 1.48165 	 -8.10861 	 92.6485
| 14> H 	 0.736627 	 -8.224 	 93.4809
| 15> H 	 2.24532 	 -7.49346 	 93.0775
| 16> C 	 2.03162 	 -9.50588 	 92.4031
| 17> H 	 2.77917 	 -9.60434 	 93.2287
| 18> H 	 1.23125 	 -10.1588 	 92.4936
| 19> C 	 2.88959 	 -9.6401 	 91.1185
| 20> H 	 3.26842 	 -8.6897 	 90.7861
| 21> H 	 3.55582 	 -10.5334 	 91.1765
| 22> H 	 2.12534 	 -9.97773 	 90.3821
| 23> S 	 -1.99413 	 -8.36881 	 87.3164
| 24> C 	 -3.60539 	 -8.9851 	 87.2387
| 25> C 	 -4.27679 	 -8.71694 	 88.3946
| 26> C 	 -3.38662 	 -8.31051 	 89.4169
| 27> C 	 -2.11666 	 -8.06976 	 88.9627
| 28> H 	 -5.35593 	 -8.8142 	 88.5159
| 29> C 	 -3.85866 	 -7.98832 	 90.9561
| 30> H 	 -3.13729 	 -8.42529 	 91.6448
| 31> H 	 -4.73283 	 -8.50315 	 91.0489
| 32> C 	 -3.83371 	 -6.52941 	 91.2732
| 33> H 	 -4.76912 	 -6.13217 	 90.8384
| 34> H 	 -3.00862 	 -6.01818 	 90.8047
| 35> C 	 -3.94839 	 -6.33611 	 92.7813
| 36> H 	 -4.17936 	 -5.37666 	 93.2073
| 37> H 	 -3.03736 	 -6.80421 	 93.3155
| 38> H 	 -4.69941 	 -7.03081 	 93.1647
| 39> H 	 1.89634 	 -5.71274 	 90.8304
| 40> H 	 -4.13488 	 -9.33744 	 86.4189
| 41> *
| 42>
| 43>                          ****END OF INPUT****

CARTESIAN COORDINATES (ANGSTROEM)
---------------------------------
  S     -0.042549   -6.153680   89.191800
  C      0.980385   -6.327260   90.676300
  C      0.765471   -7.547710   91.385500
  C     -0.386672   -8.234700   90.826100
  C     -0.945464   -7.594780   89.722500
  H     -0.816865   -9.129860   91.320500
  C      1.481650   -8.108610   92.648500
  H      0.736627   -8.224000   93.480900
  H      2.245320   -7.493460   93.077500
  C      2.031620   -9.505880   92.403100
  H      2.779170   -9.604340   93.228700
  H      1.231250  -10.158800   92.493600
  C      2.889590   -9.640100   91.118500
  H      3.268420   -8.689700   90.786100
  H      3.555820  -10.533400   91.176500
  H      2.125340   -9.977730   90.382100
  S     -1.994130   -8.368810   87.316400
  C     -3.605390   -8.985100   87.238700
  C     -4.276790   -8.716940   88.394600
  C     -3.386620   -8.310510   89.416900
  C     -2.116660   -8.069760   88.962700
  H     -5.355930   -8.814200   88.515900
  C     -3.858660   -7.988320   90.956100
  H     -3.137290   -8.425290   91.644800
  H     -4.732830   -8.503150   91.048900
  C     -3.833710   -6.529410   91.273200
  H     -4.769120   -6.132170   90.838400
  H     -3.008620   -6.018180   90.804700
  C     -3.948390   -6.336110   92.781300
  H     -4.179360   -5.376660   93.207300
  H     -3.037360   -6.804210   93.315500
  H     -4.699410   -7.030810   93.164700
  H      1.896340   -5.712740   90.830400
  H     -4.134880   -9.337440   86.418900

 Total Charge           Charge          ....    0
 Multiplicity           Mult            ....    1
 Number of Electrons    NEL             ....  134
 Basis Dimension        Dim             ....  322

ORBITAL ENERGIES
----------------

  NO   OCC          E(Eh)            E(eV)
   0   2.0000     -88.973592     -2421.0945
   1   2.0000     -88.966422     -2420.8994
   2   2.0000     -10.337527      -281.2984
   3   2.0000     -10.326479      -280.9978
   4   2.0000     -10.317794      -280.7615
   5   2.0000     -10.314783      -280.6795
   6   2.0000     -10.308051      -280.4963
   7   2.0000     -10.302633      -280.3489
   8   2.0000     -10.299710      -280.2693
   9   2.0000     -10.299283      -280.2577
  10   2.0000     -10.291679      -280.0508
  11   2.0000     -10.286536      -279.9109
  12   2.0000     -10.283874      -279.8384
  13   2.0000     -10.278848      -279.7017
  14   2.0000     -10.278584      -279.6945
  15   2.0000     -10.278298      -279.6867
  16   2.0000      -8.086496      -220.0447
  17   2.0000      -8.082840      -219.9453
  18   2.0000      -6.045085      -164.4951
  19   2.0000      -6.041465      -164.3966
  20   2.0000      -6.041222      -164.3900
  21   2.0000      -6.037102      -164.2779
  22   2.0000      -6.037081      -164.2773
  23   2.0000      -6.033636      -164.1836
  24   2.0000      -1.014563       -27.6077
  25   2.0000      -0.976992       -26.5853
  26   2.0000      -0.913688       -24.8627
  27   2.0000      -0.909678       -24.7536
  28   2.0000      -0.867356       -23.6019
  29   2.0000      -0.847306       -23.0564
  30   2.0000      -0.840834       -22.8802
  31   2.0000      -0.809119       -22.0173
  32   2.0000      -0.783530       -21.3209
  33   2.0000      -0.772144       -21.0111
  34   2.0000      -0.704877       -19.1807
  35   2.0000      -0.694181       -18.8896
  36   2.0000      -0.690232       -18.7822
  37   2.0000      -0.663729       -18.0610
  38   2.0000      -0.635363       -17.2891
  39   2.0000      -0.623013       -16.9530
  40   2.0000      -0.595261       -16.1979
  41   2.0000      -0.569579       -15.4990
  42   2.0000      -0.565610       -15.3910
  43   2.0000      -0.557857       -15.1801
  44   2.0000      -0.540070       -14.6961
  45   2.0000      -0.525057       -14.2875
  46   2.0000      -0.514832       -14.0093
  47   2.0000      -0.507830       -13.8188
  48   2.0000      -0.502030       -13.6609
  49   2.0000      -0.490051       -13.3350
  50   2.0000      -0.489137       -13.3101
  51   2.0000      -0.479935       -13.0597
  52   2.0000      -0.470272       -12.7967
  53   2.0000      -0.464158       -12.6304
  54   2.0000      -0.460027       -12.5180
  55   2.0000      -0.451803       -12.2942
  56   2.0000      -0.445577       -12.1248
  57   2.0000      -0.436466       -11.8768
  58   2.0000      -0.433207       -11.7882
  59   2.0000      -0.430421       -11.7124
  60   2.0000      -0.410876       -11.1805
  61   2.0000      -0.408211       -11.1080
  62   2.0000      -0.403420       -10.9776
  63   2.0000      -0.346151        -9.4192
  64   2.0000      -0.334075        -9.0906
  65   2.0000      -0.329799        -8.9743
  66   2.0000      -0.294620        -8.0170
  67   0.0000       0.032306         0.8791
  68   0.0000       0.063315         1.7229
  69   0.0000       0.101122         2.7517
  70   0.0000       0.113587         3.0909
  71   0.0000       0.129360         3.5201

MULLIKEN ATOMIC CHARGES
-----------------------
   0 S :    0.104764
   1 C :   -0.136985
   2 C :   -0.096592
   3 C :    0.018789
   4 C :   -0.157303
   5 H :    0.036034
   6 C :    0.060569
   7 H :    0.043085
   8 H :    0.018234
   9 C :   -0.102637
  10 H :    0.034052
  11 H :    0.023311
  12 C :   -0.038773
  13 H :    0.038751
  14 H :    0.047227
  15 H :    0.031744
  16 S :    0.126754
  17 C :   -0.062202
  18 C :   -0.045084
  19 C :   -0.074290
  20 C :   -0.154107
  21 H :    0.023053
  22 C :    0.115435
  23 H :    0.001853
  24 H :   -0.004770
  25 C :   -0.033235
  26 H :    0.021251
  27 H :    0.045861
  28 C :   -0.058665
  29 H :    0.039111
  30 H :    0.029162
  31 H :    0.014060
  32 H :    0.063850
  33 H :    0.027696
Sum of atomic charges:   -0.0000000

LOEWDIN ATOMIC CHARGES
----------------------
   0 S :    0.369685
   1 C :   -0.195814
   2 C :   -0.052690
   3 C :   -0.063933
   4 C :   -0.175655
   5 H :    0.037230
   6 C :   -0.030346
   7 H :    0.039563
   8 H :    0.024225
   9 C :   -0.040698
  10 H :    0.029793
  11 H :    0.010329
  12 C :   -0.070657
  13 H :    0.025248
  14 H :    0.032723
  15 H :    0.033522
  16 S :    0.449470
  17 C :   -0.187361
  18 C :   -0.070877
  19 C :   -0.055899
  20 C :   -0.232493
  21 H :    0.034368
  22 C :   -0.010480
  23 H :    0.023615
  24 H :    0.011309
  25 C :   -0.040362
  26 H :    0.026530
  27 H :    0.025279
  28 C :   -0.071232
  29 H :    0.022100
  30 H :    0.030370
  31 H :    0.023549
  32 H :    0.031747
  33 H :    0.017840

  Mayer bond orders larger than 0.100000
B(  0-S ,  1-C ) :   1.1156 B(  0-S ,  4-C ) :   1.1330 B(  1-C ,  2-C ) :   1.6407
B(  1-C , 32-H ) :   0.9564 B(  2-C ,  3-C ) :   1.2115 B(  2-C ,  6-C ) :   1.0145
B(  3-C ,  4-C ) :   1.6110 B(  3-C ,  5-H ) :   0.9794 B(  4-C , 20-C ) :   1.0106
B(  6-C ,  7-H ) :   0.9472 B(  6-C ,  8-H ) :   0.9485 B(  6-C ,  9-C ) :   1.0669
B(  9-C , 10-H ) :   0.9607 B(  9-C , 11-H ) :   0.9634 B(  9-C , 12-C ) :   1.0697
B( 12-C , 13-H ) :   0.9738 B( 12-C , 14-H ) :   0.9758 B( 12-C , 15-H ) :   0.9693
B( 16-S , 17-C ) :   1.1669 B( 16-S , 20-C ) :   1.1629 B( 17-C , 18-C ) :   1.5875
B( 17-C , 33-H ) :   0.9742 B( 18-C , 19-C ) :   1.2873 B( 18-C , 21-H ) :   0.9860
B( 19-C , 20-C ) :   1.5922 B( 19-C , 22-C ) :   1.0141 B( 22-C , 23-H ) :   0.9415
B( 22-C , 24-H ) :   0.9302 B( 22-C , 25-C ) :   1.0584 B( 25-C , 26-H ) :   0.9483
B( 25-C , 27-H ) :   0.9602 B( 25-C , 28-C ) :   1.0749 B( 28-C , 29-H ) :   0.9759
B( 28-C , 30-H ) :   0.9710 B( 28-C , 31-H ) :   0.9681

Dispersion correction           -0.015355405
FINAL SINGLE POINT ENERGY     -1339.849671523044

DIPOLE MOMENT
-------------
                                X             Y             Z
Electronic contribution:     -1.85916       4.76062     -23.21980
Nuclear contribution   :      1.70817      -5.02219      23.72607
                        -----------------------------------------
Total Dipole Moment    :     -0.15098      -0.26157       0.50628
                        -----------------------------------------
Magnitude (a.u.)       :      0.58952
Magnitude (Debye)      :      1.49843

Rotational constants in cm-1:     0.017864     0.009504     0.007907
Rotational constants in MHz :   535.541052   284.910936   237.041723

                             ****ORCA TERMINATED NORMALLY****
TOTAL RUN TIME: 0 days 0 hours 0 minutes 35 seconds 258 msec
