                         Program Version 4.2.1 -  RELEASE  -
|  1> ! wB97X-D3 SP def2-SVP
|  2> %pal
|  3> nprocs 16
|  4> end
|  5>
|  6> * xyz 0 1
|  7> S 	 -40.2297 	 25.4659 	 91.8564
|  8> C 	 -40.1135 	 23.7684 	 92.3703
|  9> C 	 -39.7662 	 22.9328 	 91.3343
| 10> C 	 -39.5113 	 23.7054 	 90.1548
| 11> C 	 -39.8053 	 25.0534 	 90.1954
| 12> H 	 -39.2133 	 23.3653 	 89.1494
| 13> C 	 -39.5873 	 21.4478 	 91.4223
| 14> H 	 -38.6405 	 21.2208 	 91.8956
| 15> H 	 -39.4403 	 21.1569 	 90.3509
| 16> C 	 -40.6123 	 20.6186 	 92.1561
| 17> H 	 -40.3391 	 19.5661 	 92.0409
| 18> H 	 -40.5349 	 20.7518 	 93.2449
| 19> C 	 -41.9897 	 20.8446 	 91.6034
| 20> H 	 -42.3627 	 21.8319 	 91.9671
| 21> H 	 -42.0816 	 20.8412 	 90.586
| 22> H 	 -42.6973 	 20.1402 	 92.0212
| 23> S 	 -41.2157 	 27.1536 	 89.1618
| 24> C 	 -40.4389 	 28.1672 	 87.9116
| 25> C 	 -39.4639 	 27.4248 	 87.2815
| 26> C 	 -39.0815 	 26.2749 	 87.948
| 27> C 	 -39.8211 	 26.0389 	 89.1372
| 28> H 	 -39.109 	 27.8649 	 86.3609
| 29> C 	 -37.8406 	 25.4899 	 87.534
| 30> H 	 -37.5873 	 24.7684 	 88.3171
| 31> H 	 -37.0561 	 26.3188 	 87.4639
| 32> C 	 -37.8284 	 24.8575 	 86.1339
| 33> H 	 -36.9291 	 24.3916 	 85.9103
| 34> H 	 -37.8967 	 25.7495 	 85.4789
| 35> C 	 -38.9906 	 23.8315 	 85.863
| 36> H 	 -38.9921 	 23.3127 	 84.8964
| 37> H 	 -39.9373 	 24.2419 	 85.8744
| 38> H 	 -38.8899 	 23.0896 	 86.5352
| 39> H 	 -40.2934 	 23.4542 	 93.4157
| 40> H 	 -40.9356 	 29.0807 	 87.5667
| 41> *
| 42>
| 43>                          ****END OF INPUT****

CARTESIAN COORDINATES (ANGSTROEM)
---------------------------------
  S    -40.229700   25.465900   91.856400
  C    -40.113500   23.768400   92.370300
  C    -39.766200   22.932800   91.334300
  C    -39.511300   23.705400   90.154800
  C    -39.805300   25.053400   90.195400
  H    -39.213300   23.365300   89.149400
  C    -39.587300   21.447800   91.422300
  H    -38.640500   21.220800   91.895600
  H    -39.440300   21.156900   90.350900
  C    -40.612300   20.618600   92.156100
  H    -40.339100   19.566100   92.040900
  H    -40.534900   20.751800   93.244900
  C    -41.989700   20.844600   91.603400
  H    -42.362700   21.831900   91.967100
  H    -42.081600   20.841200   90.586000
  H    -42.697300   20.140200   92.021200
  S    -41.215700   27.153600   89.161800
  C    -40.438900   28.167200   87.911600
  C    -39.463900   27.424800   87.281500
  C    -39.081500   26.274900   87.948000
  C    -39.821100   26.038900   89.137200
  H    -39.109000   27.864900   86.360900
  C    -37.840600   25.489900   87.534000
  H    -37.587300   24.768400   88.317100
  H    -37.056100   26.318800   87.463900
  C    -37.828400   24.857500   86.133900
  H    -36.929100   24.391600   85.910300
  H    -37.896700   25.749500   85.478900
  C    -38.990600   23.831500   85.863000
  H    -38.992100   23.312700   84.896400
  H    -39.937300   24.241900   85.874400
  H    -38.889900   23.089600   86.535200
  H    -40.293400   23.454200   93.415700
  H    -40.935600   29.080700   87.566700

 Total Charge           Charge          ....    0
 Multiplicity           Mult            ....    1
 Number of Electrons    NEL             ....  134
 Basis Dimension        Dim             ....  322

ORBITAL ENERGIES
----------------

  NO   OCC          E(Eh)            E(eV)
   0   2.0000     -88.964263     -2420.8407
   1   2.0000     -88.962260     -2420.7862
   2   2.0000     -10.333593      -281.1914
   3   2.0000     -10.330436      -281.1055
   4   2.0000     -10.320667      -280.8396
   5   2.0000     -10.317652      -280.7576
   6   2.0000     -10.307141      -280.4716
   7   2.0000     -10.303008      -280.3591
   8   2.0000     -10.298324      -280.2317
   9   2.0000     -10.296299      -280.1766
  10   2.0000     -10.293501      -280.1004
  11   2.0000     -10.292037      -280.0606
  12   2.0000     -10.288425      -279.9623
  13   2.0000     -10.287239      -279.9300
  14   2.0000     -10.266663      -279.3701
  15   2.0000     -10.265031      -279.3257
  16   2.0000      -8.078368      -219.8236
  17   2.0000      -8.076220      -219.7651
  18   2.0000      -6.036978      -164.2745
  19   2.0000      -6.034678      -164.2119
  20   2.0000      -6.032922      -164.1642
  21   2.0000      -6.031004      -164.1120
  22   2.0000      -6.029072      -164.0594
  23   2.0000      -6.026895      -164.0001
  24   2.0000      -1.003766       -27.3139
  25   2.0000      -0.982114       -26.7247
  26   2.0000      -0.919530       -25.0217
  27   2.0000      -0.906187       -24.6586
  28   2.0000      -0.871489       -23.7144
  29   2.0000      -0.848654       -23.0930
  30   2.0000      -0.844009       -22.9667
  31   2.0000      -0.813588       -22.1389
  32   2.0000      -0.787341       -21.4246
  33   2.0000      -0.778702       -21.1896
  34   2.0000      -0.712387       -19.3850
  35   2.0000      -0.709326       -19.3018
  36   2.0000      -0.696264       -18.9463
  37   2.0000      -0.659247       -17.9390
  38   2.0000      -0.637347       -17.3431
  39   2.0000      -0.610966       -16.6252
  40   2.0000      -0.591931       -16.1073
  41   2.0000      -0.574582       -15.6352
  42   2.0000      -0.559872       -15.2349
  43   2.0000      -0.555367       -15.1123
  44   2.0000      -0.548154       -14.9160
  45   2.0000      -0.539276       -14.6744
  46   2.0000      -0.519395       -14.1334
  47   2.0000      -0.515042       -14.0150
  48   2.0000      -0.498340       -13.5605
  49   2.0000      -0.495492       -13.4830
  50   2.0000      -0.492090       -13.3905
  51   2.0000      -0.481905       -13.1133
  52   2.0000      -0.477945       -13.0055
  53   2.0000      -0.464157       -12.6303
  54   2.0000      -0.461381       -12.5548
  55   2.0000      -0.445946       -12.1348
  56   2.0000      -0.440096       -11.9756
  57   2.0000      -0.433640       -11.7999
  58   2.0000      -0.431390       -11.7387
  59   2.0000      -0.430207       -11.7065
  60   2.0000      -0.423980       -11.5371
  61   2.0000      -0.414757       -11.2861
  62   2.0000      -0.409055       -11.1309
  63   2.0000      -0.351013        -9.5515
  64   2.0000      -0.331161        -9.0113
  65   2.0000      -0.327102        -8.9009
  66   2.0000      -0.284506        -7.7418
  67   0.0000       0.016483         0.4485
  68   0.0000       0.072059         1.9608
  69   0.0000       0.099567         2.7093
  70   0.0000       0.117051         3.1851
  71   0.0000       0.131213         3.5705

MULLIKEN ATOMIC CHARGES
-----------------------
   0 S :    0.105174
   1 C :   -0.144349
   2 C :   -0.074916
   3 C :    0.013241
   4 C :   -0.151624
   5 H :    0.003802
   6 C :    0.069164
   7 H :    0.037147
   8 H :    0.022396
   9 C :   -0.073326
  10 H :    0.026086
  11 H :    0.029251
  12 C :   -0.011093
  13 H :    0.033239
  14 H :    0.015866
  15 H :    0.024702
  16 S :    0.081967
  17 C :   -0.107003
  18 C :   -0.050113
  19 C :    0.018793
  20 C :   -0.155657
  21 H :    0.022698
  22 C :    0.011434
  23 H :    0.026860
  24 H :    0.048839
  25 C :   -0.042712
  26 H :    0.020566
  27 H :    0.022039
  28 C :   -0.006350
  29 H :    0.023757
  30 H :    0.025317
  31 H :    0.006124
  32 H :    0.061514
  33 H :    0.067167
Sum of atomic charges:   -0.0000000

LOEWDIN ATOMIC CHARGES
----------------------
   0 S :    0.390756
   1 C :   -0.188102
   2 C :   -0.066971
   3 C :   -0.068103
   4 C :   -0.194450
   5 H :    0.029447
   6 C :   -0.035315
   7 H :    0.035330
   8 H :    0.034540
   9 C :   -0.043817
  10 H :    0.027651
  11 H :    0.026101
  12 C :   -0.058801
  13 H :    0.032487
  14 H :    0.013498
  15 H :    0.025251
  16 S :    0.373763
  17 C :   -0.169269
  18 C :   -0.073251
  19 C :   -0.060517
  20 C :   -0.180243
  21 H :    0.034421
  22 C :   -0.032462
  23 H :    0.025334
  24 H :    0.044420
  25 C :   -0.028832
  26 H :    0.016582
  27 H :    0.023221
  28 C :   -0.055357
  29 H :    0.031751
  30 H :    0.018889
  31 H :    0.007806
  32 H :    0.033436
  33 H :    0.030806

  Mayer bond orders larger than 0.100000
B(  0-S ,  1-C ) :   1.1342 B(  0-S ,  4-C ) :   1.1368 B(  1-C ,  2-C ) :   1.6050
B(  1-C , 32-H ) :   0.9662 B(  2-C ,  3-C ) :   1.2374 B(  2-C ,  6-C ) :   1.0086
B(  3-C ,  4-C ) :   1.5872 B(  3-C ,  5-H ) :   0.9821 B(  4-C , 20-C ) :   1.0751
B(  6-C ,  7-H ) :   0.9300 B(  6-C ,  8-H ) :   0.9402 B(  6-C ,  9-C ) :   1.0900
B(  9-C , 10-H ) :   0.9506 B(  9-C , 11-H ) :   0.9477 B(  9-C , 12-C ) :   1.0860
B( 12-C , 13-H ) :   0.9673 B( 12-C , 14-H ) :   0.9770 B( 12-C , 15-H ) :   0.9717
B( 16-S , 17-C ) :   1.1440 B( 16-S , 20-C ) :   1.1497 B( 17-C , 18-C ) :   1.5971
B( 17-C , 20-C ) :   0.1167 B( 17-C , 33-H ) :   0.9679 B( 18-C , 19-C ) :   1.2425
B( 18-C , 21-H ) :   0.9936 B( 19-C , 20-C ) :   1.5405 B( 19-C , 22-C ) :   1.0305
B( 22-C , 23-H ) :   0.9403 B( 22-C , 24-H ) :   0.9425 B( 22-C , 25-C ) :   1.0700
B( 25-C , 26-H ) :   0.9584 B( 25-C , 27-H ) :   0.9563 B( 25-C , 28-C ) :   1.0662
B( 28-C , 29-H ) :   0.9715 B( 28-C , 30-H ) :   0.9766 B( 28-C , 31-H ) :   0.9741

Dispersion correction           -0.014609612
FINAL SINGLE POINT ENERGY     -1339.861192077781

DIPOLE MOMENT
-------------
                                X             Y             Z
Electronic contribution:     -4.89627      22.60822       9.35625
Nuclear contribution   :      5.14808     -23.13071      -9.72714
                        -----------------------------------------
Total Dipole Moment    :      0.25181      -0.52249      -0.37089
                        -----------------------------------------
Magnitude (a.u.)       :      0.68845
Magnitude (Debye)      :      1.74989

Rotational constants in cm-1:     0.020085     0.008535     0.006773
Rotational constants in MHz :   602.122982   255.878050   203.051535

                             ****ORCA TERMINATED NORMALLY****
TOTAL RUN TIME: 0 days 0 hours 0 minutes 30 seconds 249 msec
