                         Program Version 4.2.1 -  RELEASE  -
|  1> ! wB97X-D3 SP def2-SVP
|  2> %pal
|  3> nprocs 16
|  4> end
|  5>
|  6> * xyz 0 1
|  7> S 	 2.07254 	 28.4871 	 37.6301
|  8> C 	 3.23308 	 27.6031 	 36.7247
|  9> C 	 3.10503 	 27.7766 	 35.3601
| 10> C 	 1.82477 	 28.3844 	 35.1055
| 11> C 	 1.15716 	 28.8779 	 36.2525
| 12> H 	 1.3987 	 28.5256 	 34.1337
| 13> C 	 4.03291 	 27.2728 	 34.2431
| 14> H 	 4.84966 	 26.5834 	 34.5028
| 15> H 	 4.58697 	 28.1347 	 33.9155
| 16> C 	 3.21746 	 26.5727 	 33.1103
| 17> H 	 2.36293 	 26.0783 	 33.5238
| 18> H 	 2.62718 	 27.291 	 32.5333
| 19> C 	 4.09993 	 25.5466 	 32.3379
| 20> H 	 3.54197 	 25.0657 	 31.5385
| 21> H 	 4.93599 	 25.9595 	 31.8321
| 22> H 	 4.47392 	 24.8086 	 33.0986
| 23> S 	 -1.24237 	 29.196 	 37.4703
| 24> C 	 -2.46681 	 30.1747 	 36.7778
| 25> C 	 -1.95909 	 30.911 	 35.6821
| 26> C 	 -0.603089 	 30.6313 	 35.3887
| 27> C 	 -0.115012 	 29.6137 	 36.2331
| 28> H 	 -2.50871 	 31.7285 	 35.1612
| 29> C 	 0.127095 	 31.291 	 34.2704
| 30> H 	 -0.150244 	 30.7675 	 33.4166
| 31> H 	 1.25471 	 31.1212 	 34.353
| 32> C 	 -0.119497 	 32.8427 	 34.0657
| 33> H 	 -1.16106 	 33.0852 	 34.0452
| 34> H 	 0.189923 	 32.9491 	 33.0566
| 35> C 	 0.645455 	 33.6705 	 35.1538
| 36> H 	 0.0124467 	 33.6848 	 36.0049
| 37> H 	 0.922232 	 34.6785 	 34.7972
| 38> H 	 1.63275 	 33.3134 	 35.3806
| 39> H 	 4.07422 	 27.0731 	 37.0858
| 40> H 	 -3.4292 	 30.3177 	 37.1965
| 41> *
| 42>
| 43>                          ****END OF INPUT****

CARTESIAN COORDINATES (ANGSTROEM)
---------------------------------
  S      2.072540   28.487100   37.630100
  C      3.233080   27.603100   36.724700
  C      3.105030   27.776600   35.360100
  C      1.824770   28.384400   35.105500
  C      1.157160   28.877900   36.252500
  H      1.398700   28.525600   34.133700
  C      4.032910   27.272800   34.243100
  H      4.849660   26.583400   34.502800
  H      4.586970   28.134700   33.915500
  C      3.217460   26.572700   33.110300
  H      2.362930   26.078300   33.523800
  H      2.627180   27.291000   32.533300
  C      4.099930   25.546600   32.337900
  H      3.541970   25.065700   31.538500
  H      4.935990   25.959500   31.832100
  H      4.473920   24.808600   33.098600
  S     -1.242370   29.196000   37.470300
  C     -2.466810   30.174700   36.777800
  C     -1.959090   30.911000   35.682100
  C     -0.603089   30.631300   35.388700
  C     -0.115012   29.613700   36.233100
  H     -2.508710   31.728500   35.161200
  C      0.127095   31.291000   34.270400
  H     -0.150244   30.767500   33.416600
  H      1.254710   31.121200   34.353000
  C     -0.119497   32.842700   34.065700
  H     -1.161060   33.085200   34.045200
  H      0.189923   32.949100   33.056600
  C      0.645455   33.670500   35.153800
  H      0.012447   33.684800   36.004900
  H      0.922232   34.678500   34.797200
  H      1.632750   33.313400   35.380600
  H      4.074220   27.073100   37.085800
  H     -3.429200   30.317700   37.196500

 Total Charge           Charge          ....    0
 Multiplicity           Mult            ....    1
 Number of Electrons    NEL             ....  134
 Basis Dimension        Dim             ....  322

ORBITAL ENERGIES
----------------

  NO   OCC          E(Eh)            E(eV)
   0   2.0000     -88.967043     -2420.9163
   1   2.0000     -88.966777     -2420.9091
   2   2.0000     -10.326494      -280.9982
   3   2.0000     -10.325049      -280.9589
   4   2.0000     -10.315692      -280.7042
   5   2.0000     -10.305295      -280.4213
   6   2.0000     -10.301993      -280.3315
   7   2.0000     -10.301738      -280.3246
   8   2.0000     -10.297093      -280.1982
   9   2.0000     -10.296795      -280.1900
  10   2.0000     -10.291284      -280.0401
  11   2.0000     -10.290839      -280.0280
  12   2.0000     -10.288548      -279.9656
  13   2.0000     -10.288066      -279.9525
  14   2.0000     -10.282986      -279.8143
  15   2.0000     -10.275922      -279.6220
  16   2.0000      -8.082830      -219.9450
  17   2.0000      -8.082459      -219.9349
  18   2.0000      -6.041268      -164.3913
  19   2.0000      -6.040752      -164.3772
  20   2.0000      -6.037095      -164.2777
  21   2.0000      -6.036753      -164.2684
  22   2.0000      -6.033716      -164.1858
  23   2.0000      -6.033488      -164.1796
  24   2.0000      -1.010396       -27.4943
  25   2.0000      -0.988491       -26.8982
  26   2.0000      -0.909279       -24.7427
  27   2.0000      -0.906853       -24.6767
  28   2.0000      -0.865852       -23.5610
  29   2.0000      -0.850989       -23.1566
  30   2.0000      -0.843050       -22.9406
  31   2.0000      -0.807542       -21.9743
  32   2.0000      -0.783703       -21.3257
  33   2.0000      -0.775311       -21.0973
  34   2.0000      -0.716694       -19.5022
  35   2.0000      -0.709476       -19.3058
  36   2.0000      -0.693160       -18.8619
  37   2.0000      -0.657118       -17.8811
  38   2.0000      -0.639280       -17.3957
  39   2.0000      -0.619703       -16.8630
  40   2.0000      -0.602372       -16.3914
  41   2.0000      -0.566666       -15.4198
  42   2.0000      -0.559389       -15.2218
  43   2.0000      -0.552347       -15.0301
  44   2.0000      -0.541661       -14.7393
  45   2.0000      -0.523317       -14.2402
  46   2.0000      -0.513042       -13.9606
  47   2.0000      -0.507128       -13.7997
  48   2.0000      -0.500291       -13.6136
  49   2.0000      -0.497719       -13.5436
  50   2.0000      -0.487721       -13.2716
  51   2.0000      -0.480180       -13.0664
  52   2.0000      -0.470448       -12.8015
  53   2.0000      -0.468042       -12.7361
  54   2.0000      -0.462514       -12.5856
  55   2.0000      -0.452626       -12.3166
  56   2.0000      -0.448603       -12.2071
  57   2.0000      -0.440740       -11.9932
  58   2.0000      -0.437103       -11.8942
  59   2.0000      -0.429489       -11.6870
  60   2.0000      -0.427151       -11.6234
  61   2.0000      -0.414094       -11.2681
  62   2.0000      -0.410173       -11.1614
  63   2.0000      -0.345707        -9.4072
  64   2.0000      -0.329929        -8.9778
  65   2.0000      -0.328241        -8.9319
  66   2.0000      -0.284914        -7.7529
  67   0.0000       0.029816         0.8113
  68   0.0000       0.079957         2.1757
  69   0.0000       0.114006         3.1023
  70   0.0000       0.127353         3.4655
  71   0.0000       0.139307         3.7907

MULLIKEN ATOMIC CHARGES
-----------------------
   0 S :    0.131693
   1 C :   -0.104616
   2 C :   -0.093395
   3 C :   -0.004937
   4 C :   -0.127682
   5 H :   -0.002100
   6 C :    0.085628
   7 H :    0.015319
   8 H :    0.038353
   9 C :   -0.098712
  10 H :    0.029322
  11 H :    0.024795
  12 C :   -0.041500
  13 H :    0.033537
  14 H :    0.027125
  15 H :    0.046366
  16 S :    0.123929
  17 C :   -0.080939
  18 C :   -0.061184
  19 C :   -0.015539
  20 C :   -0.178713
  21 H :    0.029836
  22 C :    0.015493
  23 H :    0.026600
  24 H :    0.043663
  25 C :   -0.047925
  26 H :    0.021044
  27 H :    0.015346
  28 C :   -0.022070
  29 H :    0.041596
  30 H :    0.030671
  31 H :    0.025035
  32 H :    0.026534
  33 H :    0.047428
Sum of atomic charges:   -0.0000000

LOEWDIN ATOMIC CHARGES
----------------------
   0 S :    0.440437
   1 C :   -0.209898
   2 C :   -0.056633
   3 C :   -0.068525
   4 C :   -0.216548
   5 H :    0.021245
   6 C :   -0.028677
   7 H :    0.029529
   8 H :    0.033570
   9 C :   -0.045462
  10 H :    0.024460
  11 H :    0.021753
  12 C :   -0.063525
  13 H :    0.027427
  14 H :    0.018881
  15 H :    0.034121
  16 S :    0.441632
  17 C :   -0.196458
  18 C :   -0.076437
  19 C :   -0.057955
  20 C :   -0.210382
  21 H :    0.035043
  22 C :   -0.032602
  23 H :    0.022800
  24 H :    0.039963
  25 C :   -0.029026
  26 H :    0.017307
  27 H :    0.019963
  28 C :   -0.058736
  29 H :    0.025857
  30 H :    0.029506
  31 H :    0.024350
  32 H :    0.021051
  33 H :    0.021969

  Mayer bond orders larger than 0.100000
B(  0-S ,  1-C ) :   1.1496 B(  0-S ,  4-C ) :   1.1726 B(  1-C ,  2-C ) :   1.6012
B(  1-C , 32-H ) :   0.9684 B(  2-C ,  3-C ) :   1.2591 B(  2-C ,  6-C ) :   1.0161
B(  3-C ,  4-C ) :   1.5287 B(  3-C ,  5-H ) :   0.9983 B(  4-C , 20-C ) :   1.0486
B(  6-C ,  7-H ) :   0.9542 B(  6-C ,  8-H ) :   0.9283 B(  6-C ,  9-C ) :   1.0472
B(  9-C , 10-H ) :   0.9638 B(  9-C , 11-H ) :   0.9481 B(  9-C , 12-C ) :   1.0760
B( 12-C , 13-H ) :   0.9741 B( 12-C , 14-H ) :   0.9777 B( 12-C , 15-H ) :   0.9742
B( 16-S , 17-C ) :   1.1861 B( 16-S , 20-C ) :   1.1665 B( 17-C , 18-C ) :   1.5461
B( 17-C , 20-C ) :   0.1096 B( 17-C , 33-H ) :   0.9757 B( 18-C , 19-C ) :   1.2949
B( 18-C , 21-H ) :   0.9799 B( 19-C , 20-C ) :   1.5298 B( 19-C , 22-C ) :   1.0381
B( 22-C , 23-H ) :   0.9278 B( 22-C , 24-H ) :   0.9358 B( 22-C , 25-C ) :   1.0737
B( 25-C , 26-H ) :   0.9592 B( 25-C , 27-H ) :   0.9547 B( 25-C , 28-C ) :   1.0579
B( 28-C , 29-H ) :   0.9786 B( 28-C , 30-H ) :   0.9764 B( 28-C , 31-H ) :   0.9772

Dispersion correction           -0.013922412
FINAL SINGLE POINT ENERGY     -1339.870949533982

DIPOLE MOMENT
-------------
                                X             Y             Z
Electronic contribution:    -10.72490      -4.29326      23.59428
Nuclear contribution   :     10.90472       4.49779     -24.26176
                        -----------------------------------------
Total Dipole Moment    :      0.17982       0.20453      -0.66748
                        -----------------------------------------
Magnitude (a.u.)       :      0.72091
Magnitude (Debye)      :      1.83240

Rotational constants in cm-1:     0.018557     0.007967     0.006727
Rotational constants in MHz :   556.335406   238.858627   201.683880

                             ****ORCA TERMINATED NORMALLY****
TOTAL RUN TIME: 0 days 0 hours 0 minutes 34 seconds 628 msec
