                         Program Version 4.2.1 -  RELEASE  -
|  1> ! wB97X-D3 SP def2-SVP
|  2> %pal
|  3> nprocs 16
|  4> end
|  5>
|  6> * xyz 0 1
|  7> S 	 -14.8013 	 40.2806 	 32.5058
|  8> C 	 -15.8873 	 39.0951 	 33.2202
|  9> C 	 -16.3222 	 38.1641 	 32.2769
| 10> C 	 -15.8108 	 38.466 	 30.966
| 11> C 	 -14.9856 	 39.582 	 30.9087
| 12> H 	 -16.0943 	 38.0465 	 30.0193
| 13> C 	 -17.0959 	 36.9333 	 32.5987
| 14> H 	 -16.4092 	 36.1075 	 32.7929
| 15> H 	 -17.685 	 36.6687 	 31.6673
| 16> C 	 -18.1226 	 37.0073 	 33.7877
| 17> H 	 -18.5828 	 36.0519 	 33.7524
| 18> H 	 -17.657 	 37.1652 	 34.761
| 19> C 	 -19.1479 	 38.0576 	 33.6509
| 20> H 	 -19.6077 	 37.8632 	 32.7001
| 21> H 	 -19.9868 	 37.9644 	 34.3377
| 22> H 	 -18.8605 	 39.1362 	 33.7245
| 23> S 	 -13.5544 	 38.8487 	 28.7355
| 24> C 	 -13.0215 	 39.9748 	 27.5823
| 25> C 	 -13.2795 	 41.2693 	 27.9696
| 26> C 	 -13.968 	 41.3094 	 29.2181
| 27> C 	 -14.4083 	 40.0586 	 29.6842
| 28> H 	 -12.8535 	 42.0869 	 27.385
| 29> C 	 -14.4255 	 42.6298 	 29.8275
| 30> H 	 -13.6399 	 43.3184 	 29.434
| 31> H 	 -14.4268 	 42.5111 	 30.9449
| 32> C 	 -15.8492 	 43.1081 	 29.5349
| 33> H 	 -16.0459 	 43.9139 	 30.292
| 34> H 	 -16.5402 	 42.3034 	 29.7818
| 35> C 	 -16.1474 	 43.5761 	 28.1191
| 36> H 	 -15.6362 	 44.5433 	 27.911
| 37> H 	 -17.2524 	 43.7666 	 28.1349
| 38> H 	 -15.9064 	 42.8203 	 27.342
| 39> H 	 -15.9339 	 39.0551 	 34.2717
| 40> H 	 -12.4178 	 39.7774 	 26.7419
| 41> *
| 42>
| 43>                          ****END OF INPUT****

CARTESIAN COORDINATES (ANGSTROEM)
---------------------------------
  S    -14.801300   40.280600   32.505800
  C    -15.887300   39.095100   33.220200
  C    -16.322200   38.164100   32.276900
  C    -15.810800   38.466000   30.966000
  C    -14.985600   39.582000   30.908700
  H    -16.094300   38.046500   30.019300
  C    -17.095900   36.933300   32.598700
  H    -16.409200   36.107500   32.792900
  H    -17.685000   36.668700   31.667300
  C    -18.122600   37.007300   33.787700
  H    -18.582800   36.051900   33.752400
  H    -17.657000   37.165200   34.761000
  C    -19.147900   38.057600   33.650900
  H    -19.607700   37.863200   32.700100
  H    -19.986800   37.964400   34.337700
  H    -18.860500   39.136200   33.724500
  S    -13.554400   38.848700   28.735500
  C    -13.021500   39.974800   27.582300
  C    -13.279500   41.269300   27.969600
  C    -13.968000   41.309400   29.218100
  C    -14.408300   40.058600   29.684200
  H    -12.853500   42.086900   27.385000
  C    -14.425500   42.629800   29.827500
  H    -13.639900   43.318400   29.434000
  H    -14.426800   42.511100   30.944900
  C    -15.849200   43.108100   29.534900
  H    -16.045900   43.913900   30.292000
  H    -16.540200   42.303400   29.781800
  C    -16.147400   43.576100   28.119100
  H    -15.636200   44.543300   27.911000
  H    -17.252400   43.766600   28.134900
  H    -15.906400   42.820300   27.342000
  H    -15.933900   39.055100   34.271700
  H    -12.417800   39.777400   26.741900

 Total Charge           Charge          ....    0
 Multiplicity           Mult            ....    1
 Number of Electrons    NEL             ....  134
 Basis Dimension        Dim             ....  322

ORBITAL ENERGIES
----------------

  NO   OCC          E(Eh)            E(eV)
   0   2.0000     -88.967131     -2420.9187
   1   2.0000     -88.964653     -2420.8513
   2   2.0000     -10.330231      -281.0999
   3   2.0000     -10.325065      -280.9593
   4   2.0000     -10.313772      -280.6520
   5   2.0000     -10.310578      -280.5651
   6   2.0000     -10.305242      -280.4199
   7   2.0000     -10.303278      -280.3665
   8   2.0000     -10.297832      -280.2182
   9   2.0000     -10.293224      -280.0929
  10   2.0000     -10.293097      -280.0894
  11   2.0000     -10.291279      -280.0400
  12   2.0000     -10.284612      -279.8585
  13   2.0000     -10.283772      -279.8357
  14   2.0000     -10.279897      -279.7302
  15   2.0000     -10.271295      -279.4961
  16   2.0000      -8.081334      -219.9043
  17   2.0000      -8.080122      -219.8713
  18   2.0000      -6.039894      -164.3539
  19   2.0000      -6.038485      -164.3155
  20   2.0000      -6.035846      -164.2437
  21   2.0000      -6.034431      -164.2052
  22   2.0000      -6.032166      -164.1436
  23   2.0000      -6.031054      -164.1133
  24   2.0000      -1.009661       -27.4743
  25   2.0000      -0.985446       -26.8153
  26   2.0000      -0.915623       -24.9154
  27   2.0000      -0.905389       -24.6369
  28   2.0000      -0.875064       -23.8117
  29   2.0000      -0.854340       -23.2478
  30   2.0000      -0.845054       -22.9951
  31   2.0000      -0.813716       -22.1423
  32   2.0000      -0.781807       -21.2740
  33   2.0000      -0.771406       -20.9910
  34   2.0000      -0.708954       -19.2916
  35   2.0000      -0.703816       -19.1518
  36   2.0000      -0.682711       -18.5775
  37   2.0000      -0.666065       -18.1245
  38   2.0000      -0.642276       -17.4772
  39   2.0000      -0.605559       -16.4781
  40   2.0000      -0.585801       -15.9404
  41   2.0000      -0.580702       -15.8017
  42   2.0000      -0.559686       -15.2298
  43   2.0000      -0.547392       -14.8953
  44   2.0000      -0.543085       -14.7781
  45   2.0000      -0.538638       -14.6571
  46   2.0000      -0.519388       -14.1333
  47   2.0000      -0.516881       -14.0650
  48   2.0000      -0.508132       -13.8270
  49   2.0000      -0.494745       -13.4627
  50   2.0000      -0.484030       -13.1711
  51   2.0000      -0.480960       -13.0876
  52   2.0000      -0.473990       -12.8979
  53   2.0000      -0.470286       -12.7971
  54   2.0000      -0.460296       -12.5253
  55   2.0000      -0.450223       -12.2512
  56   2.0000      -0.436227       -11.8703
  57   2.0000      -0.433030       -11.7833
  58   2.0000      -0.429107       -11.6766
  59   2.0000      -0.424173       -11.5423
  60   2.0000      -0.417033       -11.3480
  61   2.0000      -0.413318       -11.2469
  62   2.0000      -0.403384       -10.9766
  63   2.0000      -0.353984        -9.6324
  64   2.0000      -0.330204        -8.9853
  65   2.0000      -0.328815        -8.9475
  66   2.0000      -0.286380        -7.7928
  67   0.0000       0.022145         0.6026
  68   0.0000       0.075314         2.0494
  69   0.0000       0.107887         2.9358
  70   0.0000       0.114856         3.1254
  71   0.0000       0.122387         3.3303

MULLIKEN ATOMIC CHARGES
-----------------------
   0 S :    0.099335
   1 C :   -0.123662
   2 C :   -0.050564
   3 C :   -0.007261
   4 C :   -0.110603
   5 H :    0.013654
   6 C :    0.028422
   7 H :    0.053087
   8 H :    0.032462
   9 C :   -0.045455
  10 H :    0.023780
  11 H :    0.026977
  12 C :   -0.054550
  13 H :    0.010947
  14 H :    0.025186
  15 H :    0.048430
  16 S :    0.109635
  17 C :   -0.063307
  18 C :   -0.051312
  19 C :   -0.070282
  20 C :   -0.146823
  21 H :    0.024773
  22 C :    0.035623
  23 H :    0.025820
  24 H :    0.032356
  25 C :   -0.069590
  26 H :    0.036602
  27 H :    0.030157
  28 C :   -0.069220
  29 H :    0.033737
  30 H :    0.040079
  31 H :    0.051038
  32 H :    0.040837
  33 H :    0.039692
Sum of atomic charges:   -0.0000000

LOEWDIN ATOMIC CHARGES
----------------------
   0 S :    0.405374
   1 C :   -0.187933
   2 C :   -0.060388
   3 C :   -0.066830
   4 C :   -0.193929
   5 H :    0.026937
   6 C :   -0.033348
   7 H :    0.038565
   8 H :    0.036206
   9 C :   -0.039206
  10 H :    0.025762
  11 H :    0.021274
  12 C :   -0.072555
  13 H :    0.021384
  14 H :    0.025815
  15 H :    0.031655
  16 S :    0.437567
  17 C :   -0.193456
  18 C :   -0.079992
  19 C :   -0.059485
  20 C :   -0.199554
  21 H :    0.035681
  22 C :   -0.043315
  23 H :    0.031967
  24 H :    0.026634
  25 C :   -0.046345
  26 H :    0.030738
  27 H :    0.025696
  28 C :   -0.073939
  29 H :    0.025569
  30 H :    0.033489
  31 H :    0.029908
  32 H :    0.016960
  33 H :    0.023090

  Mayer bond orders larger than 0.100000
B(  0-S ,  1-C ) :   1.1332 B(  0-S ,  4-C ) :   1.1385 B(  1-C ,  2-C ) :   1.5904
B(  1-C , 32-H ) :   0.9768 B(  2-C ,  3-C ) :   1.2338 B(  2-C ,  6-C ) :   1.0238
B(  3-C ,  4-C ) :   1.5440 B(  3-C ,  5-H ) :   0.9990 B(  4-C , 20-C ) :   1.0934
B(  6-C ,  7-H ) :   0.9342 B(  6-C ,  8-H ) :   0.9412 B(  6-C ,  9-C ) :   1.0833
B(  9-C , 10-H ) :   0.9520 B(  9-C , 11-H ) :   0.9498 B(  9-C , 12-C ) :   1.0908
B( 12-C , 13-H ) :   0.9710 B( 12-C , 14-H ) :   0.9703 B( 12-C , 15-H ) :   0.9711
B( 16-S , 17-C ) :   1.1848 B( 16-S , 20-C ) :   1.1414 B( 17-C , 18-C ) :   1.5809
B( 17-C , 20-C ) :   0.1011 B( 17-C , 33-H ) :   0.9692 B( 18-C , 19-C ) :   1.2602
B( 18-C , 21-H ) :   0.9903 B( 19-C , 20-C ) :   1.5320 B( 19-C , 22-C ) :   1.0526
B( 22-C , 23-H ) :   0.9334 B( 22-C , 24-H ) :   0.9282 B( 22-C , 25-C ) :   1.0719
B( 25-C , 26-H ) :   0.9533 B( 25-C , 27-H ) :   0.9521 B( 25-C , 28-C ) :   1.0812
B( 28-C , 29-H ) :   0.9740 B( 28-C , 30-H ) :   0.9727 B( 28-C , 31-H ) :   0.9730

Dispersion correction           -0.014514047
FINAL SINGLE POINT ENERGY     -1339.884343180709

DIPOLE MOMENT
-------------
                                X             Y             Z
Electronic contribution:     18.76874      -5.28909      -3.65963
Nuclear contribution   :    -18.97972       5.21988       3.66856
                        -----------------------------------------
Total Dipole Moment    :     -0.21099      -0.06921       0.00893
                        -----------------------------------------
Magnitude (a.u.)       :      0.22223
Magnitude (Debye)      :      0.56486

Rotational constants in cm-1:     0.022447     0.007794     0.006725
Rotational constants in MHz :   672.957397   233.650194   201.614314

                             ****ORCA TERMINATED NORMALLY****
TOTAL RUN TIME: 0 days 0 hours 0 minutes 36 seconds 39 msec
