                         Program Version 4.2.1 -  RELEASE  -
|  1> ! wB97X-D3 SP def2-SVP
|  2> %pal
|  3> nprocs 16
|  4> end
|  5>
|  6> * xyz 0 1
|  7> S 	 -101.375 	 58.2308 	 115.824
|  8> C 	 -100.383 	 56.8735 	 116.337
|  9> C 	 -101.162 	 55.7484 	 116.458
| 10> C 	 -102.583 	 56.0295 	 116.177
| 11> C 	 -102.872 	 57.2812 	 115.779
| 12> H 	 -103.286 	 55.2023 	 116.109
| 13> C 	 -100.505 	 54.3789 	 116.353
| 14> H 	 -100.835 	 53.8638 	 117.227
| 15> H 	 -99.4339 	 54.5195 	 116.283
| 16> C 	 -100.781 	 53.4342 	 115.176
| 17> H 	 -100.339 	 52.4598 	 115.447
| 18> H 	 -101.857 	 53.4055 	 115.15
| 19> C 	 -100.225 	 53.836 	 113.796
| 20> H 	 -100.51 	 53.1565 	 113.016
| 21> H 	 -100.558 	 54.8278 	 113.452
| 22> H 	 -99.1747 	 53.8589 	 113.815
| 23> S 	 -104.226 	 58.0681 	 113.463
| 24> C 	 -105.91 	 58.4017 	 113.493
| 25> C 	 -106.404 	 58.3054 	 114.769
| 26> C 	 -105.407 	 57.8251 	 115.704
| 27> C 	 -104.146 	 57.7429 	 115.149
| 28> H 	 -107.453 	 58.6619 	 114.908
| 29> C 	 -105.603 	 57.6202 	 117.22
| 30> H 	 -105.773 	 58.4948 	 117.859
| 31> H 	 -104.605 	 57.2587 	 117.706
| 32> C 	 -106.821 	 56.6116 	 117.459
| 33> H 	 -107.704 	 57.1408 	 117.202
| 34> H 	 -106.914 	 56.5226 	 118.54
| 35> C 	 -106.743 	 55.2433 	 116.799
| 36> H 	 -105.971 	 54.5637 	 117.167
| 37> H 	 -106.565 	 55.3761 	 115.787
| 38> H 	 -107.744 	 54.8479 	 116.988
| 39> H 	 -99.2409 	 56.7131 	 116.496
| 40> H 	 -106.558 	 58.8013 	 112.732
| 41> *
| 42>
| 43>                          ****END OF INPUT****

CARTESIAN COORDINATES (ANGSTROEM)
---------------------------------
  S    -101.375000   58.230800  115.824000
  C    -100.383000   56.873500  116.337000
  C    -101.162000   55.748400  116.458000
  C    -102.583000   56.029500  116.177000
  C    -102.872000   57.281200  115.779000
  H    -103.286000   55.202300  116.109000
  C    -100.505000   54.378900  116.353000
  H    -100.835000   53.863800  117.227000
  H    -99.433900   54.519500  116.283000
  C    -100.781000   53.434200  115.176000
  H    -100.339000   52.459800  115.447000
  H    -101.857000   53.405500  115.150000
  C    -100.225000   53.836000  113.796000
  H    -100.510000   53.156500  113.016000
  H    -100.558000   54.827800  113.452000
  H    -99.174700   53.858900  113.815000
  S    -104.226000   58.068100  113.463000
  C    -105.910000   58.401700  113.493000
  C    -106.404000   58.305400  114.769000
  C    -105.407000   57.825100  115.704000
  C    -104.146000   57.742900  115.149000
  H    -107.453000   58.661900  114.908000
  C    -105.603000   57.620200  117.220000
  H    -105.773000   58.494800  117.859000
  H    -104.605000   57.258700  117.706000
  C    -106.821000   56.611600  117.459000
  H    -107.704000   57.140800  117.202000
  H    -106.914000   56.522600  118.540000
  C    -106.743000   55.243300  116.799000
  H    -105.971000   54.563700  117.167000
  H    -106.565000   55.376100  115.787000
  H    -107.744000   54.847900  116.988000
  H    -99.240900   56.713100  116.496000
  H    -106.558000   58.801300  112.732000

 Total Charge           Charge          ....    0
 Multiplicity           Mult            ....    1
 Number of Electrons    NEL             ....  134
 Basis Dimension        Dim             ....  322

ORBITAL ENERGIES
----------------

  NO   OCC          E(Eh)            E(eV)
   0   2.0000     -88.967569     -2420.9306
   1   2.0000     -88.966504     -2420.9016
   2   2.0000     -10.335135      -281.2333
   3   2.0000     -10.328930      -281.0645
   4   2.0000     -10.322031      -280.8767
   5   2.0000     -10.315505      -280.6992
   6   2.0000     -10.308236      -280.5014
   7   2.0000     -10.299952      -280.2759
   8   2.0000     -10.299802      -280.2719
   9   2.0000     -10.297976      -280.2222
  10   2.0000     -10.297847      -280.2187
  11   2.0000     -10.288837      -279.9735
  12   2.0000     -10.288558      -279.9659
  13   2.0000     -10.282352      -279.7970
  14   2.0000     -10.271632      -279.5053
  15   2.0000     -10.269476      -279.4467
  16   2.0000      -8.083291      -219.9575
  17   2.0000      -8.080591      -219.8841
  18   2.0000      -6.041781      -164.4052
  19   2.0000      -6.039424      -164.3411
  20   2.0000      -6.037569      -164.2906
  21   2.0000      -6.035148      -164.2247
  22   2.0000      -6.034080      -164.1957
  23   2.0000      -6.031036      -164.1128
  24   2.0000      -1.010741       -27.5037
  25   2.0000      -0.987762       -26.8784
  26   2.0000      -0.911705       -24.8087
  27   2.0000      -0.899803       -24.4849
  28   2.0000      -0.872078       -23.7305
  29   2.0000      -0.846412       -23.0320
  30   2.0000      -0.840927       -22.8828
  31   2.0000      -0.823362       -22.4048
  32   2.0000      -0.783772       -21.3275
  33   2.0000      -0.774732       -21.0815
  34   2.0000      -0.710166       -19.3246
  35   2.0000      -0.695768       -18.9328
  36   2.0000      -0.688067       -18.7233
  37   2.0000      -0.650240       -17.6939
  38   2.0000      -0.634455       -17.2644
  39   2.0000      -0.623556       -16.9678
  40   2.0000      -0.594800       -16.1853
  41   2.0000      -0.571624       -15.5547
  42   2.0000      -0.556749       -15.1499
  43   2.0000      -0.547358       -14.8944
  44   2.0000      -0.544522       -14.8172
  45   2.0000      -0.536343       -14.5946
  46   2.0000      -0.518855       -14.1188
  47   2.0000      -0.511926       -13.9302
  48   2.0000      -0.503716       -13.7068
  49   2.0000      -0.496765       -13.5177
  50   2.0000      -0.489079       -13.3085
  51   2.0000      -0.476569       -12.9681
  52   2.0000      -0.470658       -12.8072
  53   2.0000      -0.468651       -12.7526
  54   2.0000      -0.464947       -12.6519
  55   2.0000      -0.446513       -12.1502
  56   2.0000      -0.442914       -12.0523
  57   2.0000      -0.438292       -11.9265
  58   2.0000      -0.427695       -11.6382
  59   2.0000      -0.419290       -11.4095
  60   2.0000      -0.413594       -11.2545
  61   2.0000      -0.410457       -11.1691
  62   2.0000      -0.408999       -11.1294
  63   2.0000      -0.348119        -9.4728
  64   2.0000      -0.330557        -8.9949
  65   2.0000      -0.324456        -8.8289
  66   2.0000      -0.306707        -8.3459
  67   0.0000       0.038449         1.0462
  68   0.0000       0.067921         1.8482
  69   0.0000       0.111434         3.0323
  70   0.0000       0.121933         3.3180
  71   0.0000       0.129008         3.5105

MULLIKEN ATOMIC CHARGES
-----------------------
   0 S :    0.104367
   1 C :   -0.140918
   2 C :   -0.111554
   3 C :    0.050196
   4 C :   -0.160870
   5 H :    0.016265
   6 C :    0.052109
   7 H :    0.028662
   8 H :    0.008970
   9 C :   -0.067850
  10 H :    0.037027
  11 H :    0.019397
  12 C :   -0.034303
  13 H :    0.031974
  14 H :    0.037296
  15 H :    0.014170
  16 S :    0.126761
  17 C :   -0.089712
  18 C :   -0.062994
  19 C :   -0.020464
  20 C :   -0.145326
  21 H :    0.040994
  22 C :    0.010187
  23 H :    0.040593
  24 H :    0.044486
  25 C :   -0.093827
  26 H :    0.019319
  27 H :    0.019755
  28 C :   -0.013563
  29 H :    0.035992
  30 H :    0.028367
  31 H :    0.034849
  32 H :    0.085825
  33 H :    0.053820
Sum of atomic charges:   -0.0000000

LOEWDIN ATOMIC CHARGES
----------------------
   0 S :    0.387766
   1 C :   -0.210310
   2 C :   -0.076153
   3 C :   -0.057278
   4 C :   -0.186712
   5 H :    0.029532
   6 C :   -0.029644
   7 H :    0.028328
   8 H :    0.024321
   9 C :   -0.034850
  10 H :    0.030823
  11 H :    0.017761
  12 C :   -0.063102
  13 H :    0.026661
  14 H :    0.030364
  15 H :    0.015969
  16 S :    0.435461
  17 C :   -0.197913
  18 C :   -0.079555
  19 C :   -0.057995
  20 C :   -0.210774
  21 H :    0.041707
  22 C :   -0.041899
  23 H :    0.031418
  24 H :    0.039407
  25 C :   -0.039018
  26 H :    0.016546
  27 H :    0.021501
  28 C :   -0.059057
  29 H :    0.026191
  30 H :    0.015867
  31 H :    0.032949
  32 H :    0.057961
  33 H :    0.033726

  Mayer bond orders larger than 0.100000
B(  0-S ,  1-C ) :   1.1237 B(  0-S ,  4-C ) :   1.1246 B(  1-C ,  2-C ) :   1.6564
B(  1-C , 32-H ) :   0.9464 B(  2-C ,  3-C ) :   1.2096 B(  2-C ,  6-C ) :   1.0299
B(  3-C ,  4-C ) :   1.6262 B(  3-C ,  5-H ) :   0.9892 B(  4-C , 20-C ) :   0.9974
B(  6-C ,  7-H ) :   0.9295 B(  6-C ,  8-H ) :   0.9504 B(  6-C ,  9-C ) :   1.0782
B(  9-C , 10-H ) :   0.9520 B(  9-C , 11-H ) :   0.9534 B(  9-C , 12-C ) :   1.0802
B( 12-C , 13-H ) :   0.9738 B( 12-C , 14-H ) :   0.9760 B( 12-C , 15-H ) :   0.9736
B( 16-S , 17-C ) :   1.1633 B( 16-S , 20-C ) :   1.1534 B( 17-C , 18-C ) :   1.6319
B( 17-C , 33-H ) :   0.9637 B( 18-C , 19-C ) :   1.2175 B( 18-C , 21-H ) :   0.9842
B( 19-C , 20-C ) :   1.6057 B( 19-C , 22-C ) :   1.0334 B( 22-C , 23-H ) :   0.9481
B( 22-C , 24-H ) :   0.9398 B( 22-C , 25-C ) :   1.0537 B( 25-C , 26-H ) :   0.9589
B( 25-C , 27-H ) :   0.9570 B( 25-C , 28-C ) :   1.0745 B( 28-C , 29-H ) :   0.9743
B( 28-C , 30-H ) :   0.9719 B( 28-C , 31-H ) :   0.9711

Dispersion correction           -0.015158877
FINAL SINGLE POINT ENERGY     -1339.858975745389

DIPOLE MOMENT
-------------
                                X             Y             Z
Electronic contribution:      3.68648      20.50302      -6.72093
Nuclear contribution   :     -3.93921     -20.93704       6.77086
                        -----------------------------------------
Total Dipole Moment    :     -0.25273      -0.43403       0.04993
                        -----------------------------------------
Magnitude (a.u.)       :      0.50472
Magnitude (Debye)      :      1.28290

Rotational constants in cm-1:     0.018929     0.008727     0.007862
Rotational constants in MHz :   567.489899   261.634837   235.691742

                             ****ORCA TERMINATED NORMALLY****
TOTAL RUN TIME: 0 days 0 hours 0 minutes 35 seconds 435 msec
