                         Program Version 4.2.1 -  RELEASE  -
|  1> ! wB97X-D3 SP def2-SVP
|  2> %pal
|  3> nprocs 16
|  4> end
|  5>
|  6> * xyz 0 1
|  7> S 	 22.9451 	 -1.39272 	 86.0472
|  8> C 	 24.4206 	 -0.585409 	 85.85
|  9> C 	 24.1729 	 0.620945 	 85.2267
| 10> C 	 22.7981 	 0.871621 	 84.8841
| 11> C 	 21.9479 	 -0.0984515 	 85.2876
| 12> H 	 22.5669 	 1.7118 	 84.3419
| 13> C 	 25.2281 	 1.56494 	 84.8393
| 14> H 	 25.5912 	 1.45047 	 83.8201
| 15> H 	 26.117 	 1.22712 	 85.3896
| 16> C 	 24.9888 	 3.02525 	 85.2229
| 17> H 	 24.479 	 3.42262 	 84.3771
| 18> H 	 24.331 	 3.14865 	 86.0735
| 19> C 	 26.2424 	 3.83043 	 85.5573
| 20> H 	 26.7559 	 3.33282 	 86.4169
| 21> H 	 26.9517 	 3.9544 	 84.6813
| 22> H 	 25.9235 	 4.86669 	 85.7599
| 23> S 	 19.7394 	 -0.863519 	 86.5125
| 24> C 	 18.2306 	 -0.836754 	 85.5938
| 25> C 	 18.3666 	 -0.197862 	 84.3764
| 26> C 	 19.6846 	 0.22811 	 84.0713
| 27> C 	 20.5274 	 -0.24214 	 85.0902
| 28> H 	 17.4596 	 -0.0513976 	 83.8327
| 29> C 	 20.0482 	 0.819515 	 82.7504
| 30> H 	 21.0563 	 0.914278 	 82.6148
| 31> H 	 19.7692 	 1.88551 	 82.6288
| 32> C 	 19.4493 	 0.147022 	 81.5914
| 33> H 	 18.3713 	 0.339941 	 81.5277
| 34> H 	 19.5848 	 -0.955635 	 81.5835
| 35> C 	 20.1347 	 0.746444 	 80.3711
| 36> H 	 19.825 	 0.237527 	 79.4903
| 37> H 	 21.1736 	 0.46119 	 80.5313
| 38> H 	 19.9485 	 1.80057 	 80.2249
| 39> H 	 25.4383 	 -0.968744 	 85.9784
| 40> H 	 17.3217 	 -1.37564 	 85.8444
| 41> *
| 42>
| 43>                          ****END OF INPUT****

CARTESIAN COORDINATES (ANGSTROEM)
---------------------------------
  S     22.945100   -1.392720   86.047200
  C     24.420600   -0.585409   85.850000
  C     24.172900    0.620945   85.226700
  C     22.798100    0.871621   84.884100
  C     21.947900   -0.098451   85.287600
  H     22.566900    1.711800   84.341900
  C     25.228100    1.564940   84.839300
  H     25.591200    1.450470   83.820100
  H     26.117000    1.227120   85.389600
  C     24.988800    3.025250   85.222900
  H     24.479000    3.422620   84.377100
  H     24.331000    3.148650   86.073500
  C     26.242400    3.830430   85.557300
  H     26.755900    3.332820   86.416900
  H     26.951700    3.954400   84.681300
  H     25.923500    4.866690   85.759900
  S     19.739400   -0.863519   86.512500
  C     18.230600   -0.836754   85.593800
  C     18.366600   -0.197862   84.376400
  C     19.684600    0.228110   84.071300
  C     20.527400   -0.242140   85.090200
  H     17.459600   -0.051398   83.832700
  C     20.048200    0.819515   82.750400
  H     21.056300    0.914278   82.614800
  H     19.769200    1.885510   82.628800
  C     19.449300    0.147022   81.591400
  H     18.371300    0.339941   81.527700
  H     19.584800   -0.955635   81.583500
  C     20.134700    0.746444   80.371100
  H     19.825000    0.237527   79.490300
  H     21.173600    0.461190   80.531300
  H     19.948500    1.800570   80.224900
  H     25.438300   -0.968744   85.978400
  H     17.321700   -1.375640   85.844400

 Total Charge           Charge          ....    0
 Multiplicity           Mult            ....    1
 Number of Electrons    NEL             ....  134
 Basis Dimension        Dim             ....  322

ORBITAL ENERGIES
----------------

  NO   OCC          E(Eh)            E(eV)
   0   2.0000     -88.966789     -2420.9094
   1   2.0000     -88.960705     -2420.7439
   2   2.0000     -10.327497      -281.0255
   3   2.0000     -10.326619      -281.0016
   4   2.0000     -10.313499      -280.6446
   5   2.0000     -10.309414      -280.5334
   6   2.0000     -10.304970      -280.4125
   7   2.0000     -10.291992      -280.0593
   8   2.0000     -10.290502      -280.0188
   9   2.0000     -10.286737      -279.9164
  10   2.0000     -10.283759      -279.8353
  11   2.0000     -10.283256      -279.8216
  12   2.0000     -10.282922      -279.8125
  13   2.0000     -10.282763      -279.8082
  14   2.0000     -10.280353      -279.7426
  15   2.0000     -10.273808      -279.5645
  16   2.0000      -8.081496      -219.9087
  17   2.0000      -8.075746      -219.7522
  18   2.0000      -6.039978      -164.3561
  19   2.0000      -6.036194      -164.2532
  20   2.0000      -6.034379      -164.2038
  21   2.0000      -6.032090      -164.1415
  22   2.0000      -6.030102      -164.0874
  23   2.0000      -6.026431      -163.9875
  24   2.0000      -1.009540       -27.4710
  25   2.0000      -0.986491       -26.8438
  26   2.0000      -0.929585       -25.2953
  27   2.0000      -0.913549       -24.8589
  28   2.0000      -0.874279       -23.7903
  29   2.0000      -0.857754       -23.3407
  30   2.0000      -0.846334       -23.0299
  31   2.0000      -0.819111       -22.2891
  32   2.0000      -0.783313       -21.3150
  33   2.0000      -0.765300       -20.8249
  34   2.0000      -0.712820       -19.3968
  35   2.0000      -0.703605       -19.1461
  36   2.0000      -0.689224       -18.7547
  37   2.0000      -0.658564       -17.9204
  38   2.0000      -0.639958       -17.4142
  39   2.0000      -0.632915       -17.2225
  40   2.0000      -0.609152       -16.5759
  41   2.0000      -0.581167       -15.8144
  42   2.0000      -0.574392       -15.6300
  43   2.0000      -0.559900       -15.2357
  44   2.0000      -0.531554       -14.4643
  45   2.0000      -0.523699       -14.2506
  46   2.0000      -0.516232       -14.0474
  47   2.0000      -0.511597       -13.9213
  48   2.0000      -0.507136       -13.7999
  49   2.0000      -0.502307       -13.6685
  50   2.0000      -0.499683       -13.5971
  51   2.0000      -0.476498       -12.9662
  52   2.0000      -0.472743       -12.8640
  53   2.0000      -0.464014       -12.6265
  54   2.0000      -0.454263       -12.3611
  55   2.0000      -0.450828       -12.2676
  56   2.0000      -0.446397       -12.1471
  57   2.0000      -0.442137       -12.0312
  58   2.0000      -0.431223       -11.7342
  59   2.0000      -0.428107       -11.6494
  60   2.0000      -0.422456       -11.4956
  61   2.0000      -0.414774       -11.2866
  62   2.0000      -0.408533       -11.1167
  63   2.0000      -0.355927        -9.6853
  64   2.0000      -0.333099        -9.0641
  65   2.0000      -0.322922        -8.7872
  66   2.0000      -0.284178        -7.7329
  67   0.0000       0.025104         0.6831
  68   0.0000       0.077409         2.1064
  69   0.0000       0.104786         2.8514
  70   0.0000       0.121399         3.3034
  71   0.0000       0.133425         3.6307

MULLIKEN ATOMIC CHARGES
-----------------------
   0 S :    0.096033
   1 C :   -0.101524
   2 C :   -0.138542
   3 C :    0.051687
   4 C :   -0.103650
   5 H :   -0.024533
   6 C :    0.073743
   7 H :    0.036315
   8 H :   -0.007602
   9 C :   -0.076705
  10 H :    0.022212
  11 H :    0.035955
  12 C :   -0.080179
  13 H :    0.049763
  14 H :    0.036385
  15 H :    0.038801
  16 S :    0.110490
  17 C :   -0.086073
  18 C :   -0.047114
  19 C :    0.017103
  20 C :   -0.152201
  21 H :    0.009637
  22 C :    0.112096
  23 H :   -0.028704
  24 H :    0.022360
  25 C :   -0.115126
  26 H :    0.030628
  27 H :    0.043590
  28 C :   -0.021947
  29 H :    0.018986
  30 H :    0.030748
  31 H :    0.033975
  32 H :    0.058221
  33 H :    0.055170
Sum of atomic charges:    0.0000000

LOEWDIN ATOMIC CHARGES
----------------------
   0 S :    0.399912
   1 C :   -0.218037
   2 C :   -0.068479
   3 C :   -0.056061
   4 C :   -0.177337
   5 H :    0.016150
   6 C :   -0.041195
   7 H :    0.032398
   8 H :    0.025411
   9 C :   -0.043433
  10 H :    0.018110
  11 H :    0.027263
  12 C :   -0.069552
  13 H :    0.030718
  14 H :    0.027774
  15 H :    0.029241
  16 S :    0.406905
  17 C :   -0.185009
  18 C :   -0.062139
  19 C :   -0.049392
  20 C :   -0.189603
  21 H :    0.028772
  22 C :   -0.034894
  23 H :    0.014035
  24 H :    0.041582
  25 C :   -0.039879
  26 H :    0.021181
  27 H :    0.030035
  28 C :   -0.056182
  29 H :    0.020494
  30 H :    0.028569
  31 H :    0.024350
  32 H :    0.039310
  33 H :    0.028981

  Mayer bond orders larger than 0.100000
B(  0-S ,  1-C ) :   1.1360 B(  0-S ,  4-C ) :   1.1344 B(  1-C ,  2-C ) :   1.6104
B(  1-C , 32-H ) :   0.9630 B(  2-C ,  3-C ) :   1.2404 B(  2-C ,  6-C ) :   1.0440
B(  3-C ,  4-C ) :   1.5597 B(  3-C ,  5-H ) :   1.0151 B(  4-C , 20-C ) :   1.0501
B(  6-C ,  7-H ) :   0.9273 B(  6-C ,  8-H ) :   0.9383 B(  6-C ,  9-C ) :   1.0470
B(  9-C , 10-H ) :   0.9485 B(  9-C , 11-H ) :   0.9633 B(  9-C , 12-C ) :   1.0949
B( 12-C , 13-H ) :   0.9731 B( 12-C , 14-H ) :   0.9744 B( 12-C , 15-H ) :   0.9736
B( 16-S , 17-C ) :   1.1269 B( 16-S , 20-C ) :   1.1582 B( 17-C , 18-C ) :   1.6407
B( 17-C , 20-C ) :   0.1026 B( 17-C , 33-H ) :   0.9643 B( 18-C , 19-C ) :   1.2098
B( 18-C , 21-H ) :   0.9918 B( 19-C , 20-C ) :   1.5783 B( 19-C , 22-C ) :   1.0453
B( 22-C , 23-H ) :   0.9323 B( 22-C , 24-H ) :   0.9088 B( 22-C , 25-C ) :   1.0788
B( 25-C , 26-H ) :   0.9414 B( 25-C , 27-H ) :   0.9561 B( 25-C , 28-C ) :   1.0897
B( 28-C , 29-H ) :   0.9700 B( 28-C , 30-H ) :   0.9751 B( 28-C , 31-H ) :   0.9722

Dispersion correction           -0.013373086
FINAL SINGLE POINT ENERGY     -1339.863905573094

DIPOLE MOMENT
-------------
                                X             Y             Z
Electronic contribution:    -10.03494     -18.61382      19.07759
Nuclear contribution   :     10.09395      19.05136     -19.75128
                        -----------------------------------------
Total Dipole Moment    :      0.05901       0.43754      -0.67369
                        -----------------------------------------
Magnitude (a.u.)       :      0.80547
Magnitude (Debye)      :      2.04735

Rotational constants in cm-1:     0.017403     0.008479     0.006550
Rotational constants in MHz :   521.720768   254.180522   196.356747

                             ****ORCA TERMINATED NORMALLY****
TOTAL RUN TIME: 0 days 0 hours 0 minutes 32 seconds 664 msec
