                         Program Version 4.2.1 -  RELEASE  -
|  1> ! wB97X-D3 SP def2-SVP
|  2> %pal
|  3> nprocs 16
|  4> end
|  5>
|  6> * xyz 0 1
|  7> S 	 -4.285 	 -22.4267 	 57.2713
|  8> C 	 -3.93822 	 -22.8959 	 55.6252
|  9> C 	 -3.09316 	 -21.9957 	 55.0074
| 10> C 	 -2.74004 	 -20.9196 	 55.8564
| 11> C 	 -3.25722 	 -21.0294 	 57.164
| 12> H 	 -2.14913 	 -20.1198 	 55.5539
| 13> C 	 -2.58255 	 -22.1084 	 53.5579
| 14> H 	 -2.94809 	 -23.0254 	 53.2172
| 15> H 	 -1.54216 	 -22.2015 	 53.5937
| 16> C 	 -3.0473 	 -21.0089 	 52.5862
| 17> H 	 -2.69968 	 -21.3764 	 51.5559
| 18> H 	 -4.08583 	 -21.0639 	 52.5521
| 19> C 	 -2.55395 	 -19.6113 	 52.8543
| 20> H 	 -1.44744 	 -19.7168 	 52.8084
| 21> H 	 -2.78766 	 -18.9967 	 52.0741
| 22> H 	 -2.80483 	 -19.2232 	 53.8357
| 23> S 	 -4.8862 	 -19.5735 	 58.7628
| 24> C 	 -4.32899 	 -18.0993 	 59.5876
| 25> C 	 -2.99513 	 -17.8989 	 59.2608
| 26> C 	 -2.33842 	 -18.9399 	 58.4736
| 27> C 	 -3.33948 	 -19.9197 	 58.0946
| 28> H 	 -2.57861 	 -16.9867 	 59.6415
| 29> C 	 -0.848997 	 -18.8293 	 58.1374
| 30> H 	 -0.694753 	 -19.6206 	 57.4111
| 31> H 	 -0.477593 	 -19.1864 	 59.0629
| 32> C 	 -0.167686 	 -17.3882 	 57.8777
| 33> H 	 0.893487 	 -17.6185 	 57.5558
| 34> H 	 -0.253022 	 -16.8441 	 58.8406
| 35> C 	 -0.83912 	 -16.6219 	 56.7791
| 36> H 	 -1.84928 	 -16.4442 	 56.9927
| 37> H 	 -0.829732 	 -17.2944 	 55.8798
| 38> H 	 -0.335413 	 -15.7128 	 56.5057
| 39> H 	 -4.17174 	 -23.8627 	 55.2297
| 40> H 	 -4.92691 	 -17.4668 	 60.3176
| 41> *
| 42>
| 43>                          ****END OF INPUT****

CARTESIAN COORDINATES (ANGSTROEM)
---------------------------------
  S     -4.285000  -22.426700   57.271300
  C     -3.938220  -22.895900   55.625200
  C     -3.093160  -21.995700   55.007400
  C     -2.740040  -20.919600   55.856400
  C     -3.257220  -21.029400   57.164000
  H     -2.149130  -20.119800   55.553900
  C     -2.582550  -22.108400   53.557900
  H     -2.948090  -23.025400   53.217200
  H     -1.542160  -22.201500   53.593700
  C     -3.047300  -21.008900   52.586200
  H     -2.699680  -21.376400   51.555900
  H     -4.085830  -21.063900   52.552100
  C     -2.553950  -19.611300   52.854300
  H     -1.447440  -19.716800   52.808400
  H     -2.787660  -18.996700   52.074100
  H     -2.804830  -19.223200   53.835700
  S     -4.886200  -19.573500   58.762800
  C     -4.328990  -18.099300   59.587600
  C     -2.995130  -17.898900   59.260800
  C     -2.338420  -18.939900   58.473600
  C     -3.339480  -19.919700   58.094600
  H     -2.578610  -16.986700   59.641500
  C     -0.848997  -18.829300   58.137400
  H     -0.694753  -19.620600   57.411100
  H     -0.477593  -19.186400   59.062900
  C     -0.167686  -17.388200   57.877700
  H      0.893487  -17.618500   57.555800
  H     -0.253022  -16.844100   58.840600
  C     -0.839120  -16.621900   56.779100
  H     -1.849280  -16.444200   56.992700
  H     -0.829732  -17.294400   55.879800
  H     -0.335413  -15.712800   56.505700
  H     -4.171740  -23.862700   55.229700
  H     -4.926910  -17.466800   60.317600

 Total Charge           Charge          ....    0
 Multiplicity           Mult            ....    1
 Number of Electrons    NEL             ....  134
 Basis Dimension        Dim             ....  322

ORBITAL ENERGIES
----------------

  NO   OCC          E(Eh)            E(eV)
   0   2.0000     -88.968608     -2420.9589
   1   2.0000     -88.964431     -2420.8453
   2   2.0000     -10.331285      -281.1285
   3   2.0000     -10.330697      -281.1126
   4   2.0000     -10.321793      -280.8703
   5   2.0000     -10.313163      -280.6354
   6   2.0000     -10.312772      -280.6248
   7   2.0000     -10.302685      -280.3503
   8   2.0000     -10.299909      -280.2748
   9   2.0000     -10.294526      -280.1283
  10   2.0000     -10.294468      -280.1267
  11   2.0000     -10.290211      -280.0109
  12   2.0000     -10.286285      -279.9040
  13   2.0000     -10.284394      -279.8526
  14   2.0000     -10.273000      -279.5426
  15   2.0000     -10.272611      -279.5320
  16   2.0000      -8.083412      -219.9608
  17   2.0000      -8.078999      -219.8407
  18   2.0000      -6.041880      -164.4079
  19   2.0000      -6.037768      -164.2960
  20   2.0000      -6.037583      -164.2910
  21   2.0000      -6.034361      -164.2033
  22   2.0000      -6.033385      -164.1768
  23   2.0000      -6.029818      -164.0797
  24   2.0000      -1.005738       -27.3675
  25   2.0000      -0.978346       -26.6221
  26   2.0000      -0.915364       -24.9083
  27   2.0000      -0.904988       -24.6260
  28   2.0000      -0.870451       -23.6862
  29   2.0000      -0.852091       -23.1866
  30   2.0000      -0.845295       -23.0016
  31   2.0000      -0.817795       -22.2533
  32   2.0000      -0.789837       -21.4926
  33   2.0000      -0.771493       -20.9934
  34   2.0000      -0.707530       -19.2529
  35   2.0000      -0.701239       -19.0817
  36   2.0000      -0.692270       -18.8376
  37   2.0000      -0.656876       -17.8745
  38   2.0000      -0.638535       -17.3754
  39   2.0000      -0.622343       -16.9348
  40   2.0000      -0.587787       -15.9945
  41   2.0000      -0.573984       -15.6189
  42   2.0000      -0.554057       -15.0766
  43   2.0000      -0.550417       -14.9776
  44   2.0000      -0.546073       -14.8594
  45   2.0000      -0.544085       -14.8053
  46   2.0000      -0.520843       -14.1728
  47   2.0000      -0.516547       -14.0560
  48   2.0000      -0.506339       -13.7782
  49   2.0000      -0.496718       -13.5164
  50   2.0000      -0.492570       -13.4035
  51   2.0000      -0.486745       -13.2450
  52   2.0000      -0.473586       -12.8869
  53   2.0000      -0.462030       -12.5725
  54   2.0000      -0.458010       -12.4631
  55   2.0000      -0.445632       -12.1263
  56   2.0000      -0.439487       -11.9591
  57   2.0000      -0.437569       -11.9068
  58   2.0000      -0.435791       -11.8585
  59   2.0000      -0.431149       -11.7322
  60   2.0000      -0.420578       -11.4445
  61   2.0000      -0.417440       -11.3591
  62   2.0000      -0.413427       -11.2499
  63   2.0000      -0.352473        -9.5913
  64   2.0000      -0.333189        -9.0665
  65   2.0000      -0.324437        -8.8284
  66   2.0000      -0.281724        -7.6661
  67   0.0000       0.023195         0.6312
  68   0.0000       0.077743         2.1155
  69   0.0000       0.109954         2.9920
  70   0.0000       0.118837         3.2337
  71   0.0000       0.126937         3.4541

MULLIKEN ATOMIC CHARGES
-----------------------
   0 S :    0.106912
   1 C :   -0.122137
   2 C :   -0.113321
   3 C :    0.034996
   4 C :   -0.133349
   5 H :   -0.013872
   6 C :    0.138693
   7 H :   -0.011880
   8 H :    0.017990
   9 C :   -0.078515
  10 H :    0.031736
  11 H :    0.016008
  12 C :   -0.012241
  13 H :    0.017355
  14 H :    0.019148
  15 H :    0.050391
  16 S :    0.103167
  17 C :   -0.130307
  18 C :   -0.047076
  19 C :   -0.074531
  20 C :   -0.147152
  21 H :    0.012000
  22 C :    0.085060
  23 H :    0.018934
  24 H :    0.035061
  25 C :   -0.091005
  26 H :    0.051584
  27 H :    0.043529
  28 C :   -0.020606
  29 H :    0.027303
  30 H :    0.023816
  31 H :    0.035349
  32 H :    0.043663
  33 H :    0.083297
Sum of atomic charges:    0.0000000

LOEWDIN ATOMIC CHARGES
----------------------
   0 S :    0.416701
   1 C :   -0.197892
   2 C :   -0.058303
   3 C :   -0.053628
   4 C :   -0.200459
   5 H :    0.015244
   6 C :   -0.017666
   7 H :    0.021675
   8 H :    0.022135
   9 C :   -0.031984
  10 H :    0.032513
  11 H :    0.013737
  12 C :   -0.058492
  13 H :    0.029508
  14 H :    0.016548
  15 H :    0.026961
  16 S :    0.407719
  17 C :   -0.201001
  18 C :   -0.076349
  19 C :   -0.057982
  20 C :   -0.210619
  21 H :    0.025129
  22 C :   -0.034656
  23 H :    0.027384
  24 H :    0.035894
  25 C :   -0.035613
  26 H :    0.037230
  27 H :    0.026286
  28 C :   -0.064525
  29 H :    0.018464
  30 H :    0.030092
  31 H :    0.024548
  32 H :    0.024338
  33 H :    0.047063

  Mayer bond orders larger than 0.100000
B(  0-S ,  1-C ) :   1.1457 B(  0-S ,  4-C ) :   1.1678 B(  1-C ,  2-C ) :   1.5912
B(  1-C , 32-H ) :   0.9656 B(  2-C ,  3-C ) :   1.2890 B(  2-C ,  6-C ) :   1.0108
B(  3-C ,  4-C ) :   1.5082 B(  3-C ,  5-H ) :   0.9926 B(  4-C , 20-C ) :   1.0572
B(  6-C ,  7-H ) :   0.9278 B(  6-C ,  8-H ) :   0.9379 B(  6-C ,  9-C ) :   1.0774
B(  9-C , 10-H ) :   0.9534 B(  9-C , 11-H ) :   0.9527 B(  9-C , 12-C ) :   1.0853
B( 12-C , 13-H ) :   0.9727 B( 12-C , 14-H ) :   0.9665 B( 12-C , 15-H ) :   0.9669
B( 16-S , 17-C ) :   1.1357 B( 16-S , 20-C ) :   1.1675 B( 17-C , 18-C ) :   1.6182
B( 17-C , 33-H ) :   0.9601 B( 18-C , 19-C ) :   1.2413 B( 18-C , 21-H ) :   0.9862
B( 19-C , 20-C ) :   1.5359 B( 19-C , 22-C ) :   1.0157 B( 22-C , 23-H ) :   0.9346
B( 22-C , 24-H ) :   0.9277 B( 22-C , 25-C ) :   1.0594 B( 25-C , 26-H ) :   0.9549
B( 25-C , 27-H ) :   0.9478 B( 25-C , 28-C ) :   1.0878 B( 28-C , 29-H ) :   0.9715
B( 28-C , 30-H ) :   0.9717 B( 28-C , 31-H ) :   0.9721

Dispersion correction           -0.014784367
FINAL SINGLE POINT ENERGY     -1339.860172948250

DIPOLE MOMENT
-------------
                                X             Y             Z
Electronic contribution:    -17.58686     -13.37448      18.57315
Nuclear contribution   :     18.07701      13.68472     -19.02336
                        -----------------------------------------
Total Dipole Moment    :      0.49015       0.31024      -0.45021
                        -----------------------------------------
Magnitude (a.u.)       :      0.73429
Magnitude (Debye)      :      1.86642

Rotational constants in cm-1:     0.016674     0.010217     0.007246
Rotational constants in MHz :   499.885056   306.289787   217.231806

                             ****ORCA TERMINATED NORMALLY****
TOTAL RUN TIME: 0 days 0 hours 0 minutes 35 seconds 668 msec
