                         Program Version 4.2.1 -  RELEASE  -
|  1> ! wB97X-D3 SP def2-SVP
|  2> %pal
|  3> nprocs 16
|  4> end
|  5>
|  6> * xyz 0 1
|  7> S 	 -0.36549 	 -8.80866 	 92.0654
|  8> C 	 0.381377 	 -9.05798 	 93.6074
|  9> C 	 0.0775797 	 -10.3026 	 94.0955
| 10> C 	 -0.871069 	 -11.0186 	 93.3521
| 11> C 	 -1.38071 	 -10.2387 	 92.283
| 12> H 	 -1.34843 	 -11.9277 	 93.6263
| 13> C 	 0.655389 	 -10.9075 	 95.3554
| 14> H 	 1.47135 	 -10.2098 	 95.5667
| 15> H 	 1.11629 	 -11.8417 	 94.9701
| 16> C 	 -0.48932 	 -11.1977 	 96.4025
| 17> H 	 -1.34509 	 -10.4219 	 96.2601
| 18> H 	 -1.05489 	 -12.0904 	 96.1135
| 19> C 	 0.00450465 	 -11.1144 	 97.8774
| 20> H 	 -0.863405 	 -11.2769 	 98.5174
| 21> H 	 0.79245 	 -11.8669 	 98.0767
| 22> H 	 0.43258 	 -10.2028 	 98.3216
| 23> S 	 -3.70072 	 -9.41618 	 90.9354
| 24> C 	 -4.67908 	 -10.5562 	 90.0221
| 25> C 	 -4.13852 	 -11.8143 	 90.1191
| 26> C 	 -2.94435 	 -11.9149 	 90.9109
| 27> C 	 -2.49476 	 -10.6412 	 91.3526
| 28> H 	 -4.69272 	 -12.6319 	 89.6432
| 29> C 	 -2.39084 	 -13.2894 	 91.1514
| 30> H 	 -2.96549 	 -14.1471 	 90.8208
| 31> H 	 -2.35824 	 -13.329 	 92.2114
| 32> C 	 -1.05347 	 -13.5446 	 90.4944
| 33> H 	 -0.19332 	 -12.9662 	 90.963
| 34> H 	 -1.1939 	 -13.1855 	 89.4721
| 35> C 	 -0.497666 	 -15.0352 	 90.6038
| 36> H 	 -0.220992 	 -15.2501 	 91.6214
| 37> H 	 0.369469 	 -15.1921 	 89.9575
| 38> H 	 -1.33186 	 -15.7299 	 90.3413
| 39> H 	 1.08209 	 -8.33075 	 94.0059
| 40> H 	 -5.60623 	 -10.2774 	 89.5686
| 41> *
| 42>
| 43>                          ****END OF INPUT****

CARTESIAN COORDINATES (ANGSTROEM)
---------------------------------
  S     -0.365490   -8.808660   92.065400
  C      0.381377   -9.057980   93.607400
  C      0.077580  -10.302600   94.095500
  C     -0.871069  -11.018600   93.352100
  C     -1.380710  -10.238700   92.283000
  H     -1.348430  -11.927700   93.626300
  C      0.655389  -10.907500   95.355400
  H      1.471350  -10.209800   95.566700
  H      1.116290  -11.841700   94.970100
  C     -0.489320  -11.197700   96.402500
  H     -1.345090  -10.421900   96.260100
  H     -1.054890  -12.090400   96.113500
  C      0.004505  -11.114400   97.877400
  H     -0.863405  -11.276900   98.517400
  H      0.792450  -11.866900   98.076700
  H      0.432580  -10.202800   98.321600
  S     -3.700720   -9.416180   90.935400
  C     -4.679080  -10.556200   90.022100
  C     -4.138520  -11.814300   90.119100
  C     -2.944350  -11.914900   90.910900
  C     -2.494760  -10.641200   91.352600
  H     -4.692720  -12.631900   89.643200
  C     -2.390840  -13.289400   91.151400
  H     -2.965490  -14.147100   90.820800
  H     -2.358240  -13.329000   92.211400
  C     -1.053470  -13.544600   90.494400
  H     -0.193320  -12.966200   90.963000
  H     -1.193900  -13.185500   89.472100
  C     -0.497666  -15.035200   90.603800
  H     -0.220992  -15.250100   91.621400
  H      0.369469  -15.192100   89.957500
  H     -1.331860  -15.729900   90.341300
  H      1.082090   -8.330750   94.005900
  H     -5.606230  -10.277400   89.568600

 Total Charge           Charge          ....    0
 Multiplicity           Mult            ....    1
 Number of Electrons    NEL             ....  134
 Basis Dimension        Dim             ....  322

ORBITAL ENERGIES
----------------

  NO   OCC          E(Eh)            E(eV)
   0   2.0000     -88.966074     -2420.8899
   1   2.0000     -88.964987     -2420.8604
   2   2.0000     -10.338292      -281.3192
   3   2.0000     -10.337435      -281.2959
   4   2.0000     -10.317131      -280.7434
   5   2.0000     -10.309974      -280.5486
   6   2.0000     -10.309691      -280.5409
   7   2.0000     -10.304304      -280.3944
   8   2.0000     -10.295331      -280.1502
   9   2.0000     -10.294989      -280.1409
  10   2.0000     -10.294897      -280.1384
  11   2.0000     -10.292079      -280.0617
  12   2.0000     -10.288808      -279.9727
  13   2.0000     -10.288686      -279.9694
  14   2.0000     -10.284777      -279.8630
  15   2.0000     -10.283613      -279.8313
  16   2.0000      -8.080759      -219.8886
  17   2.0000      -8.079319      -219.8494
  18   2.0000      -6.039185      -164.3346
  19   2.0000      -6.037845      -164.2981
  20   2.0000      -6.035337      -164.2299
  21   2.0000      -6.033772      -164.1873
  22   2.0000      -6.031557      -164.1270
  23   2.0000      -6.030185      -164.0897
  24   2.0000      -1.002254       -27.2727
  25   2.0000      -0.984087       -26.7784
  26   2.0000      -0.910225       -24.7685
  27   2.0000      -0.904044       -24.6003
  28   2.0000      -0.862832       -23.4788
  29   2.0000      -0.848126       -23.0787
  30   2.0000      -0.842963       -22.9382
  31   2.0000      -0.814146       -22.1541
  32   2.0000      -0.781179       -21.2570
  33   2.0000      -0.769688       -20.9443
  34   2.0000      -0.711266       -19.3545
  35   2.0000      -0.698876       -19.0174
  36   2.0000      -0.687973       -18.7207
  37   2.0000      -0.661699       -18.0058
  38   2.0000      -0.641252       -17.4493
  39   2.0000      -0.619315       -16.8524
  40   2.0000      -0.596600       -16.2343
  41   2.0000      -0.570744       -15.5307
  42   2.0000      -0.563554       -15.3351
  43   2.0000      -0.545753       -14.8507
  44   2.0000      -0.528167       -14.3721
  45   2.0000      -0.521606       -14.1936
  46   2.0000      -0.517089       -14.0707
  47   2.0000      -0.516459       -14.0536
  48   2.0000      -0.502026       -13.6608
  49   2.0000      -0.495770       -13.4906
  50   2.0000      -0.493645       -13.4328
  51   2.0000      -0.485784       -13.2188
  52   2.0000      -0.479335       -13.0434
  53   2.0000      -0.466239       -12.6870
  54   2.0000      -0.456828       -12.4309
  55   2.0000      -0.445324       -12.1179
  56   2.0000      -0.439111       -11.9488
  57   2.0000      -0.437836       -11.9141
  58   2.0000      -0.430132       -11.7045
  59   2.0000      -0.427354       -11.6289
  60   2.0000      -0.418776       -11.3955
  61   2.0000      -0.410303       -11.1649
  62   2.0000      -0.402790       -10.9605
  63   2.0000      -0.349716        -9.5163
  64   2.0000      -0.329374        -8.9627
  65   2.0000      -0.328908        -8.9500
  66   2.0000      -0.287740        -7.8298
  67   0.0000       0.021399         0.5823
  68   0.0000       0.075872         2.0646
  69   0.0000       0.112909         3.0724
  70   0.0000       0.115116         3.1325
  71   0.0000       0.140477         3.8226

MULLIKEN ATOMIC CHARGES
-----------------------
   0 S :    0.111374
   1 C :   -0.136197
   2 C :   -0.114394
   3 C :    0.030065
   4 C :   -0.140599
   5 H :   -0.001356
   6 C :    0.101274
   7 H :    0.018105
   8 H :    0.041090
   9 C :   -0.112540
  10 H :    0.053296
  11 H :    0.039871
  12 C :   -0.053702
  13 H :    0.032352
  14 H :    0.035823
  15 H :    0.038638
  16 S :    0.095107
  17 C :   -0.089010
  18 C :   -0.039878
  19 C :   -0.050505
  20 C :   -0.138499
  21 H :    0.026668
  22 C :    0.105568
  23 H :    0.012974
  24 H :    0.013565
  25 C :   -0.120663
  26 H :    0.046838
  27 H :    0.037028
  28 C :   -0.051117
  29 H :    0.028028
  30 H :    0.047355
  31 H :    0.027847
  32 H :    0.050844
  33 H :    0.054752
Sum of atomic charges:   -0.0000000

LOEWDIN ATOMIC CHARGES
----------------------
   0 S :    0.407638
   1 C :   -0.211426
   2 C :   -0.067115
   3 C :   -0.064138
   4 C :   -0.179944
   5 H :    0.023622
   6 C :   -0.033112
   7 H :    0.030018
   8 H :    0.037597
   9 C :   -0.045976
  10 H :    0.036698
  11 H :    0.027355
  12 C :   -0.075640
  13 H :    0.027278
  14 H :    0.027065
  15 H :    0.029766
  16 S :    0.399488
  17 C :   -0.178656
  18 C :   -0.075384
  19 C :   -0.050224
  20 C :   -0.196037
  21 H :    0.035420
  22 C :   -0.034045
  23 H :    0.031739
  24 H :    0.023447
  25 C :   -0.043887
  26 H :    0.030614
  27 H :    0.024745
  28 C :   -0.066506
  29 H :    0.021255
  30 H :    0.029969
  31 H :    0.022749
  32 H :    0.028889
  33 H :    0.026739

  Mayer bond orders larger than 0.100000
B(  0-S ,  1-C ) :   1.1305 B(  0-S ,  4-C ) :   1.1791 B(  1-C ,  2-C ) :   1.5962
B(  1-C ,  4-C ) :   0.1007 B(  1-C , 32-H ) :   0.9694 B(  2-C ,  3-C ) :   1.2633
B(  2-C ,  6-C ) :   1.0169 B(  3-C ,  4-C ) :   1.5360 B(  3-C ,  5-H ) :   0.9968
B(  4-C , 20-C ) :   1.0392 B(  6-C ,  7-H ) :   0.9502 B(  6-C ,  8-H ) :   0.9361
B(  6-C ,  9-C ) :   1.0231 B(  9-C , 10-H ) :   0.9663 B(  9-C , 11-H ) :   0.9520
B(  9-C , 12-C ) :   1.0704 B( 12-C , 13-H ) :   0.9749 B( 12-C , 14-H ) :   0.9751
B( 12-C , 15-H ) :   0.9791 B( 16-S , 17-C ) :   1.1570 B( 16-S , 20-C ) :   1.1492
B( 17-C , 18-C ) :   1.5919 B( 17-C , 20-C ) :   0.1013 B( 17-C , 33-H ) :   0.9720
B( 18-C , 19-C ) :   1.2579 B( 18-C , 21-H ) :   0.9893 B( 19-C , 20-C ) :   1.5573
B( 19-C , 22-C ) :   1.0401 B( 22-C , 23-H ) :   0.9354 B( 22-C , 24-H ) :   0.9208
B( 22-C , 25-C ) :   1.0603 B( 25-C , 26-H ) :   0.9534 B( 25-C , 27-H ) :   0.9582
B( 25-C , 28-C ) :   1.0727 B( 28-C , 29-H ) :   0.9768 B( 28-C , 30-H ) :   0.9768
B( 28-C , 31-H ) :   0.9751

Dispersion correction           -0.014069263
FINAL SINGLE POINT ENERGY     -1339.865435718013

DIPOLE MOMENT
-------------
                                X             Y             Z
Electronic contribution:     -9.29751      22.19613     -14.99829
Nuclear contribution   :      9.28832     -22.80266      15.35098
                        -----------------------------------------
Total Dipole Moment    :     -0.00919      -0.60653       0.35269
                        -----------------------------------------
Magnitude (a.u.)       :      0.70168
Magnitude (Debye)      :      1.78352

Rotational constants in cm-1:     0.016553     0.008563     0.006918
Rotational constants in MHz :   496.259218   256.710958   207.409888

                             ****ORCA TERMINATED NORMALLY****
TOTAL RUN TIME: 0 days 0 hours 0 minutes 34 seconds 265 msec
