                         Program Version 4.2.1 -  RELEASE  -
|  1> ! wB97X-D3 SP def2-SVP
|  2> %pal
|  3> nprocs 16
|  4> end
|  5>
|  6> * xyz 0 1
|  7> S 	 -5.82082 	 43.9538 	 37.9708
|  8> C 	 -7.28059 	 43.0252 	 37.8655
|  9> C 	 -8.3095 	 43.5098 	 38.6827
| 10> C 	 -7.83902 	 44.55 	 39.5658
| 11> C 	 -6.51332 	 44.9142 	 39.2263
| 12> H 	 -8.42444 	 45.186 	 40.2784
| 13> C 	 -9.77451 	 43.0544 	 38.6775
| 14> H 	 -10.0237 	 42.9768 	 39.7548
| 15> H 	 -9.7186 	 42.0203 	 38.3354
| 16> C 	 -10.7755 	 43.857 	 37.8258
| 17> H 	 -11.7456 	 43.2835 	 37.8359
| 18> H 	 -10.9524 	 44.8153 	 38.3189
| 19> C 	 -10.1572 	 44.088 	 36.386
| 20> H 	 -10.9531 	 44.5217 	 35.7171
| 21> H 	 -9.27448 	 44.7104 	 36.3206
| 22> H 	 -10.0238 	 43.0643 	 35.9773
| 23> S 	 -4.30262 	 45.3827 	 40.9199
| 24> C 	 -4.55029 	 46.7577 	 41.9553
| 25> C 	 -5.16223 	 47.769 	 41.2803
| 26> C 	 -5.89993 	 47.2476 	 40.1765
| 27> C 	 -5.74275 	 45.8579 	 39.9871
| 28> H 	 -5.08771 	 48.7863 	 41.517
| 29> C 	 -6.74786 	 48.146 	 39.253
| 30> H 	 -6.6228 	 47.7392 	 38.2574
| 31> H 	 -6.3804 	 49.1256 	 39.345
| 32> C 	 -8.18998 	 48.2325 	 39.6939
| 33> H 	 -8.22176 	 48.3894 	 40.7752
| 34> H 	 -8.62646 	 47.2233 	 39.5275
| 35> C 	 -8.84172 	 49.2864 	 38.7891
| 36> H 	 -8.79156 	 49.1364 	 37.7332
| 37> H 	 -8.35983 	 50.2125 	 38.9225
| 38> H 	 -9.90049 	 49.2462 	 39.115
| 39> H 	 -7.43202 	 42.241 	 37.0789
| 40> H 	 -3.98845 	 46.9896 	 42.8194
| 41> *
| 42>
| 43>                          ****END OF INPUT****

CARTESIAN COORDINATES (ANGSTROEM)
---------------------------------
  S     -5.820820   43.953800   37.970800
  C     -7.280590   43.025200   37.865500
  C     -8.309500   43.509800   38.682700
  C     -7.839020   44.550000   39.565800
  C     -6.513320   44.914200   39.226300
  H     -8.424440   45.186000   40.278400
  C     -9.774510   43.054400   38.677500
  H    -10.023700   42.976800   39.754800
  H     -9.718600   42.020300   38.335400
  C    -10.775500   43.857000   37.825800
  H    -11.745600   43.283500   37.835900
  H    -10.952400   44.815300   38.318900
  C    -10.157200   44.088000   36.386000
  H    -10.953100   44.521700   35.717100
  H     -9.274480   44.710400   36.320600
  H    -10.023800   43.064300   35.977300
  S     -4.302620   45.382700   40.919900
  C     -4.550290   46.757700   41.955300
  C     -5.162230   47.769000   41.280300
  C     -5.899930   47.247600   40.176500
  C     -5.742750   45.857900   39.987100
  H     -5.087710   48.786300   41.517000
  C     -6.747860   48.146000   39.253000
  H     -6.622800   47.739200   38.257400
  H     -6.380400   49.125600   39.345000
  C     -8.189980   48.232500   39.693900
  H     -8.221760   48.389400   40.775200
  H     -8.626460   47.223300   39.527500
  C     -8.841720   49.286400   38.789100
  H     -8.791560   49.136400   37.733200
  H     -8.359830   50.212500   38.922500
  H     -9.900490   49.246200   39.115000
  H     -7.432020   42.241000   37.078900
  H     -3.988450   46.989600   42.819400

 Total Charge           Charge          ....    0
 Multiplicity           Mult            ....    1
 Number of Electrons    NEL             ....  134
 Basis Dimension        Dim             ....  322

ORBITAL ENERGIES
----------------

  NO   OCC          E(Eh)            E(eV)
   0   2.0000     -88.970996     -2421.0239
   1   2.0000     -88.959253     -2420.7043
   2   2.0000     -10.328249      -281.0459
   3   2.0000     -10.321349      -280.8582
   4   2.0000     -10.316946      -280.7384
   5   2.0000     -10.310101      -280.5521
   6   2.0000     -10.304905      -280.4107
   7   2.0000     -10.301345      -280.3138
   8   2.0000     -10.299956      -280.2760
   9   2.0000     -10.297943      -280.2213
  10   2.0000     -10.293773      -280.1078
  11   2.0000     -10.286976      -279.9229
  12   2.0000     -10.286028      -279.8971
  13   2.0000     -10.284135      -279.8455
  14   2.0000     -10.281123      -279.7636
  15   2.0000     -10.273868      -279.5662
  16   2.0000      -8.086188      -220.0364
  17   2.0000      -8.074178      -219.7095
  18   2.0000      -6.044537      -164.4802
  19   2.0000      -6.040623      -164.3737
  20   2.0000      -6.037116      -164.2783
  21   2.0000      -6.032729      -164.1589
  22   2.0000      -6.029214      -164.0633
  23   2.0000      -6.024324      -163.9302
  24   2.0000      -1.005493       -27.3609
  25   2.0000      -0.983860       -26.7722
  26   2.0000      -0.913911       -24.8688
  27   2.0000      -0.907423       -24.6922
  28   2.0000      -0.866234       -23.5714
  29   2.0000      -0.847054       -23.0495
  30   2.0000      -0.843512       -22.9531
  31   2.0000      -0.808413       -21.9980
  32   2.0000      -0.780559       -21.2401
  33   2.0000      -0.768203       -20.9039
  34   2.0000      -0.707460       -19.2510
  35   2.0000      -0.699718       -19.0403
  36   2.0000      -0.691402       -18.8140
  37   2.0000      -0.660688       -17.9782
  38   2.0000      -0.636663       -17.3245
  39   2.0000      -0.611425       -16.6377
  40   2.0000      -0.593088       -16.1388
  41   2.0000      -0.574709       -15.6386
  42   2.0000      -0.562597       -15.3091
  43   2.0000      -0.548533       -14.9263
  44   2.0000      -0.540968       -14.7205
  45   2.0000      -0.525640       -14.3034
  46   2.0000      -0.514246       -13.9933
  47   2.0000      -0.504005       -13.7147
  48   2.0000      -0.503564       -13.7027
  49   2.0000      -0.498237       -13.5577
  50   2.0000      -0.490020       -13.3341
  51   2.0000      -0.477188       -12.9849
  52   2.0000      -0.469398       -12.7730
  53   2.0000      -0.466435       -12.6923
  54   2.0000      -0.460392       -12.5279
  55   2.0000      -0.455606       -12.3977
  56   2.0000      -0.449894       -12.2422
  57   2.0000      -0.433543       -11.7973
  58   2.0000      -0.430165       -11.7054
  59   2.0000      -0.425257       -11.5718
  60   2.0000      -0.419832       -11.4242
  61   2.0000      -0.418295       -11.3824
  62   2.0000      -0.407172       -11.0797
  63   2.0000      -0.338967        -9.2238
  64   2.0000      -0.329966        -8.9788
  65   2.0000      -0.318630        -8.6704
  66   2.0000      -0.286637        -7.7998
  67   0.0000       0.028129         0.7654
  68   0.0000       0.050281         1.3682
  69   0.0000       0.102208         2.7812
  70   0.0000       0.117792         3.2053
  71   0.0000       0.122346         3.3292

MULLIKEN ATOMIC CHARGES
-----------------------
   0 S :    0.128890
   1 C :   -0.137947
   2 C :   -0.123408
   3 C :    0.030312
   4 C :   -0.193504
   5 H :    0.044649
   6 C :    0.051746
   7 H :    0.035710
   8 H :    0.018418
   9 C :   -0.057072
  10 H :    0.048226
  11 H :    0.031042
  12 C :   -0.082893
  13 H :    0.038376
  14 H :    0.065644
  15 H :    0.029075
  16 S :    0.102841
  17 C :   -0.065979
  18 C :   -0.008331
  19 C :   -0.068076
  20 C :   -0.156010
  21 H :    0.000980
  22 C :    0.099854
  23 H :    0.032588
  24 H :   -0.003687
  25 C :   -0.102241
  26 H :    0.031286
  27 H :    0.022216
  28 C :    0.004570
  29 H :    0.024750
  30 H :    0.015967
  31 H :    0.039231
  32 H :    0.063020
  33 H :    0.039755
Sum of atomic charges:    0.0000000

LOEWDIN ATOMIC CHARGES
----------------------
   0 S :    0.427695
   1 C :   -0.215752
   2 C :   -0.063435
   3 C :   -0.060746
   4 C :   -0.207566
   5 H :    0.040465
   6 C :   -0.039721
   7 H :    0.034256
   8 H :    0.027370
   9 C :   -0.039056
  10 H :    0.034571
  11 H :    0.020751
  12 C :   -0.069737
  13 H :    0.030055
  14 H :    0.029232
  15 H :    0.026112
  16 S :    0.385253
  17 C :   -0.170695
  18 C :   -0.067193
  19 C :   -0.045719
  20 C :   -0.201122
  21 H :    0.023473
  22 C :   -0.024185
  23 H :    0.030700
  24 H :    0.019035
  25 C :   -0.040287
  26 H :    0.025143
  27 H :    0.021736
  28 C :   -0.058666
  29 H :    0.024670
  30 H :    0.017555
  31 H :    0.032297
  32 H :    0.034081
  33 H :    0.019427

  Mayer bond orders larger than 0.100000
B(  0-S ,  1-C ) :   1.1413 B(  0-S ,  4-C ) :   1.1692 B(  1-C ,  2-C ) :   1.5991
B(  1-C , 32-H ) :   0.9599 B(  2-C ,  3-C ) :   1.2484 B(  2-C ,  6-C ) :   1.0147
B(  3-C ,  4-C ) :   1.5497 B(  3-C ,  5-H ) :   0.9740 B(  4-C , 20-C ) :   1.0674
B(  6-C ,  7-H ) :   0.9431 B(  6-C ,  8-H ) :   0.9397 B(  6-C ,  9-C ) :   1.0601
B(  9-C , 10-H ) :   0.9571 B(  9-C , 11-H ) :   0.9570 B(  9-C , 12-C ) :   1.0654
B( 12-C , 13-H ) :   0.9747 B( 12-C , 14-H ) :   0.9719 B( 12-C , 15-H ) :   0.9773
B( 16-S , 17-C ) :   1.1633 B( 16-S , 20-C ) :   1.1028 B( 17-C , 18-C ) :   1.5942
B( 17-C , 20-C ) :   0.1015 B( 17-C , 33-H ) :   0.9701 B( 18-C , 19-C ) :   1.2414
B( 18-C , 21-H ) :   1.0008 B( 19-C , 20-C ) :   1.5829 B( 19-C , 22-C ) :   1.0347
B( 22-C , 23-H ) :   0.9321 B( 22-C , 24-H ) :   0.9371 B( 22-C , 25-C ) :   1.0717
B( 25-C , 26-H ) :   0.9568 B( 25-C , 27-H ) :   0.9445 B( 25-C , 28-C ) :   1.0744
B( 28-C , 29-H ) :   0.9712 B( 28-C , 30-H ) :   0.9739 B( 28-C , 31-H ) :   0.9730

Dispersion correction           -0.015320729
FINAL SINGLE POINT ENERGY     -1339.849509397467

DIPOLE MOMENT
-------------
                                X             Y             Z
Electronic contribution:     26.47518      -9.85501       8.34210
Nuclear contribution   :    -27.01245      10.25765      -8.46516
                        -----------------------------------------
Total Dipole Moment    :     -0.53728       0.40264      -0.12306
                        -----------------------------------------
Magnitude (a.u.)       :      0.68259
Magnitude (Debye)      :      1.73501

Rotational constants in cm-1:     0.018365     0.009813     0.007250
Rotational constants in MHz :   550.565038   294.183026   217.343348

                             ****ORCA TERMINATED NORMALLY****
TOTAL RUN TIME: 0 days 0 hours 0 minutes 37 seconds 393 msec
