                         Program Version 4.2.1 -  RELEASE  -
|  1> ! wB97X-D3 SP def2-SVP
|  2> %pal
|  3> nprocs 16
|  4> end
|  5>
|  6> * xyz 0 1
|  7> S 	 11.8042 	 -7.23272 	 63.56
|  8> C 	 10.8442 	 -6.02329 	 62.6773
|  9> C 	 10.9072 	 -4.79762 	 63.3584
| 10> C 	 11.5325 	 -4.91574 	 64.6515
| 11> C 	 11.9761 	 -6.16571 	 64.9955
| 12> H 	 11.6664 	 -4.10653 	 65.2837
| 13> C 	 10.502 	 -3.42038 	 62.8901
| 14> H 	 9.8062 	 -3.62057 	 62.1355
| 15> H 	 11.2977 	 -2.93811 	 62.4923
| 16> C 	 9.95696 	 -2.4917 	 64.0078
| 17> H 	 8.92372 	 -2.85386 	 64.1443
| 18> H 	 10.5189 	 -2.44469 	 64.9281
| 19> C 	 9.94797 	 -1.12147 	 63.3739
| 20> H 	 9.30689 	 -1.05446 	 62.4964
| 21> H 	 9.4693 	 -0.464992 	 64.1132
| 22> H 	 10.9893 	 -0.755624 	 63.2558
| 23> S 	 14.118 	 -7.5637 	 65.8958
| 24> C 	 14.4563 	 -7.6798 	 67.6346
| 25> C 	 13.4288 	 -7.05485 	 68.3121
| 26> C 	 12.425 	 -6.35347 	 67.5336
| 27> C 	 12.6703 	 -6.64827 	 66.1898
| 28> H 	 13.5138 	 -6.99036 	 69.4177
| 29> C 	 11.292 	 -5.44539 	 68.0487
| 30> H 	 10.5257 	 -5.31177 	 67.3202
| 31> H 	 11.5155 	 -4.39734 	 68.1123
| 32> C 	 10.5923 	 -5.9687 	 69.2675
| 33> H 	 9.82533 	 -5.23912 	 69.6666
| 34> H 	 11.3437 	 -6.20605 	 70.0259
| 35> C 	 9.73646 	 -7.22582 	 69.0271
| 36> H 	 9.27789 	 -7.66373 	 69.9661
| 37> H 	 10.259 	 -8.10333 	 68.5607
| 38> H 	 8.96791 	 -6.95806 	 68.2797
| 39> H 	 10.5176 	 -6.07487 	 61.6472
| 40> H 	 15.2814 	 -8.19245 	 68.0686
| 41> *
| 42>
| 43>                          ****END OF INPUT****

CARTESIAN COORDINATES (ANGSTROEM)
---------------------------------
  S     11.804200   -7.232720   63.560000
  C     10.844200   -6.023290   62.677300
  C     10.907200   -4.797620   63.358400
  C     11.532500   -4.915740   64.651500
  C     11.976100   -6.165710   64.995500
  H     11.666400   -4.106530   65.283700
  C     10.502000   -3.420380   62.890100
  H      9.806200   -3.620570   62.135500
  H     11.297700   -2.938110   62.492300
  C      9.956960   -2.491700   64.007800
  H      8.923720   -2.853860   64.144300
  H     10.518900   -2.444690   64.928100
  C      9.947970   -1.121470   63.373900
  H      9.306890   -1.054460   62.496400
  H      9.469300   -0.464992   64.113200
  H     10.989300   -0.755624   63.255800
  S     14.118000   -7.563700   65.895800
  C     14.456300   -7.679800   67.634600
  C     13.428800   -7.054850   68.312100
  C     12.425000   -6.353470   67.533600
  C     12.670300   -6.648270   66.189800
  H     13.513800   -6.990360   69.417700
  C     11.292000   -5.445390   68.048700
  H     10.525700   -5.311770   67.320200
  H     11.515500   -4.397340   68.112300
  C     10.592300   -5.968700   69.267500
  H      9.825330   -5.239120   69.666600
  H     11.343700   -6.206050   70.025900
  C      9.736460   -7.225820   69.027100
  H      9.277890   -7.663730   69.966100
  H     10.259000   -8.103330   68.560700
  H      8.967910   -6.958060   68.279700
  H     10.517600   -6.074870   61.647200
  H     15.281400   -8.192450   68.068600

 Total Charge           Charge          ....    0
 Multiplicity           Mult            ....    1
 Number of Electrons    NEL             ....  134
 Basis Dimension        Dim             ....  322

ORBITAL ENERGIES
----------------

  NO   OCC          E(Eh)            E(eV)
   0   2.0000     -88.967451     -2420.9274
   1   2.0000     -88.963248     -2420.8131
   2   2.0000     -10.332304      -281.1563
   3   2.0000     -10.330637      -281.1109
   4   2.0000     -10.319532      -280.8087
   5   2.0000     -10.316844      -280.7356
   6   2.0000     -10.312829      -280.6263
   7   2.0000     -10.302260      -280.3387
   8   2.0000     -10.300931      -280.3026
   9   2.0000     -10.292360      -280.0693
  10   2.0000     -10.289941      -280.0035
  11   2.0000     -10.288955      -279.9767
  12   2.0000     -10.287100      -279.9262
  13   2.0000     -10.281216      -279.7661
  14   2.0000     -10.280595      -279.7492
  15   2.0000     -10.280169      -279.7376
  16   2.0000      -8.081981      -219.9219
  17   2.0000      -8.076754      -219.7797
  18   2.0000      -6.040547      -164.3716
  19   2.0000      -6.036523      -164.2621
  20   2.0000      -6.035514      -164.2347
  21   2.0000      -6.032674      -164.1574
  22   2.0000      -6.031500      -164.1255
  23   2.0000      -6.027253      -164.0099
  24   2.0000      -1.003258       -27.3000
  25   2.0000      -0.977649       -26.6032
  26   2.0000      -0.919996       -25.0344
  27   2.0000      -0.913055       -24.8455
  28   2.0000      -0.870375       -23.6841
  29   2.0000      -0.848087       -23.0776
  30   2.0000      -0.839984       -22.8571
  31   2.0000      -0.816999       -22.2317
  32   2.0000      -0.784735       -21.3537
  33   2.0000      -0.771146       -20.9840
  34   2.0000      -0.711757       -19.3679
  35   2.0000      -0.696396       -18.9499
  36   2.0000      -0.693614       -18.8742
  37   2.0000      -0.652372       -17.7520
  38   2.0000      -0.641097       -17.4451
  39   2.0000      -0.628119       -17.0920
  40   2.0000      -0.611181       -16.6311
  41   2.0000      -0.585689       -15.9374
  42   2.0000      -0.562340       -15.3020
  43   2.0000      -0.550687       -14.9850
  44   2.0000      -0.541563       -14.7367
  45   2.0000      -0.525458       -14.2984
  46   2.0000      -0.519603       -14.1391
  47   2.0000      -0.509894       -13.8749
  48   2.0000      -0.503079       -13.6895
  49   2.0000      -0.499208       -13.5841
  50   2.0000      -0.492693       -13.4069
  51   2.0000      -0.476407       -12.9637
  52   2.0000      -0.470978       -12.8160
  53   2.0000      -0.465731       -12.6732
  54   2.0000      -0.459894       -12.5143
  55   2.0000      -0.446347       -12.1457
  56   2.0000      -0.442119       -12.0307
  57   2.0000      -0.438257       -11.9256
  58   2.0000      -0.435579       -11.8527
  59   2.0000      -0.427929       -11.6445
  60   2.0000      -0.417085       -11.3494
  61   2.0000      -0.413339       -11.2475
  62   2.0000      -0.408175       -11.1070
  63   2.0000      -0.352387        -9.5889
  64   2.0000      -0.332008        -9.0344
  65   2.0000      -0.324395        -8.8272
  66   2.0000      -0.290245        -7.8980
  67   0.0000       0.024664         0.6712
  68   0.0000       0.069815         1.8998
  69   0.0000       0.104766         2.8508
  70   0.0000       0.123267         3.3543
  71   0.0000       0.131896         3.5891

MULLIKEN ATOMIC CHARGES
-----------------------
   0 S :    0.084104
   1 C :   -0.109954
   2 C :   -0.116809
   3 C :    0.041482
   4 C :   -0.126787
   5 H :   -0.026647
   6 C :    0.144023
   7 H :    0.006002
   8 H :    0.009079
   9 C :   -0.115084
  10 H :    0.038810
  11 H :    0.043033
  12 C :   -0.052592
  13 H :    0.036510
  14 H :    0.025029
  15 H :    0.044406
  16 S :    0.104126
  17 C :   -0.086719
  18 C :   -0.051093
  19 C :   -0.028761
  20 C :   -0.145404
  21 H :    0.032591
  22 C :    0.110858
  23 H :    0.001312
  24 H :    0.031028
  25 C :   -0.089959
  26 H :    0.041173
  27 H :    0.031105
  28 C :   -0.097457
  29 H :    0.045816
  30 H :    0.044380
  31 H :    0.032369
  32 H :    0.047501
  33 H :    0.052528
Sum of atomic charges:    0.0000000

LOEWDIN ATOMIC CHARGES
----------------------
   0 S :    0.369306
   1 C :   -0.197213
   2 C :   -0.054961
   3 C :   -0.061945
   4 C :   -0.169388
   5 H :    0.014452
   6 C :   -0.018738
   7 H :    0.026001
   8 H :    0.017952
   9 C :   -0.035732
  10 H :    0.030174
  11 H :    0.022502
  12 C :   -0.065994
  13 H :    0.026520
  14 H :    0.025036
  15 H :    0.029768
  16 S :    0.402276
  17 C :   -0.178848
  18 C :   -0.069933
  19 C :   -0.051875
  20 C :   -0.193416
  21 H :    0.033989
  22 C :   -0.035442
  23 H :    0.029392
  24 H :    0.033432
  25 C :   -0.046593
  26 H :    0.035106
  27 H :    0.019655
  28 C :   -0.078712
  29 H :    0.031997
  30 H :    0.028668
  31 H :    0.025439
  32 H :    0.029435
  33 H :    0.027688

  Mayer bond orders larger than 0.100000
B(  0-S ,  1-C ) :   1.1184 B(  0-S ,  4-C ) :   1.1313 B(  1-C ,  2-C ) :   1.6265
B(  1-C , 32-H ) :   0.9664 B(  2-C ,  3-C ) :   1.2320 B(  2-C ,  6-C ) :   1.0111
B(  3-C ,  4-C ) :   1.5801 B(  3-C ,  5-H ) :   1.0029 B(  4-C , 20-C ) :   1.0420
B(  6-C ,  7-H ) :   0.9311 B(  6-C ,  8-H ) :   0.9342 B(  6-C ,  9-C ) :   1.0647
B(  9-C , 10-H ) :   0.9554 B(  9-C , 11-H ) :   0.9537 B(  9-C , 12-C ) :   1.0975
B( 12-C , 13-H ) :   0.9705 B( 12-C , 14-H ) :   0.9707 B( 12-C , 15-H ) :   0.9733
B( 16-S , 17-C ) :   1.1267 B( 16-S , 20-C ) :   1.1604 B( 17-C , 18-C ) :   1.6311
B( 17-C , 33-H ) :   0.9750 B( 18-C , 19-C ) :   1.2220 B( 18-C , 21-H ) :   0.9758
B( 19-C , 20-C ) :   1.5869 B( 19-C , 22-C ) :   1.0312 B( 22-C , 23-H ) :   0.9222
B( 22-C , 24-H ) :   0.9275 B( 22-C , 25-C ) :   1.0730 B( 25-C , 26-H ) :   0.9518
B( 25-C , 27-H ) :   0.9560 B( 25-C , 28-C ) :   1.0731 B( 28-C , 29-H ) :   0.9747
B( 28-C , 30-H ) :   0.9747 B( 28-C , 31-H ) :   0.9727

Dispersion correction           -0.013923898
FINAL SINGLE POINT ENERGY     -1339.863461470293

DIPOLE MOMENT
-------------
                                X             Y             Z
Electronic contribution:     17.76608     -19.78376      -8.62946
Nuclear contribution   :    -17.97057      20.52697       8.86192
                        -----------------------------------------
Total Dipole Moment    :     -0.20449       0.74321       0.23246
                        -----------------------------------------
Magnitude (a.u.)       :      0.80512
Magnitude (Debye)      :      2.04645

Rotational constants in cm-1:     0.017714     0.008742     0.006893
Rotational constants in MHz :   531.060568   262.080229   206.633636

                             ****ORCA TERMINATED NORMALLY****
TOTAL RUN TIME: 0 days 0 hours 0 minutes 33 seconds 373 msec
