                         Program Version 4.2.1 -  RELEASE  -
|  1> ! wB97X-D3 SP def2-SVP
|  2> %pal
|  3> nprocs 16
|  4> end
|  5>
|  6> * xyz 0 1
|  7> S 	 9.22612 	 -9.87472 	 102.742
|  8> C 	 9.40433 	 -9.83966 	 104.507
|  9> C 	 8.52432 	 -10.6482 	 105.187
| 10> C 	 7.74736 	 -11.3887 	 104.258
| 11> C 	 7.94067 	 -11.1076 	 102.895
| 12> H 	 6.90635 	 -11.9964 	 104.611
| 13> C 	 8.27832 	 -10.808 	 106.638
| 14> H 	 7.21287 	 -10.8566 	 106.711
| 15> H 	 8.60731 	 -9.92096 	 107.176
| 16> C 	 8.81627 	 -12.1557 	 107.22
| 17> H 	 8.39065 	 -12.1909 	 108.186
| 18> H 	 8.44582 	 -12.9499 	 106.566
| 19> C 	 10.3182 	 -12.1437 	 107.315
| 20> H 	 10.6323 	 -11.9143 	 108.348
| 21> H 	 10.7499 	 -13.1 	 107.236
| 22> H 	 10.8174 	 -11.3651 	 106.734
| 23> S 	 6.85851 	 -10.388 	 100.497
| 24> C 	 6.12452 	 -11.5865 	 99.5276
| 25> C 	 5.82703 	 -12.7922 	 100.153
| 26> C 	 6.39289 	 -12.7832 	 101.448
| 27> C 	 7.13459 	 -11.6249 	 101.757
| 28> H 	 5.33144 	 -13.5428 	 99.5712
| 29> C 	 6.17335 	 -13.911 	 102.341
| 30> H 	 5.50228 	 -14.6658 	 101.865
| 31> H 	 5.62927 	 -13.6095 	 103.24
| 32> C 	 7.53534 	 -14.6761 	 102.578
| 33> H 	 8.32904 	 -14.0622 	 103.029
| 34> H 	 7.98086 	 -14.8941 	 101.622
| 35> C 	 7.35506 	 -15.9574 	 103.432
| 36> H 	 6.80714 	 -16.7465 	 102.865
| 37> H 	 6.8674 	 -15.8067 	 104.391
| 38> H 	 8.30207 	 -16.3678 	 103.67
| 39> H 	 10.0253 	 -9.08355 	 104.933
| 40> H 	 5.63646 	 -11.5019 	 98.5654
| 41> *
| 42>
| 43>                          ****END OF INPUT****

CARTESIAN COORDINATES (ANGSTROEM)
---------------------------------
  S      9.226120   -9.874720  102.742000
  C      9.404330   -9.839660  104.507000
  C      8.524320  -10.648200  105.187000
  C      7.747360  -11.388700  104.258000
  C      7.940670  -11.107600  102.895000
  H      6.906350  -11.996400  104.611000
  C      8.278320  -10.808000  106.638000
  H      7.212870  -10.856600  106.711000
  H      8.607310   -9.920960  107.176000
  C      8.816270  -12.155700  107.220000
  H      8.390650  -12.190900  108.186000
  H      8.445820  -12.949900  106.566000
  C     10.318200  -12.143700  107.315000
  H     10.632300  -11.914300  108.348000
  H     10.749900  -13.100000  107.236000
  H     10.817400  -11.365100  106.734000
  S      6.858510  -10.388000  100.497000
  C      6.124520  -11.586500   99.527600
  C      5.827030  -12.792200  100.153000
  C      6.392890  -12.783200  101.448000
  C      7.134590  -11.624900  101.757000
  H      5.331440  -13.542800   99.571200
  C      6.173350  -13.911000  102.341000
  H      5.502280  -14.665800  101.865000
  H      5.629270  -13.609500  103.240000
  C      7.535340  -14.676100  102.578000
  H      8.329040  -14.062200  103.029000
  H      7.980860  -14.894100  101.622000
  C      7.355060  -15.957400  103.432000
  H      6.807140  -16.746500  102.865000
  H      6.867400  -15.806700  104.391000
  H      8.302070  -16.367800  103.670000
  H     10.025300   -9.083550  104.933000
  H      5.636460  -11.501900   98.565400

 Total Charge           Charge          ....    0
 Multiplicity           Mult            ....    1
 Number of Electrons    NEL             ....  134
 Basis Dimension        Dim             ....  322

ORBITAL ENERGIES
----------------

  NO   OCC          E(Eh)            E(eV)
   0   2.0000     -88.968510     -2420.9562
   1   2.0000     -88.967770     -2420.9361
   2   2.0000     -10.338155      -281.3155
   3   2.0000     -10.331510      -281.1347
   4   2.0000     -10.313002      -280.6311
   5   2.0000     -10.311163      -280.5810
   6   2.0000     -10.303359      -280.3687
   7   2.0000     -10.297791      -280.2171
   8   2.0000     -10.292978      -280.0862
   9   2.0000     -10.291472      -280.0452
  10   2.0000     -10.290440      -280.0171
  11   2.0000     -10.290305      -280.0134
  12   2.0000     -10.286035      -279.8973
  13   2.0000     -10.285974      -279.8956
  14   2.0000     -10.275379      -279.6073
  15   2.0000     -10.270368      -279.4709
  16   2.0000      -8.083213      -219.9554
  17   2.0000      -8.081378      -219.9055
  18   2.0000      -6.041569      -164.3994
  19   2.0000      -6.040037      -164.3578
  20   2.0000      -6.037862      -164.2986
  21   2.0000      -6.036104      -164.2507
  22   2.0000      -6.033994      -164.1933
  23   2.0000      -6.031998      -164.1390
  24   2.0000      -1.002829       -27.2884
  25   2.0000      -0.982812       -26.7437
  26   2.0000      -0.916779       -24.9468
  27   2.0000      -0.907664       -24.6988
  28   2.0000      -0.866494       -23.5785
  29   2.0000      -0.850457       -23.1421
  30   2.0000      -0.847767       -23.0689
  31   2.0000      -0.811643       -22.0859
  32   2.0000      -0.785144       -21.3649
  33   2.0000      -0.770414       -20.9640
  34   2.0000      -0.711074       -19.3493
  35   2.0000      -0.703966       -19.1559
  36   2.0000      -0.691681       -18.8216
  37   2.0000      -0.662024       -18.0146
  38   2.0000      -0.636429       -17.3181
  39   2.0000      -0.626205       -17.0399
  40   2.0000      -0.593616       -16.1531
  41   2.0000      -0.573769       -15.6131
  42   2.0000      -0.560047       -15.2397
  43   2.0000      -0.550342       -14.9756
  44   2.0000      -0.540388       -14.7047
  45   2.0000      -0.523695       -14.2505
  46   2.0000      -0.521785       -14.1985
  47   2.0000      -0.500793       -13.6273
  48   2.0000      -0.497631       -13.5412
  49   2.0000      -0.497034       -13.5250
  50   2.0000      -0.488938       -13.3047
  51   2.0000      -0.484928       -13.1956
  52   2.0000      -0.471013       -12.8169
  53   2.0000      -0.468744       -12.7552
  54   2.0000      -0.455681       -12.3997
  55   2.0000      -0.447963       -12.1897
  56   2.0000      -0.442932       -12.0528
  57   2.0000      -0.439879       -11.9697
  58   2.0000      -0.433815       -11.8047
  59   2.0000      -0.426824       -11.6145
  60   2.0000      -0.424228       -11.5438
  61   2.0000      -0.418308       -11.3827
  62   2.0000      -0.410815       -11.1788
  63   2.0000      -0.350135        -9.5276
  64   2.0000      -0.332255        -9.0411
  65   2.0000      -0.330162        -8.9842
  66   2.0000      -0.280026        -7.6199
  67   0.0000       0.020096         0.5468
  68   0.0000       0.073591         2.0025
  69   0.0000       0.098148         2.6708
  70   0.0000       0.121174         3.2973
  71   0.0000       0.125872         3.4251

MULLIKEN ATOMIC CHARGES
-----------------------
   0 S :    0.097811
   1 C :   -0.131764
   2 C :   -0.064400
   3 C :   -0.010917
   4 C :   -0.110451
   5 H :    0.011398
   6 C :    0.055071
   7 H :    0.020275
   8 H :    0.022918
   9 C :   -0.041094
  10 H :    0.027961
  11 H :    0.032873
  12 C :   -0.025920
  13 H :    0.012434
  14 H :    0.022604
  15 H :    0.036384
  16 S :    0.111344
  17 C :   -0.065322
  18 C :   -0.061403
  19 C :   -0.024400
  20 C :   -0.145279
  21 H :    0.018399
  22 C :    0.042455
  23 H :    0.017158
  24 H :    0.040323
  25 C :   -0.093817
  26 H :    0.044004
  27 H :    0.024223
  28 C :   -0.026731
  29 H :    0.031907
  30 H :    0.026767
  31 H :    0.020613
  32 H :    0.039770
  33 H :    0.044806
Sum of atomic charges:   -0.0000000

LOEWDIN ATOMIC CHARGES
----------------------
   0 S :    0.376685
   1 C :   -0.186670
   2 C :   -0.063075
   3 C :   -0.068017
   4 C :   -0.183966
   5 H :    0.028994
   6 C :   -0.026458
   7 H :    0.030238
   8 H :    0.029244
   9 C :   -0.028232
  10 H :    0.021718
  11 H :    0.025724
  12 C :   -0.068656
  13 H :    0.028789
  14 H :    0.021821
  15 H :    0.027325
  16 S :    0.415126
  17 C :   -0.195701
  18 C :   -0.072698
  19 C :   -0.053445
  20 C :   -0.185933
  21 H :    0.033797
  22 C :   -0.036076
  23 H :    0.033091
  24 H :    0.029605
  25 C :   -0.035395
  26 H :    0.026634
  27 H :    0.024468
  28 C :   -0.066925
  29 H :    0.026956
  30 H :    0.023091
  31 H :    0.020510
  32 H :    0.018969
  33 H :    0.028461

  Mayer bond orders larger than 0.100000
B(  0-S ,  1-C ) :   1.1251 B(  0-S ,  4-C ) :   1.1388 B(  1-C ,  2-C ) :   1.6057
B(  1-C , 32-H ) :   0.9672 B(  2-C ,  3-C ) :   1.2527 B(  2-C ,  6-C ) :   1.0300
B(  3-C ,  4-C ) :   1.5588 B(  3-C ,  5-H ) :   0.9817 B(  4-C , 20-C ) :   1.0685
B(  6-C ,  7-H ) :   0.9309 B(  6-C ,  8-H ) :   0.9415 B(  6-C ,  9-C ) :   1.0761
B(  9-C , 10-H ) :   0.9583 B(  9-C , 11-H ) :   0.9584 B(  9-C , 12-C ) :   1.0689
B( 12-C , 13-H ) :   0.9705 B( 12-C , 14-H ) :   0.9726 B( 12-C , 15-H ) :   0.9795
B( 16-S , 17-C ) :   1.1739 B( 16-S , 20-C ) :   1.1311 B( 17-C , 18-C ) :   1.6105
B( 17-C , 33-H ) :   0.9567 B( 18-C , 19-C ) :   1.2518 B( 18-C , 21-H ) :   0.9949
B( 19-C , 20-C ) :   1.5561 B( 19-C , 22-C ) :   1.0632 B( 22-C , 23-H ) :   0.9359
B( 22-C , 24-H ) :   0.9300 B( 22-C , 25-C ) :   1.0453 B( 25-C , 26-H ) :   0.9597
B( 25-C , 27-H ) :   0.9526 B( 25-C , 28-C ) :   1.0848 B( 28-C , 29-H ) :   0.9749
B( 28-C , 30-H ) :   0.9743 B( 28-C , 31-H ) :   0.9731

Dispersion correction           -0.014602076
FINAL SINGLE POINT ENERGY     -1339.868335722008

DIPOLE MOMENT
-------------
                                X             Y             Z
Electronic contribution:     -2.11224      21.15690     -21.71825
Nuclear contribution   :      1.79974     -21.56588      22.21028
                        -----------------------------------------
Total Dipole Moment    :     -0.31250      -0.40897       0.49203
                        -----------------------------------------
Magnitude (a.u.)       :      0.71205
Magnitude (Debye)      :      1.80988

Rotational constants in cm-1:     0.018587     0.009604     0.006865
Rotational constants in MHz :   557.236578   287.919252   205.803446

                             ****ORCA TERMINATED NORMALLY****
TOTAL RUN TIME: 0 days 0 hours 0 minutes 35 seconds 844 msec
