                         Program Version 4.2.1 -  RELEASE  -
|  1> ! wB97X-D3 SP def2-SVP
|  2> %pal
|  3> nprocs 16
|  4> end
|  5>
|  6> * xyz 0 1
|  7> S 	 -31.2298 	 66.1056 	 116.342
|  8> C 	 -32.6881 	 65.0979 	 116.263
|  9> C 	 -32.651 	 64.4769 	 115.043
| 10> C 	 -31.4368 	 64.6209 	 114.237
| 11> C 	 -30.5305 	 65.4752 	 114.814
| 12> H 	 -31.0874 	 64.1271 	 113.301
| 13> C 	 -33.6796 	 63.4642 	 114.556
| 14> H 	 -33.5528 	 63.3547 	 113.485
| 15> H 	 -34.6373 	 63.9379 	 114.766
| 16> C 	 -33.5851 	 62.0781 	 115.288
| 17> H 	 -34.0413 	 61.2115 	 114.769
| 18> H 	 -32.5936 	 61.8152 	 115.37
| 19> C 	 -34.2461 	 62.1443 	 116.72
| 20> H 	 -34.0939 	 61.2474 	 117.281
| 21> H 	 -33.701 	 62.8571 	 117.356
| 22> H 	 -35.3243 	 62.3782 	 116.769
| 23> S 	 -27.7201 	 65.4857 	 115.275
| 24> C 	 -26.7492 	 65.7941 	 113.812
| 25> C 	 -27.4749 	 66.5654 	 112.962
| 26> C 	 -28.8902 	 66.6612 	 113.234
| 27> C 	 -29.1991 	 65.8481 	 114.319
| 28> H 	 -27.0248 	 66.9957 	 112.118
| 29> C 	 -29.889 	 67.3274 	 112.373
| 30> H 	 -30.4813 	 68.0527 	 112.992
| 31> H 	 -30.6283 	 66.4551 	 112.121
| 32> C 	 -29.2896 	 68.2093 	 111.148
| 33> H 	 -28.7608 	 67.4377 	 110.489
| 34> H 	 -28.4516 	 68.8536 	 111.599
| 35> C 	 -30.262 	 68.9683 	 110.258
| 36> H 	 -30.7466 	 69.7536 	 110.815
| 37> H 	 -31.0293 	 68.3218 	 109.741
| 38> H 	 -29.7693 	 69.5208 	 109.496
| 39> H 	 -33.5447 	 65.0183 	 116.919
| 40> H 	 -25.6553 	 65.7934 	 113.798
| 41> *
| 42>
| 43>                          ****END OF INPUT****

CARTESIAN COORDINATES (ANGSTROEM)
---------------------------------
  S    -31.229800   66.105600  116.342000
  C    -32.688100   65.097900  116.263000
  C    -32.651000   64.476900  115.043000
  C    -31.436800   64.620900  114.237000
  C    -30.530500   65.475200  114.814000
  H    -31.087400   64.127100  113.301000
  C    -33.679600   63.464200  114.556000
  H    -33.552800   63.354700  113.485000
  H    -34.637300   63.937900  114.766000
  C    -33.585100   62.078100  115.288000
  H    -34.041300   61.211500  114.769000
  H    -32.593600   61.815200  115.370000
  C    -34.246100   62.144300  116.720000
  H    -34.093900   61.247400  117.281000
  H    -33.701000   62.857100  117.356000
  H    -35.324300   62.378200  116.769000
  S    -27.720100   65.485700  115.275000
  C    -26.749200   65.794100  113.812000
  C    -27.474900   66.565400  112.962000
  C    -28.890200   66.661200  113.234000
  C    -29.199100   65.848100  114.319000
  H    -27.024800   66.995700  112.118000
  C    -29.889000   67.327400  112.373000
  H    -30.481300   68.052700  112.992000
  H    -30.628300   66.455100  112.121000
  C    -29.289600   68.209300  111.148000
  H    -28.760800   67.437700  110.489000
  H    -28.451600   68.853600  111.599000
  C    -30.262000   68.968300  110.258000
  H    -30.746600   69.753600  110.815000
  H    -31.029300   68.321800  109.741000
  H    -29.769300   69.520800  109.496000
  H    -33.544700   65.018300  116.919000
  H    -25.655300   65.793400  113.798000

 Total Charge           Charge          ....    0
 Multiplicity           Mult            ....    1
 Number of Electrons    NEL             ....  134
 Basis Dimension        Dim             ....  322

ORBITAL ENERGIES
----------------

  NO   OCC          E(Eh)            E(eV)
   0   2.0000     -88.962921     -2420.8041
   1   2.0000     -88.961686     -2420.7705
   2   2.0000     -10.332987      -281.1749
   3   2.0000     -10.329422      -281.0779
   4   2.0000     -10.319544      -280.8091
   5   2.0000     -10.316817      -280.7349
   6   2.0000     -10.309549      -280.5371
   7   2.0000     -10.308421      -280.5064
   8   2.0000     -10.307575      -280.4834
   9   2.0000     -10.302668      -280.3498
  10   2.0000     -10.299834      -280.2727
  11   2.0000     -10.291667      -280.0505
  12   2.0000     -10.290213      -280.0109
  13   2.0000     -10.287107      -279.9264
  14   2.0000     -10.283643      -279.8322
  15   2.0000     -10.278471      -279.6914
  16   2.0000      -8.076732      -219.7791
  17   2.0000      -8.075385      -219.7424
  18   2.0000      -6.035435      -164.2325
  19   2.0000      -6.034202      -164.1990
  20   2.0000      -6.031823      -164.1343
  21   2.0000      -6.029925      -164.0826
  22   2.0000      -6.026874      -163.9996
  23   2.0000      -6.025944      -163.9743
  24   2.0000      -1.000444       -27.2235
  25   2.0000      -0.979756       -26.6605
  26   2.0000      -0.903303       -24.5801
  27   2.0000      -0.900517       -24.5043
  28   2.0000      -0.868464       -23.6321
  29   2.0000      -0.850903       -23.1542
  30   2.0000      -0.837544       -22.7907
  31   2.0000      -0.817799       -22.2534
  32   2.0000      -0.778341       -21.1797
  33   2.0000      -0.770362       -20.9626
  34   2.0000      -0.708744       -19.2859
  35   2.0000      -0.702507       -19.1162
  36   2.0000      -0.701443       -19.0872
  37   2.0000      -0.648629       -17.6501
  38   2.0000      -0.641496       -17.4560
  39   2.0000      -0.608676       -16.5629
  40   2.0000      -0.593231       -16.1426
  41   2.0000      -0.566936       -15.4271
  42   2.0000      -0.561307       -15.2740
  43   2.0000      -0.542439       -14.7605
  44   2.0000      -0.532711       -14.4958
  45   2.0000      -0.525093       -14.2885
  46   2.0000      -0.523093       -14.2341
  47   2.0000      -0.516664       -14.0591
  48   2.0000      -0.502852       -13.6833
  49   2.0000      -0.497797       -13.5458
  50   2.0000      -0.486165       -13.2292
  51   2.0000      -0.476840       -12.9755
  52   2.0000      -0.472097       -12.8464
  53   2.0000      -0.469013       -12.7625
  54   2.0000      -0.458192       -12.4680
  55   2.0000      -0.454878       -12.3779
  56   2.0000      -0.438188       -11.9237
  57   2.0000      -0.433125       -11.7859
  58   2.0000      -0.430780       -11.7221
  59   2.0000      -0.426886       -11.6162
  60   2.0000      -0.424079       -11.5398
  61   2.0000      -0.409784       -11.1508
  62   2.0000      -0.403528       -10.9806
  63   2.0000      -0.340855        -9.2751
  64   2.0000      -0.325977        -8.8703
  65   2.0000      -0.322361        -8.7719
  66   2.0000      -0.301164        -8.1951
  67   0.0000       0.025958         0.7064
  68   0.0000       0.054299         1.4775
  69   0.0000       0.101934         2.7738
  70   0.0000       0.120654         3.2832
  71   0.0000       0.134009         3.6466

MULLIKEN ATOMIC CHARGES
-----------------------
   0 S :    0.089556
   1 C :   -0.106231
   2 C :   -0.117727
   3 C :    0.022542
   4 C :   -0.165358
   5 H :    0.038073
   6 C :    0.065262
   7 H :    0.023324
   8 H :    0.025599
   9 C :   -0.016756
  10 H :    0.034607
  11 H :    0.013127
  12 C :   -0.088804
  13 H :    0.024459
  14 H :    0.024947
  15 H :    0.041205
  16 S :    0.093649
  17 C :   -0.065846
  18 C :   -0.038993
  19 C :   -0.013274
  20 C :   -0.189385
  21 H :    0.002320
  22 C :    0.041416
  23 H :    0.046854
  24 H :    0.055735
  25 C :   -0.156816
  26 H :    0.043423
  27 H :    0.054976
  28 C :    0.001182
  29 H :    0.025789
  30 H :    0.046090
  31 H :    0.024933
  32 H :    0.057238
  33 H :    0.062882
Sum of atomic charges:    0.0000000

LOEWDIN ATOMIC CHARGES
----------------------
   0 S :    0.368562
   1 C :   -0.192891
   2 C :   -0.063072
   3 C :   -0.072503
   4 C :   -0.175195
   5 H :    0.043169
   6 C :   -0.029921
   7 H :    0.027526
   8 H :    0.027852
   9 C :   -0.027342
  10 H :    0.027708
  11 H :    0.014740
  12 C :   -0.073554
  13 H :    0.023060
  14 H :    0.023733
  15 H :    0.026378
  16 S :    0.365809
  17 C :   -0.170052
  18 C :   -0.066983
  19 C :   -0.048111
  20 C :   -0.189802
  21 H :    0.020778
  22 C :   -0.048469
  23 H :    0.039500
  24 H :    0.050874
  25 C :   -0.052328
  26 H :    0.027848
  27 H :    0.034786
  28 C :   -0.067825
  29 H :    0.024188
  30 H :    0.036503
  31 H :    0.025497
  32 H :    0.035439
  33 H :    0.034099

  Mayer bond orders larger than 0.100000
B(  0-S ,  1-C ) :   1.1050 B(  0-S ,  4-C ) :   1.1282 B(  1-C ,  2-C ) :   1.6500
B(  1-C , 32-H ) :   0.9630 B(  2-C ,  3-C ) :   1.1894 B(  2-C ,  6-C ) :   1.0305
B(  3-C ,  4-C ) :   1.6361 B(  3-C ,  5-H ) :   0.9798 B(  4-C , 20-C ) :   1.0547
B(  6-C ,  7-H ) :   0.9443 B(  6-C ,  8-H ) :   0.9453 B(  6-C ,  9-C ) :   1.0495
B(  9-C , 10-H ) :   0.9611 B(  9-C , 11-H ) :   0.9555 B(  9-C , 12-C ) :   1.0754
B( 12-C , 13-H ) :   0.9711 B( 12-C , 14-H ) :   0.9699 B( 12-C , 15-H ) :   0.9789
B( 16-S , 17-C ) :   1.1256 B( 16-S , 20-C ) :   1.1195 B( 17-C , 18-C ) :   1.6384
B( 17-C , 33-H ) :   0.9598 B( 18-C , 19-C ) :   1.2162 B( 18-C , 21-H ) :   0.9907
B( 19-C , 20-C ) :   1.5882 B( 19-C , 22-C ) :   1.0470 B( 22-C , 23-H ) :   0.9216
B( 22-C , 24-H ) :   0.9267 B( 22-C , 25-C ) :   1.0525 B( 25-C , 26-H ) :   0.9515
B( 25-C , 27-H ) :   0.9523 B( 25-C , 28-C ) :   1.0851 B( 28-C , 29-H ) :   0.9708
B( 28-C , 30-H ) :   0.9723 B( 28-C , 31-H ) :   0.9690

Dispersion correction           -0.013984708
FINAL SINGLE POINT ENERGY     -1339.849268208255

DIPOLE MOMENT
-------------
                                X             Y             Z
Electronic contribution:     15.44682       2.74923      14.10208
Nuclear contribution   :    -15.62833      -2.70037     -14.78531
                        -----------------------------------------
Total Dipole Moment    :     -0.18152       0.04886      -0.68324
                        -----------------------------------------
Magnitude (a.u.)       :      0.70862
Magnitude (Debye)      :      1.80118

Rotational constants in cm-1:     0.020071     0.007372     0.006195
Rotational constants in MHz :   601.717324   221.006294   185.715980

                             ****ORCA TERMINATED NORMALLY****
TOTAL RUN TIME: 0 days 0 hours 0 minutes 26 seconds 898 msec
