                         Program Version 4.2.1 -  RELEASE  -
|  1> ! wB97X-D3 SP def2-SVP
|  2> %pal
|  3> nprocs 16
|  4> end
|  5>
|  6> * xyz 0 1
|  7> S 	 -48.8918 	 62.6717 	 136.039
|  8> C 	 -48.4133 	 61.6439 	 137.346
|  9> C 	 -48.8369 	 62.1195 	 138.603
| 10> C 	 -49.6498 	 63.2582 	 138.412
| 11> C 	 -49.7703 	 63.6886 	 137.111
| 12> H 	 -50.1528 	 63.9856 	 139.165
| 13> C 	 -48.3279 	 61.6887 	 139.904
| 14> H 	 -48.5157 	 60.5642 	 139.991
| 15> H 	 -49.0357 	 62.1587 	 140.637
| 16> C 	 -46.9335 	 62.0968 	 140.326
| 17> H 	 -46.1182 	 61.4656 	 139.948
| 18> H 	 -46.8047 	 63.1129 	 139.865
| 19> C 	 -46.6581 	 62.3275 	 141.83
| 20> H 	 -47.503 	 62.8248 	 142.22
| 21> H 	 -46.4889 	 61.3782 	 142.412
| 22> H 	 -45.7616 	 62.8771 	 141.983
| 23> S 	 -49.3869 	 66.0723 	 135.861
| 24> C 	 -50.523 	 67.3246 	 136.136
| 25> C 	 -51.6321 	 66.8671 	 136.848
| 26> C 	 -51.5883 	 65.4655 	 137.018
| 27> C 	 -50.3706 	 64.8844 	 136.649
| 28> H 	 -52.2692 	 67.6646 	 137.21
| 29> C 	 -52.7395 	 64.7685 	 137.61
| 30> H 	 -52.7712 	 63.6875 	 137.394
| 31> H 	 -53.5324 	 65.1981 	 136.988
| 32> C 	 -52.9663 	 65.1002 	 139.102
| 33> H 	 -52.8478 	 66.1983 	 139.007
| 34> H 	 -52.1301 	 64.6751 	 139.743
| 35> C 	 -54.37 	 64.8112 	 139.565
| 36> H 	 -54.657 	 65.188 	 140.516
| 37> H 	 -54.6256 	 63.8152 	 139.608
| 38> H 	 -55.0928 	 65.3469 	 138.937
| 39> H 	 -47.6306 	 60.8966 	 137.19
| 40> H 	 -50.3541 	 68.3739 	 135.935
| 41> *
| 42>
| 43>                          ****END OF INPUT****

CARTESIAN COORDINATES (ANGSTROEM)
---------------------------------
  S    -48.891800   62.671700  136.039000
  C    -48.413300   61.643900  137.346000
  C    -48.836900   62.119500  138.603000
  C    -49.649800   63.258200  138.412000
  C    -49.770300   63.688600  137.111000
  H    -50.152800   63.985600  139.165000
  C    -48.327900   61.688700  139.904000
  H    -48.515700   60.564200  139.991000
  H    -49.035700   62.158700  140.637000
  C    -46.933500   62.096800  140.326000
  H    -46.118200   61.465600  139.948000
  H    -46.804700   63.112900  139.865000
  C    -46.658100   62.327500  141.830000
  H    -47.503000   62.824800  142.220000
  H    -46.488900   61.378200  142.412000
  H    -45.761600   62.877100  141.983000
  S    -49.386900   66.072300  135.861000
  C    -50.523000   67.324600  136.136000
  C    -51.632100   66.867100  136.848000
  C    -51.588300   65.465500  137.018000
  C    -50.370600   64.884400  136.649000
  H    -52.269200   67.664600  137.210000
  C    -52.739500   64.768500  137.610000
  H    -52.771200   63.687500  137.394000
  H    -53.532400   65.198100  136.988000
  C    -52.966300   65.100200  139.102000
  H    -52.847800   66.198300  139.007000
  H    -52.130100   64.675100  139.743000
  C    -54.370000   64.811200  139.565000
  H    -54.657000   65.188000  140.516000
  H    -54.625600   63.815200  139.608000
  H    -55.092800   65.346900  138.937000
  H    -47.630600   60.896600  137.190000
  H    -50.354100   68.373900  135.935000

 Total Charge           Charge          ....    0
 Multiplicity           Mult            ....    1
 Number of Electrons    NEL             ....  134
 Basis Dimension        Dim             ....  322

ORBITAL ENERGIES
----------------

  NO   OCC          E(Eh)            E(eV)
   0   2.0000     -88.965565     -2420.8761
   1   2.0000     -88.963893     -2420.8306
   2   2.0000     -10.320832      -280.8441
   3   2.0000     -10.318797      -280.7887
   4   2.0000     -10.315453      -280.6977
   5   2.0000     -10.313837      -280.6538
   6   2.0000     -10.301814      -280.3266
   7   2.0000     -10.300404      -280.2882
   8   2.0000     -10.297682      -280.2142
   9   2.0000     -10.296375      -280.1786
  10   2.0000     -10.294115      -280.1171
  11   2.0000     -10.293378      -280.0971
  12   2.0000     -10.289836      -280.0007
  13   2.0000     -10.285731      -279.8890
  14   2.0000     -10.276772      -279.6452
  15   2.0000     -10.269321      -279.4424
  16   2.0000      -8.081316      -219.9038
  17   2.0000      -8.079777      -219.8619
  18   2.0000      -6.039524      -164.3438
  19   2.0000      -6.038153      -164.3065
  20   2.0000      -6.035629      -164.2378
  21   2.0000      -6.033965      -164.1925
  22   2.0000      -6.032402      -164.1500
  23   2.0000      -6.030760      -164.1053
  24   2.0000      -1.015875       -27.6434
  25   2.0000      -0.990807       -26.9612
  26   2.0000      -0.917861       -24.9763
  27   2.0000      -0.915446       -24.9105
  28   2.0000      -0.873298       -23.7637
  29   2.0000      -0.857784       -23.3415
  30   2.0000      -0.851992       -23.1839
  31   2.0000      -0.815216       -22.1832
  32   2.0000      -0.786224       -21.3942
  33   2.0000      -0.771417       -20.9913
  34   2.0000      -0.707974       -19.2650
  35   2.0000      -0.702303       -19.1106
  36   2.0000      -0.695880       -18.9359
  37   2.0000      -0.663306       -18.0495
  38   2.0000      -0.640529       -17.4297
  39   2.0000      -0.614881       -16.7318
  40   2.0000      -0.597196       -16.2505
  41   2.0000      -0.573051       -15.5935
  42   2.0000      -0.567951       -15.4547
  43   2.0000      -0.560927       -15.2636
  44   2.0000      -0.528712       -14.3870
  45   2.0000      -0.524560       -14.2740
  46   2.0000      -0.518160       -14.0998
  47   2.0000      -0.514840       -14.0095
  48   2.0000      -0.511076       -13.9071
  49   2.0000      -0.500250       -13.6125
  50   2.0000      -0.496950       -13.5227
  51   2.0000      -0.480632       -13.0786
  52   2.0000      -0.470498       -12.8029
  53   2.0000      -0.462531       -12.5861
  54   2.0000      -0.460737       -12.5373
  55   2.0000      -0.456073       -12.4104
  56   2.0000      -0.449310       -12.2263
  57   2.0000      -0.440260       -11.9801
  58   2.0000      -0.430742       -11.7211
  59   2.0000      -0.423237       -11.5169
  60   2.0000      -0.416398       -11.3308
  61   2.0000      -0.412701       -11.2302
  62   2.0000      -0.410034       -11.1576
  63   2.0000      -0.345555        -9.4030
  64   2.0000      -0.332708        -9.0534
  65   2.0000      -0.327995        -8.9252
  66   2.0000      -0.287754        -7.8302
  67   0.0000       0.029118         0.7924
  68   0.0000       0.067411         1.8343
  69   0.0000       0.117146         3.1877
  70   0.0000       0.118859         3.2343
  71   0.0000       0.127906         3.4805

MULLIKEN ATOMIC CHARGES
-----------------------
   0 S :    0.117503
   1 C :   -0.118478
   2 C :   -0.095475
   3 C :    0.006730
   4 C :   -0.187222
   5 H :    0.037867
   6 C :    0.057625
   7 H :    0.045617
   8 H :    0.017843
   9 C :   -0.082546
  10 H :    0.032245
  11 H :    0.036802
  12 C :   -0.037654
  13 H :    0.020479
  14 H :    0.034222
  15 H :    0.032366
  16 S :    0.115102
  17 C :   -0.098934
  18 C :   -0.066293
  19 C :   -0.040824
  20 C :   -0.121179
  21 H :    0.031859
  22 C :    0.048781
  23 H :    0.032178
  24 H :    0.027762
  25 C :   -0.091836
  26 H :    0.021366
  27 H :    0.045586
  28 C :    0.017657
  29 H :    0.014849
  30 H :    0.017184
  31 H :    0.016933
  32 H :    0.055595
  33 H :    0.056287
Sum of atomic charges:   -0.0000000

LOEWDIN ATOMIC CHARGES
----------------------
   0 S :    0.431275
   1 C :   -0.202576
   2 C :   -0.070649
   3 C :   -0.071588
   4 C :   -0.211742
   5 H :    0.045894
   6 C :   -0.045660
   7 H :    0.040900
   8 H :    0.035201
   9 C :   -0.046033
  10 H :    0.024199
  11 H :    0.033409
  12 C :   -0.059657
  13 H :    0.016619
  14 H :    0.028782
  15 H :    0.024427
  16 S :    0.430228
  17 C :   -0.193643
  18 C :   -0.079699
  19 C :   -0.056084
  20 C :   -0.217810
  21 H :    0.035977
  22 C :   -0.037733
  23 H :    0.029736
  24 H :    0.037288
  25 C :   -0.041220
  26 H :    0.027536
  27 H :    0.028438
  28 C :   -0.061029
  29 H :    0.023390
  30 H :    0.015355
  31 H :    0.030116
  32 H :    0.027063
  33 H :    0.029291

  Mayer bond orders larger than 0.100000
B(  0-S ,  1-C ) :   1.1664 B(  0-S ,  4-C ) :   1.1633 B(  1-C ,  2-C ) :   1.5602
B(  1-C ,  4-C ) :   0.1021 B(  1-C , 32-H ) :   0.9701 B(  2-C ,  3-C ) :   1.2674
B(  2-C ,  6-C ) :   1.0479 B(  3-C ,  4-C ) :   1.5744 B(  3-C ,  5-H ) :   0.9669
B(  4-C , 20-C ) :   1.0448 B(  6-C ,  7-H ) :   0.9246 B(  6-C ,  8-H ) :   0.9332
B(  6-C ,  9-C ) :   1.0569 B(  9-C , 10-H ) :   0.9520 B(  9-C , 11-H ) :   0.9562
B(  9-C , 12-C ) :   1.0884 B( 12-C , 13-H ) :   0.9746 B( 12-C , 14-H ) :   0.9758
B( 12-C , 15-H ) :   0.9750 B( 16-S , 17-C ) :   1.1831 B( 16-S , 20-C ) :   1.1426
B( 17-C , 18-C ) :   1.5943 B( 17-C , 33-H ) :   0.9661 B( 18-C , 19-C ) :   1.2401
B( 18-C , 21-H ) :   0.9917 B( 19-C , 20-C ) :   1.5590 B( 19-C , 22-C ) :   1.0448
B( 22-C , 23-H ) :   0.9349 B( 22-C , 24-H ) :   0.9340 B( 22-C , 25-C ) :   1.0469
B( 25-C , 26-H ) :   0.9584 B( 25-C , 27-H ) :   0.9462 B( 25-C , 28-C ) :   1.0863
B( 28-C , 29-H ) :   0.9684 B( 28-C , 30-H ) :   0.9738 B( 28-C , 31-H ) :   0.9687

Dispersion correction           -0.014089553
FINAL SINGLE POINT ENERGY     -1339.863252671107

DIPOLE MOMENT
-------------
                                X             Y             Z
Electronic contribution:      6.87797       4.13902     -26.27283
Nuclear contribution   :     -6.99108      -3.91392      26.89476
                        -----------------------------------------
Total Dipole Moment    :     -0.11312       0.22510       0.62194
                        -----------------------------------------
Magnitude (a.u.)       :      0.67102
Magnitude (Debye)      :      1.70560

Rotational constants in cm-1:     0.016755     0.008688     0.006993
Rotational constants in MHz :   502.306580   260.446495   209.637434

                             ****ORCA TERMINATED NORMALLY****
TOTAL RUN TIME: 0 days 0 hours 0 minutes 34 seconds 414 msec
