                         Program Version 4.2.1 -  RELEASE  -
|  1> ! wB97X-D3 SP def2-SVP
|  2> %pal
|  3> nprocs 16
|  4> end
|  5>
|  6> * xyz 0 1
|  7> S 	 7.7937 	 18.119 	 50.9081
|  8> C 	 7.83422 	 16.5584 	 51.6165
|  9> C 	 7.09488 	 15.7157 	 50.889
| 10> C 	 6.32617 	 16.3761 	 49.872
| 11> C 	 6.52898 	 17.719 	 49.7799
| 12> H 	 5.56396 	 15.9386 	 49.263
| 13> C 	 7.04148 	 14.1558 	 50.9534
| 14> H 	 7.75033 	 13.8164 	 51.8101
| 15> H 	 7.37799 	 13.7376 	 50.0088
| 16> C 	 5.64771 	 13.6231 	 51.3608
| 17> H 	 5.31409 	 14.1739 	 52.2938
| 18> H 	 4.92341 	 13.8804 	 50.5043
| 19> C 	 5.73842 	 12.1216 	 51.7862
| 20> H 	 4.71466 	 11.7622 	 51.8157
| 21> H 	 6.353 	 11.4692 	 51.0592
| 22> H 	 6.14284 	 12.0215 	 52.7794
| 23> S 	 6.6543 	 19.9775 	 48.2396
| 24> C 	 5.2848 	 20.4906 	 47.3383
| 25> C 	 4.11545 	 19.8455 	 47.8319
| 26> C 	 4.37832 	 18.8104 	 48.7748
| 27> C 	 5.743 	 18.718 	 49.0159
| 28> H 	 3.13756 	 20.1445 	 47.6269
| 29> C 	 3.29799 	 17.8627 	 49.3407
| 30> H 	 3.74732 	 17.2075 	 50.0854
| 31> H 	 2.95365 	 17.2801 	 48.5323
| 32> C 	 2.12874 	 18.5993 	 50.0809
| 33> H 	 1.58108 	 17.894 	 50.6581
| 34> H 	 1.33461 	 18.8574 	 49.3292
| 35> C 	 2.50375 	 19.7727 	 50.8659
| 36> H 	 3.39297 	 19.5369 	 51.4516
| 37> H 	 1.64179 	 19.8806 	 51.5638
| 38> H 	 2.60741 	 20.7327 	 50.312
| 39> H 	 8.65332 	 16.1886 	 52.3302
| 40> H 	 5.31019 	 21.3096 	 46.6172
| 41> *
| 42>
| 43>                          ****END OF INPUT****

CARTESIAN COORDINATES (ANGSTROEM)
---------------------------------
  S      7.793700   18.119000   50.908100
  C      7.834220   16.558400   51.616500
  C      7.094880   15.715700   50.889000
  C      6.326170   16.376100   49.872000
  C      6.528980   17.719000   49.779900
  H      5.563960   15.938600   49.263000
  C      7.041480   14.155800   50.953400
  H      7.750330   13.816400   51.810100
  H      7.377990   13.737600   50.008800
  C      5.647710   13.623100   51.360800
  H      5.314090   14.173900   52.293800
  H      4.923410   13.880400   50.504300
  C      5.738420   12.121600   51.786200
  H      4.714660   11.762200   51.815700
  H      6.353000   11.469200   51.059200
  H      6.142840   12.021500   52.779400
  S      6.654300   19.977500   48.239600
  C      5.284800   20.490600   47.338300
  C      4.115450   19.845500   47.831900
  C      4.378320   18.810400   48.774800
  C      5.743000   18.718000   49.015900
  H      3.137560   20.144500   47.626900
  C      3.297990   17.862700   49.340700
  H      3.747320   17.207500   50.085400
  H      2.953650   17.280100   48.532300
  C      2.128740   18.599300   50.080900
  H      1.581080   17.894000   50.658100
  H      1.334610   18.857400   49.329200
  C      2.503750   19.772700   50.865900
  H      3.392970   19.536900   51.451600
  H      1.641790   19.880600   51.563800
  H      2.607410   20.732700   50.312000
  H      8.653320   16.188600   52.330200
  H      5.310190   21.309600   46.617200

 Total Charge           Charge          ....    0
 Multiplicity           Mult            ....    1
 Number of Electrons    NEL             ....  134
 Basis Dimension        Dim             ....  322

ORBITAL ENERGIES
----------------

  NO   OCC          E(Eh)            E(eV)
   0   2.0000     -88.968223     -2420.9484
   1   2.0000     -88.958891     -2420.6945
   2   2.0000     -10.327939      -281.0375
   3   2.0000     -10.327067      -281.0138
   4   2.0000     -10.323268      -280.9104
   5   2.0000     -10.312438      -280.6157
   6   2.0000     -10.305764      -280.4341
   7   2.0000     -10.301573      -280.3201
   8   2.0000     -10.300437      -280.2891
   9   2.0000     -10.296862      -280.1919
  10   2.0000     -10.295028      -280.1420
  11   2.0000     -10.291547      -280.0472
  12   2.0000     -10.287108      -279.9264
  13   2.0000     -10.286531      -279.9107
  14   2.0000     -10.283320      -279.8234
  15   2.0000     -10.274889      -279.5939
  16   2.0000      -8.083693      -219.9685
  17   2.0000      -8.074936      -219.7302
  18   2.0000      -6.042038      -164.4122
  19   2.0000      -6.038059      -164.3039
  20   2.0000      -6.034636      -164.2108
  21   2.0000      -6.033515      -164.1803
  22   2.0000      -6.029333      -164.0665
  23   2.0000      -6.025437      -163.9605
  24   2.0000      -1.012215       -27.5438
  25   2.0000      -0.991001       -26.9665
  26   2.0000      -0.913006       -24.8442
  27   2.0000      -0.902972       -24.5711
  28   2.0000      -0.869116       -23.6498
  29   2.0000      -0.855698       -23.2847
  30   2.0000      -0.840940       -22.8832
  31   2.0000      -0.812645       -22.1132
  32   2.0000      -0.785606       -21.3774
  33   2.0000      -0.771509       -20.9938
  34   2.0000      -0.701136       -19.0789
  35   2.0000      -0.691455       -18.8154
  36   2.0000      -0.686366       -18.6770
  37   2.0000      -0.664559       -18.0836
  38   2.0000      -0.638622       -17.3778
  39   2.0000      -0.618979       -16.8433
  40   2.0000      -0.593628       -16.1534
  41   2.0000      -0.568369       -15.4661
  42   2.0000      -0.564563       -15.3625
  43   2.0000      -0.555329       -15.1113
  44   2.0000      -0.544909       -14.8277
  45   2.0000      -0.521263       -14.1843
  46   2.0000      -0.517795       -14.0899
  47   2.0000      -0.505195       -13.7471
  48   2.0000      -0.503243       -13.6939
  49   2.0000      -0.498744       -13.5715
  50   2.0000      -0.490598       -13.3499
  51   2.0000      -0.483318       -13.1517
  52   2.0000      -0.475658       -12.9433
  53   2.0000      -0.470274       -12.7968
  54   2.0000      -0.461741       -12.5646
  55   2.0000      -0.454498       -12.3675
  56   2.0000      -0.440091       -11.9755
  57   2.0000      -0.432866       -11.7789
  58   2.0000      -0.430793       -11.7225
  59   2.0000      -0.420857       -11.4521
  60   2.0000      -0.416262       -11.3271
  61   2.0000      -0.409704       -11.1486
  62   2.0000      -0.407299       -11.0832
  63   2.0000      -0.353826        -9.6281
  64   2.0000      -0.333294        -9.0694
  65   2.0000      -0.325891        -8.8679
  66   2.0000      -0.292381        -7.9561
  67   0.0000       0.031566         0.8590
  68   0.0000       0.073848         2.0095
  69   0.0000       0.111261         3.0276
  70   0.0000       0.121871         3.3163
  71   0.0000       0.132274         3.5994

MULLIKEN ATOMIC CHARGES
-----------------------
   0 S :    0.089424
   1 C :   -0.141107
   2 C :   -0.077365
   3 C :   -0.000513
   4 C :   -0.103661
   5 H :    0.002037
   6 C :    0.036194
   7 H :    0.025449
   8 H :    0.045538
   9 C :   -0.136043
  10 H :    0.046299
  11 H :    0.048095
  12 C :   -0.052870
  13 H :    0.036713
  14 H :    0.044223
  15 H :    0.037946
  16 S :    0.120063
  17 C :   -0.093215
  18 C :   -0.014554
  19 C :   -0.063262
  20 C :   -0.175333
  21 H :   -0.006319
  22 C :    0.098280
  23 H :    0.030777
  24 H :    0.032790
  25 C :   -0.103006
  26 H :    0.019588
  27 H :    0.019172
  28 C :   -0.026629
  29 H :    0.038977
  30 H :    0.032255
  31 H :    0.046152
  32 H :    0.077189
  33 H :    0.066715
Sum of atomic charges:    0.0000000

LOEWDIN ATOMIC CHARGES
----------------------
   0 S :    0.405406
   1 C :   -0.219560
   2 C :   -0.073127
   3 C :   -0.071436
   4 C :   -0.190233
   5 H :    0.024075
   6 C :   -0.033360
   7 H :    0.032968
   8 H :    0.029694
   9 C :   -0.052785
  10 H :    0.033221
  11 H :    0.027251
  12 C :   -0.070591
  13 H :    0.026613
  14 H :    0.032664
  15 H :    0.024093
  16 S :    0.431568
  17 C :   -0.194659
  18 C :   -0.061485
  19 C :   -0.052425
  20 C :   -0.202506
  21 H :    0.018363
  22 C :   -0.023988
  23 H :    0.030408
  24 H :    0.027248
  25 C :   -0.049415
  26 H :    0.020897
  27 H :    0.023836
  28 C :   -0.069515
  29 H :    0.030020
  30 H :    0.033983
  31 H :    0.031741
  32 H :    0.049637
  33 H :    0.031397

  Mayer bond orders larger than 0.100000
B(  0-S ,  1-C ) :   1.1301 B(  0-S ,  4-C ) :   1.1472 B(  1-C ,  2-C ) :   1.6592
B(  1-C , 32-H ) :   0.9505 B(  2-C ,  3-C ) :   1.2127 B(  2-C ,  6-C ) :   1.0081
B(  3-C ,  4-C ) :   1.6003 B(  3-C ,  5-H ) :   1.0061 B(  4-C , 20-C ) :   1.0062
B(  6-C ,  7-H ) :   0.9487 B(  6-C ,  8-H ) :   0.9452 B(  6-C ,  9-C ) :   1.0516
B(  9-C , 10-H ) :   0.9562 B(  9-C , 11-H ) :   0.9573 B(  9-C , 12-C ) :   1.0714
B( 12-C , 13-H ) :   0.9749 B( 12-C , 14-H ) :   0.9750 B( 12-C , 15-H ) :   0.9748
B( 16-S , 17-C ) :   1.1794 B( 16-S , 20-C ) :   1.1615 B( 17-C , 18-C ) :   1.5500
B( 17-C , 20-C ) :   0.1077 B( 17-C , 33-H ) :   0.9723 B( 18-C , 19-C ) :   1.2674
B( 18-C , 21-H ) :   0.9972 B( 19-C , 20-C ) :   1.5768 B( 19-C , 22-C ) :   1.0343
B( 22-C , 23-H ) :   0.9315 B( 22-C , 24-H ) :   0.9381 B( 22-C , 25-C ) :   1.0654
B( 25-C , 26-H ) :   0.9601 B( 25-C , 27-H ) :   0.9448 B( 25-C , 28-C ) :   1.0962
B( 28-C , 29-H ) :   0.9714 B( 28-C , 30-H ) :   0.9688 B( 28-C , 31-H ) :   0.9659

Dispersion correction           -0.014424455
FINAL SINGLE POINT ENERGY     -1339.872430072898

DIPOLE MOMENT
-------------
                                X             Y             Z
Electronic contribution:     18.62324      19.26351      -9.23968
Nuclear contribution   :    -19.19795     -19.70785       9.25878
                        -----------------------------------------
Total Dipole Moment    :     -0.57471      -0.44433       0.01910
                        -----------------------------------------
Magnitude (a.u.)       :      0.72670
Magnitude (Debye)      :      1.84712

Rotational constants in cm-1:     0.019317     0.008462     0.006735
Rotational constants in MHz :   579.118994   253.694911   201.924408

                             ****ORCA TERMINATED NORMALLY****
TOTAL RUN TIME: 0 days 0 hours 0 minutes 34 seconds 764 msec
