                         Program Version 4.2.1 -  RELEASE  -
|  1> ! wB97X-D3 SP def2-SVP
|  2> %pal
|  3> nprocs 16
|  4> end
|  5>
|  6> * xyz 0 1
|  7> S 	 34.2863 	 21.8297 	 48.9986
|  8> C 	 33.8602 	 22.5662 	 50.5728
|  9> C 	 34.1997 	 21.6884 	 51.6653
| 10> C 	 34.8342 	 20.4889 	 51.1559
| 11> C 	 35.0104 	 20.4567 	 49.8098
| 12> H 	 35.2403 	 19.7111 	 51.7748
| 13> C 	 33.9058 	 21.9932 	 53.0894
| 14> H 	 33.6431 	 23.0447 	 53.3157
| 15> H 	 34.7611 	 21.83 	 53.7425
| 16> C 	 32.6744 	 21.201 	 53.4766
| 17> H 	 31.8908 	 21.0329 	 52.7003
| 18> H 	 32.9753 	 20.2047 	 53.8432
| 19> C 	 31.8549 	 21.8609 	 54.6361
| 20> H 	 32.2919 	 21.744 	 55.6211
| 21> H 	 31.8136 	 22.9455 	 54.4978
| 22> H 	 30.783 	 21.5853 	 54.6427
| 23> S 	 34.8752 	 18.916 	 47.5055
| 24> C 	 36.1004 	 17.7016 	 47.2593
| 25> C 	 36.8736 	 17.5995 	 48.4085
| 26> C 	 36.578 	 18.5364 	 49.4355
| 27> C 	 35.5326 	 19.3298 	 49.0533
| 28> H 	 37.6757 	 16.89 	 48.3373
| 29> C 	 37.5039 	 18.5452 	 50.6227
| 30> H 	 37.9518 	 17.5257 	 50.8886
| 31> H 	 36.8804 	 18.7348 	 51.508
| 32> C 	 38.6284 	 19.6234 	 50.5795
| 33> H 	 38.0175 	 20.5181 	 50.6316
| 34> H 	 39.1708 	 19.584 	 49.6262
| 35> C 	 39.5776 	 19.5537 	 51.8314
| 36> H 	 40.4319 	 20.2248 	 51.7337
| 37> H 	 39.9343 	 18.5118 	 52.0133
| 38> H 	 39.0399 	 19.8759 	 52.7482
| 39> H 	 33.4576 	 23.5435 	 50.7448
| 40> H 	 36.192 	 17.212 	 46.3399
| 41> *
| 42>
| 43>                          ****END OF INPUT****

CARTESIAN COORDINATES (ANGSTROEM)
---------------------------------
  S     34.286300   21.829700   48.998600
  C     33.860200   22.566200   50.572800
  C     34.199700   21.688400   51.665300
  C     34.834200   20.488900   51.155900
  C     35.010400   20.456700   49.809800
  H     35.240300   19.711100   51.774800
  C     33.905800   21.993200   53.089400
  H     33.643100   23.044700   53.315700
  H     34.761100   21.830000   53.742500
  C     32.674400   21.201000   53.476600
  H     31.890800   21.032900   52.700300
  H     32.975300   20.204700   53.843200
  C     31.854900   21.860900   54.636100
  H     32.291900   21.744000   55.621100
  H     31.813600   22.945500   54.497800
  H     30.783000   21.585300   54.642700
  S     34.875200   18.916000   47.505500
  C     36.100400   17.701600   47.259300
  C     36.873600   17.599500   48.408500
  C     36.578000   18.536400   49.435500
  C     35.532600   19.329800   49.053300
  H     37.675700   16.890000   48.337300
  C     37.503900   18.545200   50.622700
  H     37.951800   17.525700   50.888600
  H     36.880400   18.734800   51.508000
  C     38.628400   19.623400   50.579500
  H     38.017500   20.518100   50.631600
  H     39.170800   19.584000   49.626200
  C     39.577600   19.553700   51.831400
  H     40.431900   20.224800   51.733700
  H     39.934300   18.511800   52.013300
  H     39.039900   19.875900   52.748200
  H     33.457600   23.543500   50.744800
  H     36.192000   17.212000   46.339900

 Total Charge           Charge          ....    0
 Multiplicity           Mult            ....    1
 Number of Electrons    NEL             ....  134
 Basis Dimension        Dim             ....  322

ORBITAL ENERGIES
----------------

  NO   OCC          E(Eh)            E(eV)
   0   2.0000     -88.968163     -2420.9468
   1   2.0000     -88.965524     -2420.8750
   2   2.0000     -10.327373      -281.0221
   3   2.0000     -10.325096      -280.9602
   4   2.0000     -10.319146      -280.7983
   5   2.0000     -10.312539      -280.6185
   6   2.0000     -10.310397      -280.5602
   7   2.0000     -10.299996      -280.2771
   8   2.0000     -10.299167      -280.2546
   9   2.0000     -10.295588      -280.1572
  10   2.0000     -10.293006      -280.0869
  11   2.0000     -10.291229      -280.0386
  12   2.0000     -10.290875      -280.0290
  13   2.0000     -10.289932      -280.0033
  14   2.0000     -10.286654      -279.9141
  15   2.0000     -10.279457      -279.7182
  16   2.0000      -8.082005      -219.9225
  17   2.0000      -8.080883      -219.8920
  18   2.0000      -6.040577      -164.3725
  19   2.0000      -6.039297      -164.3376
  20   2.0000      -6.036701      -164.2670
  21   2.0000      -6.035292      -164.2287
  22   2.0000      -6.032694      -164.1579
  23   2.0000      -6.031734      -164.1318
  24   2.0000      -1.010107       -27.4864
  25   2.0000      -0.980593       -26.6833
  26   2.0000      -0.916526       -24.9399
  27   2.0000      -0.906047       -24.6548
  28   2.0000      -0.865939       -23.5634
  29   2.0000      -0.852137       -23.1878
  30   2.0000      -0.842703       -22.9311
  31   2.0000      -0.813750       -22.1433
  32   2.0000      -0.781425       -21.2636
  33   2.0000      -0.771095       -20.9825
  34   2.0000      -0.707395       -19.2492
  35   2.0000      -0.698233       -18.9999
  36   2.0000      -0.693421       -18.8689
  37   2.0000      -0.666652       -18.1405
  38   2.0000      -0.643506       -17.5107
  39   2.0000      -0.624435       -16.9917
  40   2.0000      -0.599574       -16.3152
  41   2.0000      -0.571648       -15.5553
  42   2.0000      -0.561895       -15.2899
  43   2.0000      -0.555080       -15.1045
  44   2.0000      -0.527214       -14.3462
  45   2.0000      -0.523252       -14.2384
  46   2.0000      -0.520248       -14.1567
  47   2.0000      -0.516265       -14.0483
  48   2.0000      -0.506132       -13.7726
  49   2.0000      -0.495099       -13.4723
  50   2.0000      -0.491666       -13.3789
  51   2.0000      -0.482192       -13.1211
  52   2.0000      -0.469908       -12.7868
  53   2.0000      -0.459745       -12.5103
  54   2.0000      -0.453216       -12.3326
  55   2.0000      -0.447331       -12.1725
  56   2.0000      -0.443349       -12.0641
  57   2.0000      -0.440119       -11.9763
  58   2.0000      -0.433592       -11.7987
  59   2.0000      -0.428875       -11.6703
  60   2.0000      -0.427201       -11.6247
  61   2.0000      -0.411909       -11.2086
  62   2.0000      -0.410318       -11.1653
  63   2.0000      -0.353721        -9.6252
  64   2.0000      -0.333321        -9.0701
  65   2.0000      -0.328373        -8.9355
  66   2.0000      -0.284863        -7.7515
  67   0.0000       0.024834         0.6758
  68   0.0000       0.077070         2.0972
  69   0.0000       0.103818         2.8250
  70   0.0000       0.115845         3.1523
  71   0.0000       0.141726         3.8566

MULLIKEN ATOMIC CHARGES
-----------------------
   0 S :    0.104078
   1 C :   -0.110846
   2 C :   -0.099933
   3 C :    0.016321
   4 C :   -0.126908
   5 H :    0.003323
   6 C :    0.086238
   7 H :    0.016515
   8 H :    0.034754
   9 C :   -0.096762
  10 H :    0.052855
  11 H :    0.035663
  12 C :   -0.074509
  13 H :    0.031452
  14 H :    0.017754
  15 H :    0.040300
  16 S :    0.107306
  17 C :   -0.095006
  18 C :   -0.021032
  19 C :   -0.019268
  20 C :   -0.131904
  21 H :    0.011828
  22 C :    0.029300
  23 H :    0.030918
  24 H :    0.004943
  25 C :   -0.061872
  26 H :    0.037261
  27 H :    0.040366
  28 C :   -0.056873
  29 H :    0.042377
  30 H :    0.035093
  31 H :    0.032393
  32 H :    0.042157
  33 H :    0.041716
Sum of atomic charges:   -0.0000000

LOEWDIN ATOMIC CHARGES
----------------------
   0 S :    0.388318
   1 C :   -0.192693
   2 C :   -0.044819
   3 C :   -0.065894
   4 C :   -0.184440
   5 H :    0.026903
   6 C :   -0.037559
   7 H :    0.031946
   8 H :    0.034075
   9 C :   -0.041976
  10 H :    0.035592
  11 H :    0.025639
  12 C :   -0.074099
  13 H :    0.021267
  14 H :    0.019704
  15 H :    0.029999
  16 S :    0.411515
  17 C :   -0.180725
  18 C :   -0.060301
  19 C :   -0.063706
  20 C :   -0.198453
  21 H :    0.028043
  22 C :   -0.036651
  23 H :    0.033851
  24 H :    0.023328
  25 C :   -0.035511
  26 H :    0.027549
  27 H :    0.025803
  28 C :   -0.069965
  29 H :    0.027454
  30 H :    0.026410
  31 H :    0.028142
  32 H :    0.023217
  33 H :    0.018038

  Mayer bond orders larger than 0.100000
B(  0-S ,  1-C ) :   1.1255 B(  0-S ,  4-C ) :   1.1364 B(  1-C ,  2-C ) :   1.6025
B(  1-C , 32-H ) :   0.9699 B(  2-C ,  3-C ) :   1.2305 B(  2-C ,  6-C ) :   1.0509
B(  3-C ,  4-C ) :   1.5840 B(  3-C ,  5-H ) :   0.9902 B(  4-C , 20-C ) :   1.0553
B(  6-C ,  7-H ) :   0.9476 B(  6-C ,  8-H ) :   0.9327 B(  6-C ,  9-C ) :   1.0349
B(  9-C , 10-H ) :   0.9654 B(  9-C , 11-H ) :   0.9544 B(  9-C , 12-C ) :   1.0764
B( 12-C , 13-H ) :   0.9761 B( 12-C , 14-H ) :   0.9751 B( 12-C , 15-H ) :   0.9796
B( 16-S , 17-C ) :   1.1471 B( 16-S , 20-C ) :   1.1491 B( 17-C , 18-C ) :   1.5957
B( 17-C , 33-H ) :   0.9807 B( 18-C , 19-C ) :   1.2426 B( 18-C , 21-H ) :   0.9970
B( 19-C , 20-C ) :   1.5882 B( 19-C , 22-C ) :   1.0401 B( 22-C , 23-H ) :   0.9374
B( 22-C , 24-H ) :   0.9299 B( 22-C , 25-C ) :   1.0481 B( 25-C , 26-H ) :   0.9550
B( 25-C , 27-H ) :   0.9617 B( 25-C , 28-C ) :   1.0736 B( 28-C , 29-H ) :   0.9765
B( 28-C , 30-H ) :   0.9762 B( 28-C , 31-H ) :   0.9748

Dispersion correction           -0.014035655
FINAL SINGLE POINT ENERGY     -1339.879754427144

DIPOLE MOMENT
-------------
                                X             Y             Z
Electronic contribution:     -6.36876      -1.62903     -27.89469
Nuclear contribution   :      6.64892       1.55498      28.48559
                        -----------------------------------------
Total Dipole Moment    :      0.28016      -0.07405       0.59090
                        -----------------------------------------
Magnitude (a.u.)       :      0.65813
Magnitude (Debye)      :      1.67283

Rotational constants in cm-1:     0.017869     0.008490     0.006696
Rotational constants in MHz :   535.685824   254.530529   200.745641

                             ****ORCA TERMINATED NORMALLY****
TOTAL RUN TIME: 0 days 0 hours 0 minutes 34 seconds 130 msec
