                         Program Version 4.2.1 -  RELEASE  -
|  1> ! wB97X-D3 SP def2-SVP
|  2> %pal
|  3> nprocs 16
|  4> end
|  5>
|  6> * xyz 0 1
|  7> S 	 -60.0432 	 18.4271 	 87.4644
|  8> C 	 -59.2022 	 16.9505 	 88.0157
|  9> C 	 -57.8262 	 17.2157 	 88.2228
| 10> C 	 -57.4883 	 18.5069 	 87.8269
| 11> C 	 -58.5354 	 19.3013 	 87.3678
| 12> H 	 -56.5141 	 19.0182 	 87.9512
| 13> C 	 -56.7753 	 16.3506 	 88.9213
| 14> H 	 -56.1557 	 15.7568 	 88.2137
| 15> H 	 -57.4828 	 15.6259 	 89.4507
| 16> C 	 -56.0167 	 16.8109 	 90.1447
| 17> H 	 -55.2622 	 16.0332 	 90.2044
| 18> H 	 -55.4801 	 17.7543 	 90.0025
| 19> C 	 -56.8799 	 17.1395 	 91.383
| 20> H 	 -57.7072 	 16.442 	 91.4207
| 21> H 	 -56.2885 	 17.1212 	 92.3216
| 22> H 	 -57.3539 	 18.1543 	 91.2539
| 23> S 	 -58.0448 	 21.0759 	 85.2928
| 24> C 	 -58.2317 	 22.8212 	 85.5384
| 25> C 	 -58.6438 	 23.0969 	 86.8117
| 26> C 	 -58.7281 	 21.9136 	 87.6267
| 27> C 	 -58.4705 	 20.7157 	 86.9462
| 28> H 	 -58.8046 	 24.1668 	 87.0939
| 29> C 	 -59.3847 	 22.0276 	 88.9829
| 30> H 	 -58.6971 	 22.5818 	 89.5658
| 31> H 	 -59.4503 	 21.0103 	 89.4442
| 32> C 	 -60.738 	 22.7358 	 88.9484
| 33> H 	 -61.3532 	 22.3222 	 88.138
| 34> H 	 -60.653 	 23.8069 	 88.7595
| 35> C 	 -61.5636 	 22.809 	 90.2156
| 36> H 	 -61.2066 	 23.5824 	 90.8983
| 37> H 	 -61.5501 	 21.7824 	 90.7759
| 38> H 	 -62.5344 	 23.0672 	 89.9063
| 39> H 	 -59.748 	 16.1004 	 88.4583
| 40> H 	 -57.8896 	 23.5638 	 84.8628
| 41> *
| 42>
| 43>                          ****END OF INPUT****

CARTESIAN COORDINATES (ANGSTROEM)
---------------------------------
  S    -60.043200   18.427100   87.464400
  C    -59.202200   16.950500   88.015700
  C    -57.826200   17.215700   88.222800
  C    -57.488300   18.506900   87.826900
  C    -58.535400   19.301300   87.367800
  H    -56.514100   19.018200   87.951200
  C    -56.775300   16.350600   88.921300
  H    -56.155700   15.756800   88.213700
  H    -57.482800   15.625900   89.450700
  C    -56.016700   16.810900   90.144700
  H    -55.262200   16.033200   90.204400
  H    -55.480100   17.754300   90.002500
  C    -56.879900   17.139500   91.383000
  H    -57.707200   16.442000   91.420700
  H    -56.288500   17.121200   92.321600
  H    -57.353900   18.154300   91.253900
  S    -58.044800   21.075900   85.292800
  C    -58.231700   22.821200   85.538400
  C    -58.643800   23.096900   86.811700
  C    -58.728100   21.913600   87.626700
  C    -58.470500   20.715700   86.946200
  H    -58.804600   24.166800   87.093900
  C    -59.384700   22.027600   88.982900
  H    -58.697100   22.581800   89.565800
  H    -59.450300   21.010300   89.444200
  C    -60.738000   22.735800   88.948400
  H    -61.353200   22.322200   88.138000
  H    -60.653000   23.806900   88.759500
  C    -61.563600   22.809000   90.215600
  H    -61.206600   23.582400   90.898300
  H    -61.550100   21.782400   90.775900
  H    -62.534400   23.067200   89.906300
  H    -59.748000   16.100400   88.458300
  H    -57.889600   23.563800   84.862800

 Total Charge           Charge          ....    0
 Multiplicity           Mult            ....    1
 Number of Electrons    NEL             ....  134
 Basis Dimension        Dim             ....  322

ORBITAL ENERGIES
----------------

  NO   OCC          E(Eh)            E(eV)
   0   2.0000     -88.970707     -2421.0160
   1   2.0000     -88.962152     -2420.7832
   2   2.0000     -10.331123      -281.1241
   3   2.0000     -10.328530      -281.0536
   4   2.0000     -10.324472      -280.9432
   5   2.0000     -10.315492      -280.6988
   6   2.0000     -10.305547      -280.4282
   7   2.0000     -10.304700      -280.4051
   8   2.0000     -10.300397      -280.2880
   9   2.0000     -10.296465      -280.1811
  10   2.0000     -10.293085      -280.0891
  11   2.0000     -10.289563      -279.9932
  12   2.0000     -10.286927      -279.9215
  13   2.0000     -10.285590      -279.8851
  14   2.0000     -10.282553      -279.8025
  15   2.0000     -10.279078      -279.7079
  16   2.0000      -8.084509      -219.9907
  17   2.0000      -8.076789      -219.7806
  18   2.0000      -6.042938      -164.4367
  19   2.0000      -6.039091      -164.3320
  20   2.0000      -6.035455      -164.2331
  21   2.0000      -6.035337      -164.2299
  22   2.0000      -6.031230      -164.1181
  23   2.0000      -6.027574      -164.0186
  24   2.0000      -1.002490       -27.2791
  25   2.0000      -0.981838       -26.7172
  26   2.0000      -0.914031       -24.8720
  27   2.0000      -0.908868       -24.7315
  28   2.0000      -0.867287       -23.6001
  29   2.0000      -0.849599       -23.1188
  30   2.0000      -0.846842       -23.0437
  31   2.0000      -0.813630       -22.1400
  32   2.0000      -0.783143       -21.3104
  33   2.0000      -0.769673       -20.9439
  34   2.0000      -0.705739       -19.2041
  35   2.0000      -0.693858       -18.8808
  36   2.0000      -0.691440       -18.8150
  37   2.0000      -0.656061       -17.8523
  38   2.0000      -0.636005       -17.3066
  39   2.0000      -0.619568       -16.8593
  40   2.0000      -0.593616       -16.1531
  41   2.0000      -0.570254       -15.5174
  42   2.0000      -0.566641       -15.4191
  43   2.0000      -0.559083       -15.2134
  44   2.0000      -0.534711       -14.5502
  45   2.0000      -0.528830       -14.3902
  46   2.0000      -0.519623       -14.1397
  47   2.0000      -0.516583       -14.0569
  48   2.0000      -0.501696       -13.6518
  49   2.0000      -0.496221       -13.5029
  50   2.0000      -0.484030       -13.1711
  51   2.0000      -0.476023       -12.9533
  52   2.0000      -0.467686       -12.7264
  53   2.0000      -0.460890       -12.5414
  54   2.0000      -0.452877       -12.3234
  55   2.0000      -0.449034       -12.2188
  56   2.0000      -0.445627       -12.1261
  57   2.0000      -0.443951       -12.0805
  58   2.0000      -0.431231       -11.7344
  59   2.0000      -0.422425       -11.4948
  60   2.0000      -0.416476       -11.3329
  61   2.0000      -0.409666       -11.1476
  62   2.0000      -0.403027       -10.9669
  63   2.0000      -0.337993        -9.1973
  64   2.0000      -0.332046        -9.0354
  65   2.0000      -0.316922        -8.6239
  66   2.0000      -0.312334        -8.4990
  67   0.0000       0.036960         1.0057
  68   0.0000       0.054452         1.4817
  69   0.0000       0.109884         2.9901
  70   0.0000       0.122632         3.3370
  71   0.0000       0.128902         3.5076

MULLIKEN ATOMIC CHARGES
-----------------------
   0 S :    0.119716
   1 C :   -0.132705
   2 C :   -0.084127
   3 C :    0.043699
   4 C :   -0.191993
   5 H :    0.027399
   6 C :    0.007437
   7 H :    0.060372
   8 H :    0.016865
   9 C :   -0.053745
  10 H :    0.032869
  11 H :    0.026754
  12 C :   -0.067868
  13 H :    0.020373
  14 H :    0.051582
  15 H :    0.050043
  16 S :    0.104341
  17 C :   -0.087871
  18 C :   -0.054819
  19 C :   -0.029568
  20 C :   -0.174597
  21 H :    0.042307
  22 C :    0.107769
  23 H :    0.011228
  24 H :    0.030098
  25 C :   -0.108611
  26 H :    0.037634
  27 H :    0.021831
  28 C :   -0.041170
  29 H :    0.033041
  30 H :    0.038778
  31 H :    0.026793
  32 H :    0.065895
  33 H :    0.050248
Sum of atomic charges:   -0.0000000

LOEWDIN ATOMIC CHARGES
----------------------
   0 S :    0.408230
   1 C :   -0.195750
   2 C :   -0.070237
   3 C :   -0.063490
   4 C :   -0.204408
   5 H :    0.039268
   6 C :   -0.041430
   7 H :    0.038831
   8 H :    0.036479
   9 C :   -0.046618
  10 H :    0.029319
  11 H :    0.021298
  12 C :   -0.066135
  13 H :    0.016765
  14 H :    0.033534
  15 H :    0.036479
  16 S :    0.399829
  17 C :   -0.172072
  18 C :   -0.076226
  19 C :   -0.053708
  20 C :   -0.211604
  21 H :    0.042294
  22 C :   -0.032918
  23 H :    0.025285
  24 H :    0.031802
  25 C :   -0.047777
  26 H :    0.026852
  27 H :    0.025046
  28 C :   -0.062818
  29 H :    0.023073
  30 H :    0.031632
  31 H :    0.021624
  32 H :    0.032899
  33 H :    0.024653

  Mayer bond orders larger than 0.100000
B(  0-S ,  1-C ) :   1.1546 B(  0-S ,  4-C ) :   1.1633 B(  1-C ,  2-C ) :   1.5788
B(  1-C ,  4-C ) :   0.1131 B(  1-C , 32-H ) :   0.9596 B(  2-C ,  3-C ) :   1.2698
B(  2-C ,  6-C ) :   1.0017 B(  3-C ,  4-C ) :   1.5761 B(  3-C ,  5-H ) :   0.9869
B(  4-C , 20-C ) :   0.9990 B(  6-C ,  7-H ) :   0.9437 B(  6-C ,  8-H ) :   0.9448
B(  6-C ,  9-C ) :   1.0713 B(  9-C , 10-H ) :   0.9534 B(  9-C , 11-H ) :   0.9520
B(  9-C , 12-C ) :   1.0625 B( 12-C , 13-H ) :   0.9785 B( 12-C , 14-H ) :   0.9750
B( 12-C , 15-H ) :   0.9731 B( 16-S , 17-C ) :   1.1537 B( 16-S , 20-C ) :   1.1435
B( 17-C , 18-C ) :   1.6272 B( 17-C , 33-H ) :   0.9684 B( 18-C , 19-C ) :   1.2227
B( 18-C , 21-H ) :   0.9823 B( 19-C , 20-C ) :   1.6042 B( 19-C , 22-C ) :   1.0547
B( 22-C , 23-H ) :   0.9167 B( 22-C , 24-H ) :   0.9364 B( 22-C , 25-C ) :   1.0704
B( 25-C , 26-H ) :   0.9618 B( 25-C , 27-H ) :   0.9436 B( 25-C , 28-C ) :   1.0874
B( 28-C , 29-H ) :   0.9768 B( 28-C , 30-H ) :   0.9734 B( 28-C , 31-H ) :   0.9723

Dispersion correction           -0.014406116
FINAL SINGLE POINT ENERGY     -1339.866187836479

DIPOLE MOMENT
-------------
                                X             Y             Z
Electronic contribution:     -0.78658      -0.31169     -23.99976
Nuclear contribution   :      0.97468       0.54408      24.60205
                        -----------------------------------------
Total Dipole Moment    :      0.18811       0.23239       0.60229
                        -----------------------------------------
Magnitude (a.u.)       :      0.67242
Magnitude (Debye)      :      1.70915

Rotational constants in cm-1:     0.017878     0.008452     0.007152
Rotational constants in MHz :   535.976373   253.376540   214.422578

                             ****ORCA TERMINATED NORMALLY****
TOTAL RUN TIME: 0 days 0 hours 0 minutes 29 seconds 635 msec
