                         Program Version 4.2.1 -  RELEASE  -
|  1> ! wB97X-D3 SP def2-SVP
|  2> %pal
|  3> nprocs 16
|  4> end
|  5>
|  6> * xyz 0 1
|  7> S 	 8.61358 	 25.5371 	 40.9629
|  8> C 	 7.17508 	 25.6314 	 40.0047
|  9> C 	 6.85128 	 24.4422 	 39.4474
| 10> C 	 7.63039 	 23.3316 	 39.9339
| 11> C 	 8.57326 	 23.7382 	 40.83
| 12> H 	 7.57261 	 22.2902 	 39.6462
| 13> C 	 5.66761 	 24.2569 	 38.5157
| 14> H 	 6.01361 	 23.7668 	 37.646
| 15> H 	 5.35461 	 25.2672 	 38.136
| 16> C 	 4.46199 	 23.3604 	 39.0518
| 17> H 	 3.59898 	 23.4727 	 38.3532
| 18> H 	 4.70695 	 22.2791 	 39.024
| 19> C 	 4.07994 	 23.6279 	 40.5796
| 20> H 	 3.91841 	 24.7169 	 40.7243
| 21> H 	 3.06624 	 23.2352 	 40.6565
| 22> H 	 4.75762 	 23.264 	 41.3306
| 23> S 	 11.1916 	 23.0037 	 40.744
| 24> C 	 11.8374 	 21.663 	 41.6438
| 25> C 	 10.9019 	 21.1768 	 42.5364
| 26> C 	 9.57503 	 21.7472 	 42.3185
| 27> C 	 9.60552 	 22.9015 	 41.4384
| 28> H 	 11.1329 	 20.2939 	 43.1475
| 29> C 	 8.31818 	 21.3897 	 43.1883
| 30> H 	 7.67508 	 22.1842 	 43.5214
| 31> H 	 8.84889 	 21.0446 	 44.1662
| 32> C 	 7.45917 	 20.2323 	 42.6806
| 33> H 	 8.00423 	 19.3249 	 42.6288
| 34> H 	 7.24286 	 20.3508 	 41.7303
| 35> C 	 6.31157 	 20.014 	 43.7361
| 36> H 	 5.79669 	 20.9041 	 43.9691
| 37> H 	 6.72261 	 19.7139 	 44.6543
| 38> H 	 5.60296 	 19.3397 	 43.4377
| 39> H 	 6.85892 	 26.5258 	 39.6807
| 40> H 	 12.9043 	 21.4265 	 41.6834
| 41> *
| 42>
| 43>                          ****END OF INPUT****

CARTESIAN COORDINATES (ANGSTROEM)
---------------------------------
  S      8.613580   25.537100   40.962900
  C      7.175080   25.631400   40.004700
  C      6.851280   24.442200   39.447400
  C      7.630390   23.331600   39.933900
  C      8.573260   23.738200   40.830000
  H      7.572610   22.290200   39.646200
  C      5.667610   24.256900   38.515700
  H      6.013610   23.766800   37.646000
  H      5.354610   25.267200   38.136000
  C      4.461990   23.360400   39.051800
  H      3.598980   23.472700   38.353200
  H      4.706950   22.279100   39.024000
  C      4.079940   23.627900   40.579600
  H      3.918410   24.716900   40.724300
  H      3.066240   23.235200   40.656500
  H      4.757620   23.264000   41.330600
  S     11.191600   23.003700   40.744000
  C     11.837400   21.663000   41.643800
  C     10.901900   21.176800   42.536400
  C      9.575030   21.747200   42.318500
  C      9.605520   22.901500   41.438400
  H     11.132900   20.293900   43.147500
  C      8.318180   21.389700   43.188300
  H      7.675080   22.184200   43.521400
  H      8.848890   21.044600   44.166200
  C      7.459170   20.232300   42.680600
  H      8.004230   19.324900   42.628800
  H      7.242860   20.350800   41.730300
  C      6.311570   20.014000   43.736100
  H      5.796690   20.904100   43.969100
  H      6.722610   19.713900   44.654300
  H      5.602960   19.339700   43.437700
  H      6.858920   26.525800   39.680700
  H     12.904300   21.426500   41.683400

 Total Charge           Charge          ....    0
 Multiplicity           Mult            ....    1
 Number of Electrons    NEL             ....  134
 Basis Dimension        Dim             ....  322

ORBITAL ENERGIES
----------------

  NO   OCC          E(Eh)            E(eV)
   0   2.0000     -88.963899     -2420.8308
   1   2.0000     -88.962953     -2420.8050
   2   2.0000     -10.332972      -281.1745
   3   2.0000     -10.330309      -281.1020
   4   2.0000     -10.318679      -280.7855
   5   2.0000     -10.316705      -280.7318
   6   2.0000     -10.303384      -280.3693
   7   2.0000     -10.301190      -280.3096
   8   2.0000     -10.300270      -280.2846
   9   2.0000     -10.299674      -280.2684
  10   2.0000     -10.297215      -280.2015
  11   2.0000     -10.296910      -280.1932
  12   2.0000     -10.294210      -280.1197
  13   2.0000     -10.278688      -279.6973
  14   2.0000     -10.272511      -279.5292
  15   2.0000     -10.265277      -279.3324
  16   2.0000      -8.079094      -219.8433
  17   2.0000      -8.077751      -219.8068
  18   2.0000      -6.037540      -164.2898
  19   2.0000      -6.036274      -164.2554
  20   2.0000      -6.033266      -164.1735
  21   2.0000      -6.032424      -164.1506
  22   2.0000      -6.030146      -164.0886
  23   2.0000      -6.028312      -164.0387
  24   2.0000      -1.004171       -27.3249
  25   2.0000      -0.982459       -26.7341
  26   2.0000      -0.905981       -24.6530
  27   2.0000      -0.898637       -24.4532
  28   2.0000      -0.871101       -23.7039
  29   2.0000      -0.845027       -22.9943
  30   2.0000      -0.840302       -22.8658
  31   2.0000      -0.817315       -22.2403
  32   2.0000      -0.780829       -21.2474
  33   2.0000      -0.770965       -20.9790
  34   2.0000      -0.718722       -19.5574
  35   2.0000      -0.701635       -19.0925
  36   2.0000      -0.694988       -18.9116
  37   2.0000      -0.655832       -17.8461
  38   2.0000      -0.649535       -17.6747
  39   2.0000      -0.618548       -16.8316
  40   2.0000      -0.595672       -16.2091
  41   2.0000      -0.563414       -15.3313
  42   2.0000      -0.558462       -15.1965
  43   2.0000      -0.544965       -14.8293
  44   2.0000      -0.538554       -14.6548
  45   2.0000      -0.523171       -14.2362
  46   2.0000      -0.517088       -14.0707
  47   2.0000      -0.509242       -13.8572
  48   2.0000      -0.506136       -13.7726
  49   2.0000      -0.500659       -13.6236
  50   2.0000      -0.490490       -13.3469
  51   2.0000      -0.476191       -12.9578
  52   2.0000      -0.470592       -12.8055
  53   2.0000      -0.464254       -12.6330
  54   2.0000      -0.459393       -12.5007
  55   2.0000      -0.455440       -12.3932
  56   2.0000      -0.449096       -12.2205
  57   2.0000      -0.442037       -12.0284
  58   2.0000      -0.427287       -11.6271
  59   2.0000      -0.423016       -11.5109
  60   2.0000      -0.421180       -11.4609
  61   2.0000      -0.413134       -11.2419
  62   2.0000      -0.405581       -11.0364
  63   2.0000      -0.346129        -9.4187
  64   2.0000      -0.328325        -8.9342
  65   2.0000      -0.323475        -8.8022
  66   2.0000      -0.302797        -8.2395
  67   0.0000       0.034398         0.9360
  68   0.0000       0.060256         1.6396
  69   0.0000       0.111168         3.0250
  70   0.0000       0.116070         3.1584
  71   0.0000       0.129539         3.5249

MULLIKEN ATOMIC CHARGES
-----------------------
   0 S :    0.091991
   1 C :   -0.054683
   2 C :   -0.100065
   3 C :    0.047774
   4 C :   -0.157389
   5 H :    0.022458
   6 C :    0.094767
   7 H :    0.017890
   8 H :    0.021719
   9 C :   -0.120476
  10 H :    0.043758
  11 H :    0.036025
  12 C :   -0.050113
  13 H :    0.028006
  14 H :    0.031145
  15 H :    0.050913
  16 S :    0.108213
  17 C :   -0.104544
  18 C :   -0.029915
  19 C :   -0.030930
  20 C :   -0.155456
  21 H :    0.037061
  22 C :   -0.027707
  23 H :    0.036304
  24 H :    0.031888
  25 C :    0.019656
  26 H :    0.007277
  27 H :   -0.021587
  28 C :    0.016078
  29 H :    0.011564
  30 H :    0.011815
  31 H :    0.013688
  32 H :    0.002371
  33 H :    0.070505
Sum of atomic charges:    0.0000000

LOEWDIN ATOMIC CHARGES
----------------------
   0 S :    0.383034
   1 C :   -0.174952
   2 C :   -0.061942
   3 C :   -0.049289
   4 C :   -0.179257
   5 H :    0.036175
   6 C :   -0.033484
   7 H :    0.025398
   8 H :    0.032088
   9 C :   -0.042471
  10 H :    0.029887
  11 H :    0.024088
  12 C :   -0.069936
  13 H :    0.026538
  14 H :    0.027339
  15 H :    0.025340
  16 S :    0.425043
  17 C :   -0.196381
  18 C :   -0.078027
  19 C :   -0.052987
  20 C :   -0.213906
  21 H :    0.037141
  22 C :   -0.032106
  23 H :    0.027299
  24 H :    0.038767
  25 C :   -0.023119
  26 H :    0.022447
  27 H :   -0.001898
  28 C :   -0.044201
  29 H :    0.019588
  30 H :    0.021862
  31 H :    0.014365
  32 H :    0.002683
  33 H :    0.034874

  Mayer bond orders larger than 0.100000
B(  0-S ,  1-C ) :   1.1291 B(  0-S ,  4-C ) :   1.1305 B(  1-C ,  2-C ) :   1.6472
B(  1-C , 32-H ) :   0.9758 B(  2-C ,  3-C ) :   1.1861 B(  2-C ,  6-C ) :   1.0399
B(  3-C ,  4-C ) :   1.6223 B(  3-C ,  5-H ) :   0.9978 B(  4-C , 20-C ) :   1.0182
B(  6-C ,  7-H ) :   0.9330 B(  6-C ,  8-H ) :   0.9443 B(  6-C ,  9-C ) :   1.0520
B(  9-C , 10-H ) :   0.9613 B(  9-C , 11-H ) :   0.9571 B(  9-C , 12-C ) :   1.0685
B( 12-C , 13-H ) :   0.9796 B( 12-C , 14-H ) :   0.9748 B( 12-C , 15-H ) :   0.9742
B( 16-S , 17-C ) :   1.1747 B( 16-S , 20-C ) :   1.1698 B( 17-C , 18-C ) :   1.5931
B( 17-C , 20-C ) :   0.1039 B( 17-C , 33-H ) :   0.9620 B( 18-C , 19-C ) :   1.2715
B( 18-C , 21-H ) :   0.9787 B( 19-C , 20-C ) :   1.5499 B( 19-C , 22-C ) :   1.0143
B( 22-C , 23-H ) :   0.9620 B( 22-C , 24-H ) :   0.9488 B( 22-C , 25-C ) :   1.0464
B( 25-C , 26-H ) :   0.9480 B( 25-C , 27-H ) :   0.9572 B( 25-C , 28-C ) :   1.0705
B( 28-C , 29-H ) :   0.9761 B( 28-C , 30-H ) :   0.9733 B( 28-C , 31-H ) :   0.9739

Dispersion correction           -0.014706428
FINAL SINGLE POINT ENERGY     -1339.845819209326

DIPOLE MOMENT
-------------
                                X             Y             Z
Electronic contribution:     26.11240      14.17216      -4.55025
Nuclear contribution   :    -26.52508     -14.63401       4.44328
                        -----------------------------------------
Total Dipole Moment    :     -0.41267      -0.46185      -0.10697
                        -----------------------------------------
Magnitude (a.u.)       :      0.62853
Magnitude (Debye)      :      1.59760

Rotational constants in cm-1:     0.016426     0.010203     0.007114
Rotational constants in MHz :   492.436725   305.865990   213.286981

                             ****ORCA TERMINATED NORMALLY****
TOTAL RUN TIME: 0 days 0 hours 0 minutes 35 seconds 981 msec
