                         Program Version 4.2.1 -  RELEASE  -
|  1> ! wB97X-D3 SP def2-SVP
|  2> %pal
|  3> nprocs 16
|  4> end
|  5>
|  6> * xyz 0 1
|  7> S 	 -7.0713 	 12.6442 	 81.4697
|  8> C 	 -8.43582 	 11.6121 	 81.1332
|  9> C 	 -9.51193 	 11.9332 	 81.8685
| 10> C 	 -9.28204 	 13.0911 	 82.7007
| 11> C 	 -8.10238 	 13.7046 	 82.3671
| 12> H 	 -9.90346 	 13.5478 	 83.3981
| 13> C 	 -10.8014 	 11.0886 	 82.0517
| 14> H 	 -11.0649 	 10.7683 	 81.0062
| 15> H 	 -11.5874 	 11.7499 	 82.4919
| 16> C 	 -10.6789 	 9.75939 	 82.9371
| 17> H 	 -11.6803 	 9.26211 	 82.9906
| 18> H 	 -9.97206 	 9.06461 	 82.5181
| 19> C 	 -10.3019 	 10.0617 	 84.383
| 20> H 	 -9.2938 	 10.5432 	 84.47
| 21> H 	 -11.0747 	 10.7779 	 84.7673
| 22> H 	 -10.3667 	 9.12415 	 84.9852
| 23> S 	 -7.18761 	 15.0392 	 84.5681
| 24> C 	 -6.43809 	 16.615 	 84.466
| 25> C 	 -6.41131 	 17.0251 	 83.1678
| 26> C 	 -7.12459 	 16.1045 	 82.297
| 27> C 	 -7.58426 	 14.9709 	 82.8586
| 28> H 	 -5.84393 	 17.9159 	 82.9872
| 29> C 	 -7.31877 	 16.3879 	 80.8784
| 30> H 	 -8.03541 	 17.159 	 80.8532
| 31> H 	 -7.77088 	 15.5397 	 80.3326
| 32> C 	 -5.95974 	 16.7417 	 80.1609
| 33> H 	 -5.38798 	 15.8102 	 80.0087
| 34> H 	 -5.31759 	 17.4177 	 80.8375
| 35> C 	 -5.91866 	 17.469 	 78.8154
| 36> H 	 -5.97354 	 18.5345 	 78.8425
| 37> H 	 -6.67824 	 17.1259 	 78.1669
| 38> H 	 -5.00411 	 17.3506 	 78.1785
| 39> H 	 -8.40702 	 10.6889 	 80.5883
| 40> H 	 -5.95372 	 17.0666 	 85.3542
| 41> *
| 42>
| 43>                          ****END OF INPUT****

CARTESIAN COORDINATES (ANGSTROEM)
---------------------------------
  S     -7.071300   12.644200   81.469700
  C     -8.435820   11.612100   81.133200
  C     -9.511930   11.933200   81.868500
  C     -9.282040   13.091100   82.700700
  C     -8.102380   13.704600   82.367100
  H     -9.903460   13.547800   83.398100
  C    -10.801400   11.088600   82.051700
  H    -11.064900   10.768300   81.006200
  H    -11.587400   11.749900   82.491900
  C    -10.678900    9.759390   82.937100
  H    -11.680300    9.262110   82.990600
  H     -9.972060    9.064610   82.518100
  C    -10.301900   10.061700   84.383000
  H     -9.293800   10.543200   84.470000
  H    -11.074700   10.777900   84.767300
  H    -10.366700    9.124150   84.985200
  S     -7.187610   15.039200   84.568100
  C     -6.438090   16.615000   84.466000
  C     -6.411310   17.025100   83.167800
  C     -7.124590   16.104500   82.297000
  C     -7.584260   14.970900   82.858600
  H     -5.843930   17.915900   82.987200
  C     -7.318770   16.387900   80.878400
  H     -8.035410   17.159000   80.853200
  H     -7.770880   15.539700   80.332600
  C     -5.959740   16.741700   80.160900
  H     -5.387980   15.810200   80.008700
  H     -5.317590   17.417700   80.837500
  C     -5.918660   17.469000   78.815400
  H     -5.973540   18.534500   78.842500
  H     -6.678240   17.125900   78.166900
  H     -5.004110   17.350600   78.178500
  H     -8.407020   10.688900   80.588300
  H     -5.953720   17.066600   85.354200

 Total Charge           Charge          ....    0
 Multiplicity           Mult            ....    1
 Number of Electrons    NEL             ....  134
 Basis Dimension        Dim             ....  322

ORBITAL ENERGIES
----------------

  NO   OCC          E(Eh)            E(eV)
   0   2.0000     -88.967017     -2420.9156
   1   2.0000     -88.954315     -2420.5700
   2   2.0000     -10.327824      -281.0344
   3   2.0000     -10.319820      -280.8166
   4   2.0000     -10.319296      -280.8023
   5   2.0000     -10.308916      -280.5199
   6   2.0000     -10.305095      -280.4159
   7   2.0000     -10.300628      -280.2943
   8   2.0000     -10.299953      -280.2760
   9   2.0000     -10.294150      -280.1181
  10   2.0000     -10.292992      -280.0866
  11   2.0000     -10.292758      -280.0802
  12   2.0000     -10.290797      -280.0268
  13   2.0000     -10.285081      -279.8713
  14   2.0000     -10.282859      -279.8108
  15   2.0000     -10.271202      -279.4936
  16   2.0000      -8.082238      -219.9289
  17   2.0000      -8.069855      -219.5919
  18   2.0000      -6.040719      -164.3763
  19   2.0000      -6.036894      -164.2722
  20   2.0000      -6.032765      -164.1599
  21   2.0000      -6.028394      -164.0409
  22   2.0000      -6.024233      -163.9277
  23   2.0000      -6.020536      -163.8271
  24   2.0000      -1.013982       -27.5919
  25   2.0000      -0.990620       -26.9561
  26   2.0000      -0.905139       -24.6301
  27   2.0000      -0.902932       -24.5700
  28   2.0000      -0.874016       -23.7832
  29   2.0000      -0.848971       -23.1017
  30   2.0000      -0.846609       -23.0374
  31   2.0000      -0.819942       -22.3118
  32   2.0000      -0.779959       -21.2238
  33   2.0000      -0.769742       -20.9458
  34   2.0000      -0.706044       -19.2124
  35   2.0000      -0.697710       -18.9857
  36   2.0000      -0.694333       -18.8938
  37   2.0000      -0.660792       -17.9811
  38   2.0000      -0.646210       -17.5843
  39   2.0000      -0.610634       -16.6162
  40   2.0000      -0.596303       -16.2262
  41   2.0000      -0.575943       -15.6722
  42   2.0000      -0.555522       -15.1165
  43   2.0000      -0.549428       -14.9507
  44   2.0000      -0.542027       -14.7493
  45   2.0000      -0.524312       -14.2672
  46   2.0000      -0.517526       -14.0826
  47   2.0000      -0.514052       -13.9881
  48   2.0000      -0.510262       -13.8849
  49   2.0000      -0.503924       -13.7125
  50   2.0000      -0.483731       -13.1630
  51   2.0000      -0.475626       -12.9424
  52   2.0000      -0.474255       -12.9051
  53   2.0000      -0.465206       -12.6589
  54   2.0000      -0.460660       -12.5352
  55   2.0000      -0.451068       -12.2742
  56   2.0000      -0.443646       -12.0722
  57   2.0000      -0.429831       -11.6963
  58   2.0000      -0.428475       -11.6594
  59   2.0000      -0.418535       -11.3889
  60   2.0000      -0.417454       -11.3595
  61   2.0000      -0.412723       -11.2308
  62   2.0000      -0.408734       -11.1222
  63   2.0000      -0.340474        -9.2648
  64   2.0000      -0.331767        -9.0278
  65   2.0000      -0.322025        -8.7628
  66   2.0000      -0.308073        -8.3831
  67   0.0000       0.038065         1.0358
  68   0.0000       0.065544         1.7835
  69   0.0000       0.107461         2.9242
  70   0.0000       0.120944         3.2911
  71   0.0000       0.129794         3.5319

MULLIKEN ATOMIC CHARGES
-----------------------
   0 S :    0.129383
   1 C :   -0.109511
   2 C :   -0.077465
   3 C :    0.048728
   4 C :   -0.167244
   5 H :   -0.009810
   6 C :    0.030869
   7 H :    0.039921
   8 H :    0.036170
   9 C :   -0.066830
  10 H :    0.039966
  11 H :    0.027573
  12 C :   -0.092110
  13 H :    0.058688
  14 H :    0.029180
  15 H :    0.045140
  16 S :    0.075600
  17 C :   -0.109358
  18 C :   -0.021602
  19 C :   -0.054438
  20 C :   -0.134497
  21 H :    0.021120
  22 C :    0.118882
  23 H :    0.022961
  24 H :    0.032759
  25 C :   -0.136375
  26 H :    0.040624
  27 H :    0.036764
  28 C :   -0.032259
  29 H :    0.021011
  30 H :    0.015403
  31 H :    0.029220
  32 H :    0.036096
  33 H :    0.075441
Sum of atomic charges:   -0.0000000

LOEWDIN ATOMIC CHARGES
----------------------
   0 S :    0.417805
   1 C :   -0.195295
   2 C :   -0.066852
   3 C :   -0.049642
   4 C :   -0.194266
   5 H :    0.021357
   6 C :   -0.032731
   7 H :    0.035897
   8 H :    0.032227
   9 C :   -0.041349
  10 H :    0.030244
  11 H :    0.017817
  12 C :   -0.076452
  13 H :    0.031417
  14 H :    0.025777
  15 H :    0.030294
  16 S :    0.385840
  17 C :   -0.176732
  18 C :   -0.075567
  19 C :   -0.056533
  20 C :   -0.201704
  21 H :    0.032450
  22 C :   -0.028020
  23 H :    0.028052
  24 H :    0.033710
  25 C :   -0.045518
  26 H :    0.029989
  27 H :    0.028772
  28 C :   -0.075618
  29 H :    0.018795
  30 H :    0.017339
  31 H :    0.034294
  32 H :    0.026114
  33 H :    0.038092

  Mayer bond orders larger than 0.100000
B(  0-S ,  1-C ) :   1.1246 B(  0-S ,  4-C ) :   1.1551 B(  1-C ,  2-C ) :   1.6534
B(  1-C , 32-H ) :   0.9674 B(  2-C ,  3-C ) :   1.2007 B(  2-C ,  6-C ) :   1.0146
B(  3-C ,  4-C ) :   1.5872 B(  3-C ,  5-H ) :   1.0111 B(  4-C , 20-C ) :   1.0247
B(  6-C ,  7-H ) :   0.9413 B(  6-C ,  8-H ) :   0.9473 B(  6-C ,  9-C ) :   1.0624
B(  9-C , 10-H ) :   0.9567 B(  9-C , 11-H ) :   0.9581 B(  9-C , 12-C ) :   1.0749
B( 12-C , 13-H ) :   0.9738 B( 12-C , 14-H ) :   0.9749 B( 12-C , 15-H ) :   0.9731
B( 16-S , 17-C ) :   1.1586 B( 16-S , 20-C ) :   1.1121 B( 17-C , 18-C ) :   1.6311
B( 17-C , 33-H ) :   0.9621 B( 18-C , 19-C ) :   1.1772 B( 18-C , 21-H ) :   0.9996
B( 19-C , 20-C ) :   1.6518 B( 19-C , 22-C ) :   1.0606 B( 22-C , 23-H ) :   0.9301
B( 22-C , 24-H ) :   0.9291 B( 22-C , 25-C ) :   1.0332 B( 25-C , 26-H ) :   0.9572
B( 25-C , 27-H ) :   0.9658 B( 25-C , 28-C ) :   1.0754 B( 28-C , 29-H ) :   0.9768
B( 28-C , 30-H ) :   0.9722 B( 28-C , 31-H ) :   0.9732

Dispersion correction           -0.014421337
FINAL SINGLE POINT ENERGY     -1339.869212674498

DIPOLE MOMENT
-------------
                                X             Y             Z
Electronic contribution:      6.76887       1.97736       8.81120
Nuclear contribution   :     -6.91944      -1.98683      -8.93834
                        -----------------------------------------
Total Dipole Moment    :     -0.15057      -0.00947      -0.12714
                        -----------------------------------------
Magnitude (a.u.)       :      0.19730
Magnitude (Debye)      :      0.50149

Rotational constants in cm-1:     0.023153     0.007800     0.006346
Rotational constants in MHz :   694.096888   233.847187   190.233824

                             ****ORCA TERMINATED NORMALLY****
TOTAL RUN TIME: 0 days 0 hours 0 minutes 34 seconds 578 msec
