                         Program Version 4.2.1 -  RELEASE  -
|  1> ! wB97X-D3 SP def2-SVP
|  2> %pal
|  3> nprocs 16
|  4> end
|  5>
|  6> * xyz 0 1
|  7> S 	 -47.4604 	 62.9904 	 143.606
|  8> C 	 -45.8509 	 62.7932 	 144.164
|  9> C 	 -44.9237 	 63.5621 	 143.393
| 10> C 	 -45.5598 	 64.3487 	 142.43
| 11> C 	 -46.9222 	 64.0613 	 142.274
| 12> H 	 -45.0301 	 64.9879 	 141.753
| 13> C 	 -43.4164 	 63.6676 	 143.523
| 14> H 	 -43.0768 	 62.8591 	 144.143
| 15> H 	 -43.1709 	 64.5892 	 144.094
| 16> C 	 -42.6055 	 63.6927 	 142.192
| 17> H 	 -42.7973 	 62.7468 	 141.675
| 18> H 	 -42.8733 	 64.5197 	 141.558
| 19> C 	 -41.1526 	 63.975 	 142.414
| 20> H 	 -40.6663 	 64.2273 	 141.383
| 21> H 	 -40.9361 	 64.9343 	 142.848
| 22> H 	 -40.5367 	 63.1858 	 142.903
| 23> S 	 -49.0319 	 65.8138 	 141.81
| 24> C 	 -49.608 	 65.9507 	 140.162
| 25> C 	 -48.7828 	 65.3302 	 139.275
| 26> C 	 -47.6793 	 64.6468 	 139.854
| 27> C 	 -47.8229 	 64.6563 	 141.255
| 28> H 	 -48.927 	 65.3925 	 138.24
| 29> C 	 -46.5556 	 64.0533 	 139.014
| 30> H 	 -45.8411 	 63.6788 	 139.687
| 31> H 	 -46.1277 	 64.8611 	 138.447
| 32> C 	 -47.0353 	 63.0449 	 137.947
| 33> H 	 -47.6302 	 63.5652 	 137.178
| 34> H 	 -47.6786 	 62.3046 	 138.479
| 35> C 	 -45.7972 	 62.4114 	 137.213
| 36> H 	 -45.1332 	 63.1084 	 136.715
| 37> H 	 -46.0914 	 61.6365 	 136.516
| 38> H 	 -45.1844 	 61.8401 	 137.915
| 39> H 	 -45.4897 	 62.2426 	 145.028
| 40> H 	 -50.5557 	 66.4825 	 139.937
| 41> *
| 42>
| 43>                          ****END OF INPUT****

CARTESIAN COORDINATES (ANGSTROEM)
---------------------------------
  S    -47.460400   62.990400  143.606000
  C    -45.850900   62.793200  144.164000
  C    -44.923700   63.562100  143.393000
  C    -45.559800   64.348700  142.430000
  C    -46.922200   64.061300  142.274000
  H    -45.030100   64.987900  141.753000
  C    -43.416400   63.667600  143.523000
  H    -43.076800   62.859100  144.143000
  H    -43.170900   64.589200  144.094000
  C    -42.605500   63.692700  142.192000
  H    -42.797300   62.746800  141.675000
  H    -42.873300   64.519700  141.558000
  C    -41.152600   63.975000  142.414000
  H    -40.666300   64.227300  141.383000
  H    -40.936100   64.934300  142.848000
  H    -40.536700   63.185800  142.903000
  S    -49.031900   65.813800  141.810000
  C    -49.608000   65.950700  140.162000
  C    -48.782800   65.330200  139.275000
  C    -47.679300   64.646800  139.854000
  C    -47.822900   64.656300  141.255000
  H    -48.927000   65.392500  138.240000
  C    -46.555600   64.053300  139.014000
  H    -45.841100   63.678800  139.687000
  H    -46.127700   64.861100  138.447000
  C    -47.035300   63.044900  137.947000
  H    -47.630200   63.565200  137.178000
  H    -47.678600   62.304600  138.479000
  C    -45.797200   62.411400  137.213000
  H    -45.133200   63.108400  136.715000
  H    -46.091400   61.636500  136.516000
  H    -45.184400   61.840100  137.915000
  H    -45.489700   62.242600  145.028000
  H    -50.555700   66.482500  139.937000

 Total Charge           Charge          ....    0
 Multiplicity           Mult            ....    1
 Number of Electrons    NEL             ....  134
 Basis Dimension        Dim             ....  322

ORBITAL ENERGIES
----------------

  NO   OCC          E(Eh)            E(eV)
   0   2.0000     -88.970911     -2421.0216
   1   2.0000     -88.963437     -2420.8182
   2   2.0000     -10.330483      -281.1067
   3   2.0000     -10.327200      -281.0174
   4   2.0000     -10.316234      -280.7190
   5   2.0000     -10.315920      -280.7104
   6   2.0000     -10.303376      -280.3691
   7   2.0000     -10.298428      -280.2345
   8   2.0000     -10.295238      -280.1477
   9   2.0000     -10.293056      -280.0883
  10   2.0000     -10.289709      -279.9972
  11   2.0000     -10.289018      -279.9784
  12   2.0000     -10.287982      -279.9502
  13   2.0000     -10.286389      -279.9069
  14   2.0000     -10.285863      -279.8926
  15   2.0000     -10.280118      -279.7362
  16   2.0000      -8.084865      -220.0003
  17   2.0000      -8.078189      -219.8187
  18   2.0000      -6.043254      -164.4453
  19   2.0000      -6.039394      -164.3403
  20   2.0000      -6.036584      -164.2638
  21   2.0000      -6.035894      -164.2450
  22   2.0000      -6.032937      -164.1646
  23   2.0000      -6.028834      -164.0529
  24   2.0000      -1.000439       -27.2233
  25   2.0000      -0.981586       -26.7103
  26   2.0000      -0.911987       -24.8164
  27   2.0000      -0.907071       -24.6827
  28   2.0000      -0.863583       -23.4993
  29   2.0000      -0.854321       -23.2473
  30   2.0000      -0.846659       -23.0387
  31   2.0000      -0.809976       -22.0406
  32   2.0000      -0.782159       -21.2836
  33   2.0000      -0.766373       -20.8541
  34   2.0000      -0.707791       -19.2600
  35   2.0000      -0.700382       -19.0584
  36   2.0000      -0.690330       -18.7848
  37   2.0000      -0.657009       -17.8781
  38   2.0000      -0.636258       -17.3135
  39   2.0000      -0.623077       -16.9548
  40   2.0000      -0.597934       -16.2706
  41   2.0000      -0.572800       -15.5867
  42   2.0000      -0.570084       -15.5128
  43   2.0000      -0.559951       -15.2370
  44   2.0000      -0.525030       -14.2868
  45   2.0000      -0.519187       -14.1278
  46   2.0000      -0.513873       -13.9832
  47   2.0000      -0.504946       -13.7403
  48   2.0000      -0.499167       -13.5830
  49   2.0000      -0.496889       -13.5210
  50   2.0000      -0.490648       -13.3512
  51   2.0000      -0.480755       -13.0820
  52   2.0000      -0.474422       -12.9097
  53   2.0000      -0.463172       -12.6036
  54   2.0000      -0.456415       -12.4197
  55   2.0000      -0.452081       -12.3017
  56   2.0000      -0.449206       -12.2235
  57   2.0000      -0.434460       -11.8223
  58   2.0000      -0.432463       -11.7679
  59   2.0000      -0.427910       -11.6440
  60   2.0000      -0.426033       -11.5929
  61   2.0000      -0.423017       -11.5109
  62   2.0000      -0.414729       -11.2854
  63   2.0000      -0.341896        -9.3035
  64   2.0000      -0.329140        -8.9564
  65   2.0000      -0.321681        -8.7534
  66   2.0000      -0.292194        -7.9510
  67   0.0000       0.031337         0.8527
  68   0.0000       0.064028         1.7423
  69   0.0000       0.108332         2.9479
  70   0.0000       0.124521         3.3884
  71   0.0000       0.130324         3.5463

MULLIKEN ATOMIC CHARGES
-----------------------
   0 S :    0.131995
   1 C :   -0.107613
   2 C :   -0.111999
   3 C :    0.055932
   4 C :   -0.185410
   5 H :    0.007066
   6 C :    0.069250
   7 H :    0.009886
   8 H :    0.039124
   9 C :   -0.066507
  10 H :    0.042570
  11 H :    0.027936
  12 C :   -0.083186
  13 H :    0.031388
  14 H :    0.024149
  15 H :    0.046937
  16 S :    0.106532
  17 C :   -0.102115
  18 C :   -0.005736
  19 C :   -0.039202
  20 C :   -0.179087
  21 H :   -0.007290
  22 C :    0.127526
  23 H :    0.006698
  24 H :    0.024811
  25 C :   -0.115670
  26 H :    0.038339
  27 H :    0.049210
  28 C :   -0.039581
  29 H :    0.032083
  30 H :    0.032285
  31 H :    0.024500
  32 H :    0.045528
  33 H :    0.069650
Sum of atomic charges:   -0.0000000

LOEWDIN ATOMIC CHARGES
----------------------
   0 S :    0.418909
   1 C :   -0.217830
   2 C :   -0.069005
   3 C :   -0.055209
   4 C :   -0.193074
   5 H :    0.026747
   6 C :   -0.034302
   7 H :    0.024708
   8 H :    0.036514
   9 C :   -0.042135
  10 H :    0.029638
  11 H :    0.023971
  12 C :   -0.075549
  13 H :    0.037033
  14 H :    0.022155
  15 H :    0.026596
  16 S :    0.396772
  17 C :   -0.183964
  18 C :   -0.068191
  19 C :   -0.045909
  20 C :   -0.200922
  21 H :    0.021172
  22 C :   -0.023931
  23 H :    0.021314
  24 H :    0.032864
  25 C :   -0.036158
  26 H :    0.023506
  27 H :    0.031428
  28 C :   -0.068475
  29 H :    0.024193
  30 H :    0.026078
  31 H :    0.025373
  32 H :    0.030636
  33 H :    0.035048

  Mayer bond orders larger than 0.100000
B(  0-S ,  1-C ) :   1.1631 B(  0-S ,  4-C ) :   1.1594 B(  1-C ,  2-C ) :   1.5622
B(  1-C ,  4-C ) :   0.1103 B(  1-C , 32-H ) :   0.9651 B(  2-C ,  3-C ) :   1.2934
B(  2-C ,  6-C ) :   1.0285 B(  3-C ,  4-C ) :   1.5338 B(  3-C ,  5-H ) :   0.9889
B(  4-C , 20-C ) :   1.0265 B(  6-C ,  7-H ) :   0.9390 B(  6-C ,  8-H ) :   0.9354
B(  6-C ,  9-C ) :   1.0667 B(  9-C , 10-H ) :   0.9571 B(  9-C , 11-H ) :   0.9469
B(  9-C , 12-C ) :   1.0919 B( 12-C , 13-H ) :   0.9713 B( 12-C , 14-H ) :   0.9688
B( 12-C , 15-H ) :   0.9748 B( 16-S , 17-C ) :   1.1448 B( 16-S , 20-C ) :   1.1551
B( 17-C , 18-C ) :   1.6103 B( 17-C , 33-H ) :   0.9643 B( 18-C , 19-C ) :   1.2343
B( 18-C , 21-H ) :   0.9999 B( 19-C , 20-C ) :   1.5864 B( 19-C , 22-C ) :   1.0475
B( 22-C , 23-H ) :   0.9302 B( 22-C , 24-H ) :   0.9262 B( 22-C , 25-C ) :   1.0573
B( 25-C , 26-H ) :   0.9537 B( 25-C , 27-H ) :   0.9612 B( 25-C , 28-C ) :   1.0797
B( 28-C , 29-H ) :   0.9750 B( 28-C , 30-H ) :   0.9752 B( 28-C , 31-H ) :   0.9752

Dispersion correction           -0.013805318
FINAL SINGLE POINT ENERGY     -1339.877065076153

DIPOLE MOMENT
-------------
                                X             Y             Z
Electronic contribution:    -26.59097       6.18217      16.16293
Nuclear contribution   :     27.20611      -6.12357     -16.62493
                        -----------------------------------------
Total Dipole Moment    :      0.61514       0.05860      -0.46200
                        -----------------------------------------
Magnitude (a.u.)       :      0.77154
Magnitude (Debye)      :      1.96110

Rotational constants in cm-1:     0.015303     0.009247     0.006785
Rotational constants in MHz :   458.760526   277.205505   203.394376

                             ****ORCA TERMINATED NORMALLY****
TOTAL RUN TIME: 0 days 0 hours 0 minutes 34 seconds 499 msec
