                         Program Version 4.2.1 -  RELEASE  -
|  1> ! wB97X-D3 SP def2-SVP
|  2> %pal
|  3> nprocs 16
|  4> end
|  5>
|  6> * xyz 0 1
|  7> S 	 -62.4649 	 36.8668 	 117.831
|  8> C 	 -62.6619 	 36.2023 	 119.434
|  9> C 	 -63.7092 	 36.7596 	 120.123
| 10> C 	 -64.3471 	 37.748 	 119.289
| 11> C 	 -63.9282 	 37.8057 	 117.99
| 12> H 	 -65.2195 	 38.3722 	 119.472
| 13> C 	 -64.035 	 36.6292 	 121.589
| 14> H 	 -64.2139 	 37.6533 	 121.969
| 15> H 	 -63.2175 	 36.1411 	 122.19
| 16> C 	 -65.3932 	 35.8635 	 121.749
| 17> H 	 -65.6266 	 35.8988 	 122.819
| 18> H 	 -66.2233 	 36.3666 	 121.328
| 19> C 	 -65.1835 	 34.4152 	 121.357
| 20> H 	 -65.1832 	 34.4342 	 120.234
| 21> H 	 -64.259 	 34.0757 	 121.764
| 22> H 	 -66.0446 	 33.8091 	 121.577
| 23> S 	 -63.2667 	 40.069 	 116.558
| 24> C 	 -64.4774 	 40.656 	 115.394
| 25> C 	 -65.7397 	 40.1548 	 115.655
| 26> C 	 -65.6847 	 39.0607 	 116.551
| 27> C 	 -64.3662 	 38.7784 	 116.949
| 28> H 	 -66.5459 	 40.6884 	 115.146
| 29> C 	 -66.9297 	 38.2813 	 116.772
| 30> H 	 -67.6566 	 38.923 	 117.255
| 31> H 	 -66.7581 	 37.5882 	 117.539
| 32> C 	 -67.4721 	 37.5779 	 115.565
| 33> H 	 -67.563 	 38.3018 	 114.827
| 34> H 	 -68.552 	 37.2317 	 115.604
| 35> C 	 -66.5471 	 36.5061 	 115.033
| 36> H 	 -66.5444 	 35.6936 	 115.748
| 37> H 	 -65.5258 	 36.8622 	 114.899
| 38> H 	 -66.8416 	 36.0361 	 114.028
| 39> H 	 -62.0546 	 35.4514 	 119.87
| 40> H 	 -64.3429 	 41.472 	 114.717
| 41> *
| 42>
| 43>                          ****END OF INPUT****

CARTESIAN COORDINATES (ANGSTROEM)
---------------------------------
  S    -62.464900   36.866800  117.831000
  C    -62.661900   36.202300  119.434000
  C    -63.709200   36.759600  120.123000
  C    -64.347100   37.748000  119.289000
  C    -63.928200   37.805700  117.990000
  H    -65.219500   38.372200  119.472000
  C    -64.035000   36.629200  121.589000
  H    -64.213900   37.653300  121.969000
  H    -63.217500   36.141100  122.190000
  C    -65.393200   35.863500  121.749000
  H    -65.626600   35.898800  122.819000
  H    -66.223300   36.366600  121.328000
  C    -65.183500   34.415200  121.357000
  H    -65.183200   34.434200  120.234000
  H    -64.259000   34.075700  121.764000
  H    -66.044600   33.809100  121.577000
  S    -63.266700   40.069000  116.558000
  C    -64.477400   40.656000  115.394000
  C    -65.739700   40.154800  115.655000
  C    -65.684700   39.060700  116.551000
  C    -64.366200   38.778400  116.949000
  H    -66.545900   40.688400  115.146000
  C    -66.929700   38.281300  116.772000
  H    -67.656600   38.923000  117.255000
  H    -66.758100   37.588200  117.539000
  C    -67.472100   37.577900  115.565000
  H    -67.563000   38.301800  114.827000
  H    -68.552000   37.231700  115.604000
  C    -66.547100   36.506100  115.033000
  H    -66.544400   35.693600  115.748000
  H    -65.525800   36.862200  114.899000
  H    -66.841600   36.036100  114.028000
  H    -62.054600   35.451400  119.870000
  H    -64.342900   41.472000  114.717000

 Total Charge           Charge          ....    0
 Multiplicity           Mult            ....    1
 Number of Electrons    NEL             ....  134
 Basis Dimension        Dim             ....  322

ORBITAL ENERGIES
----------------

  NO   OCC          E(Eh)            E(eV)
   0   2.0000     -88.968304     -2420.9506
   1   2.0000     -88.963142     -2420.8102
   2   2.0000     -10.330010      -281.0939
   3   2.0000     -10.325985      -280.9843
   4   2.0000     -10.316088      -280.7150
   5   2.0000     -10.310754      -280.5699
   6   2.0000     -10.304409      -280.3972
   7   2.0000     -10.301198      -280.3098
   8   2.0000     -10.300798      -280.2990
   9   2.0000     -10.294228      -280.1202
  10   2.0000     -10.292112      -280.0626
  11   2.0000     -10.282703      -279.8066
  12   2.0000     -10.281630      -279.7774
  13   2.0000     -10.278999      -279.7058
  14   2.0000     -10.273991      -279.5695
  15   2.0000     -10.273197      -279.5479
  16   2.0000      -8.082767      -219.9433
  17   2.0000      -8.078149      -219.8176
  18   2.0000      -6.041236      -164.3904
  19   2.0000      -6.037637      -164.2925
  20   2.0000      -6.036623      -164.2649
  21   2.0000      -6.033250      -164.1731
  22   2.0000      -6.032691      -164.1579
  23   2.0000      -6.028857      -164.0535
  24   2.0000      -1.007665       -27.4200
  25   2.0000      -0.986564       -26.8458
  26   2.0000      -0.918352       -24.9896
  27   2.0000      -0.913467       -24.8567
  28   2.0000      -0.868512       -23.6334
  29   2.0000      -0.848358       -23.0850
  30   2.0000      -0.844219       -22.9724
  31   2.0000      -0.814671       -22.1683
  32   2.0000      -0.781984       -21.2789
  33   2.0000      -0.773817       -21.0566
  34   2.0000      -0.707429       -19.2501
  35   2.0000      -0.699422       -19.0322
  36   2.0000      -0.694630       -18.9018
  37   2.0000      -0.655462       -17.8360
  38   2.0000      -0.645123       -17.5547
  39   2.0000      -0.618874       -16.8404
  40   2.0000      -0.600940       -16.3524
  41   2.0000      -0.570860       -15.5339
  42   2.0000      -0.557322       -15.1655
  43   2.0000      -0.556465       -15.1422
  44   2.0000      -0.542385       -14.7591
  45   2.0000      -0.532566       -14.4919
  46   2.0000      -0.518661       -14.1135
  47   2.0000      -0.512524       -13.9465
  48   2.0000      -0.495401       -13.4805
  49   2.0000      -0.494258       -13.4494
  50   2.0000      -0.486129       -13.2282
  51   2.0000      -0.477244       -12.9865
  52   2.0000      -0.468456       -12.7473
  53   2.0000      -0.461629       -12.5616
  54   2.0000      -0.458376       -12.4730
  55   2.0000      -0.451052       -12.2737
  56   2.0000      -0.446400       -12.1472
  57   2.0000      -0.437879       -11.9153
  58   2.0000      -0.434167       -11.8143
  59   2.0000      -0.428832       -11.6691
  60   2.0000      -0.422712       -11.5026
  61   2.0000      -0.409854       -11.1527
  62   2.0000      -0.408069       -11.1041
  63   2.0000      -0.343357        -9.3432
  64   2.0000      -0.330687        -8.9984
  65   2.0000      -0.325549        -8.8586
  66   2.0000      -0.297655        -8.0996
  67   0.0000       0.029891         0.8134
  68   0.0000       0.067249         1.8299
  69   0.0000       0.099284         2.7017
  70   0.0000       0.115387         3.1399
  71   0.0000       0.134811         3.6684

MULLIKEN ATOMIC CHARGES
-----------------------
   0 S :    0.103237
   1 C :   -0.098069
   2 C :   -0.070896
   3 C :    0.033635
   4 C :   -0.189646
   5 H :    0.013751
   6 C :    0.024692
   7 H :    0.041615
   8 H :    0.041239
   9 C :   -0.075118
  10 H :    0.020306
  11 H :    0.021121
  12 C :   -0.028293
  13 H :    0.043632
  14 H :    0.025862
  15 H :    0.031741
  16 S :    0.114338
  17 C :   -0.086244
  18 C :   -0.049275
  19 C :   -0.070435
  20 C :   -0.128574
  21 H :    0.032988
  22 C :    0.129921
  23 H :    0.023256
  24 H :   -0.011225
  25 C :   -0.033191
  26 H :   -0.002468
  27 H :    0.031247
  28 C :   -0.071724
  29 H :    0.025632
  30 H :    0.045694
  31 H :    0.038503
  32 H :    0.029978
  33 H :    0.042770
Sum of atomic charges:   -0.0000000

LOEWDIN ATOMIC CHARGES
----------------------
   0 S :    0.401727
   1 C :   -0.187598
   2 C :   -0.066762
   3 C :   -0.061266
   4 C :   -0.202064
   5 H :    0.030321
   6 C :   -0.029129
   7 H :    0.037329
   8 H :    0.034655
   9 C :   -0.039300
  10 H :    0.020021
  11 H :    0.016830
  12 C :   -0.061522
  13 H :    0.034295
  14 H :    0.019956
  15 H :    0.023594
  16 S :    0.401178
  17 C :   -0.169376
  18 C :   -0.066814
  19 C :   -0.054033
  20 C :   -0.201692
  21 H :    0.039298
  22 C :   -0.031550
  23 H :    0.036317
  24 H :    0.018210
  25 C :   -0.043502
  26 H :    0.010150
  27 H :    0.033079
  28 C :   -0.066733
  29 H :    0.021267
  30 H :    0.027824
  31 H :    0.033352
  32 H :    0.020861
  33 H :    0.021077

  Mayer bond orders larger than 0.100000
B(  0-S ,  1-C ) :   1.1401 B(  0-S ,  4-C ) :   1.1408 B(  1-C ,  2-C ) :   1.6213
B(  1-C , 32-H ) :   0.9714 B(  2-C ,  3-C ) :   1.2073 B(  2-C ,  6-C ) :   1.0191
B(  3-C ,  4-C ) :   1.6169 B(  3-C ,  5-H ) :   0.9856 B(  4-C , 20-C ) :   1.0095
B(  6-C ,  7-H ) :   0.9421 B(  6-C ,  8-H ) :   0.9512 B(  6-C ,  9-C ) :   1.0690
B(  9-C , 10-H ) :   0.9555 B(  9-C , 11-H ) :   0.9593 B(  9-C , 12-C ) :   1.0697
B( 12-C , 13-H ) :   0.9725 B( 12-C , 14-H ) :   0.9753 B( 12-C , 15-H ) :   0.9727
B( 16-S , 17-C ) :   1.1408 B( 16-S , 20-C ) :   1.1595 B( 17-C , 18-C ) :   1.6355
B( 17-C , 33-H ) :   0.9694 B( 18-C , 19-C ) :   1.2121 B( 18-C , 21-H ) :   0.9903
B( 19-C , 20-C ) :   1.5801 B( 19-C , 22-C ) :   1.0596 B( 22-C , 23-H ) :   0.9199
B( 22-C , 24-H ) :   0.9219 B( 22-C , 25-C ) :   1.0699 B( 25-C , 26-H ) :   0.9506
B( 25-C , 27-H ) :   0.9496 B( 25-C , 28-C ) :   1.0721 B( 28-C , 29-H ) :   0.9765
B( 28-C , 30-H ) :   0.9740 B( 28-C , 31-H ) :   0.9724

Dispersion correction           -0.015146213
FINAL SINGLE POINT ENERGY     -1339.864875133987

DIPOLE MOMENT
-------------
                                X             Y             Z
Electronic contribution:     19.10746      14.21351      -8.07436
Nuclear contribution   :    -19.70622     -14.09306       8.42809
                        -----------------------------------------
Total Dipole Moment    :     -0.59876       0.12045       0.35373
                        -----------------------------------------
Magnitude (a.u.)       :      0.70579
Magnitude (Debye)      :      1.79398

Rotational constants in cm-1:     0.020122     0.008903     0.007400
Rotational constants in MHz :   603.229800   266.893780   221.859246

                             ****ORCA TERMINATED NORMALLY****
TOTAL RUN TIME: 0 days 0 hours 0 minutes 31 seconds 938 msec
