                         Program Version 4.2.1 -  RELEASE  -
|  1> ! wB97X-D3 SP def2-SVP
|  2> %pal
|  3> nprocs 16
|  4> end
|  5>
|  6> * xyz 0 1
|  7> S 	 -32.8616 	 72.9147 	 171.612
|  8> C 	 -32.1402 	 74.3937 	 171.875
|  9> C 	 -32.9945 	 75.4578 	 171.613
| 10> C 	 -34.3403 	 74.9949 	 171.496
| 11> C 	 -34.4377 	 73.6012 	 171.551
| 12> H 	 -35.0655 	 75.6921 	 171.157
| 13> C 	 -32.6312 	 76.9124 	 171.657
| 14> H 	 -31.5601 	 77.0091 	 171.908
| 15> H 	 -33.2839 	 77.3888 	 172.431
| 16> C 	 -32.8743 	 77.6831 	 170.333
| 17> H 	 -32.1515 	 77.2505 	 169.603
| 18> H 	 -33.8694 	 77.3985 	 169.996
| 19> C 	 -32.6188 	 79.2112 	 170.491
| 20> H 	 -32.8562 	 79.7007 	 169.597
| 21> H 	 -33.3781 	 79.6774 	 171.164
| 22> H 	 -31.6507 	 79.5428 	 170.78
| 23> S 	 -35.4965 	 71.3052 	 170.53
| 24> C 	 -37.2133 	 70.9448 	 170.83
| 25> C 	 -37.885 	 72.0051 	 171.402
| 26> C 	 -36.9988 	 73.0665 	 171.727
| 27> C 	 -35.651 	 72.8256 	 171.329
| 28> H 	 -38.9517 	 71.8435 	 171.495
| 29> C 	 -37.507 	 74.3872 	 172.416
| 30> H 	 -36.8636 	 75.2406 	 172.346
| 31> H 	 -37.599 	 74.1985 	 173.475
| 32> C 	 -38.8979 	 74.7481 	 171.996
| 33> H 	 -39.2736 	 75.4333 	 172.799
| 34> H 	 -39.5397 	 73.8468 	 171.934
| 35> C 	 -38.984 	 75.4377 	 170.644
| 36> H 	 -38.7416 	 74.7108 	 169.856
| 37> H 	 -38.3795 	 76.3085 	 170.609
| 38> H 	 -40.0225 	 75.7368 	 170.499
| 39> H 	 -31.129 	 74.5719 	 172.027
| 40> H 	 -37.7238 	 70.0208 	 170.587
| 41> *
| 42>
| 43>                          ****END OF INPUT****

CARTESIAN COORDINATES (ANGSTROEM)
---------------------------------
  S    -32.861600   72.914700  171.612000
  C    -32.140200   74.393700  171.875000
  C    -32.994500   75.457800  171.613000
  C    -34.340300   74.994900  171.496000
  C    -34.437700   73.601200  171.551000
  H    -35.065500   75.692100  171.157000
  C    -32.631200   76.912400  171.657000
  H    -31.560100   77.009100  171.908000
  H    -33.283900   77.388800  172.431000
  C    -32.874300   77.683100  170.333000
  H    -32.151500   77.250500  169.603000
  H    -33.869400   77.398500  169.996000
  C    -32.618800   79.211200  170.491000
  H    -32.856200   79.700700  169.597000
  H    -33.378100   79.677400  171.164000
  H    -31.650700   79.542800  170.780000
  S    -35.496500   71.305200  170.530000
  C    -37.213300   70.944800  170.830000
  C    -37.885000   72.005100  171.402000
  C    -36.998800   73.066500  171.727000
  C    -35.651000   72.825600  171.329000
  H    -38.951700   71.843500  171.495000
  C    -37.507000   74.387200  172.416000
  H    -36.863600   75.240600  172.346000
  H    -37.599000   74.198500  173.475000
  C    -38.897900   74.748100  171.996000
  H    -39.273600   75.433300  172.799000
  H    -39.539700   73.846800  171.934000
  C    -38.984000   75.437700  170.644000
  H    -38.741600   74.710800  169.856000
  H    -38.379500   76.308500  170.609000
  H    -40.022500   75.736800  170.499000
  H    -31.129000   74.571900  172.027000
  H    -37.723800   70.020800  170.587000

 Total Charge           Charge          ....    0
 Multiplicity           Mult            ....    1
 Number of Electrons    NEL             ....  134
 Basis Dimension        Dim             ....  322

ORBITAL ENERGIES
----------------

  NO   OCC          E(Eh)            E(eV)
   0   2.0000     -88.969194     -2420.9749
   1   2.0000     -88.967315     -2420.9237
   2   2.0000     -10.329747      -281.0867
   3   2.0000     -10.328777      -281.0603
   4   2.0000     -10.317163      -280.7443
   5   2.0000     -10.309570      -280.5377
   6   2.0000     -10.302256      -280.3386
   7   2.0000     -10.296207      -280.1740
   8   2.0000     -10.295214      -280.1470
   9   2.0000     -10.294302      -280.1222
  10   2.0000     -10.294196      -280.1193
  11   2.0000     -10.289859      -280.0013
  12   2.0000     -10.285696      -279.8880
  13   2.0000     -10.284219      -279.8478
  14   2.0000     -10.278666      -279.6967
  15   2.0000     -10.270583      -279.4768
  16   2.0000      -8.085758      -220.0246
  17   2.0000      -8.082003      -219.9225
  18   2.0000      -6.044157      -164.4699
  19   2.0000      -6.040470      -164.3695
  20   2.0000      -6.040019      -164.3573
  21   2.0000      -6.036552      -164.2629
  22   2.0000      -6.036518      -164.2620
  23   2.0000      -6.032792      -164.1606
  24   2.0000      -1.014551       -27.6073
  25   2.0000      -0.987115       -26.8608
  26   2.0000      -0.913580       -24.8598
  27   2.0000      -0.909806       -24.7571
  28   2.0000      -0.872882       -23.7523
  29   2.0000      -0.854188       -23.2436
  30   2.0000      -0.843010       -22.9395
  31   2.0000      -0.815549       -22.1922
  32   2.0000      -0.785040       -21.3620
  33   2.0000      -0.774772       -21.0826
  34   2.0000      -0.711155       -19.3515
  35   2.0000      -0.697434       -18.9781
  36   2.0000      -0.689274       -18.7561
  37   2.0000      -0.652813       -17.7639
  38   2.0000      -0.638730       -17.3807
  39   2.0000      -0.629994       -17.1430
  40   2.0000      -0.602710       -16.4006
  41   2.0000      -0.573028       -15.5929
  42   2.0000      -0.564801       -15.3690
  43   2.0000      -0.549497       -14.9526
  44   2.0000      -0.536422       -14.5968
  45   2.0000      -0.527926       -14.3656
  46   2.0000      -0.515994       -14.0409
  47   2.0000      -0.511514       -13.9190
  48   2.0000      -0.508530       -13.8378
  49   2.0000      -0.501676       -13.6513
  50   2.0000      -0.490260       -13.3406
  51   2.0000      -0.480415       -13.0728
  52   2.0000      -0.473289       -12.8789
  53   2.0000      -0.467020       -12.7083
  54   2.0000      -0.464614       -12.6428
  55   2.0000      -0.457310       -12.4440
  56   2.0000      -0.444503       -12.0956
  57   2.0000      -0.433535       -11.7971
  58   2.0000      -0.430193       -11.7062
  59   2.0000      -0.426884       -11.6161
  60   2.0000      -0.424605       -11.5541
  61   2.0000      -0.419912       -11.4264
  62   2.0000      -0.407952       -11.1010
  63   2.0000      -0.358935        -9.7671
  64   2.0000      -0.335655        -9.1336
  65   2.0000      -0.325615        -8.8604
  66   2.0000      -0.278880        -7.5887
  67   0.0000       0.022355         0.6083
  68   0.0000       0.080266         2.1841
  69   0.0000       0.100634         2.7384
  70   0.0000       0.121742         3.3128
  71   0.0000       0.135121         3.6768

MULLIKEN ATOMIC CHARGES
-----------------------
   0 S :    0.134987
   1 C :   -0.081633
   2 C :   -0.099274
   3 C :    0.001384
   4 C :   -0.110276
   5 H :    0.011273
   6 C :    0.037709
   7 H :    0.019527
   8 H :    0.039621
   9 C :   -0.097489
  10 H :    0.035732
  11 H :    0.026560
  12 C :   -0.007691
  13 H :    0.017332
  14 H :    0.024809
  15 H :    0.031876
  16 S :    0.099140
  17 C :   -0.103057
  18 C :   -0.052195
  19 C :   -0.043675
  20 C :   -0.137122
  21 H :    0.030289
  22 C :    0.129565
  23 H :    0.006095
  24 H :    0.028378
  25 C :   -0.139074
  26 H :    0.030975
  27 H :    0.029911
  28 C :   -0.017592
  29 H :    0.039939
  30 H :    0.018127
  31 H :    0.028513
  32 H :    0.015490
  33 H :    0.051845
Sum of atomic charges:    0.0000000

LOEWDIN ATOMIC CHARGES
----------------------
   0 S :    0.458467
   1 C :   -0.217414
   2 C :   -0.063666
   3 C :   -0.063381
   4 C :   -0.201917
   5 H :    0.023272
   6 C :   -0.036757
   7 H :    0.029075
   8 H :    0.034530
   9 C :   -0.037062
  10 H :    0.028550
  11 H :    0.020595
  12 C :   -0.062931
  13 H :    0.020991
  14 H :    0.030396
  15 H :    0.022902
  16 S :    0.401416
  17 C :   -0.178167
  18 C :   -0.075410
  19 C :   -0.054081
  20 C :   -0.203154
  21 H :    0.037821
  22 C :   -0.028311
  23 H :    0.022343
  24 H :    0.034434
  25 C :   -0.046940
  26 H :    0.027502
  27 H :    0.023172
  28 C :   -0.061380
  29 H :    0.029625
  30 H :    0.015715
  31 H :    0.026349
  32 H :    0.015045
  33 H :    0.028373

  Mayer bond orders larger than 0.100000
B(  0-S ,  1-C ) :   1.1673 B(  0-S ,  4-C ) :   1.1743 B(  1-C ,  2-C ) :   1.5675
B(  1-C , 32-H ) :   0.9720 B(  2-C ,  3-C ) :   1.2960 B(  2-C ,  6-C ) :   1.0382
B(  3-C ,  4-C ) :   1.5044 B(  3-C ,  5-H ) :   0.9872 B(  4-C , 20-C ) :   1.0827
B(  6-C ,  7-H ) :   0.9416 B(  6-C ,  8-H ) :   0.9441 B(  6-C ,  9-C ) :   1.0508
B(  9-C , 10-H ) :   0.9546 B(  9-C , 11-H ) :   0.9606 B(  9-C , 12-C ) :   1.0791
B( 12-C , 13-H ) :   0.9716 B( 12-C , 14-H ) :   0.9717 B( 12-C , 15-H ) :   0.9763
B( 16-S , 17-C ) :   1.1478 B( 16-S , 20-C ) :   1.1469 B( 17-C , 18-C ) :   1.6272
B( 17-C , 33-H ) :   0.9636 B( 18-C , 19-C ) :   1.2377 B( 18-C , 21-H ) :   0.9868
B( 19-C , 20-C ) :   1.5672 B( 19-C , 22-C ) :   1.0178 B( 22-C , 23-H ) :   0.9417
B( 22-C , 24-H ) :   0.9247 B( 22-C , 25-C ) :   1.0816 B( 25-C , 26-H ) :   0.9523
B( 25-C , 27-H ) :   0.9487 B( 25-C , 28-C ) :   1.0865 B( 28-C , 29-H ) :   0.9736
B( 28-C , 30-H ) :   0.9736 B( 28-C , 31-H ) :   0.9726

Dispersion correction           -0.013784728
FINAL SINGLE POINT ENERGY     -1339.875196899586

DIPOLE MOMENT
-------------
                                X             Y             Z
Electronic contribution:      9.63749     -29.09146       0.90555
Nuclear contribution   :     -9.88821      29.67064      -0.92597
                        -----------------------------------------
Total Dipole Moment    :     -0.25072       0.57918      -0.02042
                        -----------------------------------------
Magnitude (a.u.)       :      0.63145
Magnitude (Debye)      :      1.60503

Rotational constants in cm-1:     0.017967     0.008864     0.006395
Rotational constants in MHz :   538.633691   265.740548   191.706098

                             ****ORCA TERMINATED NORMALLY****
TOTAL RUN TIME: 0 days 0 hours 0 minutes 34 seconds 522 msec
