                         Program Version 4.2.1 -  RELEASE  -
|  1> ! wB97X-D3 SP def2-SVP
|  2> %pal
|  3> nprocs 16
|  4> end
|  5>
|  6> * xyz 0 1
|  7> S 	 45.9813 	 15.4404 	 82.7141
|  8> C 	 45.6631 	 17.0887 	 83.0942
|  9> C 	 46.8295 	 17.7092 	 83.5461
| 10> C 	 47.8999 	 16.7892 	 83.6113
| 11> C 	 47.6207 	 15.4556 	 83.3049
| 12> H 	 48.8721 	 17.0288 	 83.986
| 13> C 	 46.9244 	 19.2398 	 83.7254
| 14> H 	 46.9428 	 19.6698 	 82.6867
| 15> H 	 47.9414 	 19.5288 	 84.0266
| 16> C 	 45.9732 	 19.9434 	 84.791
| 17> H 	 46.1796 	 19.5299 	 85.752
| 18> H 	 46.2579 	 20.9749 	 84.8455
| 19> C 	 44.4518 	 19.8297 	 84.6209
| 20> H 	 44.1459 	 19.8049 	 83.5606
| 21> H 	 44.0844 	 18.8582 	 84.8942
| 22> H 	 43.7892 	 20.575 	 85.0505
| 23> S 	 47.8661 	 13.028 	 84.5598
| 24> C 	 49.1547 	 11.9179 	 84.1454
| 25> C 	 50.1597 	 12.6079 	 83.5218
| 26> C 	 49.7859 	 13.9439 	 83.138
| 27> C 	 48.492 	 14.2431 	 83.4389
| 28> H 	 51.0305 	 12.0015 	 83.3529
| 29> C 	 50.7976 	 14.7805 	 82.35
| 30> H 	 50.3713 	 15.7807 	 82.4122
| 31> H 	 50.7513 	 14.4263 	 81.3132
| 32> C 	 52.2082 	 14.7072 	 82.7569
| 33> H 	 52.8729 	 15.1997 	 81.9592
| 34> H 	 52.5741 	 13.6628 	 82.8585
| 35> C 	 52.5096 	 15.3606 	 84.1173
| 36> H 	 51.9617 	 14.7939 	 84.8915
| 37> H 	 52.2744 	 16.4637 	 84.2043
| 38> H 	 53.5456 	 15.4059 	 84.4118
| 39> H 	 44.6799 	 17.5715 	 82.7968
| 40> H 	 49.2548 	 10.8337 	 84.323
| 41> *
| 42>
| 43>                          ****END OF INPUT****

CARTESIAN COORDINATES (ANGSTROEM)
---------------------------------
  S     45.981300   15.440400   82.714100
  C     45.663100   17.088700   83.094200
  C     46.829500   17.709200   83.546100
  C     47.899900   16.789200   83.611300
  C     47.620700   15.455600   83.304900
  H     48.872100   17.028800   83.986000
  C     46.924400   19.239800   83.725400
  H     46.942800   19.669800   82.686700
  H     47.941400   19.528800   84.026600
  C     45.973200   19.943400   84.791000
  H     46.179600   19.529900   85.752000
  H     46.257900   20.974900   84.845500
  C     44.451800   19.829700   84.620900
  H     44.145900   19.804900   83.560600
  H     44.084400   18.858200   84.894200
  H     43.789200   20.575000   85.050500
  S     47.866100   13.028000   84.559800
  C     49.154700   11.917900   84.145400
  C     50.159700   12.607900   83.521800
  C     49.785900   13.943900   83.138000
  C     48.492000   14.243100   83.438900
  H     51.030500   12.001500   83.352900
  C     50.797600   14.780500   82.350000
  H     50.371300   15.780700   82.412200
  H     50.751300   14.426300   81.313200
  C     52.208200   14.707200   82.756900
  H     52.872900   15.199700   81.959200
  H     52.574100   13.662800   82.858500
  C     52.509600   15.360600   84.117300
  H     51.961700   14.793900   84.891500
  H     52.274400   16.463700   84.204300
  H     53.545600   15.405900   84.411800
  H     44.679900   17.571500   82.796800
  H     49.254800   10.833700   84.323000

 Total Charge           Charge          ....    0
 Multiplicity           Mult            ....    1
 Number of Electrons    NEL             ....  134
 Basis Dimension        Dim             ....  322

ORBITAL ENERGIES
----------------

  NO   OCC          E(Eh)            E(eV)
   0   2.0000     -88.966134     -2420.8916
   1   2.0000     -88.959915     -2420.7223
   2   2.0000     -10.333679      -281.1937
   3   2.0000     -10.330677      -281.1120
   4   2.0000     -10.319850      -280.8174
   5   2.0000     -10.316686      -280.7313
   6   2.0000     -10.305976      -280.4399
   7   2.0000     -10.305033      -280.4142
   8   2.0000     -10.304586      -280.4020
   9   2.0000     -10.294523      -280.1282
  10   2.0000     -10.294118      -280.1172
  11   2.0000     -10.291138      -280.0361
  12   2.0000     -10.290210      -280.0108
  13   2.0000     -10.289255      -279.9849
  14   2.0000     -10.279400      -279.7167
  15   2.0000     -10.276861      -279.6476
  16   2.0000      -8.081292      -219.9031
  17   2.0000      -8.074749      -219.7251
  18   2.0000      -6.039610      -164.3461
  19   2.0000      -6.035496      -164.2342
  20   2.0000      -6.033423      -164.1778
  21   2.0000      -6.032443      -164.1511
  22   2.0000      -6.029420      -164.0689
  23   2.0000      -6.025118      -163.9518
  24   2.0000      -1.007464       -27.4145
  25   2.0000      -0.988592       -26.9009
  26   2.0000      -0.914800       -24.8930
  27   2.0000      -0.901840       -24.5403
  28   2.0000      -0.866786       -23.5864
  29   2.0000      -0.849830       -23.1251
  30   2.0000      -0.841375       -22.8950
  31   2.0000      -0.815778       -22.1984
  32   2.0000      -0.784959       -21.3598
  33   2.0000      -0.778352       -21.1800
  34   2.0000      -0.710173       -19.3248
  35   2.0000      -0.698715       -19.0130
  36   2.0000      -0.691520       -18.8172
  37   2.0000      -0.654754       -17.8168
  38   2.0000      -0.641845       -17.4655
  39   2.0000      -0.617322       -16.7982
  40   2.0000      -0.593191       -16.1415
  41   2.0000      -0.574344       -15.6287
  42   2.0000      -0.560086       -15.2407
  43   2.0000      -0.545953       -14.8561
  44   2.0000      -0.539346       -14.6764
  45   2.0000      -0.530131       -14.4256
  46   2.0000      -0.522382       -14.2147
  47   2.0000      -0.510184       -13.8828
  48   2.0000      -0.506687       -13.7877
  49   2.0000      -0.494884       -13.4665
  50   2.0000      -0.490177       -13.3384
  51   2.0000      -0.486095       -13.2273
  52   2.0000      -0.471816       -12.8388
  53   2.0000      -0.462491       -12.5850
  54   2.0000      -0.456670       -12.4266
  55   2.0000      -0.446137       -12.1400
  56   2.0000      -0.440562       -11.9883
  57   2.0000      -0.429579       -11.6895
  58   2.0000      -0.429231       -11.6800
  59   2.0000      -0.426269       -11.5994
  60   2.0000      -0.422306       -11.4915
  61   2.0000      -0.416764       -11.3407
  62   2.0000      -0.407046       -11.0763
  63   2.0000      -0.343280        -9.3411
  64   2.0000      -0.330833        -9.0024
  65   2.0000      -0.324393        -8.8272
  66   2.0000      -0.299657        -8.1541
  67   0.0000       0.027718         0.7543
  68   0.0000       0.068799         1.8721
  69   0.0000       0.106425         2.8960
  70   0.0000       0.118574         3.2266
  71   0.0000       0.138486         3.7684

MULLIKEN ATOMIC CHARGES
-----------------------
   0 S :    0.125618
   1 C :   -0.158379
   2 C :   -0.078975
   3 C :    0.051236
   4 C :   -0.184181
   5 H :   -0.000798
   6 C :    0.026513
   7 H :    0.051818
   8 H :    0.013610
   9 C :   -0.023675
  10 H :    0.029430
  11 H :    0.028147
  12 C :   -0.065847
  13 H :    0.013723
  14 H :    0.026481
  15 H :    0.040374
  16 S :    0.095230
  17 C :   -0.094902
  18 C :   -0.059419
  19 C :   -0.046666
  20 C :   -0.143568
  21 H :    0.017713
  22 C :    0.130323
  23 H :    0.012901
  24 H :    0.045709
  25 C :   -0.105207
  26 H :    0.043181
  27 H :    0.038642
  28 C :   -0.078385
  29 H :    0.045293
  30 H :    0.028642
  31 H :    0.028107
  32 H :    0.083020
  33 H :    0.064291
Sum of atomic charges:    0.0000000

LOEWDIN ATOMIC CHARGES
----------------------
   0 S :    0.434876
   1 C :   -0.213319
   2 C :   -0.074261
   3 C :   -0.062412
   4 C :   -0.210917
   5 H :    0.024450
   6 C :   -0.034345
   7 H :    0.039892
   8 H :    0.030019
   9 C :   -0.029888
  10 H :    0.025820
  11 H :    0.024375
  12 C :   -0.077123
  13 H :    0.021933
  14 H :    0.021817
  15 H :    0.029605
  16 S :    0.390900
  17 C :   -0.181995
  18 C :   -0.080429
  19 C :   -0.056047
  20 C :   -0.190277
  21 H :    0.030609
  22 C :   -0.032424
  23 H :    0.029643
  24 H :    0.041613
  25 C :   -0.050568
  26 H :    0.035080
  27 H :    0.028007
  28 C :   -0.076643
  29 H :    0.029148
  30 H :    0.027478
  31 H :    0.022681
  32 H :    0.043680
  33 H :    0.039020

  Mayer bond orders larger than 0.100000
B(  0-S ,  1-C ) :   1.1796 B(  0-S ,  4-C ) :   1.1803 B(  1-C ,  2-C ) :   1.5440
B(  1-C ,  4-C ) :   0.1089 B(  1-C , 32-H ) :   0.9578 B(  2-C ,  3-C ) :   1.3135
B(  2-C ,  6-C ) :   1.0055 B(  3-C ,  4-C ) :   1.5240 B(  3-C ,  5-H ) :   0.9947
B(  4-C , 20-C ) :   1.0083 B(  6-C ,  7-H ) :   0.9458 B(  6-C ,  8-H ) :   0.9425
B(  6-C ,  9-C ) :   1.0672 B(  9-C , 10-H ) :   0.9575 B(  9-C , 11-H ) :   0.9595
B(  9-C , 12-C ) :   1.0714 B( 12-C , 13-H ) :   0.9742 B( 12-C , 14-H ) :   0.9715
B( 12-C , 15-H ) :   0.9733 B( 16-S , 17-C ) :   1.1398 B( 16-S , 20-C ) :   1.1336
B( 17-C , 18-C ) :   1.6599 B( 17-C , 33-H ) :   0.9614 B( 18-C , 19-C ) :   1.1773
B( 18-C , 21-H ) :   0.9933 B( 19-C , 20-C ) :   1.6423 B( 19-C , 22-C ) :   1.0239
B( 22-C , 23-H ) :   0.9330 B( 22-C , 24-H ) :   0.9282 B( 22-C , 25-C ) :   1.0822
B( 25-C , 26-H ) :   0.9510 B( 25-C , 27-H ) :   0.9464 B( 25-C , 28-C ) :   1.0754
B( 28-C , 29-H ) :   0.9742 B( 28-C , 30-H ) :   0.9734 B( 28-C , 31-H ) :   0.9746

Dispersion correction           -0.014181135
FINAL SINGLE POINT ENERGY     -1339.864529776509

DIPOLE MOMENT
-------------
                                X             Y             Z
Electronic contribution:    -10.76567     -19.90689      -2.32724
Nuclear contribution   :     11.25427      20.30259       2.22895
                        -----------------------------------------
Total Dipole Moment    :      0.48860       0.39570      -0.09829
                        -----------------------------------------
Magnitude (a.u.)       :      0.63637
Magnitude (Debye)      :      1.61754

Rotational constants in cm-1:     0.022317     0.007437     0.006165
Rotational constants in MHz :   669.039728   222.957367   184.813762

                             ****ORCA TERMINATED NORMALLY****
TOTAL RUN TIME: 0 days 0 hours 0 minutes 29 seconds 750 msec
