                         Program Version 4.2.1 -  RELEASE  -
|  1> ! wB97X-D3 SP def2-SVP
|  2> %pal
|  3> nprocs 16
|  4> end
|  5>
|  6> * xyz 0 1
|  7> S 	 -3.99227 	 -11.9322 	 95.0573
|  8> C 	 -5.65944 	 -12.5181 	 95.2579
|  9> C 	 -5.92341 	 -13.6262 	 94.4264
| 10> C 	 -4.92212 	 -13.7118 	 93.4185
| 11> C 	 -3.80219 	 -12.9281 	 93.6299
| 12> H 	 -4.93078 	 -14.2453 	 92.5131
| 13> C 	 -7.0401 	 -14.6332 	 94.4643
| 14> H 	 -7.03217 	 -15.0685 	 95.4654
| 15> H 	 -6.77362 	 -15.4874 	 93.8417
| 16> C 	 -8.3584 	 -14.0823 	 93.8741
| 17> H 	 -8.38431 	 -14.1309 	 92.8404
| 18> H 	 -9.07599 	 -14.8891 	 93.9094
| 19> C 	 -8.94656 	 -12.7583 	 94.3733
| 20> H 	 -9.09066 	 -12.7564 	 95.4105
| 21> H 	 -8.25172 	 -12.0016 	 94.0977
| 22> H 	 -9.79051 	 -12.4467 	 93.7623
| 23> S 	 -2.14486 	 -11.0211 	 92.437
| 24> C 	 -1.04766 	 -11.4397 	 91.1239
| 25> C 	 -1.23206 	 -12.7515 	 90.7791
| 26> C 	 -2.19256 	 -13.4438 	 91.5979
| 27> C 	 -2.82954 	 -12.6023 	 92.5157
| 28> H 	 -0.598726 	 -13.2223 	 90.088
| 29> C 	 -2.33756 	 -14.9318 	 91.4593
| 30> H 	 -2.17666 	 -15.1467 	 90.4359
| 31> H 	 -3.32236 	 -15.187 	 91.7388
| 32> C 	 -1.41434 	 -15.7273 	 92.3418
| 33> H 	 -1.65082 	 -15.5377 	 93.364
| 34> H 	 -0.343533 	 -15.3644 	 92.1753
| 35> C 	 -1.51019 	 -17.2232 	 92.0145
| 36> H 	 -2.43016 	 -17.5909 	 92.4159
| 37> H 	 -0.620229 	 -17.6262 	 92.5685
| 38> H 	 -1.38066 	 -17.667 	 90.9989
| 39> H 	 -6.28922 	 -12.223 	 96.0808
| 40> H 	 -0.434209 	 -10.8315 	 90.5607
| 41> *
| 42>
| 43>                          ****END OF INPUT****

CARTESIAN COORDINATES (ANGSTROEM)
---------------------------------
  S     -3.992270  -11.932200   95.057300
  C     -5.659440  -12.518100   95.257900
  C     -5.923410  -13.626200   94.426400
  C     -4.922120  -13.711800   93.418500
  C     -3.802190  -12.928100   93.629900
  H     -4.930780  -14.245300   92.513100
  C     -7.040100  -14.633200   94.464300
  H     -7.032170  -15.068500   95.465400
  H     -6.773620  -15.487400   93.841700
  C     -8.358400  -14.082300   93.874100
  H     -8.384310  -14.130900   92.840400
  H     -9.075990  -14.889100   93.909400
  C     -8.946560  -12.758300   94.373300
  H     -9.090660  -12.756400   95.410500
  H     -8.251720  -12.001600   94.097700
  H     -9.790510  -12.446700   93.762300
  S     -2.144860  -11.021100   92.437000
  C     -1.047660  -11.439700   91.123900
  C     -1.232060  -12.751500   90.779100
  C     -2.192560  -13.443800   91.597900
  C     -2.829540  -12.602300   92.515700
  H     -0.598726  -13.222300   90.088000
  C     -2.337560  -14.931800   91.459300
  H     -2.176660  -15.146700   90.435900
  H     -3.322360  -15.187000   91.738800
  C     -1.414340  -15.727300   92.341800
  H     -1.650820  -15.537700   93.364000
  H     -0.343533  -15.364400   92.175300
  C     -1.510190  -17.223200   92.014500
  H     -2.430160  -17.590900   92.415900
  H     -0.620229  -17.626200   92.568500
  H     -1.380660  -17.667000   90.998900
  H     -6.289220  -12.223000   96.080800
  H     -0.434209  -10.831500   90.560700

 Total Charge           Charge          ....    0
 Multiplicity           Mult            ....    1
 Number of Electrons    NEL             ....  134
 Basis Dimension        Dim             ....  322

ORBITAL ENERGIES
----------------

  NO   OCC          E(Eh)            E(eV)
   0   2.0000     -88.970117     -2421.0000
   1   2.0000     -88.963623     -2420.8233
   2   2.0000     -10.331306      -281.1291
   3   2.0000     -10.329066      -281.0682
   4   2.0000     -10.320175      -280.8262
   5   2.0000     -10.309721      -280.5418
   6   2.0000     -10.306115      -280.4436
   7   2.0000     -10.297644      -280.2131
   8   2.0000     -10.297311      -280.2041
   9   2.0000     -10.289506      -279.9917
  10   2.0000     -10.286836      -279.9190
  11   2.0000     -10.285885      -279.8932
  12   2.0000     -10.281625      -279.7772
  13   2.0000     -10.280303      -279.7413
  14   2.0000     -10.277773      -279.6724
  15   2.0000     -10.270990      -279.4878
  16   2.0000      -8.084100      -219.9795
  17   2.0000      -8.078392      -219.8242
  18   2.0000      -6.042712      -164.4306
  19   2.0000      -6.038772      -164.3233
  20   2.0000      -6.036956      -164.2739
  21   2.0000      -6.034737      -164.2135
  22   2.0000      -6.032810      -164.1611
  23   2.0000      -6.029158      -164.0617
  24   2.0000      -1.003958       -27.3191
  25   2.0000      -0.982840       -26.7444
  26   2.0000      -0.915324       -24.9072
  27   2.0000      -0.913097       -24.8466
  28   2.0000      -0.864966       -23.5369
  29   2.0000      -0.853361       -23.2211
  30   2.0000      -0.845849       -23.0167
  31   2.0000      -0.816417       -22.2158
  32   2.0000      -0.789466       -21.4825
  33   2.0000      -0.773166       -21.0389
  34   2.0000      -0.715756       -19.4767
  35   2.0000      -0.701958       -19.1012
  36   2.0000      -0.692335       -18.8394
  37   2.0000      -0.665269       -18.1029
  38   2.0000      -0.643692       -17.5157
  39   2.0000      -0.619496       -16.8574
  40   2.0000      -0.595252       -16.1976
  41   2.0000      -0.570682       -15.5291
  42   2.0000      -0.569270       -15.4906
  43   2.0000      -0.555248       -15.1091
  44   2.0000      -0.538900       -14.6642
  45   2.0000      -0.527915       -14.3653
  46   2.0000      -0.521975       -14.2037
  47   2.0000      -0.519391       -14.1334
  48   2.0000      -0.503992       -13.7143
  49   2.0000      -0.499006       -13.5786
  50   2.0000      -0.491000       -13.3608
  51   2.0000      -0.483696       -13.1620
  52   2.0000      -0.469214       -12.7680
  53   2.0000      -0.462333       -12.5807
  54   2.0000      -0.460475       -12.5302
  55   2.0000      -0.453256       -12.3337
  56   2.0000      -0.447498       -12.1770
  57   2.0000      -0.445937       -12.1346
  58   2.0000      -0.433854       -11.8058
  59   2.0000      -0.426922       -11.6171
  60   2.0000      -0.417508       -11.3610
  61   2.0000      -0.408141       -11.1061
  62   2.0000      -0.401808       -10.9338
  63   2.0000      -0.354549        -9.6478
  64   2.0000      -0.330794        -9.0014
  65   2.0000      -0.326591        -8.8870
  66   2.0000      -0.285028        -7.7560
  67   0.0000       0.023616         0.6426
  68   0.0000       0.079501         2.1633
  69   0.0000       0.097431         2.6512
  70   0.0000       0.119064         3.2399
  71   0.0000       0.142633         3.8812

MULLIKEN ATOMIC CHARGES
-----------------------
   0 S :    0.104032
   1 C :   -0.131822
   2 C :   -0.085801
   3 C :   -0.001217
   4 C :   -0.111253
   5 H :    0.010853
   6 C :    0.085348
   7 H :    0.041311
   8 H :    0.017577
   9 C :   -0.050390
  10 H :   -0.003985
  11 H :    0.003938
  12 C :    0.000360
  13 H :    0.028687
  14 H :    0.028212
  15 H :    0.029125
  16 S :    0.095118
  17 C :   -0.053861
  18 C :   -0.012778
  19 C :   -0.098160
  20 C :   -0.131351
  21 H :    0.000521
  22 C :    0.138740
  23 H :    0.007923
  24 H :   -0.020295
  25 C :   -0.079272
  26 H :    0.031864
  27 H :    0.030166
  28 C :   -0.057947
  29 H :    0.028413
  30 H :    0.038806
  31 H :    0.041202
  32 H :    0.050333
  33 H :    0.025607
Sum of atomic charges:    0.0000000

LOEWDIN ATOMIC CHARGES
----------------------
   0 S :    0.393965
   1 C :   -0.186871
   2 C :   -0.055541
   3 C :   -0.057783
   4 C :   -0.193404
   5 H :    0.022275
   6 C :   -0.029290
   7 H :    0.035505
   8 H :    0.035992
   9 C :   -0.043585
  10 H :    0.019169
  11 H :    0.023295
  12 C :   -0.056871
  13 H :    0.017429
  14 H :    0.024948
  15 H :    0.033429
  16 S :    0.409020
  17 C :   -0.172957
  18 C :   -0.062198
  19 C :   -0.061403
  20 C :   -0.201807
  21 H :    0.022210
  22 C :   -0.028706
  23 H :    0.024863
  24 H :    0.017518
  25 C :   -0.033007
  26 H :    0.025650
  27 H :    0.026981
  28 C :   -0.073289
  29 H :    0.019974
  30 H :    0.034946
  31 H :    0.029830
  32 H :    0.023109
  33 H :    0.016603

  Mayer bond orders larger than 0.100000
B(  0-S ,  1-C ) :   1.1376 B(  0-S ,  4-C ) :   1.1425 B(  1-C ,  2-C ) :   1.5889
B(  1-C , 32-H ) :   0.9698 B(  2-C ,  3-C ) :   1.2408 B(  2-C ,  6-C ) :   1.0189
B(  3-C ,  4-C ) :   1.5878 B(  3-C ,  5-H ) :   0.9862 B(  4-C , 20-C ) :   1.0230
B(  6-C ,  7-H ) :   0.9423 B(  6-C ,  8-H ) :   0.9369 B(  6-C ,  9-C ) :   1.0699
B(  9-C , 10-H ) :   0.9442 B(  9-C , 11-H ) :   0.9430 B(  9-C , 12-C ) :   1.0860
B( 12-C , 13-H ) :   0.9780 B( 12-C , 14-H ) :   0.9660 B( 12-C , 15-H ) :   0.9662
B( 16-S , 17-C ) :   1.1464 B( 16-S , 20-C ) :   1.1411 B( 17-C , 18-C ) :   1.6082
B( 17-C , 33-H ) :   0.9744 B( 18-C , 19-C ) :   1.2653 B( 18-C , 21-H ) :   0.9932
B( 19-C , 20-C ) :   1.5815 B( 19-C , 22-C ) :   1.0495 B( 22-C , 23-H ) :   0.9292
B( 22-C , 24-H ) :   0.9182 B( 22-C , 25-C ) :   1.0749 B( 25-C , 26-H ) :   0.9493
B( 25-C , 27-H ) :   0.9598 B( 25-C , 28-C ) :   1.0710 B( 28-C , 29-H ) :   0.9744
B( 28-C , 30-H ) :   0.9749 B( 28-C , 31-H ) :   0.9775

Dispersion correction           -0.014193266
FINAL SINGLE POINT ENERGY     -1339.850961522326

DIPOLE MOMENT
-------------
                                X             Y             Z
Electronic contribution:     11.99614      21.51420       3.92233
Nuclear contribution   :    -12.29199     -22.14538      -4.18713
                        -----------------------------------------
Total Dipole Moment    :     -0.29585      -0.63118      -0.26480
                        -----------------------------------------
Magnitude (a.u.)       :      0.74568
Magnitude (Debye)      :      1.89536

Rotational constants in cm-1:     0.018620     0.008499     0.006699
Rotational constants in MHz :   558.208891   254.798248   200.840694

                             ****ORCA TERMINATED NORMALLY****
TOTAL RUN TIME: 0 days 0 hours 0 minutes 34 seconds 567 msec
