                         Program Version 4.2.1 -  RELEASE  -
|  1> ! wB97X-D3 SP def2-SVP
|  2> %pal
|  3> nprocs 16
|  4> end
|  5>
|  6> * xyz 0 1
|  7> S 	 -40.6185 	 35.4661 	 84.4408
|  8> C 	 -42.0537 	 35.97 	 85.2074
|  9> C 	 -42.7524 	 34.8267 	 85.5926
| 10> C 	 -42.0926 	 33.5733 	 85.2787
| 11> C 	 -40.911 	 33.7607 	 84.7212
| 12> H 	 -42.3039 	 32.5574 	 85.6267
| 13> C 	 -44.0287 	 34.706 	 86.2695
| 14> H 	 -44.0729 	 35.3447 	 87.1688
| 15> H 	 -43.9555 	 33.6799 	 86.6988
| 16> C 	 -45.2882 	 34.6833 	 85.4063
| 17> H 	 -46.0742 	 34.8995 	 86.091
| 18> H 	 -45.1861 	 35.4443 	 84.654
| 19> C 	 -45.4711 	 33.3791 	 84.6141
| 20> H 	 -46.2084 	 33.3865 	 83.8645
| 21> H 	 -44.5649 	 33.1658 	 84.0637
| 22> H 	 -45.7293 	 32.5037 	 85.2625
| 23> S 	 -38.3922 	 32.8313 	 85.5766
| 24> C 	 -37.9772 	 31.2564 	 85.1316
| 25> C 	 -38.9148 	 30.5816 	 84.3805
| 26> C 	 -40.0351 	 31.4256 	 84.0696
| 27> C 	 -39.9121 	 32.6662 	 84.7076
| 28> H 	 -38.7032 	 29.5585 	 84.0126
| 29> C 	 -41.2155 	 30.8605 	 83.2229
| 30> H 	 -40.8406 	 30.481 	 82.2221
| 31> H 	 -41.9 	 31.6022 	 82.8348
| 32> C 	 -42.0691 	 29.8132 	 83.9546
| 33> H 	 -42.4877 	 30.1323 	 84.9171
| 34> H 	 -41.3803 	 29.035 	 84.225
| 35> C 	 -43.1573 	 29.1924 	 83.1185
| 36> H 	 -43.8527 	 29.9418 	 82.7552
| 37> H 	 -43.7603 	 28.5148 	 83.7667
| 38> H 	 -42.6469 	 28.6381 	 82.3429
| 39> H 	 -42.5006 	 36.9558 	 85.299
| 40> H 	 -36.945 	 30.8732 	 85.4414
| 41> *
| 42>
| 43>                          ****END OF INPUT****

CARTESIAN COORDINATES (ANGSTROEM)
---------------------------------
  S    -40.618500   35.466100   84.440800
  C    -42.053700   35.970000   85.207400
  C    -42.752400   34.826700   85.592600
  C    -42.092600   33.573300   85.278700
  C    -40.911000   33.760700   84.721200
  H    -42.303900   32.557400   85.626700
  C    -44.028700   34.706000   86.269500
  H    -44.072900   35.344700   87.168800
  H    -43.955500   33.679900   86.698800
  C    -45.288200   34.683300   85.406300
  H    -46.074200   34.899500   86.091000
  H    -45.186100   35.444300   84.654000
  C    -45.471100   33.379100   84.614100
  H    -46.208400   33.386500   83.864500
  H    -44.564900   33.165800   84.063700
  H    -45.729300   32.503700   85.262500
  S    -38.392200   32.831300   85.576600
  C    -37.977200   31.256400   85.131600
  C    -38.914800   30.581600   84.380500
  C    -40.035100   31.425600   84.069600
  C    -39.912100   32.666200   84.707600
  H    -38.703200   29.558500   84.012600
  C    -41.215500   30.860500   83.222900
  H    -40.840600   30.481000   82.222100
  H    -41.900000   31.602200   82.834800
  C    -42.069100   29.813200   83.954600
  H    -42.487700   30.132300   84.917100
  H    -41.380300   29.035000   84.225000
  C    -43.157300   29.192400   83.118500
  H    -43.852700   29.941800   82.755200
  H    -43.760300   28.514800   83.766700
  H    -42.646900   28.638100   82.342900
  H    -42.500600   36.955800   85.299000
  H    -36.945000   30.873200   85.441400

 Total Charge           Charge          ....    0
 Multiplicity           Mult            ....    1
 Number of Electrons    NEL             ....  134
 Basis Dimension        Dim             ....  322

ORBITAL ENERGIES
----------------

  NO   OCC          E(Eh)            E(eV)
   0   2.0000     -88.967837     -2420.9379
   1   2.0000     -88.963362     -2420.8161
   2   2.0000     -10.328742      -281.0594
   3   2.0000     -10.319990      -280.8212
   4   2.0000     -10.318164      -280.7715
   5   2.0000     -10.313306      -280.6393
   6   2.0000     -10.309413      -280.5334
   7   2.0000     -10.299036      -280.2510
   8   2.0000     -10.296368      -280.1784
   9   2.0000     -10.295137      -280.1449
  10   2.0000     -10.284893      -279.8662
  11   2.0000     -10.283246      -279.8213
  12   2.0000     -10.282928      -279.8127
  13   2.0000     -10.282139      -279.7912
  14   2.0000     -10.279209      -279.7115
  15   2.0000     -10.274825      -279.5922
  16   2.0000      -8.083688      -219.9683
  17   2.0000      -8.078822      -219.8359
  18   2.0000      -6.041949      -164.4098
  19   2.0000      -6.038095      -164.3049
  20   2.0000      -6.037451      -164.2874
  21   2.0000      -6.034588      -164.2095
  22   2.0000      -6.033117      -164.1695
  23   2.0000      -6.029507      -164.0712
  24   2.0000      -1.012030       -27.5387
  25   2.0000      -0.991200       -26.9719
  26   2.0000      -0.916323       -24.9344
  27   2.0000      -0.911028       -24.7903
  28   2.0000      -0.873845       -23.7785
  29   2.0000      -0.855194       -23.2710
  30   2.0000      -0.847370       -23.0581
  31   2.0000      -0.813500       -22.1365
  32   2.0000      -0.782824       -21.3017
  33   2.0000      -0.770236       -20.9592
  34   2.0000      -0.709318       -19.3015
  35   2.0000      -0.698352       -19.0031
  36   2.0000      -0.688812       -18.7435
  37   2.0000      -0.657135       -17.8816
  38   2.0000      -0.641278       -17.4501
  39   2.0000      -0.615786       -16.7564
  40   2.0000      -0.599224       -16.3057
  41   2.0000      -0.574537       -15.6339
  42   2.0000      -0.568033       -15.4570
  43   2.0000      -0.549065       -14.9408
  44   2.0000      -0.541405       -14.7324
  45   2.0000      -0.523571       -14.2471
  46   2.0000      -0.518150       -14.0996
  47   2.0000      -0.510909       -13.9025
  48   2.0000      -0.502086       -13.6625
  49   2.0000      -0.495200       -13.4751
  50   2.0000      -0.486593       -13.2409
  51   2.0000      -0.483780       -13.1643
  52   2.0000      -0.469796       -12.7838
  53   2.0000      -0.468016       -12.7354
  54   2.0000      -0.460364       -12.5272
  55   2.0000      -0.452906       -12.3242
  56   2.0000      -0.444048       -12.0832
  57   2.0000      -0.438109       -11.9216
  58   2.0000      -0.436459       -11.8767
  59   2.0000      -0.432014       -11.7557
  60   2.0000      -0.416156       -11.3242
  61   2.0000      -0.410442       -11.1687
  62   2.0000      -0.405792       -11.0422
  63   2.0000      -0.352953        -9.6043
  64   2.0000      -0.335483        -9.1290
  65   2.0000      -0.320718        -8.7272
  66   2.0000      -0.295996        -8.0545
  67   0.0000       0.038093         1.0366
  68   0.0000       0.073772         2.0074
  69   0.0000       0.120626         3.2824
  70   0.0000       0.122239         3.3263
  71   0.0000       0.125245         3.4081

MULLIKEN ATOMIC CHARGES
-----------------------
   0 S :    0.104407
   1 C :   -0.087143
   2 C :   -0.127730
   3 C :    0.016899
   4 C :   -0.130225
   5 H :    0.026216
   6 C :    0.022876
   7 H :    0.032785
   8 H :    0.013194
   9 C :    0.002996
  10 H :    0.026287
  11 H :    0.017493
  12 C :   -0.059261
  13 H :    0.019741
  14 H :    0.032553
  15 H :    0.030567
  16 S :    0.134152
  17 C :   -0.128644
  18 C :   -0.038316
  19 C :   -0.019799
  20 C :   -0.181106
  21 H :    0.034431
  22 C :    0.049925
  23 H :    0.032666
  24 H :    0.013479
  25 C :   -0.083733
  26 H :    0.028155
  27 H :    0.015119
  28 C :   -0.030753
  29 H :    0.032653
  30 H :    0.036582
  31 H :    0.032898
  32 H :    0.050235
  33 H :    0.080400
Sum of atomic charges:   -0.0000000

LOEWDIN ATOMIC CHARGES
----------------------
   0 S :    0.413389
   1 C :   -0.213454
   2 C :   -0.068058
   3 C :   -0.065593
   4 C :   -0.195029
   5 H :    0.037713
   6 C :   -0.046197
   7 H :    0.032439
   8 H :    0.034208
   9 C :   -0.028848
  10 H :    0.021885
  11 H :    0.021489
  12 C :   -0.065508
  13 H :    0.018538
  14 H :    0.025831
  15 H :    0.027340
  16 S :    0.431283
  17 C :   -0.212628
  18 C :   -0.080853
  19 C :   -0.051331
  20 C :   -0.195483
  21 H :    0.038692
  22 C :   -0.035653
  23 H :    0.038007
  24 H :    0.024154
  25 C :   -0.044911
  26 H :    0.021866
  27 H :    0.019112
  28 C :   -0.060409
  29 H :    0.023276
  30 H :    0.032360
  31 H :    0.025089
  32 H :    0.037059
  33 H :    0.040227

  Mayer bond orders larger than 0.100000
B(  0-S ,  1-C ) :   1.1256 B(  0-S ,  4-C ) :   1.1433 B(  1-C ,  2-C ) :   1.6109
B(  1-C , 32-H ) :   0.9726 B(  2-C ,  3-C ) :   1.2269 B(  2-C ,  6-C ) :   1.0426
B(  3-C ,  4-C ) :   1.6137 B(  3-C ,  5-H ) :   0.9789 B(  4-C , 20-C ) :   1.0148
B(  6-C ,  7-H ) :   0.9394 B(  6-C ,  8-H ) :   0.9373 B(  6-C ,  9-C ) :   1.0575
B(  9-C , 10-H ) :   0.9562 B(  9-C , 11-H ) :   0.9556 B(  9-C , 12-C ) :   1.0811
B( 12-C , 13-H ) :   0.9730 B( 12-C , 14-H ) :   0.9712 B( 12-C , 15-H ) :   0.9735
B( 16-S , 17-C ) :   1.1782 B( 16-S , 20-C ) :   1.1492 B( 17-C , 18-C ) :   1.6029
B( 17-C , 33-H ) :   0.9553 B( 18-C , 19-C ) :   1.2361 B( 18-C , 21-H ) :   0.9871
B( 19-C , 20-C ) :   1.6090 B( 19-C , 22-C ) :   1.0370 B( 22-C , 23-H ) :   0.9385
B( 22-C , 24-H ) :   0.9346 B( 22-C , 25-C ) :   1.0541 B( 25-C , 26-H ) :   0.9527
B( 25-C , 27-H ) :   0.9527 B( 25-C , 28-C ) :   1.0898 B( 28-C , 29-H ) :   0.9746
B( 28-C , 30-H ) :   0.9721 B( 28-C , 31-H ) :   0.9747

Dispersion correction           -0.015093008
FINAL SINGLE POINT ENERGY     -1339.872035877871

DIPOLE MOMENT
-------------
                                X             Y             Z
Electronic contribution:     27.06282      15.36110       4.22562
Nuclear contribution   :    -27.50183     -15.78016      -4.16603
                        -----------------------------------------
Total Dipole Moment    :     -0.43901      -0.41906       0.05959
                        -----------------------------------------
Magnitude (a.u.)       :      0.60983
Magnitude (Debye)      :      1.55007

Rotational constants in cm-1:     0.016168     0.010833     0.007085
Rotational constants in MHz :   484.699662   324.764419   212.395557

                             ****ORCA TERMINATED NORMALLY****
TOTAL RUN TIME: 0 days 0 hours 0 minutes 31 seconds 666 msec
