                         Program Version 4.2.1 -  RELEASE  -
|  1> ! wB97X-D3 SP def2-SVP
|  2> %pal
|  3> nprocs 16
|  4> end
|  5>
|  6> * xyz 0 1
|  7> S 	 -6.07268 	 28.7249 	 47.5087
|  8> C 	 -4.48909 	 28.3802 	 48.2553
|  9> C 	 -3.47496 	 28.5539 	 47.3019
| 10> C 	 -4.03433 	 28.8869 	 46.0175
| 11> C 	 -5.36258 	 29.151 	 45.9966
| 12> H 	 -3.45606 	 28.8322 	 45.0925
| 13> C 	 -2.01461 	 28.1959 	 47.4579
| 14> H 	 -1.83688 	 27.9221 	 48.5399
| 15> H 	 -1.40685 	 29.0495 	 47.2791
| 16> C 	 -1.59712 	 26.8845 	 46.6475
| 17> H 	 -1.68263 	 26.9644 	 45.5736
| 18> H 	 -0.532348 	 26.8375 	 46.8467
| 19> C 	 -2.32356 	 25.6725 	 47.3325
| 20> H 	 -2.25081 	 25.6933 	 48.3824
| 21> H 	 -3.38171 	 25.6237 	 47.2073
| 22> H 	 -2.02241 	 24.6349 	 47.0291
| 23> S 	 -7.60363 	 28.4464 	 44.5559
| 24> C 	 -8.13037 	 29.4825 	 43.234
| 25> C 	 -7.17533 	 30.3455 	 42.8094
| 26> C 	 -6.02532 	 30.3187 	 43.6335
| 27> C 	 -6.16862 	 29.4821 	 44.7932
| 28> H 	 -7.36679 	 30.8313 	 41.8707
| 29> C 	 -4.81468 	 31.1422 	 43.3325
| 30> H 	 -4.8343 	 31.2932 	 42.2748
| 31> H 	 -3.98837 	 30.4496 	 43.4853
| 32> C 	 -4.75205 	 32.4402 	 44.1915
| 33> H 	 -4.56234 	 32.0708 	 45.2091
| 34> H 	 -5.78282 	 32.842 	 44.1983
| 35> C 	 -3.73636 	 33.4799 	 43.739
| 36> H 	 -3.78264 	 34.4221 	 44.3622
| 37> H 	 -4.00603 	 33.8551 	 42.6845
| 38> H 	 -2.71754 	 33.2113 	 43.7723
| 39> H 	 -4.25024 	 28.1341 	 49.2773
| 40> H 	 -9.06426 	 29.4397 	 42.6672
| 41> *
| 42>
| 43>                          ****END OF INPUT****

CARTESIAN COORDINATES (ANGSTROEM)
---------------------------------
  S     -6.072680   28.724900   47.508700
  C     -4.489090   28.380200   48.255300
  C     -3.474960   28.553900   47.301900
  C     -4.034330   28.886900   46.017500
  C     -5.362580   29.151000   45.996600
  H     -3.456060   28.832200   45.092500
  C     -2.014610   28.195900   47.457900
  H     -1.836880   27.922100   48.539900
  H     -1.406850   29.049500   47.279100
  C     -1.597120   26.884500   46.647500
  H     -1.682630   26.964400   45.573600
  H     -0.532348   26.837500   46.846700
  C     -2.323560   25.672500   47.332500
  H     -2.250810   25.693300   48.382400
  H     -3.381710   25.623700   47.207300
  H     -2.022410   24.634900   47.029100
  S     -7.603630   28.446400   44.555900
  C     -8.130370   29.482500   43.234000
  C     -7.175330   30.345500   42.809400
  C     -6.025320   30.318700   43.633500
  C     -6.168620   29.482100   44.793200
  H     -7.366790   30.831300   41.870700
  C     -4.814680   31.142200   43.332500
  H     -4.834300   31.293200   42.274800
  H     -3.988370   30.449600   43.485300
  C     -4.752050   32.440200   44.191500
  H     -4.562340   32.070800   45.209100
  H     -5.782820   32.842000   44.198300
  C     -3.736360   33.479900   43.739000
  H     -3.782640   34.422100   44.362200
  H     -4.006030   33.855100   42.684500
  H     -2.717540   33.211300   43.772300
  H     -4.250240   28.134100   49.277300
  H     -9.064260   29.439700   42.667200

 Total Charge           Charge          ....    0
 Multiplicity           Mult            ....    1
 Number of Electrons    NEL             ....  134
 Basis Dimension        Dim             ....  322

ORBITAL ENERGIES
----------------

  NO   OCC          E(Eh)            E(eV)
   0   2.0000     -88.968207     -2420.9480
   1   2.0000     -88.965272     -2420.8681
   2   2.0000     -10.334056      -281.2040
   3   2.0000     -10.330127      -281.0971
   4   2.0000     -10.319208      -280.7999
   5   2.0000     -10.313768      -280.6519
   6   2.0000     -10.307316      -280.4763
   7   2.0000     -10.303343      -280.3682
   8   2.0000     -10.299610      -280.2666
   9   2.0000     -10.298576      -280.2385
  10   2.0000     -10.290785      -280.0265
  11   2.0000     -10.288758      -279.9713
  12   2.0000     -10.288692      -279.9695
  13   2.0000     -10.285355      -279.8787
  14   2.0000     -10.283500      -279.8283
  15   2.0000     -10.276531      -279.6386
  16   2.0000      -8.082534      -219.9369
  17   2.0000      -8.079232      -219.8471
  18   2.0000      -6.041191      -164.3892
  19   2.0000      -6.037768      -164.2960
  20   2.0000      -6.037083      -164.2774
  21   2.0000      -6.033967      -164.1926
  22   2.0000      -6.033147      -164.1703
  23   2.0000      -6.029893      -164.0817
  24   2.0000      -1.004528       -27.3346
  25   2.0000      -0.982141       -26.7254
  26   2.0000      -0.908495       -24.7214
  27   2.0000      -0.905217       -24.6322
  28   2.0000      -0.865901       -23.5624
  29   2.0000      -0.847350       -23.0576
  30   2.0000      -0.840861       -22.8810
  31   2.0000      -0.816806       -22.2264
  32   2.0000      -0.781799       -21.2738
  33   2.0000      -0.768773       -20.9194
  34   2.0000      -0.715736       -19.4762
  35   2.0000      -0.705371       -19.1941
  36   2.0000      -0.691769       -18.8240
  37   2.0000      -0.656476       -17.8636
  38   2.0000      -0.638478       -17.3739
  39   2.0000      -0.622753       -16.9460
  40   2.0000      -0.586887       -15.9700
  41   2.0000      -0.571686       -15.5564
  42   2.0000      -0.558643       -15.2015
  43   2.0000      -0.554873       -15.0989
  44   2.0000      -0.533758       -14.5243
  45   2.0000      -0.518522       -14.1097
  46   2.0000      -0.511195       -13.9103
  47   2.0000      -0.507498       -13.8097
  48   2.0000      -0.504132       -13.7181
  49   2.0000      -0.499594       -13.5947
  50   2.0000      -0.486519       -13.2389
  51   2.0000      -0.482038       -13.1169
  52   2.0000      -0.467942       -12.7333
  53   2.0000      -0.461082       -12.5467
  54   2.0000      -0.458756       -12.4834
  55   2.0000      -0.449352       -12.2275
  56   2.0000      -0.444519       -12.0960
  57   2.0000      -0.437630       -11.9085
  58   2.0000      -0.435139       -11.8407
  59   2.0000      -0.427148       -11.6233
  60   2.0000      -0.422923       -11.5083
  61   2.0000      -0.416525       -11.3342
  62   2.0000      -0.413177       -11.2431
  63   2.0000      -0.348086        -9.4719
  64   2.0000      -0.329832        -8.9752
  65   2.0000      -0.327956        -8.9241
  66   2.0000      -0.288185        -7.8419
  67   0.0000       0.022721         0.6183
  68   0.0000       0.071872         1.9557
  69   0.0000       0.101809         2.7704
  70   0.0000       0.122012         3.3201
  71   0.0000       0.131955         3.5907

MULLIKEN ATOMIC CHARGES
-----------------------
   0 S :    0.110218
   1 C :   -0.115336
   2 C :   -0.089209
   3 C :   -0.003071
   4 C :   -0.113659
   5 H :    0.022162
   6 C :    0.029816
   7 H :    0.023404
   8 H :    0.034175
   9 C :   -0.047690
  10 H :    0.041382
  11 H :    0.033661
  12 C :   -0.046973
  13 H :    0.008594
  14 H :    0.033969
  15 H :    0.034472
  16 S :    0.095364
  17 C :   -0.082516
  18 C :   -0.040284
  19 C :   -0.066080
  20 C :   -0.159803
  21 H :    0.016901
  22 C :    0.099554
  23 H :    0.002491
  24 H :    0.014971
  25 C :   -0.058532
  26 H :    0.039024
  27 H :    0.036779
  28 C :   -0.054015
  29 H :    0.038962
  30 H :    0.035223
  31 H :    0.028982
  32 H :    0.043926
  33 H :    0.053139
Sum of atomic charges:    0.0000000

LOEWDIN ATOMIC CHARGES
----------------------
   0 S :    0.405523
   1 C :   -0.191904
   2 C :   -0.061235
   3 C :   -0.069776
   4 C :   -0.206283
   5 H :    0.030617
   6 C :   -0.030043
   7 H :    0.033628
   8 H :    0.025078
   9 C :   -0.027203
  10 H :    0.021976
  11 H :    0.026539
  12 C :   -0.068470
  13 H :    0.017370
  14 H :    0.025238
  15 H :    0.030854
  16 S :    0.386282
  17 C :   -0.180029
  18 C :   -0.077778
  19 C :   -0.048906
  20 C :   -0.186038
  21 H :    0.035283
  22 C :   -0.033797
  23 H :    0.023298
  24 H :    0.027099
  25 C :   -0.038174
  26 H :    0.029406
  27 H :    0.030549
  28 C :   -0.073658
  29 H :    0.033718
  30 H :    0.032204
  31 H :    0.017455
  32 H :    0.028525
  33 H :    0.032651

  Mayer bond orders larger than 0.100000
B(  0-S ,  1-C ) :   1.1256 B(  0-S ,  4-C ) :   1.1488 B(  1-C ,  2-C ) :   1.6100
B(  1-C , 32-H ) :   0.9678 B(  2-C ,  3-C ) :   1.2331 B(  2-C ,  6-C ) :   1.0342
B(  3-C ,  4-C ) :   1.5829 B(  3-C ,  5-H ) :   0.9875 B(  4-C , 20-C ) :   1.0396
B(  6-C ,  7-H ) :   0.9472 B(  6-C ,  8-H ) :   0.9396 B(  6-C ,  9-C ) :   1.0578
B(  9-C , 10-H ) :   0.9637 B(  9-C , 11-H ) :   0.9578 B(  9-C , 12-C ) :   1.0512
B( 12-C , 13-H ) :   0.9760 B( 12-C , 14-H ) :   0.9769 B( 12-C , 15-H ) :   0.9762
B( 16-S , 17-C ) :   1.1455 B( 16-S , 20-C ) :   1.1430 B( 17-C , 18-C ) :   1.6333
B( 17-C , 20-C ) :   0.1039 B( 17-C , 33-H ) :   0.9595 B( 18-C , 19-C ) :   1.2431
B( 18-C , 21-H ) :   0.9923 B( 19-C , 20-C ) :   1.5618 B( 19-C , 22-C ) :   1.0453
B( 22-C , 23-H ) :   0.9282 B( 22-C , 24-H ) :   0.9282 B( 22-C , 25-C ) :   1.0478
B( 25-C , 26-H ) :   0.9525 B( 25-C , 27-H ) :   0.9584 B( 25-C , 28-C ) :   1.0835
B( 28-C , 29-H ) :   0.9728 B( 28-C , 30-H ) :   0.9734 B( 28-C , 31-H ) :   0.9754

Dispersion correction           -0.014582607
FINAL SINGLE POINT ENERGY     -1339.865192956715

DIPOLE MOMENT
-------------
                                X             Y             Z
Electronic contribution:    -22.73819      -5.36624       3.03378
Nuclear contribution   :     23.34931       5.42783      -3.32909
                        -----------------------------------------
Total Dipole Moment    :      0.61111       0.06158      -0.29531
                        -----------------------------------------
Magnitude (a.u.)       :      0.68151
Magnitude (Debye)      :      1.73227

Rotational constants in cm-1:     0.017790     0.008926     0.007100
Rotational constants in MHz :   533.325467   267.583341   212.859888

                             ****ORCA TERMINATED NORMALLY****
TOTAL RUN TIME: 0 days 0 hours 0 minutes 34 seconds 896 msec
