                         Program Version 4.2.1 -  RELEASE  -
|  1> ! wB97X-D3 SP def2-SVP
|  2> %pal
|  3> nprocs 16
|  4> end
|  5>
|  6> * xyz 0 1
|  7> S 	 -102.117 	 41.8935 	 124.239
|  8> C 	 -100.863 	 40.7842 	 124.636
|  9> C 	 -100.25 	 41.3201 	 125.766
| 10> C 	 -100.779 	 42.6197 	 126.322
| 11> C 	 -101.692 	 43.1522 	 125.435
| 12> H 	 -100.425 	 43.2097 	 127.202
| 13> C 	 -99.1575 	 40.6746 	 126.524
| 14> H 	 -98.7959 	 41.467 	 127.145
| 15> H 	 -98.3421 	 40.5513 	 125.814
| 16> C 	 -99.441 	 39.4965 	 127.491
| 17> H 	 -100.229 	 39.6388 	 128.198
| 18> H 	 -99.7455 	 38.6726 	 126.886
| 19> C 	 -98.2563 	 38.9678 	 128.326
| 20> H 	 -97.9882 	 39.7734 	 129.049
| 21> H 	 -98.5994 	 38.1739 	 129.036
| 22> H 	 -97.3823 	 38.6613 	 127.725
| 23> S 	 -104.223 	 44.4243 	 125.272
| 24> C 	 -104.366 	 46.0867 	 125.481
| 25> C 	 -103.112 	 46.5943 	 125.656
| 26> C 	 -102.008 	 45.6973 	 125.681
| 27> C 	 -102.447 	 44.3848 	 125.387
| 28> H 	 -102.998 	 47.6373 	 125.789
| 29> C 	 -100.564 	 46.0297 	 125.898
| 30> H 	 -99.9063 	 45.1744 	 126.094
| 31> H 	 -100.484 	 46.6842 	 126.689
| 32> C 	 -100.029 	 46.7487 	 124.692
| 33> H 	 -100.393 	 47.7103 	 124.385
| 34> H 	 -100.274 	 46.1549 	 123.845
| 35> C 	 -98.4625 	 46.9089 	 124.691
| 36> H 	 -97.9804 	 45.914 	 124.398
| 37> H 	 -97.9347 	 47.3355 	 125.56
| 38> H 	 -98.3562 	 47.6226 	 123.909
| 39> H 	 -100.672 	 39.7934 	 124.145
| 40> H 	 -105.233 	 46.6594 	 125.683
| 41> *
| 42>
| 43>                          ****END OF INPUT****

CARTESIAN COORDINATES (ANGSTROEM)
---------------------------------
  S    -102.117000   41.893500  124.239000
  C    -100.863000   40.784200  124.636000
  C    -100.250000   41.320100  125.766000
  C    -100.779000   42.619700  126.322000
  C    -101.692000   43.152200  125.435000
  H    -100.425000   43.209700  127.202000
  C    -99.157500   40.674600  126.524000
  H    -98.795900   41.467000  127.145000
  H    -98.342100   40.551300  125.814000
  C    -99.441000   39.496500  127.491000
  H    -100.229000   39.638800  128.198000
  H    -99.745500   38.672600  126.886000
  C    -98.256300   38.967800  128.326000
  H    -97.988200   39.773400  129.049000
  H    -98.599400   38.173900  129.036000
  H    -97.382300   38.661300  127.725000
  S    -104.223000   44.424300  125.272000
  C    -104.366000   46.086700  125.481000
  C    -103.112000   46.594300  125.656000
  C    -102.008000   45.697300  125.681000
  C    -102.447000   44.384800  125.387000
  H    -102.998000   47.637300  125.789000
  C    -100.564000   46.029700  125.898000
  H    -99.906300   45.174400  126.094000
  H    -100.484000   46.684200  126.689000
  C    -100.029000   46.748700  124.692000
  H    -100.393000   47.710300  124.385000
  H    -100.274000   46.154900  123.845000
  C    -98.462500   46.908900  124.691000
  H    -97.980400   45.914000  124.398000
  H    -97.934700   47.335500  125.560000
  H    -98.356200   47.622600  123.909000
  H    -100.672000   39.793400  124.145000
  H    -105.233000   46.659400  125.683000

 Total Charge           Charge          ....    0
 Multiplicity           Mult            ....    1
 Number of Electrons    NEL             ....  134
 Basis Dimension        Dim             ....  322

ORBITAL ENERGIES
----------------

  NO   OCC          E(Eh)            E(eV)
   0   2.0000     -88.965538     -2420.8754
   1   2.0000     -88.957772     -2420.6641
   2   2.0000     -10.335792      -281.2512
   3   2.0000     -10.329748      -281.0867
   4   2.0000     -10.319833      -280.8169
   5   2.0000     -10.312460      -280.6163
   6   2.0000     -10.307378      -280.4780
   7   2.0000     -10.306943      -280.4662
   8   2.0000     -10.306346      -280.4499
   9   2.0000     -10.288451      -279.9630
  10   2.0000     -10.285342      -279.8784
  11   2.0000     -10.284617      -279.8587
  12   2.0000     -10.282635      -279.8047
  13   2.0000     -10.282355      -279.7971
  14   2.0000     -10.280598      -279.7493
  15   2.0000     -10.279570      -279.7213
  16   2.0000      -8.080886      -219.8921
  17   2.0000      -8.072936      -219.6758
  18   2.0000      -6.039333      -164.3386
  19   2.0000      -6.035152      -164.2248
  20   2.0000      -6.031784      -164.1332
  21   2.0000      -6.031601      -164.1282
  22   2.0000      -6.027286      -164.0108
  23   2.0000      -6.023548      -163.9091
  24   2.0000      -1.008835       -27.4518
  25   2.0000      -0.985569       -26.8187
  26   2.0000      -0.918777       -25.0012
  27   2.0000      -0.908107       -24.7109
  28   2.0000      -0.874300       -23.7909
  29   2.0000      -0.849973       -23.1289
  30   2.0000      -0.843620       -22.9561
  31   2.0000      -0.818788       -22.2803
  32   2.0000      -0.785466       -21.3736
  33   2.0000      -0.765370       -20.8268
  34   2.0000      -0.706201       -19.2167
  35   2.0000      -0.702988       -19.1293
  36   2.0000      -0.700039       -19.0490
  37   2.0000      -0.660353       -17.9691
  38   2.0000      -0.640700       -17.4343
  39   2.0000      -0.617146       -16.7934
  40   2.0000      -0.602926       -16.4065
  41   2.0000      -0.571122       -15.5410
  42   2.0000      -0.564862       -15.3707
  43   2.0000      -0.560854       -15.2616
  44   2.0000      -0.532290       -14.4843
  45   2.0000      -0.526285       -14.3209
  46   2.0000      -0.521087       -14.1795
  47   2.0000      -0.517487       -14.0815
  48   2.0000      -0.506909       -13.7937
  49   2.0000      -0.506008       -13.7692
  50   2.0000      -0.501451       -13.6452
  51   2.0000      -0.478731       -13.0269
  52   2.0000      -0.471964       -12.8428
  53   2.0000      -0.460223       -12.5233
  54   2.0000      -0.457356       -12.4453
  55   2.0000      -0.453197       -12.3321
  56   2.0000      -0.445187       -12.1141
  57   2.0000      -0.436599       -11.8805
  58   2.0000      -0.433050       -11.7839
  59   2.0000      -0.416025       -11.3206
  60   2.0000      -0.413125       -11.2417
  61   2.0000      -0.409643       -11.1470
  62   2.0000      -0.401637       -10.9291
  63   2.0000      -0.357870        -9.7381
  64   2.0000      -0.328893        -8.9496
  65   2.0000      -0.319907        -8.7051
  66   2.0000      -0.290571        -7.9068
  67   0.0000       0.026667         0.7257
  68   0.0000       0.068796         1.8720
  69   0.0000       0.115650         3.1470
  70   0.0000       0.121098         3.2952
  71   0.0000       0.129053         3.5117

MULLIKEN ATOMIC CHARGES
-----------------------
   0 S :    0.078197
   1 C :   -0.103815
   2 C :   -0.159329
   3 C :    0.024466
   4 C :   -0.156617
   5 H :    0.049031
   6 C :    0.083058
   7 H :   -0.009344
   8 H :    0.028367
   9 C :   -0.025623
  10 H :    0.022555
  11 H :    0.013324
  12 C :   -0.089544
  13 H :    0.028561
  14 H :    0.041531
  15 H :    0.045974
  16 S :    0.117321
  17 C :   -0.058623
  18 C :   -0.041388
  19 C :   -0.055078
  20 C :   -0.136609
  21 H :   -0.003159
  22 C :    0.169862
  23 H :    0.019027
  24 H :   -0.000280
  25 C :   -0.096109
  26 H :    0.020760
  27 H :    0.021666
  28 C :   -0.072308
  29 H :    0.048903
  30 H :    0.038613
  31 H :    0.022088
  32 H :    0.081240
  33 H :    0.053280
Sum of atomic charges:   -0.0000000

LOEWDIN ATOMIC CHARGES
----------------------
   0 S :    0.392709
   1 C :   -0.214603
   2 C :   -0.064547
   3 C :   -0.070960
   4 C :   -0.173250
   5 H :    0.042921
   6 C :   -0.044819
   7 H :    0.022959
   8 H :    0.034479
   9 C :   -0.036626
  10 H :    0.024726
  11 H :    0.016328
  12 C :   -0.072225
  13 H :    0.024846
  14 H :    0.033087
  15 H :    0.026179
  16 S :    0.429572
  17 C :   -0.200251
  18 C :   -0.074706
  19 C :   -0.042625
  20 C :   -0.205594
  21 H :    0.021042
  22 C :   -0.025183
  23 H :    0.035543
  24 H :    0.020978
  25 C :   -0.034338
  26 H :    0.019793
  27 H :    0.024564
  28 C :   -0.072299
  29 H :    0.033000
  30 H :    0.024385
  31 H :    0.021919
  32 H :    0.049788
  33 H :    0.033209

  Mayer bond orders larger than 0.100000
B(  0-S ,  1-C ) :   1.1209 B(  0-S ,  4-C ) :   1.1460 B(  1-C ,  2-C ) :   1.6083
B(  1-C , 32-H ) :   0.9706 B(  2-C ,  3-C ) :   1.2007 B(  2-C ,  6-C ) :   1.0468
B(  3-C ,  4-C ) :   1.5872 B(  3-C ,  5-H ) :   0.9763 B(  4-C , 20-C ) :   1.0500
B(  6-C ,  7-H ) :   0.9313 B(  6-C ,  8-H ) :   0.9346 B(  6-C ,  9-C ) :   1.0524
B(  9-C , 10-H ) :   0.9552 B(  9-C , 11-H ) :   0.9556 B(  9-C , 12-C ) :   1.0860
B( 12-C , 13-H ) :   0.9755 B( 12-C , 14-H ) :   0.9728 B( 12-C , 15-H ) :   0.9762
B( 16-S , 17-C ) :   1.1748 B( 16-S , 20-C ) :   1.1484 B( 17-C , 18-C ) :   1.5707
B( 17-C , 33-H ) :   0.9719 B( 18-C , 19-C ) :   1.2786 B( 18-C , 21-H ) :   0.9937
B( 19-C , 20-C ) :   1.5369 B( 19-C , 22-C ) :   1.0620 B( 22-C , 23-H ) :   0.9286
B( 22-C , 24-H ) :   0.9102 B( 22-C , 25-C ) :   1.0593 B( 25-C , 26-H ) :   0.9636
B( 25-C , 27-H ) :   0.9513 B( 25-C , 28-C ) :   1.0781 B( 28-C , 29-H ) :   0.9762
B( 28-C , 30-H ) :   0.9769 B( 28-C , 31-H ) :   0.9775

Dispersion correction           -0.013516493
FINAL SINGLE POINT ENERGY     -1339.848815813397

DIPOLE MOMENT
-------------
                                X             Y             Z
Electronic contribution:    -26.31538       1.05197      -9.74637
Nuclear contribution   :     26.77659      -0.77150      10.15229
                        -----------------------------------------
Total Dipole Moment    :      0.46121       0.28046       0.40592
                        -----------------------------------------
Magnitude (a.u.)       :      0.67539
Magnitude (Debye)      :      1.71670

Rotational constants in cm-1:     0.018748     0.007766     0.006319
Rotational constants in MHz :   562.049570   232.823326   189.428080

                             ****ORCA TERMINATED NORMALLY****
TOTAL RUN TIME: 0 days 0 hours 0 minutes 31 seconds 206 msec
