                         Program Version 4.2.1 -  RELEASE  -
|  1> ! wB97X-D3 SP def2-SVP
|  2> %pal
|  3> nprocs 16
|  4> end
|  5>
|  6> * xyz 0 1
|  7> S 	 -41.3486 	 56.2836 	 106.715
|  8> C 	 -42.9086 	 56.8232 	 107.391
|  9> C 	 -42.8812 	 58.2198 	 107.55
| 10> C 	 -41.6318 	 58.7843 	 107.175
| 11> C 	 -40.6854 	 57.8358 	 106.816
| 12> H 	 -41.3973 	 59.8864 	 107.318
| 13> C 	 -43.984 	 58.9823 	 108.036
| 14> H 	 -44.8711 	 58.3503 	 107.934
| 15> H 	 -44.1723 	 59.7149 	 107.268
| 16> C 	 -43.874 	 59.5653 	 109.475
| 17> H 	 -43.8119 	 58.7469 	 110.158
| 18> H 	 -42.9122 	 60.0838 	 109.622
| 19> C 	 -45.0893 	 60.5063 	 109.966
| 20> H 	 -45.9828 	 59.8385 	 109.951
| 21> H 	 -44.8872 	 60.7508 	 110.992
| 22> H 	 -45.407 	 61.3384 	 109.303
| 23> S 	 -38.3564 	 59.1506 	 107.518
| 24> C 	 -36.985 	 59.2252 	 106.351
| 25> C 	 -37.3405 	 58.4952 	 105.209
| 26> C 	 -38.6645 	 57.9075 	 105.215
| 27> C 	 -39.3332 	 58.1886 	 106.426
| 28> H 	 -36.7313 	 58.5454 	 104.285
| 29> C 	 -39.3035 	 57.0693 	 104.07
| 30> H 	 -39.8547 	 56.3925 	 104.653
| 31> H 	 -38.4352 	 56.5536 	 103.626
| 32> C 	 -40.0712 	 57.7893 	 102.907
| 33> H 	 -39.3112 	 57.969 	 102.166
| 34> H 	 -40.4807 	 58.6918 	 103.311
| 35> C 	 -41.1592 	 56.9207 	 102.256
| 36> H 	 -41.9549 	 56.6683 	 103.017
| 37> H 	 -40.7788 	 55.961 	 101.929
| 38> H 	 -41.5931 	 57.3937 	 101.414
| 39> H 	 -43.7733 	 56.2258 	 107.521
| 40> H 	 -36.0234 	 59.6328 	 106.568
| 41> *
| 42>
| 43>                          ****END OF INPUT****

CARTESIAN COORDINATES (ANGSTROEM)
---------------------------------
  S    -41.348600   56.283600  106.715000
  C    -42.908600   56.823200  107.391000
  C    -42.881200   58.219800  107.550000
  C    -41.631800   58.784300  107.175000
  C    -40.685400   57.835800  106.816000
  H    -41.397300   59.886400  107.318000
  C    -43.984000   58.982300  108.036000
  H    -44.871100   58.350300  107.934000
  H    -44.172300   59.714900  107.268000
  C    -43.874000   59.565300  109.475000
  H    -43.811900   58.746900  110.158000
  H    -42.912200   60.083800  109.622000
  C    -45.089300   60.506300  109.966000
  H    -45.982800   59.838500  109.951000
  H    -44.887200   60.750800  110.992000
  H    -45.407000   61.338400  109.303000
  S    -38.356400   59.150600  107.518000
  C    -36.985000   59.225200  106.351000
  C    -37.340500   58.495200  105.209000
  C    -38.664500   57.907500  105.215000
  C    -39.333200   58.188600  106.426000
  H    -36.731300   58.545400  104.285000
  C    -39.303500   57.069300  104.070000
  H    -39.854700   56.392500  104.653000
  H    -38.435200   56.553600  103.626000
  C    -40.071200   57.789300  102.907000
  H    -39.311200   57.969000  102.166000
  H    -40.480700   58.691800  103.311000
  C    -41.159200   56.920700  102.256000
  H    -41.954900   56.668300  103.017000
  H    -40.778800   55.961000  101.929000
  H    -41.593100   57.393700  101.414000
  H    -43.773300   56.225800  107.521000
  H    -36.023400   59.632800  106.568000

 Total Charge           Charge          ....    0
 Multiplicity           Mult            ....    1
 Number of Electrons    NEL             ....  134
 Basis Dimension        Dim             ....  322

ORBITAL ENERGIES
----------------

  NO   OCC          E(Eh)            E(eV)
   0   2.0000     -88.971004     -2421.0241
   1   2.0000     -88.967338     -2420.9244
   2   2.0000     -10.328418      -281.0505
   3   2.0000     -10.327209      -281.0176
   4   2.0000     -10.322641      -280.8933
   5   2.0000     -10.314817      -280.6804
   6   2.0000     -10.306430      -280.4522
   7   2.0000     -10.301135      -280.3081
   8   2.0000     -10.297619      -280.2125
   9   2.0000     -10.295154      -280.1454
  10   2.0000     -10.294082      -280.1162
  11   2.0000     -10.289558      -279.9931
  12   2.0000     -10.288191      -279.9559
  13   2.0000     -10.286287      -279.9041
  14   2.0000     -10.284144      -279.8458
  15   2.0000     -10.275445      -279.6091
  16   2.0000      -8.085559      -220.0192
  17   2.0000      -8.080883      -219.8920
  18   2.0000      -6.044081      -164.4678
  19   2.0000      -6.039992      -164.3565
  20   2.0000      -6.039471      -164.3424
  21   2.0000      -6.036416      -164.2592
  22   2.0000      -6.035459      -164.2332
  23   2.0000      -6.031734      -164.1318
  24   2.0000      -1.008070       -27.4310
  25   2.0000      -0.977345       -26.5949
  26   2.0000      -0.916206       -24.9312
  27   2.0000      -0.899967       -24.4894
  28   2.0000      -0.864237       -23.5171
  29   2.0000      -0.849551       -23.1175
  30   2.0000      -0.843182       -22.9441
  31   2.0000      -0.811753       -22.0889
  32   2.0000      -0.782196       -21.2846
  33   2.0000      -0.769439       -20.9375
  34   2.0000      -0.712165       -19.3790
  35   2.0000      -0.705931       -19.2094
  36   2.0000      -0.695286       -18.9197
  37   2.0000      -0.662894       -18.0383
  38   2.0000      -0.633520       -17.2390
  39   2.0000      -0.617308       -16.7978
  40   2.0000      -0.585265       -15.9259
  41   2.0000      -0.568477       -15.4691
  42   2.0000      -0.566375       -15.4119
  43   2.0000      -0.550553       -14.9813
  44   2.0000      -0.533459       -14.5161
  45   2.0000      -0.524082       -14.2610
  46   2.0000      -0.521729       -14.1970
  47   2.0000      -0.510759       -13.8985
  48   2.0000      -0.505295       -13.7498
  49   2.0000      -0.498515       -13.5653
  50   2.0000      -0.486682       -13.2433
  51   2.0000      -0.484830       -13.1929
  52   2.0000      -0.467811       -12.7298
  53   2.0000      -0.463003       -12.5990
  54   2.0000      -0.454041       -12.3551
  55   2.0000      -0.449716       -12.2374
  56   2.0000      -0.444078       -12.0840
  57   2.0000      -0.440151       -11.9771
  58   2.0000      -0.431594       -11.7443
  59   2.0000      -0.426976       -11.6186
  60   2.0000      -0.419873       -11.4253
  61   2.0000      -0.415851       -11.3159
  62   2.0000      -0.412036       -11.2121
  63   2.0000      -0.343191        -9.3387
  64   2.0000      -0.331158        -9.0113
  65   2.0000      -0.328977        -8.9519
  66   2.0000      -0.290589        -7.9073
  67   0.0000       0.027698         0.7537
  68   0.0000       0.069085         1.8799
  69   0.0000       0.107225         2.9177
  70   0.0000       0.116504         3.1702
  71   0.0000       0.126025         3.4293

MULLIKEN ATOMIC CHARGES
-----------------------
   0 S :    0.110182
   1 C :   -0.108829
   2 C :   -0.104690
   3 C :   -0.005086
   4 C :   -0.138256
   5 H :    0.041956
   6 C :    0.088066
   7 H :    0.002168
   8 H :    0.024097
   9 C :   -0.069597
  10 H :    0.023327
  11 H :    0.032733
  12 C :   -0.061706
  13 H :    0.027128
  14 H :    0.043439
  15 H :    0.047587
  16 S :    0.103347
  17 C :   -0.100073
  18 C :   -0.036226
  19 C :   -0.086017
  20 C :   -0.156391
  21 H :    0.033697
  22 C :    0.096317
  23 H :   -0.001099
  24 H :    0.024494
  25 C :   -0.026743
  26 H :    0.025590
  27 H :    0.035065
  28 C :   -0.052059
  29 H :    0.041087
  30 H :    0.022989
  31 H :    0.030813
  32 H :    0.034373
  33 H :    0.058315
Sum of atomic charges:   -0.0000000

LOEWDIN ATOMIC CHARGES
----------------------
   0 S :    0.435136
   1 C :   -0.192105
   2 C :   -0.060746
   3 C :   -0.074052
   4 C :   -0.212110
   5 H :    0.041972
   6 C :   -0.042055
   7 H :    0.030007
   8 H :    0.034201
   9 C :   -0.031452
  10 H :    0.022737
  11 H :    0.023571
  12 C :   -0.068717
  13 H :    0.027082
  14 H :    0.026222
  15 H :    0.029682
  16 S :    0.391977
  17 C :   -0.175997
  18 C :   -0.072086
  19 C :   -0.058732
  20 C :   -0.196560
  21 H :    0.035595
  22 C :   -0.028990
  23 H :    0.004849
  24 H :    0.033671
  25 C :   -0.030393
  26 H :    0.023306
  27 H :    0.023516
  28 C :   -0.062577
  29 H :    0.032421
  30 H :    0.022075
  31 H :    0.020709
  32 H :    0.020911
  33 H :    0.026933

  Mayer bond orders larger than 0.100000
B(  0-S ,  1-C ) :   1.1253 B(  0-S ,  4-C ) :   1.1804 B(  1-C ,  2-C ) :   1.5763
B(  1-C , 32-H ) :   0.9743 B(  2-C ,  3-C ) :   1.2658 B(  2-C ,  6-C ) :   1.0586
B(  3-C ,  4-C ) :   1.5324 B(  3-C ,  5-H ) :   0.9823 B(  4-C , 20-C ) :   1.0318
B(  6-C ,  7-H ) :   0.9278 B(  6-C ,  8-H ) :   0.9249 B(  6-C ,  9-C ) :   1.0439
B(  9-C , 10-H ) :   0.9534 B(  9-C , 11-H ) :   0.9633 B(  9-C , 12-C ) :   1.0677
B( 12-C , 13-H ) :   0.9767 B( 12-C , 14-H ) :   0.9764 B( 12-C , 15-H ) :   0.9793
B( 16-S , 17-C ) :   1.1372 B( 16-S , 20-C ) :   1.1520 B( 17-C , 18-C ) :   1.6012
B( 17-C , 20-C ) :   0.1030 B( 17-C , 33-H ) :   0.9736 B( 18-C , 19-C ) :   1.2628
B( 18-C , 21-H ) :   0.9767 B( 19-C , 20-C ) :   1.5663 B( 19-C , 22-C ) :   1.0238
B( 22-C , 23-H ) :   0.9341 B( 22-C , 24-H ) :   0.9312 B( 22-C , 25-C ) :   1.0437
B( 25-C , 26-H ) :   0.9555 B( 25-C , 27-H ) :   0.9632 B( 25-C , 28-C ) :   1.0869
B( 28-C , 29-H ) :   0.9758 B( 28-C , 30-H ) :   0.9746 B( 28-C , 31-H ) :   0.9746

Dispersion correction           -0.014191441
FINAL SINGLE POINT ENERGY     -1339.871793977758

DIPOLE MOMENT
-------------
                                X             Y             Z
Electronic contribution:     17.28650      -5.17739       5.90082
Nuclear contribution   :    -17.59818       5.36516      -6.14244
                        -----------------------------------------
Total Dipole Moment    :     -0.31168       0.18777      -0.24162
                        -----------------------------------------
Magnitude (a.u.)       :      0.43679
Magnitude (Debye)      :      1.11022

Rotational constants in cm-1:     0.018624     0.008346     0.006601
Rotational constants in MHz :   558.333334   250.211274   197.883081

                             ****ORCA TERMINATED NORMALLY****
TOTAL RUN TIME: 0 days 0 hours 0 minutes 28 seconds 2 msec
