                         Program Version 4.2.1 -  RELEASE  -
|  1> ! wB97X-D3 SP def2-SVP
|  2> %pal
|  3> nprocs 16
|  4> end
|  5>
|  6> * xyz 0 1
|  7> S 	 1.11124 	 -9.59582 	 88.6906
|  8> C 	 2.34887 	 -9.05125 	 89.7328
|  9> C 	 1.86552 	 -8.87317 	 91.0225
| 10> C 	 0.488501 	 -9.14216 	 91.1504
| 11> C 	 -0.105385 	 -9.52858 	 89.9727
| 12> H 	 -0.148192 	 -8.97783 	 92.0403
| 13> C 	 2.61616 	 -8.29692 	 92.1801
| 14> H 	 2.29002 	 -7.25959 	 92.3859
| 15> H 	 3.6164 	 -8.471 	 91.7947
| 16> C 	 2.50102 	 -8.95164 	 93.6323
| 17> H 	 2.96752 	 -8.34633 	 94.3932
| 18> H 	 1.47312 	 -8.91134 	 94.0431
| 19> C 	 3.01775 	 -10.4384 	 93.5054
| 20> H 	 4.11079 	 -10.4954 	 93.288
| 21> H 	 2.94623 	 -10.8791 	 94.5076
| 22> H 	 2.44874 	 -11.101 	 92.7955
| 23> S 	 -1.82073 	 -11.2908 	 88.6103
| 24> C 	 -3.46093 	 -11.0756 	 88.6624
| 25> C 	 -3.84161 	 -10.2201 	 89.6668
| 26> C 	 -2.7362 	 -9.51067 	 90.243
| 27> C 	 -1.49142 	 -9.92449 	 89.7165
| 28> H 	 -4.90795 	 -10.0853 	 89.8977
| 29> C 	 -2.92631 	 -8.40412 	 91.2371
| 30> H 	 -3.69565 	 -7.75431 	 90.8834
| 31> H 	 -2.01195 	 -7.74129 	 91.3337
| 32> C 	 -3.44847 	 -8.74857 	 92.6659
| 33> H 	 -2.70341 	 -9.36472 	 93.2428
| 34> H 	 -4.36613 	 -9.38777 	 92.6364
| 35> C 	 -3.6568 	 -7.46023 	 93.5312
| 36> H 	 -4.13456 	 -7.5622 	 94.504
| 37> H 	 -4.41319 	 -6.80835 	 93.0427
| 38> H 	 -2.75067 	 -6.98046 	 93.6052
| 39> H 	 3.31934 	 -8.66331 	 89.4109
| 40> H 	 -4.20157 	 -11.6548 	 88.1147
| 41> *
| 42>
| 43>                          ****END OF INPUT****

CARTESIAN COORDINATES (ANGSTROEM)
---------------------------------
  S      1.111240   -9.595820   88.690600
  C      2.348870   -9.051250   89.732800
  C      1.865520   -8.873170   91.022500
  C      0.488501   -9.142160   91.150400
  C     -0.105385   -9.528580   89.972700
  H     -0.148192   -8.977830   92.040300
  C      2.616160   -8.296920   92.180100
  H      2.290020   -7.259590   92.385900
  H      3.616400   -8.471000   91.794700
  C      2.501020   -8.951640   93.632300
  H      2.967520   -8.346330   94.393200
  H      1.473120   -8.911340   94.043100
  C      3.017750  -10.438400   93.505400
  H      4.110790  -10.495400   93.288000
  H      2.946230  -10.879100   94.507600
  H      2.448740  -11.101000   92.795500
  S     -1.820730  -11.290800   88.610300
  C     -3.460930  -11.075600   88.662400
  C     -3.841610  -10.220100   89.666800
  C     -2.736200   -9.510670   90.243000
  C     -1.491420   -9.924490   89.716500
  H     -4.907950  -10.085300   89.897700
  C     -2.926310   -8.404120   91.237100
  H     -3.695650   -7.754310   90.883400
  H     -2.011950   -7.741290   91.333700
  C     -3.448470   -8.748570   92.665900
  H     -2.703410   -9.364720   93.242800
  H     -4.366130   -9.387770   92.636400
  C     -3.656800   -7.460230   93.531200
  H     -4.134560   -7.562200   94.504000
  H     -4.413190   -6.808350   93.042700
  H     -2.750670   -6.980460   93.605200
  H      3.319340   -8.663310   89.410900
  H     -4.201570  -11.654800   88.114700

 Total Charge           Charge          ....    0
 Multiplicity           Mult            ....    1
 Number of Electrons    NEL             ....  134
 Basis Dimension        Dim             ....  322

ORBITAL ENERGIES
----------------

  NO   OCC          E(Eh)            E(eV)
   0   2.0000     -88.967286     -2420.9229
   1   2.0000     -88.964464     -2420.8461
   2   2.0000     -10.332321      -281.1568
   3   2.0000     -10.332008      -281.1482
   4   2.0000     -10.314302      -280.6664
   5   2.0000     -10.311451      -280.5888
   6   2.0000     -10.308398      -280.5058
   7   2.0000     -10.298578      -280.2386
   8   2.0000     -10.298115      -280.2259
   9   2.0000     -10.296825      -280.1909
  10   2.0000     -10.295715      -280.1606
  11   2.0000     -10.293433      -280.0986
  12   2.0000     -10.293227      -280.0929
  13   2.0000     -10.292474      -280.0725
  14   2.0000     -10.284519      -279.8560
  15   2.0000     -10.278798      -279.7003
  16   2.0000      -8.082365      -219.9323
  17   2.0000      -8.080554      -219.8830
  18   2.0000      -6.040896      -164.3811
  19   2.0000      -6.038900      -164.3268
  20   2.0000      -6.036702      -164.2670
  21   2.0000      -6.034856      -164.2168
  22   2.0000      -6.033195      -164.1716
  23   2.0000      -6.031392      -164.1225
  24   2.0000      -1.010729       -27.5033
  25   2.0000      -0.992379       -27.0040
  26   2.0000      -0.908189       -24.7131
  27   2.0000      -0.904848       -24.6222
  28   2.0000      -0.869623       -23.6636
  29   2.0000      -0.852352       -23.1937
  30   2.0000      -0.844292       -22.9744
  31   2.0000      -0.814426       -22.1617
  32   2.0000      -0.782959       -21.3054
  33   2.0000      -0.767285       -20.8789
  34   2.0000      -0.713780       -19.4229
  35   2.0000      -0.700495       -19.0614
  36   2.0000      -0.694934       -18.9101
  37   2.0000      -0.657043       -17.8791
  38   2.0000      -0.636819       -17.3287
  39   2.0000      -0.623071       -16.9546
  40   2.0000      -0.599551       -16.3146
  41   2.0000      -0.565867       -15.3980
  42   2.0000      -0.561359       -15.2754
  43   2.0000      -0.553162       -15.0523
  44   2.0000      -0.532739       -14.4966
  45   2.0000      -0.523991       -14.2585
  46   2.0000      -0.516822       -14.0634
  47   2.0000      -0.512930       -13.9575
  48   2.0000      -0.506643       -13.7865
  49   2.0000      -0.499769       -13.5994
  50   2.0000      -0.487940       -13.2775
  51   2.0000      -0.479856       -13.0575
  52   2.0000      -0.470300       -12.7975
  53   2.0000      -0.467300       -12.7159
  54   2.0000      -0.456998       -12.4355
  55   2.0000      -0.453654       -12.3446
  56   2.0000      -0.452143       -12.3034
  57   2.0000      -0.438460       -11.9311
  58   2.0000      -0.431773       -11.7492
  59   2.0000      -0.423537       -11.5250
  60   2.0000      -0.417747       -11.3675
  61   2.0000      -0.414537       -11.2801
  62   2.0000      -0.406635       -11.0651
  63   2.0000      -0.358153        -9.7458
  64   2.0000      -0.330361        -8.9896
  65   2.0000      -0.328068        -8.9272
  66   2.0000      -0.285599        -7.7715
  67   0.0000       0.024525         0.6674
  68   0.0000       0.077181         2.1002
  69   0.0000       0.109761         2.9868
  70   0.0000       0.117144         3.1876
  71   0.0000       0.126205         3.4342

MULLIKEN ATOMIC CHARGES
-----------------------
   0 S :    0.118860
   1 C :   -0.119525
   2 C :   -0.104545
   3 C :    0.015201
   4 C :   -0.151390
   5 H :    0.021440
   6 C :    0.059605
   7 H :    0.049004
   8 H :    0.016655
   9 C :   -0.071700
  10 H :    0.027120
  11 H :    0.026204
  12 C :   -0.093242
  13 H :    0.040038
  14 H :    0.029975
  15 H :    0.065411
  16 S :    0.114716
  17 C :   -0.081334
  18 C :   -0.054808
  19 C :    0.000220
  20 C :   -0.141959
  21 H :    0.025195
  22 C :    0.025067
  23 H :    0.017366
  24 H :    0.034906
  25 C :   -0.103492
  26 H :    0.033530
  27 H :    0.035780
  28 C :   -0.035275
  29 H :    0.037458
  30 H :    0.024651
  31 H :    0.020635
  32 H :    0.057265
  33 H :    0.060966
Sum of atomic charges:   -0.0000000

LOEWDIN ATOMIC CHARGES
----------------------
   0 S :    0.420345
   1 C :   -0.215675
   2 C :   -0.071679
   3 C :   -0.066088
   4 C :   -0.184593
   5 H :    0.037155
   6 C :   -0.034683
   7 H :    0.036427
   8 H :    0.029083
   9 C :   -0.042187
  10 H :    0.024319
  11 H :    0.023017
  12 C :   -0.076495
  13 H :    0.028604
  14 H :    0.023800
  15 H :    0.036635
  16 S :    0.429627
  17 C :   -0.212869
  18 C :   -0.080387
  19 C :   -0.053619
  20 C :   -0.190702
  21 H :    0.034444
  22 C :   -0.040424
  23 H :    0.028555
  24 H :    0.036009
  25 C :   -0.041905
  26 H :    0.022603
  27 H :    0.024998
  28 C :   -0.063605
  29 H :    0.029585
  30 H :    0.027016
  31 H :    0.013088
  32 H :    0.034786
  33 H :    0.034819

  Mayer bond orders larger than 0.100000
B(  0-S ,  1-C ) :   1.1485 B(  0-S ,  4-C ) :   1.1568 B(  1-C ,  2-C ) :   1.5932
B(  1-C , 32-H ) :   0.9617 B(  2-C ,  3-C ) :   1.2473 B(  2-C ,  6-C ) :   1.0166
B(  3-C ,  4-C ) :   1.5603 B(  3-C ,  5-H ) :   0.9906 B(  4-C , 20-C ) :   1.0607
B(  6-C ,  7-H ) :   0.9375 B(  6-C ,  8-H ) :   0.9433 B(  6-C ,  9-C ) :   1.0710
B(  9-C , 10-H ) :   0.9573 B(  9-C , 11-H ) :   0.9524 B(  9-C , 12-C ) :   1.0622
B( 12-C , 13-H ) :   0.9773 B( 12-C , 14-H ) :   0.9759 B( 12-C , 15-H ) :   0.9753
B( 16-S , 17-C ) :   1.1844 B( 16-S , 20-C ) :   1.1404 B( 17-C , 18-C ) :   1.5850
B( 17-C , 33-H ) :   0.9628 B( 18-C , 19-C ) :   1.2568 B( 18-C , 21-H ) :   0.9888
B( 19-C , 20-C ) :   1.5617 B( 19-C , 22-C ) :   1.0531 B( 22-C , 23-H ) :   0.9305
B( 22-C , 24-H ) :   0.9386 B( 22-C , 25-C ) :   1.0493 B( 25-C , 26-H ) :   0.9573
B( 25-C , 27-H ) :   0.9569 B( 25-C , 28-C ) :   1.0699 B( 28-C , 29-H ) :   0.9747
B( 28-C , 30-H ) :   0.9750 B( 28-C , 31-H ) :   0.9774

Dispersion correction           -0.014074012
FINAL SINGLE POINT ENERGY     -1339.872978989636

DIPOLE MOMENT
-------------
                                X             Y             Z
Electronic contribution:     -0.06436     -10.23908     -28.12071
Nuclear contribution   :     -0.16840      10.58415      28.72496
                        -----------------------------------------
Total Dipole Moment    :     -0.23277       0.34507       0.60426
                        -----------------------------------------
Magnitude (a.u.)       :      0.73374
Magnitude (Debye)      :      1.86503

Rotational constants in cm-1:     0.015986     0.009732     0.006808
Rotational constants in MHz :   479.234934   291.772289   204.112778

                             ****ORCA TERMINATED NORMALLY****
TOTAL RUN TIME: 0 days 0 hours 0 minutes 33 seconds 595 msec
