                         Program Version 4.2.1 -  RELEASE  -
|  1> ! wB97X-D3 SP def2-SVP
|  2> %pal
|  3> nprocs 16
|  4> end
|  5>
|  6> * xyz 0 1
|  7> S 	 -3.36766 	 -3.99206 	 80.7867
|  8> C 	 -3.78856 	 -5.62616 	 80.6224
|  9> C 	 -3.55909 	 -6.36709 	 81.7888
| 10> C 	 -3.14179 	 -5.49188 	 82.8742
| 11> C 	 -2.88816 	 -4.19504 	 82.4963
| 12> H 	 -2.75113 	 -5.80204 	 83.7971
| 13> C 	 -3.74944 	 -7.85209 	 81.9792
| 14> H 	 -2.76578 	 -8.24246 	 81.8642
| 15> H 	 -4.33074 	 -8.18866 	 81.083
| 16> C 	 -4.47774 	 -8.45416 	 83.1755
| 17> H 	 -4.44596 	 -9.55926 	 83.224
| 18> H 	 -4.01577 	 -8.18081 	 84.1345
| 19> C 	 -5.87062 	 -7.99909 	 83.2269
| 20> H 	 -6.41314 	 -8.47665 	 84.0461
| 21> H 	 -5.82743 	 -6.87477 	 83.3978
| 22> H 	 -6.44124 	 -8.17043 	 82.2225
| 23> S 	 -2.74761 	 -1.45943 	 82.8581
| 24> C 	 -2.31124 	 -0.927523 	 84.4481
| 25> C 	 -1.64875 	 -1.83049 	 85.2388
| 26> C 	 -1.77146 	 -3.10895 	 84.6129
| 27> C 	 -2.41269 	 -3.0998 	 83.3541
| 28> H 	 -1.22895 	 -1.60258 	 86.1927
| 29> C 	 -1.26266 	 -4.34184 	 85.3304
| 30> H 	 -0.442595 	 -4.02606 	 85.9845
| 31> H 	 -0.757795 	 -4.86754 	 84.5456
| 32> C 	 -2.29816 	 -5.07139 	 86.2409
| 33> H 	 -1.84072 	 -6.08204 	 86.2373
| 34> H 	 -3.3589 	 -5.184 	 85.8549
| 35> C 	 -2.43266 	 -4.52551 	 87.6262
| 36> H 	 -1.54264 	 -4.64182 	 88.2298
| 37> H 	 -3.24862 	 -4.99482 	 88.1609
| 38> H 	 -2.49302 	 -3.47731 	 87.4463
| 39> H 	 -4.16764 	 -6.11209 	 79.6811
| 40> H 	 -2.3708 	 0.119834 	 84.7456
| 41> *
| 42>
| 43>                          ****END OF INPUT****

CARTESIAN COORDINATES (ANGSTROEM)
---------------------------------
  S     -3.367660   -3.992060   80.786700
  C     -3.788560   -5.626160   80.622400
  C     -3.559090   -6.367090   81.788800
  C     -3.141790   -5.491880   82.874200
  C     -2.888160   -4.195040   82.496300
  H     -2.751130   -5.802040   83.797100
  C     -3.749440   -7.852090   81.979200
  H     -2.765780   -8.242460   81.864200
  H     -4.330740   -8.188660   81.083000
  C     -4.477740   -8.454160   83.175500
  H     -4.445960   -9.559260   83.224000
  H     -4.015770   -8.180810   84.134500
  C     -5.870620   -7.999090   83.226900
  H     -6.413140   -8.476650   84.046100
  H     -5.827430   -6.874770   83.397800
  H     -6.441240   -8.170430   82.222500
  S     -2.747610   -1.459430   82.858100
  C     -2.311240   -0.927523   84.448100
  C     -1.648750   -1.830490   85.238800
  C     -1.771460   -3.108950   84.612900
  C     -2.412690   -3.099800   83.354100
  H     -1.228950   -1.602580   86.192700
  C     -1.262660   -4.341840   85.330400
  H     -0.442595   -4.026060   85.984500
  H     -0.757795   -4.867540   84.545600
  C     -2.298160   -5.071390   86.240900
  H     -1.840720   -6.082040   86.237300
  H     -3.358900   -5.184000   85.854900
  C     -2.432660   -4.525510   87.626200
  H     -1.542640   -4.641820   88.229800
  H     -3.248620   -4.994820   88.160900
  H     -2.493020   -3.477310   87.446300
  H     -4.167640   -6.112090   79.681100
  H     -2.370800    0.119834   84.745600

 Total Charge           Charge          ....    0
 Multiplicity           Mult            ....    1
 Number of Electrons    NEL             ....  134
 Basis Dimension        Dim             ....  322

ORBITAL ENERGIES
----------------

  NO   OCC          E(Eh)            E(eV)
   0   2.0000     -88.969190     -2420.9747
   1   2.0000     -88.966093     -2420.8905
   2   2.0000     -10.332972      -281.1745
   3   2.0000     -10.329619      -281.0832
   4   2.0000     -10.317461      -280.7524
   5   2.0000     -10.315775      -280.7065
   6   2.0000     -10.305096      -280.4159
   7   2.0000     -10.304184      -280.3911
   8   2.0000     -10.294532      -280.1284
   9   2.0000     -10.294508      -280.1278
  10   2.0000     -10.293232      -280.0931
  11   2.0000     -10.291260      -280.0394
  12   2.0000     -10.287226      -279.9297
  13   2.0000     -10.285633      -279.8863
  14   2.0000     -10.280990      -279.7600
  15   2.0000     -10.274769      -279.5907
  16   2.0000      -8.084408      -219.9879
  17   2.0000      -8.081125      -219.8986
  18   2.0000      -6.042839      -164.4340
  19   2.0000      -6.039741      -164.3497
  20   2.0000      -6.039068      -164.3314
  21   2.0000      -6.035628      -164.2378
  22   2.0000      -6.035032      -164.2216
  23   2.0000      -6.031740      -164.1320
  24   2.0000      -1.007662       -27.4199
  25   2.0000      -0.986151       -26.8345
  26   2.0000      -0.917143       -24.9567
  27   2.0000      -0.914612       -24.8878
  28   2.0000      -0.872449       -23.7406
  29   2.0000      -0.859096       -23.3772
  30   2.0000      -0.847859       -23.0714
  31   2.0000      -0.818960       -22.2850
  32   2.0000      -0.784736       -21.3537
  33   2.0000      -0.767244       -20.8778
  34   2.0000      -0.706103       -19.2140
  35   2.0000      -0.695536       -18.9265
  36   2.0000      -0.685365       -18.6497
  37   2.0000      -0.667000       -18.1500
  38   2.0000      -0.637129       -17.3372
  39   2.0000      -0.621084       -16.9005
  40   2.0000      -0.596353       -16.2276
  41   2.0000      -0.568623       -15.4730
  42   2.0000      -0.565948       -15.4002
  43   2.0000      -0.561746       -15.2859
  44   2.0000      -0.544448       -14.8152
  45   2.0000      -0.537319       -14.6212
  46   2.0000      -0.523171       -14.2362
  47   2.0000      -0.509031       -13.8514
  48   2.0000      -0.500162       -13.6101
  49   2.0000      -0.498249       -13.5581
  50   2.0000      -0.490542       -13.3483
  51   2.0000      -0.476508       -12.9665
  52   2.0000      -0.474635       -12.9155
  53   2.0000      -0.466688       -12.6992
  54   2.0000      -0.457299       -12.4437
  55   2.0000      -0.452892       -12.3238
  56   2.0000      -0.446339       -12.1455
  57   2.0000      -0.440493       -11.9864
  58   2.0000      -0.434971       -11.8362
  59   2.0000      -0.428496       -11.6600
  60   2.0000      -0.419197       -11.4069
  61   2.0000      -0.406715       -11.0673
  62   2.0000      -0.401185       -10.9168
  63   2.0000      -0.364145        -9.9089
  64   2.0000      -0.337595        -9.1864
  65   2.0000      -0.323780        -8.8105
  66   2.0000      -0.278435        -7.5766
  67   0.0000       0.021693         0.5903
  68   0.0000       0.079240         2.1562
  69   0.0000       0.099930         2.7192
  70   0.0000       0.119947         3.2639
  71   0.0000       0.131422         3.5762

MULLIKEN ATOMIC CHARGES
-----------------------
   0 S :    0.106364
   1 C :   -0.129786
   2 C :   -0.122941
   3 C :    0.029288
   4 C :   -0.118119
   5 H :   -0.025185
   6 C :    0.078351
   7 H :    0.036768
   8 H :    0.014745
   9 C :   -0.052304
  10 H :    0.029860
  11 H :    0.021478
  12 C :   -0.092754
  13 H :    0.037744
  14 H :    0.051332
  15 H :    0.037970
  16 S :    0.114119
  17 C :   -0.088503
  18 C :   -0.008438
  19 C :   -0.095537
  20 C :   -0.113883
  21 H :    0.017250
  22 C :    0.029602
  23 H :    0.016444
  24 H :    0.038535
  25 C :   -0.112322
  26 H :    0.034255
  27 H :    0.057488
  28 C :    0.007607
  29 H :    0.018485
  30 H :    0.043658
  31 H :    0.017954
  32 H :    0.066980
  33 H :    0.053496
Sum of atomic charges:    0.0000000

LOEWDIN ATOMIC CHARGES
----------------------
   0 S :    0.402256
   1 C :   -0.225750
   2 C :   -0.062290
   3 C :   -0.068080
   4 C :   -0.172791
   5 H :    0.020375
   6 C :   -0.034074
   7 H :    0.031848
   8 H :    0.033571
   9 C :   -0.052692
  10 H :    0.028692
  11 H :    0.023411
  12 C :   -0.074444
  13 H :    0.024245
  14 H :    0.034883
  15 H :    0.030816
  16 S :    0.413678
  17 C :   -0.178487
  18 C :   -0.071025
  19 C :   -0.051621
  20 C :   -0.201870
  21 H :    0.031467
  22 C :   -0.039580
  23 H :    0.033280
  24 H :    0.030603
  25 C :   -0.049678
  26 H :    0.025273
  27 H :    0.034340
  28 C :   -0.061020
  29 H :    0.021975
  30 H :    0.031040
  31 H :    0.023633
  32 H :    0.041826
  33 H :    0.026190

  Mayer bond orders larger than 0.100000
B(  0-S ,  1-C ) :   1.1448 B(  0-S ,  4-C ) :   1.1299 B(  1-C ,  2-C ) :   1.6146
B(  1-C , 32-H ) :   0.9540 B(  2-C ,  3-C ) :   1.2299 B(  2-C ,  6-C ) :   1.0193
B(  3-C ,  4-C ) :   1.5962 B(  3-C ,  5-H ) :   0.9826 B(  4-C , 20-C ) :   1.0786
B(  6-C ,  7-H ) :   0.9284 B(  6-C ,  8-H ) :   0.9403 B(  6-C ,  9-C ) :   1.0762
B(  9-C , 10-H ) :   0.9499 B(  9-C , 11-H ) :   0.9438 B(  9-C , 12-C ) :   1.0865
B( 12-C , 13-H ) :   0.9709 B( 12-C , 14-H ) :   0.9703 B( 12-C , 15-H ) :   0.9713
B( 16-S , 17-C ) :   1.1766 B( 16-S , 20-C ) :   1.1239 B( 17-C , 18-C ) :   1.5993
B( 17-C , 33-H ) :   0.9607 B( 18-C , 19-C ) :   1.2471 B( 18-C , 21-H ) :   0.9931
B( 19-C , 20-C ) :   1.5838 B( 19-C , 22-C ) :   1.0368 B( 22-C , 23-H ) :   0.9343
B( 22-C , 24-H ) :   0.9404 B( 22-C , 25-C ) :   1.0306 B( 25-C , 26-H ) :   0.9522
B( 25-C , 27-H ) :   0.9577 B( 25-C , 28-C ) :   1.0806 B( 28-C , 29-H ) :   0.9688
B( 28-C , 30-H ) :   0.9713 B( 28-C , 31-H ) :   0.9716

Dispersion correction           -0.014904526
FINAL SINGLE POINT ENERGY     -1339.866972273823

DIPOLE MOMENT
-------------
                                X             Y             Z
Electronic contribution:      4.14025      22.90456     -19.00666
Nuclear contribution   :     -3.92790     -23.32948      19.62096
                        -----------------------------------------
Total Dipole Moment    :      0.21235      -0.42492       0.61430
                        -----------------------------------------
Magnitude (a.u.)       :      0.77654
Magnitude (Debye)      :      1.97381

Rotational constants in cm-1:     0.017682     0.010148     0.006986
Rotational constants in MHz :   530.094873   304.228924   209.429752

                             ****ORCA TERMINATED NORMALLY****
TOTAL RUN TIME: 0 days 0 hours 0 minutes 35 seconds 626 msec
