                         Program Version 4.2.1 -  RELEASE  -
|  1> ! wB97X-D3 SP def2-SVP
|  2> %pal
|  3> nprocs 16
|  4> end
|  5>
|  6> * xyz 0 1
|  7> S 	 -33.8604 	 71.7291 	 143.465
|  8> C 	 -32.8433 	 71.9872 	 144.939
|  9> C 	 -32.793 	 70.8009 	 145.659
| 10> C 	 -33.6462 	 69.8276 	 145.111
| 11> C 	 -34.166 	 70.1177 	 143.86
| 12> H 	 -33.9008 	 68.8187 	 145.546
| 13> C 	 -31.9962 	 70.5858 	 146.926
| 14> H 	 -31.1032 	 71.2122 	 146.919
| 15> H 	 -31.5277 	 69.659 	 146.884
| 16> C 	 -32.7326 	 70.8315 	 148.285
| 17> H 	 -33.6569 	 70.3081 	 148.298
| 18> H 	 -32.1368 	 70.2892 	 149.045
| 19> C 	 -32.9849 	 72.3506 	 148.65
| 20> H 	 -32.2839 	 73.0836 	 148.358
| 21> H 	 -33.837 	 72.628 	 148.012
| 22> H 	 -33.1844 	 72.498 	 149.73
| 23> S 	 -36.7906 	 69.9017 	 143.246
| 24> C 	 -37.3005 	 68.5259 	 142.324
| 25> C 	 -36.2329 	 67.7754 	 141.912
| 26> C 	 -34.9592 	 68.2526 	 142.266
| 27> C 	 -35.1231 	 69.376 	 143.069
| 28> H 	 -36.3861 	 66.9118 	 141.28
| 29> C 	 -33.7248 	 67.4447 	 141.952
| 30> H 	 -32.9144 	 68.1118 	 141.725
| 31> H 	 -33.9401 	 66.8431 	 141.077
| 32> C 	 -33.2935 	 66.4778 	 143.039
| 33> H 	 -34.1442 	 65.8387 	 143.241
| 34> H 	 -33.2409 	 67.0943 	 143.965
| 35> C 	 -31.9847 	 65.6769 	 142.738
| 36> H 	 -31.8056 	 64.9402 	 143.524
| 37> H 	 -31.167 	 66.389 	 142.713
| 38> H 	 -31.9804 	 65.1664 	 141.817
| 39> H 	 -32.3948 	 72.82 	 145.372
| 40> H 	 -38.3491 	 68.3396 	 142.301
| 41> *
| 42>
| 43>                          ****END OF INPUT****

CARTESIAN COORDINATES (ANGSTROEM)
---------------------------------
  S    -33.860400   71.729100  143.465000
  C    -32.843300   71.987200  144.939000
  C    -32.793000   70.800900  145.659000
  C    -33.646200   69.827600  145.111000
  C    -34.166000   70.117700  143.860000
  H    -33.900800   68.818700  145.546000
  C    -31.996200   70.585800  146.926000
  H    -31.103200   71.212200  146.919000
  H    -31.527700   69.659000  146.884000
  C    -32.732600   70.831500  148.285000
  H    -33.656900   70.308100  148.298000
  H    -32.136800   70.289200  149.045000
  C    -32.984900   72.350600  148.650000
  H    -32.283900   73.083600  148.358000
  H    -33.837000   72.628000  148.012000
  H    -33.184400   72.498000  149.730000
  S    -36.790600   69.901700  143.246000
  C    -37.300500   68.525900  142.324000
  C    -36.232900   67.775400  141.912000
  C    -34.959200   68.252600  142.266000
  C    -35.123100   69.376000  143.069000
  H    -36.386100   66.911800  141.280000
  C    -33.724800   67.444700  141.952000
  H    -32.914400   68.111800  141.725000
  H    -33.940100   66.843100  141.077000
  C    -33.293500   66.477800  143.039000
  H    -34.144200   65.838700  143.241000
  H    -33.240900   67.094300  143.965000
  C    -31.984700   65.676900  142.738000
  H    -31.805600   64.940200  143.524000
  H    -31.167000   66.389000  142.713000
  H    -31.980400   65.166400  141.817000
  H    -32.394800   72.820000  145.372000
  H    -38.349100   68.339600  142.301000

 Total Charge           Charge          ....    0
 Multiplicity           Mult            ....    1
 Number of Electrons    NEL             ....  134
 Basis Dimension        Dim             ....  322

ORBITAL ENERGIES
----------------

  NO   OCC          E(Eh)            E(eV)
   0   2.0000     -88.965424     -2420.8723
   1   2.0000     -88.965161     -2420.8651
   2   2.0000     -10.324636      -280.9476
   3   2.0000     -10.321137      -280.8524
   4   2.0000     -10.313418      -280.6424
   5   2.0000     -10.311097      -280.5792
   6   2.0000     -10.302451      -280.3439
   7   2.0000     -10.298358      -280.2326
   8   2.0000     -10.292654      -280.0773
   9   2.0000     -10.292060      -280.0612
  10   2.0000     -10.290186      -280.0102
  11   2.0000     -10.288293      -279.9587
  12   2.0000     -10.288242      -279.9573
  13   2.0000     -10.286787      -279.9177
  14   2.0000     -10.280204      -279.7386
  15   2.0000     -10.278608      -279.6952
  16   2.0000      -8.080514      -219.8820
  17   2.0000      -8.080203      -219.8735
  18   2.0000      -6.038822      -164.3247
  19   2.0000      -6.038696      -164.3213
  20   2.0000      -6.034954      -164.2194
  21   2.0000      -6.034559      -164.2087
  22   2.0000      -6.031433      -164.1236
  23   2.0000      -6.031086      -164.1142
  24   2.0000      -1.012148       -27.5419
  25   2.0000      -0.986927       -26.8556
  26   2.0000      -0.912574       -24.8324
  27   2.0000      -0.908903       -24.7325
  28   2.0000      -0.866168       -23.5696
  29   2.0000      -0.853047       -23.2126
  30   2.0000      -0.840333       -22.8666
  31   2.0000      -0.809823       -22.0364
  32   2.0000      -0.789890       -21.4940
  33   2.0000      -0.780398       -21.2357
  34   2.0000      -0.711894       -19.3716
  35   2.0000      -0.705436       -19.1959
  36   2.0000      -0.695112       -18.9150
  37   2.0000      -0.666404       -18.1338
  38   2.0000      -0.641699       -17.4615
  39   2.0000      -0.613592       -16.6967
  40   2.0000      -0.604546       -16.4505
  41   2.0000      -0.570445       -15.5226
  42   2.0000      -0.564155       -15.3514
  43   2.0000      -0.543929       -14.8011
  44   2.0000      -0.529267       -14.4021
  45   2.0000      -0.524130       -14.2623
  46   2.0000      -0.519515       -14.1367
  47   2.0000      -0.514843       -14.0096
  48   2.0000      -0.510745       -13.8981
  49   2.0000      -0.497072       -13.5260
  50   2.0000      -0.486859       -13.2481
  51   2.0000      -0.479819       -13.0565
  52   2.0000      -0.472488       -12.8571
  53   2.0000      -0.470075       -12.7914
  54   2.0000      -0.459575       -12.5057
  55   2.0000      -0.452070       -12.3014
  56   2.0000      -0.441177       -12.0050
  57   2.0000      -0.439363       -11.9557
  58   2.0000      -0.431532       -11.7426
  59   2.0000      -0.430041       -11.7020
  60   2.0000      -0.426549       -11.6070
  61   2.0000      -0.416798       -11.3417
  62   2.0000      -0.412352       -11.2207
  63   2.0000      -0.339934        -9.2501
  64   2.0000      -0.329656        -8.9704
  65   2.0000      -0.324515        -8.8305
  66   2.0000      -0.302929        -8.2431
  67   0.0000       0.040581         1.1043
  68   0.0000       0.055292         1.5046
  69   0.0000       0.114072         3.1041
  70   0.0000       0.122217         3.3257
  71   0.0000       0.129090         3.5127

MULLIKEN ATOMIC CHARGES
-----------------------
   0 S :    0.114286
   1 C :   -0.084204
   2 C :   -0.103089
   3 C :    0.022527
   4 C :   -0.174449
   5 H :    0.034564
   6 C :    0.087433
   7 H :    0.013813
   8 H :    0.009054
   9 C :   -0.056742
  10 H :    0.025064
  11 H :    0.029267
  12 C :   -0.061542
  13 H :    0.019330
  14 H :    0.038053
  15 H :    0.048565
  16 S :    0.120882
  17 C :   -0.085533
  18 C :   -0.033572
  19 C :   -0.005308
  20 C :   -0.211130
  21 H :    0.014163
  22 C :    0.108117
  23 H :    0.023322
  24 H :    0.011165
  25 C :   -0.087039
  26 H :    0.015081
  27 H :    0.018654
  28 C :   -0.006981
  29 H :    0.038605
  30 H :    0.029842
  31 H :    0.022864
  32 H :    0.012187
  33 H :    0.052749
Sum of atomic charges:    0.0000000

LOEWDIN ATOMIC CHARGES
----------------------
   0 S :    0.419178
   1 C :   -0.181240
   2 C :   -0.062786
   3 C :   -0.072866
   4 C :   -0.223950
   5 H :    0.036710
   6 C :   -0.029691
   7 H :    0.031751
   8 H :    0.024244
   9 C :   -0.031669
  10 H :    0.019945
  11 H :    0.024799
  12 C :   -0.070986
  13 H :    0.015840
  14 H :    0.032290
  15 H :    0.033273
  16 S :    0.416913
  17 C :   -0.182453
  18 C :   -0.070538
  19 C :   -0.048691
  20 C :   -0.202861
  21 H :    0.029773
  22 C :   -0.025974
  23 H :    0.029516
  24 H :    0.028300
  25 C :   -0.040613
  26 H :    0.019006
  27 H :    0.024535
  28 C :   -0.057160
  29 H :    0.030708
  30 H :    0.026937
  31 H :    0.018874
  32 H :    0.016726
  33 H :    0.022159

  Mayer bond orders larger than 0.100000
B(  0-S ,  1-C ) :   1.1312 B(  0-S ,  4-C ) :   1.1741 B(  1-C ,  2-C ) :   1.5992
B(  1-C ,  4-C ) :   0.1049 B(  1-C , 32-H ) :   0.9735 B(  2-C ,  3-C ) :   1.2570
B(  2-C ,  6-C ) :   1.0264 B(  3-C ,  4-C ) :   1.5752 B(  3-C ,  5-H ) :   0.9767
B(  4-C , 20-C ) :   1.0004 B(  6-C ,  7-H ) :   0.9384 B(  6-C ,  8-H ) :   0.9359
B(  6-C ,  9-C ) :   1.0656 B(  9-C , 10-H ) :   0.9620 B(  9-C , 11-H ) :   0.9598
B(  9-C , 12-C ) :   1.0551 B( 12-C , 13-H ) :   0.9809 B( 12-C , 14-H ) :   0.9765
B( 12-C , 15-H ) :   0.9770 B( 16-S , 17-C ) :   1.1593 B( 16-S , 20-C ) :   1.1715
B( 17-C , 18-C ) :   1.5901 B( 17-C , 20-C ) :   0.1034 B( 17-C , 33-H ) :   0.9752
B( 18-C , 19-C ) :   1.2534 B( 18-C , 21-H ) :   0.9882 B( 19-C , 20-C ) :   1.5843
B( 19-C , 22-C ) :   1.0598 B( 22-C , 23-H ) :   0.9218 B( 22-C , 24-H ) :   0.9243
B( 22-C , 25-C ) :   1.0719 B( 25-C , 26-H ) :   0.9528 B( 25-C , 27-H ) :   0.9511
B( 25-C , 28-C ) :   1.0718 B( 28-C , 29-H ) :   0.9745 B( 28-C , 30-H ) :   0.9751
B( 28-C , 31-H ) :   0.9761

Dispersion correction           -0.014473586
FINAL SINGLE POINT ENERGY     -1339.872733958761

DIPOLE MOMENT
-------------
                                X             Y             Z
Electronic contribution:    -16.02908      11.56986     -14.17849
Nuclear contribution   :     16.22402     -12.09393      14.49636
                        -----------------------------------------
Total Dipole Moment    :      0.19494      -0.52407       0.31787
                        -----------------------------------------
Magnitude (a.u.)       :      0.64319
Magnitude (Debye)      :      1.63486

Rotational constants in cm-1:     0.018390     0.008546     0.006879
Rotational constants in MHz :   551.303758   256.190113   206.227371

                             ****ORCA TERMINATED NORMALLY****
TOTAL RUN TIME: 0 days 0 hours 0 minutes 35 seconds 41 msec
