                         Program Version 4.2.1 -  RELEASE  -
|  1> ! wB97X-D3 SP def2-SVP
|  2> %pal
|  3> nprocs 16
|  4> end
|  5>
|  6> * xyz 0 1
|  7> S 	 17.4982 	 29.4366 	 63.2763
|  8> C 	 18.356 	 30.5602 	 62.1718
|  9> C 	 18.7998 	 31.7214 	 62.7859
| 10> C 	 18.6624 	 31.5912 	 64.1652
| 11> C 	 17.9844 	 30.4278 	 64.6228
| 12> H 	 18.746 	 32.3981 	 64.9776
| 13> C 	 19.1563 	 32.9985 	 62.0567
| 14> H 	 18.3934 	 33.1718 	 61.3525
| 15> H 	 20.0007 	 32.8877 	 61.3623
| 16> C 	 19.3768 	 34.2352 	 62.9201
| 17> H 	 18.4566 	 34.3187 	 63.5652
| 18> H 	 20.1913 	 34.2298 	 63.5981
| 19> C 	 19.3451 	 35.4451 	 62.0933
| 20> H 	 19.2373 	 36.3432 	 62.717
| 21> H 	 20.1868 	 35.6155 	 61.4598
| 22> H 	 18.4591 	 35.3669 	 61.4752
| 23> S 	 15.6913 	 30.1042 	 66.095
| 24> C 	 15.6754 	 29.9849 	 67.8121
| 25> C 	 16.9595 	 30.1519 	 68.3078
| 26> C 	 17.972 	 30.3718 	 67.3382
| 27> C 	 17.4572 	 30.2178 	 66.029
| 28> H 	 17.1745 	 30.0961 	 69.3636
| 29> C 	 19.3986 	 30.642 	 67.7139
| 30> H 	 20.0089 	 30.7082 	 66.8114
| 31> H 	 19.6948 	 29.6379 	 68.0639
| 32> C 	 19.538 	 31.7479 	 68.6951
| 33> H 	 20.543 	 31.7142 	 69.0494
| 34> H 	 18.8613 	 31.8374 	 69.5427
| 35> C 	 19.5143 	 33.0617 	 67.9537
| 36> H 	 20.4449 	 33.1618 	 67.2533
| 37> H 	 19.6012 	 33.8836 	 68.6836
| 38> H 	 18.6076 	 33.2186 	 67.3283
| 39> H 	 18.1616 	 30.656 	 61.1595
| 40> H 	 14.8045 	 29.9022 	 68.4326
| 41> *
| 42>
| 43>                          ****END OF INPUT****

CARTESIAN COORDINATES (ANGSTROEM)
---------------------------------
  S     17.498200   29.436600   63.276300
  C     18.356000   30.560200   62.171800
  C     18.799800   31.721400   62.785900
  C     18.662400   31.591200   64.165200
  C     17.984400   30.427800   64.622800
  H     18.746000   32.398100   64.977600
  C     19.156300   32.998500   62.056700
  H     18.393400   33.171800   61.352500
  H     20.000700   32.887700   61.362300
  C     19.376800   34.235200   62.920100
  H     18.456600   34.318700   63.565200
  H     20.191300   34.229800   63.598100
  C     19.345100   35.445100   62.093300
  H     19.237300   36.343200   62.717000
  H     20.186800   35.615500   61.459800
  H     18.459100   35.366900   61.475200
  S     15.691300   30.104200   66.095000
  C     15.675400   29.984900   67.812100
  C     16.959500   30.151900   68.307800
  C     17.972000   30.371800   67.338200
  C     17.457200   30.217800   66.029000
  H     17.174500   30.096100   69.363600
  C     19.398600   30.642000   67.713900
  H     20.008900   30.708200   66.811400
  H     19.694800   29.637900   68.063900
  C     19.538000   31.747900   68.695100
  H     20.543000   31.714200   69.049400
  H     18.861300   31.837400   69.542700
  C     19.514300   33.061700   67.953700
  H     20.444900   33.161800   67.253300
  H     19.601200   33.883600   68.683600
  H     18.607600   33.218600   67.328300
  H     18.161600   30.656000   61.159500
  H     14.804500   29.902200   68.432600

 Total Charge           Charge          ....    0
 Multiplicity           Mult            ....    1
 Number of Electrons    NEL             ....  134
 Basis Dimension        Dim             ....  322

ORBITAL ENERGIES
----------------

  NO   OCC          E(Eh)            E(eV)
   0   2.0000     -88.972404     -2421.0622
   1   2.0000     -88.963167     -2420.8108
   2   2.0000     -10.335620      -281.2465
   3   2.0000     -10.331857      -281.1441
   4   2.0000     -10.315272      -280.6928
   5   2.0000     -10.306365      -280.4505
   6   2.0000     -10.304611      -280.4027
   7   2.0000     -10.301633      -280.3217
   8   2.0000     -10.297342      -280.2049
   9   2.0000     -10.292536      -280.0742
  10   2.0000     -10.291073      -280.0343
  11   2.0000     -10.290263      -280.0123
  12   2.0000     -10.286303      -279.9045
  13   2.0000     -10.284061      -279.8435
  14   2.0000     -10.283877      -279.8385
  15   2.0000     -10.272575      -279.5310
  16   2.0000      -8.085936      -220.0295
  17   2.0000      -8.078063      -219.8153
  18   2.0000      -6.044427      -164.4772
  19   2.0000      -6.040629      -164.3739
  20   2.0000      -6.036770      -164.2689
  21   2.0000      -6.036537      -164.2625
  22   2.0000      -6.032472      -164.1519
  23   2.0000      -6.028931      -164.0555
  24   2.0000      -1.001818       -27.2608
  25   2.0000      -0.983365       -26.7587
  26   2.0000      -0.924772       -25.1643
  27   2.0000      -0.922412       -25.1001
  28   2.0000      -0.870862       -23.6974
  29   2.0000      -0.852263       -23.1913
  30   2.0000      -0.844392       -22.9771
  31   2.0000      -0.810911       -22.0660
  32   2.0000      -0.784601       -21.3501
  33   2.0000      -0.773249       -21.0412
  34   2.0000      -0.711877       -19.3712
  35   2.0000      -0.701016       -19.0756
  36   2.0000      -0.690485       -18.7891
  37   2.0000      -0.653512       -17.7830
  38   2.0000      -0.640574       -17.4309
  39   2.0000      -0.612562       -16.6687
  40   2.0000      -0.604523       -16.4499
  41   2.0000      -0.578724       -15.7479
  42   2.0000      -0.570339       -15.5197
  43   2.0000      -0.564142       -15.3511
  44   2.0000      -0.541773       -14.7424
  45   2.0000      -0.530245       -14.4287
  46   2.0000      -0.519555       -14.1378
  47   2.0000      -0.506611       -13.7856
  48   2.0000      -0.498817       -13.5735
  49   2.0000      -0.490746       -13.3539
  50   2.0000      -0.488908       -13.3039
  51   2.0000      -0.481495       -13.1022
  52   2.0000      -0.469251       -12.7690
  53   2.0000      -0.464087       -12.6285
  54   2.0000      -0.456393       -12.4191
  55   2.0000      -0.454098       -12.3566
  56   2.0000      -0.445406       -12.1201
  57   2.0000      -0.439715       -11.9653
  58   2.0000      -0.437146       -11.8954
  59   2.0000      -0.428743       -11.6667
  60   2.0000      -0.427233       -11.6256
  61   2.0000      -0.413826       -11.2608
  62   2.0000      -0.409986       -11.1563
  63   2.0000      -0.339667        -9.2428
  64   2.0000      -0.335569        -9.1313
  65   2.0000      -0.325951        -8.8696
  66   2.0000      -0.287816        -7.8319
  67   0.0000       0.025222         0.6863
  68   0.0000       0.065139         1.7725
  69   0.0000       0.108563         2.9541
  70   0.0000       0.121101         3.2953
  71   0.0000       0.132648         3.6095

MULLIKEN ATOMIC CHARGES
-----------------------
   0 S :    0.114936
   1 C :   -0.077885
   2 C :   -0.090106
   3 C :   -0.006539
   4 C :   -0.160185
   5 H :    0.033605
   6 C :    0.078798
   7 H :    0.008975
   8 H :    0.030867
   9 C :   -0.081252
  10 H :    0.032745
  11 H :    0.031568
  12 C :   -0.018882
  13 H :    0.030499
  14 H :    0.024852
  15 H :    0.018105
  16 S :    0.096886
  17 C :   -0.076246
  18 C :   -0.043989
  19 C :   -0.070833
  20 C :   -0.159907
  21 H :    0.013916
  22 C :    0.083289
  23 H :    0.020865
  24 H :    0.037050
  25 C :   -0.022314
  26 H :    0.021546
  27 H :    0.041308
  28 C :   -0.112970
  29 H :    0.038736
  30 H :    0.033631
  31 H :    0.054433
  32 H :    0.020165
  33 H :    0.054330
Sum of atomic charges:    0.0000000

LOEWDIN ATOMIC CHARGES
----------------------
   0 S :    0.407450
   1 C :   -0.189222
   2 C :   -0.054828
   3 C :   -0.080023
   4 C :   -0.203888
   5 H :    0.041226
   6 C :   -0.028354
   7 H :    0.027949
   8 H :    0.036573
   9 C :   -0.042400
  10 H :    0.032707
  11 H :    0.019321
  12 C :   -0.058817
  13 H :    0.029552
  14 H :    0.018660
  15 H :    0.024691
  16 S :    0.410670
  17 C :   -0.192052
  18 C :   -0.075886
  19 C :   -0.055236
  20 C :   -0.198986
  21 H :    0.027726
  22 C :   -0.034036
  23 H :    0.035222
  24 H :    0.038958
  25 C :   -0.042727
  26 H :    0.027348
  27 H :    0.028633
  28 C :   -0.069493
  29 H :    0.031378
  30 H :    0.024247
  31 H :    0.023827
  32 H :    0.010691
  33 H :    0.029122

  Mayer bond orders larger than 0.100000
B(  0-S ,  1-C ) :   1.1361 B(  0-S ,  4-C ) :   1.1757 B(  1-C ,  2-C ) :   1.6110
B(  1-C ,  4-C ) :   0.1084 B(  1-C , 32-H ) :   0.9649 B(  2-C ,  3-C ) :   1.3005
B(  2-C ,  6-C ) :   0.9980 B(  3-C ,  4-C ) :   1.5304 B(  3-C ,  5-H ) :   0.9675
B(  4-C , 20-C ) :   1.0081 B(  6-C ,  7-H ) :   0.9319 B(  6-C ,  8-H ) :   0.9285
B(  6-C ,  9-C ) :   1.0859 B(  9-C , 10-H ) :   0.9464 B(  9-C , 11-H ) :   0.9507
B(  9-C , 12-C ) :   1.0931 B( 12-C , 13-H ) :   0.9701 B( 12-C , 14-H ) :   0.9725
B( 12-C , 15-H ) :   0.9723 B( 16-S , 17-C ) :   1.1680 B( 16-S , 20-C ) :   1.1534
B( 17-C , 18-C ) :   1.5773 B( 17-C , 20-C ) :   0.1018 B( 17-C , 33-H ) :   0.9714
B( 18-C , 19-C ) :   1.2672 B( 18-C , 21-H ) :   0.9895 B( 19-C , 20-C ) :   1.5677
B( 19-C , 22-C ) :   1.0325 B( 22-C , 23-H ) :   0.9333 B( 22-C , 24-H ) :   0.9295
B( 22-C , 25-C ) :   1.0646 B( 25-C , 26-H ) :   0.9447 B( 25-C , 27-H ) :   0.9595
B( 25-C , 28-C ) :   1.0734 B( 28-C , 29-H ) :   0.9742 B( 28-C , 30-H ) :   0.9706
B( 28-C , 31-H ) :   0.9701

Dispersion correction           -0.014434918
FINAL SINGLE POINT ENERGY     -1339.857010134459

DIPOLE MOMENT
-------------
                                X             Y             Z
Electronic contribution:    -16.22257     -24.39681      -2.72496
Nuclear contribution   :     16.43217      25.08995       2.99994
                        -----------------------------------------
Total Dipole Moment    :      0.20960       0.69313       0.27498
                        -----------------------------------------
Magnitude (a.u.)       :      0.77458
Magnitude (Debye)      :      1.96884

Rotational constants in cm-1:     0.017298     0.009362     0.007001
Rotational constants in MHz :   518.572541   280.668603   209.882923

                             ****ORCA TERMINATED NORMALLY****
TOTAL RUN TIME: 0 days 0 hours 0 minutes 35 seconds 631 msec
