                         Program Version 4.2.1 -  RELEASE  -
|  1> ! wB97X-D3 SP def2-SVP
|  2> %pal
|  3> nprocs 16
|  4> end
|  5>
|  6> * xyz 0 1
|  7> S 	 7.25641 	 -20.3101 	 87.0825
|  8> C 	 7.09923 	 -21.0804 	 88.5982
|  9> C 	 6.64363 	 -20.2656 	 89.5665
| 10> C 	 6.79503 	 -18.9123 	 89.1461
| 11> C 	 7.09478 	 -18.7672 	 87.8823
| 12> H 	 6.67685 	 -18.0164 	 89.7656
| 13> C 	 6.28303 	 -20.7191 	 90.9223
| 14> H 	 7.217 	 -20.5492 	 91.5233
| 15> H 	 6.13384 	 -21.7928 	 90.9016
| 16> C 	 4.98541 	 -20.0956 	 91.603
| 17> H 	 5.12406 	 -20.391 	 92.6956
| 18> H 	 4.93626 	 -19.0016 	 91.5572
| 19> C 	 3.71073 	 -20.649 	 91.0376
| 20> H 	 3.65603 	 -20.4828 	 90.01
| 21> H 	 3.63093 	 -21.7234 	 91.2408
| 22> H 	 2.93912 	 -20.0941 	 91.5462
| 23> S 	 8.83033 	 -17.4724 	 86.1377
| 24> C 	 8.47978 	 -15.7984 	 85.5783
| 25> C 	 7.43266 	 -15.255 	 86.2613
| 26> C 	 6.84275 	 -16.2184 	 87.1588
| 27> C 	 7.42579 	 -17.4915 	 87.2124
| 28> H 	 7.27353 	 -14.1837 	 86.094
| 29> C 	 5.63639 	 -15.8193 	 87.8873
| 30> H 	 5.40468 	 -16.6645 	 88.5441
| 31> H 	 4.83681 	 -15.637 	 87.2493
| 32> C 	 5.78277 	 -14.5224 	 88.6994
| 33> H 	 5.45803 	 -13.7393 	 88.0612
| 34> H 	 6.80794 	 -14.3569 	 88.9584
| 35> C 	 4.91503 	 -14.7036 	 90.0052
| 36> H 	 3.86477 	 -15.0232 	 89.7397
| 37> H 	 4.84878 	 -13.7505 	 90.5237
| 38> H 	 5.21438 	 -15.431 	 90.7045
| 39> H 	 7.45068 	 -22.0992 	 88.8072
| 40> H 	 9.05905 	 -15.2267 	 84.8127
| 41> *
| 42>
| 43>                          ****END OF INPUT****

CARTESIAN COORDINATES (ANGSTROEM)
---------------------------------
  S      7.256410  -20.310100   87.082500
  C      7.099230  -21.080400   88.598200
  C      6.643630  -20.265600   89.566500
  C      6.795030  -18.912300   89.146100
  C      7.094780  -18.767200   87.882300
  H      6.676850  -18.016400   89.765600
  C      6.283030  -20.719100   90.922300
  H      7.217000  -20.549200   91.523300
  H      6.133840  -21.792800   90.901600
  C      4.985410  -20.095600   91.603000
  H      5.124060  -20.391000   92.695600
  H      4.936260  -19.001600   91.557200
  C      3.710730  -20.649000   91.037600
  H      3.656030  -20.482800   90.010000
  H      3.630930  -21.723400   91.240800
  H      2.939120  -20.094100   91.546200
  S      8.830330  -17.472400   86.137700
  C      8.479780  -15.798400   85.578300
  C      7.432660  -15.255000   86.261300
  C      6.842750  -16.218400   87.158800
  C      7.425790  -17.491500   87.212400
  H      7.273530  -14.183700   86.094000
  C      5.636390  -15.819300   87.887300
  H      5.404680  -16.664500   88.544100
  H      4.836810  -15.637000   87.249300
  C      5.782770  -14.522400   88.699400
  H      5.458030  -13.739300   88.061200
  H      6.807940  -14.356900   88.958400
  C      4.915030  -14.703600   90.005200
  H      3.864770  -15.023200   89.739700
  H      4.848780  -13.750500   90.523700
  H      5.214380  -15.431000   90.704500
  H      7.450680  -22.099200   88.807200
  H      9.059050  -15.226700   84.812700

 Total Charge           Charge          ....    0
 Multiplicity           Mult            ....    1
 Number of Electrons    NEL             ....  134
 Basis Dimension        Dim             ....  322

ORBITAL ENERGIES
----------------

  NO   OCC          E(Eh)            E(eV)
   0   2.0000     -88.961026     -2420.7526
   1   2.0000     -88.960072     -2420.7266
   2   2.0000     -10.329123      -281.0697
   3   2.0000     -10.322043      -280.8771
   4   2.0000     -10.322027      -280.8766
   5   2.0000     -10.305192      -280.4185
   6   2.0000     -10.301925      -280.3296
   7   2.0000     -10.296102      -280.1712
   8   2.0000     -10.294339      -280.1232
   9   2.0000     -10.294138      -280.1177
  10   2.0000     -10.292625      -280.0766
  11   2.0000     -10.286424      -279.9078
  12   2.0000     -10.284278      -279.8494
  13   2.0000     -10.281901      -279.7847
  14   2.0000     -10.274886      -279.5939
  15   2.0000     -10.271225      -279.4943
  16   2.0000      -8.077217      -219.7922
  17   2.0000      -8.073913      -219.7024
  18   2.0000      -6.035741      -164.2409
  19   2.0000      -6.032605      -164.1555
  20   2.0000      -6.031795      -164.1335
  21   2.0000      -6.028488      -164.0435
  22   2.0000      -6.027575      -164.0186
  23   2.0000      -6.024573      -163.9370
  24   2.0000      -1.016305       -27.6551
  25   2.0000      -0.984598       -26.7923
  26   2.0000      -0.913662       -24.8620
  27   2.0000      -0.910246       -24.7691
  28   2.0000      -0.874911       -23.8075
  29   2.0000      -0.855570       -23.2812
  30   2.0000      -0.841578       -22.9005
  31   2.0000      -0.825574       -22.4650
  32   2.0000      -0.780257       -21.2319
  33   2.0000      -0.767083       -20.8734
  34   2.0000      -0.712732       -19.3944
  35   2.0000      -0.701802       -19.0970
  36   2.0000      -0.689371       -18.7587
  37   2.0000      -0.654113       -17.7993
  38   2.0000      -0.642425       -17.4813
  39   2.0000      -0.626497       -17.0479
  40   2.0000      -0.596003       -16.2181
  41   2.0000      -0.575784       -15.6679
  42   2.0000      -0.566585       -15.4176
  43   2.0000      -0.555816       -15.1245
  44   2.0000      -0.543342       -14.7851
  45   2.0000      -0.529196       -14.4001
  46   2.0000      -0.517676       -14.0867
  47   2.0000      -0.507090       -13.7986
  48   2.0000      -0.502653       -13.6779
  49   2.0000      -0.498950       -13.5771
  50   2.0000      -0.492532       -13.4025
  51   2.0000      -0.481651       -13.1064
  52   2.0000      -0.475073       -12.9274
  53   2.0000      -0.471699       -12.8356
  54   2.0000      -0.458060       -12.4645
  55   2.0000      -0.448060       -12.1923
  56   2.0000      -0.441512       -12.0142
  57   2.0000      -0.436325       -11.8730
  58   2.0000      -0.433628       -11.7996
  59   2.0000      -0.429807       -11.6956
  60   2.0000      -0.425839       -11.5877
  61   2.0000      -0.414944       -11.2912
  62   2.0000      -0.408710       -11.1216
  63   2.0000      -0.351148        -9.5552
  64   2.0000      -0.327111        -8.9011
  65   2.0000      -0.324567        -8.8319
  66   2.0000      -0.292203        -7.9512
  67   0.0000       0.030947         0.8421
  68   0.0000       0.081060         2.2057
  69   0.0000       0.109044         2.9672
  70   0.0000       0.114465         3.1148
  71   0.0000       0.124828         3.3968

MULLIKEN ATOMIC CHARGES
-----------------------
   0 S :    0.119664
   1 C :   -0.147260
   2 C :   -0.068043
   3 C :    0.002659
   4 C :   -0.122739
   5 H :    0.017991
   6 C :    0.044216
   7 H :    0.049691
   8 H :    0.013012
   9 C :   -0.113170
  10 H :    0.040223
  11 H :    0.032588
  12 C :   -0.003944
  13 H :    0.030487
  14 H :    0.030995
  15 H :    0.031266
  16 S :    0.079375
  17 C :   -0.109534
  18 C :   -0.034648
  19 C :   -0.064345
  20 C :   -0.134899
  21 H :    0.034856
  22 C :    0.097862
  23 H :    0.002369
  24 H :    0.020838
  25 C :   -0.063177
  26 H :    0.027128
  27 H :    0.032722
  28 C :   -0.065453
  29 H :    0.032564
  30 H :    0.032726
  31 H :    0.028942
  32 H :    0.054921
  33 H :    0.070119
Sum of atomic charges:   -0.0000000

LOEWDIN ATOMIC CHARGES
----------------------
   0 S :    0.408199
   1 C :   -0.203659
   2 C :   -0.073377
   3 C :   -0.063624
   4 C :   -0.191064
   5 H :    0.034661
   6 C :   -0.038787
   7 H :    0.040727
   8 H :    0.027522
   9 C :   -0.040554
  10 H :    0.032517
  11 H :    0.020685
  12 C :   -0.056480
  13 H :    0.019942
  14 H :    0.027477
  15 H :    0.028482
  16 S :    0.368550
  17 C :   -0.167977
  18 C :   -0.080196
  19 C :   -0.055127
  20 C :   -0.191553
  21 H :    0.040858
  22 C :   -0.031617
  23 H :    0.024948
  24 H :    0.025521
  25 C :   -0.026238
  26 H :    0.019989
  27 H :    0.020255
  28 C :   -0.062823
  29 H :    0.029888
  30 H :    0.023493
  31 H :    0.017178
  32 H :    0.033058
  33 H :    0.039124

  Mayer bond orders larger than 0.100000
B(  0-S ,  1-C ) :   1.1349 B(  0-S ,  4-C ) :   1.1224 B(  1-C ,  2-C ) :   1.6377
B(  1-C , 32-H ) :   0.9616 B(  2-C ,  3-C ) :   1.1880 B(  2-C ,  6-C ) :   1.0374
B(  3-C ,  4-C ) :   1.6431 B(  3-C ,  5-H ) :   0.9897 B(  4-C , 20-C ) :   1.0244
B(  6-C ,  7-H ) :   0.9342 B(  6-C ,  8-H ) :   0.9387 B(  6-C ,  9-C ) :   1.0580
B(  9-C , 10-H ) :   0.9555 B(  9-C , 11-H ) :   0.9617 B(  9-C , 12-C ) :   1.0765
B( 12-C , 13-H ) :   0.9769 B( 12-C , 14-H ) :   0.9725 B( 12-C , 15-H ) :   0.9710
B( 16-S , 17-C ) :   1.1419 B( 16-S , 20-C ) :   1.1129 B( 17-C , 18-C ) :   1.6487
B( 17-C , 33-H ) :   0.9581 B( 18-C , 19-C ) :   1.1921 B( 18-C , 21-H ) :   0.9890
B( 19-C , 20-C ) :   1.6138 B( 19-C , 22-C ) :   1.0727 B( 22-C , 23-H ) :   0.9379
B( 22-C , 24-H ) :   0.9204 B( 22-C , 25-C ) :   1.0421 B( 25-C , 26-H ) :   0.9535
B( 25-C , 27-H ) :   0.9675 B( 25-C , 28-C ) :   1.0783 B( 28-C , 29-H ) :   0.9739
B( 28-C , 30-H ) :   0.9754 B( 28-C , 31-H ) :   0.9786

Dispersion correction           -0.014176162
FINAL SINGLE POINT ENERGY     -1339.859746302409

DIPOLE MOMENT
-------------
                                X             Y             Z
Electronic contribution:     19.23304      -7.26125     -22.81671
Nuclear contribution   :    -19.56179       7.59860      23.36605
                        -----------------------------------------
Total Dipole Moment    :     -0.32875       0.33735       0.54934
                        -----------------------------------------
Magnitude (a.u.)       :      0.72364
Magnitude (Debye)      :      1.83934

Rotational constants in cm-1:     0.017461     0.009817     0.006658
Rotational constants in MHz :   523.479946   294.300733   199.593860

                             ****ORCA TERMINATED NORMALLY****
TOTAL RUN TIME: 0 days 0 hours 0 minutes 34 seconds 999 msec
