                         Program Version 4.2.1 -  RELEASE  -
|  1> ! wB97X-D3 SP def2-SVP
|  2> %pal
|  3> nprocs 16
|  4> end
|  5>
|  6> * xyz 0 1
|  7> S 	 -42.8076 	 28.1839 	 77.9391
|  8> C 	 -42.9842 	 29.368 	 76.7029
|  9> C 	 -44.0452 	 30.1908 	 76.8782
| 10> C 	 -44.7942 	 29.9401 	 78.0335
| 11> C 	 -44.2397 	 28.8882 	 78.7126
| 12> H 	 -45.6353 	 30.4919 	 78.4537
| 13> C 	 -44.2983 	 31.2609 	 75.8307
| 14> H 	 -43.3561 	 31.6863 	 75.828
| 15> H 	 -44.8853 	 32.1158 	 76.2312
| 16> C 	 -44.5198 	 30.8041 	 74.4048
| 17> H 	 -43.9126 	 29.9171 	 74.2829
| 18> H 	 -45.5539 	 30.452 	 74.2065
| 19> C 	 -44.0812 	 31.8244 	 73.3237
| 20> H 	 -44.3696 	 31.5205 	 72.3301
| 21> H 	 -44.5099 	 32.838 	 73.5201
| 22> H 	 -43.027 	 31.8187 	 73.3724
| 23> S 	 -43.3741 	 28.11 	 81.1272
| 24> C 	 -44.5515 	 27.5219 	 82.2162
| 25> C 	 -45.8028 	 27.5319 	 81.6964
| 26> C 	 -45.874 	 28.102 	 80.3886
| 27> C 	 -44.6186 	 28.4388 	 79.9626
| 28> H 	 -46.571 	 27.1085 	 82.3091
| 29> C 	 -47.2569 	 28.1117 	 79.6319
| 30> H 	 -47.6336 	 27.149 	 79.9031
| 31> H 	 -47.2393 	 27.9838 	 78.538
| 32> C 	 -48.1923 	 29.2139 	 80.0627
| 33> H 	 -47.6508 	 30.1698 	 79.8868
| 34> H 	 -48.3402 	 29.0827 	 81.1102
| 35> C 	 -49.5737 	 29.2399 	 79.3892
| 36> H 	 -50.042 	 30.2587 	 79.5543
| 37> H 	 -50.1923 	 28.5619 	 80.0117
| 38> H 	 -49.5345 	 28.9666 	 78.2974
| 39> H 	 -42.3084 	 29.4712 	 75.918
| 40> H 	 -44.4498 	 27.0541 	 83.1769
| 41> *
| 42>
| 43>                          ****END OF INPUT****

CARTESIAN COORDINATES (ANGSTROEM)
---------------------------------
  S    -42.807600   28.183900   77.939100
  C    -42.984200   29.368000   76.702900
  C    -44.045200   30.190800   76.878200
  C    -44.794200   29.940100   78.033500
  C    -44.239700   28.888200   78.712600
  H    -45.635300   30.491900   78.453700
  C    -44.298300   31.260900   75.830700
  H    -43.356100   31.686300   75.828000
  H    -44.885300   32.115800   76.231200
  C    -44.519800   30.804100   74.404800
  H    -43.912600   29.917100   74.282900
  H    -45.553900   30.452000   74.206500
  C    -44.081200   31.824400   73.323700
  H    -44.369600   31.520500   72.330100
  H    -44.509900   32.838000   73.520100
  H    -43.027000   31.818700   73.372400
  S    -43.374100   28.110000   81.127200
  C    -44.551500   27.521900   82.216200
  C    -45.802800   27.531900   81.696400
  C    -45.874000   28.102000   80.388600
  C    -44.618600   28.438800   79.962600
  H    -46.571000   27.108500   82.309100
  C    -47.256900   28.111700   79.631900
  H    -47.633600   27.149000   79.903100
  H    -47.239300   27.983800   78.538000
  C    -48.192300   29.213900   80.062700
  H    -47.650800   30.169800   79.886800
  H    -48.340200   29.082700   81.110200
  C    -49.573700   29.239900   79.389200
  H    -50.042000   30.258700   79.554300
  H    -50.192300   28.561900   80.011700
  H    -49.534500   28.966600   78.297400
  H    -42.308400   29.471200   75.918000
  H    -44.449800   27.054100   83.176900

 Total Charge           Charge          ....    0
 Multiplicity           Mult            ....    1
 Number of Electrons    NEL             ....  134
 Basis Dimension        Dim             ....  322

ORBITAL ENERGIES
----------------

  NO   OCC          E(Eh)            E(eV)
   0   2.0000     -88.965179     -2420.8656
   1   2.0000     -88.965114     -2420.8638
   2   2.0000     -10.317977      -280.7664
   3   2.0000     -10.313579      -280.6468
   4   2.0000     -10.305638      -280.4307
   5   2.0000     -10.301831      -280.3271
   6   2.0000     -10.298823      -280.2452
   7   2.0000     -10.292640      -280.0770
   8   2.0000     -10.292170      -280.0642
   9   2.0000     -10.290009      -280.0054
  10   2.0000     -10.289455      -279.9903
  11   2.0000     -10.285784      -279.8904
  12   2.0000     -10.285329      -279.8780
  13   2.0000     -10.284663      -279.8599
  14   2.0000     -10.282653      -279.8052
  15   2.0000     -10.278159      -279.6829
  16   2.0000      -8.081008      -219.8954
  17   2.0000      -8.080261      -219.8751
  18   2.0000      -6.039472      -164.3424
  19   2.0000      -6.038584      -164.3182
  20   2.0000      -6.035469      -164.2335
  21   2.0000      -6.034870      -164.2172
  22   2.0000      -6.031620      -164.1287
  23   2.0000      -6.031037      -164.1129
  24   2.0000      -1.018134       -27.7048
  25   2.0000      -0.991094       -26.9690
  26   2.0000      -0.916065       -24.9274
  27   2.0000      -0.909889       -24.7593
  28   2.0000      -0.877660       -23.8823
  29   2.0000      -0.857559       -23.3354
  30   2.0000      -0.848078       -23.0774
  31   2.0000      -0.818292       -22.2669
  32   2.0000      -0.785573       -21.3765
  33   2.0000      -0.770430       -20.9645
  34   2.0000      -0.710249       -19.3269
  35   2.0000      -0.704085       -19.1591
  36   2.0000      -0.691883       -18.8271
  37   2.0000      -0.665031       -18.0964
  38   2.0000      -0.641845       -17.4655
  39   2.0000      -0.619400       -16.8547
  40   2.0000      -0.596558       -16.2332
  41   2.0000      -0.572133       -15.5685
  42   2.0000      -0.567174       -15.4336
  43   2.0000      -0.554262       -15.0822
  44   2.0000      -0.526544       -14.3280
  45   2.0000      -0.522460       -14.2169
  46   2.0000      -0.519806       -14.1446
  47   2.0000      -0.515661       -14.0318
  48   2.0000      -0.506569       -13.7845
  49   2.0000      -0.498695       -13.5702
  50   2.0000      -0.492446       -13.4001
  51   2.0000      -0.484011       -13.1706
  52   2.0000      -0.475566       -12.9408
  53   2.0000      -0.463175       -12.6036
  54   2.0000      -0.459724       -12.5097
  55   2.0000      -0.452882       -12.3235
  56   2.0000      -0.444238       -12.0883
  57   2.0000      -0.439411       -11.9570
  58   2.0000      -0.432525       -11.7696
  59   2.0000      -0.426895       -11.6164
  60   2.0000      -0.423004       -11.5105
  61   2.0000      -0.416213       -11.3257
  62   2.0000      -0.410967       -11.1830
  63   2.0000      -0.353181        -9.6105
  64   2.0000      -0.335155        -9.1200
  65   2.0000      -0.331998        -9.0341
  66   2.0000      -0.283661        -7.7188
  67   0.0000       0.030811         0.8384
  68   0.0000       0.076242         2.0747
  69   0.0000       0.115495         3.1428
  70   0.0000       0.129027         3.5110
  71   0.0000       0.135745         3.6938

MULLIKEN ATOMIC CHARGES
-----------------------
   0 S :    0.116528
   1 C :   -0.114294
   2 C :   -0.065070
   3 C :    0.006472
   4 C :   -0.151377
   5 H :    0.011994
   6 C :    0.112355
   7 H :   -0.003625
   8 H :    0.018769
   9 C :   -0.067795
  10 H :    0.016144
  11 H :    0.030799
  12 C :   -0.042193
  13 H :    0.031448
  14 H :    0.042356
  15 H :    0.022989
  16 S :    0.126831
  17 C :   -0.073045
  18 C :   -0.051333
  19 C :   -0.007173
  20 C :   -0.176968
  21 H :    0.006899
  22 C :    0.069551
  23 H :    0.006624
  24 H :    0.026545
  25 C :   -0.072335
  26 H :    0.031601
  27 H :    0.020236
  28 C :   -0.064799
  29 H :    0.046221
  30 H :    0.035278
  31 H :    0.051570
  32 H :    0.018233
  33 H :    0.040562
Sum of atomic charges:    0.0000000

LOEWDIN ATOMIC CHARGES
----------------------
   0 S :    0.403832
   1 C :   -0.198941
   2 C :   -0.058265
   3 C :   -0.057451
   4 C :   -0.176484
   5 H :    0.037751
   6 C :   -0.037141
   7 H :    0.025593
   8 H :    0.031699
   9 C :   -0.038533
  10 H :    0.021783
  11 H :    0.023077
  12 C :   -0.058928
  13 H :    0.024894
  14 H :    0.029813
  15 H :    0.018100
  16 S :    0.423604
  17 C :   -0.201262
  18 C :   -0.070821
  19 C :   -0.048048
  20 C :   -0.206887
  21 H :    0.027535
  22 C :   -0.030576
  23 H :    0.024935
  24 H :    0.029166
  25 C :   -0.045820
  26 H :    0.022309
  27 H :    0.021082
  28 C :   -0.072611
  29 H :    0.035513
  30 H :    0.028584
  31 H :    0.031521
  32 H :    0.011226
  33 H :    0.029751

  Mayer bond orders larger than 0.100000
B(  0-S ,  1-C ) :   1.1233 B(  0-S ,  4-C ) :   1.1428 B(  1-C ,  2-C ) :   1.6235
B(  1-C , 32-H ) :   0.9718 B(  2-C ,  3-C ) :   1.2371 B(  2-C ,  6-C ) :   0.9974
B(  3-C ,  4-C ) :   1.5596 B(  3-C ,  5-H ) :   1.0031 B(  4-C , 20-C ) :   1.1064
B(  6-C ,  7-H ) :   0.9273 B(  6-C ,  8-H ) :   0.9368 B(  6-C ,  9-C ) :   1.0552
B(  9-C , 10-H ) :   0.9557 B(  9-C , 11-H ) :   0.9560 B(  9-C , 12-C ) :   1.0729
B( 12-C , 13-H ) :   0.9748 B( 12-C , 14-H ) :   0.9787 B( 12-C , 15-H ) :   0.9768
B( 16-S , 17-C ) :   1.1358 B( 16-S , 20-C ) :   1.1303 B( 17-C , 18-C ) :   1.6582
B( 17-C , 33-H ) :   0.9621 B( 18-C , 19-C ) :   1.2202 B( 18-C , 21-H ) :   0.9889
B( 19-C , 20-C ) :   1.6072 B( 19-C , 22-C ) :   1.0170 B( 22-C , 23-H ) :   0.9344
B( 22-C , 24-H ) :   0.9381 B( 22-C , 25-C ) :   1.0633 B( 25-C , 26-H ) :   0.9558
B( 25-C , 27-H ) :   0.9546 B( 25-C , 28-C ) :   1.0758 B( 28-C , 29-H ) :   0.9738
B( 28-C , 30-H ) :   0.9774 B( 28-C , 31-H ) :   0.9739

Dispersion correction           -0.013698865
FINAL SINGLE POINT ENERGY     -1339.865725683512

DIPOLE MOMENT
-------------
                                X             Y             Z
Electronic contribution:     20.69256     -12.74912      16.94615
Nuclear contribution   :    -21.15912      12.89302     -17.07385
                        -----------------------------------------
Total Dipole Moment    :     -0.46656       0.14390      -0.12770
                        -----------------------------------------
Magnitude (a.u.)       :      0.50467
Magnitude (Debye)      :      1.28278

Rotational constants in cm-1:     0.018541     0.008478     0.006107
Rotational constants in MHz :   555.858940   254.153005   183.081660

                             ****ORCA TERMINATED NORMALLY****
TOTAL RUN TIME: 0 days 0 hours 0 minutes 29 seconds 824 msec
