                         Program Version 4.2.1 -  RELEASE  -
|  1> ! wB97X-D3 SP def2-SVP
|  2> %pal
|  3> nprocs 16
|  4> end
|  5>
|  6> * xyz 0 1
|  7> S 	 48.1947 	 3.23294 	 86.5897
|  8> C 	 49.787 	 3.17025 	 85.9685
|  9> C 	 50.7077 	 2.82217 	 86.9088
| 10> C 	 50.0912 	 2.64441 	 88.1967
| 11> C 	 48.7429 	 2.88207 	 88.1861
| 12> H 	 50.625 	 2.46385 	 89.1386
| 13> C 	 52.2333 	 2.64494 	 86.7964
| 14> H 	 52.6294 	 2.21776 	 87.7703
| 15> H 	 52.8325 	 3.60953 	 86.6961
| 16> C 	 52.6569 	 1.85358 	 85.4624
| 17> H 	 52.1001 	 0.901166 	 85.3729
| 18> H 	 52.4349 	 2.5003 	 84.6764
| 19> C 	 54.1662 	 1.45313 	 85.4219
| 20> H 	 54.4649 	 1.10827 	 86.3515
| 21> H 	 54.3195 	 0.702126 	 84.6578
| 22> H 	 54.8183 	 2.33285 	 85.2528
| 23> S 	 47.5284 	 4.46286 	 90.1131
| 24> C 	 47.0474 	 3.70061 	 91.6352
| 25> C 	 47.0083 	 2.38717 	 91.5152
| 26> C 	 47.5179 	 1.91201 	 90.237
| 27> C 	 47.9306 	 2.91875 	 89.4053
| 28> H 	 46.6934 	 1.80184 	 92.3061
| 29> C 	 47.728 	 0.474843 	 89.9435
| 30> H 	 48.7957 	 0.38085 	 89.9327
| 31> H 	 47.4051 	 0.22898 	 88.932
| 32> C 	 47.1847 	 -0.506701 	 90.9589
| 33> H 	 46.1616 	 -0.224486 	 91.2139
| 34> H 	 47.5571 	 -0.350676 	 92.0406
| 35> C 	 47.3713 	 -1.95048 	 90.4586
| 36> H 	 46.7098 	 -2.26357 	 89.631
| 37> H 	 47.0476 	 -2.6606 	 91.2094
| 38> H 	 48.3674 	 -2.06986 	 90.1907
| 39> H 	 50.0961 	 3.35509 	 84.9476
| 40> H 	 46.6204 	 4.36569 	 92.3986
| 41> *
| 42>
| 43>                          ****END OF INPUT****

CARTESIAN COORDINATES (ANGSTROEM)
---------------------------------
  S     48.194700    3.232940   86.589700
  C     49.787000    3.170250   85.968500
  C     50.707700    2.822170   86.908800
  C     50.091200    2.644410   88.196700
  C     48.742900    2.882070   88.186100
  H     50.625000    2.463850   89.138600
  C     52.233300    2.644940   86.796400
  H     52.629400    2.217760   87.770300
  H     52.832500    3.609530   86.696100
  C     52.656900    1.853580   85.462400
  H     52.100100    0.901166   85.372900
  H     52.434900    2.500300   84.676400
  C     54.166200    1.453130   85.421900
  H     54.464900    1.108270   86.351500
  H     54.319500    0.702126   84.657800
  H     54.818300    2.332850   85.252800
  S     47.528400    4.462860   90.113100
  C     47.047400    3.700610   91.635200
  C     47.008300    2.387170   91.515200
  C     47.517900    1.912010   90.237000
  C     47.930600    2.918750   89.405300
  H     46.693400    1.801840   92.306100
  C     47.728000    0.474843   89.943500
  H     48.795700    0.380850   89.932700
  H     47.405100    0.228980   88.932000
  C     47.184700   -0.506701   90.958900
  H     46.161600   -0.224486   91.213900
  H     47.557100   -0.350676   92.040600
  C     47.371300   -1.950480   90.458600
  H     46.709800   -2.263570   89.631000
  H     47.047600   -2.660600   91.209400
  H     48.367400   -2.069860   90.190700
  H     50.096100    3.355090   84.947600
  H     46.620400    4.365690   92.398600

 Total Charge           Charge          ....    0
 Multiplicity           Mult            ....    1
 Number of Electrons    NEL             ....  134
 Basis Dimension        Dim             ....  322

ORBITAL ENERGIES
----------------

  NO   OCC          E(Eh)            E(eV)
   0   2.0000     -88.967859     -2420.9385
   1   2.0000     -88.954108     -2420.5643
   2   2.0000     -10.324203      -280.9359
   3   2.0000     -10.319045      -280.7955
   4   2.0000     -10.313719      -280.6506
   5   2.0000     -10.309614      -280.5389
   6   2.0000     -10.307366      -280.4777
   7   2.0000     -10.299714      -280.2695
   8   2.0000     -10.298987      -280.2497
   9   2.0000     -10.291903      -280.0569
  10   2.0000     -10.291541      -280.0471
  11   2.0000     -10.290184      -280.0101
  12   2.0000     -10.285641      -279.8865
  13   2.0000     -10.282856      -279.8107
  14   2.0000     -10.275803      -279.6188
  15   2.0000     -10.275561      -279.6122
  16   2.0000      -8.083533      -219.9641
  17   2.0000      -8.069515      -219.5827
  18   2.0000      -6.041997      -164.4111
  19   2.0000      -6.037884      -164.2992
  20   2.0000      -6.034314      -164.2020
  21   2.0000      -6.028076      -164.0323
  22   2.0000      -6.023990      -163.9211
  23   2.0000      -6.020127      -163.8160
  24   2.0000      -1.011672       -27.5290
  25   2.0000      -0.990103       -26.9421
  26   2.0000      -0.912694       -24.8357
  27   2.0000      -0.901004       -24.5176
  28   2.0000      -0.873846       -23.7785
  29   2.0000      -0.851275       -23.1644
  30   2.0000      -0.845752       -23.0141
  31   2.0000      -0.819272       -22.2935
  32   2.0000      -0.779079       -21.1998
  33   2.0000      -0.770400       -20.9637
  34   2.0000      -0.711625       -19.3643
  35   2.0000      -0.708494       -19.2791
  36   2.0000      -0.693446       -18.8696
  37   2.0000      -0.651892       -17.7389
  38   2.0000      -0.643503       -17.5106
  39   2.0000      -0.614945       -16.7335
  40   2.0000      -0.605011       -16.4632
  41   2.0000      -0.571902       -15.5622
  42   2.0000      -0.563764       -15.3408
  43   2.0000      -0.560651       -15.2561
  44   2.0000      -0.535134       -14.5617
  45   2.0000      -0.525325       -14.2948
  46   2.0000      -0.522204       -14.2099
  47   2.0000      -0.509798       -13.8723
  48   2.0000      -0.499413       -13.5897
  49   2.0000      -0.497104       -13.5269
  50   2.0000      -0.489641       -13.3238
  51   2.0000      -0.479522       -13.0485
  52   2.0000      -0.476956       -12.9786
  53   2.0000      -0.464640       -12.6435
  54   2.0000      -0.457671       -12.4539
  55   2.0000      -0.456608       -12.4249
  56   2.0000      -0.449799       -12.2397
  57   2.0000      -0.435558       -11.8521
  58   2.0000      -0.430759       -11.7215
  59   2.0000      -0.425228       -11.5710
  60   2.0000      -0.422310       -11.4916
  61   2.0000      -0.413984       -11.2651
  62   2.0000      -0.409013       -11.1298
  63   2.0000      -0.341528        -9.2934
  64   2.0000      -0.328904        -8.9499
  65   2.0000      -0.319819        -8.7027
  66   2.0000      -0.308386        -8.3916
  67   0.0000       0.047226         1.2851
  68   0.0000       0.063587         1.7303
  69   0.0000       0.125081         3.4036
  70   0.0000       0.126956         3.4547
  71   0.0000       0.129028         3.5110

MULLIKEN ATOMIC CHARGES
-----------------------
   0 S :    0.135985
   1 C :   -0.123970
   2 C :   -0.049278
   3 C :    0.028147
   4 C :   -0.188209
   5 H :    0.024504
   6 C :    0.009671
   7 H :    0.031675
   8 H :    0.049344
   9 C :   -0.105309
  10 H :    0.044044
  11 H :    0.028105
  12 C :   -0.017144
  13 H :    0.010834
  14 H :    0.039313
  15 H :    0.026846
  16 S :    0.082122
  17 C :   -0.093941
  18 C :    0.004663
  19 C :   -0.059764
  20 C :   -0.158468
  21 H :   -0.011733
  22 C :    0.117738
  23 H :    0.020734
  24 H :    0.033524
  25 C :   -0.132985
  26 H :    0.018738
  27 H :    0.032573
  28 C :    0.011362
  29 H :    0.034487
  30 H :    0.024527
  31 H :    0.022875
  32 H :    0.041622
  33 H :    0.067369
Sum of atomic charges:   -0.0000000

LOEWDIN ATOMIC CHARGES
----------------------
   0 S :    0.435889
   1 C :   -0.208770
   2 C :   -0.068599
   3 C :   -0.057050
   4 C :   -0.210695
   5 H :    0.035669
   6 C :   -0.038496
   7 H :    0.031270
   8 H :    0.038760
   9 C :   -0.033553
  10 H :    0.027457
  11 H :    0.012804
  12 C :   -0.059392
  13 H :    0.013311
  14 H :    0.027652
  15 H :    0.027021
  16 S :    0.382709
  17 C :   -0.166089
  18 C :   -0.070718
  19 C :   -0.048663
  20 C :   -0.204443
  21 H :    0.020890
  22 C :   -0.035737
  23 H :    0.034279
  24 H :    0.036312
  25 C :   -0.052720
  26 H :    0.018371
  27 H :    0.030686
  28 C :   -0.057207
  29 H :    0.031723
  30 H :    0.027443
  31 H :    0.017562
  32 H :    0.029083
  33 H :    0.033243

  Mayer bond orders larger than 0.100000
B(  0-S ,  1-C ) :   1.1434 B(  0-S ,  4-C ) :   1.1583 B(  1-C ,  2-C ) :   1.6253
B(  1-C , 32-H ) :   0.9656 B(  2-C ,  3-C ) :   1.2477 B(  2-C ,  6-C ) :   1.0128
B(  3-C ,  4-C ) :   1.5970 B(  3-C ,  5-H ) :   0.9861 B(  4-C , 20-C ) :   1.0081
B(  6-C ,  7-H ) :   0.9513 B(  6-C ,  8-H ) :   0.9416 B(  6-C ,  9-C ) :   1.0428
B(  9-C , 10-H ) :   0.9671 B(  9-C , 11-H ) :   0.9571 B(  9-C , 12-C ) :   1.0830
B( 12-C , 13-H ) :   0.9764 B( 12-C , 14-H ) :   0.9770 B( 12-C , 15-H ) :   0.9734
B( 16-S , 17-C ) :   1.1479 B( 16-S , 20-C ) :   1.1298 B( 17-C , 18-C ) :   1.6235
B( 17-C , 33-H ) :   0.9613 B( 18-C , 19-C ) :   1.2055 B( 18-C , 21-H ) :   1.0070
B( 19-C , 20-C ) :   1.6415 B( 19-C , 22-C ) :   1.0439 B( 22-C , 23-H ) :   0.9085
B( 22-C , 24-H ) :   0.9261 B( 22-C , 25-C ) :   1.0854 B( 25-C , 26-H ) :   0.9515
B( 25-C , 27-H ) :   0.9427 B( 25-C , 28-C ) :   1.0747 B( 28-C , 29-H ) :   0.9733
B( 28-C , 30-H ) :   0.9694 B( 28-C , 31-H ) :   0.9744

Dispersion correction           -0.013481343
FINAL SINGLE POINT ENERGY     -1339.872148128110

DIPOLE MOMENT
-------------
                                X             Y             Z
Electronic contribution:    -16.59229      21.62019       1.44331
Nuclear contribution   :     16.99116     -22.10425      -1.28632
                        -----------------------------------------
Total Dipole Moment    :      0.39887      -0.48407       0.15699
                        -----------------------------------------
Magnitude (a.u.)       :      0.64658
Magnitude (Debye)      :      1.64347

Rotational constants in cm-1:     0.018402     0.007446     0.006110
Rotational constants in MHz :   551.678621   223.226350   183.172181

                             ****ORCA TERMINATED NORMALLY****
TOTAL RUN TIME: 0 days 0 hours 0 minutes 29 seconds 241 msec
