                         Program Version 4.2.1 -  RELEASE  -
|  1> ! wB97X-D3 SP def2-SVP
|  2> %pal
|  3> nprocs 16
|  4> end
|  5>
|  6> * xyz 0 1
|  7> S 	 -73.7681 	 49.819 	 137.227
|  8> C 	 -74.7096 	 48.496 	 137.891
|  9> C 	 -76.035 	 48.6407 	 137.642
| 10> C 	 -76.3301 	 49.8822 	 137.063
| 11> C 	 -75.2793 	 50.7237 	 136.926
| 12> H 	 -77.2283 	 50.2483 	 136.773
| 13> C 	 -77.1379 	 47.6723 	 137.895
| 14> H 	 -76.7716 	 46.6807 	 138.193
| 15> H 	 -77.867 	 47.5135 	 137.103
| 16> C 	 -77.9961 	 48.1345 	 139.134
| 17> H 	 -77.3816 	 48.0118 	 139.998
| 18> H 	 -78.1164 	 49.1832 	 139.067
| 19> C 	 -79.3667 	 47.4254 	 139.417
| 20> H 	 -79.2717 	 46.3517 	 139.275
| 21> H 	 -79.798 	 47.6808 	 140.333
| 22> H 	 -80.0999 	 47.7678 	 138.64
| 23> S 	 -73.91 	 52.3406 	 135.258
| 24> C 	 -74.373 	 53.9944 	 135.056
| 25> C 	 -75.3934 	 54.3408 	 135.903
| 26> C 	 -75.9544 	 53.2286 	 136.622
| 27> C 	 -75.1604 	 52.0864 	 136.417
| 28> H 	 -75.6517 	 55.3849 	 136.035
| 29> C 	 -77.1172 	 53.2888 	 137.574
| 30> H 	 -76.8352 	 54.2095 	 138.11
| 31> H 	 -77.1188 	 52.5435 	 138.4
| 32> C 	 -78.4946 	 53.336 	 136.873
| 33> H 	 -78.543 	 52.3476 	 136.38
| 34> H 	 -78.5312 	 54.0071 	 136.026
| 35> C 	 -79.5422 	 53.4803 	 137.898
| 36> H 	 -80.5521 	 53.4638 	 137.413
| 37> H 	 -79.5082 	 54.3875 	 138.46
| 38> H 	 -79.4631 	 52.6641 	 138.646
| 39> H 	 -74.2199 	 47.6787 	 138.476
| 40> H 	 -73.8327 	 54.695 	 134.482
| 41> *
| 42>
| 43>                          ****END OF INPUT****

CARTESIAN COORDINATES (ANGSTROEM)
---------------------------------
  S    -73.768100   49.819000  137.227000
  C    -74.709600   48.496000  137.891000
  C    -76.035000   48.640700  137.642000
  C    -76.330100   49.882200  137.063000
  C    -75.279300   50.723700  136.926000
  H    -77.228300   50.248300  136.773000
  C    -77.137900   47.672300  137.895000
  H    -76.771600   46.680700  138.193000
  H    -77.867000   47.513500  137.103000
  C    -77.996100   48.134500  139.134000
  H    -77.381600   48.011800  139.998000
  H    -78.116400   49.183200  139.067000
  C    -79.366700   47.425400  139.417000
  H    -79.271700   46.351700  139.275000
  H    -79.798000   47.680800  140.333000
  H    -80.099900   47.767800  138.640000
  S    -73.910000   52.340600  135.258000
  C    -74.373000   53.994400  135.056000
  C    -75.393400   54.340800  135.903000
  C    -75.954400   53.228600  136.622000
  C    -75.160400   52.086400  136.417000
  H    -75.651700   55.384900  136.035000
  C    -77.117200   53.288800  137.574000
  H    -76.835200   54.209500  138.110000
  H    -77.118800   52.543500  138.400000
  C    -78.494600   53.336000  136.873000
  H    -78.543000   52.347600  136.380000
  H    -78.531200   54.007100  136.026000
  C    -79.542200   53.480300  137.898000
  H    -80.552100   53.463800  137.413000
  H    -79.508200   54.387500  138.460000
  H    -79.463100   52.664100  138.646000
  H    -74.219900   47.678700  138.476000
  H    -73.832700   54.695000  134.482000

 Total Charge           Charge          ....    0
 Multiplicity           Mult            ....    1
 Number of Electrons    NEL             ....  134
 Basis Dimension        Dim             ....  322

ORBITAL ENERGIES
----------------

  NO   OCC          E(Eh)            E(eV)
   0   2.0000     -88.964808     -2420.8555
   1   2.0000     -88.960888     -2420.7488
   2   2.0000     -10.327829      -281.0345
   3   2.0000     -10.324631      -280.9475
   4   2.0000     -10.315735      -280.7054
   5   2.0000     -10.311798      -280.5983
   6   2.0000     -10.305386      -280.4238
   7   2.0000     -10.297738      -280.2157
   8   2.0000     -10.295315      -280.1498
   9   2.0000     -10.294932      -280.1393
  10   2.0000     -10.293998      -280.1139
  11   2.0000     -10.287365      -279.9334
  12   2.0000     -10.282097      -279.7901
  13   2.0000     -10.281614      -279.7769
  14   2.0000     -10.280395      -279.7438
  15   2.0000     -10.279683      -279.7244
  16   2.0000      -8.080522      -219.8822
  17   2.0000      -8.075640      -219.7493
  18   2.0000      -6.038920      -164.3274
  19   2.0000      -6.034918      -164.2185
  20   2.0000      -6.034211      -164.1992
  21   2.0000      -6.031315      -164.1204
  22   2.0000      -6.030374      -164.0948
  23   2.0000      -6.026114      -163.9789
  24   2.0000      -1.011783       -27.5320
  25   2.0000      -0.989320       -26.9208
  26   2.0000      -0.917764       -24.9736
  27   2.0000      -0.908598       -24.7242
  28   2.0000      -0.870121       -23.6772
  29   2.0000      -0.858775       -23.3685
  30   2.0000      -0.846911       -23.0456
  31   2.0000      -0.820054       -22.3148
  32   2.0000      -0.782844       -21.3023
  33   2.0000      -0.770522       -20.9670
  34   2.0000      -0.708909       -19.2904
  35   2.0000      -0.702696       -19.1213
  36   2.0000      -0.697521       -18.9805
  37   2.0000      -0.666128       -18.1263
  38   2.0000      -0.646662       -17.5966
  39   2.0000      -0.629578       -17.1317
  40   2.0000      -0.603046       -16.4097
  41   2.0000      -0.569951       -15.5091
  42   2.0000      -0.562734       -15.3128
  43   2.0000      -0.552968       -15.0470
  44   2.0000      -0.531272       -14.4567
  45   2.0000      -0.524882       -14.2828
  46   2.0000      -0.523582       -14.2474
  47   2.0000      -0.516241       -14.0476
  48   2.0000      -0.510904       -13.9024
  49   2.0000      -0.500387       -13.6162
  50   2.0000      -0.493864       -13.4387
  51   2.0000      -0.488019       -13.2797
  52   2.0000      -0.470214       -12.7952
  53   2.0000      -0.466170       -12.6851
  54   2.0000      -0.460169       -12.5218
  55   2.0000      -0.453881       -12.3507
  56   2.0000      -0.446000       -12.1363
  57   2.0000      -0.441854       -12.0235
  58   2.0000      -0.431853       -11.7513
  59   2.0000      -0.428006       -11.6466
  60   2.0000      -0.420400       -11.4397
  61   2.0000      -0.418062       -11.3760
  62   2.0000      -0.410498       -11.1702
  63   2.0000      -0.354780        -9.6540
  64   2.0000      -0.332688        -9.0529
  65   2.0000      -0.327269        -8.9054
  66   2.0000      -0.286793        -7.8040
  67   0.0000       0.028909         0.7867
  68   0.0000       0.069536         1.8922
  69   0.0000       0.108758         2.9595
  70   0.0000       0.119635         3.2554
  71   0.0000       0.125768         3.4223

MULLIKEN ATOMIC CHARGES
-----------------------
   0 S :    0.078750
   1 C :   -0.144030
   2 C :   -0.031079
   3 C :    0.065706
   4 C :   -0.129744
   5 H :   -0.052593
   6 C :    0.076332
   7 H :    0.017255
   8 H :    0.031549
   9 C :   -0.098055
  10 H :    0.015789
  11 H :    0.013977
  12 C :   -0.025196
  13 H :    0.032131
  14 H :    0.030746
  15 H :    0.028251
  16 S :    0.107692
  17 C :   -0.069559
  18 C :   -0.036659
  19 C :   -0.030180
  20 C :   -0.142800
  21 H :    0.019391
  22 C :   -0.000981
  23 H :    0.026570
  24 H :    0.035162
  25 C :   -0.050072
  26 H :    0.022552
  27 H :    0.028075
  28 C :   -0.014706
  29 H :    0.037580
  30 H :    0.024137
  31 H :    0.028445
  32 H :    0.064406
  33 H :    0.041156
Sum of atomic charges:    0.0000000

LOEWDIN ATOMIC CHARGES
----------------------
   0 S :    0.371306
   1 C :   -0.189704
   2 C :   -0.066391
   3 C :   -0.051091
   4 C :   -0.163985
   5 H :    0.012462
   6 C :   -0.026421
   7 H :    0.028630
   8 H :    0.031012
   9 C :   -0.036775
  10 H :    0.017831
  11 H :    0.012543
  12 C :   -0.061975
  13 H :    0.024782
  14 H :    0.019503
  15 H :    0.028772
  16 S :    0.422350
  17 C :   -0.186374
  18 C :   -0.068366
  19 C :   -0.057221
  20 C :   -0.206809
  21 H :    0.032309
  22 C :   -0.038632
  23 H :    0.033119
  24 H :    0.033555
  25 C :   -0.041567
  26 H :    0.026672
  27 H :    0.024133
  28 C :   -0.065025
  29 H :    0.031647
  30 H :    0.021315
  31 H :    0.029379
  32 H :    0.037904
  33 H :    0.021112

  Mayer bond orders larger than 0.100000
B(  0-S ,  1-C ) :   1.1275 B(  0-S ,  4-C ) :   1.1270 B(  1-C ,  2-C ) :   1.6332
B(  1-C , 32-H ) :   0.9624 B(  2-C ,  3-C ) :   1.1940 B(  2-C ,  6-C ) :   1.0419
B(  3-C ,  4-C ) :   1.6031 B(  3-C ,  5-H ) :   1.0199 B(  4-C , 20-C ) :   1.0336
B(  6-C ,  7-H ) :   0.9381 B(  6-C ,  8-H ) :   0.9472 B(  6-C ,  9-C ) :   1.0417
B(  9-C , 10-H ) :   0.9558 B(  9-C , 11-H ) :   0.9647 B(  9-C , 12-C ) :   1.0749
B( 12-C , 13-H ) :   0.9760 B( 12-C , 14-H ) :   0.9757 B( 12-C , 15-H ) :   0.9750
B( 16-S , 17-C ) :   1.1509 B( 16-S , 20-C ) :   1.1553 B( 17-C , 18-C ) :   1.6153
B( 17-C , 33-H ) :   0.9716 B( 18-C , 19-C ) :   1.2360 B( 18-C , 21-H ) :   0.9885
B( 19-C , 20-C ) :   1.5818 B( 19-C , 22-C ) :   1.0341 B( 22-C , 23-H ) :   0.9355
B( 22-C , 24-H ) :   0.9436 B( 22-C , 25-C ) :   1.0446 B( 25-C , 26-H ) :   0.9467
B( 25-C , 27-H ) :   0.9553 B( 25-C , 28-C ) :   1.0897 B( 28-C , 29-H ) :   0.9705
B( 28-C , 30-H ) :   0.9732 B( 28-C , 31-H ) :   0.9670

Dispersion correction           -0.014159154
FINAL SINGLE POINT ENERGY     -1339.875745083488

DIPOLE MOMENT
-------------
                                X             Y             Z
Electronic contribution:     30.17140       3.86668     -13.33397
Nuclear contribution   :    -30.80300      -3.70624      13.58979
                        -----------------------------------------
Total Dipole Moment    :     -0.63160       0.16044       0.25583
                        -----------------------------------------
Magnitude (a.u.)       :      0.70008
Magnitude (Debye)      :      1.77946

Rotational constants in cm-1:     0.016997     0.009811     0.006495
Rotational constants in MHz :   509.566437   294.125101   194.718030

                             ****ORCA TERMINATED NORMALLY****
TOTAL RUN TIME: 0 days 0 hours 0 minutes 36 seconds 263 msec
