                         Program Version 4.2.1 -  RELEASE  -
|  1> ! wB97X-D3 SP def2-SVP
|  2> %pal
|  3> nprocs 16
|  4> end
|  5>
|  6> * xyz 0 1
|  7> S 	 -75.6201 	 46.5024 	 127.797
|  8> C 	 -75.4385 	 44.7865 	 127.472
|  9> C 	 -74.0489 	 44.4232 	 127.387
| 10> C 	 -73.2154 	 45.5171 	 127.743
| 11> C 	 -73.9415 	 46.7211 	 128.047
| 12> H 	 -72.1245 	 45.6573 	 127.82
| 13> C 	 -73.5908 	 43.0129 	 127.248
| 14> H 	 -74.372 	 42.3446 	 126.808
| 15> H 	 -73.6752 	 42.6915 	 128.304
| 16> C 	 -72.3099 	 42.7859 	 126.472
| 17> H 	 -71.4949 	 43.2447 	 127.018
| 18> H 	 -72.1628 	 41.7248 	 126.427
| 19> C 	 -72.3242 	 43.2705 	 125.027
| 20> H 	 -72.4404 	 44.3709 	 124.944
| 21> H 	 -71.4053 	 43.1037 	 124.456
| 22> H 	 -73.1463 	 42.8086 	 124.488
| 23> S 	 -72.2378 	 48.5381 	 126.936
| 24> C 	 -71.9649 	 50.1279 	 127.671
| 25> C 	 -72.6645 	 50.2416 	 128.819
| 26> C 	 -73.4644 	 49.0928 	 129.079
| 27> C 	 -73.3476 	 48.065 	 128.207
| 28> H 	 -72.428 	 51.0981 	 129.568
| 29> C 	 -74.2779 	 48.9912 	 130.432
| 30> H 	 -73.6035 	 49.357 	 131.228
| 31> H 	 -74.5738 	 48.0078 	 130.623
| 32> C 	 -75.5536 	 49.9501 	 130.413
| 33> H 	 -75.1114 	 50.898 	 130.334
| 34> H 	 -75.9721 	 49.7955 	 131.466
| 35> C 	 -76.6124 	 49.8014 	 129.444
| 36> H 	 -76.1749 	 50.0029 	 128.46
| 37> H 	 -77.4633 	 50.4409 	 129.731
| 38> H 	 -76.958 	 48.7576 	 129.412
| 39> H 	 -76.2889 	 44.1681 	 127.147
| 40> H 	 -71.204 	 50.8349 	 127.35
| 41> *
| 42>
| 43>                          ****END OF INPUT****

CARTESIAN COORDINATES (ANGSTROEM)
---------------------------------
  S    -75.620100   46.502400  127.797000
  C    -75.438500   44.786500  127.472000
  C    -74.048900   44.423200  127.387000
  C    -73.215400   45.517100  127.743000
  C    -73.941500   46.721100  128.047000
  H    -72.124500   45.657300  127.820000
  C    -73.590800   43.012900  127.248000
  H    -74.372000   42.344600  126.808000
  H    -73.675200   42.691500  128.304000
  C    -72.309900   42.785900  126.472000
  H    -71.494900   43.244700  127.018000
  H    -72.162800   41.724800  126.427000
  C    -72.324200   43.270500  125.027000
  H    -72.440400   44.370900  124.944000
  H    -71.405300   43.103700  124.456000
  H    -73.146300   42.808600  124.488000
  S    -72.237800   48.538100  126.936000
  C    -71.964900   50.127900  127.671000
  C    -72.664500   50.241600  128.819000
  C    -73.464400   49.092800  129.079000
  C    -73.347600   48.065000  128.207000
  H    -72.428000   51.098100  129.568000
  C    -74.277900   48.991200  130.432000
  H    -73.603500   49.357000  131.228000
  H    -74.573800   48.007800  130.623000
  C    -75.553600   49.950100  130.413000
  H    -75.111400   50.898000  130.334000
  H    -75.972100   49.795500  131.466000
  C    -76.612400   49.801400  129.444000
  H    -76.174900   50.002900  128.460000
  H    -77.463300   50.440900  129.731000
  H    -76.958000   48.757600  129.412000
  H    -76.288900   44.168100  127.147000
  H    -71.204000   50.834900  127.350000

 Total Charge           Charge          ....    0
 Multiplicity           Mult            ....    1
 Number of Electrons    NEL             ....  134
 Basis Dimension        Dim             ....  322

ORBITAL ENERGIES
----------------

  NO   OCC          E(Eh)            E(eV)
   0   2.0000     -88.971701     -2421.0431
   1   2.0000     -88.961274     -2420.7593
   2   2.0000     -10.333343      -281.1845
   3   2.0000     -10.326071      -280.9867
   4   2.0000     -10.319107      -280.7972
   5   2.0000     -10.317624      -280.7568
   6   2.0000     -10.310924      -280.5745
   7   2.0000     -10.302058      -280.3332
   8   2.0000     -10.301632      -280.3216
   9   2.0000     -10.299500      -280.2636
  10   2.0000     -10.295257      -280.1482
  11   2.0000     -10.290333      -280.0142
  12   2.0000     -10.285328      -279.8780
  13   2.0000     -10.277738      -279.6715
  14   2.0000     -10.277282      -279.6591
  15   2.0000     -10.268668      -279.4247
  16   2.0000      -8.086104      -220.0341
  17   2.0000      -8.075944      -219.7576
  18   2.0000      -6.044337      -164.4748
  19   2.0000      -6.040454      -164.3691
  20   2.0000      -6.037386      -164.2856
  21   2.0000      -6.034592      -164.2096
  22   2.0000      -6.030448      -164.0968
  23   2.0000      -6.026547      -163.9907
  24   2.0000      -1.007152       -27.4060
  25   2.0000      -0.984223       -26.7821
  26   2.0000      -0.917846       -24.9759
  27   2.0000      -0.903815       -24.5940
  28   2.0000      -0.869106       -23.6496
  29   2.0000      -0.850356       -23.1393
  30   2.0000      -0.845079       -22.9958
  31   2.0000      -0.812824       -22.1181
  32   2.0000      -0.784032       -21.3346
  33   2.0000      -0.772046       -21.0084
  34   2.0000      -0.709547       -19.3078
  35   2.0000      -0.691532       -18.8175
  36   2.0000      -0.682208       -18.5638
  37   2.0000      -0.660802       -17.9813
  38   2.0000      -0.634444       -17.2641
  39   2.0000      -0.616310       -16.7706
  40   2.0000      -0.596393       -16.2287
  41   2.0000      -0.568453       -15.4684
  42   2.0000      -0.557616       -15.1735
  43   2.0000      -0.548803       -14.9337
  44   2.0000      -0.543358       -14.7855
  45   2.0000      -0.537081       -14.6147
  46   2.0000      -0.517563       -14.0836
  47   2.0000      -0.513023       -13.9601
  48   2.0000      -0.501829       -13.6555
  49   2.0000      -0.496608       -13.5134
  50   2.0000      -0.485873       -13.2213
  51   2.0000      -0.479096       -13.0369
  52   2.0000      -0.474306       -12.9065
  53   2.0000      -0.462807       -12.5936
  54   2.0000      -0.458836       -12.4856
  55   2.0000      -0.449742       -12.2381
  56   2.0000      -0.447359       -12.1733
  57   2.0000      -0.438367       -11.9286
  58   2.0000      -0.431946       -11.7539
  59   2.0000      -0.425724       -11.5845
  60   2.0000      -0.413501       -11.2519
  61   2.0000      -0.409427       -11.1411
  62   2.0000      -0.394392       -10.7319
  63   2.0000      -0.344172        -9.3654
  64   2.0000      -0.333104        -9.0642
  65   2.0000      -0.326661        -8.8889
  66   2.0000      -0.294882        -8.0241
  67   0.0000       0.028778         0.7831
  68   0.0000       0.068469         1.8631
  69   0.0000       0.104036         2.8310
  70   0.0000       0.118087         3.2133
  71   0.0000       0.133562         3.6344

MULLIKEN ATOMIC CHARGES
-----------------------
   0 S :    0.136822
   1 C :   -0.142664
   2 C :   -0.073237
   3 C :   -0.003732
   4 C :   -0.156888
   5 H :    0.029088
   6 C :    0.020646
   7 H :    0.017282
   8 H :    0.058744
   9 C :   -0.035040
  10 H :    0.031662
  11 H :    0.027321
  12 C :   -0.067254
  13 H :    0.040248
  14 H :    0.037317
  15 H :    0.027740
  16 S :    0.087704
  17 C :   -0.095580
  18 C :   -0.054240
  19 C :   -0.068278
  20 C :   -0.152289
  21 H :    0.059879
  22 C :    0.079104
  23 H :    0.033406
  24 H :    0.010368
  25 C :   -0.102360
  26 H :    0.011593
  27 H :    0.030569
  28 C :   -0.019936
  29 H :    0.037276
  30 H :    0.044869
  31 H :    0.023500
  32 H :    0.065709
  33 H :    0.060651
Sum of atomic charges:    0.0000000

LOEWDIN ATOMIC CHARGES
----------------------
   0 S :    0.448560
   1 C :   -0.216435
   2 C :   -0.055637
   3 C :   -0.074834
   4 C :   -0.212987
   5 H :    0.034806
   6 C :   -0.043374
   7 H :    0.032185
   8 H :    0.047735
   9 C :   -0.040266
  10 H :    0.023000
  11 H :    0.026279
  12 C :   -0.067432
  13 H :    0.029605
  14 H :    0.029177
  15 H :    0.024189
  16 S :    0.390775
  17 C :   -0.174490
  18 C :   -0.088136
  19 C :   -0.066852
  20 C :   -0.201089
  21 H :    0.051751
  22 C :   -0.015930
  23 H :    0.034862
  24 H :    0.013091
  25 C :   -0.045453
  26 H :    0.011853
  27 H :    0.027264
  28 C :   -0.069960
  29 H :    0.028018
  30 H :    0.035325
  31 H :    0.019803
  32 H :    0.032039
  33 H :    0.032558

  Mayer bond orders larger than 0.100000
B(  0-S ,  1-C ) :   1.1655 B(  0-S ,  4-C ) :   1.2016 B(  1-C ,  2-C ) :   1.5309
B(  1-C ,  4-C ) :   0.1161 B(  1-C , 32-H ) :   0.9677 B(  2-C ,  3-C ) :   1.2686
B(  2-C ,  6-C ) :   1.0249 B(  3-C ,  4-C ) :   1.5094 B(  3-C ,  5-H ) :   0.9918
B(  4-C , 20-C ) :   1.0189 B(  6-C ,  7-H ) :   0.9375 B(  6-C ,  8-H ) :   0.9402
B(  6-C ,  9-C ) :   1.0687 B(  9-C , 10-H ) :   0.9518 B(  9-C , 11-H ) :   0.9537
B(  9-C , 12-C ) :   1.0803 B( 12-C , 13-H ) :   0.9718 B( 12-C , 14-H ) :   0.9744
B( 12-C , 15-H ) :   0.9742 B( 16-S , 17-C ) :   1.1450 B( 16-S , 20-C ) :   1.1162
B( 17-C , 18-C ) :   1.6423 B( 17-C , 33-H ) :   0.9638 B( 18-C , 19-C ) :   1.2231
B( 18-C , 21-H ) :   0.9687 B( 19-C , 20-C ) :   1.6452 B( 19-C , 22-C ) :   1.0290
B( 22-C , 23-H ) :   0.9445 B( 22-C , 24-H ) :   0.9430 B( 22-C , 25-C ) :   1.0570
B( 25-C , 26-H ) :   0.9570 B( 25-C , 27-H ) :   0.9547 B( 25-C , 28-C ) :   1.0948
B( 28-C , 29-H ) :   0.9675 B( 28-C , 30-H ) :   0.9654 B( 28-C , 31-H ) :   0.9677

Dispersion correction           -0.015087194
FINAL SINGLE POINT ENERGY     -1339.871339393077

DIPOLE MOMENT
-------------
                                X             Y             Z
Electronic contribution:      1.88244       6.90913      -2.77259
Nuclear contribution   :     -1.71082      -7.11890       2.96599
                        -----------------------------------------
Total Dipole Moment    :      0.17162      -0.20978       0.19340
                        -----------------------------------------
Magnitude (a.u.)       :      0.33296
Magnitude (Debye)      :      0.84632

Rotational constants in cm-1:     0.023049     0.008520     0.006802
Rotational constants in MHz :   690.991320   255.431564   203.921480

                             ****ORCA TERMINATED NORMALLY****
TOTAL RUN TIME: 0 days 0 hours 0 minutes 32 seconds 243 msec
