                         Program Version 4.2.1 -  RELEASE  -
|  1> ! wB97X-D3 SP def2-SVP
|  2> %pal
|  3> nprocs 16
|  4> end
|  5>
|  6> * xyz 0 1
|  7> S 	 -6.77301 	 14.4785 	 82.2973
|  8> C 	 -6.59537 	 14.237 	 80.5435
|  9> C 	 -6.92678 	 15.3494 	 79.8124
| 10> C 	 -7.32514 	 16.4023 	 80.6648
| 11> C 	 -7.25388 	 16.144 	 82.0301
| 12> H 	 -7.5115 	 17.386 	 80.304
| 13> C 	 -6.45843 	 15.5388 	 78.3624
| 14> H 	 -5.86354 	 14.6095 	 78.2505
| 15> H 	 -5.83794 	 16.4704 	 78.4212
| 16> C 	 -7.62256 	 15.5367 	 77.2875
| 17> H 	 -7.17607 	 15.6506 	 76.3557
| 18> H 	 -8.13088 	 14.584 	 77.2378
| 19> C 	 -8.71234 	 16.6194 	 77.3043
| 20> H 	 -8.23005 	 17.6056 	 77.3508
| 21> H 	 -9.43176 	 16.6873 	 76.4812
| 22> H 	 -9.36169 	 16.6898 	 78.2072
| 23> S 	 -9.0298 	 17.6121 	 83.5424
| 24> C 	 -8.49321 	 18.5247 	 84.941
| 25> C 	 -7.17107 	 18.1999 	 85.2436
| 26> C 	 -6.56847 	 17.4231 	 84.1589
| 27> C 	 -7.45766 	 17.1078 	 83.0876
| 28> H 	 -6.73006 	 18.5669 	 86.2019
| 29> C 	 -5.11012 	 17.0009 	 84.2119
| 30> H 	 -4.90111 	 16.2879 	 83.4344
| 31> H 	 -4.82327 	 16.3778 	 85.0115
| 32> C 	 -4.12337 	 18.1751 	 84.125
| 33> H 	 -4.45201 	 18.922 	 84.8565
| 34> H 	 -4.02942 	 18.5354 	 83.0905
| 35> C 	 -2.7079 	 17.6741 	 84.5224
| 36> H 	 -2.22997 	 17.0649 	 83.7102
| 37> H 	 -2.75823 	 17.0227 	 85.4254
| 38> H 	 -1.95947 	 18.5151 	 84.5208
| 39> H 	 -6.16168 	 13.3926 	 80.1181
| 40> H 	 -9.10785 	 18.9146 	 85.698
| 41> *
| 42>
| 43>                          ****END OF INPUT****

CARTESIAN COORDINATES (ANGSTROEM)
---------------------------------
  S     -6.773010   14.478500   82.297300
  C     -6.595370   14.237000   80.543500
  C     -6.926780   15.349400   79.812400
  C     -7.325140   16.402300   80.664800
  C     -7.253880   16.144000   82.030100
  H     -7.511500   17.386000   80.304000
  C     -6.458430   15.538800   78.362400
  H     -5.863540   14.609500   78.250500
  H     -5.837940   16.470400   78.421200
  C     -7.622560   15.536700   77.287500
  H     -7.176070   15.650600   76.355700
  H     -8.130880   14.584000   77.237800
  C     -8.712340   16.619400   77.304300
  H     -8.230050   17.605600   77.350800
  H     -9.431760   16.687300   76.481200
  H     -9.361690   16.689800   78.207200
  S     -9.029800   17.612100   83.542400
  C     -8.493210   18.524700   84.941000
  C     -7.171070   18.199900   85.243600
  C     -6.568470   17.423100   84.158900
  C     -7.457660   17.107800   83.087600
  H     -6.730060   18.566900   86.201900
  C     -5.110120   17.000900   84.211900
  H     -4.901110   16.287900   83.434400
  H     -4.823270   16.377800   85.011500
  C     -4.123370   18.175100   84.125000
  H     -4.452010   18.922000   84.856500
  H     -4.029420   18.535400   83.090500
  C     -2.707900   17.674100   84.522400
  H     -2.229970   17.064900   83.710200
  H     -2.758230   17.022700   85.425400
  H     -1.959470   18.515100   84.520800
  H     -6.161680   13.392600   80.118100
  H     -9.107850   18.914600   85.698000

 Total Charge           Charge          ....    0
 Multiplicity           Mult            ....    1
 Number of Electrons    NEL             ....  134
 Basis Dimension        Dim             ....  322

ORBITAL ENERGIES
----------------

  NO   OCC          E(Eh)            E(eV)
   0   2.0000     -88.969255     -2420.9765
   1   2.0000     -88.965843     -2420.8837
   2   2.0000     -10.330382      -281.1040
   3   2.0000     -10.326879      -281.0087
   4   2.0000     -10.315691      -280.7042
   5   2.0000     -10.311608      -280.5931
   6   2.0000     -10.309910      -280.5469
   7   2.0000     -10.308679      -280.5134
   8   2.0000     -10.303160      -280.3632
   9   2.0000     -10.297850      -280.2187
  10   2.0000     -10.291144      -280.0363
  11   2.0000     -10.288368      -279.9607
  12   2.0000     -10.285310      -279.8775
  13   2.0000     -10.284431      -279.8536
  14   2.0000     -10.280985      -279.7598
  15   2.0000     -10.278662      -279.6966
  16   2.0000      -8.083037      -219.9506
  17   2.0000      -8.080905      -219.8926
  18   2.0000      -6.041573      -164.3996
  19   2.0000      -6.039351      -164.3391
  20   2.0000      -6.037696      -164.2941
  21   2.0000      -6.035282      -164.2284
  22   2.0000      -6.033797      -164.1880
  23   2.0000      -6.031764      -164.1326
  24   2.0000      -1.005790       -27.3689
  25   2.0000      -0.982964       -26.7478
  26   2.0000      -0.907101       -24.6835
  27   2.0000      -0.905310       -24.6347
  28   2.0000      -0.871233       -23.7075
  29   2.0000      -0.848821       -23.0976
  30   2.0000      -0.839443       -22.8424
  31   2.0000      -0.818419       -22.2703
  32   2.0000      -0.781753       -21.2726
  33   2.0000      -0.765670       -20.8349
  34   2.0000      -0.709361       -19.3027
  35   2.0000      -0.706008       -19.2114
  36   2.0000      -0.694218       -18.8906
  37   2.0000      -0.657696       -17.8968
  38   2.0000      -0.640702       -17.4344
  39   2.0000      -0.618784       -16.8380
  40   2.0000      -0.594645       -16.1811
  41   2.0000      -0.571826       -15.5602
  42   2.0000      -0.564840       -15.3701
  43   2.0000      -0.548890       -14.9361
  44   2.0000      -0.537678       -14.6310
  45   2.0000      -0.519171       -14.1274
  46   2.0000      -0.515354       -14.0235
  47   2.0000      -0.512106       -13.9351
  48   2.0000      -0.508788       -13.8448
  49   2.0000      -0.496210       -13.5026
  50   2.0000      -0.492975       -13.4145
  51   2.0000      -0.475271       -12.9328
  52   2.0000      -0.467461       -12.7203
  53   2.0000      -0.462809       -12.5937
  54   2.0000      -0.455082       -12.3834
  55   2.0000      -0.444667       -12.1000
  56   2.0000      -0.439577       -11.9615
  57   2.0000      -0.436150       -11.8683
  58   2.0000      -0.433123       -11.7859
  59   2.0000      -0.428570       -11.6620
  60   2.0000      -0.420401       -11.4397
  61   2.0000      -0.414407       -11.2766
  62   2.0000      -0.409622       -11.1464
  63   2.0000      -0.340433        -9.2637
  64   2.0000      -0.334303        -9.0968
  65   2.0000      -0.322146        -8.7660
  66   2.0000      -0.300100        -8.1661
  67   0.0000       0.029495         0.8026
  68   0.0000       0.060941         1.6583
  69   0.0000       0.102730         2.7954
  70   0.0000       0.115053         3.1307
  71   0.0000       0.133044         3.6203

MULLIKEN ATOMIC CHARGES
-----------------------
   0 S :    0.119149
   1 C :   -0.118399
   2 C :   -0.060050
   3 C :    0.036816
   4 C :   -0.166696
   5 H :   -0.002418
   6 C :    0.027196
   7 H :    0.029598
   8 H :    0.057191
   9 C :   -0.007597
  10 H :    0.017227
  11 H :    0.027929
  12 C :   -0.090036
  13 H :    0.017686
  14 H :    0.040247
  15 H :    0.035674
  16 S :    0.114390
  17 C :   -0.078471
  18 C :   -0.054860
  19 C :   -0.060144
  20 C :   -0.118726
  21 H :    0.045367
  22 C :    0.077549
  23 H :    0.001521
  24 H :    0.007186
  25 C :   -0.064606
  26 H :    0.036969
  27 H :    0.039918
  28 C :   -0.094039
  29 H :    0.029965
  30 H :    0.040854
  31 H :    0.039801
  32 H :    0.025074
  33 H :    0.048737
Sum of atomic charges:   -0.0000000

LOEWDIN ATOMIC CHARGES
----------------------
   0 S :    0.401604
   1 C :   -0.177309
   2 C :   -0.068837
   3 C :   -0.053117
   4 C :   -0.195473
   5 H :    0.024965
   6 C :   -0.021180
   7 H :    0.038315
   8 H :    0.041869
   9 C :   -0.035663
  10 H :    0.018208
  11 H :    0.026714
  12 C :   -0.079424
  13 H :    0.022465
  14 H :    0.030055
  15 H :    0.026926
  16 S :    0.431457
  17 C :   -0.186591
  18 C :   -0.070682
  19 C :   -0.048601
  20 C :   -0.222675
  21 H :    0.041283
  22 C :   -0.043756
  23 H :    0.020227
  24 H :    0.023708
  25 C :   -0.034520
  26 H :    0.023013
  27 H :    0.030018
  28 C :   -0.080620
  29 H :    0.027009
  30 H :    0.025696
  31 H :    0.030282
  32 H :    0.012266
  33 H :    0.022367

  Mayer bond orders larger than 0.100000
B(  0-S ,  1-C ) :   1.1403 B(  0-S ,  4-C ) :   1.1315 B(  1-C ,  2-C ) :   1.6240
B(  1-C , 32-H ) :   0.9666 B(  2-C ,  3-C ) :   1.2452 B(  2-C ,  6-C ) :   0.9945
B(  3-C ,  4-C ) :   1.5748 B(  3-C ,  5-H ) :   0.9964 B(  4-C , 20-C ) :   1.0538
B(  6-C ,  7-H ) :   0.9440 B(  6-C ,  8-H ) :   0.9502 B(  6-C ,  9-C ) :   1.0643
B(  9-C , 10-H ) :   0.9549 B(  9-C , 11-H ) :   0.9558 B(  9-C , 12-C ) :   1.0710
B( 12-C , 13-H ) :   0.9741 B( 12-C , 14-H ) :   0.9755 B( 12-C , 15-H ) :   0.9743
B( 16-S , 17-C ) :   1.1721 B( 16-S , 20-C ) :   1.1549 B( 17-C , 18-C ) :   1.5934
B( 17-C , 33-H ) :   0.9680 B( 18-C , 19-C ) :   1.2573 B( 18-C , 21-H ) :   0.9821
B( 19-C , 20-C ) :   1.5449 B( 19-C , 22-C ) :   1.0490 B( 22-C , 23-H ) :   0.9193
B( 22-C , 24-H ) :   0.9386 B( 22-C , 25-C ) :   1.0592 B( 25-C , 26-H ) :   0.9630
B( 25-C , 27-H ) :   0.9530 B( 25-C , 28-C ) :   1.0781 B( 28-C , 29-H ) :   0.9746
B( 28-C , 30-H ) :   0.9743 B( 28-C , 31-H ) :   0.9724

Dispersion correction           -0.014006676
FINAL SINGLE POINT ENERGY     -1339.858723530127

DIPOLE MOMENT
-------------
                                X             Y             Z
Electronic contribution:    -14.16328      -5.05135      12.28618
Nuclear contribution   :     14.57970       5.08706     -12.49816
                        -----------------------------------------
Total Dipole Moment    :      0.41642       0.03571      -0.21197
                        -----------------------------------------
Magnitude (a.u.)       :      0.46863
Magnitude (Debye)      :      1.19117

Rotational constants in cm-1:     0.018732     0.008044     0.006752
Rotational constants in MHz :   561.577477   241.138226   202.428448

                             ****ORCA TERMINATED NORMALLY****
TOTAL RUN TIME: 0 days 0 hours 0 minutes 33 seconds 945 msec
