                         Program Version 4.2.1 -  RELEASE  -
|  1> ! wB97X-D3 SP def2-SVP
|  2> %pal
|  3> nprocs 16
|  4> end
|  5>
|  6> * xyz 0 1
|  7> S 	 -96.042 	 38.0428 	 123.808
|  8> C 	 -96.7013 	 38.0939 	 122.205
|  9> C 	 -97.2045 	 39.3141 	 121.934
| 10> C 	 -97.1386 	 40.2042 	 123.042
| 11> C 	 -96.5613 	 39.6091 	 124.17
| 12> H 	 -97.5255 	 41.2315 	 123.164
| 13> C 	 -97.8916 	 39.5783 	 120.555
| 14> H 	 -97.3193 	 39.098 	 119.77
| 15> H 	 -97.7969 	 40.635 	 120.346
| 16> C 	 -99.3067 	 39.053 	 120.34
| 17> H 	 -99.4697 	 39.1209 	 119.342
| 18> H 	 -99.1564 	 37.9939 	 120.585
| 19> C 	 -100.416 	 39.6277 	 121.253
| 20> H 	 -100.234 	 39.4951 	 122.281
| 21> H 	 -100.605 	 40.6692 	 120.989
| 22> H 	 -101.356 	 39.1213 	 121.022
| 23> S 	 -96.8939 	 39.3539 	 126.889
| 24> C 	 -96.6714 	 40.7356 	 127.933
| 25> C 	 -96.3123 	 41.8088 	 127.19
| 26> C 	 -96.2074 	 41.5857 	 125.774
| 27> C 	 -96.4798 	 40.2402 	 125.449
| 28> H 	 -96.0955 	 42.7848 	 127.588
| 29> C 	 -95.8486 	 42.7235 	 124.879
| 30> H 	 -95.8352 	 42.3777 	 123.897
| 31> H 	 -94.7626 	 42.987 	 124.991
| 32> C 	 -96.8378 	 43.9095 	 125.024
| 33> H 	 -96.8018 	 44.3511 	 126.039
| 34> H 	 -97.8341 	 43.557 	 124.909
| 35> C 	 -96.4574 	 45.0667 	 124.01
| 36> H 	 -96.3633 	 44.6174 	 123.003
| 37> H 	 -95.4862 	 45.3477 	 124.368
| 38> H 	 -97.1287 	 45.8903 	 124.124
| 39> H 	 -96.6665 	 37.2834 	 121.468
| 40> H 	 -96.8098 	 40.8621 	 128.99
| 41> *
| 42>
| 43>                          ****END OF INPUT****

CARTESIAN COORDINATES (ANGSTROEM)
---------------------------------
  S    -96.042000   38.042800  123.808000
  C    -96.701300   38.093900  122.205000
  C    -97.204500   39.314100  121.934000
  C    -97.138600   40.204200  123.042000
  C    -96.561300   39.609100  124.170000
  H    -97.525500   41.231500  123.164000
  C    -97.891600   39.578300  120.555000
  H    -97.319300   39.098000  119.770000
  H    -97.796900   40.635000  120.346000
  C    -99.306700   39.053000  120.340000
  H    -99.469700   39.120900  119.342000
  H    -99.156400   37.993900  120.585000
  C    -100.416000   39.627700  121.253000
  H    -100.234000   39.495100  122.281000
  H    -100.605000   40.669200  120.989000
  H    -101.356000   39.121300  121.022000
  S    -96.893900   39.353900  126.889000
  C    -96.671400   40.735600  127.933000
  C    -96.312300   41.808800  127.190000
  C    -96.207400   41.585700  125.774000
  C    -96.479800   40.240200  125.449000
  H    -96.095500   42.784800  127.588000
  C    -95.848600   42.723500  124.879000
  H    -95.835200   42.377700  123.897000
  H    -94.762600   42.987000  124.991000
  C    -96.837800   43.909500  125.024000
  H    -96.801800   44.351100  126.039000
  H    -97.834100   43.557000  124.909000
  C    -96.457400   45.066700  124.010000
  H    -96.363300   44.617400  123.003000
  H    -95.486200   45.347700  124.368000
  H    -97.128700   45.890300  124.124000
  H    -96.666500   37.283400  121.468000
  H    -96.809800   40.862100  128.990000

 Total Charge           Charge          ....    0
 Multiplicity           Mult            ....    1
 Number of Electrons    NEL             ....  134
 Basis Dimension        Dim             ....  322

ORBITAL ENERGIES
----------------

  NO   OCC          E(Eh)            E(eV)
   0   2.0000     -88.966855     -2420.9112
   1   2.0000     -88.966081     -2420.8901
   2   2.0000     -10.326849      -281.0079
   3   2.0000     -10.324850      -280.9534
   4   2.0000     -10.313588      -280.6470
   5   2.0000     -10.308950      -280.5208
   6   2.0000     -10.300580      -280.2930
   7   2.0000     -10.299120      -280.2533
   8   2.0000     -10.295230      -280.1475
   9   2.0000     -10.290913      -280.0300
  10   2.0000     -10.289329      -279.9869
  11   2.0000     -10.288803      -279.9726
  12   2.0000     -10.287207      -279.9291
  13   2.0000     -10.281065      -279.7620
  14   2.0000     -10.279314      -279.7144
  15   2.0000     -10.272745      -279.5356
  16   2.0000      -8.082881      -219.9464
  17   2.0000      -8.080856      -219.8913
  18   2.0000      -6.041210      -164.3897
  19   2.0000      -6.039513      -164.3435
  20   2.0000      -6.037126      -164.2786
  21   2.0000      -6.035281      -164.2284
  22   2.0000      -6.033827      -164.1888
  23   2.0000      -6.031521      -164.1260
  24   2.0000      -1.015414       -27.6308
  25   2.0000      -0.989709       -26.9314
  26   2.0000      -0.912450       -24.8290
  27   2.0000      -0.909986       -24.7620
  28   2.0000      -0.875640       -23.8274
  29   2.0000      -0.850727       -23.1495
  30   2.0000      -0.843415       -22.9505
  31   2.0000      -0.816072       -22.2064
  32   2.0000      -0.788122       -21.4459
  33   2.0000      -0.772793       -21.0288
  34   2.0000      -0.709834       -19.3156
  35   2.0000      -0.704500       -19.1704
  36   2.0000      -0.702878       -19.1263
  37   2.0000      -0.660512       -17.9734
  38   2.0000      -0.637898       -17.3581
  39   2.0000      -0.614159       -16.7121
  40   2.0000      -0.597296       -16.2533
  41   2.0000      -0.579106       -15.7583
  42   2.0000      -0.562785       -15.3142
  43   2.0000      -0.550257       -14.9732
  44   2.0000      -0.540081       -14.6963
  45   2.0000      -0.533408       -14.5148
  46   2.0000      -0.517741       -14.0884
  47   2.0000      -0.513552       -13.9745
  48   2.0000      -0.508308       -13.8318
  49   2.0000      -0.499954       -13.6044
  50   2.0000      -0.491293       -13.3688
  51   2.0000      -0.481043       -13.0899
  52   2.0000      -0.474851       -12.9214
  53   2.0000      -0.471184       -12.8216
  54   2.0000      -0.459991       -12.5170
  55   2.0000      -0.449310       -12.2263
  56   2.0000      -0.446873       -12.1600
  57   2.0000      -0.439828       -11.9683
  58   2.0000      -0.432071       -11.7572
  59   2.0000      -0.426588       -11.6081
  60   2.0000      -0.421755       -11.4765
  61   2.0000      -0.417432       -11.3589
  62   2.0000      -0.411147       -11.1879
  63   2.0000      -0.356556        -9.7024
  64   2.0000      -0.334101        -9.0914
  65   2.0000      -0.328535        -8.9399
  66   2.0000      -0.287789        -7.8311
  67   0.0000       0.027921         0.7598
  68   0.0000       0.083942         2.2842
  69   0.0000       0.119134         3.2418
  70   0.0000       0.124554         3.3893
  71   0.0000       0.127173         3.4605

MULLIKEN ATOMIC CHARGES
-----------------------
   0 S :    0.126965
   1 C :   -0.138243
   2 C :   -0.069474
   3 C :    0.000214
   4 C :   -0.164874
   5 H :    0.022035
   6 C :    0.057551
   7 H :    0.017236
   8 H :    0.011836
   9 C :   -0.025718
  10 H :    0.009350
  11 H :    0.014092
  12 C :   -0.028208
  13 H :    0.039904
  14 H :    0.025598
  15 H :    0.027882
  16 S :    0.110398
  17 C :   -0.066518
  18 C :   -0.031005
  19 C :   -0.058400
  20 C :   -0.138704
  21 H :    0.009000
  22 C :    0.085248
  23 H :   -0.014546
  24 H :    0.038668
  25 C :   -0.111269
  26 H :    0.033344
  27 H :    0.028956
  28 C :   -0.013255
  29 H :    0.038806
  30 H :    0.020883
  31 H :    0.039164
  32 H :    0.052554
  33 H :    0.050530
Sum of atomic charges:    0.0000000

LOEWDIN ATOMIC CHARGES
----------------------
   0 S :    0.439687
   1 C :   -0.206893
   2 C :   -0.066462
   3 C :   -0.071453
   4 C :   -0.214348
   5 H :    0.035602
   6 C :   -0.026208
   7 H :    0.029756
   8 H :    0.021110
   9 C :   -0.029666
  10 H :    0.010915
  11 H :    0.025026
  12 C :   -0.059149
  13 H :    0.022813
  14 H :    0.024417
  15 H :    0.028599
  16 S :    0.411793
  17 C :   -0.189063
  18 C :   -0.067704
  19 C :   -0.054853
  20 C :   -0.203405
  21 H :    0.026515
  22 C :   -0.037309
  23 H :    0.016308
  24 H :    0.040335
  25 C :   -0.031846
  26 H :    0.023463
  27 H :    0.016901
  28 C :   -0.056350
  29 H :    0.028402
  30 H :    0.022682
  31 H :    0.023046
  32 H :    0.033239
  33 H :    0.034100

  Mayer bond orders larger than 0.100000
B(  0-S ,  1-C ) :   1.1364 B(  0-S ,  4-C ) :   1.1776 B(  1-C ,  2-C ) :   1.6072
B(  1-C , 32-H ) :   0.9666 B(  2-C ,  3-C ) :   1.2589 B(  2-C ,  6-C ) :   1.0145
B(  3-C ,  4-C ) :   1.5303 B(  3-C ,  5-H ) :   0.9911 B(  4-C , 20-C ) :   1.0667
B(  6-C ,  7-H ) :   0.9403 B(  6-C ,  8-H ) :   0.9403 B(  6-C ,  9-C ) :   1.0757
B(  9-C , 10-H ) :   0.9551 B(  9-C , 11-H ) :   0.9516 B(  9-C , 12-C ) :   1.0790
B( 12-C , 13-H ) :   0.9762 B( 12-C , 14-H ) :   0.9760 B( 12-C , 15-H ) :   0.9728
B( 16-S , 17-C ) :   1.1373 B( 16-S , 20-C ) :   1.1407 B( 17-C , 18-C ) :   1.6133
B( 17-C , 33-H ) :   0.9679 B( 18-C , 19-C ) :   1.2556 B( 18-C , 21-H ) :   0.9874
B( 19-C , 20-C ) :   1.5611 B( 19-C , 22-C ) :   1.0587 B( 22-C , 23-H ) :   0.9234
B( 22-C , 24-H ) :   0.9232 B( 22-C , 25-C ) :   1.0478 B( 25-C , 26-H ) :   0.9568
B( 25-C , 27-H ) :   0.9593 B( 25-C , 28-C ) :   1.0714 B( 28-C , 29-H ) :   0.9773
B( 28-C , 30-H ) :   0.9762 B( 28-C , 31-H ) :   0.9763

Dispersion correction           -0.014165068
FINAL SINGLE POINT ENERGY     -1339.881389723472

DIPOLE MOMENT
-------------
                                X             Y             Z
Electronic contribution:     10.29379     -19.67144      16.90422
Nuclear contribution   :    -10.47043      20.23130     -17.24370
                        -----------------------------------------
Total Dipole Moment    :     -0.17664       0.55986      -0.33948
                        -----------------------------------------
Magnitude (a.u.)       :      0.67815
Magnitude (Debye)      :      1.72372

Rotational constants in cm-1:     0.016836     0.009203     0.006958
Rotational constants in MHz :   504.735660   275.897337   208.590403

                             ****ORCA TERMINATED NORMALLY****
TOTAL RUN TIME: 0 days 0 hours 0 minutes 33 seconds 929 msec
