                         Program Version 4.2.1 -  RELEASE  -
|  1> ! wB97X-D3 SP def2-SVP
|  2> %pal
|  3> nprocs 16
|  4> end
|  5>
|  6> * xyz 0 1
|  7> S 	 -6.6911 	 56.2628 	 28.6398
|  8> C 	 -5.97195 	 54.8748 	 27.7909
|  9> C 	 -5.21393 	 54.1569 	 28.6753
| 10> C 	 -5.127 	 54.8015 	 29.9455
| 11> C 	 -5.82232 	 55.9293 	 30.1049
| 12> H 	 -4.37996 	 54.4116 	 30.587
| 13> C 	 -4.29384 	 52.9916 	 28.2711
| 14> H 	 -3.24179 	 53.341 	 28.3739
| 15> H 	 -4.53652 	 52.8656 	 27.2659
| 16> C 	 -4.57213 	 51.7056 	 29.0483
| 17> H 	 -4.60322 	 51.7819 	 30.1512
| 18> H 	 -5.53535 	 51.248 	 28.749
| 19> C 	 -3.36955 	 50.7833 	 28.9827
| 20> H 	 -3.15716 	 50.7191 	 27.9166
| 21> H 	 -2.52848 	 51.13 	 29.6458
| 22> H 	 -3.63226 	 49.7329 	 29.3611
| 23> S 	 -5.55815 	 58.7033 	 30.5219
| 24> C 	 -4.92926 	 59.2682 	 32.0149
| 25> C 	 -4.95306 	 58.2565 	 32.9731
| 26> C 	 -5.34403 	 56.9711 	 32.4483
| 27> C 	 -5.60279 	 56.9508 	 31.0891
| 28> H 	 -4.68657 	 58.4547 	 33.9776
| 29> C 	 -5.34309 	 55.7494 	 33.3537
| 30> H 	 -5.28219 	 56.0585 	 34.4086
| 31> H 	 -4.4655 	 55.0749 	 33.1768
| 32> C 	 -6.65935 	 54.9299 	 33.4382
| 33> H 	 -6.50862 	 54.0194 	 34.037
| 34> H 	 -6.90503 	 54.523 	 32.4568
| 35> C 	 -7.931 	 55.7545 	 33.8242
| 36> H 	 -8.70751 	 55.0173 	 33.9754
| 37> H 	 -8.32163 	 56.355 	 32.9811
| 38> H 	 -7.79358 	 56.2845 	 34.7786
| 39> H 	 -6.10774 	 54.5354 	 26.7993
| 40> H 	 -4.68063 	 60.2318 	 32.2241
| 41> *
| 42>
| 43>                          ****END OF INPUT****

CARTESIAN COORDINATES (ANGSTROEM)
---------------------------------
  S     -6.691100   56.262800   28.639800
  C     -5.971950   54.874800   27.790900
  C     -5.213930   54.156900   28.675300
  C     -5.127000   54.801500   29.945500
  C     -5.822320   55.929300   30.104900
  H     -4.379960   54.411600   30.587000
  C     -4.293840   52.991600   28.271100
  H     -3.241790   53.341000   28.373900
  H     -4.536520   52.865600   27.265900
  C     -4.572130   51.705600   29.048300
  H     -4.603220   51.781900   30.151200
  H     -5.535350   51.248000   28.749000
  C     -3.369550   50.783300   28.982700
  H     -3.157160   50.719100   27.916600
  H     -2.528480   51.130000   29.645800
  H     -3.632260   49.732900   29.361100
  S     -5.558150   58.703300   30.521900
  C     -4.929260   59.268200   32.014900
  C     -4.953060   58.256500   32.973100
  C     -5.344030   56.971100   32.448300
  C     -5.602790   56.950800   31.089100
  H     -4.686570   58.454700   33.977600
  C     -5.343090   55.749400   33.353700
  H     -5.282190   56.058500   34.408600
  H     -4.465500   55.074900   33.176800
  C     -6.659350   54.929900   33.438200
  H     -6.508620   54.019400   34.037000
  H     -6.905030   54.523000   32.456800
  C     -7.931000   55.754500   33.824200
  H     -8.707510   55.017300   33.975400
  H     -8.321630   56.355000   32.981100
  H     -7.793580   56.284500   34.778600
  H     -6.107740   54.535400   26.799300
  H     -4.680630   60.231800   32.224100

 Total Charge           Charge          ....    0
 Multiplicity           Mult            ....    1
 Number of Electrons    NEL             ....  134
 Basis Dimension        Dim             ....  322

ORBITAL ENERGIES
----------------

  NO   OCC          E(Eh)            E(eV)
   0   2.0000     -88.964704     -2420.8527
   1   2.0000     -88.962517     -2420.7932
   2   2.0000     -10.333572      -281.1908
   3   2.0000     -10.327914      -281.0368
   4   2.0000     -10.313265      -280.6382
   5   2.0000     -10.312655      -280.6216
   6   2.0000     -10.306909      -280.4652
   7   2.0000     -10.297014      -280.1960
   8   2.0000     -10.295449      -280.1534
   9   2.0000     -10.295266      -280.1484
  10   2.0000     -10.292789      -280.0810
  11   2.0000     -10.289518      -279.9920
  12   2.0000     -10.287299      -279.9316
  13   2.0000     -10.286039      -279.8974
  14   2.0000     -10.284237      -279.8483
  15   2.0000     -10.275958      -279.6230
  16   2.0000      -8.079420      -219.8522
  17   2.0000      -8.076741      -219.7793
  18   2.0000      -6.038233      -164.3087
  19   2.0000      -6.035357      -164.2304
  20   2.0000      -6.033916      -164.1912
  21   2.0000      -6.031295      -164.1199
  22   2.0000      -6.029844      -164.0804
  23   2.0000      -6.027422      -164.0145
  24   2.0000      -1.009988       -27.4832
  25   2.0000      -0.982422       -26.7331
  26   2.0000      -0.917860       -24.9762
  27   2.0000      -0.901811       -24.5395
  28   2.0000      -0.875392       -23.8206
  29   2.0000      -0.849591       -23.1185
  30   2.0000      -0.840044       -22.8587
  31   2.0000      -0.818084       -22.2612
  32   2.0000      -0.781724       -21.2718
  33   2.0000      -0.773611       -21.0510
  34   2.0000      -0.716113       -19.4864
  35   2.0000      -0.693024       -18.8581
  36   2.0000      -0.687026       -18.6949
  37   2.0000      -0.666492       -18.1362
  38   2.0000      -0.643254       -17.5038
  39   2.0000      -0.630104       -17.1460
  40   2.0000      -0.590933       -16.0801
  41   2.0000      -0.571429       -15.5494
  42   2.0000      -0.569405       -15.4943
  43   2.0000      -0.550956       -14.9923
  44   2.0000      -0.542866       -14.7721
  45   2.0000      -0.534327       -14.5398
  46   2.0000      -0.521958       -14.2032
  47   2.0000      -0.515993       -14.0409
  48   2.0000      -0.503168       -13.6919
  49   2.0000      -0.497604       -13.5405
  50   2.0000      -0.490784       -13.3549
  51   2.0000      -0.478303       -13.0153
  52   2.0000      -0.471829       -12.8391
  53   2.0000      -0.463654       -12.6167
  54   2.0000      -0.461949       -12.5703
  55   2.0000      -0.448483       -12.2038
  56   2.0000      -0.438134       -11.9222
  57   2.0000      -0.435683       -11.8555
  58   2.0000      -0.429269       -11.6810
  59   2.0000      -0.424050       -11.5390
  60   2.0000      -0.416838       -11.3427
  61   2.0000      -0.404555       -11.0085
  62   2.0000      -0.402786       -10.9604
  63   2.0000      -0.360045        -9.7973
  64   2.0000      -0.331294        -9.0150
  65   2.0000      -0.327443        -8.9102
  66   2.0000      -0.288063        -7.8386
  67   0.0000       0.021504         0.5851
  68   0.0000       0.071167         1.9365
  69   0.0000       0.109917         2.9910
  70   0.0000       0.122929         3.3451
  71   0.0000       0.126789         3.4501

MULLIKEN ATOMIC CHARGES
-----------------------
   0 S :    0.089502
   1 C :   -0.107283
   2 C :   -0.121477
   3 C :    0.034195
   4 C :   -0.093257
   5 H :   -0.008876
   6 C :    0.095119
   7 H :    0.050756
   8 H :    0.000195
   9 C :   -0.095025
  10 H :    0.031325
  11 H :    0.040175
  12 C :   -0.087198
  13 H :    0.032197
  14 H :    0.051302
  15 H :    0.041084
  16 S :    0.088208
  17 C :   -0.040314
  18 C :   -0.025425
  19 C :   -0.029358
  20 C :   -0.128214
  21 H :    0.004518
  22 C :    0.041345
  23 H :    0.016151
  24 H :    0.049888
  25 C :   -0.096214
  26 H :    0.029606
  27 H :    0.026579
  28 C :   -0.056081
  29 H :    0.025040
  30 H :    0.054446
  31 H :    0.034825
  32 H :    0.029354
  33 H :    0.022912
Sum of atomic charges:    0.0000000

LOEWDIN ATOMIC CHARGES
----------------------
   0 S :    0.391867
   1 C :   -0.181505
   2 C :   -0.061339
   3 C :   -0.057392
   4 C :   -0.193443
   5 H :    0.024120
   6 C :   -0.022658
   7 H :    0.040176
   8 H :    0.022390
   9 C :   -0.052320
  10 H :    0.025710
  11 H :    0.029382
  12 C :   -0.072600
  13 H :    0.019887
  14 H :    0.031584
  15 H :    0.031989
  16 S :    0.380710
  17 C :   -0.170443
  18 C :   -0.066290
  19 C :   -0.055208
  20 C :   -0.163711
  21 H :    0.024200
  22 C :   -0.039621
  23 H :    0.029682
  24 H :    0.036013
  25 C :   -0.046293
  26 H :    0.024571
  27 H :    0.019975
  28 C :   -0.067880
  29 H :    0.026154
  30 H :    0.034713
  31 H :    0.023159
  32 H :    0.022886
  33 H :    0.011535

  Mayer bond orders larger than 0.100000
B(  0-S ,  1-C ) :   1.1156 B(  0-S ,  4-C ) :   1.1235 B(  1-C ,  2-C ) :   1.6405
B(  1-C , 32-H ) :   0.9679 B(  2-C ,  3-C ) :   1.2446 B(  2-C ,  6-C ) :   1.0212
B(  3-C ,  4-C ) :   1.5698 B(  3-C ,  5-H ) :   0.9990 B(  4-C , 20-C ) :   1.0811
B(  6-C ,  7-H ) :   0.9495 B(  6-C ,  8-H ) :   0.9275 B(  6-C ,  9-C ) :   1.0496
B(  9-C , 10-H ) :   0.9670 B(  9-C , 11-H ) :   0.9546 B(  9-C , 12-C ) :   1.0656
B( 12-C , 13-H ) :   0.9739 B( 12-C , 14-H ) :   0.9780 B( 12-C , 15-H ) :   0.9731
B( 16-S , 17-C ) :   1.1666 B( 16-S , 20-C ) :   1.1038 B( 17-C , 18-C ) :   1.5910
B( 17-C , 33-H ) :   0.9795 B( 18-C , 19-C ) :   1.2423 B( 18-C , 21-H ) :   0.9976
B( 19-C , 20-C ) :   1.5905 B( 19-C , 22-C ) :   1.0379 B( 22-C , 23-H ) :   0.9408
B( 22-C , 24-H ) :   0.9367 B( 22-C , 25-C ) :   1.0659 B( 25-C , 26-H ) :   0.9596
B( 25-C , 27-H ) :   0.9521 B( 25-C , 28-C ) :   1.0731 B( 28-C , 29-H ) :   0.9723
B( 28-C , 30-H ) :   0.9727 B( 28-C , 31-H ) :   0.9781

Dispersion correction           -0.014355392
FINAL SINGLE POINT ENERGY     -1339.862235957308

DIPOLE MOMENT
-------------
                                X             Y             Z
Electronic contribution:     -4.23922      25.18501     -10.07520
Nuclear contribution   :      4.63854     -25.73841      10.33853
                        -----------------------------------------
Total Dipole Moment    :      0.39932      -0.55340       0.26333
                        -----------------------------------------
Magnitude (a.u.)       :      0.73147
Magnitude (Debye)      :      1.85925

Rotational constants in cm-1:     0.019199     0.008541     0.007058
Rotational constants in MHz :   575.566424   256.050734   211.596792

                             ****ORCA TERMINATED NORMALLY****
TOTAL RUN TIME: 0 days 0 hours 0 minutes 32 seconds 949 msec
