                         Program Version 4.2.1 -  RELEASE  -
|  1> ! wB97X-D3 SP def2-SVP
|  2> %pal
|  3> nprocs 16
|  4> end
|  5>
|  6> * xyz 0 1
|  7> S 	 -22.1734 	 56.8329 	 106.341
|  8> C 	 -23.8054 	 56.8239 	 105.694
|  9> C 	 -24.6343 	 57.7144 	 106.431
| 10> C 	 -23.936 	 58.3467 	 107.486
| 11> C 	 -22.6078 	 58.0539 	 107.524
| 12> H 	 -24.3473 	 59.0462 	 108.176
| 13> C 	 -26.1297 	 57.8018 	 106.378
| 14> H 	 -26.4089 	 57.7734 	 107.419
| 15> H 	 -26.52 	 56.8772 	 105.968
| 16> C 	 -26.6823 	 59.024 	 105.693
| 17> H 	 -27.792 	 59.0339 	 105.725
| 18> H 	 -26.1891 	 59.8465 	 106.1
| 19> C 	 -26.5765 	 58.971 	 104.125
| 20> H 	 -25.5244 	 58.8678 	 103.842
| 21> H 	 -26.9426 	 58.1343 	 103.606
| 22> H 	 -26.9316 	 59.9408 	 103.786
| 23> S 	 -21.2977 	 60.4319 	 107.747
| 24> C 	 -20.0102 	 60.526 	 109.011
| 25> C 	 -20.0367 	 59.4421 	 109.862
| 26> C 	 -20.9424 	 58.4425 	 109.455
| 27> C 	 -21.687 	 58.7898 	 108.351
| 28> H 	 -19.3017 	 59.3271 	 110.616
| 29> C 	 -20.8423 	 57.1125 	 110.088
| 30> H 	 -19.8043 	 56.7692 	 109.773
| 31> H 	 -21.5122 	 56.4462 	 109.538
| 32> C 	 -21.1014 	 57.0165 	 111.648
| 33> H 	 -20.4981 	 57.7161 	 112.197
| 34> H 	 -20.8923 	 55.9783 	 112.077
| 35> C 	 -22.447 	 57.5081 	 112.049
| 36> H 	 -22.7427 	 58.4811 	 111.651
| 37> H 	 -22.5376 	 57.559 	 113.16
| 38> H 	 -23.2056 	 56.8299 	 111.745
| 39> H 	 -24.136 	 56.1791 	 104.961
| 40> H 	 -19.4115 	 61.3396 	 109.225
| 41> *
| 42>
| 43>                          ****END OF INPUT****

CARTESIAN COORDINATES (ANGSTROEM)
---------------------------------
  S    -22.173400   56.832900  106.341000
  C    -23.805400   56.823900  105.694000
  C    -24.634300   57.714400  106.431000
  C    -23.936000   58.346700  107.486000
  C    -22.607800   58.053900  107.524000
  H    -24.347300   59.046200  108.176000
  C    -26.129700   57.801800  106.378000
  H    -26.408900   57.773400  107.419000
  H    -26.520000   56.877200  105.968000
  C    -26.682300   59.024000  105.693000
  H    -27.792000   59.033900  105.725000
  H    -26.189100   59.846500  106.100000
  C    -26.576500   58.971000  104.125000
  H    -25.524400   58.867800  103.842000
  H    -26.942600   58.134300  103.606000
  H    -26.931600   59.940800  103.786000
  S    -21.297700   60.431900  107.747000
  C    -20.010200   60.526000  109.011000
  C    -20.036700   59.442100  109.862000
  C    -20.942400   58.442500  109.455000
  C    -21.687000   58.789800  108.351000
  H    -19.301700   59.327100  110.616000
  C    -20.842300   57.112500  110.088000
  H    -19.804300   56.769200  109.773000
  H    -21.512200   56.446200  109.538000
  C    -21.101400   57.016500  111.648000
  H    -20.498100   57.716100  112.197000
  H    -20.892300   55.978300  112.077000
  C    -22.447000   57.508100  112.049000
  H    -22.742700   58.481100  111.651000
  H    -22.537600   57.559000  113.160000
  H    -23.205600   56.829900  111.745000
  H    -24.136000   56.179100  104.961000
  H    -19.411500   61.339600  109.225000

 Total Charge           Charge          ....    0
 Multiplicity           Mult            ....    1
 Number of Electrons    NEL             ....  134
 Basis Dimension        Dim             ....  322

ORBITAL ENERGIES
----------------

  NO   OCC          E(Eh)            E(eV)
   0   2.0000     -88.968799     -2420.9641
   1   2.0000     -88.965954     -2420.8867
   2   2.0000     -10.324270      -280.9377
   3   2.0000     -10.322991      -280.9029
   4   2.0000     -10.316525      -280.7269
   5   2.0000     -10.314215      -280.6641
   6   2.0000     -10.300397      -280.2881
   7   2.0000     -10.298704      -280.2420
   8   2.0000     -10.296268      -280.1757
   9   2.0000     -10.292799      -280.0813
  10   2.0000     -10.288499      -279.9643
  11   2.0000     -10.286609      -279.9129
  12   2.0000     -10.284524      -279.8561
  13   2.0000     -10.283827      -279.8372
  14   2.0000     -10.270969      -279.4873
  15   2.0000     -10.270917      -279.4859
  16   2.0000      -8.083014      -219.9500
  17   2.0000      -8.079204      -219.8463
  18   2.0000      -6.041442      -164.3960
  19   2.0000      -6.037804      -164.2970
  20   2.0000      -6.037595      -164.2913
  21   2.0000      -6.034076      -164.1956
  22   2.0000      -6.033891      -164.1905
  23   2.0000      -6.029794      -164.0790
  24   2.0000      -1.005198       -27.3528
  25   2.0000      -0.980857       -26.6905
  26   2.0000      -0.914560       -24.8865
  27   2.0000      -0.907725       -24.7004
  28   2.0000      -0.870976       -23.7005
  29   2.0000      -0.854149       -23.2426
  30   2.0000      -0.849249       -23.1092
  31   2.0000      -0.814584       -22.1660
  32   2.0000      -0.782836       -21.3021
  33   2.0000      -0.770107       -20.9557
  34   2.0000      -0.709542       -19.3076
  35   2.0000      -0.701526       -19.0895
  36   2.0000      -0.696499       -18.9527
  37   2.0000      -0.667674       -18.1683
  38   2.0000      -0.645391       -17.5620
  39   2.0000      -0.620223       -16.8771
  40   2.0000      -0.595641       -16.2082
  41   2.0000      -0.570435       -15.5223
  42   2.0000      -0.553123       -15.0512
  43   2.0000      -0.548544       -14.9266
  44   2.0000      -0.544228       -14.8092
  45   2.0000      -0.541721       -14.7410
  46   2.0000      -0.526659       -14.3311
  47   2.0000      -0.524181       -14.2637
  48   2.0000      -0.500973       -13.6322
  49   2.0000      -0.495451       -13.4819
  50   2.0000      -0.485299       -13.2056
  51   2.0000      -0.478919       -13.0320
  52   2.0000      -0.468348       -12.7444
  53   2.0000      -0.461364       -12.5543
  54   2.0000      -0.456004       -12.4085
  55   2.0000      -0.446742       -12.1565
  56   2.0000      -0.444615       -12.0986
  57   2.0000      -0.438572       -11.9342
  58   2.0000      -0.432850       -11.7785
  59   2.0000      -0.431557       -11.7433
  60   2.0000      -0.423001       -11.5104
  61   2.0000      -0.413382       -11.2487
  62   2.0000      -0.398584       -10.8460
  63   2.0000      -0.337979        -9.1969
  64   2.0000      -0.333018        -9.0619
  65   2.0000      -0.321103        -8.7376
  66   2.0000      -0.303357        -8.2548
  67   0.0000       0.038721         1.0537
  68   0.0000       0.052577         1.4307
  69   0.0000       0.102624         2.7925
  70   0.0000       0.111902         3.0450
  71   0.0000       0.125893         3.4257

MULLIKEN ATOMIC CHARGES
-----------------------
   0 S :    0.122550
   1 C :   -0.095736
   2 C :   -0.089265
   3 C :    0.023860
   4 C :   -0.157446
   5 H :    0.008609
   6 C :    0.076390
   7 H :    0.024898
   8 H :    0.008817
   9 C :   -0.036440
  10 H :    0.038053
  11 H :    0.019156
  12 C :   -0.052764
  13 H :    0.016512
  14 H :    0.019947
  15 H :    0.038584
  16 S :    0.103976
  17 C :   -0.057428
  18 C :   -0.024973
  19 C :   -0.016917
  20 C :   -0.188106
  21 H :    0.010978
  22 C :    0.051652
  23 H :    0.051223
  24 H :    0.019670
  25 C :   -0.067368
  26 H :    0.022820
  27 H :    0.047122
  28 C :   -0.057542
  29 H :    0.040073
  30 H :    0.033267
  31 H :    0.016789
  32 H :    0.020891
  33 H :    0.028145
Sum of atomic charges:   -0.0000000

LOEWDIN ATOMIC CHARGES
----------------------
   0 S :    0.407411
   1 C :   -0.185611
   2 C :   -0.057053
   3 C :   -0.058618
   4 C :   -0.202344
   5 H :    0.029530
   6 C :   -0.033193
   7 H :    0.032615
   8 H :    0.026263
   9 C :   -0.030386
  10 H :    0.031834
  11 H :    0.017230
  12 C :   -0.065593
  13 H :    0.022104
  14 H :    0.017577
  15 H :    0.027697
  16 S :    0.368834
  17 C :   -0.147583
  18 C :   -0.061468
  19 C :   -0.058835
  20 C :   -0.186365
  21 H :    0.027082
  22 C :   -0.034679
  23 H :    0.044469
  24 H :    0.025957
  25 C :   -0.043929
  26 H :    0.019999
  27 H :    0.036315
  28 C :   -0.067509
  29 H :    0.027313
  30 H :    0.030494
  31 H :    0.016600
  32 H :    0.010645
  33 H :    0.013198

  Mayer bond orders larger than 0.100000
B(  0-S ,  1-C ) :   1.1487 B(  0-S ,  4-C ) :   1.1394 B(  1-C ,  2-C ) :   1.5733
B(  1-C , 32-H ) :   0.9814 B(  2-C ,  3-C ) :   1.2486 B(  2-C ,  6-C ) :   1.0160
B(  3-C ,  4-C ) :   1.5748 B(  3-C ,  5-H ) :   0.9983 B(  4-C , 20-C ) :   1.0353
B(  6-C ,  7-H ) :   0.9420 B(  6-C ,  8-H ) :   0.9419 B(  6-C ,  9-C ) :   1.0741
B(  9-C , 10-H ) :   0.9583 B(  9-C , 11-H ) :   0.9557 B(  9-C , 12-C ) :   1.0677
B( 12-C , 13-H ) :   0.9737 B( 12-C , 14-H ) :   0.9763 B( 12-C , 15-H ) :   0.9769
B( 16-S , 17-C ) :   1.1332 B( 16-S , 20-C ) :   1.1134 B( 17-C , 18-C ) :   1.6511
B( 17-C , 33-H ) :   0.9704 B( 18-C , 19-C ) :   1.2089 B( 18-C , 21-H ) :   0.9896
B( 19-C , 20-C ) :   1.6180 B( 19-C , 22-C ) :   1.0450 B( 22-C , 23-H ) :   0.9381
B( 22-C , 24-H ) :   0.9325 B( 22-C , 25-C ) :   1.0497 B( 25-C , 26-H ) :   0.9609
B( 25-C , 27-H ) :   0.9560 B( 25-C , 28-C ) :   1.0772 B( 28-C , 29-H ) :   0.9703
B( 28-C , 30-H ) :   0.9729 B( 28-C , 31-H ) :   0.9739

Dispersion correction           -0.014656626
FINAL SINGLE POINT ENERGY     -1339.860372986658

DIPOLE MOMENT
-------------
                                X             Y             Z
Electronic contribution:     15.10950       3.63678      -7.20089
Nuclear contribution   :    -15.28659      -3.77832       7.56996
                        -----------------------------------------
Total Dipole Moment    :     -0.17709      -0.14154       0.36907
                        -----------------------------------------
Magnitude (a.u.)       :      0.43314
Magnitude (Debye)      :      1.10094

Rotational constants in cm-1:     0.021769     0.007736     0.007091
Rotational constants in MHz :   652.620963   231.906749   212.575846

                             ****ORCA TERMINATED NORMALLY****
TOTAL RUN TIME: 0 days 0 hours 0 minutes 28 seconds 341 msec
