                         Program Version 4.2.1 -  RELEASE  -
|  1> ! wB97X-D3 SP def2-SVP
|  2> %pal
|  3> nprocs 16
|  4> end
|  5>
|  6> * xyz 0 1
|  7> S 	 -23.0307 	 33.7443 	 41.892
|  8> C 	 -21.8271 	 32.5262 	 41.6
|  9> C 	 -22.4055 	 31.2918 	 41.3824
| 10> C 	 -23.8554 	 31.404 	 41.3818
| 11> C 	 -24.2888 	 32.672 	 41.6715
| 12> H 	 -24.5606 	 30.5455 	 41.2984
| 13> C 	 -21.5244 	 30.039 	 41.1704
| 14> H 	 -21.8185 	 29.3875 	 42.0061
| 15> H 	 -20.4638 	 30.339 	 41.2228
| 16> C 	 -21.6635 	 29.4177 	 39.7561
| 17> H 	 -22.7379 	 29.1177 	 39.6369
| 18> H 	 -21.4564 	 30.2152 	 38.9907
| 19> C 	 -20.7739 	 28.1766 	 39.7332
| 20> H 	 -19.7849 	 28.3924 	 39.5018
| 21> H 	 -20.8894 	 27.4841 	 40.6695
| 22> H 	 -21.0738 	 27.4218 	 38.9874
| 23> S 	 -26.0872 	 33.9941 	 40.2871
| 24> C 	 -27.8431 	 33.6262 	 40.521
| 25> C 	 -28.0259 	 32.8868 	 41.599
| 26> C 	 -26.857 	 32.6345 	 42.4053
| 27> C 	 -25.69 	 33.1438 	 41.7335
| 28> H 	 -29.048 	 32.5949 	 41.8031
| 29> C 	 -26.8747 	 31.7258 	 43.615
| 30> H 	 -26.0007 	 31.0728 	 43.6021
| 31> H 	 -27.7258 	 31.0731 	 43.502
| 32> C 	 -26.9867 	 32.4953 	 45.0044
| 33> H 	 -26.2319 	 33.2534 	 45.1628
| 34> H 	 -26.8439 	 31.8066 	 45.9188
| 35> C 	 -28.2338 	 33.2951 	 45.2381
| 36> H 	 -29.1098 	 32.8383 	 44.8376
| 37> H 	 -28.1167 	 34.2787 	 44.7139
| 38> H 	 -28.2912 	 33.5259 	 46.2895
| 39> H 	 -20.7257 	 32.7626 	 41.4738
| 40> H 	 -28.6776 	 34.0134 	 39.9588
| 41> *
| 42>
| 43>                          ****END OF INPUT****

CARTESIAN COORDINATES (ANGSTROEM)
---------------------------------
  S    -23.030700   33.744300   41.892000
  C    -21.827100   32.526200   41.600000
  C    -22.405500   31.291800   41.382400
  C    -23.855400   31.404000   41.381800
  C    -24.288800   32.672000   41.671500
  H    -24.560600   30.545500   41.298400
  C    -21.524400   30.039000   41.170400
  H    -21.818500   29.387500   42.006100
  H    -20.463800   30.339000   41.222800
  C    -21.663500   29.417700   39.756100
  H    -22.737900   29.117700   39.636900
  H    -21.456400   30.215200   38.990700
  C    -20.773900   28.176600   39.733200
  H    -19.784900   28.392400   39.501800
  H    -20.889400   27.484100   40.669500
  H    -21.073800   27.421800   38.987400
  S    -26.087200   33.994100   40.287100
  C    -27.843100   33.626200   40.521000
  C    -28.025900   32.886800   41.599000
  C    -26.857000   32.634500   42.405300
  C    -25.690000   33.143800   41.733500
  H    -29.048000   32.594900   41.803100
  C    -26.874700   31.725800   43.615000
  H    -26.000700   31.072800   43.602100
  H    -27.725800   31.073100   43.502000
  C    -26.986700   32.495300   45.004400
  H    -26.231900   33.253400   45.162800
  H    -26.843900   31.806600   45.918800
  C    -28.233800   33.295100   45.238100
  H    -29.109800   32.838300   44.837600
  H    -28.116700   34.278700   44.713900
  H    -28.291200   33.525900   46.289500
  H    -20.725700   32.762600   41.473800
  H    -28.677600   34.013400   39.958800

 Total Charge           Charge          ....    0
 Multiplicity           Mult            ....    1
 Number of Electrons    NEL             ....  134
 Basis Dimension        Dim             ....  322

ORBITAL ENERGIES
----------------

  NO   OCC          E(Eh)            E(eV)
   0   2.0000     -88.963012     -2420.8066
   1   2.0000     -88.961256     -2420.7589
   2   2.0000     -10.329871      -281.0901
   3   2.0000     -10.323796      -280.9248
   4   2.0000     -10.314199      -280.6636
   5   2.0000     -10.312717      -280.6233
   6   2.0000     -10.312087      -280.6062
   7   2.0000     -10.301580      -280.3203
   8   2.0000     -10.296725      -280.1881
   9   2.0000     -10.296588      -280.1844
  10   2.0000     -10.295968      -280.1675
  11   2.0000     -10.295074      -280.1432
  12   2.0000     -10.291105      -280.0352
  13   2.0000     -10.288914      -279.9756
  14   2.0000     -10.282300      -279.7956
  15   2.0000     -10.270541      -279.4756
  16   2.0000      -8.078105      -219.8164
  17   2.0000      -8.077614      -219.8030
  18   2.0000      -6.036446      -164.2601
  19   2.0000      -6.036240      -164.2544
  20   2.0000      -6.032180      -164.1440
  21   2.0000      -6.032049      -164.1404
  22   2.0000      -6.029048      -164.0587
  23   2.0000      -6.028304      -164.0385
  24   2.0000      -1.012398       -27.5487
  25   2.0000      -0.984600       -26.7923
  26   2.0000      -0.910180       -24.7672
  27   2.0000      -0.902739       -24.5648
  28   2.0000      -0.873896       -23.7799
  29   2.0000      -0.847283       -23.0558
  30   2.0000      -0.845379       -23.0039
  31   2.0000      -0.818544       -22.2737
  32   2.0000      -0.779587       -21.2136
  33   2.0000      -0.766972       -20.8704
  34   2.0000      -0.705497       -19.1976
  35   2.0000      -0.692190       -18.8354
  36   2.0000      -0.682126       -18.5616
  37   2.0000      -0.656904       -17.8753
  38   2.0000      -0.638577       -17.3766
  39   2.0000      -0.617593       -16.8056
  40   2.0000      -0.591005       -16.0821
  41   2.0000      -0.570044       -15.5117
  42   2.0000      -0.563718       -15.3396
  43   2.0000      -0.551038       -14.9945
  44   2.0000      -0.542501       -14.7622
  45   2.0000      -0.522091       -14.2068
  46   2.0000      -0.514125       -13.9900
  47   2.0000      -0.510270       -13.8852
  48   2.0000      -0.503467       -13.7000
  49   2.0000      -0.499224       -13.5846
  50   2.0000      -0.483878       -13.1670
  51   2.0000      -0.481517       -13.1027
  52   2.0000      -0.471110       -12.8196
  53   2.0000      -0.464241       -12.6326
  54   2.0000      -0.454029       -12.3548
  55   2.0000      -0.450517       -12.2592
  56   2.0000      -0.440055       -11.9745
  57   2.0000      -0.434923       -11.8349
  58   2.0000      -0.430292       -11.7088
  59   2.0000      -0.428195       -11.6518
  60   2.0000      -0.423994       -11.5375
  61   2.0000      -0.406624       -11.0648
  62   2.0000      -0.404865       -11.0169
  63   2.0000      -0.347471        -9.4552
  64   2.0000      -0.328275        -8.9328
  65   2.0000      -0.317713        -8.6454
  66   2.0000      -0.304490        -8.2856
  67   0.0000       0.037262         1.0140
  68   0.0000       0.067287         1.8310
  69   0.0000       0.112971         3.0741
  70   0.0000       0.123403         3.3580
  71   0.0000       0.129377         3.5205

MULLIKEN ATOMIC CHARGES
-----------------------
   0 S :    0.119010
   1 C :   -0.154973
   2 C :   -0.103520
   3 C :    0.037029
   4 C :   -0.171111
   5 H :    0.025425
   6 C :    0.044977
   7 H :    0.046788
   8 H :    0.023502
   9 C :   -0.096781
  10 H :    0.035869
  11 H :    0.050594
  12 C :   -0.046316
  13 H :    0.028646
  14 H :    0.039917
  15 H :    0.027272
  16 S :    0.102653
  17 C :   -0.086305
  18 C :   -0.035469
  19 C :   -0.049246
  20 C :   -0.138114
  21 H :    0.019731
  22 C :    0.098187
  23 H :    0.029603
  24 H :    0.019964
  25 C :   -0.100771
  26 H :    0.029027
  27 H :    0.036238
  28 C :   -0.045804
  29 H :    0.018894
  30 H :    0.038221
  31 H :    0.034340
  32 H :    0.071830
  33 H :    0.050690
Sum of atomic charges:    0.0000000

LOEWDIN ATOMIC CHARGES
----------------------
   0 S :    0.441353
   1 C :   -0.220643
   2 C :   -0.064403
   3 C :   -0.074876
   4 C :   -0.230410
   5 H :    0.036347
   6 C :   -0.029079
   7 H :    0.034650
   8 H :    0.030599
   9 C :   -0.046159
  10 H :    0.026039
  11 H :    0.034857
  12 C :   -0.074173
  13 H :    0.015245
  14 H :    0.039844
  15 H :    0.027437
  16 S :    0.400035
  17 C :   -0.167270
  18 C :   -0.074036
  19 C :   -0.050554
  20 C :   -0.207084
  21 H :    0.033488
  22 C :   -0.028155
  23 H :    0.033001
  24 H :    0.028612
  25 C :   -0.046335
  26 H :    0.024884
  27 H :    0.028558
  28 C :   -0.067147
  29 H :    0.013988
  30 H :    0.031369
  31 H :    0.028167
  32 H :    0.040049
  33 H :    0.031801

  Mayer bond orders larger than 0.100000
B(  0-S ,  1-C ) :   1.1420 B(  0-S ,  4-C ) :   1.1891 B(  1-C ,  2-C ) :   1.6152
B(  1-C , 32-H ) :   0.9599 B(  2-C ,  3-C ) :   1.2405 B(  2-C ,  6-C ) :   1.0125
B(  3-C ,  4-C ) :   1.5719 B(  3-C ,  5-H ) :   0.9912 B(  4-C , 20-C ) :   0.9646
B(  6-C ,  7-H ) :   0.9394 B(  6-C ,  8-H ) :   0.9493 B(  6-C ,  9-C ) :   1.0558
B(  9-C , 10-H ) :   0.9584 B(  9-C , 11-H ) :   0.9572 B(  9-C , 12-C ) :   1.0724
B( 12-C , 13-H ) :   0.9769 B( 12-C , 14-H ) :   0.9710 B( 12-C , 15-H ) :   0.9722
B( 16-S , 17-C ) :   1.1219 B( 16-S , 20-C ) :   1.1691 B( 17-C , 18-C ) :   1.6691
B( 17-C , 33-H ) :   0.9635 B( 18-C , 19-C ) :   1.2237 B( 18-C , 21-H ) :   0.9837
B( 19-C , 20-C ) :   1.5794 B( 19-C , 22-C ) :   1.0379 B( 22-C , 23-H ) :   0.9371
B( 22-C , 24-H ) :   0.9425 B( 22-C , 25-C ) :   1.0533 B( 25-C , 26-H ) :   0.9606
B( 25-C , 27-H ) :   0.9628 B( 25-C , 28-C ) :   1.0764 B( 28-C , 29-H ) :   0.9776
B( 28-C , 30-H ) :   0.9741 B( 28-C , 31-H ) :   0.9717

Dispersion correction           -0.013884613
FINAL SINGLE POINT ENERGY     -1339.861176506814

DIPOLE MOMENT
-------------
                                X             Y             Z
Electronic contribution:     -1.28339      19.22258      -8.00063
Nuclear contribution   :      1.13963     -19.83155       8.04786
                        -----------------------------------------
Total Dipole Moment    :     -0.14376      -0.60897       0.04723
                        -----------------------------------------
Magnitude (a.u.)       :      0.62749
Magnitude (Debye)      :      1.59495

Rotational constants in cm-1:     0.021203     0.007058     0.006650
Rotational constants in MHz :   635.663881   211.605285   199.356757

                             ****ORCA TERMINATED NORMALLY****
TOTAL RUN TIME: 0 days 0 hours 0 minutes 32 seconds 747 msec
