                         Program Version 4.2.1 -  RELEASE  -
|  1> ! wB97X-D3 SP def2-SVP
|  2> %pal
|  3> nprocs 16
|  4> end
|  5>
|  6> * xyz 0 1
|  7> S 	 49.2317 	 4.94981 	 87.6961
|  8> C 	 48.4479 	 3.91225 	 86.5066
|  9> C 	 48.48 	 2.54843 	 86.8511
| 10> C 	 49.2433 	 2.42589 	 88.1033
| 11> C 	 49.7463 	 3.56658 	 88.6682
| 12> H 	 49.3482 	 1.41815 	 88.5644
| 13> C 	 48.0342 	 1.34553 	 86.0301
| 14> H 	 46.9122 	 1.38658 	 86.009
| 15> H 	 48.2349 	 0.416538 	 86.6176
| 16> C 	 48.463 	 1.24142 	 84.5747
| 17> H 	 48.4666 	 2.10267 	 83.9119
| 18> H 	 49.5498 	 1.06236 	 84.4913
| 19> C 	 47.9013 	 0.00438733 	 83.8055
| 20> H 	 47.9779 	 -0.95957 	 84.3487
| 21> H 	 46.8849 	 0.0875914 	 83.3961
| 22> H 	 48.5014 	 -0.121642 	 82.8469
| 23> S 	 49.4913 	 4.3666 	 91.3046
| 24> C 	 50.701 	 3.77138 	 92.4511
| 25> C 	 51.7956 	 3.18897 	 91.8034
| 26> C 	 51.5935 	 3.12999 	 90.3619
| 27> C 	 50.4027 	 3.65732 	 89.9553
| 28> H 	 52.7373 	 2.89268 	 92.2854
| 29> C 	 52.6933 	 2.4064 	 89.484
| 30> H 	 52.2539 	 1.52634 	 89.0188
| 31> H 	 53.4111 	 1.89633 	 90.1044
| 32> C 	 53.4197 	 3.22795 	 88.4282
| 33> H 	 52.6537 	 3.5574 	 87.7081
| 34> H 	 54.1211 	 2.55944 	 87.8656
| 35> C 	 54.41 	 4.3347 	 89.013
| 36> H 	 53.7719 	 5.00613 	 89.6148
| 37> H 	 54.7772 	 4.99066 	 88.3029
| 38> H 	 55.1437 	 3.89804 	 89.5762
| 39> H 	 47.9916 	 4.31041 	 85.6107
| 40> H 	 50.685 	 3.93494 	 93.5249
| 41> *
| 42>
| 43>                          ****END OF INPUT****

CARTESIAN COORDINATES (ANGSTROEM)
---------------------------------
  S     49.231700    4.949810   87.696100
  C     48.447900    3.912250   86.506600
  C     48.480000    2.548430   86.851100
  C     49.243300    2.425890   88.103300
  C     49.746300    3.566580   88.668200
  H     49.348200    1.418150   88.564400
  C     48.034200    1.345530   86.030100
  H     46.912200    1.386580   86.009000
  H     48.234900    0.416538   86.617600
  C     48.463000    1.241420   84.574700
  H     48.466600    2.102670   83.911900
  H     49.549800    1.062360   84.491300
  C     47.901300    0.004387   83.805500
  H     47.977900   -0.959570   84.348700
  H     46.884900    0.087591   83.396100
  H     48.501400   -0.121642   82.846900
  S     49.491300    4.366600   91.304600
  C     50.701000    3.771380   92.451100
  C     51.795600    3.188970   91.803400
  C     51.593500    3.129990   90.361900
  C     50.402700    3.657320   89.955300
  H     52.737300    2.892680   92.285400
  C     52.693300    2.406400   89.484000
  H     52.253900    1.526340   89.018800
  H     53.411100    1.896330   90.104400
  C     53.419700    3.227950   88.428200
  H     52.653700    3.557400   87.708100
  H     54.121100    2.559440   87.865600
  C     54.410000    4.334700   89.013000
  H     53.771900    5.006130   89.614800
  H     54.777200    4.990660   88.302900
  H     55.143700    3.898040   89.576200
  H     47.991600    4.310410   85.610700
  H     50.685000    3.934940   93.524900

 Total Charge           Charge          ....    0
 Multiplicity           Mult            ....    1
 Number of Electrons    NEL             ....  134
 Basis Dimension        Dim             ....  322

ORBITAL ENERGIES
----------------

  NO   OCC          E(Eh)            E(eV)
   0   2.0000     -88.967223     -2420.9212
   1   2.0000     -88.966812     -2420.9100
   2   2.0000     -10.328647      -281.0568
   3   2.0000     -10.326351      -280.9943
   4   2.0000     -10.323243      -280.9097
   5   2.0000     -10.320278      -280.8291
   6   2.0000     -10.309962      -280.5483
   7   2.0000     -10.307412      -280.4789
   8   2.0000     -10.306076      -280.4426
   9   2.0000     -10.299865      -280.2736
  10   2.0000     -10.299197      -280.2554
  11   2.0000     -10.294354      -280.1236
  12   2.0000     -10.292261      -280.0667
  13   2.0000     -10.289511      -279.9918
  14   2.0000     -10.288527      -279.9650
  15   2.0000     -10.265739      -279.3450
  16   2.0000      -8.081393      -219.9059
  17   2.0000      -8.080923      -219.8931
  18   2.0000      -6.039997      -164.3567
  19   2.0000      -6.039608      -164.3461
  20   2.0000      -6.035933      -164.2461
  21   2.0000      -6.035587      -164.2367
  22   2.0000      -6.032135      -164.1427
  23   2.0000      -6.031457      -164.1243
  24   2.0000      -1.000660       -27.2293
  25   2.0000      -0.976148       -26.5624
  26   2.0000      -0.908484       -24.7211
  27   2.0000      -0.897748       -24.4290
  28   2.0000      -0.866886       -23.5892
  29   2.0000      -0.845653       -23.0114
  30   2.0000      -0.840273       -22.8650
  31   2.0000      -0.809213       -22.0198
  32   2.0000      -0.785626       -21.3780
  33   2.0000      -0.773957       -21.0604
  34   2.0000      -0.708907       -19.2903
  35   2.0000      -0.704227       -19.1630
  36   2.0000      -0.684816       -18.6348
  37   2.0000      -0.662208       -18.0196
  38   2.0000      -0.640977       -17.4419
  39   2.0000      -0.614690       -16.7266
  40   2.0000      -0.590860       -16.0781
  41   2.0000      -0.567474       -15.4418
  42   2.0000      -0.551072       -14.9954
  43   2.0000      -0.550132       -14.9698
  44   2.0000      -0.537875       -14.6363
  45   2.0000      -0.522074       -14.2064
  46   2.0000      -0.519211       -14.1285
  47   2.0000      -0.507167       -13.8007
  48   2.0000      -0.505076       -13.7438
  49   2.0000      -0.498174       -13.5560
  50   2.0000      -0.489696       -13.3253
  51   2.0000      -0.468532       -12.7494
  52   2.0000      -0.467274       -12.7152
  53   2.0000      -0.462563       -12.5870
  54   2.0000      -0.458208       -12.4685
  55   2.0000      -0.450733       -12.2651
  56   2.0000      -0.443050       -12.0560
  57   2.0000      -0.441438       -12.0121
  58   2.0000      -0.436750       -11.8846
  59   2.0000      -0.425149       -11.5689
  60   2.0000      -0.420816       -11.4510
  61   2.0000      -0.407589       -11.0911
  62   2.0000      -0.400876       -10.9084
  63   2.0000      -0.341069        -9.2809
  64   2.0000      -0.330961        -9.0059
  65   2.0000      -0.325428        -8.8553
  66   2.0000      -0.301947        -8.2164
  67   0.0000       0.037092         1.0093
  68   0.0000       0.056328         1.5328
  69   0.0000       0.111873         3.0442
  70   0.0000       0.120775         3.2864
  71   0.0000       0.125119         3.4047

MULLIKEN ATOMIC CHARGES
-----------------------
   0 S :    0.107249
   1 C :   -0.132043
   2 C :   -0.083830
   3 C :    0.026166
   4 C :   -0.166348
   5 H :    0.025137
   6 C :    0.076236
   7 H :    0.043734
   8 H :    0.030334
   9 C :   -0.067966
  10 H :    0.027654
  11 H :    0.026242
  12 C :   -0.101329
  13 H :    0.041206
  14 H :    0.037810
  15 H :    0.035596
  16 S :    0.111755
  17 C :   -0.094736
  18 C :   -0.039050
  19 C :   -0.035098
  20 C :   -0.163578
  21 H :    0.032201
  22 C :    0.091732
  23 H :    0.024490
  24 H :   -0.001732
  25 C :   -0.102312
  26 H :    0.045727
  27 H :    0.028257
  28 C :   -0.002259
  29 H :    0.028898
  30 H :    0.020331
  31 H :    0.016072
  32 H :    0.050793
  33 H :    0.062662
Sum of atomic charges:   -0.0000000

LOEWDIN ATOMIC CHARGES
----------------------
   0 S :    0.392373
   1 C :   -0.187290
   2 C :   -0.063374
   3 C :   -0.057632
   4 C :   -0.202677
   5 H :    0.034620
   6 C :   -0.039458
   7 H :    0.041028
   8 H :    0.037569
   9 C :   -0.052444
  10 H :    0.027659
  11 H :    0.029910
  12 C :   -0.075559
  13 H :    0.027179
  14 H :    0.021989
  15 H :    0.034113
  16 S :    0.390044
  17 C :   -0.176906
  18 C :   -0.072604
  19 C :   -0.048836
  20 C :   -0.196520
  21 H :    0.035421
  22 C :   -0.031644
  23 H :    0.033446
  24 H :    0.023008
  25 C :   -0.039807
  26 H :    0.027048
  27 H :    0.025940
  28 C :   -0.052434
  29 H :    0.029898
  30 H :    0.017985
  31 H :    0.011743
  32 H :    0.025374
  33 H :    0.030837

  Mayer bond orders larger than 0.100000
B(  0-S ,  1-C ) :   1.1482 B(  0-S ,  4-C ) :   1.1205 B(  1-C ,  2-C ) :   1.6056
B(  1-C , 32-H ) :   0.9689 B(  2-C ,  3-C ) :   1.2440 B(  2-C ,  6-C ) :   1.0204
B(  3-C ,  4-C ) :   1.6093 B(  3-C ,  5-H ) :   0.9804 B(  4-C , 20-C ) :   1.0292
B(  6-C ,  7-H ) :   0.9335 B(  6-C ,  8-H ) :   0.9425 B(  6-C ,  9-C ) :   1.0530
B(  9-C , 10-H ) :   0.9558 B(  9-C , 11-H ) :   0.9537 B(  9-C , 12-C ) :   1.0745
B( 12-C , 13-H ) :   0.9765 B( 12-C , 14-H ) :   0.9771 B( 12-C , 15-H ) :   0.9755
B( 16-S , 17-C ) :   1.1484 B( 16-S , 20-C ) :   1.1188 B( 17-C , 18-C ) :   1.6239
B( 17-C , 33-H ) :   0.9661 B( 18-C , 19-C ) :   1.2268 B( 18-C , 21-H ) :   0.9822
B( 19-C , 20-C ) :   1.6510 B( 19-C , 22-C ) :   1.0160 B( 22-C , 23-H ) :   0.9317
B( 22-C , 24-H ) :   0.9372 B( 22-C , 25-C ) :   1.0788 B( 25-C , 26-H ) :   0.9600
B( 25-C , 27-H ) :   0.9550 B( 25-C , 28-C ) :   1.0604 B( 28-C , 29-H ) :   0.9782
B( 28-C , 30-H ) :   0.9760 B( 28-C , 31-H ) :   0.9774

Dispersion correction           -0.014205236
FINAL SINGLE POINT ENERGY     -1339.869927574968

DIPOLE MOMENT
-------------
                                X             Y             Z
Electronic contribution:     -9.92558      16.25476      18.40694
Nuclear contribution   :     10.16788     -16.84364     -18.69072
                        -----------------------------------------
Total Dipole Moment    :      0.24229      -0.58888      -0.28378
                        -----------------------------------------
Magnitude (a.u.)       :      0.69715
Magnitude (Debye)      :      1.77202

Rotational constants in cm-1:     0.020209     0.007458     0.006563
Rotational constants in MHz :   605.858510   223.598692   196.751651

                             ****ORCA TERMINATED NORMALLY****
TOTAL RUN TIME: 0 days 0 hours 0 minutes 29 seconds 173 msec
