                         Program Version 4.2.1 -  RELEASE  -
|  1> ! wB97X-D3 SP def2-SVP
|  2> %pal
|  3> nprocs 16
|  4> end
|  5>
|  6> * xyz 0 1
|  7> S 	 -6.47327 	 43.3987 	 43.5604
|  8> C 	 -4.91476 	 43.2343 	 42.8125
|  9> C 	 -3.89922 	 43.0887 	 43.8055
| 10> C 	 -4.4398 	 43.0873 	 45.1472
| 11> C 	 -5.78449 	 43.3649 	 45.1551
| 12> H 	 -3.84446 	 42.9054 	 46.0862
| 13> C 	 -2.50646 	 42.5912 	 43.5262
| 14> H 	 -2.48372 	 42.1681 	 42.5109
| 15> H 	 -2.31731 	 41.7416 	 44.2144
| 16> C 	 -1.37506 	 43.5284 	 43.7161
| 17> H 	 -1.29843 	 43.8478 	 44.7561
| 18> H 	 -0.454086 	 42.997 	 43.5242
| 19> C 	 -1.38419 	 44.6821 	 42.7386
| 20> H 	 -1.28292 	 44.5109 	 41.6793
| 21> H 	 -2.31223 	 45.2322 	 42.8074
| 22> H 	 -0.606454 	 45.2894 	 42.8878
| 23> S 	 -8.40848 	 43.0161 	 46.1462
| 24> C 	 -8.70627 	 43.385 	 47.8047
| 25> C 	 -7.53975 	 43.6558 	 48.4635
| 26> C 	 -6.35624 	 43.6601 	 47.6893
| 27> C 	 -6.68637 	 43.4493 	 46.3674
| 28> H 	 -7.48135 	 43.7504 	 49.5449
| 29> C 	 -5.0258 	 44.0502 	 48.2522
| 30> H 	 -5.32628 	 44.8065 	 49.0033
| 31> H 	 -4.45428 	 44.478 	 47.4331
| 32> C 	 -4.20387 	 42.9642 	 48.9259
| 33> H 	 -4.07461 	 42.0331 	 48.344
| 34> H 	 -4.70332 	 42.614 	 49.8188
| 35> C 	 -2.85398 	 43.4819 	 49.4015
| 36> H 	 -2.29208 	 42.658 	 49.7941
| 37> H 	 -2.86939 	 44.3085 	 50.1531
| 38> H 	 -2.24844 	 43.8309 	 48.4676
| 39> H 	 -4.76905 	 43.0036 	 41.7468
| 40> H 	 -9.66886 	 43.1631 	 48.2402
| 41> *
| 42>
| 43>                          ****END OF INPUT****

CARTESIAN COORDINATES (ANGSTROEM)
---------------------------------
  S     -6.473270   43.398700   43.560400
  C     -4.914760   43.234300   42.812500
  C     -3.899220   43.088700   43.805500
  C     -4.439800   43.087300   45.147200
  C     -5.784490   43.364900   45.155100
  H     -3.844460   42.905400   46.086200
  C     -2.506460   42.591200   43.526200
  H     -2.483720   42.168100   42.510900
  H     -2.317310   41.741600   44.214400
  C     -1.375060   43.528400   43.716100
  H     -1.298430   43.847800   44.756100
  H     -0.454086   42.997000   43.524200
  C     -1.384190   44.682100   42.738600
  H     -1.282920   44.510900   41.679300
  H     -2.312230   45.232200   42.807400
  H     -0.606454   45.289400   42.887800
  S     -8.408480   43.016100   46.146200
  C     -8.706270   43.385000   47.804700
  C     -7.539750   43.655800   48.463500
  C     -6.356240   43.660100   47.689300
  C     -6.686370   43.449300   46.367400
  H     -7.481350   43.750400   49.544900
  C     -5.025800   44.050200   48.252200
  H     -5.326280   44.806500   49.003300
  H     -4.454280   44.478000   47.433100
  C     -4.203870   42.964200   48.925900
  H     -4.074610   42.033100   48.344000
  H     -4.703320   42.614000   49.818800
  C     -2.853980   43.481900   49.401500
  H     -2.292080   42.658000   49.794100
  H     -2.869390   44.308500   50.153100
  H     -2.248440   43.830900   48.467600
  H     -4.769050   43.003600   41.746800
  H     -9.668860   43.163100   48.240200

 Total Charge           Charge          ....    0
 Multiplicity           Mult            ....    1
 Number of Electrons    NEL             ....  134
 Basis Dimension        Dim             ....  322

ORBITAL ENERGIES
----------------

  NO   OCC          E(Eh)            E(eV)
   0   2.0000     -88.968248     -2420.9491
   1   2.0000     -88.965019     -2420.8612
   2   2.0000     -10.332527      -281.1623
   3   2.0000     -10.331530      -281.1352
   4   2.0000     -10.318371      -280.7771
   5   2.0000     -10.314947      -280.6840
   6   2.0000     -10.305967      -280.4396
   7   2.0000     -10.299272      -280.2574
   8   2.0000     -10.299184      -280.2550
   9   2.0000     -10.295144      -280.1451
  10   2.0000     -10.291367      -280.0423
  11   2.0000     -10.290973      -280.0316
  12   2.0000     -10.289908      -280.0026
  13   2.0000     -10.288536      -279.9653
  14   2.0000     -10.280043      -279.7342
  15   2.0000     -10.258150      -279.1384
  16   2.0000      -8.083191      -219.9548
  17   2.0000      -8.079895      -219.8651
  18   2.0000      -6.041769      -164.4049
  19   2.0000      -6.038381      -164.3127
  20   2.0000      -6.037668      -164.2933
  21   2.0000      -6.034549      -164.2084
  22   2.0000      -6.033885      -164.1904
  23   2.0000      -6.030524      -164.0989
  24   2.0000      -1.006711       -27.3940
  25   2.0000      -0.985794       -26.8248
  26   2.0000      -0.919151       -25.0114
  27   2.0000      -0.917790       -24.9743
  28   2.0000      -0.864086       -23.5130
  29   2.0000      -0.859078       -23.3767
  30   2.0000      -0.847643       -23.0655
  31   2.0000      -0.812676       -22.1140
  32   2.0000      -0.786718       -21.4077
  33   2.0000      -0.776274       -21.1235
  34   2.0000      -0.706366       -19.2212
  35   2.0000      -0.700223       -19.0540
  36   2.0000      -0.691965       -18.8293
  37   2.0000      -0.661686       -18.0054
  38   2.0000      -0.635804       -17.3011
  39   2.0000      -0.621985       -16.9251
  40   2.0000      -0.602186       -16.3863
  41   2.0000      -0.571118       -15.5409
  42   2.0000      -0.566994       -15.4287
  43   2.0000      -0.551526       -15.0078
  44   2.0000      -0.542366       -14.7585
  45   2.0000      -0.533364       -14.5136
  46   2.0000      -0.517433       -14.0801
  47   2.0000      -0.514416       -13.9980
  48   2.0000      -0.503923       -13.7124
  49   2.0000      -0.495689       -13.4884
  50   2.0000      -0.487291       -13.2599
  51   2.0000      -0.482673       -13.1342
  52   2.0000      -0.473109       -12.8739
  53   2.0000      -0.464946       -12.6518
  54   2.0000      -0.459368       -12.5000
  55   2.0000      -0.452491       -12.3129
  56   2.0000      -0.445261       -12.1162
  57   2.0000      -0.443741       -12.0748
  58   2.0000      -0.433618       -11.7993
  59   2.0000      -0.430825       -11.7234
  60   2.0000      -0.421164       -11.4605
  61   2.0000      -0.419145       -11.4055
  62   2.0000      -0.408704       -11.1214
  63   2.0000      -0.356412        -9.6985
  64   2.0000      -0.333896        -9.0858
  65   2.0000      -0.328945        -8.9511
  66   2.0000      -0.285201        -7.7607
  67   0.0000       0.023720         0.6455
  68   0.0000       0.078355         2.1321
  69   0.0000       0.098797         2.6884
  70   0.0000       0.113797         3.0966
  71   0.0000       0.123819         3.3693

MULLIKEN ATOMIC CHARGES
-----------------------
   0 S :    0.105299
   1 C :   -0.122493
   2 C :   -0.091828
   3 C :   -0.027528
   4 C :   -0.108316
   5 H :    0.029120
   6 C :    0.037122
   7 H :    0.017668
   8 H :    0.033007
   9 C :   -0.040559
  10 H :    0.021769
  11 H :    0.018978
  12 C :   -0.003221
  13 H :    0.011086
  14 H :    0.030075
  15 H :   -0.002761
  16 S :    0.090024
  17 C :   -0.077942
  18 C :   -0.025211
  19 C :   -0.044581
  20 C :   -0.127544
  21 H :    0.010996
  22 C :    0.045082
  23 H :    0.035108
  24 H :    0.028313
  25 C :   -0.071468
  26 H :    0.038793
  27 H :    0.017763
  28 C :   -0.062795
  29 H :    0.034151
  30 H :    0.046027
  31 H :    0.032161
  32 H :    0.065150
  33 H :    0.058554
Sum of atomic charges:   -0.0000000

LOEWDIN ATOMIC CHARGES
----------------------
   0 S :    0.415600
   1 C :   -0.213156
   2 C :   -0.058507
   3 C :   -0.077927
   4 C :   -0.188270
   5 H :    0.041440
   6 C :   -0.037093
   7 H :    0.030396
   8 H :    0.036596
   9 C :   -0.039170
  10 H :    0.024049
  11 H :    0.024820
  12 C :   -0.060789
  13 H :    0.025570
  14 H :    0.026622
  15 H :    0.009179
  16 S :    0.389472
  17 C :   -0.187850
  18 C :   -0.071695
  19 C :   -0.061576
  20 C :   -0.176025
  21 H :    0.028926
  22 C :   -0.032048
  23 H :    0.040685
  24 H :    0.029970
  25 C :   -0.047450
  26 H :    0.028029
  27 H :    0.023285
  28 C :   -0.069038
  29 H :    0.023420
  30 H :    0.029770
  31 H :    0.029884
  32 H :    0.033817
  33 H :    0.029064

  Mayer bond orders larger than 0.100000
B(  0-S ,  1-C ) :   1.1422 B(  0-S ,  4-C ) :   1.1625 B(  1-C ,  2-C ) :   1.5824
B(  1-C , 32-H ) :   0.9653 B(  2-C ,  3-C ) :   1.2523 B(  2-C ,  6-C ) :   1.0274
B(  3-C ,  4-C ) :   1.5648 B(  3-C ,  5-H ) :   0.9765 B(  4-C , 20-C ) :   1.0334
B(  6-C ,  7-H ) :   0.9425 B(  6-C ,  8-H ) :   0.9429 B(  6-C ,  9-C ) :   1.0889
B(  9-C , 10-H ) :   0.9511 B(  9-C , 11-H ) :   0.9478 B(  9-C , 12-C ) :   1.0829
B( 12-C , 13-H ) :   0.9690 B( 12-C , 14-H ) :   0.9726 B( 12-C , 15-H ) :   0.9673
B( 16-S , 17-C ) :   1.1470 B( 16-S , 20-C ) :   1.1385 B( 17-C , 18-C ) :   1.6007
B( 17-C , 33-H ) :   0.9702 B( 18-C , 19-C ) :   1.2575 B( 18-C , 21-H ) :   0.9845
B( 19-C , 20-C ) :   1.6105 B( 19-C , 22-C ) :   1.0300 B( 22-C , 23-H ) :   0.9313
B( 22-C , 24-H ) :   0.9354 B( 22-C , 25-C ) :   1.0686 B( 25-C , 26-H ) :   0.9502
B( 25-C , 27-H ) :   0.9442 B( 25-C , 28-C ) :   1.0906 B( 28-C , 29-H ) :   0.9724
B( 28-C , 30-H ) :   0.9734 B( 28-C , 31-H ) :   0.9717

Dispersion correction           -0.014182891
FINAL SINGLE POINT ENERGY     -1339.880972065686

DIPOLE MOMENT
-------------
                                X             Y             Z
Electronic contribution:    -30.53021      -2.46391      -7.34095
Nuclear contribution   :     31.11737       2.19931       7.78647
                        -----------------------------------------
Total Dipole Moment    :      0.58717      -0.26460       0.44553
                        -----------------------------------------
Magnitude (a.u.)       :      0.78312
Magnitude (Debye)      :      1.99053

Rotational constants in cm-1:     0.017740     0.009577     0.006513
Rotational constants in MHz :   531.821413   287.104046   195.252115

                             ****ORCA TERMINATED NORMALLY****
TOTAL RUN TIME: 0 days 0 hours 0 minutes 33 seconds 259 msec
