                         Program Version 4.2.1 -  RELEASE  -
|  1> ! wB97X-D3 SP def2-SVP
|  2> %pal
|  3> nprocs 16
|  4> end
|  5>
|  6> * xyz 0 1
|  7> S 	 59.5839 	 -4.77969 	 88.4683
|  8> C 	 57.9087 	 -4.66217 	 88.8366
|  9> C 	 57.1569 	 -4.36027 	 87.7182
| 10> C 	 57.9724 	 -4.16913 	 86.565
| 11> C 	 59.329 	 -4.40632 	 86.7699
| 12> H 	 57.6397 	 -4.05208 	 85.5932
| 13> C 	 55.6363 	 -4.33211 	 87.5812
| 14> H 	 55.1795 	 -5.07911 	 88.244
| 15> H 	 55.4476 	 -4.72289 	 86.5506
| 16> C 	 54.9634 	 -2.96856 	 87.7734
| 17> H 	 53.9356 	 -3.10046 	 87.9972
| 18> H 	 55.5268 	 -2.41766 	 88.5993
| 19> C 	 55.0999 	 -2.12059 	 86.4804
| 20> H 	 56.1831 	 -1.87821 	 86.2965
| 21> H 	 54.6422 	 -2.74226 	 85.6933
| 22> H 	 54.5459 	 -1.2337 	 86.675
| 23> S 	 62.0714 	 -4.29607 	 86.5405
| 24> C 	 62.7994 	 -4.22021 	 84.9656
| 25> C 	 61.9172 	 -3.95669 	 83.9699
| 26> C 	 60.5507 	 -4.07291 	 84.4655
| 27> C 	 60.4462 	 -4.33999 	 85.8226
| 28> H 	 62.285 	 -3.86436 	 82.9802
| 29> C 	 59.3057 	 -3.91605 	 83.5558
| 30> H 	 58.552 	 -4.66132 	 83.8016
| 31> H 	 59.7268 	 -4.1954 	 82.6385
| 32> C 	 58.8114 	 -2.52879 	 83.2907
| 33> H 	 59.6022 	 -1.86315 	 82.8843
| 34> H 	 58.4831 	 -2.01211 	 84.1647
| 35> C 	 57.618 	 -2.52753 	 82.3127
| 36> H 	 57.0027 	 -3.42581 	 82.6058
| 37> H 	 57.9237 	 -2.57343 	 81.3055
| 38> H 	 57.0229 	 -1.5646 	 82.4106
| 39> H 	 57.3611 	 -4.78527 	 89.8154
| 40> H 	 63.8609 	 -4.22712 	 84.8517
| 41> *
| 42>
| 43>                          ****END OF INPUT****

CARTESIAN COORDINATES (ANGSTROEM)
---------------------------------
  S     59.583900   -4.779690   88.468300
  C     57.908700   -4.662170   88.836600
  C     57.156900   -4.360270   87.718200
  C     57.972400   -4.169130   86.565000
  C     59.329000   -4.406320   86.769900
  H     57.639700   -4.052080   85.593200
  C     55.636300   -4.332110   87.581200
  H     55.179500   -5.079110   88.244000
  H     55.447600   -4.722890   86.550600
  C     54.963400   -2.968560   87.773400
  H     53.935600   -3.100460   87.997200
  H     55.526800   -2.417660   88.599300
  C     55.099900   -2.120590   86.480400
  H     56.183100   -1.878210   86.296500
  H     54.642200   -2.742260   85.693300
  H     54.545900   -1.233700   86.675000
  S     62.071400   -4.296070   86.540500
  C     62.799400   -4.220210   84.965600
  C     61.917200   -3.956690   83.969900
  C     60.550700   -4.072910   84.465500
  C     60.446200   -4.339990   85.822600
  H     62.285000   -3.864360   82.980200
  C     59.305700   -3.916050   83.555800
  H     58.552000   -4.661320   83.801600
  H     59.726800   -4.195400   82.638500
  C     58.811400   -2.528790   83.290700
  H     59.602200   -1.863150   82.884300
  H     58.483100   -2.012110   84.164700
  C     57.618000   -2.527530   82.312700
  H     57.002700   -3.425810   82.605800
  H     57.923700   -2.573430   81.305500
  H     57.022900   -1.564600   82.410600
  H     57.361100   -4.785270   89.815400
  H     63.860900   -4.227120   84.851700

 Total Charge           Charge          ....    0
 Multiplicity           Mult            ....    1
 Number of Electrons    NEL             ....  134
 Basis Dimension        Dim             ....  322

ORBITAL ENERGIES
----------------

  NO   OCC          E(Eh)            E(eV)
   0   2.0000     -88.969320     -2420.9783
   1   2.0000     -88.961861     -2420.7753
   2   2.0000     -10.333727      -281.1950
   3   2.0000     -10.331038      -281.1218
   4   2.0000     -10.316074      -280.7147
   5   2.0000     -10.315337      -280.6946
   6   2.0000     -10.309864      -280.5457
   7   2.0000     -10.299043      -280.2512
   8   2.0000     -10.295934      -280.1666
   9   2.0000     -10.294316      -280.1226
  10   2.0000     -10.288981      -279.9774
  11   2.0000     -10.287919      -279.9485
  12   2.0000     -10.287695      -279.9424
  13   2.0000     -10.284404      -279.8529
  14   2.0000     -10.283743      -279.8349
  15   2.0000     -10.279565      -279.7212
  16   2.0000      -8.084079      -219.9790
  17   2.0000      -8.077043      -219.7875
  18   2.0000      -6.042729      -164.4310
  19   2.0000      -6.038509      -164.3162
  20   2.0000      -6.035661      -164.2387
  21   2.0000      -6.034760      -164.2142
  22   2.0000      -6.031670      -164.1301
  23   2.0000      -6.027486      -164.0162
  24   2.0000      -1.008000       -27.4291
  25   2.0000      -0.986147       -26.8344
  26   2.0000      -0.915355       -24.9081
  27   2.0000      -0.910952       -24.7883
  28   2.0000      -0.872038       -23.7294
  29   2.0000      -0.853184       -23.2163
  30   2.0000      -0.843658       -22.9571
  31   2.0000      -0.817345       -22.2411
  32   2.0000      -0.781955       -21.2781
  33   2.0000      -0.771716       -20.9995
  34   2.0000      -0.705637       -19.2014
  35   2.0000      -0.697525       -18.9806
  36   2.0000      -0.693571       -18.8730
  37   2.0000      -0.669041       -18.2055
  38   2.0000      -0.637353       -17.3433
  39   2.0000      -0.620500       -16.8847
  40   2.0000      -0.597933       -16.2706
  41   2.0000      -0.576743       -15.6940
  42   2.0000      -0.570649       -15.5281
  43   2.0000      -0.551785       -15.0148
  44   2.0000      -0.542780       -14.7698
  45   2.0000      -0.527207       -14.3460
  46   2.0000      -0.515550       -14.0288
  47   2.0000      -0.510926       -13.9030
  48   2.0000      -0.506573       -13.7845
  49   2.0000      -0.501161       -13.6373
  50   2.0000      -0.490625       -13.3506
  51   2.0000      -0.478750       -13.0275
  52   2.0000      -0.472244       -12.8504
  53   2.0000      -0.465289       -12.6612
  54   2.0000      -0.459652       -12.5078
  55   2.0000      -0.455739       -12.4013
  56   2.0000      -0.443555       -12.0698
  57   2.0000      -0.439219       -11.9517
  58   2.0000      -0.432726       -11.7751
  59   2.0000      -0.424029       -11.5384
  60   2.0000      -0.421014       -11.4564
  61   2.0000      -0.414897       -11.2899
  62   2.0000      -0.405551       -11.0356
  63   2.0000      -0.365965        -9.9584
  64   2.0000      -0.336191        -9.1482
  65   2.0000      -0.327077        -8.9002
  66   2.0000      -0.283118        -7.7040
  67   0.0000       0.019407         0.5281
  68   0.0000       0.090857         2.4724
  69   0.0000       0.091392         2.4869
  70   0.0000       0.115481         3.1424
  71   0.0000       0.126931         3.4540

MULLIKEN ATOMIC CHARGES
-----------------------
   0 S :    0.113258
   1 C :   -0.120023
   2 C :   -0.094893
   3 C :    0.027552
   4 C :   -0.114740
   5 H :   -0.039249
   6 C :    0.038229
   7 H :    0.026055
   8 H :    0.024114
   9 C :   -0.070546
  10 H :    0.028047
  11 H :    0.041015
  12 C :   -0.060172
  13 H :    0.054987
  14 H :    0.030578
  15 H :    0.033032
  16 S :    0.071367
  17 C :   -0.071073
  18 C :   -0.003750
  19 C :   -0.102752
  20 C :   -0.076407
  21 H :    0.011239
  22 C :    0.063412
  23 H :    0.037263
  24 H :   -0.003845
  25 C :   -0.054805
  26 H :    0.027663
  27 H :    0.021764
  28 C :   -0.062164
  29 H :    0.035183
  30 H :    0.031175
  31 H :    0.045638
  32 H :    0.063393
  33 H :    0.049453
Sum of atomic charges:    0.0000000

LOEWDIN ATOMIC CHARGES
----------------------
   0 S :    0.416749
   1 C :   -0.218423
   2 C :   -0.066725
   3 C :   -0.063553
   4 C :   -0.182511
   5 H :    0.013189
   6 C :   -0.035676
   7 H :    0.029340
   8 H :    0.031181
   9 C :   -0.039875
  10 H :    0.017421
  11 H :    0.032405
  12 C :   -0.064061
  13 H :    0.032787
  14 H :    0.024240
  15 H :    0.020767
  16 S :    0.382658
  17 C :   -0.169304
  18 C :   -0.069361
  19 C :   -0.049751
  20 C :   -0.182590
  21 H :    0.030337
  22 C :   -0.034387
  23 H :    0.029879
  24 H :    0.025549
  25 C :   -0.042993
  26 H :    0.029410
  27 H :    0.016671
  28 C :   -0.064364
  29 H :    0.029306
  30 H :    0.016020
  31 H :    0.035472
  32 H :    0.046115
  33 H :    0.024080

  Mayer bond orders larger than 0.100000
B(  0-S ,  1-C ) :   1.1437 B(  0-S ,  4-C ) :   1.1480 B(  1-C ,  2-C ) :   1.6159
B(  1-C , 32-H ) :   0.9552 B(  2-C ,  3-C ) :   1.2588 B(  2-C ,  6-C ) :   1.0145
B(  3-C ,  4-C ) :   1.5565 B(  3-C ,  5-H ) :   0.9967 B(  4-C , 20-C ) :   1.0812
B(  6-C ,  7-H ) :   0.9431 B(  6-C ,  8-H ) :   0.9466 B(  6-C ,  9-C ) :   1.0607
B(  9-C , 10-H ) :   0.9571 B(  9-C , 11-H ) :   0.9550 B(  9-C , 12-C ) :   1.0793
B( 12-C , 13-H ) :   0.9732 B( 12-C , 14-H ) :   0.9758 B( 12-C , 15-H ) :   0.9741
B( 16-S , 17-C ) :   1.1536 B( 16-S , 20-C ) :   1.1111 B( 17-C , 18-C ) :   1.6369
B( 17-C , 33-H ) :   0.9673 B( 18-C , 19-C ) :   1.2108 B( 18-C , 21-H ) :   0.9979
B( 19-C , 20-C ) :   1.6275 B( 19-C , 22-C ) :   1.0294 B( 22-C , 23-H ) :   0.9391
B( 22-C , 24-H ) :   0.9203 B( 22-C , 25-C ) :   1.0693 B( 25-C , 26-H ) :   0.9482
B( 25-C , 27-H ) :   0.9578 B( 25-C , 28-C ) :   1.0719 B( 28-C , 29-H ) :   0.9736
B( 28-C , 30-H ) :   0.9794 B( 28-C , 31-H ) :   0.9750

Dispersion correction           -0.014715177
FINAL SINGLE POINT ENERGY     -1339.876519376403

DIPOLE MOMENT
-------------
                                X             Y             Z
Electronic contribution:     25.88184     -11.23934      15.88470
Nuclear contribution   :    -26.31762      11.42824     -16.39083
                        -----------------------------------------
Total Dipole Moment    :     -0.43578       0.18889      -0.50613
                        -----------------------------------------
Magnitude (a.u.)       :      0.69408
Magnitude (Debye)      :      1.76422

Rotational constants in cm-1:     0.017203     0.010451     0.006798
Rotational constants in MHz :   515.733849   313.308619   203.798471

                             ****ORCA TERMINATED NORMALLY****
TOTAL RUN TIME: 0 days 0 hours 0 minutes 32 seconds 164 msec
