                         Program Version 4.2.1 -  RELEASE  -
|  1> ! wB97X-D3 SP def2-SVP
|  2> %pal
|  3> nprocs 16
|  4> end
|  5>
|  6> * xyz 0 1
|  7> S 	 -56.9012 	 53.4868 	 136.666
|  8> C 	 -56.5135 	 55.2105 	 136.432
|  9> C 	 -57.2567 	 56.0014 	 137.328
| 10> C 	 -57.9493 	 55.242 	 138.306
| 11> C 	 -57.8491 	 53.8631 	 138.174
| 12> H 	 -58.571 	 55.663 	 139.076
| 13> C 	 -57.3084 	 57.4893 	 137.23
| 14> H 	 -56.4046 	 57.7376 	 136.777
| 15> H 	 -57.3037 	 57.9816 	 138.187
| 16> C 	 -58.4879 	 57.9227 	 136.373
| 17> H 	 -58.5822 	 57.3755 	 135.372
| 18> H 	 -59.3901 	 57.7049 	 136.869
| 19> C 	 -58.3927 	 59.449 	 136.03
| 20> H 	 -57.5524 	 59.5916 	 135.353
| 21> H 	 -59.4132 	 59.7691 	 135.65
| 22> H 	 -58.2475 	 60.13 	 136.915
| 23> S 	 -57.7915 	 52.7357 	 140.457
| 24> C 	 -58.9971 	 51.5643 	 141.039
| 25> C 	 -59.9185 	 51.2962 	 140.013
| 26> C 	 -59.6048 	 51.9588 	 138.755
| 27> C 	 -58.5398 	 52.861 	 138.962
| 28> H 	 -60.7365 	 50.6016 	 140.184
| 29> C 	 -60.3143 	 51.7301 	 137.464
| 30> H 	 -60.8438 	 50.7778 	 137.341
| 31> H 	 -59.581 	 51.6854 	 136.732
| 32> C 	 -61.227 	 52.8476 	 137.027
| 33> H 	 -61.6637 	 52.4475 	 136.064
| 34> H 	 -60.5733 	 53.7027 	 136.624
| 35> C 	 -62.3404 	 53.2013 	 138.085
| 36> H 	 -63.154 	 52.4667 	 138.021
| 37> H 	 -62.6851 	 54.1844 	 137.758
| 38> H 	 -61.9877 	 53.2067 	 139.115
| 39> H 	 -55.8201 	 55.6094 	 135.735
| 40> H 	 -59.0175 	 51.0926 	 142.014
| 41> *
| 42>
| 43>                          ****END OF INPUT****

CARTESIAN COORDINATES (ANGSTROEM)
---------------------------------
  S    -56.901200   53.486800  136.666000
  C    -56.513500   55.210500  136.432000
  C    -57.256700   56.001400  137.328000
  C    -57.949300   55.242000  138.306000
  C    -57.849100   53.863100  138.174000
  H    -58.571000   55.663000  139.076000
  C    -57.308400   57.489300  137.230000
  H    -56.404600   57.737600  136.777000
  H    -57.303700   57.981600  138.187000
  C    -58.487900   57.922700  136.373000
  H    -58.582200   57.375500  135.372000
  H    -59.390100   57.704900  136.869000
  C    -58.392700   59.449000  136.030000
  H    -57.552400   59.591600  135.353000
  H    -59.413200   59.769100  135.650000
  H    -58.247500   60.130000  136.915000
  S    -57.791500   52.735700  140.457000
  C    -58.997100   51.564300  141.039000
  C    -59.918500   51.296200  140.013000
  C    -59.604800   51.958800  138.755000
  C    -58.539800   52.861000  138.962000
  H    -60.736500   50.601600  140.184000
  C    -60.314300   51.730100  137.464000
  H    -60.843800   50.777800  137.341000
  H    -59.581000   51.685400  136.732000
  C    -61.227000   52.847600  137.027000
  H    -61.663700   52.447500  136.064000
  H    -60.573300   53.702700  136.624000
  C    -62.340400   53.201300  138.085000
  H    -63.154000   52.466700  138.021000
  H    -62.685100   54.184400  137.758000
  H    -61.987700   53.206700  139.115000
  H    -55.820100   55.609400  135.735000
  H    -59.017500   51.092600  142.014000

 Total Charge           Charge          ....    0
 Multiplicity           Mult            ....    1
 Number of Electrons    NEL             ....  134
 Basis Dimension        Dim             ....  322

ORBITAL ENERGIES
----------------

  NO   OCC          E(Eh)            E(eV)
   0   2.0000     -88.967107     -2420.9181
   1   2.0000     -88.966403     -2420.8989
   2   2.0000     -10.334817      -281.2247
   3   2.0000     -10.322345      -280.8853
   4   2.0000     -10.317798      -280.7615
   5   2.0000     -10.317475      -280.7528
   6   2.0000     -10.306905      -280.4652
   7   2.0000     -10.301216      -280.3103
   8   2.0000     -10.299500      -280.2636
   9   2.0000     -10.295709      -280.1605
  10   2.0000     -10.290445      -280.0172
  11   2.0000     -10.289489      -279.9912
  12   2.0000     -10.288023      -279.9513
  13   2.0000     -10.284363      -279.8518
  14   2.0000     -10.279701      -279.7249
  15   2.0000     -10.277805      -279.6733
  16   2.0000      -8.081730      -219.9151
  17   2.0000      -8.079872      -219.8645
  18   2.0000      -6.040271      -164.3641
  19   2.0000      -6.038463      -164.3149
  20   2.0000      -6.035896      -164.2451
  21   2.0000      -6.034703      -164.2126
  22   2.0000      -6.032648      -164.1567
  23   2.0000      -6.030627      -164.1017
  24   2.0000      -1.005916       -27.3724
  25   2.0000      -0.977196       -26.5909
  26   2.0000      -0.913592       -24.8601
  27   2.0000      -0.910127       -24.7658
  28   2.0000      -0.869030       -23.6475
  29   2.0000      -0.844162       -22.9708
  30   2.0000      -0.837061       -22.7776
  31   2.0000      -0.814306       -22.1584
  32   2.0000      -0.783467       -21.3192
  33   2.0000      -0.767902       -20.8957
  34   2.0000      -0.708630       -19.2828
  35   2.0000      -0.699877       -19.0446
  36   2.0000      -0.682853       -18.5814
  37   2.0000      -0.665501       -18.1092
  38   2.0000      -0.642446       -17.4819
  39   2.0000      -0.619254       -16.8508
  40   2.0000      -0.590947       -16.0805
  41   2.0000      -0.571914       -15.5626
  42   2.0000      -0.559134       -15.2148
  43   2.0000      -0.552626       -15.0377
  44   2.0000      -0.539746       -14.6872
  45   2.0000      -0.524671       -14.2770
  46   2.0000      -0.518767       -14.1164
  47   2.0000      -0.514223       -13.9927
  48   2.0000      -0.500619       -13.6225
  49   2.0000      -0.496826       -13.5193
  50   2.0000      -0.488965       -13.3054
  51   2.0000      -0.483409       -13.1542
  52   2.0000      -0.471470       -12.8294
  53   2.0000      -0.467403       -12.7187
  54   2.0000      -0.452619       -12.3164
  55   2.0000      -0.443405       -12.0657
  56   2.0000      -0.440102       -11.9758
  57   2.0000      -0.436975       -11.8907
  58   2.0000      -0.430092       -11.7034
  59   2.0000      -0.424056       -11.5391
  60   2.0000      -0.419632       -11.4188
  61   2.0000      -0.414723       -11.2852
  62   2.0000      -0.408655       -11.1201
  63   2.0000      -0.337823        -9.1926
  64   2.0000      -0.334924        -9.1138
  65   2.0000      -0.319716        -8.6999
  66   2.0000      -0.294564        -8.0155
  67   0.0000       0.033168         0.9025
  68   0.0000       0.055964         1.5229
  69   0.0000       0.105979         2.8838
  70   0.0000       0.116952         3.1824
  71   0.0000       0.127932         3.4812

MULLIKEN ATOMIC CHARGES
-----------------------
   0 S :    0.097305
   1 C :   -0.110726
   2 C :   -0.110941
   3 C :    0.058673
   4 C :   -0.151292
   5 H :    0.010939
   6 C :    0.128902
   7 H :   -0.007465
   8 H :    0.022664
   9 C :   -0.082401
  10 H :    0.043647
  11 H :    0.016051
  12 C :   -0.072646
  13 H :    0.042356
  14 H :    0.043765
  15 H :    0.033249
  16 S :    0.128766
  17 C :   -0.104009
  18 C :   -0.049461
  19 C :   -0.022058
  20 C :   -0.197793
  21 H :    0.022829
  22 C :    0.122229
  23 H :    0.020722
  24 H :   -0.003247
  25 C :   -0.134610
  26 H :    0.029399
  27 H :    0.047406
  28 C :   -0.040846
  29 H :    0.031393
  30 H :    0.037700
  31 H :    0.050624
  32 H :    0.040210
  33 H :    0.058667
Sum of atomic charges:    0.0000000

LOEWDIN ATOMIC CHARGES
----------------------
   0 S :    0.363510
   1 C :   -0.183600
   2 C :   -0.056781
   3 C :   -0.056474
   4 C :   -0.185187
   5 H :    0.031660
   6 C :   -0.026929
   7 H :    0.021103
   8 H :    0.030733
   9 C :   -0.036730
  10 H :    0.035353
  11 H :    0.014650
  12 C :   -0.073671
  13 H :    0.024092
  14 H :    0.033024
  15 H :    0.026240
  16 S :    0.450014
  17 C :   -0.193989
  18 C :   -0.066701
  19 C :   -0.052832
  20 C :   -0.223204
  21 H :    0.031309
  22 C :   -0.040573
  23 H :    0.032708
  24 H :    0.022534
  25 C :   -0.046255
  26 H :    0.027411
  27 H :    0.030588
  28 C :   -0.066228
  29 H :    0.026544
  30 H :    0.028814
  31 H :    0.026922
  32 H :    0.022506
  33 H :    0.029436

  Mayer bond orders larger than 0.100000
B(  0-S ,  1-C ) :   1.1341 B(  0-S ,  4-C ) :   1.1184 B(  1-C ,  2-C ) :   1.5951
B(  1-C ,  4-C ) :   0.1068 B(  1-C , 32-H ) :   0.9725 B(  2-C ,  3-C ) :   1.2493
B(  2-C ,  6-C ) :   1.0351 B(  3-C ,  4-C ) :   1.5753 B(  3-C ,  5-H ) :   0.9926
B(  4-C , 20-C ) :   1.0171 B(  6-C ,  7-H ) :   0.9311 B(  6-C ,  8-H ) :   0.9356
B(  6-C ,  9-C ) :   1.0551 B(  9-C , 10-H ) :   0.9569 B(  9-C , 11-H ) :   0.9577
B(  9-C , 12-C ) :   1.0722 B( 12-C , 13-H ) :   0.9787 B( 12-C , 14-H ) :   0.9751
B( 12-C , 15-H ) :   0.9744 B( 16-S , 17-C ) :   1.1469 B( 16-S , 20-C ) :   1.1985
B( 17-C , 18-C ) :   1.5943 B( 17-C , 20-C ) :   0.1051 B( 17-C , 33-H ) :   0.9720
B( 18-C , 19-C ) :   1.2366 B( 18-C , 21-H ) :   0.9883 B( 19-C , 20-C ) :   1.5401
B( 19-C , 22-C ) :   1.0550 B( 22-C , 23-H ) :   0.9359 B( 22-C , 24-H ) :   0.9138
B( 22-C , 25-C ) :   1.0849 B( 25-C , 26-H ) :   0.9550 B( 25-C , 27-H ) :   0.9589
B( 25-C , 28-C ) :   1.0493 B( 28-C , 29-H ) :   0.9753 B( 28-C , 30-H ) :   0.9771
B( 28-C , 31-H ) :   0.9779

Dispersion correction           -0.015010771
FINAL SINGLE POINT ENERGY     -1339.866925895093

DIPOLE MOMENT
-------------
                                X             Y             Z
Electronic contribution:     16.19887     -16.99009      10.59418
Nuclear contribution   :    -16.56433      17.31003     -10.71062
                        -----------------------------------------
Total Dipole Moment    :     -0.36546       0.31994      -0.11644
                        -----------------------------------------
Magnitude (a.u.)       :      0.49948
Magnitude (Debye)      :      1.26958

Rotational constants in cm-1:     0.020172     0.008223     0.007278
Rotational constants in MHz :   604.733640   246.526280   218.190858

                             ****ORCA TERMINATED NORMALLY****
TOTAL RUN TIME: 0 days 0 hours 0 minutes 34 seconds 32 msec
