                         Program Version 4.2.1 -  RELEASE  -
|  1> ! wB97X-D3 SP def2-SVP
|  2> %pal
|  3> nprocs 16
|  4> end
|  5>
|  6> * xyz 0 1
|  7> S 	 -37.7189 	 68.4698 	 144.634
|  8> C 	 -38.9379 	 69.3846 	 143.638
|  9> C 	 -38.2704 	 70.4955 	 143.072
| 10> C 	 -36.9181 	 70.5443 	 143.395
| 11> C 	 -36.4663 	 69.5837 	 144.37
| 12> H 	 -36.2879 	 71.3511 	 143.134
| 13> C 	 -39.0015 	 71.5099 	 142.104
| 14> H 	 -38.5931 	 72.5118 	 142.267
| 15> H 	 -40.043 	 71.5674 	 142.442
| 16> C 	 -39.1542 	 71.0086 	 140.671
| 17> H 	 -39.4607 	 69.8947 	 140.687
| 18> H 	 -39.9944 	 71.4252 	 140.186
| 19> C 	 -37.8981 	 71.1585 	 139.79
| 20> H 	 -37.5709 	 72.2338 	 139.667
| 21> H 	 -37.1057 	 70.5037 	 140.231
| 22> H 	 -38.1015 	 70.7042 	 138.796
| 23> S 	 -34.5851 	 70.7357 	 146.081
| 24> C 	 -33.05 	 69.8482 	 146.211
| 25> C 	 -32.9426 	 68.7555 	 145.436
| 26> C 	 -34.1535 	 68.5419 	 144.641
| 27> C 	 -35.1673 	 69.446 	 144.958
| 28> H 	 -31.9875 	 68.1918 	 145.401
| 29> C 	 -34.3298 	 67.3642 	 143.688
| 30> H 	 -35.3504 	 67.0765 	 143.559
| 31> H 	 -33.8809 	 66.4879 	 144.118
| 32> C 	 -33.7721 	 67.5829 	 142.252
| 33> H 	 -33.9263 	 66.6386 	 141.736
| 34> H 	 -32.694 	 67.6296 	 142.331
| 35> C 	 -34.4702 	 68.6598 	 141.405
| 36> H 	 -34.4644 	 69.6602 	 141.825
| 37> H 	 -35.5271 	 68.4489 	 141.237
| 38> H 	 -33.9816 	 68.7178 	 140.43
| 39> H 	 -40.0026 	 69.2373 	 143.531
| 40> H 	 -32.2311 	 70.251 	 146.751
| 41> *
| 42>
| 43>                          ****END OF INPUT****

CARTESIAN COORDINATES (ANGSTROEM)
---------------------------------
  S    -37.718900   68.469800  144.634000
  C    -38.937900   69.384600  143.638000
  C    -38.270400   70.495500  143.072000
  C    -36.918100   70.544300  143.395000
  C    -36.466300   69.583700  144.370000
  H    -36.287900   71.351100  143.134000
  C    -39.001500   71.509900  142.104000
  H    -38.593100   72.511800  142.267000
  H    -40.043000   71.567400  142.442000
  C    -39.154200   71.008600  140.671000
  H    -39.460700   69.894700  140.687000
  H    -39.994400   71.425200  140.186000
  C    -37.898100   71.158500  139.790000
  H    -37.570900   72.233800  139.667000
  H    -37.105700   70.503700  140.231000
  H    -38.101500   70.704200  138.796000
  S    -34.585100   70.735700  146.081000
  C    -33.050000   69.848200  146.211000
  C    -32.942600   68.755500  145.436000
  C    -34.153500   68.541900  144.641000
  C    -35.167300   69.446000  144.958000
  H    -31.987500   68.191800  145.401000
  C    -34.329800   67.364200  143.688000
  H    -35.350400   67.076500  143.559000
  H    -33.880900   66.487900  144.118000
  C    -33.772100   67.582900  142.252000
  H    -33.926300   66.638600  141.736000
  H    -32.694000   67.629600  142.331000
  C    -34.470200   68.659800  141.405000
  H    -34.464400   69.660200  141.825000
  H    -35.527100   68.448900  141.237000
  H    -33.981600   68.717800  140.430000
  H    -40.002600   69.237300  143.531000
  H    -32.231100   70.251000  146.751000

 Total Charge           Charge          ....    0
 Multiplicity           Mult            ....    1
 Number of Electrons    NEL             ....  134
 Basis Dimension        Dim             ....  322

ORBITAL ENERGIES
----------------

  NO   OCC          E(Eh)            E(eV)
   0   2.0000     -88.971419     -2421.0354
   1   2.0000     -88.965660     -2420.8787
   2   2.0000     -10.329597      -281.0826
   3   2.0000     -10.329043      -281.0675
   4   2.0000     -10.320052      -280.8229
   5   2.0000     -10.315609      -280.7020
   6   2.0000     -10.310849      -280.5725
   7   2.0000     -10.305106      -280.4162
   8   2.0000     -10.298712      -280.2422
   9   2.0000     -10.298525      -280.2371
  10   2.0000     -10.291176      -280.0371
  11   2.0000     -10.289695      -279.9968
  12   2.0000     -10.286415      -279.9076
  13   2.0000     -10.284627      -279.8589
  14   2.0000     -10.284593      -279.8580
  15   2.0000     -10.272533      -279.5298
  16   2.0000      -8.085039      -220.0051
  17   2.0000      -8.079362      -219.8506
  18   2.0000      -6.043510      -164.4523
  19   2.0000      -6.039302      -164.3378
  20   2.0000      -6.038001      -164.3024
  21   2.0000      -6.036281      -164.2556
  22   2.0000      -6.034238      -164.2000
  23   2.0000      -6.029825      -164.0799
  24   2.0000      -1.001199       -27.2440
  25   2.0000      -0.976608       -26.5749
  26   2.0000      -0.908246       -24.7146
  27   2.0000      -0.902188       -24.5498
  28   2.0000      -0.868103       -23.6223
  29   2.0000      -0.844954       -22.9924
  30   2.0000      -0.839644       -22.8479
  31   2.0000      -0.809715       -22.0335
  32   2.0000      -0.785263       -21.3681
  33   2.0000      -0.773238       -21.0409
  34   2.0000      -0.709366       -19.3028
  35   2.0000      -0.695058       -18.9135
  36   2.0000      -0.693128       -18.8610
  37   2.0000      -0.656849       -17.8738
  38   2.0000      -0.634989       -17.2789
  39   2.0000      -0.612549       -16.6683
  40   2.0000      -0.596470       -16.2308
  41   2.0000      -0.570777       -15.5316
  42   2.0000      -0.551144       -14.9974
  43   2.0000      -0.545700       -14.8493
  44   2.0000      -0.540611       -14.7108
  45   2.0000      -0.536512       -14.5992
  46   2.0000      -0.513785       -13.9808
  47   2.0000      -0.510882       -13.9018
  48   2.0000      -0.499373       -13.5886
  49   2.0000      -0.496349       -13.5063
  50   2.0000      -0.486247       -13.2315
  51   2.0000      -0.478198       -13.0124
  52   2.0000      -0.468214       -12.7408
  53   2.0000      -0.464519       -12.6402
  54   2.0000      -0.455437       -12.3931
  55   2.0000      -0.444961       -12.1080
  56   2.0000      -0.438997       -11.9457
  57   2.0000      -0.434807       -11.8317
  58   2.0000      -0.434482       -11.8229
  59   2.0000      -0.423291       -11.5183
  60   2.0000      -0.418398       -11.3852
  61   2.0000      -0.413123       -11.2417
  62   2.0000      -0.409815       -11.1516
  63   2.0000      -0.338678        -9.2159
  64   2.0000      -0.332795        -9.0558
  65   2.0000      -0.327631        -8.9153
  66   2.0000      -0.297519        -8.0959
  67   0.0000       0.030023         0.8170
  68   0.0000       0.054895         1.4938
  69   0.0000       0.104958         2.8561
  70   0.0000       0.118829         3.2335
  71   0.0000       0.121953         3.3185

MULLIKEN ATOMIC CHARGES
-----------------------
   0 S :    0.125486
   1 C :   -0.133903
   2 C :   -0.095813
   3 C :    0.056619
   4 C :   -0.189646
   5 H :   -0.003781
   6 C :    0.070995
   7 H :    0.034015
   8 H :    0.020993
   9 C :   -0.072451
  10 H :    0.030619
  11 H :    0.020076
  12 C :   -0.079536
  13 H :    0.046760
  14 H :    0.043829
  15 H :    0.036906
  16 S :    0.096276
  17 C :   -0.072943
  18 C :   -0.029576
  19 C :   -0.019292
  20 C :   -0.162058
  21 H :    0.037462
  22 C :    0.087090
  23 H :    0.005588
  24 H :    0.018268
  25 C :   -0.067443
  26 H :    0.022973
  27 H :    0.020480
  28 C :   -0.047334
  29 H :    0.034382
  30 H :    0.038276
  31 H :    0.033011
  32 H :    0.048846
  33 H :    0.044826
Sum of atomic charges:   -0.0000000

LOEWDIN ATOMIC CHARGES
----------------------
   0 S :    0.431731
   1 C :   -0.195375
   2 C :   -0.058225
   3 C :   -0.067501
   4 C :   -0.214938
   5 H :    0.021211
   6 C :   -0.028140
   7 H :    0.030370
   8 H :    0.033863
   9 C :   -0.047370
  10 H :    0.035066
  11 H :    0.014966
  12 C :   -0.076770
  13 H :    0.030058
  14 H :    0.030532
  15 H :    0.028401
  16 S :    0.365985
  17 C :   -0.160792
  18 C :   -0.074122
  19 C :   -0.038775
  20 C :   -0.192306
  21 H :    0.042464
  22 C :   -0.031002
  23 H :    0.019242
  24 H :    0.029705
  25 C :   -0.036175
  26 H :    0.025320
  27 H :    0.018640
  28 C :   -0.066305
  29 H :    0.023118
  30 H :    0.027186
  31 H :    0.028667
  32 H :    0.029309
  33 H :    0.021962

  Mayer bond orders larger than 0.100000
B(  0-S ,  1-C ) :   1.1512 B(  0-S ,  4-C ) :   1.1968 B(  1-C ,  2-C ) :   1.5446
B(  1-C ,  4-C ) :   0.1280 B(  1-C , 32-H ) :   0.9707 B(  2-C ,  3-C ) :   1.3176
B(  2-C ,  6-C ) :   1.0154 B(  3-C ,  4-C ) :   1.4902 B(  3-C ,  5-H ) :   0.9948
B(  4-C , 20-C ) :   1.0423 B(  6-C ,  7-H ) :   0.9499 B(  6-C ,  8-H ) :   0.9371
B(  6-C ,  9-C ) :   1.0628 B(  9-C , 10-H ) :   0.9499 B(  9-C , 11-H ) :   0.9574
B(  9-C , 12-C ) :   1.0808 B( 12-C , 13-H ) :   0.9746 B( 12-C , 14-H ) :   0.9745
B( 12-C , 15-H ) :   0.9720 B( 16-S , 17-C ) :   1.1309 B( 16-S , 20-C ) :   1.1042
B( 17-C , 18-C ) :   1.6760 B( 17-C , 33-H ) :   0.9645 B( 18-C , 19-C ) :   1.1856
B( 18-C , 21-H ) :   0.9822 B( 19-C , 20-C ) :   1.6385 B( 19-C , 22-C ) :   1.0418
B( 22-C , 23-H ) :   0.9307 B( 22-C , 24-H ) :   0.9342 B( 22-C , 25-C ) :   1.0801
B( 25-C , 26-H ) :   0.9517 B( 25-C , 27-H ) :   0.9583 B( 25-C , 28-C ) :   1.0734
B( 28-C , 29-H ) :   0.9761 B( 28-C , 30-H ) :   0.9708 B( 28-C , 31-H ) :   0.9712

Dispersion correction           -0.016309041
FINAL SINGLE POINT ENERGY     -1339.877685590211

DIPOLE MOMENT
-------------
                                X             Y             Z
Electronic contribution:      1.79687      -0.18381      26.37260
Nuclear contribution   :     -1.69486       0.17112     -26.86686
                        -----------------------------------------
Total Dipole Moment    :      0.10200      -0.01270      -0.49427
                        -----------------------------------------
Magnitude (a.u.)       :      0.50484
Magnitude (Debye)      :      1.28320

Rotational constants in cm-1:     0.020296     0.008965     0.007888
Rotational constants in MHz :   608.453938   268.773579   236.489434

                             ****ORCA TERMINATED NORMALLY****
TOTAL RUN TIME: 0 days 0 hours 0 minutes 35 seconds 55 msec
