                         Program Version 4.2.1 -  RELEASE  -
|  1> ! wB97X-D3 SP def2-SVP
|  2> %pal
|  3> nprocs 16
|  4> end
|  5>
|  6> * xyz 0 1
|  7> S 	 -32.0624 	 64.34 	 111.369
|  8> C 	 -31.7348 	 63.3274 	 112.706
|  9> C 	 -32.7251 	 62.4252 	 112.978
| 10> C 	 -33.9264 	 62.7714 	 112.248
| 11> C 	 -33.68 	 63.7246 	 111.249
| 12> H 	 -34.9217 	 62.3023 	 112.366
| 13> C 	 -32.5919 	 61.3274 	 114.052
| 14> H 	 -33.5662 	 60.8794 	 114
| 15> H 	 -32.4386 	 61.6775 	 115.039
| 16> C 	 -31.5852 	 60.3349 	 113.551
| 17> H 	 -30.627 	 60.8113 	 113.404
| 18> H 	 -31.3624 	 59.5305 	 114.28
| 19> C 	 -32.0332 	 59.5788 	 112.252
| 20> H 	 -31.4545 	 58.7329 	 112.052
| 21> H 	 -32.9912 	 59.1238 	 112.28
| 22> H 	 -32.0539 	 60.2575 	 111.423
| 23> S 	 -34.3529 	 63.7654 	 108.617
| 24> C 	 -35.9119 	 64.3077 	 108.181
| 25> C 	 -36.5254 	 65.0125 	 109.213
| 26> C 	 -35.7684 	 65.0088 	 110.425
| 27> C 	 -34.6377 	 64.2375 	 110.246
| 28> H 	 -37.5175 	 65.425 	 109.139
| 29> C 	 -36.2568 	 65.6399 	 111.723
| 30> H 	 -36.1424 	 66.6657 	 111.523
| 31> H 	 -35.5244 	 65.4938 	 112.575
| 32> C 	 -37.6861 	 65.316 	 112.055
| 33> H 	 -38.4147 	 65.4492 	 111.186
| 34> H 	 -38.1311 	 65.9207 	 112.769
| 35> C 	 -37.8876 	 63.8128 	 112.514
| 36> H 	 -37.5634 	 63.0993 	 111.692
| 37> H 	 -38.9334 	 63.5279 	 112.703
| 38> H 	 -37.3796 	 63.542 	 113.465
| 39> H 	 -30.7893 	 63.3391 	 113.198
| 40> H 	 -36.3036 	 64.1345 	 107.117
| 41> *
| 42>
| 43>                          ****END OF INPUT****

CARTESIAN COORDINATES (ANGSTROEM)
---------------------------------
  S    -32.062400   64.340000  111.369000
  C    -31.734800   63.327400  112.706000
  C    -32.725100   62.425200  112.978000
  C    -33.926400   62.771400  112.248000
  C    -33.680000   63.724600  111.249000
  H    -34.921700   62.302300  112.366000
  C    -32.591900   61.327400  114.052000
  H    -33.566200   60.879400  114.000000
  H    -32.438600   61.677500  115.039000
  C    -31.585200   60.334900  113.551000
  H    -30.627000   60.811300  113.404000
  H    -31.362400   59.530500  114.280000
  C    -32.033200   59.578800  112.252000
  H    -31.454500   58.732900  112.052000
  H    -32.991200   59.123800  112.280000
  H    -32.053900   60.257500  111.423000
  S    -34.352900   63.765400  108.617000
  C    -35.911900   64.307700  108.181000
  C    -36.525400   65.012500  109.213000
  C    -35.768400   65.008800  110.425000
  C    -34.637700   64.237500  110.246000
  H    -37.517500   65.425000  109.139000
  C    -36.256800   65.639900  111.723000
  H    -36.142400   66.665700  111.523000
  H    -35.524400   65.493800  112.575000
  C    -37.686100   65.316000  112.055000
  H    -38.414700   65.449200  111.186000
  H    -38.131100   65.920700  112.769000
  C    -37.887600   63.812800  112.514000
  H    -37.563400   63.099300  111.692000
  H    -38.933400   63.527900  112.703000
  H    -37.379600   63.542000  113.465000
  H    -30.789300   63.339100  113.198000
  H    -36.303600   64.134500  107.117000

 Total Charge           Charge          ....    0
 Multiplicity           Mult            ....    1
 Number of Electrons    NEL             ....  134
 Basis Dimension        Dim             ....  322

ORBITAL ENERGIES
----------------

  NO   OCC          E(Eh)            E(eV)
   0   2.0000     -88.963630     -2420.8235
   1   2.0000     -88.963097     -2420.8089
   2   2.0000     -10.325138      -280.9613
   3   2.0000     -10.320060      -280.8231
   4   2.0000     -10.318824      -280.7895
   5   2.0000     -10.303406      -280.3699
   6   2.0000     -10.301801      -280.3262
   7   2.0000     -10.297939      -280.2212
   8   2.0000     -10.297733      -280.2156
   9   2.0000     -10.293073      -280.0887
  10   2.0000     -10.292864      -280.0831
  11   2.0000     -10.291342      -280.0417
  12   2.0000     -10.286390      -279.9069
  13   2.0000     -10.285050      -279.8704
  14   2.0000     -10.284835      -279.8646
  15   2.0000     -10.264095      -279.3002
  16   2.0000      -8.079465      -219.8534
  17   2.0000      -8.079404      -219.8517
  18   2.0000      -6.037727      -164.2949
  19   2.0000      -6.037708      -164.2944
  20   2.0000      -6.033788      -164.1877
  21   2.0000      -6.033739      -164.1864
  22   2.0000      -6.030369      -164.0947
  23   2.0000      -6.030360      -164.0944
  24   2.0000      -1.009907       -27.4810
  25   2.0000      -0.988943       -26.9105
  26   2.0000      -0.913441       -24.8560
  27   2.0000      -0.911056       -24.7911
  28   2.0000      -0.861581       -23.4448
  29   2.0000      -0.846139       -23.0246
  30   2.0000      -0.841593       -22.9009
  31   2.0000      -0.808640       -22.0042
  32   2.0000      -0.786470       -21.4009
  33   2.0000      -0.774408       -21.0727
  34   2.0000      -0.706336       -19.2204
  35   2.0000      -0.705602       -19.2004
  36   2.0000      -0.686360       -18.6768
  37   2.0000      -0.657830       -17.9005
  38   2.0000      -0.641606       -17.4590
  39   2.0000      -0.610945       -16.6247
  40   2.0000      -0.597136       -16.2489
  41   2.0000      -0.570542       -15.5252
  42   2.0000      -0.558075       -15.1860
  43   2.0000      -0.556357       -15.1393
  44   2.0000      -0.538611       -14.6564
  45   2.0000      -0.532761       -14.4972
  46   2.0000      -0.513549       -13.9744
  47   2.0000      -0.505136       -13.7454
  48   2.0000      -0.497757       -13.5447
  49   2.0000      -0.487942       -13.2776
  50   2.0000      -0.485145       -13.2015
  51   2.0000      -0.473479       -12.8840
  52   2.0000      -0.471312       -12.8250
  53   2.0000      -0.462747       -12.5920
  54   2.0000      -0.459987       -12.5169
  55   2.0000      -0.448257       -12.1977
  56   2.0000      -0.446280       -12.1439
  57   2.0000      -0.444942       -12.1075
  58   2.0000      -0.434614       -11.8264
  59   2.0000      -0.425878       -11.5887
  60   2.0000      -0.419477       -11.4146
  61   2.0000      -0.418280       -11.3820
  62   2.0000      -0.410258       -11.1637
  63   2.0000      -0.335240        -9.1223
  64   2.0000      -0.328894        -8.9497
  65   2.0000      -0.328140        -8.9291
  66   2.0000      -0.298073        -8.1110
  67   0.0000       0.050061         1.3622
  68   0.0000       0.059777         1.6266
  69   0.0000       0.120739         3.2855
  70   0.0000       0.127218         3.4618
  71   0.0000       0.131120         3.5680

MULLIKEN ATOMIC CHARGES
-----------------------
   0 S :    0.124190
   1 C :   -0.116272
   2 C :   -0.143423
   3 C :    0.038443
   4 C :   -0.181868
   5 H :    0.022971
   6 C :    0.151613
   7 H :    0.003130
   8 H :    0.034165
   9 C :   -0.092205
  10 H :    0.025635
  11 H :    0.025711
  12 C :   -0.024512
  13 H :    0.015859
  14 H :    0.011764
  15 H :    0.041944
  16 S :    0.128428
  17 C :   -0.123887
  18 C :   -0.041885
  19 C :   -0.023817
  20 C :   -0.209484
  21 H :    0.013529
  22 C :    0.129428
  23 H :    0.022301
  24 H :    0.044634
  25 C :   -0.064258
  26 H :    0.032890
  27 H :    0.015249
  28 C :   -0.103958
  29 H :    0.052285
  30 H :    0.030834
  31 H :    0.037614
  32 H :    0.038368
  33 H :    0.084583
Sum of atomic charges:    0.0000000

LOEWDIN ATOMIC CHARGES
----------------------
   0 S :    0.427417
   1 C :   -0.204903
   2 C :   -0.064010
   3 C :   -0.063308
   4 C :   -0.208867
   5 H :    0.036192
   6 C :   -0.021558
   7 H :    0.026977
   8 H :    0.027149
   9 C :   -0.037317
  10 H :    0.019566
  11 H :    0.023154
  12 C :   -0.057549
  13 H :    0.019687
  14 H :    0.021205
  15 H :    0.025673
  16 S :    0.435553
  17 C :   -0.209208
  18 C :   -0.074447
  19 C :   -0.050037
  20 C :   -0.218212
  21 H :    0.027014
  22 C :   -0.029926
  23 H :    0.031865
  24 H :    0.043970
  25 C :   -0.038670
  26 H :    0.032281
  27 H :    0.014851
  28 C :   -0.078244
  29 H :    0.031424
  30 H :    0.024440
  31 H :    0.024394
  32 H :    0.019927
  33 H :    0.043518

  Mayer bond orders larger than 0.100000
B(  0-S ,  1-C ) :   1.1583 B(  0-S ,  4-C ) :   1.1709 B(  1-C ,  2-C ) :   1.6049
B(  1-C , 32-H ) :   0.9693 B(  2-C ,  3-C ) :   1.2464 B(  2-C ,  6-C ) :   0.9963
B(  3-C ,  4-C ) :   1.5807 B(  3-C ,  5-H ) :   0.9873 B(  4-C , 20-C ) :   0.9896
B(  6-C ,  7-H ) :   0.9369 B(  6-C ,  8-H ) :   0.9475 B(  6-C ,  9-C ) :   1.0688
B(  9-C , 10-H ) :   0.9604 B(  9-C , 11-H ) :   0.9577 B(  9-C , 12-C ) :   1.0703
B( 12-C , 13-H ) :   0.9741 B( 12-C , 14-H ) :   0.9727 B( 12-C , 15-H ) :   0.9752
B( 16-S , 17-C ) :   1.1730 B( 16-S , 20-C ) :   1.1703 B( 17-C , 18-C ) :   1.5850
B( 17-C , 33-H ) :   0.9601 B( 18-C , 19-C ) :   1.2394 B( 18-C , 21-H ) :   0.9920
B( 19-C , 20-C ) :   1.5986 B( 19-C , 22-C ) :   1.0262 B( 22-C , 23-H ) :   0.9190
B( 22-C , 24-H ) :   0.9363 B( 22-C , 25-C ) :   1.0721 B( 25-C , 26-H ) :   0.9538
B( 25-C , 27-H ) :   0.9537 B( 25-C , 28-C ) :   1.0639 B( 28-C , 29-H ) :   0.9746
B( 28-C , 30-H ) :   0.9748 B( 28-C , 31-H ) :   0.9755

Dispersion correction           -0.015515262
FINAL SINGLE POINT ENERGY     -1339.877743497727

DIPOLE MOMENT
-------------
                                X             Y             Z
Electronic contribution:      9.74929      11.92641     -15.76229
Nuclear contribution   :    -10.13592     -12.04984      16.14885
                        -----------------------------------------
Total Dipole Moment    :     -0.38663      -0.12342       0.38656
                        -----------------------------------------
Magnitude (a.u.)       :      0.56049
Magnitude (Debye)      :      1.42465

Rotational constants in cm-1:     0.020342     0.008657     0.007549
Rotational constants in MHz :   609.824450   259.516445   226.311197

                             ****ORCA TERMINATED NORMALLY****
TOTAL RUN TIME: 0 days 0 hours 0 minutes 30 seconds 828 msec
