                         Program Version 4.2.1 -  RELEASE  -
|  1> ! wB97X-D3 SP def2-SVP
|  2> %pal
|  3> nprocs 16
|  4> end
|  5>
|  6> * xyz 0 1
|  7> S 	 46.95 	 14.7451 	 83.9778
|  8> C 	 46.8865 	 16.1384 	 85.1319
|  9> C 	 48.0796 	 16.7451 	 85.2117
| 10> C 	 49.1679 	 16.0018 	 84.5507
| 11> C 	 48.7305 	 15.0227 	 83.7581
| 12> H 	 50.2248 	 16.2029 	 84.5934
| 13> C 	 48.3772 	 17.972 	 86.0425
| 14> H 	 49.4014 	 18.0984 	 85.8128
| 15> H 	 48.4817 	 17.7803 	 87.0979
| 16> C 	 47.4374 	 19.1584 	 85.7126
| 17> H 	 46.4479 	 18.8167 	 86.0827
| 18> H 	 47.5614 	 19.9265 	 86.4747
| 19> C 	 47.6081 	 19.8315 	 84.3581
| 20> H 	 46.8608 	 19.3079 	 83.7525
| 21> H 	 47.509 	 20.9475 	 84.2727
| 22> H 	 48.4756 	 19.5695 	 83.8988
| 23> S 	 49.3142 	 12.4096 	 83.9594
| 24> C 	 50.3194 	 11.6504 	 82.7148
| 25> C 	 50.756 	 12.6386 	 81.7649
| 26> C 	 50.3227 	 13.999 	 82.0561
| 27> C 	 49.5043 	 13.9657 	 83.1872
| 28> H 	 51.2442 	 12.3021 	 80.8571
| 29> C 	 50.4196 	 15.1199 	 81.0417
| 30> H 	 49.7091 	 15.8948 	 81.3018
| 31> H 	 50.0419 	 14.7205 	 80.1389
| 32> C 	 51.7839 	 15.8058 	 80.9253
| 33> H 	 51.6302 	 16.6515 	 80.3082
| 34> H 	 52.346 	 15.1697 	 80.2279
| 35> C 	 52.5064 	 16.1714 	 82.3071
| 36> H 	 52.6054 	 15.364 	 83.0943
| 37> H 	 51.9521 	 16.9841 	 82.8583
| 38> H 	 53.5082 	 16.4247 	 82.0919
| 39> H 	 46.0431 	 16.5369 	 85.6174
| 40> H 	 50.4389 	 10.5601 	 82.6916
| 41> *
| 42>
| 43>                          ****END OF INPUT****

CARTESIAN COORDINATES (ANGSTROEM)
---------------------------------
  S     46.950000   14.745100   83.977800
  C     46.886500   16.138400   85.131900
  C     48.079600   16.745100   85.211700
  C     49.167900   16.001800   84.550700
  C     48.730500   15.022700   83.758100
  H     50.224800   16.202900   84.593400
  C     48.377200   17.972000   86.042500
  H     49.401400   18.098400   85.812800
  H     48.481700   17.780300   87.097900
  C     47.437400   19.158400   85.712600
  H     46.447900   18.816700   86.082700
  H     47.561400   19.926500   86.474700
  C     47.608100   19.831500   84.358100
  H     46.860800   19.307900   83.752500
  H     47.509000   20.947500   84.272700
  H     48.475600   19.569500   83.898800
  S     49.314200   12.409600   83.959400
  C     50.319400   11.650400   82.714800
  C     50.756000   12.638600   81.764900
  C     50.322700   13.999000   82.056100
  C     49.504300   13.965700   83.187200
  H     51.244200   12.302100   80.857100
  C     50.419600   15.119900   81.041700
  H     49.709100   15.894800   81.301800
  H     50.041900   14.720500   80.138900
  C     51.783900   15.805800   80.925300
  H     51.630200   16.651500   80.308200
  H     52.346000   15.169700   80.227900
  C     52.506400   16.171400   82.307100
  H     52.605400   15.364000   83.094300
  H     51.952100   16.984100   82.858300
  H     53.508200   16.424700   82.091900
  H     46.043100   16.536900   85.617400
  H     50.438900   10.560100   82.691600

 Total Charge           Charge          ....    0
 Multiplicity           Mult            ....    1
 Number of Electrons    NEL             ....  134
 Basis Dimension        Dim             ....  322

ORBITAL ENERGIES
----------------

  NO   OCC          E(Eh)            E(eV)
   0   2.0000     -88.965611     -2420.8773
   1   2.0000     -88.959607     -2420.7140
   2   2.0000     -10.324322      -280.9391
   3   2.0000     -10.323267      -280.9104
   4   2.0000     -10.321841      -280.8716
   5   2.0000     -10.310155      -280.5536
   6   2.0000     -10.306182      -280.4455
   7   2.0000     -10.302007      -280.3319
   8   2.0000     -10.297377      -280.2059
   9   2.0000     -10.293357      -280.0965
  10   2.0000     -10.290823      -280.0275
  11   2.0000     -10.290822      -280.0275
  12   2.0000     -10.289712      -279.9973
  13   2.0000     -10.287420      -279.9349
  14   2.0000     -10.286590      -279.9123
  15   2.0000     -10.274739      -279.5899
  16   2.0000      -8.079954      -219.8667
  17   2.0000      -8.072919      -219.6753
  18   2.0000      -6.038423      -164.3138
  19   2.0000      -6.034473      -164.2064
  20   2.0000      -6.031781      -164.1331
  21   2.0000      -6.030808      -164.1066
  22   2.0000      -6.027807      -164.0250
  23   2.0000      -6.023179      -163.8990
  24   2.0000      -1.001590       -27.2546
  25   2.0000      -0.973254       -26.4836
  26   2.0000      -0.911196       -24.7949
  27   2.0000      -0.905787       -24.6477
  28   2.0000      -0.867435       -23.6041
  29   2.0000      -0.844269       -22.9737
  30   2.0000      -0.839916       -22.8553
  31   2.0000      -0.812046       -22.0969
  32   2.0000      -0.786241       -21.3947
  33   2.0000      -0.776465       -21.1287
  34   2.0000      -0.717633       -19.5278
  35   2.0000      -0.710429       -19.3318
  36   2.0000      -0.692414       -18.8415
  37   2.0000      -0.659275       -17.9398
  38   2.0000      -0.641326       -17.4514
  39   2.0000      -0.607112       -16.5204
  40   2.0000      -0.589982       -16.0542
  41   2.0000      -0.568627       -15.4731
  42   2.0000      -0.557799       -15.1785
  43   2.0000      -0.548207       -14.9175
  44   2.0000      -0.538608       -14.6563
  45   2.0000      -0.530921       -14.4471
  46   2.0000      -0.518761       -14.1162
  47   2.0000      -0.513790       -13.9809
  48   2.0000      -0.501494       -13.6464
  49   2.0000      -0.497156       -13.5283
  50   2.0000      -0.493410       -13.4264
  51   2.0000      -0.478077       -13.0091
  52   2.0000      -0.472716       -12.8633
  53   2.0000      -0.466979       -12.7072
  54   2.0000      -0.453237       -12.3332
  55   2.0000      -0.448552       -12.2057
  56   2.0000      -0.438490       -11.9319
  57   2.0000      -0.436156       -11.8684
  58   2.0000      -0.431403       -11.7391
  59   2.0000      -0.426520       -11.6062
  60   2.0000      -0.421059       -11.4576
  61   2.0000      -0.412819       -11.2334
  62   2.0000      -0.398883       -10.8542
  63   2.0000      -0.342016        -9.3067
  64   2.0000      -0.331880        -9.0309
  65   2.0000      -0.319778        -8.7016
  66   2.0000      -0.299412        -8.1474
  67   0.0000       0.033661         0.9160
  68   0.0000       0.062701         1.7062
  69   0.0000       0.107939         2.9372
  70   0.0000       0.115378         3.1396
  71   0.0000       0.125580         3.4172

MULLIKEN ATOMIC CHARGES
-----------------------
   0 S :    0.070022
   1 C :   -0.098858
   2 C :   -0.106365
   3 C :    0.047855
   4 C :   -0.148049
   5 H :    0.012307
   6 C :    0.098846
   7 H :   -0.011536
   8 H :    0.036368
   9 C :   -0.083240
  10 H :    0.021218
  11 H :    0.011789
  12 C :    0.000377
  13 H :    0.035400
  14 H :    0.052695
  15 H :    0.005056
  16 S :    0.122191
  17 C :   -0.121215
  18 C :   -0.038558
  19 C :   -0.018987
  20 C :   -0.182454
  21 H :    0.023156
  22 C :    0.074889
  23 H :    0.021438
  24 H :    0.024887
  25 C :   -0.050966
  26 H :    0.020474
  27 H :    0.021700
  28 C :   -0.071572
  29 H :    0.054539
  30 H :    0.043823
  31 H :    0.033114
  32 H :    0.028125
  33 H :    0.071529
Sum of atomic charges:    0.0000000

LOEWDIN ATOMIC CHARGES
----------------------
   0 S :    0.335973
   1 C :   -0.161644
   2 C :   -0.064260
   3 C :   -0.052129
   4 C :   -0.172240
   5 H :    0.031876
   6 C :   -0.032402
   7 H :    0.020399
   8 H :    0.035116
   9 C :   -0.044679
  10 H :    0.024500
  11 H :    0.021944
  12 C :   -0.062497
  13 H :    0.036413
  14 H :    0.037384
  15 H :    0.013115
  16 S :    0.406912
  17 C :   -0.189968
  18 C :   -0.066205
  19 C :   -0.051084
  20 C :   -0.203222
  21 H :    0.028227
  22 C :   -0.027667
  23 H :    0.029615
  24 H :    0.030049
  25 C :   -0.036402
  26 H :    0.021645
  27 H :    0.023155
  28 C :   -0.069804
  29 H :    0.035020
  30 H :    0.030112
  31 H :    0.021505
  32 H :    0.020160
  33 H :    0.031082

  Mayer bond orders larger than 0.100000
B(  0-S ,  1-C ) :   1.0919 B(  0-S ,  4-C ) :   1.0979 B(  1-C ,  2-C ) :   1.7006
B(  1-C , 32-H ) :   0.9714 B(  2-C ,  3-C ) :   1.1570 B(  2-C ,  6-C ) :   1.0040
B(  3-C ,  4-C ) :   1.6800 B(  3-C ,  5-H ) :   0.9825 B(  4-C , 20-C ) :   1.0195
B(  6-C ,  7-H ) :   0.9353 B(  6-C ,  8-H ) :   0.9357 B(  6-C ,  9-C ) :   1.0798
B(  9-C , 10-H ) :   0.9602 B(  9-C , 11-H ) :   0.9537 B(  9-C , 12-C ) :   1.0416
B( 12-C , 13-H ) :   0.9712 B( 12-C , 14-H ) :   0.9794 B( 12-C , 15-H ) :   0.9752
B( 16-S , 17-C ) :   1.1453 B( 16-S , 20-C ) :   1.1626 B( 17-C , 18-C ) :   1.6015
B( 17-C , 20-C ) :   0.1019 B( 17-C , 33-H ) :   0.9699 B( 18-C , 19-C ) :   1.2192
B( 18-C , 21-H ) :   0.9875 B( 19-C , 20-C ) :   1.5847 B( 19-C , 22-C ) :   1.0442
B( 22-C , 23-H ) :   0.9307 B( 22-C , 24-H ) :   0.9422 B( 22-C , 25-C ) :   1.0662
B( 25-C , 26-H ) :   0.9555 B( 25-C , 27-H ) :   0.9590 B( 25-C , 28-C ) :   1.0589
B( 28-C , 29-H ) :   0.9726 B( 28-C , 30-H ) :   0.9736 B( 28-C , 31-H ) :   0.9744

Dispersion correction           -0.015152270
FINAL SINGLE POINT ENERGY     -1339.842899883583

DIPOLE MOMENT
-------------
                                X             Y             Z
Electronic contribution:     -9.54719     -24.69121       3.32713
Nuclear contribution   :      9.89262      25.17081      -3.44523
                        -----------------------------------------
Total Dipole Moment    :      0.34543       0.47961      -0.11810
                        -----------------------------------------
Magnitude (a.u.)       :      0.60273
Magnitude (Debye)      :      1.53203

Rotational constants in cm-1:     0.019989     0.009108     0.007013
Rotational constants in MHz :   599.254438   273.054023   210.232524

                             ****ORCA TERMINATED NORMALLY****
TOTAL RUN TIME: 0 days 0 hours 0 minutes 31 seconds 197 msec
