                         Program Version 4.2.1 -  RELEASE  -
|  1> ! wB97X-D3 SP def2-SVP
|  2> %pal
|  3> nprocs 16
|  4> end
|  5>
|  6> * xyz 0 1
|  7> S 	 34.4235 	 21.6555 	 48.997
|  8> C 	 33.5976 	 22.7962 	 50.0617
|  9> C 	 33.5858 	 22.4584 	 51.3945
| 10> C 	 34.2354 	 21.1803 	 51.5063
| 11> C 	 34.6028 	 20.5401 	 50.3015
| 12> H 	 34.4425 	 20.6344 	 52.4185
| 13> C 	 32.9912 	 23.228 	 52.6269
| 14> H 	 32.315 	 23.9543 	 52.1509
| 15> H 	 33.8706 	 23.8127 	 53.1051
| 16> C 	 32.1513 	 22.5404 	 53.7173
| 17> H 	 31.3229 	 22.0133 	 53.3185
| 18> H 	 32.7446 	 21.6935 	 54.0763
| 19> C 	 31.5542 	 23.4967 	 54.793
| 20> H 	 32.3543 	 23.9523 	 55.3404
| 21> H 	 31.045 	 24.3887 	 54.3407
| 22> H 	 30.885 	 23.0132 	 55.4705
| 23> S 	 34.2946 	 17.8566 	 49.3627
| 24> C 	 35.5807 	 16.7562 	 49.6712
| 25> C 	 36.6477 	 17.4041 	 50.2711
| 26> C 	 36.4744 	 18.7975 	 50.5469
| 27> C 	 35.2268 	 19.2378 	 50.1342
| 28> H 	 37.582 	 16.8778 	 50.4378
| 29> C 	 37.6004 	 19.6313 	 51.1912
| 30> H 	 37.822 	 19.2132 	 52.1256
| 31> H 	 37.1879 	 20.5565 	 51.4882
| 32> C 	 38.8484 	 19.7807 	 50.3942
| 33> H 	 38.5331 	 19.8965 	 49.3435
| 34> H 	 39.276 	 18.7998 	 50.5808
| 35> C 	 39.7579 	 20.8456 	 50.878
| 36> H 	 40.6926 	 20.8138 	 50.3199
| 37> H 	 39.9871 	 20.7312 	 51.905
| 38> H 	 39.4648 	 21.8692 	 50.6326
| 39> H 	 33.2545 	 23.7953 	 49.7833
| 40> H 	 35.5847 	 15.7233 	 49.3761
| 41> *
| 42>
| 43>                          ****END OF INPUT****

CARTESIAN COORDINATES (ANGSTROEM)
---------------------------------
  S     34.423500   21.655500   48.997000
  C     33.597600   22.796200   50.061700
  C     33.585800   22.458400   51.394500
  C     34.235400   21.180300   51.506300
  C     34.602800   20.540100   50.301500
  H     34.442500   20.634400   52.418500
  C     32.991200   23.228000   52.626900
  H     32.315000   23.954300   52.150900
  H     33.870600   23.812700   53.105100
  C     32.151300   22.540400   53.717300
  H     31.322900   22.013300   53.318500
  H     32.744600   21.693500   54.076300
  C     31.554200   23.496700   54.793000
  H     32.354300   23.952300   55.340400
  H     31.045000   24.388700   54.340700
  H     30.885000   23.013200   55.470500
  S     34.294600   17.856600   49.362700
  C     35.580700   16.756200   49.671200
  C     36.647700   17.404100   50.271100
  C     36.474400   18.797500   50.546900
  C     35.226800   19.237800   50.134200
  H     37.582000   16.877800   50.437800
  C     37.600400   19.631300   51.191200
  H     37.822000   19.213200   52.125600
  H     37.187900   20.556500   51.488200
  C     38.848400   19.780700   50.394200
  H     38.533100   19.896500   49.343500
  H     39.276000   18.799800   50.580800
  C     39.757900   20.845600   50.878000
  H     40.692600   20.813800   50.319900
  H     39.987100   20.731200   51.905000
  H     39.464800   21.869200   50.632600
  H     33.254500   23.795300   49.783300
  H     35.584700   15.723300   49.376100

 Total Charge           Charge          ....    0
 Multiplicity           Mult            ....    1
 Number of Electrons    NEL             ....  134
 Basis Dimension        Dim             ....  322

ORBITAL ENERGIES
----------------

  NO   OCC          E(Eh)            E(eV)
   0   2.0000     -88.967817     -2420.9374
   1   2.0000     -88.963347     -2420.8157
   2   2.0000     -10.330015      -281.0940
   3   2.0000     -10.326535      -280.9993
   4   2.0000     -10.317232      -280.7461
   5   2.0000     -10.315676      -280.7038
   6   2.0000     -10.309255      -280.5291
   7   2.0000     -10.307194      -280.4730
   8   2.0000     -10.305238      -280.4198
   9   2.0000     -10.295056      -280.1427
  10   2.0000     -10.291192      -280.0376
  11   2.0000     -10.289617      -279.9947
  12   2.0000     -10.284026      -279.8426
  13   2.0000     -10.279927      -279.7310
  14   2.0000     -10.278305      -279.6869
  15   2.0000     -10.272599      -279.5316
  16   2.0000      -8.082506      -219.9362
  17   2.0000      -8.077536      -219.8009
  18   2.0000      -6.040980      -164.3834
  19   2.0000      -6.037044      -164.2763
  20   2.0000      -6.036058      -164.2495
  21   2.0000      -6.033282      -164.1740
  22   2.0000      -6.032147      -164.1431
  23   2.0000      -6.028278      -164.0378
  24   2.0000      -1.000671       -27.2296
  25   2.0000      -0.979778       -26.6611
  26   2.0000      -0.920153       -25.0386
  27   2.0000      -0.905817       -24.6485
  28   2.0000      -0.869552       -23.6617
  29   2.0000      -0.852729       -23.2039
  30   2.0000      -0.841402       -22.8957
  31   2.0000      -0.805532       -21.9197
  32   2.0000      -0.789002       -21.4698
  33   2.0000      -0.778209       -21.1761
  34   2.0000      -0.711237       -19.3537
  35   2.0000      -0.700371       -19.0581
  36   2.0000      -0.694359       -18.8945
  37   2.0000      -0.654051       -17.7976
  38   2.0000      -0.638299       -17.3690
  39   2.0000      -0.614652       -16.7255
  40   2.0000      -0.599931       -16.3250
  41   2.0000      -0.577364       -15.7109
  42   2.0000      -0.567382       -15.4393
  43   2.0000      -0.556868       -15.1532
  44   2.0000      -0.527509       -14.3542
  45   2.0000      -0.526017       -14.3137
  46   2.0000      -0.515776       -14.0350
  47   2.0000      -0.509600       -13.8669
  48   2.0000      -0.501836       -13.6557
  49   2.0000      -0.496122       -13.5002
  50   2.0000      -0.493618       -13.4320
  51   2.0000      -0.480615       -13.0782
  52   2.0000      -0.472068       -12.8456
  53   2.0000      -0.467190       -12.7129
  54   2.0000      -0.457247       -12.4423
  55   2.0000      -0.453513       -12.3407
  56   2.0000      -0.444034       -12.0828
  57   2.0000      -0.438476       -11.9315
  58   2.0000      -0.432231       -11.7616
  59   2.0000      -0.426965       -11.6183
  60   2.0000      -0.419872       -11.4253
  61   2.0000      -0.413404       -11.2493
  62   2.0000      -0.409673       -11.1478
  63   2.0000      -0.336108        -9.1460
  64   2.0000      -0.328745        -8.9456
  65   2.0000      -0.328359        -8.9351
  66   2.0000      -0.301219        -8.1966
  67   0.0000       0.037833         1.0295
  68   0.0000       0.058887         1.6024
  69   0.0000       0.114450         3.1144
  70   0.0000       0.122137         3.3235
  71   0.0000       0.130735         3.5575

MULLIKEN ATOMIC CHARGES
-----------------------
   0 S :    0.127028
   1 C :   -0.124957
   2 C :   -0.073522
   3 C :    0.031326
   4 C :   -0.189992
   5 H :    0.007964
   6 C :    0.030108
   7 H :    0.021205
   8 H :    0.059442
   9 C :   -0.054193
  10 H :    0.021635
  11 H :    0.027675
  12 C :   -0.044290
  13 H :    0.023256
  14 H :    0.034866
  15 H :    0.041182
  16 S :    0.102095
  17 C :   -0.083518
  18 C :   -0.046281
  19 C :   -0.024995
  20 C :   -0.192454
  21 H :    0.017250
  22 C :    0.142591
  23 H :    0.002549
  24 H :   -0.009442
  25 C :   -0.078509
  26 H :    0.042015
  27 H :    0.022220
  28 C :   -0.011023
  29 H :    0.024302
  30 H :    0.022946
  31 H :    0.031575
  32 H :    0.041065
  33 H :    0.058882
Sum of atomic charges:   -0.0000000

LOEWDIN ATOMIC CHARGES
----------------------
   0 S :    0.416932
   1 C :   -0.193757
   2 C :   -0.066201
   3 C :   -0.056931
   4 C :   -0.212849
   5 H :    0.025699
   6 C :   -0.035112
   7 H :    0.028962
   8 H :    0.044133
   9 C :   -0.044511
  10 H :    0.022215
  11 H :    0.024051
  12 C :   -0.059429
  13 H :    0.021216
  14 H :    0.032790
  15 H :    0.026256
  16 S :    0.382943
  17 C :   -0.186049
  18 C :   -0.079848
  19 C :   -0.041766
  20 C :   -0.186457
  21 H :    0.028016
  22 C :   -0.024302
  23 H :    0.022871
  24 H :    0.019135
  25 C :   -0.041986
  26 H :    0.031248
  27 H :    0.025019
  28 C :   -0.061359
  29 H :    0.030286
  30 H :    0.021569
  31 H :    0.029369
  32 H :    0.027242
  33 H :    0.030604

  Mayer bond orders larger than 0.100000
B(  0-S ,  1-C ) :   1.1475 B(  0-S ,  4-C ) :   1.1525 B(  1-C ,  2-C ) :   1.6335
B(  1-C , 32-H ) :   0.9578 B(  2-C ,  3-C ) :   1.2387 B(  2-C ,  6-C ) :   1.0022
B(  3-C ,  4-C ) :   1.5810 B(  3-C ,  5-H ) :   0.9936 B(  4-C , 20-C ) :   1.0380
B(  6-C ,  7-H ) :   0.9438 B(  6-C ,  8-H ) :   0.9396 B(  6-C ,  9-C ) :   1.0609
B(  9-C , 10-H ) :   0.9551 B(  9-C , 11-H ) :   0.9527 B(  9-C , 12-C ) :   1.0744
B( 12-C , 13-H ) :   0.9767 B( 12-C , 14-H ) :   0.9745 B( 12-C , 15-H ) :   0.9763
B( 16-S , 17-C ) :   1.1618 B( 16-S , 20-C ) :   1.1190 B( 17-C , 18-C ) :   1.6085
B( 17-C , 33-H ) :   0.9681 B( 18-C , 19-C ) :   1.2315 B( 18-C , 21-H ) :   0.9875
B( 19-C , 20-C ) :   1.6135 B( 19-C , 22-C ) :   1.0396 B( 22-C , 23-H ) :   0.9210
B( 22-C , 24-H ) :   0.9216 B( 22-C , 25-C ) :   1.0553 B( 25-C , 26-H ) :   0.9574
B( 25-C , 27-H ) :   0.9495 B( 25-C , 28-C ) :   1.1107 B( 28-C , 29-H ) :   0.9675
B( 28-C , 30-H ) :   0.9679 B( 28-C , 31-H ) :   0.9699

Dispersion correction           -0.013568228
FINAL SINGLE POINT ENERGY     -1339.870241851483

DIPOLE MOMENT
-------------
                                X             Y             Z
Electronic contribution:     -7.43969     -12.76703     -20.39693
Nuclear contribution   :      7.77568      12.97051      20.98704
                        -----------------------------------------
Total Dipole Moment    :      0.33599       0.20348       0.59011
                        -----------------------------------------
Magnitude (a.u.)       :      0.70889
Magnitude (Debye)      :      1.80185

Rotational constants in cm-1:     0.017305     0.007421     0.006567
Rotational constants in MHz :   518.778504   222.463292   196.862315

                             ****ORCA TERMINATED NORMALLY****
TOTAL RUN TIME: 0 days 0 hours 0 minutes 33 seconds 5 msec
