                         Program Version 4.2.1 -  RELEASE  -
|  1> ! wB97X-D3 SP def2-SVP
|  2> %pal
|  3> nprocs 16
|  4> end
|  5>
|  6> * xyz 0 1
|  7> S 	 48.7536 	 8.52039 	 102.61
|  8> C 	 49.029 	 9.73745 	 103.787
|  9> C 	 49.8574 	 10.7133 	 103.285
| 10> C 	 50.2528 	 10.5584 	 101.912
| 11> C 	 49.738 	 9.4187 	 101.398
| 12> H 	 50.8744 	 11.2648 	 101.273
| 13> C 	 50.2835 	 11.9342 	 104.126
| 14> H 	 49.7 	 12.0019 	 105.094
| 15> H 	 49.9418 	 12.8977 	 103.629
| 16> C 	 51.7227 	 11.9049 	 104.511
| 17> H 	 51.9114 	 10.9063 	 105.019
| 18> H 	 52.3001 	 11.9863 	 103.607
| 19> C 	 52.2002 	 12.9281 	 105.487
| 20> H 	 53.208 	 12.9344 	 105.832
| 21> H 	 52.0192 	 13.89 	 105.1
| 22> H 	 51.5429 	 12.8048 	 106.369
| 23> S 	 51.1506 	 7.30125 	 100.149
| 24> C 	 51.0443 	 7.34662 	 98.4125
| 25> C 	 50.6599 	 8.5394 	 97.835
| 26> C 	 49.9635 	 9.27959 	 98.7794
| 27> C 	 50.2116 	 8.85151 	 100.109
| 28> H 	 50.748 	 8.75237 	 96.8225
| 29> C 	 49.3304 	 10.5859 	 98.3977
| 30> H 	 50.0776 	 11.3544 	 98.3474
| 31> H 	 48.5644 	 10.7783 	 99.1219
| 32> C 	 48.5921 	 10.5339 	 97.1128
| 33> H 	 49.3375 	 10.3673 	 96.2918
| 34> H 	 48.1466 	 11.4979 	 96.874
| 35> C 	 47.3603 	 9.58168 	 96.8971
| 36> H 	 47.5421 	 8.55574 	 96.8498
| 37> H 	 46.8743 	 9.85296 	 95.976
| 38> H 	 46.722 	 9.68672 	 97.6719
| 39> H 	 48.8679 	 9.63906 	 104.84
| 40> H 	 51.501 	 6.56557 	 97.8475
| 41> *
| 42>
| 43>                          ****END OF INPUT****

CARTESIAN COORDINATES (ANGSTROEM)
---------------------------------
  S     48.753600    8.520390  102.610000
  C     49.029000    9.737450  103.787000
  C     49.857400   10.713300  103.285000
  C     50.252800   10.558400  101.912000
  C     49.738000    9.418700  101.398000
  H     50.874400   11.264800  101.273000
  C     50.283500   11.934200  104.126000
  H     49.700000   12.001900  105.094000
  H     49.941800   12.897700  103.629000
  C     51.722700   11.904900  104.511000
  H     51.911400   10.906300  105.019000
  H     52.300100   11.986300  103.607000
  C     52.200200   12.928100  105.487000
  H     53.208000   12.934400  105.832000
  H     52.019200   13.890000  105.100000
  H     51.542900   12.804800  106.369000
  S     51.150600    7.301250  100.149000
  C     51.044300    7.346620   98.412500
  C     50.659900    8.539400   97.835000
  C     49.963500    9.279590   98.779400
  C     50.211600    8.851510  100.109000
  H     50.748000    8.752370   96.822500
  C     49.330400   10.585900   98.397700
  H     50.077600   11.354400   98.347400
  H     48.564400   10.778300   99.121900
  C     48.592100   10.533900   97.112800
  H     49.337500   10.367300   96.291800
  H     48.146600   11.497900   96.874000
  C     47.360300    9.581680   96.897100
  H     47.542100    8.555740   96.849800
  H     46.874300    9.852960   95.976000
  H     46.722000    9.686720   97.671900
  H     48.867900    9.639060  104.840000
  H     51.501000    6.565570   97.847500

 Total Charge           Charge          ....    0
 Multiplicity           Mult            ....    1
 Number of Electrons    NEL             ....  134
 Basis Dimension        Dim             ....  322

ORBITAL ENERGIES
----------------

  NO   OCC          E(Eh)            E(eV)
   0   2.0000     -88.968730     -2420.9622
   1   2.0000     -88.964166     -2420.8380
   2   2.0000     -10.328635      -281.0565
   3   2.0000     -10.328493      -281.0526
   4   2.0000     -10.314290      -280.6661
   5   2.0000     -10.310231      -280.5557
   6   2.0000     -10.300825      -280.2997
   7   2.0000     -10.299807      -280.2720
   8   2.0000     -10.298905      -280.2475
   9   2.0000     -10.296321      -280.1771
  10   2.0000     -10.286053      -279.8977
  11   2.0000     -10.285614      -279.8858
  12   2.0000     -10.283868      -279.8383
  13   2.0000     -10.281287      -279.7680
  14   2.0000     -10.269513      -279.4477
  15   2.0000     -10.262883      -279.2672
  16   2.0000      -8.082740      -219.9425
  17   2.0000      -8.078897      -219.8380
  18   2.0000      -6.040980      -164.3834
  19   2.0000      -6.037708      -164.2944
  20   2.0000      -6.037471      -164.2879
  21   2.0000      -6.033466      -164.1789
  22   2.0000      -6.033415      -164.1776
  23   2.0000      -6.029562      -164.0727
  24   2.0000      -1.002962       -27.2920
  25   2.0000      -0.985213       -26.8090
  26   2.0000      -0.916010       -24.9259
  27   2.0000      -0.913879       -24.8679
  28   2.0000      -0.869015       -23.6471
  29   2.0000      -0.852233       -23.1905
  30   2.0000      -0.847561       -23.0633
  31   2.0000      -0.816354       -22.2141
  32   2.0000      -0.790311       -21.5054
  33   2.0000      -0.769798       -20.9473
  34   2.0000      -0.705768       -19.2049
  35   2.0000      -0.694501       -18.8983
  36   2.0000      -0.688363       -18.7313
  37   2.0000      -0.659505       -17.9461
  38   2.0000      -0.640827       -17.4378
  39   2.0000      -0.616381       -16.7726
  40   2.0000      -0.599477       -16.3126
  41   2.0000      -0.570767       -15.5313
  42   2.0000      -0.566109       -15.4046
  43   2.0000      -0.564486       -15.3605
  44   2.0000      -0.542831       -14.7712
  45   2.0000      -0.523664       -14.2496
  46   2.0000      -0.516214       -14.0469
  47   2.0000      -0.514423       -13.9982
  48   2.0000      -0.506477       -13.7819
  49   2.0000      -0.499983       -13.6052
  50   2.0000      -0.486794       -13.2463
  51   2.0000      -0.479227       -13.0404
  52   2.0000      -0.466746       -12.7008
  53   2.0000      -0.463759       -12.6195
  54   2.0000      -0.460785       -12.5386
  55   2.0000      -0.455586       -12.3971
  56   2.0000      -0.448884       -12.2148
  57   2.0000      -0.442752       -12.0479
  58   2.0000      -0.426675       -11.6104
  59   2.0000      -0.419352       -11.4111
  60   2.0000      -0.416019       -11.3204
  61   2.0000      -0.410925       -11.1818
  62   2.0000      -0.407973       -11.1015
  63   2.0000      -0.344125        -9.3641
  64   2.0000      -0.336247        -9.1497
  65   2.0000      -0.319834        -8.7031
  66   2.0000      -0.296018        -8.0551
  67   0.0000       0.029501         0.8028
  68   0.0000       0.062213         1.6929
  69   0.0000       0.103413         2.8140
  70   0.0000       0.122462         3.3324
  71   0.0000       0.133586         3.6351

MULLIKEN ATOMIC CHARGES
-----------------------
   0 S :    0.104525
   1 C :   -0.092465
   2 C :   -0.091545
   3 C :    0.024691
   4 C :   -0.156113
   5 H :    0.050243
   6 C :    0.012714
   7 H :    0.010571
   8 H :    0.039248
   9 C :   -0.078884
  10 H :    0.034356
  11 H :    0.022262
  12 C :   -0.001832
  13 H :    0.034984
  14 H :    0.007503
  15 H :    0.017340
  16 S :    0.117585
  17 C :   -0.084513
  18 C :    0.002132
  19 C :   -0.061507
  20 C :   -0.177144
  21 H :    0.001499
  22 C :    0.141294
  23 H :    0.039865
  24 H :    0.020610
  25 C :   -0.142064
  26 H :    0.018927
  27 H :    0.024333
  28 C :    0.018926
  29 H :    0.019125
  30 H :    0.026464
  31 H :    0.004032
  32 H :    0.049834
  33 H :    0.043004
Sum of atomic charges:    0.0000000

LOEWDIN ATOMIC CHARGES
----------------------
   0 S :    0.392359
   1 C :   -0.203704
   2 C :   -0.064015
   3 C :   -0.059455
   4 C :   -0.185499
   5 H :    0.049466
   6 C :   -0.040760
   7 H :    0.027475
   8 H :    0.033494
   9 C :   -0.049951
  10 H :    0.032579
  11 H :    0.017999
  12 C :   -0.061206
  13 H :    0.025233
  14 H :    0.016077
  15 H :    0.026488
  16 S :    0.390458
  17 C :   -0.167182
  18 C :   -0.060495
  19 C :   -0.049191
  20 C :   -0.187223
  21 H :    0.023030
  22 C :   -0.029844
  23 H :    0.035854
  24 H :    0.031137
  25 C :   -0.042690
  26 H :    0.018339
  27 H :    0.025732
  28 C :   -0.048801
  29 H :    0.017846
  30 H :    0.029048
  31 H :    0.011669
  32 H :    0.029776
  33 H :    0.015957

  Mayer bond orders larger than 0.100000
B(  0-S ,  1-C ) :   1.1294 B(  0-S ,  4-C ) :   1.1358 B(  1-C ,  2-C ) :   1.6475
B(  1-C , 32-H ) :   0.9627 B(  2-C ,  3-C ) :   1.2141 B(  2-C ,  6-C ) :   1.0238
B(  3-C ,  4-C ) :   1.6049 B(  3-C ,  5-H ) :   0.9815 B(  4-C , 20-C ) :   1.0379
B(  6-C ,  7-H ) :   0.9431 B(  6-C ,  8-H ) :   0.9413 B(  6-C ,  9-C ) :   1.0587
B(  9-C , 10-H ) :   0.9536 B(  9-C , 11-H ) :   0.9526 B(  9-C , 12-C ) :   1.0902
B( 12-C , 13-H ) :   0.9742 B( 12-C , 14-H ) :   0.9693 B( 12-C , 15-H ) :   0.9704
B( 16-S , 17-C ) :   1.1751 B( 16-S , 20-C ) :   1.1294 B( 17-C , 18-C ) :   1.6012
B( 17-C , 20-C ) :   0.1040 B( 17-C , 33-H ) :   0.9645 B( 18-C , 19-C ) :   1.2410
B( 18-C , 21-H ) :   0.9937 B( 19-C , 20-C ) :   1.5912 B( 19-C , 22-C ) :   1.0441
B( 22-C , 23-H ) :   0.9315 B( 22-C , 24-H ) :   0.9199 B( 22-C , 25-C ) :   1.0889
B( 25-C , 26-H ) :   0.9493 B( 25-C , 27-H ) :   0.9553 B( 25-C , 28-C ) :   1.0714
B( 28-C , 29-H ) :   0.9728 B( 28-C , 30-H ) :   0.9748 B( 28-C , 31-H ) :   0.9719

Dispersion correction           -0.013912148
FINAL SINGLE POINT ENERGY     -1339.849613875839

DIPOLE MOMENT
-------------
                                X             Y             Z
Electronic contribution:      0.29804     -20.74996       1.13734
Nuclear contribution   :     -0.09429      21.27650      -1.33124
                        -----------------------------------------
Total Dipole Moment    :      0.20374       0.52654      -0.19390
                        -----------------------------------------
Magnitude (a.u.)       :      0.59695
Magnitude (Debye)      :      1.51733

Rotational constants in cm-1:     0.021185     0.007087     0.006612
Rotational constants in MHz :   635.121577   212.454673   198.236049

                             ****ORCA TERMINATED NORMALLY****
TOTAL RUN TIME: 0 days 0 hours 0 minutes 31 seconds 49 msec
