                         Program Version 4.2.1 -  RELEASE  -
|  1> ! wB97X-D3 SP def2-SVP
|  2> %pal
|  3> nprocs 16
|  4> end
|  5>
|  6> * xyz 0 1
|  7> S 	 3.3655 	 -12.3677 	 67.1112
|  8> C 	 2.26265 	 -11.2268 	 66.4568
|  9> C 	 2.71127 	 -9.96077 	 66.5396
| 10> C 	 4.02839 	 -9.93376 	 67.0319
| 11> C 	 4.58759 	 -11.1611 	 67.3425
| 12> H 	 4.63383 	 -9.07438 	 67.3527
| 13> C 	 1.84648 	 -8.72166 	 66.1926
| 14> H 	 2.2492 	 -7.78247 	 66.4548
| 15> H 	 0.881485 	 -8.88337 	 66.6875
| 16> C 	 1.46988 	 -8.63923 	 64.7273
| 17> H 	 0.852523 	 -9.49477 	 64.4663
| 18> H 	 0.896598 	 -7.7792 	 64.6401
| 19> C 	 2.7701 	 -8.42854 	 63.9413
| 20> H 	 2.58754 	 -8.75454 	 62.9099
| 21> H 	 3.05164 	 -7.43344 	 63.8891
| 22> H 	 3.59111 	 -8.95627 	 64.3798
| 23> S 	 7.25423 	 -10.6145 	 66.9809
| 24> C 	 8.43313 	 -11.4495 	 67.9578
| 25> C 	 7.85897 	 -12.3544 	 68.8452
| 26> C 	 6.40668 	 -12.3187 	 68.7578
| 27> C 	 5.94921 	 -11.372 	 67.827
| 28> H 	 8.37367 	 -13.091 	 69.318
| 29> C 	 5.65627 	 -13.3625 	 69.5893
| 30> H 	 4.67366 	 -12.9803 	 69.6957
| 31> H 	 6.05311 	 -13.5016 	 70.6546
| 32> C 	 5.39088 	 -14.6931 	 68.8807
| 33> H 	 4.70735 	 -14.5881 	 68.0906
| 34> H 	 4.80486 	 -15.2878 	 69.5988
| 35> C 	 6.65559 	 -15.6206 	 68.5402
| 36> H 	 7.16372 	 -15.2132 	 67.6725
| 37> H 	 6.16194 	 -16.5598 	 68.3218
| 38> H 	 7.43929 	 -15.7596 	 69.3825
| 39> H 	 1.32629 	 -11.4947 	 66.1352
| 40> H 	 9.51588 	 -11.4712 	 67.6826
| 41> *
| 42>
| 43>                          ****END OF INPUT****

CARTESIAN COORDINATES (ANGSTROEM)
---------------------------------
  S      3.365500  -12.367700   67.111200
  C      2.262650  -11.226800   66.456800
  C      2.711270   -9.960770   66.539600
  C      4.028390   -9.933760   67.031900
  C      4.587590  -11.161100   67.342500
  H      4.633830   -9.074380   67.352700
  C      1.846480   -8.721660   66.192600
  H      2.249200   -7.782470   66.454800
  H      0.881485   -8.883370   66.687500
  C      1.469880   -8.639230   64.727300
  H      0.852523   -9.494770   64.466300
  H      0.896598   -7.779200   64.640100
  C      2.770100   -8.428540   63.941300
  H      2.587540   -8.754540   62.909900
  H      3.051640   -7.433440   63.889100
  H      3.591110   -8.956270   64.379800
  S      7.254230  -10.614500   66.980900
  C      8.433130  -11.449500   67.957800
  C      7.858970  -12.354400   68.845200
  C      6.406680  -12.318700   68.757800
  C      5.949210  -11.372000   67.827000
  H      8.373670  -13.091000   69.318000
  C      5.656270  -13.362500   69.589300
  H      4.673660  -12.980300   69.695700
  H      6.053110  -13.501600   70.654600
  C      5.390880  -14.693100   68.880700
  H      4.707350  -14.588100   68.090600
  H      4.804860  -15.287800   69.598800
  C      6.655590  -15.620600   68.540200
  H      7.163720  -15.213200   67.672500
  H      6.161940  -16.559800   68.321800
  H      7.439290  -15.759600   69.382500
  H      1.326290  -11.494700   66.135200
  H      9.515880  -11.471200   67.682600

 Total Charge           Charge          ....    0
 Multiplicity           Mult            ....    1
 Number of Electrons    NEL             ....  134
 Basis Dimension        Dim             ....  322

ORBITAL ENERGIES
----------------

  NO   OCC          E(Eh)            E(eV)
   0   2.0000     -88.969683     -2420.9882
   1   2.0000     -88.968032     -2420.9432
   2   2.0000     -10.328386      -281.0497
   3   2.0000     -10.327045      -281.0132
   4   2.0000     -10.321020      -280.8492
   5   2.0000     -10.305238      -280.4198
   6   2.0000     -10.302613      -280.3484
   7   2.0000     -10.297413      -280.2068
   8   2.0000     -10.292799      -280.0813
   9   2.0000     -10.289537      -279.9925
  10   2.0000     -10.289524      -279.9922
  11   2.0000     -10.287600      -279.9398
  12   2.0000     -10.285964      -279.8953
  13   2.0000     -10.285278      -279.8766
  14   2.0000     -10.276316      -279.6328
  15   2.0000     -10.263391      -279.2811
  16   2.0000      -8.084584      -219.9927
  17   2.0000      -8.083053      -219.9511
  18   2.0000      -6.043166      -164.4429
  19   2.0000      -6.041508      -164.3978
  20   2.0000      -6.039041      -164.3307
  21   2.0000      -6.037475      -164.2881
  22   2.0000      -6.035295      -164.2287
  23   2.0000      -6.033932      -164.1916
  24   2.0000      -1.012929       -27.5632
  25   2.0000      -0.988657       -26.9027
  26   2.0000      -0.918416       -24.9914
  27   2.0000      -0.903597       -24.5881
  28   2.0000      -0.872449       -23.7406
  29   2.0000      -0.848475       -23.0882
  30   2.0000      -0.840953       -22.8835
  31   2.0000      -0.814206       -22.1557
  32   2.0000      -0.785861       -21.3844
  33   2.0000      -0.775755       -21.1094
  34   2.0000      -0.706858       -19.2346
  35   2.0000      -0.704390       -19.1674
  36   2.0000      -0.686273       -18.6745
  37   2.0000      -0.670740       -18.2518
  38   2.0000      -0.644353       -17.5338
  39   2.0000      -0.608121       -16.5478
  40   2.0000      -0.595481       -16.2039
  41   2.0000      -0.583396       -15.8750
  42   2.0000      -0.555092       -15.1048
  43   2.0000      -0.547994       -14.9117
  44   2.0000      -0.543780       -14.7970
  45   2.0000      -0.540286       -14.7019
  46   2.0000      -0.519552       -14.1377
  47   2.0000      -0.511484       -13.9182
  48   2.0000      -0.505120       -13.7450
  49   2.0000      -0.491126       -13.3642
  50   2.0000      -0.488277       -13.2867
  51   2.0000      -0.477793       -13.0014
  52   2.0000      -0.475321       -12.9341
  53   2.0000      -0.469553       -12.7772
  54   2.0000      -0.466656       -12.6984
  55   2.0000      -0.449375       -12.2281
  56   2.0000      -0.441599       -12.0165
  57   2.0000      -0.437733       -11.9113
  58   2.0000      -0.431581       -11.7439
  59   2.0000      -0.426695       -11.6110
  60   2.0000      -0.419993       -11.4286
  61   2.0000      -0.412890       -11.2353
  62   2.0000      -0.404341       -11.0027
  63   2.0000      -0.353753        -9.6261
  64   2.0000      -0.333996        -9.0885
  65   2.0000      -0.329623        -8.9695
  66   2.0000      -0.288461        -7.8494
  67   0.0000       0.028866         0.7855
  68   0.0000       0.073082         1.9887
  69   0.0000       0.106413         2.8956
  70   0.0000       0.114922         3.1272
  71   0.0000       0.137490         3.7413

MULLIKEN ATOMIC CHARGES
-----------------------
   0 S :    0.102115
   1 C :   -0.094737
   2 C :   -0.052636
   3 C :   -0.026737
   4 C :   -0.134507
   5 H :    0.018948
   6 C :    0.082199
   7 H :    0.010133
   8 H :    0.028200
   9 C :   -0.049887
  10 H :    0.027259
  11 H :    0.012916
  12 C :   -0.022717
  13 H :    0.030537
  14 H :    0.009922
  15 H :    0.035535
  16 S :    0.121187
  17 C :   -0.109615
  18 C :    0.016833
  19 C :   -0.077159
  20 C :   -0.138651
  21 H :   -0.016237
  22 C :    0.059946
  23 H :    0.006339
  24 H :    0.048279
  25 C :   -0.069557
  26 H :    0.021823
  27 H :    0.023240
  28 C :   -0.082326
  29 H :    0.048303
  30 H :    0.040091
  31 H :    0.045536
  32 H :    0.008517
  33 H :    0.076906
Sum of atomic charges:   -0.0000000

LOEWDIN ATOMIC CHARGES
----------------------
   0 S :    0.438217
   1 C :   -0.189471
   2 C :   -0.063446
   3 C :   -0.078350
   4 C :   -0.198391
   5 H :    0.032297
   6 C :   -0.019145
   7 H :    0.021756
   8 H :    0.032860
   9 C :   -0.031545
  10 H :    0.019855
  11 H :    0.016267
  12 C :   -0.056707
  13 H :    0.028952
  14 H :    0.016021
  15 H :    0.024308
  16 S :    0.427449
  17 C :   -0.194683
  18 C :   -0.054288
  19 C :   -0.051840
  20 C :   -0.209654
  21 H :    0.013782
  22 C :   -0.041355
  23 H :    0.020691
  24 H :    0.042219
  25 C :   -0.036255
  26 H :    0.007141
  27 H :    0.026354
  28 C :   -0.073475
  29 H :    0.023202
  30 H :    0.027165
  31 H :    0.032694
  32 H :    0.009095
  33 H :    0.038280

  Mayer bond orders larger than 0.100000
B(  0-S ,  1-C ) :   1.1541 B(  0-S ,  4-C ) :   1.1500 B(  1-C ,  2-C ) :   1.5951
B(  1-C , 32-H ) :   0.9794 B(  2-C ,  3-C ) :   1.2501 B(  2-C ,  6-C ) :   1.0126
B(  3-C ,  4-C ) :   1.5474 B(  3-C ,  5-H ) :   0.9967 B(  4-C , 20-C ) :   1.0554
B(  6-C ,  7-H ) :   0.9490 B(  6-C ,  8-H ) :   0.9374 B(  6-C ,  9-C ) :   1.0890
B(  9-C , 10-H ) :   0.9604 B(  9-C , 11-H ) :   0.9539 B(  9-C , 12-C ) :   1.0644
B( 12-C , 13-H ) :   0.9728 B( 12-C , 14-H ) :   0.9725 B( 12-C , 15-H ) :   0.9807
B( 16-S , 17-C ) :   1.1603 B( 16-S , 20-C ) :   1.1484 B( 17-C , 18-C ) :   1.5922
B( 17-C , 33-H ) :   0.9590 B( 18-C , 19-C ) :   1.2515 B( 18-C , 21-H ) :   1.0005
B( 19-C , 20-C ) :   1.5696 B( 19-C , 22-C ) :   1.0471 B( 22-C , 23-H ) :   0.9164
B( 22-C , 24-H ) :   0.9427 B( 22-C , 25-C ) :   1.0856 B( 25-C , 26-H ) :   0.9500
B( 25-C , 27-H ) :   0.9551 B( 25-C , 28-C ) :   1.0596 B( 28-C , 29-H ) :   0.9769
B( 28-C , 30-H ) :   0.9761 B( 28-C , 31-H ) :   0.9757

Dispersion correction           -0.014935785
FINAL SINGLE POINT ENERGY     -1339.861352813127

DIPOLE MOMENT
-------------
                                X             Y             Z
Electronic contribution:      7.52141       2.35943       2.79564
Nuclear contribution   :     -7.75266      -2.41986      -2.77857
                        -----------------------------------------
Total Dipole Moment    :     -0.23125      -0.06043       0.01707
                        -----------------------------------------
Magnitude (a.u.)       :      0.23962
Magnitude (Debye)      :      0.60907

Rotational constants in cm-1:     0.025036     0.008080     0.006587
Rotational constants in MHz :   750.566833   242.224981   197.459442

                             ****ORCA TERMINATED NORMALLY****
TOTAL RUN TIME: 0 days 0 hours 0 minutes 30 seconds 7 msec
