                         Program Version 4.2.1 -  RELEASE  -
|  1> ! wB97X-D3 SP def2-SVP
|  2> %pal
|  3> nprocs 16
|  4> end
|  5>
|  6> * xyz 0 1
|  7> S 	 11.8879 	 -7.60125 	 91.1901
|  8> C 	 13.6529 	 -7.82326 	 91.1208
|  9> C 	 14.3433 	 -6.90955 	 90.3375
| 10> C 	 13.4767 	 -5.88781 	 89.9118
| 11> C 	 12.129 	 -6.12922 	 90.2293
| 12> H 	 13.7537 	 -5.06135 	 89.2253
| 13> C 	 15.7567 	 -6.93282 	 89.9969
| 14> H 	 15.7337 	 -7.0537 	 88.9357
| 15> H 	 16.134 	 -7.98762 	 90.2624
| 16> C 	 16.5604 	 -5.81881 	 90.5535
| 17> H 	 17.6479 	 -5.89655 	 90.1605
| 18> H 	 16.1342 	 -4.77727 	 90.3968
| 19> C 	 16.6966 	 -6.04092 	 92.0949
| 20> H 	 16.9794 	 -7.04705 	 92.3648
| 21> H 	 17.411 	 -5.29136 	 92.463
| 22> H 	 15.7785 	 -5.77564 	 92.6034
| 23> S 	 9.71581 	 -6.51177 	 88.9256
| 24> C 	 8.86354 	 -5.07687 	 88.3363
| 25> C 	 9.41935 	 -3.89697 	 88.8227
| 26> C 	 10.5988 	 -4.15638 	 89.5844
| 27> C 	 10.9882 	 -5.48554 	 89.5842
| 28> H 	 8.98347 	 -2.94712 	 88.5587
| 29> C 	 11.3606 	 -3.08341 	 90.2497
| 30> H 	 11.8666 	 -3.41579 	 91.093
| 31> H 	 10.6379 	 -2.36058 	 90.6009
| 32> C 	 12.3588 	 -2.25002 	 89.4631
| 33> H 	 11.8192 	 -1.7806 	 88.7111
| 34> H 	 13.121 	 -2.89059 	 88.9959
| 35> C 	 13.1918 	 -1.30555 	 90.3325
| 36> H 	 13.7574 	 -0.532282 	 89.7133
| 37> H 	 13.9219 	 -1.7126 	 91.017
| 38> H 	 12.533 	 -0.766819 	 91.098
| 39> H 	 14.0921 	 -8.68917 	 91.604
| 40> H 	 7.90488 	 -5.13261 	 87.7967
| 41> *
| 42>
| 43>                          ****END OF INPUT****

CARTESIAN COORDINATES (ANGSTROEM)
---------------------------------
  S     11.887900   -7.601250   91.190100
  C     13.652900   -7.823260   91.120800
  C     14.343300   -6.909550   90.337500
  C     13.476700   -5.887810   89.911800
  C     12.129000   -6.129220   90.229300
  H     13.753700   -5.061350   89.225300
  C     15.756700   -6.932820   89.996900
  H     15.733700   -7.053700   88.935700
  H     16.134000   -7.987620   90.262400
  C     16.560400   -5.818810   90.553500
  H     17.647900   -5.896550   90.160500
  H     16.134200   -4.777270   90.396800
  C     16.696600   -6.040920   92.094900
  H     16.979400   -7.047050   92.364800
  H     17.411000   -5.291360   92.463000
  H     15.778500   -5.775640   92.603400
  S      9.715810   -6.511770   88.925600
  C      8.863540   -5.076870   88.336300
  C      9.419350   -3.896970   88.822700
  C     10.598800   -4.156380   89.584400
  C     10.988200   -5.485540   89.584200
  H      8.983470   -2.947120   88.558700
  C     11.360600   -3.083410   90.249700
  H     11.866600   -3.415790   91.093000
  H     10.637900   -2.360580   90.600900
  C     12.358800   -2.250020   89.463100
  H     11.819200   -1.780600   88.711100
  H     13.121000   -2.890590   88.995900
  C     13.191800   -1.305550   90.332500
  H     13.757400   -0.532282   89.713300
  H     13.921900   -1.712600   91.017000
  H     12.533000   -0.766819   91.098000
  H     14.092100   -8.689170   91.604000
  H      7.904880   -5.132610   87.796700

 Total Charge           Charge          ....    0
 Multiplicity           Mult            ....    1
 Number of Electrons    NEL             ....  134
 Basis Dimension        Dim             ....  322

ORBITAL ENERGIES
----------------

  NO   OCC          E(Eh)            E(eV)
   0   2.0000     -88.970215     -2421.0026
   1   2.0000     -88.964789     -2420.8550
   2   2.0000     -10.332376      -281.1583
   3   2.0000     -10.323711      -280.9225
   4   2.0000     -10.320344      -280.8308
   5   2.0000     -10.315151      -280.6895
   6   2.0000     -10.301698      -280.3235
   7   2.0000     -10.298362      -280.2327
   8   2.0000     -10.298176      -280.2276
   9   2.0000     -10.297611      -280.2122
  10   2.0000     -10.295626      -280.1582
  11   2.0000     -10.291765      -280.0532
  12   2.0000     -10.287942      -279.9491
  13   2.0000     -10.282027      -279.7882
  14   2.0000     -10.276807      -279.6461
  15   2.0000     -10.276177      -279.6290
  16   2.0000      -8.084077      -219.9789
  17   2.0000      -8.079102      -219.8435
  18   2.0000      -6.042444      -164.4233
  19   2.0000      -6.038956      -164.3283
  20   2.0000      -6.037628      -164.2922
  21   2.0000      -6.034794      -164.2151
  22   2.0000      -6.033776      -164.1874
  23   2.0000      -6.029761      -164.0781
  24   2.0000      -1.003838       -27.3158
  25   2.0000      -0.981857       -26.7177
  26   2.0000      -0.922565       -25.1043
  27   2.0000      -0.914358       -24.8809
  28   2.0000      -0.864625       -23.5276
  29   2.0000      -0.852180       -23.1890
  30   2.0000      -0.846820       -23.0432
  31   2.0000      -0.811839       -22.0913
  32   2.0000      -0.783888       -21.3307
  33   2.0000      -0.770023       -20.9534
  34   2.0000      -0.708898       -19.2901
  35   2.0000      -0.700547       -19.0629
  36   2.0000      -0.692905       -18.8549
  37   2.0000      -0.662221       -18.0199
  38   2.0000      -0.638041       -17.3620
  39   2.0000      -0.622863       -16.9490
  40   2.0000      -0.599897       -16.3240
  41   2.0000      -0.571659       -15.5556
  42   2.0000      -0.567615       -15.4456
  43   2.0000      -0.557857       -15.1801
  44   2.0000      -0.538816       -14.6619
  45   2.0000      -0.522555       -14.2195
  46   2.0000      -0.519380       -14.1331
  47   2.0000      -0.508871       -13.8471
  48   2.0000      -0.502255       -13.6671
  49   2.0000      -0.491167       -13.3653
  50   2.0000      -0.485889       -13.2217
  51   2.0000      -0.476261       -12.9597
  52   2.0000      -0.468741       -12.7551
  53   2.0000      -0.466331       -12.6895
  54   2.0000      -0.456045       -12.4096
  55   2.0000      -0.453436       -12.3386
  56   2.0000      -0.446121       -12.1396
  57   2.0000      -0.442089       -12.0299
  58   2.0000      -0.434363       -11.8196
  59   2.0000      -0.430537       -11.7155
  60   2.0000      -0.422278       -11.4908
  61   2.0000      -0.413824       -11.2607
  62   2.0000      -0.408291       -11.1102
  63   2.0000      -0.345904        -9.4125
  64   2.0000      -0.334226        -9.0948
  65   2.0000      -0.329528        -8.9669
  66   2.0000      -0.285187        -7.7603
  67   0.0000       0.026023         0.7081
  68   0.0000       0.063216         1.7202
  69   0.0000       0.103399         2.8136
  70   0.0000       0.119802         3.2600
  71   0.0000       0.123700         3.3660

MULLIKEN ATOMIC CHARGES
-----------------------
   0 S :    0.106537
   1 C :   -0.131774
   2 C :   -0.084711
   3 C :    0.000678
   4 C :   -0.147586
   5 H :    0.027260
   6 C :    0.082069
   7 H :    0.030803
   8 H :    0.021474
   9 C :   -0.100569
  10 H :    0.048645
  11 H :    0.053118
  12 C :   -0.051176
  13 H :    0.028954
  14 H :    0.031306
  15 H :    0.039117
  16 S :    0.095863
  17 C :   -0.110332
  18 C :   -0.017619
  19 C :   -0.036424
  20 C :   -0.142631
  21 H :    0.017911
  22 C :    0.085850
  23 H :    0.003432
  24 H :    0.011274
  25 C :   -0.011112
  26 H :    0.008541
  27 H :    0.017323
  28 C :   -0.090436
  29 H :    0.047761
  30 H :    0.031456
  31 H :    0.025422
  32 H :    0.042548
  33 H :    0.067027
Sum of atomic charges:   -0.0000000

LOEWDIN ATOMIC CHARGES
----------------------
   0 S :    0.383497
   1 C :   -0.187199
   2 C :   -0.063156
   3 C :   -0.060180
   4 C :   -0.180609
   5 H :    0.036175
   6 C :   -0.045402
   7 H :    0.032854
   8 H :    0.039833
   9 C :   -0.045526
  10 H :    0.035830
  11 H :    0.034491
  12 C :   -0.062540
  13 H :    0.020801
  14 H :    0.026601
  15 H :    0.024815
  16 S :    0.387660
  17 C :   -0.180756
  18 C :   -0.066253
  19 C :   -0.058019
  20 C :   -0.193193
  21 H :    0.031936
  22 C :   -0.031020
  23 H :    0.020597
  24 H :    0.031882
  25 C :   -0.031257
  26 H :    0.014022
  27 H :    0.021532
  28 C :   -0.076663
  29 H :    0.035265
  30 H :    0.022378
  31 H :    0.027378
  32 H :    0.021250
  33 H :    0.032978

  Mayer bond orders larger than 0.100000
B(  0-S ,  1-C ) :   1.1259 B(  0-S ,  4-C ) :   1.1477 B(  1-C ,  2-C ) :   1.6048
B(  1-C , 32-H ) :   0.9654 B(  2-C ,  3-C ) :   1.2480 B(  2-C ,  6-C ) :   1.0203
B(  3-C ,  4-C ) :   1.5634 B(  3-C ,  5-H ) :   0.9781 B(  4-C , 20-C ) :   1.0613
B(  6-C ,  7-H ) :   0.9243 B(  6-C ,  8-H ) :   0.9363 B(  6-C ,  9-C ) :   1.0651
B(  9-C , 10-H ) :   0.9544 B(  9-C , 11-H ) :   0.9550 B(  9-C , 12-C ) :   1.0653
B( 12-C , 13-H ) :   0.9765 B( 12-C , 14-H ) :   0.9745 B( 12-C , 15-H ) :   0.9757
B( 16-S , 17-C ) :   1.1519 B( 16-S , 20-C ) :   1.1220 B( 17-C , 18-C ) :   1.6087
B( 17-C , 33-H ) :   0.9637 B( 18-C , 19-C ) :   1.2274 B( 18-C , 21-H ) :   0.9951
B( 19-C , 20-C ) :   1.5925 B( 19-C , 22-C ) :   1.0739 B( 22-C , 23-H ) :   0.9212
B( 22-C , 24-H ) :   0.9191 B( 22-C , 25-C ) :   1.0726 B( 25-C , 26-H ) :   0.9519
B( 25-C , 27-H ) :   0.9491 B( 25-C , 28-C ) :   1.0738 B( 28-C , 29-H ) :   0.9740
B( 28-C , 30-H ) :   0.9747 B( 28-C , 31-H ) :   0.9721

Dispersion correction           -0.014764965
FINAL SINGLE POINT ENERGY     -1339.871092402278

DIPOLE MOMENT
-------------
                                X             Y             Z
Electronic contribution:    -23.64022     -18.71955      -4.21600
Nuclear contribution   :     24.06956      19.09581       4.12371
                        -----------------------------------------
Total Dipole Moment    :      0.42934       0.37625      -0.09229
                        -----------------------------------------
Magnitude (a.u.)       :      0.57829
Magnitude (Debye)      :      1.46989

Rotational constants in cm-1:     0.017878     0.009910     0.006960
Rotational constants in MHz :   535.966099   297.094364   208.642365

                             ****ORCA TERMINATED NORMALLY****
TOTAL RUN TIME: 0 days 0 hours 0 minutes 35 seconds 218 msec
