                         Program Version 4.2.1 -  RELEASE  -
|  1> ! wB97X-D3 SP def2-SVP
|  2> %pal
|  3> nprocs 16
|  4> end
|  5>
|  6> * xyz 0 1
|  7> S 	 7.0406 	 -10.9148 	 71.5867
|  8> C 	 5.47463 	 -10.166 	 71.8589
|  9> C 	 4.87466 	 -10.0109 	 70.604
| 10> C 	 5.65553 	 -10.5204 	 69.5039
| 11> C 	 6.80895 	 -11.1424 	 69.8826
| 12> H 	 5.45051 	 -10.4384 	 68.4616
| 13> C 	 3.62749 	 -9.17648 	 70.3603
| 14> H 	 3.45185 	 -8.51143 	 71.1773
| 15> H 	 2.80075 	 -9.8445 	 70.3173
| 16> C 	 3.61829 	 -8.251 	 69.091
| 17> H 	 3.58238 	 -8.83794 	 68.1368
| 18> H 	 2.69065 	 -7.61387 	 69.1894
| 19> C 	 4.78086 	 -7.2045 	 68.8954
| 20> H 	 5.70608 	 -7.70066 	 68.9903
| 21> H 	 4.78429 	 -6.48028 	 67.9818
| 22> H 	 4.66131 	 -6.4501 	 69.6565
| 23> S 	 9.29278 	 -11.0493 	 68.5302
| 24> C 	 9.46977 	 -12.2326 	 67.1575
| 25> C 	 8.50351 	 -13.2197 	 67.2136
| 26> C 	 7.49014 	 -12.9409 	 68.2035
| 27> C 	 7.71966 	 -11.7926 	 68.9696
| 28> H 	 8.49008 	 -13.9878 	 66.4885
| 29> C 	 6.3432 	 -13.9369 	 68.3716
| 30> H 	 5.95005 	 -13.6005 	 69.2638
| 31> H 	 6.69796 	 -14.9577 	 68.5473
| 32> C 	 5.09909 	 -13.6804 	 67.4936
| 33> H 	 4.84659 	 -12.6379 	 67.5981
| 34> H 	 4.19542 	 -14.264 	 67.8361
| 35> C 	 5.45286 	 -13.8327 	 66.029
| 36> H 	 6.23925 	 -13.1265 	 65.7803
| 37> H 	 4.51606 	 -13.6906 	 65.4255
| 38> H 	 5.75568 	 -14.8487 	 65.8
| 39> H 	 5.06086 	 -9.7402 	 72.7899
| 40> H 	 10.3391 	 -12.4094 	 66.5742
| 41> *
| 42>
| 43>                          ****END OF INPUT****

CARTESIAN COORDINATES (ANGSTROEM)
---------------------------------
  S      7.040600  -10.914800   71.586700
  C      5.474630  -10.166000   71.858900
  C      4.874660  -10.010900   70.604000
  C      5.655530  -10.520400   69.503900
  C      6.808950  -11.142400   69.882600
  H      5.450510  -10.438400   68.461600
  C      3.627490   -9.176480   70.360300
  H      3.451850   -8.511430   71.177300
  H      2.800750   -9.844500   70.317300
  C      3.618290   -8.251000   69.091000
  H      3.582380   -8.837940   68.136800
  H      2.690650   -7.613870   69.189400
  C      4.780860   -7.204500   68.895400
  H      5.706080   -7.700660   68.990300
  H      4.784290   -6.480280   67.981800
  H      4.661310   -6.450100   69.656500
  S      9.292780  -11.049300   68.530200
  C      9.469770  -12.232600   67.157500
  C      8.503510  -13.219700   67.213600
  C      7.490140  -12.940900   68.203500
  C      7.719660  -11.792600   68.969600
  H      8.490080  -13.987800   66.488500
  C      6.343200  -13.936900   68.371600
  H      5.950050  -13.600500   69.263800
  H      6.697960  -14.957700   68.547300
  C      5.099090  -13.680400   67.493600
  H      4.846590  -12.637900   67.598100
  H      4.195420  -14.264000   67.836100
  C      5.452860  -13.832700   66.029000
  H      6.239250  -13.126500   65.780300
  H      4.516060  -13.690600   65.425500
  H      5.755680  -14.848700   65.800000
  H      5.060860   -9.740200   72.789900
  H     10.339100  -12.409400   66.574200

 Total Charge           Charge          ....    0
 Multiplicity           Mult            ....    1
 Number of Electrons    NEL             ....  134
 Basis Dimension        Dim             ....  322

ORBITAL ENERGIES
----------------

  NO   OCC          E(Eh)            E(eV)
   0   2.0000     -88.968719     -2420.9619
   1   2.0000     -88.967168     -2420.9197
   2   2.0000     -10.333579      -281.1910
   3   2.0000     -10.328675      -281.0575
   4   2.0000     -10.322980      -280.9026
   5   2.0000     -10.322766      -280.8968
   6   2.0000     -10.308999      -280.5221
   7   2.0000     -10.306112      -280.4436
   8   2.0000     -10.300223      -280.2833
   9   2.0000     -10.295171      -280.1458
  10   2.0000     -10.293887      -280.1109
  11   2.0000     -10.293117      -280.0900
  12   2.0000     -10.287093      -279.9260
  13   2.0000     -10.281912      -279.7851
  14   2.0000     -10.280017      -279.7335
  15   2.0000     -10.273488      -279.5558
  16   2.0000      -8.081891      -219.9194
  17   2.0000      -8.081631      -219.9124
  18   2.0000      -6.040466      -164.3694
  19   2.0000      -6.040357      -164.3665
  20   2.0000      -6.036526      -164.2622
  21   2.0000      -6.036255      -164.2549
  22   2.0000      -6.032683      -164.1577
  23   2.0000      -6.032126      -164.1425
  24   2.0000      -1.006235       -27.3810
  25   2.0000      -0.978226       -26.6189
  26   2.0000      -0.909424       -24.7467
  27   2.0000      -0.905424       -24.6378
  28   2.0000      -0.872596       -23.7445
  29   2.0000      -0.843488       -22.9525
  30   2.0000      -0.839836       -22.8531
  31   2.0000      -0.821229       -22.3468
  32   2.0000      -0.785527       -21.3753
  33   2.0000      -0.772966       -21.0335
  34   2.0000      -0.712681       -19.3930
  35   2.0000      -0.693550       -18.8725
  36   2.0000      -0.686104       -18.6698
  37   2.0000      -0.662150       -18.0180
  38   2.0000      -0.644034       -17.5251
  39   2.0000      -0.622849       -16.9486
  40   2.0000      -0.590590       -16.0708
  41   2.0000      -0.570549       -15.5254
  42   2.0000      -0.552888       -15.0448
  43   2.0000      -0.552527       -15.0350
  44   2.0000      -0.544091       -14.8055
  45   2.0000      -0.539930       -14.6922
  46   2.0000      -0.519385       -14.1332
  47   2.0000      -0.517241       -14.0749
  48   2.0000      -0.507469       -13.8089
  49   2.0000      -0.495496       -13.4831
  50   2.0000      -0.489929       -13.3316
  51   2.0000      -0.478581       -13.0229
  52   2.0000      -0.469205       -12.7677
  53   2.0000      -0.466009       -12.6808
  54   2.0000      -0.461803       -12.5663
  55   2.0000      -0.448130       -12.1942
  56   2.0000      -0.441839       -12.0231
  57   2.0000      -0.435873       -11.8607
  58   2.0000      -0.429699       -11.6927
  59   2.0000      -0.418770       -11.3953
  60   2.0000      -0.417213       -11.3530
  61   2.0000      -0.407305       -11.0833
  62   2.0000      -0.404598       -11.0097
  63   2.0000      -0.342339        -9.3155
  64   2.0000      -0.329619        -8.9694
  65   2.0000      -0.327314        -8.9067
  66   2.0000      -0.306509        -8.3405
  67   0.0000       0.030366         0.8263
  68   0.0000       0.055447         1.5088
  69   0.0000       0.104305         2.8383
  70   0.0000       0.118024         3.2116
  71   0.0000       0.128445         3.4952

MULLIKEN ATOMIC CHARGES
-----------------------
   0 S :    0.112878
   1 C :   -0.121911
   2 C :   -0.116700
   3 C :    0.045016
   4 C :   -0.175591
   5 H :    0.016516
   6 C :    0.119513
   7 H :    0.011561
   8 H :    0.036568
   9 C :   -0.138253
  10 H :    0.043595
  11 H :    0.040703
  12 C :   -0.066822
  13 H :    0.041871
  14 H :    0.047998
  15 H :    0.018115
  16 S :    0.095030
  17 C :   -0.078675
  18 C :   -0.015038
  19 C :   -0.084130
  20 C :   -0.147903
  21 H :    0.013925
  22 C :    0.117321
  23 H :   -0.001846
  24 H :    0.044883
  25 C :   -0.064557
  26 H :    0.008143
  27 H :    0.042451
  28 C :   -0.063946
  29 H :    0.048266
  30 H :    0.034851
  31 H :    0.020466
  32 H :    0.064371
  33 H :    0.051329
Sum of atomic charges:    0.0000000

LOEWDIN ATOMIC CHARGES
----------------------
   0 S :    0.412885
   1 C :   -0.201040
   2 C :   -0.065509
   3 C :   -0.057670
   4 C :   -0.205118
   5 H :    0.028014
   6 C :   -0.026725
   7 H :    0.025630
   8 H :    0.032817
   9 C :   -0.045753
  10 H :    0.022959
  11 H :    0.031914
  12 C :   -0.076145
  13 H :    0.017735
  14 H :    0.041315
  15 H :    0.019597
  16 S :    0.360087
  17 C :   -0.157606
  18 C :   -0.061664
  19 C :   -0.043311
  20 C :   -0.188999
  21 H :    0.026712
  22 C :   -0.032419
  23 H :    0.023587
  24 H :    0.035518
  25 C :   -0.035177
  26 H :    0.020223
  27 H :    0.030749
  28 C :   -0.071647
  29 H :    0.026340
  30 H :    0.029127
  31 H :    0.017652
  32 H :    0.040659
  33 H :    0.025263

  Mayer bond orders larger than 0.100000
B(  0-S ,  1-C ) :   1.1389 B(  0-S ,  4-C ) :   1.1514 B(  1-C ,  2-C ) :   1.6005
B(  1-C , 32-H ) :   0.9687 B(  2-C ,  3-C ) :   1.2378 B(  2-C ,  6-C ) :   1.0153
B(  3-C ,  4-C ) :   1.5753 B(  3-C ,  5-H ) :   0.9906 B(  4-C , 20-C ) :   1.0326
B(  6-C ,  7-H ) :   0.9464 B(  6-C ,  8-H ) :   0.9304 B(  6-C ,  9-C ) :   1.0701
B(  9-C , 10-H ) :   0.9554 B(  9-C , 11-H ) :   0.9609 B(  9-C , 12-C ) :   1.0595
B( 12-C , 13-H ) :   0.9774 B( 12-C , 14-H ) :   0.9760 B( 12-C , 15-H ) :   0.9759
B( 16-S , 17-C ) :   1.1320 B( 16-S , 20-C ) :   1.1129 B( 17-C , 18-C ) :   1.6473
B( 17-C , 33-H ) :   0.9628 B( 18-C , 19-C ) :   1.2083 B( 18-C , 21-H ) :   0.9899
B( 19-C , 20-C ) :   1.6318 B( 19-C , 22-C ) :   1.0272 B( 22-C , 23-H ) :   0.9096
B( 22-C , 24-H ) :   0.9496 B( 22-C , 25-C ) :   1.0626 B( 25-C , 26-H ) :   0.9478
B( 25-C , 27-H ) :   0.9556 B( 25-C , 28-C ) :   1.0873 B( 28-C , 29-H ) :   0.9680
B( 28-C , 30-H ) :   0.9721 B( 28-C , 31-H ) :   0.9749

Dispersion correction           -0.015564934
FINAL SINGLE POINT ENERGY     -1339.855492803983

DIPOLE MOMENT
-------------
                                X             Y             Z
Electronic contribution:     20.78434      -2.28799      12.92783
Nuclear contribution   :    -21.32873       2.24444     -13.14531
                        -----------------------------------------
Total Dipole Moment    :     -0.54439      -0.04355      -0.21748
                        -----------------------------------------
Magnitude (a.u.)       :      0.58784
Magnitude (Debye)      :      1.49418

Rotational constants in cm-1:     0.017665     0.009319     0.008094
Rotational constants in MHz :   529.594745   279.376679   242.656822

                             ****ORCA TERMINATED NORMALLY****
TOTAL RUN TIME: 0 days 0 hours 0 minutes 31 seconds 412 msec
