                         Program Version 4.2.1 -  RELEASE  -
|  1> ! wB97X-D3 SP def2-SVP
|  2> %pal
|  3> nprocs 16
|  4> end
|  5>
|  6> * xyz 0 1
|  7> S 	 49.7149 	 13.8017 	 80.6399
|  8> C 	 51.0341 	 14.3912 	 81.7325
|  9> C 	 51.7628 	 15.4271 	 81.1656
| 10> C 	 51.1299 	 15.7639 	 79.9096
| 11> C 	 49.8831 	 15.1539 	 79.6065
| 12> H 	 51.3391 	 16.5846 	 79.2252
| 13> C 	 52.8347 	 16.3516 	 81.7288
| 14> H 	 53.4404 	 15.7086 	 82.378
| 15> H 	 52.425 	 17.254 	 82.2688
| 16> C 	 53.9019 	 16.8513 	 80.7262
| 17> H 	 54.4859 	 16.037 	 80.1825
| 18> H 	 53.4483 	 17.3631 	 79.8444
| 19> C 	 54.8744 	 17.9176 	 81.2978
| 20> H 	 55.669 	 17.4838 	 81.9122
| 21> H 	 55.38 	 18.6559 	 80.6477
| 22> H 	 54.3347 	 18.5123 	 82.0273
| 23> S 	 49.0494 	 14.5101 	 77.0267
| 24> C 	 47.6132 	 15.2382 	 76.3652
| 25> C 	 47.2504 	 16.3361 	 77.1476
| 26> C 	 48.022 	 16.4832 	 78.3686
| 27> C 	 48.9558 	 15.4658 	 78.542
| 28> H 	 46.4297 	 16.9782 	 76.9356
| 29> C 	 47.7261 	 17.6345 	 79.3488
| 30> H 	 47.965 	 17.3976 	 80.3823
| 31> H 	 46.7162 	 17.9342 	 79.2843
| 32> C 	 48.4021 	 18.9556 	 79.2303
| 33> H 	 48.2224 	 19.374 	 78.1658
| 34> H 	 49.4822 	 18.8708 	 79.2928
| 35> C 	 47.8817 	 20.0277 	 80.2662
| 36> H 	 46.7848 	 19.8522 	 80.292
| 37> H 	 48.1711 	 21.0638 	 80.0875
| 38> H 	 48.2941 	 19.7756 	 81.2562
| 39> H 	 51.109 	 14.0396 	 82.7438
| 40> H 	 47.0477 	 14.8579 	 75.5955
| 41> *
| 42>
| 43>                          ****END OF INPUT****

CARTESIAN COORDINATES (ANGSTROEM)
---------------------------------
  S     49.714900   13.801700   80.639900
  C     51.034100   14.391200   81.732500
  C     51.762800   15.427100   81.165600
  C     51.129900   15.763900   79.909600
  C     49.883100   15.153900   79.606500
  H     51.339100   16.584600   79.225200
  C     52.834700   16.351600   81.728800
  H     53.440400   15.708600   82.378000
  H     52.425000   17.254000   82.268800
  C     53.901900   16.851300   80.726200
  H     54.485900   16.037000   80.182500
  H     53.448300   17.363100   79.844400
  C     54.874400   17.917600   81.297800
  H     55.669000   17.483800   81.912200
  H     55.380000   18.655900   80.647700
  H     54.334700   18.512300   82.027300
  S     49.049400   14.510100   77.026700
  C     47.613200   15.238200   76.365200
  C     47.250400   16.336100   77.147600
  C     48.022000   16.483200   78.368600
  C     48.955800   15.465800   78.542000
  H     46.429700   16.978200   76.935600
  C     47.726100   17.634500   79.348800
  H     47.965000   17.397600   80.382300
  H     46.716200   17.934200   79.284300
  C     48.402100   18.955600   79.230300
  H     48.222400   19.374000   78.165800
  H     49.482200   18.870800   79.292800
  C     47.881700   20.027700   80.266200
  H     46.784800   19.852200   80.292000
  H     48.171100   21.063800   80.087500
  H     48.294100   19.775600   81.256200
  H     51.109000   14.039600   82.743800
  H     47.047700   14.857900   75.595500

 Total Charge           Charge          ....    0
 Multiplicity           Mult            ....    1
 Number of Electrons    NEL             ....  134
 Basis Dimension        Dim             ....  322

ORBITAL ENERGIES
----------------

  NO   OCC          E(Eh)            E(eV)
   0   2.0000     -88.966258     -2420.8950
   1   2.0000     -88.963650     -2420.8240
   2   2.0000     -10.331824      -281.1432
   3   2.0000     -10.329542      -281.0811
   4   2.0000     -10.323447      -280.9153
   5   2.0000     -10.317641      -280.7573
   6   2.0000     -10.313192      -280.6362
   7   2.0000     -10.312703      -280.6229
   8   2.0000     -10.308440      -280.5069
   9   2.0000     -10.299283      -280.2577
  10   2.0000     -10.298227      -280.2290
  11   2.0000     -10.297203      -280.2011
  12   2.0000     -10.290066      -280.0069
  13   2.0000     -10.287750      -279.9439
  14   2.0000     -10.287194      -279.9288
  15   2.0000     -10.282983      -279.8142
  16   2.0000      -8.080880      -219.8919
  17   2.0000      -8.078164      -219.8180
  18   2.0000      -6.039332      -164.3386
  19   2.0000      -6.036762      -164.2686
  20   2.0000      -6.035411      -164.2319
  21   2.0000      -6.032679      -164.1575
  22   2.0000      -6.031662      -164.1299
  23   2.0000      -6.028842      -164.0531
  24   2.0000      -1.002559       -27.2810
  25   2.0000      -0.979988       -26.6668
  26   2.0000      -0.912668       -24.8349
  27   2.0000      -0.911194       -24.7948
  28   2.0000      -0.870449       -23.6861
  29   2.0000      -0.846374       -23.0310
  30   2.0000      -0.841564       -22.9001
  31   2.0000      -0.807656       -21.9774
  32   2.0000      -0.785234       -21.3673
  33   2.0000      -0.777631       -21.1604
  34   2.0000      -0.710545       -19.3349
  35   2.0000      -0.696902       -18.9637
  36   2.0000      -0.688993       -18.7484
  37   2.0000      -0.666373       -18.1329
  38   2.0000      -0.646296       -17.5866
  39   2.0000      -0.614211       -16.7135
  40   2.0000      -0.603258       -16.4155
  41   2.0000      -0.573947       -15.6179
  42   2.0000      -0.570954       -15.5365
  43   2.0000      -0.563201       -15.3255
  44   2.0000      -0.526936       -14.3386
  45   2.0000      -0.520806       -14.1719
  46   2.0000      -0.517128       -14.0718
  47   2.0000      -0.509339       -13.8598
  48   2.0000      -0.503658       -13.7052
  49   2.0000      -0.499747       -13.5988
  50   2.0000      -0.493909       -13.4400
  51   2.0000      -0.476287       -12.9604
  52   2.0000      -0.471715       -12.8360
  53   2.0000      -0.461178       -12.5493
  54   2.0000      -0.459465       -12.5027
  55   2.0000      -0.457600       -12.4519
  56   2.0000      -0.449884       -12.2420
  57   2.0000      -0.433303       -11.7908
  58   2.0000      -0.432250       -11.7621
  59   2.0000      -0.425019       -11.5654
  60   2.0000      -0.417598       -11.3634
  61   2.0000      -0.408274       -11.1097
  62   2.0000      -0.407099       -11.0777
  63   2.0000      -0.335016        -9.1163
  64   2.0000      -0.328302        -8.9336
  65   2.0000      -0.321596        -8.7511
  66   2.0000      -0.309179        -8.4132
  67   0.0000       0.030290         0.8242
  68   0.0000       0.046729         1.2715
  69   0.0000       0.108197         2.9442
  70   0.0000       0.114865         3.1256
  71   0.0000       0.121217         3.2985

MULLIKEN ATOMIC CHARGES
-----------------------
   0 S :    0.116846
   1 C :   -0.137352
   2 C :   -0.036145
   3 C :    0.031458
   4 C :   -0.200030
   5 H :    0.017342
   6 C :    0.070118
   7 H :    0.032572
   8 H :    0.065485
   9 C :   -0.134469
  10 H :    0.046430
  11 H :    0.035567
  12 C :   -0.051199
  13 H :    0.027719
  14 H :    0.045259
  15 H :    0.012789
  16 S :    0.101102
  17 C :   -0.055261
  18 C :   -0.022772
  19 C :    0.008768
  20 C :   -0.180992
  21 H :    0.009961
  22 C :    0.089303
  23 H :    0.024483
  24 H :    0.001297
  25 C :   -0.107549
  26 H :    0.025055
  27 H :    0.023385
  28 C :   -0.059520
  29 H :    0.034018
  30 H :    0.048392
  31 H :    0.032258
  32 H :    0.048024
  33 H :    0.037656
Sum of atomic charges:    0.0000000

LOEWDIN ATOMIC CHARGES
----------------------
   0 S :    0.405129
   1 C :   -0.169144
   2 C :   -0.064136
   3 C :   -0.058459
   4 C :   -0.218452
   5 H :    0.027042
   6 C :   -0.031828
   7 H :    0.035515
   8 H :    0.044650
   9 C :   -0.052935
  10 H :    0.033568
  11 H :    0.023750
  12 C :   -0.074536
  13 H :    0.023784
  14 H :    0.032405
  15 H :    0.021471
  16 S :    0.392139
  17 C :   -0.169340
  18 C :   -0.064297
  19 C :   -0.042051
  20 C :   -0.193189
  21 H :    0.025116
  22 C :   -0.034190
  23 H :    0.033969
  24 H :    0.023019
  25 C :   -0.044199
  26 H :    0.022756
  27 H :    0.014716
  28 C :   -0.065885
  29 H :    0.027719
  30 H :    0.029524
  31 H :    0.025579
  32 H :    0.024445
  33 H :    0.016347

  Mayer bond orders larger than 0.100000
B(  0-S ,  1-C ) :   1.1455 B(  0-S ,  4-C ) :   1.1516 B(  1-C ,  2-C ) :   1.6061
B(  1-C ,  4-C ) :   0.1028 B(  1-C , 32-H ) :   0.9759 B(  2-C ,  3-C ) :   1.2125
B(  2-C ,  6-C ) :   1.0192 B(  3-C ,  4-C ) :   1.5903 B(  3-C ,  5-H ) :   0.9862
B(  4-C , 20-C ) :   1.0397 B(  6-C ,  7-H ) :   0.9405 B(  6-C ,  8-H ) :   0.9391
B(  6-C ,  9-C ) :   1.0558 B(  9-C , 10-H ) :   0.9591 B(  9-C , 11-H ) :   0.9541
B(  9-C , 12-C ) :   1.0660 B( 12-C , 13-H ) :   0.9758 B( 12-C , 14-H ) :   0.9782
B( 12-C , 15-H ) :   0.9719 B( 16-S , 17-C ) :   1.1571 B( 16-S , 20-C ) :   1.1306
B( 17-C , 18-C ) :   1.5908 B( 17-C , 20-C ) :   0.1016 B( 17-C , 33-H ) :   0.9805
B( 18-C , 19-C ) :   1.2412 B( 18-C , 21-H ) :   0.9909 B( 19-C , 20-C ) :   1.6085
B( 19-C , 22-C ) :   1.0476 B( 22-C , 23-H ) :   0.9352 B( 22-C , 24-H ) :   0.9279
B( 22-C , 25-C ) :   1.0647 B( 25-C , 26-H ) :   0.9536 B( 25-C , 27-H ) :   0.9539
B( 25-C , 28-C ) :   1.0664 B( 28-C , 29-H ) :   0.9751 B( 28-C , 30-H ) :   0.9755
B( 28-C , 31-H ) :   0.9753

Dispersion correction           -0.013626011
FINAL SINGLE POINT ENERGY     -1339.849850869120

DIPOLE MOMENT
-------------
                                X             Y             Z
Electronic contribution:    -10.95930     -26.81619     -10.68558
Nuclear contribution   :     11.02374      27.48709      10.97449
                        -----------------------------------------
Total Dipole Moment    :      0.06444       0.67090       0.28891
                        -----------------------------------------
Magnitude (a.u.)       :      0.73330
Magnitude (Debye)      :      1.86389

Rotational constants in cm-1:     0.015761     0.008679     0.006866
Rotational constants in MHz :   472.515487   260.194869   205.822843

                             ****ORCA TERMINATED NORMALLY****
TOTAL RUN TIME: 0 days 0 hours 0 minutes 29 seconds 98 msec
