                         Program Version 4.2.1 -  RELEASE  -
|  1> ! wB97X-D3 SP def2-SVP
|  2> %pal
|  3> nprocs 16
|  4> end
|  5>
|  6> * xyz 0 1
|  7> S 	 -0.442785 	 23.2225 	 31.7701
|  8> C 	 -1.81539 	 24.1974 	 31.3417
|  9> C 	 -2.49713 	 24.5624 	 32.462
| 10> C 	 -2.18354 	 23.7773 	 33.6102
| 11> C 	 -1.02554 	 23.0945 	 33.3853
| 12> H 	 -2.69251 	 23.8097 	 34.5658
| 13> C 	 -3.79302 	 25.4072 	 32.3643
| 14> H 	 -4.28033 	 25.1202 	 33.2975
| 15> H 	 -4.47089 	 25.0909 	 31.629
| 16> C 	 -3.66528 	 26.8918 	 32.626
| 17> H 	 -3.11584 	 27.0144 	 33.5811
| 18> H 	 -2.99097 	 27.2306 	 31.8262
| 19> C 	 -5.07715 	 27.6129 	 32.7601
| 20> H 	 -5.90752 	 27.0729 	 33.1694
| 21> H 	 -5.05138 	 28.4135 	 33.5203
| 22> H 	 -5.40202 	 28.1074 	 31.8642
| 23> S 	 1.30063 	 23.0522 	 34.8087
| 24> C 	 1.40965 	 21.9869 	 36.1798
| 25> C 	 0.372719 	 21.1328 	 36.2262
| 26> C 	 -0.602667 	 21.3212 	 35.2329
| 27> C 	 -0.305917 	 22.3706 	 34.3792
| 28> H 	 0.438485 	 20.3534 	 36.9662
| 29> C 	 -1.85291 	 20.4373 	 35.208
| 30> H 	 -2.3186 	 20.592 	 34.253
| 31> H 	 -2.53072 	 20.7808 	 35.91
| 32> C 	 -1.70878 	 18.9082 	 35.468
| 33> H 	 -2.64212 	 18.4201 	 35.4162
| 34> H 	 -1.30409 	 18.7485 	 36.446
| 35> C 	 -0.792869 	 18.1324 	 34.4902
| 36> H 	 -1.32642 	 18.1502 	 33.474
| 37> H 	 -0.513615 	 17.1094 	 34.8544
| 38> H 	 0.0865964 	 18.7582 	 34.3538
| 39> H 	 -2.13548 	 24.5658 	 30.3716
| 40> H 	 2.35119 	 21.7088 	 36.7147
| 41> *
| 42>
| 43>                          ****END OF INPUT****

CARTESIAN COORDINATES (ANGSTROEM)
---------------------------------
  S     -0.442785   23.222500   31.770100
  C     -1.815390   24.197400   31.341700
  C     -2.497130   24.562400   32.462000
  C     -2.183540   23.777300   33.610200
  C     -1.025540   23.094500   33.385300
  H     -2.692510   23.809700   34.565800
  C     -3.793020   25.407200   32.364300
  H     -4.280330   25.120200   33.297500
  H     -4.470890   25.090900   31.629000
  C     -3.665280   26.891800   32.626000
  H     -3.115840   27.014400   33.581100
  H     -2.990970   27.230600   31.826200
  C     -5.077150   27.612900   32.760100
  H     -5.907520   27.072900   33.169400
  H     -5.051380   28.413500   33.520300
  H     -5.402020   28.107400   31.864200
  S      1.300630   23.052200   34.808700
  C      1.409650   21.986900   36.179800
  C      0.372719   21.132800   36.226200
  C     -0.602667   21.321200   35.232900
  C     -0.305917   22.370600   34.379200
  H      0.438485   20.353400   36.966200
  C     -1.852910   20.437300   35.208000
  H     -2.318600   20.592000   34.253000
  H     -2.530720   20.780800   35.910000
  C     -1.708780   18.908200   35.468000
  H     -2.642120   18.420100   35.416200
  H     -1.304090   18.748500   36.446000
  C     -0.792869   18.132400   34.490200
  H     -1.326420   18.150200   33.474000
  H     -0.513615   17.109400   34.854400
  H      0.086596   18.758200   34.353800
  H     -2.135480   24.565800   30.371600
  H      2.351190   21.708800   36.714700

 Total Charge           Charge          ....    0
 Multiplicity           Mult            ....    1
 Number of Electrons    NEL             ....  134
 Basis Dimension        Dim             ....  322

ORBITAL ENERGIES
----------------

  NO   OCC          E(Eh)            E(eV)
   0   2.0000     -88.969179     -2420.9744
   1   2.0000     -88.960704     -2420.7438
   2   2.0000     -10.326142      -280.9886
   3   2.0000     -10.323731      -280.9230
   4   2.0000     -10.312188      -280.6089
   5   2.0000     -10.311798      -280.5983
   6   2.0000     -10.303162      -280.3633
   7   2.0000     -10.298222      -280.2289
   8   2.0000     -10.294956      -280.1400
   9   2.0000     -10.293227      -280.0929
  10   2.0000     -10.285984      -279.8959
  11   2.0000     -10.284914      -279.8667
  12   2.0000     -10.283170      -279.8193
  13   2.0000     -10.281671      -279.7785
  14   2.0000     -10.281174      -279.7650
  15   2.0000     -10.281071      -279.7622
  16   2.0000      -8.084622      -219.9937
  17   2.0000      -8.075362      -219.7418
  18   2.0000      -6.043087      -164.4407
  19   2.0000      -6.039082      -164.3318
  20   2.0000      -6.035315      -164.2293
  21   2.0000      -6.033904      -164.1909
  22   2.0000      -6.029923      -164.0825
  23   2.0000      -6.026038      -163.9768
  24   2.0000      -1.015186       -27.6246
  25   2.0000      -0.989196       -26.9174
  26   2.0000      -0.910905       -24.7870
  27   2.0000      -0.905189       -24.6314
  28   2.0000      -0.875021       -23.8105
  29   2.0000      -0.851107       -23.1598
  30   2.0000      -0.843970       -22.9656
  31   2.0000      -0.816484       -22.2177
  32   2.0000      -0.786019       -21.3887
  33   2.0000      -0.775113       -21.0919
  34   2.0000      -0.710991       -19.3470
  35   2.0000      -0.702978       -19.1290
  36   2.0000      -0.693028       -18.8582
  37   2.0000      -0.656299       -17.8588
  38   2.0000      -0.642737       -17.4898
  39   2.0000      -0.621413       -16.9095
  40   2.0000      -0.594946       -16.1893
  41   2.0000      -0.570177       -15.5153
  42   2.0000      -0.560128       -15.2419
  43   2.0000      -0.553832       -15.0705
  44   2.0000      -0.541210       -14.7271
  45   2.0000      -0.523346       -14.2410
  46   2.0000      -0.517075       -14.0703
  47   2.0000      -0.510080       -13.8800
  48   2.0000      -0.506129       -13.7725
  49   2.0000      -0.502375       -13.6703
  50   2.0000      -0.493861       -13.4386
  51   2.0000      -0.479278       -13.0418
  52   2.0000      -0.476580       -12.9684
  53   2.0000      -0.463101       -12.6016
  54   2.0000      -0.456541       -12.4231
  55   2.0000      -0.453642       -12.3442
  56   2.0000      -0.441056       -12.0017
  57   2.0000      -0.433991       -11.8095
  58   2.0000      -0.433751       -11.8030
  59   2.0000      -0.419209       -11.4073
  60   2.0000      -0.417905       -11.3718
  61   2.0000      -0.416498       -11.3335
  62   2.0000      -0.406934       -11.0732
  63   2.0000      -0.344792        -9.3823
  64   2.0000      -0.334601        -9.1049
  65   2.0000      -0.330372        -8.9899
  66   2.0000      -0.298674        -8.1273
  67   0.0000       0.035565         0.9678
  68   0.0000       0.062269         1.6944
  69   0.0000       0.116590         3.1726
  70   0.0000       0.123307         3.3554
  71   0.0000       0.130936         3.5630

MULLIKEN ATOMIC CHARGES
-----------------------
   0 S :    0.132647
   1 C :   -0.104338
   2 C :   -0.092777
   3 C :    0.040282
   4 C :   -0.158639
   5 H :    0.022871
   6 C :    0.042079
   7 H :   -0.000313
   8 H :    0.028496
   9 C :   -0.061316
  10 H :    0.035372
  11 H :    0.031986
  12 C :   -0.044046
  13 H :    0.024180
  14 H :    0.024121
  15 H :    0.036826
  16 S :    0.091769
  17 C :   -0.092955
  18 C :   -0.057234
  19 C :   -0.022049
  20 C :   -0.178980
  21 H :    0.012997
  22 C :    0.123146
  23 H :    0.015598
  24 H :    0.021334
  25 C :   -0.072126
  26 H :    0.023875
  27 H :    0.018895
  28 C :   -0.083941
  29 H :    0.037871
  30 H :    0.050098
  31 H :    0.036540
  32 H :    0.045981
  33 H :    0.071751
Sum of atomic charges:   -0.0000000

LOEWDIN ATOMIC CHARGES
----------------------
   0 S :    0.426701
   1 C :   -0.196899
   2 C :   -0.063477
   3 C :   -0.052258
   4 C :   -0.209054
   5 H :    0.036879
   6 C :   -0.036844
   7 H :    0.027654
   8 H :    0.021525
   9 C :   -0.036939
  10 H :    0.029201
  11 H :    0.023174
  12 C :   -0.072017
  13 H :    0.024117
  14 H :    0.030707
  15 H :    0.025186
  16 S :    0.383662
  17 C :   -0.195599
  18 C :   -0.077974
  19 C :   -0.056616
  20 C :   -0.181423
  21 H :    0.030173
  22 C :   -0.020574
  23 H :    0.027717
  24 H :    0.025652
  25 C :   -0.036343
  26 H :    0.020699
  27 H :    0.015460
  28 C :   -0.072805
  29 H :    0.032248
  30 H :    0.031192
  31 H :    0.022846
  32 H :    0.031979
  33 H :    0.042050

  Mayer bond orders larger than 0.100000
B(  0-S ,  1-C ) :   1.1282 B(  0-S ,  4-C ) :   1.1560 B(  1-C ,  2-C ) :   1.6237
B(  1-C , 32-H ) :   0.9717 B(  2-C ,  3-C ) :   1.2390 B(  2-C ,  6-C ) :   1.0108
B(  3-C ,  4-C ) :   1.5786 B(  3-C ,  5-H ) :   0.9927 B(  4-C , 20-C ) :   1.0320
B(  6-C ,  7-H ) :   0.9413 B(  6-C ,  8-H ) :   0.9596 B(  6-C ,  9-C ) :   1.0421
B(  9-C , 10-H ) :   0.9622 B(  9-C , 11-H ) :   0.9642 B(  9-C , 12-C ) :   1.0518
B( 12-C , 13-H ) :   0.9771 B( 12-C , 14-H ) :   0.9778 B( 12-C , 15-H ) :   0.9794
B( 16-S , 17-C ) :   1.1455 B( 16-S , 20-C ) :   1.1308 B( 17-C , 18-C ) :   1.6518
B( 17-C , 20-C ) :   0.1016 B( 17-C , 33-H ) :   0.9501 B( 18-C , 19-C ) :   1.2189
B( 18-C , 21-H ) :   0.9898 B( 19-C , 20-C ) :   1.6162 B( 19-C , 22-C ) :   1.0315
B( 22-C , 23-H ) :   0.9325 B( 22-C , 24-H ) :   0.9284 B( 22-C , 25-C ) :   1.0780
B( 25-C , 26-H ) :   0.9558 B( 25-C , 27-H ) :   0.9531 B( 25-C , 28-C ) :   1.0720
B( 28-C , 29-H ) :   0.9751 B( 28-C , 30-H ) :   0.9741 B( 28-C , 31-H ) :   0.9774

Dispersion correction           -0.013844580
FINAL SINGLE POINT ENERGY     -1339.855542826865

DIPOLE MOMENT
-------------
                                X             Y             Z
Electronic contribution:     20.38152       1.30337      -3.28426
Nuclear contribution   :    -21.00393      -1.42111       3.50378
                        -----------------------------------------
Total Dipole Moment    :     -0.62240      -0.11773       0.21952
                        -----------------------------------------
Magnitude (a.u.)       :      0.67040
Magnitude (Debye)      :      1.70403

Rotational constants in cm-1:     0.021891     0.006909     0.006444
Rotational constants in MHz :   656.280921   207.113162   193.193044

                             ****ORCA TERMINATED NORMALLY****
TOTAL RUN TIME: 0 days 0 hours 0 minutes 34 seconds 12 msec
