                         Program Version 4.2.1 -  RELEASE  -
|  1> ! wB97X-D3 SP def2-SVP
|  2> %pal
|  3> nprocs 16
|  4> end
|  5>
|  6> * xyz 0 1
|  7> S 	 -5.63067 	 19.5225 	 53.2624
|  8> C 	 -4.79601 	 18.6568 	 52.0389
|  9> C 	 -3.59675 	 18.1172 	 52.5408
| 10> C 	 -3.37937 	 18.5245 	 53.9503
| 11> C 	 -4.39062 	 19.3361 	 54.4576
| 12> H 	 -2.53802 	 18.2211 	 54.6111
| 13> C 	 -2.61325 	 17.2193 	 51.8699
| 14> H 	 -2.95651 	 17.0936 	 50.8453
| 15> H 	 -2.59997 	 16.2634 	 52.4511
| 16> C 	 -1.30038 	 17.8993 	 51.6727
| 17> H 	 -1.48228 	 18.7475 	 50.9784
| 18> H 	 -0.914525 	 18.2192 	 52.6569
| 19> C 	 -0.294588 	 16.9811 	 50.8733
| 20> H 	 -0.69182 	 16.6533 	 49.9579
| 21> H 	 0.596634 	 17.4923 	 50.7059
| 22> H 	 -0.133922 	 16.0558 	 51.2678
| 23> S 	 -4.91951 	 18.5084 	 57.0681
| 24> C 	 -5.02205 	 19.6178 	 58.3713
| 25> C 	 -4.69202 	 20.8633 	 57.9579
| 26> C 	 -4.44672 	 20.917 	 56.516
| 27> C 	 -4.54745 	 19.7196 	 55.8471
| 28> H 	 -4.66912 	 21.6875 	 58.6699
| 29> C 	 -3.79127 	 22.1426 	 55.9312
| 30> H 	 -4.63344 	 22.8969 	 55.9404
| 31> H 	 -3.65987 	 21.9822 	 54.9111
| 32> C 	 -2.566 	 22.8683 	 56.6542
| 33> H 	 -2.72674 	 23.0012 	 57.7108
| 34> H 	 -2.4861 	 23.9273 	 56.3274
| 35> C 	 -1.29547 	 22.2043 	 56.4648
| 36> H 	 -1.25002 	 21.255 	 56.8338
| 37> H 	 -0.583559 	 22.859 	 56.9075
| 38> H 	 -1.04668 	 22.0788 	 55.3695
| 39> H 	 -5.07605 	 18.4887 	 51.0286
| 40> H 	 -5.05858 	 19.393 	 59.4279
| 41> *
| 42>
| 43>                          ****END OF INPUT****

CARTESIAN COORDINATES (ANGSTROEM)
---------------------------------
  S     -5.630670   19.522500   53.262400
  C     -4.796010   18.656800   52.038900
  C     -3.596750   18.117200   52.540800
  C     -3.379370   18.524500   53.950300
  C     -4.390620   19.336100   54.457600
  H     -2.538020   18.221100   54.611100
  C     -2.613250   17.219300   51.869900
  H     -2.956510   17.093600   50.845300
  H     -2.599970   16.263400   52.451100
  C     -1.300380   17.899300   51.672700
  H     -1.482280   18.747500   50.978400
  H     -0.914525   18.219200   52.656900
  C     -0.294588   16.981100   50.873300
  H     -0.691820   16.653300   49.957900
  H      0.596634   17.492300   50.705900
  H     -0.133922   16.055800   51.267800
  S     -4.919510   18.508400   57.068100
  C     -5.022050   19.617800   58.371300
  C     -4.692020   20.863300   57.957900
  C     -4.446720   20.917000   56.516000
  C     -4.547450   19.719600   55.847100
  H     -4.669120   21.687500   58.669900
  C     -3.791270   22.142600   55.931200
  H     -4.633440   22.896900   55.940400
  H     -3.659870   21.982200   54.911100
  C     -2.566000   22.868300   56.654200
  H     -2.726740   23.001200   57.710800
  H     -2.486100   23.927300   56.327400
  C     -1.295470   22.204300   56.464800
  H     -1.250020   21.255000   56.833800
  H     -0.583559   22.859000   56.907500
  H     -1.046680   22.078800   55.369500
  H     -5.076050   18.488700   51.028600
  H     -5.058580   19.393000   59.427900

 Total Charge           Charge          ....    0
 Multiplicity           Mult            ....    1
 Number of Electrons    NEL             ....  134
 Basis Dimension        Dim             ....  322

ORBITAL ENERGIES
----------------

  NO   OCC          E(Eh)            E(eV)
   0   2.0000     -88.967069     -2420.9170
   1   2.0000     -88.958873     -2420.6940
   2   2.0000     -10.329691      -281.0852
   3   2.0000     -10.324487      -280.9436
   4   2.0000     -10.315002      -280.6855
   5   2.0000     -10.312891      -280.6280
   6   2.0000     -10.305500      -280.4269
   7   2.0000     -10.303483      -280.3720
   8   2.0000     -10.301683      -280.3230
   9   2.0000     -10.291656      -280.0502
  10   2.0000     -10.290982      -280.0319
  11   2.0000     -10.290611      -280.0218
  12   2.0000     -10.285933      -279.8945
  13   2.0000     -10.285397      -279.8799
  14   2.0000     -10.263528      -279.2848
  15   2.0000     -10.261604      -279.2324
  16   2.0000      -8.082313      -219.9309
  17   2.0000      -8.074384      -219.7152
  18   2.0000      -6.040884      -164.3808
  19   2.0000      -6.036529      -164.2623
  20   2.0000      -6.033176      -164.1711
  21   2.0000      -6.033032      -164.1671
  22   2.0000      -6.028646      -164.0478
  23   2.0000      -6.025056      -163.9501
  24   2.0000      -1.007959       -27.4280
  25   2.0000      -0.986837       -26.8532
  26   2.0000      -0.919951       -25.0331
  27   2.0000      -0.908734       -24.7279
  28   2.0000      -0.875627       -23.8270
  29   2.0000      -0.853456       -23.2237
  30   2.0000      -0.846208       -23.0265
  31   2.0000      -0.817656       -22.2495
  32   2.0000      -0.785345       -21.3703
  33   2.0000      -0.771808       -21.0020
  34   2.0000      -0.710062       -19.3218
  35   2.0000      -0.700737       -19.0680
  36   2.0000      -0.696103       -18.9419
  37   2.0000      -0.655581       -17.8393
  38   2.0000      -0.639797       -17.4098
  39   2.0000      -0.618673       -16.8349
  40   2.0000      -0.594390       -16.1742
  41   2.0000      -0.574606       -15.6358
  42   2.0000      -0.569894       -15.5076
  43   2.0000      -0.556337       -15.1387
  44   2.0000      -0.536146       -14.5893
  45   2.0000      -0.535419       -14.5695
  46   2.0000      -0.523427       -14.2432
  47   2.0000      -0.514589       -14.0027
  48   2.0000      -0.511003       -13.9051
  49   2.0000      -0.500479       -13.6187
  50   2.0000      -0.499358       -13.5882
  51   2.0000      -0.480967       -13.0878
  52   2.0000      -0.470970       -12.8158
  53   2.0000      -0.462396       -12.5824
  54   2.0000      -0.455710       -12.4005
  55   2.0000      -0.449313       -12.2264
  56   2.0000      -0.443523       -12.0689
  57   2.0000      -0.437404       -11.9024
  58   2.0000      -0.429227       -11.6798
  59   2.0000      -0.424196       -11.5430
  60   2.0000      -0.419921       -11.4266
  61   2.0000      -0.414563       -11.2808
  62   2.0000      -0.406165       -11.0523
  63   2.0000      -0.334669        -9.1068
  64   2.0000      -0.330016        -8.9802
  65   2.0000      -0.318179        -8.6581
  66   2.0000      -0.308688        -8.3998
  67   0.0000       0.042162         1.1473
  68   0.0000       0.063376         1.7245
  69   0.0000       0.108559         2.9540
  70   0.0000       0.120503         3.2791
  71   0.0000       0.136979         3.7274

MULLIKEN ATOMIC CHARGES
-----------------------
   0 S :    0.133851
   1 C :   -0.089164
   2 C :   -0.127907
   3 C :    0.006155
   4 C :   -0.160141
   5 H :    0.035332
   6 C :    0.075610
   7 H :    0.003599
   8 H :    0.054408
   9 C :   -0.117184
  10 H :    0.038805
  11 H :    0.037228
  12 C :    0.049324
  13 H :   -0.002858
  14 H :    0.026002
  15 H :   -0.005076
  16 S :    0.101727
  17 C :   -0.073676
  18 C :   -0.050851
  19 C :   -0.035549
  20 C :   -0.162905
  21 H :    0.024823
  22 C :    0.057954
  23 H :    0.028962
  24 H :    0.005993
  25 C :   -0.059284
  26 H :    0.013036
  27 H :    0.026483
  28 C :    0.008730
  29 H :    0.014407
  30 H :    0.023444
  31 H :    0.024886
  32 H :    0.034795
  33 H :    0.059041
Sum of atomic charges:    0.0000000

LOEWDIN ATOMIC CHARGES
----------------------
   0 S :    0.435631
   1 C :   -0.208766
   2 C :   -0.059411
   3 C :   -0.061419
   4 C :   -0.213305
   5 H :    0.037219
   6 C :   -0.041581
   7 H :    0.028229
   8 H :    0.040405
   9 C :   -0.032688
  10 H :    0.032815
  11 H :    0.022020
  12 C :   -0.052787
  13 H :    0.020678
  14 H :    0.020575
  15 H :    0.012726
  16 S :    0.409033
  17 C :   -0.190505
  18 C :   -0.077738
  19 C :   -0.053275
  20 C :   -0.209376
  21 H :    0.032199
  22 C :   -0.033245
  23 H :    0.039454
  24 H :    0.017700
  25 C :   -0.037437
  26 H :    0.019827
  27 H :    0.030375
  28 C :   -0.056893
  29 H :    0.012459
  30 H :    0.025386
  31 H :    0.030743
  32 H :    0.025632
  33 H :    0.035319

  Mayer bond orders larger than 0.100000
B(  0-S ,  1-C ) :   1.1485 B(  0-S ,  4-C ) :   1.1567 B(  1-C ,  2-C ) :   1.6003
B(  1-C , 32-H ) :   0.9709 B(  2-C ,  3-C ) :   1.2248 B(  2-C ,  6-C ) :   1.0410
B(  3-C ,  4-C ) :   1.5746 B(  3-C ,  5-H ) :   0.9852 B(  4-C , 20-C ) :   1.0366
B(  6-C ,  7-H ) :   0.9337 B(  6-C ,  8-H ) :   0.9350 B(  6-C ,  9-C ) :   1.0643
B(  9-C , 10-H ) :   0.9548 B(  9-C , 11-H ) :   0.9598 B(  9-C , 12-C ) :   1.0813
B( 12-C , 13-H ) :   0.9643 B( 12-C , 14-H ) :   0.9752 B( 12-C , 15-H ) :   0.9686
B( 16-S , 17-C ) :   1.1647 B( 16-S , 20-C ) :   1.1152 B( 17-C , 18-C ) :   1.6265
B( 17-C , 33-H ) :   0.9622 B( 18-C , 19-C ) :   1.2167 B( 18-C , 21-H ) :   0.9904
B( 19-C , 20-C ) :   1.6057 B( 19-C , 22-C ) :   1.0602 B( 22-C , 23-H ) :   0.9216
B( 22-C , 24-H ) :   0.9394 B( 22-C , 25-C ) :   1.0626 B( 25-C , 26-H ) :   0.9490
B( 25-C , 27-H ) :   0.9515 B( 25-C , 28-C ) :   1.0940 B( 28-C , 29-H ) :   0.9743
B( 28-C , 30-H ) :   0.9669 B( 28-C , 31-H ) :   0.9697

Dispersion correction           -0.014043374
FINAL SINGLE POINT ENERGY     -1339.855131473916

DIPOLE MOMENT
-------------
                                X             Y             Z
Electronic contribution:    -23.70973      -4.98010       8.41664
Nuclear contribution   :     24.27813       5.07448      -8.46621
                        -----------------------------------------
Total Dipole Moment    :      0.56840       0.09438      -0.04957
                        -----------------------------------------
Magnitude (a.u.)       :      0.57831
Magnitude (Debye)      :      1.46995

Rotational constants in cm-1:     0.018944     0.007884     0.006884
Rotational constants in MHz :   567.939741   236.364032   206.390993

                             ****ORCA TERMINATED NORMALLY****
TOTAL RUN TIME: 0 days 0 hours 0 minutes 32 seconds 812 msec
