                         Program Version 4.2.1 -  RELEASE  -
|  1> ! wB97X-D3 SP def2-SVP
|  2> %pal
|  3> nprocs 16
|  4> end
|  5>
|  6> * xyz 0 1
|  7> S 	 9.51885 	 10.2545 	 83.3404
|  8> C 	 9.70087 	 8.6653 	 82.6424
|  9> C 	 10.6024 	 7.87656 	 83.3749
| 10> C 	 10.9356 	 8.51682 	 84.6369
| 11> C 	 10.4759 	 9.80503 	 84.7729
| 12> H 	 11.5103 	 8.01715 	 85.4136
| 13> C 	 11.0917 	 6.49783 	 82.9967
| 14> H 	 11.2749 	 5.92317 	 83.9779
| 15> H 	 12.1629 	 6.57918 	 82.6162
| 16> C 	 10.274 	 5.6745 	 82.0225
| 17> H 	 9.23065 	 5.60434 	 82.3481
| 18> H 	 10.3262 	 6.21314 	 81.0982
| 19> C 	 10.7256 	 4.24463 	 81.853
| 20> H 	 10.6958 	 3.63194 	 82.777
| 21> H 	 9.99631 	 3.62545 	 81.1594
| 22> H 	 11.7801 	 4.18778 	 81.5214
| 23> S 	 10.4691 	 12.3502 	 85.4944
| 24> C 	 11.0482 	 12.8335 	 86.9735
| 25> C 	 11.0829 	 11.8176 	 87.8591
| 26> C 	 10.9076 	 10.5202 	 87.2128
| 27> C 	 10.616 	 10.701 	 85.8734
| 28> H 	 11.2314 	 12.0097 	 88.932
| 29> C 	 11.0269 	 9.24815 	 88.0302
| 30> H 	 10.8548 	 8.30921 	 87.5189
| 31> H 	 10.2403 	 9.20752 	 88.8252
| 32> C 	 12.4337 	 9.04985 	 88.6768
| 33> H 	 12.2994 	 8.26572 	 89.431
| 34> H 	 12.87 	 9.91187 	 89.2439
| 35> C 	 13.5455 	 8.87089 	 87.573
| 36> H 	 14.5148 	 8.78125 	 87.9289
| 37> H 	 13.5288 	 9.59058 	 86.8053
| 38> H 	 13.4803 	 7.92689 	 86.9961
| 39> H 	 9.35305 	 8.38707 	 81.6662
| 40> H 	 10.9354 	 13.8879 	 87.3034
| 41> *
| 42>
| 43>                          ****END OF INPUT****

CARTESIAN COORDINATES (ANGSTROEM)
---------------------------------
  S      9.518850   10.254500   83.340400
  C      9.700870    8.665300   82.642400
  C     10.602400    7.876560   83.374900
  C     10.935600    8.516820   84.636900
  C     10.475900    9.805030   84.772900
  H     11.510300    8.017150   85.413600
  C     11.091700    6.497830   82.996700
  H     11.274900    5.923170   83.977900
  H     12.162900    6.579180   82.616200
  C     10.274000    5.674500   82.022500
  H      9.230650    5.604340   82.348100
  H     10.326200    6.213140   81.098200
  C     10.725600    4.244630   81.853000
  H     10.695800    3.631940   82.777000
  H      9.996310    3.625450   81.159400
  H     11.780100    4.187780   81.521400
  S     10.469100   12.350200   85.494400
  C     11.048200   12.833500   86.973500
  C     11.082900   11.817600   87.859100
  C     10.907600   10.520200   87.212800
  C     10.616000   10.701000   85.873400
  H     11.231400   12.009700   88.932000
  C     11.026900    9.248150   88.030200
  H     10.854800    8.309210   87.518900
  H     10.240300    9.207520   88.825200
  C     12.433700    9.049850   88.676800
  H     12.299400    8.265720   89.431000
  H     12.870000    9.911870   89.243900
  C     13.545500    8.870890   87.573000
  H     14.514800    8.781250   87.928900
  H     13.528800    9.590580   86.805300
  H     13.480300    7.926890   86.996100
  H      9.353050    8.387070   81.666200
  H     10.935400   13.887900   87.303400

 Total Charge           Charge          ....    0
 Multiplicity           Mult            ....    1
 Number of Electrons    NEL             ....  134
 Basis Dimension        Dim             ....  322

ORBITAL ENERGIES
----------------

  NO   OCC          E(Eh)            E(eV)
   0   2.0000     -88.964922     -2420.8586
   1   2.0000     -88.960228     -2420.7309
   2   2.0000     -10.329644      -281.0839
   3   2.0000     -10.321911      -280.8735
   4   2.0000     -10.314074      -280.6602
   5   2.0000     -10.308704      -280.5141
   6   2.0000     -10.307153      -280.4719
   7   2.0000     -10.306232      -280.4468
   8   2.0000     -10.303158      -280.3632
   9   2.0000     -10.299435      -280.2619
  10   2.0000     -10.297104      -280.1984
  11   2.0000     -10.294466      -280.1267
  12   2.0000     -10.293956      -280.1128
  13   2.0000     -10.291741      -280.0525
  14   2.0000     -10.287155      -279.9277
  15   2.0000     -10.271316      -279.4967
  16   2.0000      -8.079293      -219.8487
  17   2.0000      -8.078463      -219.8261
  18   2.0000      -6.038018      -164.3028
  19   2.0000      -6.036782      -164.2692
  20   2.0000      -6.033931      -164.1916
  21   2.0000      -6.032591      -164.1551
  22   2.0000      -6.029781      -164.0787
  23   2.0000      -6.029087      -164.0598
  24   2.0000      -1.021453       -27.7952
  25   2.0000      -0.985400       -26.8141
  26   2.0000      -0.914924       -24.8964
  27   2.0000      -0.907583       -24.6966
  28   2.0000      -0.876025       -23.8378
  29   2.0000      -0.851526       -23.1712
  30   2.0000      -0.843276       -22.9467
  31   2.0000      -0.815525       -22.1916
  32   2.0000      -0.787318       -21.4240
  33   2.0000      -0.770056       -20.9543
  34   2.0000      -0.712016       -19.3749
  35   2.0000      -0.706949       -19.2371
  36   2.0000      -0.690989       -18.8028
  37   2.0000      -0.662607       -18.0304
  38   2.0000      -0.632754       -17.2181
  39   2.0000      -0.620997       -16.8982
  40   2.0000      -0.603053       -16.4099
  41   2.0000      -0.570385       -15.5210
  42   2.0000      -0.565000       -15.3744
  43   2.0000      -0.554705       -15.0943
  44   2.0000      -0.533919       -14.5287
  45   2.0000      -0.521377       -14.1874
  46   2.0000      -0.515162       -14.0183
  47   2.0000      -0.511653       -13.9228
  48   2.0000      -0.505936       -13.7672
  49   2.0000      -0.499848       -13.6016
  50   2.0000      -0.490098       -13.3363
  51   2.0000      -0.480868       -13.0851
  52   2.0000      -0.470542       -12.8041
  53   2.0000      -0.466397       -12.6913
  54   2.0000      -0.462401       -12.5826
  55   2.0000      -0.450073       -12.2471
  56   2.0000      -0.447556       -12.1786
  57   2.0000      -0.441119       -12.0035
  58   2.0000      -0.433053       -11.7840
  59   2.0000      -0.428559       -11.6617
  60   2.0000      -0.417352       -11.3567
  61   2.0000      -0.414057       -11.2671
  62   2.0000      -0.410483       -11.1698
  63   2.0000      -0.366081        -9.9616
  64   2.0000      -0.331958        -9.0330
  65   2.0000      -0.322086        -8.7644
  66   2.0000      -0.283777        -7.7220
  67   0.0000       0.024974         0.6796
  68   0.0000       0.080056         2.1784
  69   0.0000       0.107347         2.9211
  70   0.0000       0.114220         3.1081
  71   0.0000       0.132369         3.6019

MULLIKEN ATOMIC CHARGES
-----------------------
   0 S :    0.096745
   1 C :   -0.110752
   2 C :   -0.075728
   3 C :   -0.018093
   4 C :   -0.081614
   5 H :   -0.003680
   6 C :    0.001033
   7 H :    0.028860
   8 H :    0.047668
   9 C :   -0.051921
  10 H :    0.037292
  11 H :    0.033692
  12 C :   -0.088355
  13 H :    0.032485
  14 H :    0.050745
  15 H :    0.034974
  16 S :    0.102452
  17 C :   -0.077466
  18 C :   -0.054726
  19 C :   -0.062379
  20 C :   -0.118388
  21 H :    0.030362
  22 C :    0.050627
  23 H :    0.021600
  24 H :    0.041463
  25 C :   -0.093919
  26 H :    0.033655
  27 H :    0.040427
  28 C :   -0.030198
  29 H :    0.015983
  30 H :    0.036217
  31 H :    0.015835
  32 H :    0.043973
  33 H :    0.071133
Sum of atomic charges:    0.0000000

LOEWDIN ATOMIC CHARGES
----------------------
   0 S :    0.385043
   1 C :   -0.200154
   2 C :   -0.059053
   3 C :   -0.066130
   4 C :   -0.176400
   5 H :    0.026942
   6 C :   -0.045297
   7 H :    0.034247
   8 H :    0.041211
   9 C :   -0.049599
  10 H :    0.029984
  11 H :    0.023473
  12 C :   -0.075320
  13 H :    0.025645
  14 H :    0.040380
  15 H :    0.024974
  16 S :    0.453261
  17 C :   -0.219444
  18 C :   -0.069381
  19 C :   -0.057567
  20 C :   -0.210264
  21 H :    0.035786
  22 C :   -0.034778
  23 H :    0.028223
  24 H :    0.038858
  25 C :   -0.038470
  26 H :    0.024765
  27 H :    0.027387
  28 C :   -0.063914
  29 H :    0.017408
  30 H :    0.023898
  31 H :    0.022892
  32 H :    0.023465
  33 H :    0.037928

  Mayer bond orders larger than 0.100000
B(  0-S ,  1-C ) :   1.1250 B(  0-S ,  4-C ) :   1.1218 B(  1-C ,  2-C ) :   1.6255
B(  1-C , 32-H ) :   0.9643 B(  2-C ,  3-C ) :   1.2280 B(  2-C ,  6-C ) :   1.0245
B(  3-C ,  4-C ) :   1.5982 B(  3-C ,  5-H ) :   0.9871 B(  4-C , 20-C ) :   1.0833
B(  6-C ,  7-H ) :   0.9462 B(  6-C ,  8-H ) :   0.9231 B(  6-C ,  9-C ) :   1.0730
B(  9-C , 10-H ) :   0.9554 B(  9-C , 11-H ) :   0.9427 B(  9-C , 12-C ) :   1.0919
B( 12-C , 13-H ) :   0.9727 B( 12-C , 14-H ) :   0.9724 B( 12-C , 15-H ) :   0.9723
B( 16-S , 17-C ) :   1.1756 B( 16-S , 20-C ) :   1.1513 B( 17-C , 18-C ) :   1.6149
B( 17-C , 33-H ) :   0.9563 B( 18-C , 19-C ) :   1.2318 B( 18-C , 21-H ) :   0.9877
B( 19-C , 20-C ) :   1.5750 B( 19-C , 22-C ) :   1.0448 B( 22-C , 23-H ) :   0.9423
B( 22-C , 24-H ) :   0.9355 B( 22-C , 25-C ) :   1.0586 B( 25-C , 26-H ) :   0.9604
B( 25-C , 27-H ) :   0.9623 B( 25-C , 28-C ) :   1.0532 B( 28-C , 29-H ) :   0.9746
B( 28-C , 30-H ) :   0.9767 B( 28-C , 31-H ) :   0.9684

Dispersion correction           -0.014361374
FINAL SINGLE POINT ENERGY     -1339.874078003307

DIPOLE MOMENT
-------------
                                X             Y             Z
Electronic contribution:    -11.00973      27.28541      -3.38324
Nuclear contribution   :     11.22843     -27.79737       3.75537
                        -----------------------------------------
Total Dipole Moment    :      0.21870      -0.51196       0.37212
                        -----------------------------------------
Magnitude (a.u.)       :      0.66963
Magnitude (Debye)      :      1.70207

Rotational constants in cm-1:     0.021548     0.008051     0.006135
Rotational constants in MHz :   645.999589   241.363240   183.923208

                             ****ORCA TERMINATED NORMALLY****
TOTAL RUN TIME: 0 days 0 hours 0 minutes 35 seconds 265 msec
