                         Program Version 4.2.1 -  RELEASE  -
|  1> ! wB97X-D3 SP def2-SVP
|  2> %pal
|  3> nprocs 16
|  4> end
|  5>
|  6> * xyz 0 1
|  7> S 	 -43.9365 	 27.03 	 82.0657
|  8> C 	 -43.9952 	 25.4144 	 82.7607
|  9> C 	 -45.2405 	 24.8292 	 82.5109
| 10> C 	 -46.0832 	 25.6743 	 81.7365
| 11> C 	 -45.6453 	 26.957 	 81.6667
| 12> H 	 -47.0653 	 25.2979 	 81.3057
| 13> C 	 -45.5798 	 23.3814 	 82.6347
| 14> H 	 -46.6199 	 23.2867 	 82.9624
| 15> H 	 -45.0165 	 22.9808 	 83.4356
| 16> C 	 -45.4175 	 22.4815 	 81.4048
| 17> H 	 -46.146 	 21.6305 	 81.42
| 18> H 	 -45.6372 	 23.0099 	 80.5081
| 19> C 	 -43.8893 	 22.1559 	 81.054
| 20> H 	 -43.7899 	 21.737 	 80.0678
| 21> H 	 -43.2459 	 23.0211 	 80.9877
| 22> H 	 -43.4154 	 21.4286 	 81.7942
| 23> S 	 -47.9016 	 28.4724 	 81.4966
| 24> C 	 -47.7954 	 29.8862 	 80.4186
| 25> C 	 -46.7402 	 29.9041 	 79.5598
| 26> C 	 -45.8299 	 28.8701 	 79.8917
| 27> C 	 -46.2959 	 27.9988 	 80.9003
| 28> H 	 -46.49 	 30.7107 	 78.9498
| 29> C 	 -44.4913 	 28.6984 	 79.2112
| 30> H 	 -44.0783 	 27.7639 	 79.564
| 31> H 	 -43.7693 	 29.447 	 79.6322
| 32> C 	 -44.295 	 28.6478 	 77.6702
| 33> H 	 -44.8597 	 27.9073 	 77.1244
| 34> H 	 -43.2303 	 28.4031 	 77.6061
| 35> C 	 -44.496 	 29.9963 	 76.9044
| 36> H 	 -45.3668 	 30.4846 	 77.213
| 37> H 	 -44.4399 	 29.6884 	 75.7571
| 38> H 	 -43.6122 	 30.6328 	 77.0962
| 39> H 	 -43.255 	 24.851 	 83.2997
| 40> H 	 -48.3793 	 30.7708 	 80.4786
| 41> *
| 42>
| 43>                          ****END OF INPUT****

CARTESIAN COORDINATES (ANGSTROEM)
---------------------------------
  S    -43.936500   27.030000   82.065700
  C    -43.995200   25.414400   82.760700
  C    -45.240500   24.829200   82.510900
  C    -46.083200   25.674300   81.736500
  C    -45.645300   26.957000   81.666700
  H    -47.065300   25.297900   81.305700
  C    -45.579800   23.381400   82.634700
  H    -46.619900   23.286700   82.962400
  H    -45.016500   22.980800   83.435600
  C    -45.417500   22.481500   81.404800
  H    -46.146000   21.630500   81.420000
  H    -45.637200   23.009900   80.508100
  C    -43.889300   22.155900   81.054000
  H    -43.789900   21.737000   80.067800
  H    -43.245900   23.021100   80.987700
  H    -43.415400   21.428600   81.794200
  S    -47.901600   28.472400   81.496600
  C    -47.795400   29.886200   80.418600
  C    -46.740200   29.904100   79.559800
  C    -45.829900   28.870100   79.891700
  C    -46.295900   27.998800   80.900300
  H    -46.490000   30.710700   78.949800
  C    -44.491300   28.698400   79.211200
  H    -44.078300   27.763900   79.564000
  H    -43.769300   29.447000   79.632200
  C    -44.295000   28.647800   77.670200
  H    -44.859700   27.907300   77.124400
  H    -43.230300   28.403100   77.606100
  C    -44.496000   29.996300   76.904400
  H    -45.366800   30.484600   77.213000
  H    -44.439900   29.688400   75.757100
  H    -43.612200   30.632800   77.096200
  H    -43.255000   24.851000   83.299700
  H    -48.379300   30.770800   80.478600

 Total Charge           Charge          ....    0
 Multiplicity           Mult            ....    1
 Number of Electrons    NEL             ....  134
 Basis Dimension        Dim             ....  322

ORBITAL ENERGIES
----------------

  NO   OCC          E(Eh)            E(eV)
   0   2.0000     -88.970406     -2421.0078
   1   2.0000     -88.969543     -2420.9844
   2   2.0000     -10.326770      -281.0057
   3   2.0000     -10.326520      -280.9989
   4   2.0000     -10.316579      -280.7284
   5   2.0000     -10.315724      -280.7051
   6   2.0000     -10.303729      -280.3787
   7   2.0000     -10.297366      -280.2056
   8   2.0000     -10.293843      -280.1097
   9   2.0000     -10.292957      -280.0856
  10   2.0000     -10.290818      -280.0274
  11   2.0000     -10.288352      -279.9603
  12   2.0000     -10.288328      -279.9596
  13   2.0000     -10.286596      -279.9125
  14   2.0000     -10.285766      -279.8899
  15   2.0000     -10.282796      -279.8091
  16   2.0000      -8.084216      -219.9827
  17   2.0000      -8.083283      -219.9573
  18   2.0000      -6.042911      -164.4360
  19   2.0000      -6.041790      -164.4055
  20   2.0000      -6.038975      -164.3289
  21   2.0000      -6.038125      -164.3057
  22   2.0000      -6.034694      -164.2124
  23   2.0000      -6.033904      -164.1909
  24   2.0000      -1.007197       -27.4072
  25   2.0000      -0.982719       -26.7411
  26   2.0000      -0.910297       -24.7704
  27   2.0000      -0.902271       -24.5520
  28   2.0000      -0.870808       -23.6959
  29   2.0000      -0.849470       -23.1153
  30   2.0000      -0.841824       -22.9072
  31   2.0000      -0.816704       -22.2237
  32   2.0000      -0.783621       -21.3234
  33   2.0000      -0.771536       -20.9946
  34   2.0000      -0.711635       -19.3646
  35   2.0000      -0.701229       -19.0814
  36   2.0000      -0.688327       -18.7303
  37   2.0000      -0.669883       -18.2285
  38   2.0000      -0.631651       -17.1881
  39   2.0000      -0.622458       -16.9379
  40   2.0000      -0.595508       -16.2046
  41   2.0000      -0.569955       -15.5093
  42   2.0000      -0.550233       -14.9726
  43   2.0000      -0.543999       -14.8030
  44   2.0000      -0.539839       -14.6898
  45   2.0000      -0.529011       -14.3951
  46   2.0000      -0.521443       -14.1892
  47   2.0000      -0.515888       -14.0380
  48   2.0000      -0.506398       -13.7798
  49   2.0000      -0.493198       -13.4206
  50   2.0000      -0.482746       -13.1362
  51   2.0000      -0.478920       -13.0321
  52   2.0000      -0.472788       -12.8652
  53   2.0000      -0.461810       -12.5665
  54   2.0000      -0.454770       -12.3749
  55   2.0000      -0.451559       -12.2875
  56   2.0000      -0.448797       -12.2124
  57   2.0000      -0.439813       -11.9679
  58   2.0000      -0.431686       -11.7468
  59   2.0000      -0.427353       -11.6289
  60   2.0000      -0.418274       -11.3818
  61   2.0000      -0.409754       -11.1500
  62   2.0000      -0.408751       -11.1227
  63   2.0000      -0.352042        -9.5796
  64   2.0000      -0.335507        -9.1296
  65   2.0000      -0.325178        -8.8485
  66   2.0000      -0.285875        -7.7791
  67   0.0000       0.027166         0.7392
  68   0.0000       0.061438         1.6718
  69   0.0000       0.097712         2.6589
  70   0.0000       0.112592         3.0638
  71   0.0000       0.128026         3.4838

MULLIKEN ATOMIC CHARGES
-----------------------
   0 S :    0.104320
   1 C :   -0.100978
   2 C :   -0.099046
   3 C :   -0.023123
   4 C :   -0.109663
   5 H :    0.044542
   6 C :    0.086975
   7 H :    0.022994
   8 H :    0.006074
   9 C :   -0.053207
  10 H :    0.043119
  11 H :    0.020538
  12 C :   -0.088454
  13 H :    0.029013
  14 H :    0.035184
  15 H :    0.038072
  16 S :    0.111323
  17 C :   -0.068618
  18 C :   -0.007047
  19 C :   -0.035746
  20 C :   -0.164587
  21 H :    0.005323
  22 C :    0.016967
  23 H :    0.023199
  24 H :    0.039439
  25 C :   -0.057784
  26 H :    0.035482
  27 H :    0.030109
  28 C :   -0.083526
  29 H :    0.029131
  30 H :    0.052920
  31 H :    0.034731
  32 H :    0.041653
  33 H :    0.040673
Sum of atomic charges:   -0.0000000

LOEWDIN ATOMIC CHARGES
----------------------
   0 S :    0.415230
   1 C :   -0.195073
   2 C :   -0.065829
   3 C :   -0.065934
   4 C :   -0.195458
   5 H :    0.042842
   6 C :   -0.035402
   7 H :    0.032910
   8 H :    0.023193
   9 C :   -0.037028
  10 H :    0.032423
  11 H :    0.021570
  12 C :   -0.071217
  13 H :    0.022918
  14 H :    0.024397
  15 H :    0.026388
  16 S :    0.389021
  17 C :   -0.160705
  18 C :   -0.063574
  19 C :   -0.053688
  20 C :   -0.190796
  21 H :    0.023470
  22 C :   -0.048834
  23 H :    0.017804
  24 H :    0.037722
  25 C :   -0.035947
  26 H :    0.021991
  27 H :    0.030047
  28 C :   -0.070990
  29 H :    0.008658
  30 H :    0.043084
  31 H :    0.025581
  32 H :    0.028301
  33 H :    0.022927

  Mayer bond orders larger than 0.100000
B(  0-S ,  1-C ) :   1.1307 B(  0-S ,  4-C ) :   1.1322 B(  1-C ,  2-C ) :   1.6022
B(  1-C , 32-H ) :   0.9664 B(  2-C ,  3-C ) :   1.2459 B(  2-C ,  6-C ) :   1.0565
B(  3-C ,  4-C ) :   1.5649 B(  3-C ,  5-H ) :   0.9816 B(  4-C , 20-C ) :   1.0379
B(  6-C ,  7-H ) :   0.9317 B(  6-C ,  8-H ) :   0.9354 B(  6-C ,  9-C ) :   1.0608
B(  9-C , 10-H ) :   0.9588 B(  9-C , 11-H ) :   0.9587 B(  9-C , 12-C ) :   1.0546
B( 12-C , 13-H ) :   0.9778 B( 12-C , 14-H ) :   0.9755 B( 12-C , 15-H ) :   0.9788
B( 16-S , 17-C ) :   1.1449 B( 16-S , 20-C ) :   1.1234 B( 17-C , 18-C ) :   1.6436
B( 17-C , 33-H ) :   0.9608 B( 18-C , 19-C ) :   1.2298 B( 18-C , 21-H ) :   0.9865
B( 19-C , 20-C ) :   1.6034 B( 19-C , 22-C ) :   1.0356 B( 22-C , 23-H ) :   0.9282
B( 22-C , 24-H ) :   0.9311 B( 22-C , 25-C ) :   1.0709 B( 25-C , 26-H ) :   0.9639
B( 25-C , 27-H ) :   0.9542 B( 25-C , 28-C ) :   1.0672 B( 28-C , 29-H ) :   0.9781
B( 28-C , 30-H ) :   0.9744 B( 28-C , 31-H ) :   0.9776

Dispersion correction           -0.014418614
FINAL SINGLE POINT ENERGY     -1339.847549556169

DIPOLE MOMENT
-------------
                                X             Y             Z
Electronic contribution:     -9.87780      11.85669      14.85994
Nuclear contribution   :     10.06883     -12.04481     -15.19199
                        -----------------------------------------
Total Dipole Moment    :      0.19103      -0.18812      -0.33205
                        -----------------------------------------
Magnitude (a.u.)       :      0.42677
Magnitude (Debye)      :      1.08477

Rotational constants in cm-1:     0.020288     0.008042     0.006800
Rotational constants in MHz :   608.207253   241.094729   203.850041

                             ****ORCA TERMINATED NORMALLY****
TOTAL RUN TIME: 0 days 0 hours 0 minutes 30 seconds 169 msec
