                         Program Version 4.2.1 -  RELEASE  -
|  1> ! wB97X-D3 SP def2-SVP
|  2> %pal
|  3> nprocs 16
|  4> end
|  5>
|  6> * xyz 0 1
|  7> S 	 -44.355 	 26.2522 	 89.0693
|  8> C 	 -45.5544 	 27.536 	 88.5945
|  9> C 	 -44.9178 	 28.579 	 87.9225
| 10> C 	 -43.5416 	 28.2854 	 87.6769
| 11> C 	 -43.1265 	 27.0652 	 88.0821
| 12> H 	 -42.8418 	 28.8852 	 87.1738
| 13> C 	 -45.589 	 29.8553 	 87.343
| 14> H 	 -45.1171 	 30.7344 	 87.7447
| 15> H 	 -46.5927 	 29.8649 	 87.672
| 16> C 	 -45.6522 	 30.0995 	 85.8574
| 17> H 	 -46.2589 	 31.0252 	 85.6593
| 18> H 	 -44.6731 	 30.3058 	 85.4281
| 19> C 	 -46.3619 	 28.9318 	 85.2125
| 20> H 	 -47.2839 	 28.7826 	 85.7506
| 21> H 	 -46.4954 	 29.0636 	 84.1147
| 22> H 	 -45.6481 	 28.0714 	 85.3568
| 23> S 	 -41.924 	 24.918 	 87.1319
| 24> C 	 -40.184 	 24.6634 	 87.2344
| 25> C 	 -39.5516 	 25.8332 	 87.7197
| 26> C 	 -40.4854 	 26.8668 	 88.0016
| 27> C 	 -41.8186 	 26.4236 	 87.8877
| 28> H 	 -38.4593 	 25.811 	 87.8902
| 29> C 	 -40.0084 	 28.2014 	 88.3603
| 30> H 	 -39.4273 	 28.0632 	 89.3078
| 31> H 	 -40.757 	 28.834 	 88.7478
| 32> C 	 -39.2339 	 28.9958 	 87.2179
| 33> H 	 -38.341 	 28.4335 	 87.0018
| 34> H 	 -38.7808 	 29.9921 	 87.4885
| 35> C 	 -40.1494 	 29.255 	 86.0416
| 36> H 	 -39.6578 	 29.8805 	 85.3156
| 37> H 	 -41.1031 	 29.7736 	 86.2914
| 38> H 	 -40.3497 	 28.2789 	 85.5128
| 39> H 	 -46.5792 	 27.625 	 88.8935
| 40> H 	 -39.7119 	 23.7592 	 86.7686
| 41> *
| 42>
| 43>                          ****END OF INPUT****

CARTESIAN COORDINATES (ANGSTROEM)
---------------------------------
  S    -44.355000   26.252200   89.069300
  C    -45.554400   27.536000   88.594500
  C    -44.917800   28.579000   87.922500
  C    -43.541600   28.285400   87.676900
  C    -43.126500   27.065200   88.082100
  H    -42.841800   28.885200   87.173800
  C    -45.589000   29.855300   87.343000
  H    -45.117100   30.734400   87.744700
  H    -46.592700   29.864900   87.672000
  C    -45.652200   30.099500   85.857400
  H    -46.258900   31.025200   85.659300
  H    -44.673100   30.305800   85.428100
  C    -46.361900   28.931800   85.212500
  H    -47.283900   28.782600   85.750600
  H    -46.495400   29.063600   84.114700
  H    -45.648100   28.071400   85.356800
  S    -41.924000   24.918000   87.131900
  C    -40.184000   24.663400   87.234400
  C    -39.551600   25.833200   87.719700
  C    -40.485400   26.866800   88.001600
  C    -41.818600   26.423600   87.887700
  H    -38.459300   25.811000   87.890200
  C    -40.008400   28.201400   88.360300
  H    -39.427300   28.063200   89.307800
  H    -40.757000   28.834000   88.747800
  C    -39.233900   28.995800   87.217900
  H    -38.341000   28.433500   87.001800
  H    -38.780800   29.992100   87.488500
  C    -40.149400   29.255000   86.041600
  H    -39.657800   29.880500   85.315600
  H    -41.103100   29.773600   86.291400
  H    -40.349700   28.278900   85.512800
  H    -46.579200   27.625000   88.893500
  H    -39.711900   23.759200   86.768600

 Total Charge           Charge          ....    0
 Multiplicity           Mult            ....    1
 Number of Electrons    NEL             ....  134
 Basis Dimension        Dim             ....  322

ORBITAL ENERGIES
----------------

  NO   OCC          E(Eh)            E(eV)
   0   2.0000     -88.966915     -2420.9128
   1   2.0000     -88.966105     -2420.8908
   2   2.0000     -10.329357      -281.0761
   3   2.0000     -10.324771      -280.9513
   4   2.0000     -10.324193      -280.9356
   5   2.0000     -10.319612      -280.8109
   6   2.0000     -10.306752      -280.4610
   7   2.0000     -10.304987      -280.4129
   8   2.0000     -10.301719      -280.3240
   9   2.0000     -10.294948      -280.1398
  10   2.0000     -10.289720      -279.9975
  11   2.0000     -10.288307      -279.9591
  12   2.0000     -10.286697      -279.9152
  13   2.0000     -10.285143      -279.8730
  14   2.0000     -10.282970      -279.8138
  15   2.0000     -10.275123      -279.6003
  16   2.0000      -8.081797      -219.9169
  17   2.0000      -8.080205      -219.8736
  18   2.0000      -6.040087      -164.3591
  19   2.0000      -6.038949      -164.3282
  20   2.0000      -6.036036      -164.2489
  21   2.0000      -6.035072      -164.2227
  22   2.0000      -6.032836      -164.1618
  23   2.0000      -6.030628      -164.1017
  24   2.0000      -1.009215       -27.4621
  25   2.0000      -0.980458       -26.6796
  26   2.0000      -0.917137       -24.9566
  27   2.0000      -0.910633       -24.7796
  28   2.0000      -0.867845       -23.6153
  29   2.0000      -0.852355       -23.1938
  30   2.0000      -0.841592       -22.9009
  31   2.0000      -0.814489       -22.1634
  32   2.0000      -0.781822       -21.2745
  33   2.0000      -0.771476       -20.9929
  34   2.0000      -0.708350       -19.2752
  35   2.0000      -0.695372       -18.9220
  36   2.0000      -0.690119       -18.7791
  37   2.0000      -0.660271       -17.9669
  38   2.0000      -0.641740       -17.4626
  39   2.0000      -0.624298       -16.9880
  40   2.0000      -0.599530       -16.3140
  41   2.0000      -0.564135       -15.3509
  42   2.0000      -0.557370       -15.1668
  43   2.0000      -0.556394       -15.1402
  44   2.0000      -0.544579       -14.8187
  45   2.0000      -0.538651       -14.6574
  46   2.0000      -0.519837       -14.1455
  47   2.0000      -0.512010       -13.9325
  48   2.0000      -0.497018       -13.5245
  49   2.0000      -0.496436       -13.5087
  50   2.0000      -0.485216       -13.2034
  51   2.0000      -0.474238       -12.9047
  52   2.0000      -0.472687       -12.8625
  53   2.0000      -0.466312       -12.6890
  54   2.0000      -0.460149       -12.5213
  55   2.0000      -0.443903       -12.0792
  56   2.0000      -0.441474       -12.0131
  57   2.0000      -0.436639       -11.8816
  58   2.0000      -0.433256       -11.7895
  59   2.0000      -0.428891       -11.6707
  60   2.0000      -0.420617       -11.4456
  61   2.0000      -0.415697       -11.3117
  62   2.0000      -0.409130       -11.1330
  63   2.0000      -0.346781        -9.4364
  64   2.0000      -0.331588        -9.0230
  65   2.0000      -0.326578        -8.8866
  66   2.0000      -0.293086        -7.9753
  67   0.0000       0.029359         0.7989
  68   0.0000       0.066910         1.8207
  69   0.0000       0.105048         2.8585
  70   0.0000       0.110911         3.0180
  71   0.0000       0.124915         3.3991

MULLIKEN ATOMIC CHARGES
-----------------------
   0 S :    0.102214
   1 C :   -0.110983
   2 C :   -0.098446
   3 C :    0.084240
   4 C :   -0.138144
   5 H :   -0.060567
   6 C :    0.098784
   7 H :    0.027137
   8 H :    0.000076
   9 C :   -0.087468
  10 H :    0.032519
  11 H :    0.024893
  12 C :   -0.057634
  13 H :    0.024977
  14 H :    0.040918
  15 H :    0.051669
  16 S :    0.119733
  17 C :   -0.130673
  18 C :   -0.052116
  19 C :   -0.024653
  20 C :   -0.156580
  21 H :    0.040506
  22 C :    0.054221
  23 H :    0.037413
  24 H :    0.002908
  25 C :   -0.061783
  26 H :    0.024132
  27 H :    0.032517
  28 C :   -0.076083
  29 H :    0.028225
  30 H :    0.051670
  31 H :    0.055508
  32 H :    0.039790
  33 H :    0.081081
Sum of atomic charges:   -0.0000000

LOEWDIN ATOMIC CHARGES
----------------------
   0 S :    0.367193
   1 C :   -0.175745
   2 C :   -0.055018
   3 C :   -0.061935
   4 C :   -0.179089
   5 H :    0.018140
   6 C :   -0.027414
   7 H :    0.031447
   8 H :    0.021851
   9 C :   -0.045826
  10 H :    0.029273
  11 H :    0.017925
  12 C :   -0.067186
  13 H :    0.021065
  14 H :    0.027132
  15 H :    0.035287
  16 S :    0.442334
  17 C :   -0.198095
  18 C :   -0.069457
  19 C :   -0.062215
  20 C :   -0.221582
  21 H :    0.039818
  22 C :   -0.040053
  23 H :    0.041196
  24 H :    0.021323
  25 C :   -0.038155
  26 H :    0.019421
  27 H :    0.029887
  28 C :   -0.072260
  29 H :    0.024135
  30 H :    0.027233
  31 H :    0.036154
  32 H :    0.025155
  33 H :    0.038065

  Mayer bond orders larger than 0.100000
B(  0-S ,  1-C ) :   1.1109 B(  0-S ,  4-C ) :   1.1312 B(  1-C ,  2-C ) :   1.6441
B(  1-C , 32-H ) :   0.9653 B(  2-C ,  3-C ) :   1.1917 B(  2-C ,  6-C ) :   1.0230
B(  3-C ,  4-C ) :   1.6290 B(  3-C ,  5-H ) :   1.0061 B(  4-C , 20-C ) :   1.0035
B(  6-C ,  7-H ) :   0.9335 B(  6-C ,  8-H ) :   0.9377 B(  6-C ,  9-C ) :   1.0822
B(  9-C , 10-H ) :   0.9507 B(  9-C , 11-H ) :   0.9522 B(  9-C , 12-C ) :   1.0745
B( 12-C , 13-H ) :   0.9747 B( 12-C , 14-H ) :   0.9738 B( 12-C , 15-H ) :   0.9717
B( 16-S , 17-C ) :   1.1729 B( 16-S , 20-C ) :   1.1887 B( 17-C , 18-C ) :   1.5602
B( 17-C , 20-C ) :   0.1104 B( 17-C , 33-H ) :   0.9649 B( 18-C , 19-C ) :   1.2586
B( 18-C , 21-H ) :   0.9888 B( 19-C , 20-C ) :   1.5380 B( 19-C , 22-C ) :   1.0619
B( 22-C , 23-H ) :   0.9303 B( 22-C , 24-H ) :   0.9349 B( 22-C , 25-C ) :   1.0512
B( 25-C , 26-H ) :   0.9570 B( 25-C , 27-H ) :   0.9594 B( 25-C , 28-C ) :   1.0759
B( 28-C , 29-H ) :   0.9679 B( 28-C , 30-H ) :   0.9658 B( 28-C , 31-H ) :   0.9727

Dispersion correction           -0.015528567
FINAL SINGLE POINT ENERGY     -1339.870813762152

DIPOLE MOMENT
-------------
                                X             Y             Z
Electronic contribution:     -0.73546     -22.55288      12.06304
Nuclear contribution   :      1.06167      23.15893     -12.34417
                        -----------------------------------------
Total Dipole Moment    :      0.32621       0.60605      -0.28113
                        -----------------------------------------
Magnitude (a.u.)       :      0.74347
Magnitude (Debye)      :      1.88975

Rotational constants in cm-1:     0.019094     0.009464     0.007567
Rotational constants in MHz :   572.419063   283.720824   226.860192

                             ****ORCA TERMINATED NORMALLY****
TOTAL RUN TIME: 0 days 0 hours 0 minutes 31 seconds 635 msec
