                         Program Version 4.2.1 -  RELEASE  -
|  1> ! wB97X-D3 SP def2-SVP
|  2> %pal
|  3> nprocs 16
|  4> end
|  5>
|  6> * xyz 0 1
|  7> S 	 53.6298 	 4.74217 	 81.4506
|  8> C 	 54.1843 	 3.14312 	 81.0091
|  9> C 	 54.0525 	 2.26059 	 82.0302
| 10> C 	 53.5163 	 2.82147 	 83.2321
| 11> C 	 53.4066 	 4.22694 	 83.1015
| 12> H 	 53.2242 	 2.33413 	 84.1927
| 13> C 	 54.2762 	 0.799673 	 81.7971
| 14> H 	 55.4142 	 0.872011 	 81.506
| 15> H 	 53.686 	 0.567597 	 80.9611
| 16> C 	 53.9901 	 -0.240219 	 82.899
| 17> H 	 54.6308 	 -0.185377 	 83.8362
| 18> H 	 52.9197 	 -0.181699 	 83.1834
| 19> C 	 54.1056 	 -1.66908 	 82.4225
| 20> H 	 55.149 	 -1.89506 	 82.1198
| 21> H 	 53.9314 	 -2.26526 	 83.3078
| 22> H 	 53.4388 	 -1.86025 	 81.5378
| 23> S 	 51.7287 	 6.29914 	 83.8898
| 24> C 	 51.4414 	 6.67874 	 85.5852
| 25> C 	 52.3556 	 5.91738 	 86.2731
| 26> C 	 53.1871 	 5.08426 	 85.5199
| 27> C 	 52.9016 	 5.06625 	 84.1772
| 28> H 	 52.5165 	 5.98566 	 87.3476
| 29> C 	 54.2321 	 4.22352 	 86.1622
| 30> H 	 54.687 	 4.79811 	 86.9233
| 31> H 	 55.0516 	 3.98504 	 85.4726
| 32> C 	 53.612 	 2.98956 	 86.8066
| 33> H 	 53.0592 	 2.37403 	 86.0676
| 34> H 	 52.9366 	 3.26093 	 87.6169
| 35> C 	 54.5627 	 2.01492 	 87.4432
| 36> H 	 55.2766 	 1.66699 	 86.7381
| 37> H 	 54.0822 	 1.19952 	 87.9163
| 38> H 	 55.0939 	 2.43796 	 88.3276
| 39> H 	 54.5439 	 2.82397 	 80.069
| 40> H 	 50.7737 	 7.52471 	 85.9559
| 41> *
| 42>
| 43>                          ****END OF INPUT****

CARTESIAN COORDINATES (ANGSTROEM)
---------------------------------
  S     53.629800    4.742170   81.450600
  C     54.184300    3.143120   81.009100
  C     54.052500    2.260590   82.030200
  C     53.516300    2.821470   83.232100
  C     53.406600    4.226940   83.101500
  H     53.224200    2.334130   84.192700
  C     54.276200    0.799673   81.797100
  H     55.414200    0.872011   81.506000
  H     53.686000    0.567597   80.961100
  C     53.990100   -0.240219   82.899000
  H     54.630800   -0.185377   83.836200
  H     52.919700   -0.181699   83.183400
  C     54.105600   -1.669080   82.422500
  H     55.149000   -1.895060   82.119800
  H     53.931400   -2.265260   83.307800
  H     53.438800   -1.860250   81.537800
  S     51.728700    6.299140   83.889800
  C     51.441400    6.678740   85.585200
  C     52.355600    5.917380   86.273100
  C     53.187100    5.084260   85.519900
  C     52.901600    5.066250   84.177200
  H     52.516500    5.985660   87.347600
  C     54.232100    4.223520   86.162200
  H     54.687000    4.798110   86.923300
  H     55.051600    3.985040   85.472600
  C     53.612000    2.989560   86.806600
  H     53.059200    2.374030   86.067600
  H     52.936600    3.260930   87.616900
  C     54.562700    2.014920   87.443200
  H     55.276600    1.666990   86.738100
  H     54.082200    1.199520   87.916300
  H     55.093900    2.437960   88.327600
  H     54.543900    2.823970   80.069000
  H     50.773700    7.524710   85.955900

 Total Charge           Charge          ....    0
 Multiplicity           Mult            ....    1
 Number of Electrons    NEL             ....  134
 Basis Dimension        Dim             ....  322

ORBITAL ENERGIES
----------------

  NO   OCC          E(Eh)            E(eV)
   0   2.0000     -88.970498     -2421.0103
   1   2.0000     -88.958770     -2420.6912
   2   2.0000     -10.332565      -281.1634
   3   2.0000     -10.323887      -280.9272
   4   2.0000     -10.322436      -280.8878
   5   2.0000     -10.305414      -280.4246
   6   2.0000     -10.299636      -280.2674
   7   2.0000     -10.297394      -280.2063
   8   2.0000     -10.296512      -280.1823
   9   2.0000     -10.296103      -280.1712
  10   2.0000     -10.292427      -280.0712
  11   2.0000     -10.290327      -280.0140
  12   2.0000     -10.285848      -279.8921
  13   2.0000     -10.284852      -279.8651
  14   2.0000     -10.283248      -279.8214
  15   2.0000     -10.271206      -279.4937
  16   2.0000      -8.084879      -220.0008
  17   2.0000      -8.074134      -219.7084
  18   2.0000      -6.043394      -164.4491
  19   2.0000      -6.039533      -164.3441
  20   2.0000      -6.035574      -164.2363
  21   2.0000      -6.032614      -164.1558
  22   2.0000      -6.028440      -164.0422
  23   2.0000      -6.024967      -163.9477
  24   2.0000      -1.011462       -27.5233
  25   2.0000      -0.989600       -26.9284
  26   2.0000      -0.915828       -24.9210
  27   2.0000      -0.914447       -24.8834
  28   2.0000      -0.875553       -23.8250
  29   2.0000      -0.855978       -23.2924
  30   2.0000      -0.849628       -23.1195
  31   2.0000      -0.817543       -22.2465
  32   2.0000      -0.781356       -21.2618
  33   2.0000      -0.772158       -21.0115
  34   2.0000      -0.710250       -19.3269
  35   2.0000      -0.697644       -18.9839
  36   2.0000      -0.687689       -18.7130
  37   2.0000      -0.662949       -18.0398
  38   2.0000      -0.636827       -17.3289
  39   2.0000      -0.615022       -16.7356
  40   2.0000      -0.598529       -16.2868
  41   2.0000      -0.579077       -15.7575
  42   2.0000      -0.570667       -15.5286
  43   2.0000      -0.564738       -15.3673
  44   2.0000      -0.531982       -14.4760
  45   2.0000      -0.530055       -14.4235
  46   2.0000      -0.521961       -14.2033
  47   2.0000      -0.515853       -14.0371
  48   2.0000      -0.504451       -13.7268
  49   2.0000      -0.502256       -13.6671
  50   2.0000      -0.497589       -13.5401
  51   2.0000      -0.485606       -13.2140
  52   2.0000      -0.469336       -12.7713
  53   2.0000      -0.468379       -12.7452
  54   2.0000      -0.461570       -12.5600
  55   2.0000      -0.448523       -12.2049
  56   2.0000      -0.443773       -12.0757
  57   2.0000      -0.435754       -11.8575
  58   2.0000      -0.429929       -11.6990
  59   2.0000      -0.425894       -11.5892
  60   2.0000      -0.418663       -11.3924
  61   2.0000      -0.414848       -11.2886
  62   2.0000      -0.408068       -11.1041
  63   2.0000      -0.352449        -9.5906
  64   2.0000      -0.331367        -9.0170
  65   2.0000      -0.325921        -8.8688
  66   2.0000      -0.286940        -7.8080
  67   0.0000       0.023888         0.6500
  68   0.0000       0.079004         2.1498
  69   0.0000       0.109095         2.9686
  70   0.0000       0.125926         3.4266
  71   0.0000       0.131998         3.5918

MULLIKEN ATOMIC CHARGES
-----------------------
   0 S :    0.127073
   1 C :   -0.110307
   2 C :   -0.051286
   3 C :   -0.014230
   4 C :   -0.129457
   5 H :    0.018442
   6 C :    0.031540
   7 H :    0.055982
   8 H :    0.028174
   9 C :   -0.109633
  10 H :    0.043402
  11 H :    0.038072
  12 C :   -0.046141
  13 H :    0.026754
  14 H :    0.036403
  15 H :    0.043049
  16 S :    0.082439
  17 C :   -0.115668
  18 C :   -0.026743
  19 C :   -0.062472
  20 C :   -0.140801
  21 H :    0.014266
  22 C :    0.106138
  23 H :    0.002806
  24 H :    0.031444
  25 C :   -0.095357
  26 H :    0.030134
  27 H :    0.024402
  28 C :   -0.017214
  29 H :    0.023185
  30 H :    0.021495
  31 H :    0.020461
  32 H :    0.020709
  33 H :    0.092939
Sum of atomic charges:   -0.0000000

LOEWDIN ATOMIC CHARGES
----------------------
   0 S :    0.415267
   1 C :   -0.199469
   2 C :   -0.065639
   3 C :   -0.064829
   4 C :   -0.190018
   5 H :    0.037388
   6 C :   -0.040689
   7 H :    0.051996
   8 H :    0.027247
   9 C :   -0.053167
  10 H :    0.031344
  11 H :    0.028983
  12 C :   -0.065878
  13 H :    0.023340
  14 H :    0.027780
  15 H :    0.029513
  16 S :    0.403947
  17 C :   -0.195533
  18 C :   -0.076013
  19 C :   -0.067863
  20 C :   -0.201522
  21 H :    0.029732
  22 C :   -0.027951
  23 H :    0.025424
  24 H :    0.033602
  25 C :   -0.039891
  26 H :    0.021763
  27 H :    0.025714
  28 C :   -0.064193
  29 H :    0.018033
  30 H :    0.022091
  31 H :    0.026425
  32 H :    0.020744
  33 H :    0.052321

  Mayer bond orders larger than 0.100000
B(  0-S ,  1-C ) :   1.1208 B(  0-S ,  4-C ) :   1.1651 B(  1-C ,  2-C ) :   1.6213
B(  1-C , 32-H ) :   0.9767 B(  2-C ,  3-C ) :   1.2487 B(  2-C ,  6-C ) :   0.9887
B(  3-C ,  4-C ) :   1.5213 B(  3-C ,  5-H ) :   0.9803 B(  4-C , 20-C ) :   1.0657
B(  6-C ,  7-H ) :   0.9358 B(  6-C ,  8-H ) :   0.9454 B(  6-C ,  9-C ) :   1.0875
B(  9-C , 10-H ) :   0.9512 B(  9-C , 11-H ) :   0.9460 B(  9-C , 12-C ) :   1.0919
B( 12-C , 13-H ) :   0.9733 B( 12-C , 14-H ) :   0.9723 B( 12-C , 15-H ) :   0.9731
B( 16-S , 17-C ) :   1.1580 B( 16-S , 20-C ) :   1.1427 B( 17-C , 18-C ) :   1.5518
B( 17-C , 20-C ) :   0.1039 B( 17-C , 33-H ) :   0.9643 B( 18-C , 19-C ) :   1.2977
B( 18-C , 21-H ) :   0.9840 B( 19-C , 20-C ) :   1.5610 B( 19-C , 22-C ) :   1.0599
B( 22-C , 23-H ) :   0.9177 B( 22-C , 24-H ) :   0.9297 B( 22-C , 25-C ) :   1.0661
B( 25-C , 26-H ) :   0.9486 B( 25-C , 27-H ) :   0.9477 B( 25-C , 28-C ) :   1.0974
B( 28-C , 29-H ) :   0.9723 B( 28-C , 30-H ) :   0.9702 B( 28-C , 31-H ) :   0.9693

Dispersion correction           -0.014393944
FINAL SINGLE POINT ENERGY     -1339.871578156939

DIPOLE MOMENT
-------------
                                X             Y             Z
Electronic contribution:     -9.18984      29.34958     -13.04786
Nuclear contribution   :      9.37359     -29.96455      13.46666
                        -----------------------------------------
Total Dipole Moment    :      0.18375      -0.61497       0.41880
                        -----------------------------------------
Magnitude (a.u.)       :      0.76639
Magnitude (Debye)      :      1.94800

Rotational constants in cm-1:     0.017593     0.009575     0.006684
Rotational constants in MHz :   527.439225   287.046153   200.371124

                             ****ORCA TERMINATED NORMALLY****
TOTAL RUN TIME: 0 days 0 hours 0 minutes 29 seconds 592 msec
