                         Program Version 4.2.1 -  RELEASE  -
|  1> ! wB97X-D3 SP def2-SVP
|  2> %pal
|  3> nprocs 16
|  4> end
|  5>
|  6> * xyz 0 1
|  7> S 	 -73.7597 	 56.8191 	 122.33
|  8> C 	 -73.2662 	 58.4644 	 122.708
|  9> C 	 -74.2722 	 59.1226 	 123.442
| 10> C 	 -75.4614 	 58.3362 	 123.554
| 11> C 	 -75.2783 	 57.0537 	 123.149
| 12> H 	 -76.3307 	 58.8476 	 123.938
| 13> C 	 -74.2327 	 60.5672 	 123.651
| 14> H 	 -73.1443 	 60.8548 	 123.664
| 15> H 	 -74.6865 	 60.8654 	 124.584
| 16> C 	 -74.991 	 61.3842 	 122.623
| 17> H 	 -74.399 	 61.3863 	 121.708
| 18> H 	 -75.9463 	 60.927 	 122.355
| 19> C 	 -75.3237 	 62.8116 	 123.045
| 20> H 	 -74.4608 	 63.269 	 123.438
| 21> H 	 -75.4228 	 63.3073 	 122.142
| 22> H 	 -76.2443 	 63.0482 	 123.569
| 23> S 	 -77.0073 	 55.5261 	 121.684
| 24> C 	 -78.2652 	 54.5624 	 122.485
| 25> C 	 -78.0454 	 54.5241 	 123.852
| 26> C 	 -77.0252 	 55.4676 	 124.287
| 27> C 	 -76.2929 	 55.9834 	 123.204
| 28> H 	 -78.691 	 53.9821 	 124.457
| 29> C 	 -76.6715 	 55.7397 	 125.755
| 30> H 	 -77.5892 	 55.6317 	 126.342
| 31> H 	 -76.5526 	 56.8287 	 125.685
| 32> C 	 -75.4905 	 55.039 	 126.337
| 33> H 	 -74.8165 	 54.9272 	 125.492
| 34> H 	 -75.7764 	 54.0638 	 126.692
| 35> C 	 -74.8142 	 55.8482 	 127.503
| 36> H 	 -74.4557 	 56.748 	 127.028
| 37> H 	 -73.9256 	 55.3018 	 127.8
| 38> H 	 -75.3773 	 55.9981 	 128.332
| 39> H 	 -72.4022 	 58.9175 	 122.241
| 40> H 	 -79.033 	 54.1394 	 121.837
| 41> *
| 42>
| 43>                          ****END OF INPUT****

CARTESIAN COORDINATES (ANGSTROEM)
---------------------------------
  S    -73.759700   56.819100  122.330000
  C    -73.266200   58.464400  122.708000
  C    -74.272200   59.122600  123.442000
  C    -75.461400   58.336200  123.554000
  C    -75.278300   57.053700  123.149000
  H    -76.330700   58.847600  123.938000
  C    -74.232700   60.567200  123.651000
  H    -73.144300   60.854800  123.664000
  H    -74.686500   60.865400  124.584000
  C    -74.991000   61.384200  122.623000
  H    -74.399000   61.386300  121.708000
  H    -75.946300   60.927000  122.355000
  C    -75.323700   62.811600  123.045000
  H    -74.460800   63.269000  123.438000
  H    -75.422800   63.307300  122.142000
  H    -76.244300   63.048200  123.569000
  S    -77.007300   55.526100  121.684000
  C    -78.265200   54.562400  122.485000
  C    -78.045400   54.524100  123.852000
  C    -77.025200   55.467600  124.287000
  C    -76.292900   55.983400  123.204000
  H    -78.691000   53.982100  124.457000
  C    -76.671500   55.739700  125.755000
  H    -77.589200   55.631700  126.342000
  H    -76.552600   56.828700  125.685000
  C    -75.490500   55.039000  126.337000
  H    -74.816500   54.927200  125.492000
  H    -75.776400   54.063800  126.692000
  C    -74.814200   55.848200  127.503000
  H    -74.455700   56.748000  127.028000
  H    -73.925600   55.301800  127.800000
  H    -75.377300   55.998100  128.332000
  H    -72.402200   58.917500  122.241000
  H    -79.033000   54.139400  121.837000

 Total Charge           Charge          ....    0
 Multiplicity           Mult            ....    1
 Number of Electrons    NEL             ....  134
 Basis Dimension        Dim             ....  322

ORBITAL ENERGIES
----------------

  NO   OCC          E(Eh)            E(eV)
   0   2.0000     -88.966588     -2420.9039
   1   2.0000     -88.960633     -2420.7419
   2   2.0000     -10.329445      -281.0785
   3   2.0000     -10.324758      -280.9510
   4   2.0000     -10.321565      -280.8641
   5   2.0000     -10.315617      -280.7022
   6   2.0000     -10.307304      -280.4760
   7   2.0000     -10.297780      -280.2168
   8   2.0000     -10.294830      -280.1366
   9   2.0000     -10.292421      -280.0710
  10   2.0000     -10.287090      -279.9259
  11   2.0000     -10.285423      -279.8806
  12   2.0000     -10.284405      -279.8529
  13   2.0000     -10.279463      -279.7184
  14   2.0000     -10.267314      -279.3878
  15   2.0000     -10.266553      -279.3671
  16   2.0000      -8.081351      -219.9048
  17   2.0000      -8.075548      -219.7468
  18   2.0000      -6.039844      -164.3525
  19   2.0000      -6.035827      -164.2432
  20   2.0000      -6.034009      -164.1937
  21   2.0000      -6.032172      -164.1437
  22   2.0000      -6.029911      -164.0822
  23   2.0000      -6.026480      -163.9889
  24   2.0000      -1.005443       -27.3595
  25   2.0000      -0.980743       -26.6874
  26   2.0000      -0.919516       -25.0213
  27   2.0000      -0.906995       -24.6806
  28   2.0000      -0.868449       -23.6317
  29   2.0000      -0.853641       -23.2288
  30   2.0000      -0.844275       -22.9739
  31   2.0000      -0.818149       -22.2630
  32   2.0000      -0.783550       -21.3215
  33   2.0000      -0.769910       -20.9503
  34   2.0000      -0.707638       -19.2558
  35   2.0000      -0.700051       -19.0493
  36   2.0000      -0.692076       -18.8323
  37   2.0000      -0.664254       -18.0753
  38   2.0000      -0.641194       -17.4478
  39   2.0000      -0.627995       -17.0886
  40   2.0000      -0.591070       -16.0838
  41   2.0000      -0.574987       -15.6462
  42   2.0000      -0.570026       -15.5112
  43   2.0000      -0.560491       -15.2517
  44   2.0000      -0.530829       -14.4446
  45   2.0000      -0.523005       -14.2317
  46   2.0000      -0.519064       -14.1245
  47   2.0000      -0.512516       -13.9463
  48   2.0000      -0.504392       -13.7252
  49   2.0000      -0.500296       -13.6137
  50   2.0000      -0.493257       -13.4222
  51   2.0000      -0.485618       -13.2143
  52   2.0000      -0.469241       -12.7687
  53   2.0000      -0.464752       -12.6466
  54   2.0000      -0.455665       -12.3993
  55   2.0000      -0.450906       -12.2698
  56   2.0000      -0.443928       -12.0799
  57   2.0000      -0.435595       -11.8531
  58   2.0000      -0.432595       -11.7715
  59   2.0000      -0.424712       -11.5570
  60   2.0000      -0.418470       -11.3871
  61   2.0000      -0.416075       -11.3220
  62   2.0000      -0.408212       -11.1080
  63   2.0000      -0.342106        -9.3092
  64   2.0000      -0.328543        -8.9401
  65   2.0000      -0.323518        -8.8034
  66   2.0000      -0.297647        -8.0994
  67   0.0000       0.035985         0.9792
  68   0.0000       0.062738         1.7072
  69   0.0000       0.114727         3.1219
  70   0.0000       0.119861         3.2616
  71   0.0000       0.125258         3.4084

MULLIKEN ATOMIC CHARGES
-----------------------
   0 S :    0.110557
   1 C :   -0.133746
   2 C :   -0.083030
   3 C :    0.040817
   4 C :   -0.152883
   5 H :    0.019441
   6 C :    0.057452
   7 H :    0.031437
   8 H :    0.013862
   9 C :   -0.093806
  10 H :    0.020180
  11 H :    0.026259
  12 C :    0.011578
  13 H :    0.011827
  14 H :    0.003710
  15 H :    0.042412
  16 S :    0.091515
  17 C :   -0.117271
  18 C :    0.023843
  19 C :   -0.094889
  20 C :   -0.137940
  21 H :   -0.003695
  22 C :    0.083596
  23 H :    0.012711
  24 H :    0.012356
  25 C :   -0.038469
  26 H :    0.030701
  27 H :    0.021233
  28 C :   -0.011835
  29 H :    0.032251
  30 H :    0.025545
  31 H :    0.018486
  32 H :    0.054772
  33 H :    0.071026
Sum of atomic charges:    0.0000000

LOEWDIN ATOMIC CHARGES
----------------------
   0 S :    0.406230
   1 C :   -0.196822
   2 C :   -0.062103
   3 C :   -0.058080
   4 C :   -0.198643
   5 H :    0.033696
   6 C :   -0.042236
   7 H :    0.037136
   8 H :    0.026327
   9 C :   -0.035488
  10 H :    0.023621
  11 H :    0.025113
  12 C :   -0.063870
  13 H :    0.020308
  14 H :    0.023814
  15 H :    0.029167
  16 S :    0.396975
  17 C :   -0.172466
  18 C :   -0.062676
  19 C :   -0.047986
  20 C :   -0.210736
  21 H :    0.020286
  22 C :   -0.038921
  23 H :    0.026942
  24 H :    0.032160
  25 C :   -0.033032
  26 H :    0.027651
  27 H :    0.020346
  28 C :   -0.047718
  29 H :    0.028027
  30 H :    0.027931
  31 H :    0.008800
  32 H :    0.026305
  33 H :    0.029941

  Mayer bond orders larger than 0.100000
B(  0-S ,  1-C ) :   1.1382 B(  0-S ,  4-C ) :   1.1583 B(  1-C ,  2-C ) :   1.5799
B(  1-C , 32-H ) :   0.9714 B(  2-C ,  3-C ) :   1.2511 B(  2-C ,  6-C ) :   1.0669
B(  3-C ,  4-C ) :   1.5707 B(  3-C ,  5-H ) :   0.9926 B(  4-C , 20-C ) :   0.9892
B(  6-C ,  7-H ) :   0.9337 B(  6-C ,  8-H ) :   0.9294 B(  6-C ,  9-C ) :   1.0612
B(  9-C , 10-H ) :   0.9547 B(  9-C , 11-H ) :   0.9550 B(  9-C , 12-C ) :   1.0844
B( 12-C , 13-H ) :   0.9683 B( 12-C , 14-H ) :   0.9634 B( 12-C , 15-H ) :   0.9742
B( 16-S , 17-C ) :   1.1626 B( 16-S , 20-C ) :   1.1535 B( 17-C , 18-C ) :   1.5844
B( 17-C , 20-C ) :   0.1001 B( 17-C , 33-H ) :   0.9708 B( 18-C , 19-C ) :   1.2343
B( 18-C , 21-H ) :   1.0016 B( 19-C , 20-C ) :   1.5970 B( 19-C , 22-C ) :   1.0386
B( 22-C , 23-H ) :   0.9238 B( 22-C , 24-H ) :   0.9278 B( 22-C , 25-C ) :   1.0617
B( 25-C , 26-H ) :   0.9580 B( 25-C , 27-H ) :   0.9519 B( 25-C , 28-C ) :   1.0801
B( 28-C , 29-H ) :   0.9762 B( 28-C , 30-H ) :   0.9735 B( 28-C , 31-H ) :   0.9802

Dispersion correction           -0.014342120
FINAL SINGLE POINT ENERGY     -1339.865170298357

DIPOLE MOMENT
-------------
                                X             Y             Z
Electronic contribution:     -1.51066     -17.60449     -16.87225
Nuclear contribution   :      1.23178      18.09838      17.12900
                        -----------------------------------------
Total Dipole Moment    :     -0.27887       0.49389       0.25675
                        -----------------------------------------
Magnitude (a.u.)       :      0.62259
Magnitude (Debye)      :      1.58250

Rotational constants in cm-1:     0.017665     0.008450     0.007300
Rotational constants in MHz :   529.586744   253.323516   218.840103

                             ****ORCA TERMINATED NORMALLY****
TOTAL RUN TIME: 0 days 0 hours 0 minutes 34 seconds 919 msec
