                         Program Version 4.2.1 -  RELEASE  -
|  1> ! wB97X-D3 SP def2-SVP
|  2> %pal
|  3> nprocs 16
|  4> end
|  5>
|  6> * xyz 0 1
|  7> S 	 -8.0712 	 8.18213 	 83.8762
|  8> C 	 -8.57284 	 8.19872 	 85.6222
|  9> C 	 -8.78246 	 9.54084 	 86.055
| 10> C 	 -8.39553 	 10.4703 	 85.0697
| 11> C 	 -7.95345 	 9.9159 	 83.8513
| 12> H 	 -8.29896 	 11.525 	 85.2299
| 13> C 	 -9.19566 	 9.94367 	 87.4493
| 14> H 	 -10.2997 	 10.0105 	 87.3592
| 15> H 	 -8.8617 	 10.9695 	 87.6386
| 16> C 	 -8.74137 	 9.05378 	 88.6698
| 17> H 	 -9.04528 	 8.00506 	 88.4144
| 18> H 	 -7.66795 	 8.95664 	 88.7321
| 19> C 	 -9.26648 	 9.54297 	 90.0207
| 20> H 	 -8.67257 	 10.4281 	 90.366
| 21> H 	 -10.337 	 9.79871 	 89.8861
| 22> H 	 -9.04956 	 8.70576 	 90.7649
| 23> S 	 -6.19578 	 9.97028 	 81.6983
| 24> C 	 -6.12508 	 11.4507 	 80.8307
| 25> C 	 -7.04454 	 12.4358 	 81.2226
| 26> C 	 -7.82505 	 11.9845 	 82.2897
| 27> C 	 -7.50867 	 10.661 	 82.6751
| 28> H 	 -7.18252 	 13.3587 	 80.7552
| 29> C 	 -8.89502 	 12.8305 	 82.83
| 30> H 	 -8.5357 	 13.4334 	 83.6525
| 31> H 	 -9.59122 	 12.1595 	 83.2458
| 32> C 	 -9.7313 	 13.6729 	 81.879
| 33> H 	 -8.95525 	 14.3118 	 81.4547
| 34> H 	 -10.4541 	 14.312 	 82.3964
| 35> C 	 -10.322 	 12.8667 	 80.6708
| 36> H 	 -9.76361 	 12.4065 	 79.907
| 37> H 	 -10.9185 	 13.6075 	 80.1762
| 38> H 	 -10.9321 	 12.0642 	 80.9986
| 39> H 	 -8.7911 	 7.32332 	 86.2134
| 40> H 	 -5.47119 	 11.5105 	 80.0275
| 41> *
| 42>
| 43>                          ****END OF INPUT****

CARTESIAN COORDINATES (ANGSTROEM)
---------------------------------
  S     -8.071200    8.182130   83.876200
  C     -8.572840    8.198720   85.622200
  C     -8.782460    9.540840   86.055000
  C     -8.395530   10.470300   85.069700
  C     -7.953450    9.915900   83.851300
  H     -8.298960   11.525000   85.229900
  C     -9.195660    9.943670   87.449300
  H    -10.299700   10.010500   87.359200
  H     -8.861700   10.969500   87.638600
  C     -8.741370    9.053780   88.669800
  H     -9.045280    8.005060   88.414400
  H     -7.667950    8.956640   88.732100
  C     -9.266480    9.542970   90.020700
  H     -8.672570   10.428100   90.366000
  H    -10.337000    9.798710   89.886100
  H     -9.049560    8.705760   90.764900
  S     -6.195780    9.970280   81.698300
  C     -6.125080   11.450700   80.830700
  C     -7.044540   12.435800   81.222600
  C     -7.825050   11.984500   82.289700
  C     -7.508670   10.661000   82.675100
  H     -7.182520   13.358700   80.755200
  C     -8.895020   12.830500   82.830000
  H     -8.535700   13.433400   83.652500
  H     -9.591220   12.159500   83.245800
  C     -9.731300   13.672900   81.879000
  H     -8.955250   14.311800   81.454700
  H    -10.454100   14.312000   82.396400
  C    -10.322000   12.866700   80.670800
  H     -9.763610   12.406500   79.907000
  H    -10.918500   13.607500   80.176200
  H    -10.932100   12.064200   80.998600
  H     -8.791100    7.323320   86.213400
  H     -5.471190   11.510500   80.027500

 Total Charge           Charge          ....    0
 Multiplicity           Mult            ....    1
 Number of Electrons    NEL             ....  134
 Basis Dimension        Dim             ....  322

ORBITAL ENERGIES
----------------

  NO   OCC          E(Eh)            E(eV)
   0   2.0000     -88.970447     -2421.0090
   1   2.0000     -88.967069     -2420.9170
   2   2.0000     -10.330244      -281.1002
   3   2.0000     -10.328308      -281.0476
   4   2.0000     -10.317871      -280.7635
   5   2.0000     -10.314776      -280.6793
   6   2.0000     -10.304584      -280.4020
   7   2.0000     -10.300128      -280.2807
   8   2.0000     -10.297681      -280.2142
   9   2.0000     -10.292979      -280.0862
  10   2.0000     -10.292001      -280.0596
  11   2.0000     -10.291858      -280.0557
  12   2.0000     -10.289956      -280.0039
  13   2.0000     -10.289349      -279.9874
  14   2.0000     -10.279121      -279.7091
  15   2.0000     -10.269057      -279.4353
  16   2.0000      -8.085349      -220.0135
  17   2.0000      -8.080659      -219.8859
  18   2.0000      -6.043584      -164.4543
  19   2.0000      -6.039915      -164.3544
  20   2.0000      -6.039216      -164.3354
  21   2.0000      -6.036325      -164.2567
  22   2.0000      -6.035358      -164.2304
  23   2.0000      -6.031447      -164.1240
  24   2.0000      -1.003704       -27.3122
  25   2.0000      -0.977617       -26.6023
  26   2.0000      -0.918335       -24.9892
  27   2.0000      -0.906506       -24.6673
  28   2.0000      -0.863801       -23.5052
  29   2.0000      -0.854303       -23.2468
  30   2.0000      -0.844746       -22.9867
  31   2.0000      -0.808059       -21.9884
  32   2.0000      -0.789784       -21.4911
  33   2.0000      -0.768667       -20.9165
  34   2.0000      -0.712612       -19.3912
  35   2.0000      -0.707059       -19.2400
  36   2.0000      -0.691893       -18.8274
  37   2.0000      -0.662674       -18.0323
  38   2.0000      -0.635254       -17.2861
  39   2.0000      -0.616426       -16.7738
  40   2.0000      -0.601941       -16.3796
  41   2.0000      -0.566205       -15.4072
  42   2.0000      -0.560624       -15.2554
  43   2.0000      -0.557895       -15.1811
  44   2.0000      -0.543863       -14.7993
  45   2.0000      -0.526457       -14.3256
  46   2.0000      -0.517640       -14.0857
  47   2.0000      -0.511856       -13.9283
  48   2.0000      -0.502722       -13.6798
  49   2.0000      -0.497709       -13.5434
  50   2.0000      -0.490211       -13.3393
  51   2.0000      -0.479224       -13.0404
  52   2.0000      -0.467447       -12.7199
  53   2.0000      -0.466842       -12.7034
  54   2.0000      -0.464693       -12.6449
  55   2.0000      -0.453787       -12.3482
  56   2.0000      -0.448542       -12.2054
  57   2.0000      -0.440639       -11.9904
  58   2.0000      -0.435805       -11.8589
  59   2.0000      -0.425640       -11.5823
  60   2.0000      -0.422185       -11.4882
  61   2.0000      -0.409272       -11.1369
  62   2.0000      -0.404874       -11.0172
  63   2.0000      -0.347476        -9.4553
  64   2.0000      -0.337159        -9.1746
  65   2.0000      -0.330433        -8.9915
  66   2.0000      -0.275945        -7.5088
  67   0.0000       0.018563         0.5051
  68   0.0000       0.076028         2.0688
  69   0.0000       0.099398         2.7047
  70   0.0000       0.123905         3.3716
  71   0.0000       0.135336         3.6827

MULLIKEN ATOMIC CHARGES
-----------------------
   0 S :    0.095752
   1 C :   -0.139383
   2 C :   -0.065254
   3 C :   -0.005876
   4 C :   -0.122509
   5 H :    0.001548
   6 C :    0.047454
   7 H :    0.047143
   8 H :    0.022125
   9 C :   -0.094727
  10 H :    0.027600
  11 H :    0.033385
  12 C :   -0.073127
  13 H :    0.046532
  14 H :    0.044919
  15 H :    0.052283
  16 S :    0.117100
  17 C :   -0.064239
  18 C :   -0.006080
  19 C :   -0.062816
  20 C :   -0.143441
  21 H :   -0.005654
  22 C :    0.078959
  23 H :    0.041242
  24 H :    0.013089
  25 C :   -0.076190
  26 H :    0.017548
  27 H :    0.040572
  28 C :   -0.024720
  29 H :    0.029673
  30 H :    0.025536
  31 H :    0.022837
  32 H :    0.048069
  33 H :    0.030649
Sum of atomic charges:   -0.0000000

LOEWDIN ATOMIC CHARGES
----------------------
   0 S :    0.384843
   1 C :   -0.193473
   2 C :   -0.055293
   3 C :   -0.073490
   4 C :   -0.190183
   5 H :    0.026447
   6 C :   -0.036572
   7 H :    0.040024
   8 H :    0.027882
   9 C :   -0.046157
  10 H :    0.022495
  11 H :    0.023886
  12 C :   -0.072149
  13 H :    0.031062
  14 H :    0.028978
  15 H :    0.038665
  16 S :    0.418425
  17 C :   -0.173144
  18 C :   -0.059151
  19 C :   -0.048022
  20 C :   -0.196617
  21 H :    0.023000
  22 C :   -0.040499
  23 H :    0.032536
  24 H :    0.024504
  25 C :   -0.031052
  26 H :    0.018286
  27 H :    0.031874
  28 C :   -0.062454
  29 H :    0.023961
  30 H :    0.027214
  31 H :    0.022047
  32 H :    0.023037
  33 H :    0.009090

  Mayer bond orders larger than 0.100000
B(  0-S ,  1-C ) :   1.1213 B(  0-S ,  4-C ) :   1.1608 B(  1-C ,  2-C ) :   1.5735
B(  1-C ,  4-C ) :   0.1078 B(  1-C , 32-H ) :   0.9719 B(  2-C ,  3-C ) :   1.2768
B(  2-C ,  6-C ) :   1.0171 B(  3-C ,  4-C ) :   1.5331 B(  3-C ,  5-H ) :   0.9925
B(  4-C , 20-C ) :   1.0645 B(  6-C ,  7-H ) :   0.9251 B(  6-C ,  8-H ) :   0.9502
B(  6-C ,  9-C ) :   1.0590 B(  9-C , 10-H ) :   0.9514 B(  9-C , 11-H ) :   0.9589
B(  9-C , 12-C ) :   1.0798 B( 12-C , 13-H ) :   0.9746 B( 12-C , 14-H ) :   0.9757
B( 12-C , 15-H ) :   0.9719 B( 16-S , 17-C ) :   1.1888 B( 16-S , 20-C ) :   1.1403
B( 17-C , 18-C ) :   1.5439 B( 17-C , 20-C ) :   0.1059 B( 17-C , 33-H ) :   0.9751
B( 18-C , 19-C ) :   1.2831 B( 18-C , 21-H ) :   1.0023 B( 19-C , 20-C ) :   1.5538
B( 19-C , 22-C ) :   1.0379 B( 22-C , 23-H ) :   0.9181 B( 22-C , 24-H ) :   0.9261
B( 22-C , 25-C ) :   1.0748 B( 25-C , 26-H ) :   0.9509 B( 25-C , 27-H ) :   0.9551
B( 25-C , 28-C ) :   1.0679 B( 28-C , 29-H ) :   0.9735 B( 28-C , 30-H ) :   0.9743
B( 28-C , 31-H ) :   0.9768

Dispersion correction           -0.013860340
FINAL SINGLE POINT ENERGY     -1339.867642425706

DIPOLE MOMENT
-------------
                                X             Y             Z
Electronic contribution:     14.79556     -13.24811     -15.74451
Nuclear contribution   :    -15.03932      13.81056      16.01157
                        -----------------------------------------
Total Dipole Moment    :     -0.24377       0.56246       0.26706
                        -----------------------------------------
Magnitude (a.u.)       :      0.66866
Magnitude (Debye)      :      1.69959

Rotational constants in cm-1:     0.021794     0.007232     0.006034
Rotational constants in MHz :   653.359006   216.818707   180.895856

                             ****ORCA TERMINATED NORMALLY****
TOTAL RUN TIME: 0 days 0 hours 0 minutes 34 seconds 394 msec
