                         Program Version 4.2.1 -  RELEASE  -
|  1> ! wB97X-D3 SP def2-SVP
|  2> %pal
|  3> nprocs 16
|  4> end
|  5>
|  6> * xyz 0 1
|  7> S 	 53.4478 	 23.1249 	 93.6205
|  8> C 	 51.7284 	 23.4138 	 93.5728
|  9> C 	 51.0918 	 22.4148 	 92.8596
| 10> C 	 52.001 	 21.4929 	 92.255
| 11> C 	 53.2993 	 21.6798 	 92.6396
| 12> H 	 51.6973 	 20.7045 	 91.6273
| 13> C 	 49.6075 	 22.3948 	 92.7139
| 14> H 	 49.3881 	 22.8308 	 91.7656
| 15> H 	 49.0177 	 23.0339 	 93.27
| 16> C 	 48.8533 	 21.0006 	 92.8641
| 17> H 	 47.7624 	 21.1968 	 92.6229
| 18> H 	 49.0303 	 20.4381 	 91.9963
| 19> C 	 49.0567 	 20.1803 	 94.1892
| 20> H 	 48.9163 	 20.9021 	 94.9873
| 21> H 	 48.3158 	 19.4579 	 94.4187
| 22> H 	 50.0436 	 19.7659 	 94.253
| 23> S 	 55.6399 	 22.4169 	 91.4412
| 24> C 	 56.4807 	 21.2591 	 90.461
| 25> C 	 56.1775 	 19.988 	 90.793
| 26> C 	 55.0977 	 19.9272 	 91.7763
| 27> C 	 54.5325 	 21.178 	 92.0222
| 28> H 	 56.607 	 19.1647 	 90.229
| 29> C 	 54.474 	 18.6347 	 92.1696
| 30> H 	 54.8391 	 17.7915 	 91.6237
| 31> H 	 53.4466 	 18.7626 	 91.7622
| 32> C 	 54.4202 	 18.26 	 93.6548
| 33> H 	 53.5302 	 17.7022 	 93.7962
| 34> H 	 54.291 	 19.1492 	 94.1858
| 35> C 	 55.7551 	 17.6041 	 94.17
| 36> H 	 55.7303 	 16.5156 	 93.8684
| 37> H 	 55.8187 	 17.4756 	 95.2724
| 38> H 	 56.6003 	 18.1514 	 93.7765
| 39> H 	 51.1564 	 24.2679 	 93.9274
| 40> H 	 57.2454 	 21.5254 	 89.7414
| 41> *
| 42>
| 43>                          ****END OF INPUT****

CARTESIAN COORDINATES (ANGSTROEM)
---------------------------------
  S     53.447800   23.124900   93.620500
  C     51.728400   23.413800   93.572800
  C     51.091800   22.414800   92.859600
  C     52.001000   21.492900   92.255000
  C     53.299300   21.679800   92.639600
  H     51.697300   20.704500   91.627300
  C     49.607500   22.394800   92.713900
  H     49.388100   22.830800   91.765600
  H     49.017700   23.033900   93.270000
  C     48.853300   21.000600   92.864100
  H     47.762400   21.196800   92.622900
  H     49.030300   20.438100   91.996300
  C     49.056700   20.180300   94.189200
  H     48.916300   20.902100   94.987300
  H     48.315800   19.457900   94.418700
  H     50.043600   19.765900   94.253000
  S     55.639900   22.416900   91.441200
  C     56.480700   21.259100   90.461000
  C     56.177500   19.988000   90.793000
  C     55.097700   19.927200   91.776300
  C     54.532500   21.178000   92.022200
  H     56.607000   19.164700   90.229000
  C     54.474000   18.634700   92.169600
  H     54.839100   17.791500   91.623700
  H     53.446600   18.762600   91.762200
  C     54.420200   18.260000   93.654800
  H     53.530200   17.702200   93.796200
  H     54.291000   19.149200   94.185800
  C     55.755100   17.604100   94.170000
  H     55.730300   16.515600   93.868400
  H     55.818700   17.475600   95.272400
  H     56.600300   18.151400   93.776500
  H     51.156400   24.267900   93.927400
  H     57.245400   21.525400   89.741400

 Total Charge           Charge          ....    0
 Multiplicity           Mult            ....    1
 Number of Electrons    NEL             ....  134
 Basis Dimension        Dim             ....  322

ORBITAL ENERGIES
----------------

  NO   OCC          E(Eh)            E(eV)
   0   2.0000     -88.965529     -2420.8751
   1   2.0000     -88.959173     -2420.7022
   2   2.0000     -10.331883      -281.1448
   3   2.0000     -10.327488      -281.0252
   4   2.0000     -10.312187      -280.6089
   5   2.0000     -10.311723      -280.5962
   6   2.0000     -10.306244      -280.4472
   7   2.0000     -10.300444      -280.2893
   8   2.0000     -10.293638      -280.1041
   9   2.0000     -10.292457      -280.0720
  10   2.0000     -10.292449      -280.0718
  11   2.0000     -10.286446      -279.9084
  12   2.0000     -10.285702      -279.8882
  13   2.0000     -10.282515      -279.8015
  14   2.0000     -10.276574      -279.6398
  15   2.0000     -10.276244      -279.6308
  16   2.0000      -8.080378      -219.8783
  17   2.0000      -8.074555      -219.7198
  18   2.0000      -6.038936      -164.3278
  19   2.0000      -6.034842      -164.2164
  20   2.0000      -6.033074      -164.1683
  21   2.0000      -6.031087      -164.1142
  22   2.0000      -6.029112      -164.0605
  23   2.0000      -6.025076      -163.9506
  24   2.0000      -1.009900       -27.4808
  25   2.0000      -0.986182       -26.8354
  26   2.0000      -0.908202       -24.7134
  27   2.0000      -0.907100       -24.6835
  28   2.0000      -0.868462       -23.6320
  29   2.0000      -0.847821       -23.0704
  30   2.0000      -0.840791       -22.8791
  31   2.0000      -0.822283       -22.3755
  32   2.0000      -0.786609       -21.4047
  33   2.0000      -0.771803       -21.0018
  34   2.0000      -0.717297       -19.5187
  35   2.0000      -0.703548       -19.1445
  36   2.0000      -0.689357       -18.7584
  37   2.0000      -0.660704       -17.9787
  38   2.0000      -0.643752       -17.5174
  39   2.0000      -0.628469       -17.1015
  40   2.0000      -0.595066       -16.1926
  41   2.0000      -0.568282       -15.4637
  42   2.0000      -0.555148       -15.1063
  43   2.0000      -0.551596       -15.0097
  44   2.0000      -0.539329       -14.6759
  45   2.0000      -0.535967       -14.5844
  46   2.0000      -0.514775       -14.0077
  47   2.0000      -0.507941       -13.8218
  48   2.0000      -0.504771       -13.7355
  49   2.0000      -0.498484       -13.5644
  50   2.0000      -0.488070       -13.2811
  51   2.0000      -0.480822       -13.0838
  52   2.0000      -0.472147       -12.8478
  53   2.0000      -0.467410       -12.7189
  54   2.0000      -0.464044       -12.6273
  55   2.0000      -0.450951       -12.2710
  56   2.0000      -0.445527       -12.1234
  57   2.0000      -0.442105       -12.0303
  58   2.0000      -0.426079       -11.5942
  59   2.0000      -0.421160       -11.4604
  60   2.0000      -0.417757       -11.3678
  61   2.0000      -0.413165       -11.2428
  62   2.0000      -0.409399       -11.1403
  63   2.0000      -0.350445        -9.5361
  64   2.0000      -0.329915        -8.9774
  65   2.0000      -0.322606        -8.7785
  66   2.0000      -0.291106        -7.9214
  67   0.0000       0.027837         0.7575
  68   0.0000       0.065826         1.7912
  69   0.0000       0.108169         2.9434
  70   0.0000       0.123042         3.3482
  71   0.0000       0.129268         3.5176

MULLIKEN ATOMIC CHARGES
-----------------------
   0 S :    0.095315
   1 C :   -0.119099
   2 C :   -0.079320
   3 C :    0.051293
   4 C :   -0.119566
   5 H :    0.001294
   6 C :    0.090699
   7 H :    0.021821
   8 H :   -0.005922
   9 C :   -0.105913
  10 H :    0.022794
  11 H :    0.009999
  12 C :   -0.009719
  13 H :    0.021701
  14 H :    0.029997
  15 H :    0.042024
  16 S :    0.097129
  17 C :   -0.085019
  18 C :   -0.028206
  19 C :   -0.044144
  20 C :   -0.154307
  21 H :    0.024876
  22 C :    0.031789
  23 H :    0.005159
  24 H :    0.032580
  25 C :   -0.007024
  26 H :    0.017186
  27 H :    0.017453
  28 C :   -0.079524
  29 H :    0.031978
  30 H :    0.040316
  31 H :    0.047261
  32 H :    0.049468
  33 H :    0.055628
Sum of atomic charges:    0.0000000

LOEWDIN ATOMIC CHARGES
----------------------
   0 S :    0.403304
   1 C :   -0.200053
   2 C :   -0.061982
   3 C :   -0.053216
   4 C :   -0.187396
   5 H :    0.025290
   6 C :   -0.031888
   7 H :    0.035910
   8 H :    0.019977
   9 C :   -0.043194
  10 H :    0.031568
  11 H :    0.008852
  12 C :   -0.060252
  13 H :    0.027655
  14 H :    0.024492
  15 H :    0.026390
  16 S :    0.395537
  17 C :   -0.181550
  18 C :   -0.076188
  19 C :   -0.053933
  20 C :   -0.194717
  21 H :    0.034719
  22 C :   -0.038587
  23 H :    0.022771
  24 H :    0.040513
  25 C :   -0.030535
  26 H :    0.020565
  27 H :    0.017249
  28 C :   -0.069504
  29 H :    0.028865
  30 H :    0.029279
  31 H :    0.026570
  32 H :    0.033555
  33 H :    0.029938

  Mayer bond orders larger than 0.100000
B(  0-S ,  1-C ) :   1.1309 B(  0-S ,  4-C ) :   1.1424 B(  1-C ,  2-C ) :   1.6143
B(  1-C , 32-H ) :   0.9674 B(  2-C ,  3-C ) :   1.2386 B(  2-C ,  6-C ) :   1.0272
B(  3-C ,  4-C ) :   1.5801 B(  3-C ,  5-H ) :   0.9987 B(  4-C , 20-C ) :   1.0288
B(  6-C ,  7-H ) :   0.9256 B(  6-C ,  8-H ) :   0.9424 B(  6-C ,  9-C ) :   1.0745
B(  9-C , 10-H ) :   0.9536 B(  9-C , 11-H ) :   0.9568 B(  9-C , 12-C ) :   1.0571
B( 12-C , 13-H ) :   0.9760 B( 12-C , 14-H ) :   0.9763 B( 12-C , 15-H ) :   0.9758
B( 16-S , 17-C ) :   1.1447 B( 16-S , 20-C ) :   1.1236 B( 17-C , 18-C ) :   1.6440
B( 17-C , 33-H ) :   0.9664 B( 18-C , 19-C ) :   1.1980 B( 18-C , 21-H ) :   0.9934
B( 19-C , 20-C ) :   1.6129 B( 19-C , 22-C ) :   1.0495 B( 22-C , 23-H ) :   0.9365
B( 22-C , 24-H ) :   0.9340 B( 22-C , 25-C ) :   1.0607 B( 25-C , 26-H ) :   0.9550
B( 25-C , 27-H ) :   0.9602 B( 25-C , 28-C ) :   1.0638 B( 28-C , 29-H ) :   0.9764
B( 28-C , 30-H ) :   0.9771 B( 28-C , 31-H ) :   0.9784

Dispersion correction           -0.014488387
FINAL SINGLE POINT ENERGY     -1339.853481799416

DIPOLE MOMENT
-------------
                                X             Y             Z
Electronic contribution:     15.88001      20.32452      -6.29736
Nuclear contribution   :    -16.40163     -20.72413       6.01568
                        -----------------------------------------
Total Dipole Moment    :     -0.52162      -0.39960      -0.28168
                        -----------------------------------------
Magnitude (a.u.)       :      0.71492
Magnitude (Debye)      :      1.81719

Rotational constants in cm-1:     0.018455     0.009151     0.007144
Rotational constants in MHz :   553.274843   274.325198   214.167323

                             ****ORCA TERMINATED NORMALLY****
TOTAL RUN TIME: 0 days 0 hours 0 minutes 30 seconds 438 msec
