                         Program Version 4.2.1 -  RELEASE  -
|  1> ! wB97X-D3 SP def2-SVP
|  2> %pal
|  3> nprocs 16
|  4> end
|  5>
|  6> * xyz 0 1
|  7> S 	 10.868 	 24.7714 	 65.4338
|  8> C 	 10.3582 	 25.6423 	 64.0519
|  9> C 	 10.1492 	 26.9763 	 64.3786
| 10> C 	 10.3678 	 27.276 	 65.7701
| 11> C 	 10.7657 	 26.1634 	 66.4681
| 12> H 	 10.216 	 28.2684 	 66.2032
| 13> C 	 9.62621 	 28.0813 	 63.4842
| 14> H 	 10.4521 	 28.5499 	 62.8604
| 15> H 	 9.29511 	 28.9072 	 64.1549
| 16> C 	 8.3091 	 27.8046 	 62.6921
| 17> H 	 8.05064 	 28.5862 	 62.0274
| 18> H 	 8.43668 	 26.9266 	 62.0285
| 19> C 	 7.11962 	 27.4674 	 63.6024
| 20> H 	 6.81676 	 28.2388 	 64.328
| 21> H 	 6.24176 	 27.0976 	 63.0566
| 22> H 	 7.47166 	 26.6122 	 64.1806
| 23> S 	 9.78822 	 24.8565 	 68.5531
| 24> C 	 10.0305 	 25.5035 	 70.236
| 25> C 	 10.8442 	 26.6006 	 70.2314
| 26> C 	 11.2189 	 26.977 	 68.8875
| 27> C 	 10.845 	 26.0581 	 67.8856
| 28> H 	 11.1148 	 27.0869 	 71.126
| 29> C 	 12.0022 	 28.2162 	 68.6075
| 30> H 	 11.8434 	 28.7488 	 67.649
| 31> H 	 13.0666 	 28.0274 	 68.5378
| 32> C 	 12.0019 	 29.2999 	 69.6377
| 33> H 	 13.0526 	 29.7422 	 69.6883
| 34> H 	 11.691 	 28.9983 	 70.612
| 35> C 	 11.1686 	 30.4899 	 69.0597
| 36> H 	 11.597 	 30.9921 	 68.19
| 37> H 	 10.8644 	 31.2084 	 69.7753
| 38> H 	 10.1846 	 30.0952 	 68.7586
| 39> H 	 10.3064 	 25.2896 	 63.0127
| 40> H 	 9.60282 	 25.1215 	 71.2127
| 41> *
| 42>
| 43>                          ****END OF INPUT****

CARTESIAN COORDINATES (ANGSTROEM)
---------------------------------
  S     10.868000   24.771400   65.433800
  C     10.358200   25.642300   64.051900
  C     10.149200   26.976300   64.378600
  C     10.367800   27.276000   65.770100
  C     10.765700   26.163400   66.468100
  H     10.216000   28.268400   66.203200
  C      9.626210   28.081300   63.484200
  H     10.452100   28.549900   62.860400
  H      9.295110   28.907200   64.154900
  C      8.309100   27.804600   62.692100
  H      8.050640   28.586200   62.027400
  H      8.436680   26.926600   62.028500
  C      7.119620   27.467400   63.602400
  H      6.816760   28.238800   64.328000
  H      6.241760   27.097600   63.056600
  H      7.471660   26.612200   64.180600
  S      9.788220   24.856500   68.553100
  C     10.030500   25.503500   70.236000
  C     10.844200   26.600600   70.231400
  C     11.218900   26.977000   68.887500
  C     10.845000   26.058100   67.885600
  H     11.114800   27.086900   71.126000
  C     12.002200   28.216200   68.607500
  H     11.843400   28.748800   67.649000
  H     13.066600   28.027400   68.537800
  C     12.001900   29.299900   69.637700
  H     13.052600   29.742200   69.688300
  H     11.691000   28.998300   70.612000
  C     11.168600   30.489900   69.059700
  H     11.597000   30.992100   68.190000
  H     10.864400   31.208400   69.775300
  H     10.184600   30.095200   68.758600
  H     10.306400   25.289600   63.012700
  H      9.602820   25.121500   71.212700

 Total Charge           Charge          ....    0
 Multiplicity           Mult            ....    1
 Number of Electrons    NEL             ....  134
 Basis Dimension        Dim             ....  322

ORBITAL ENERGIES
----------------

  NO   OCC          E(Eh)            E(eV)
   0   2.0000     -88.969642     -2420.9871
   1   2.0000     -88.965822     -2420.8831
   2   2.0000     -10.326860      -281.0082
   3   2.0000     -10.326233      -280.9911
   4   2.0000     -10.324731      -280.9502
   5   2.0000     -10.314804      -280.6801
   6   2.0000     -10.308353      -280.5045
   7   2.0000     -10.301699      -280.3235
   8   2.0000     -10.299076      -280.2521
   9   2.0000     -10.296091      -280.1709
  10   2.0000     -10.294123      -280.1173
  11   2.0000     -10.288976      -279.9773
  12   2.0000     -10.286602      -279.9127
  13   2.0000     -10.284333      -279.8509
  14   2.0000     -10.276122      -279.6275
  15   2.0000     -10.273866      -279.5661
  16   2.0000      -8.085049      -220.0054
  17   2.0000      -8.079796      -219.8624
  18   2.0000      -6.043540      -164.4531
  19   2.0000      -6.039361      -164.3394
  20   2.0000      -6.038573      -164.3179
  21   2.0000      -6.035876      -164.2445
  22   2.0000      -6.034351      -164.2030
  23   2.0000      -6.030333      -164.0937
  24   2.0000      -1.013104       -27.5680
  25   2.0000      -0.983462       -26.7614
  26   2.0000      -0.917254       -24.9598
  27   2.0000      -0.907521       -24.6949
  28   2.0000      -0.876524       -23.8514
  29   2.0000      -0.852083       -23.1864
  30   2.0000      -0.841200       -22.8902
  31   2.0000      -0.815446       -22.1894
  32   2.0000      -0.778116       -21.1736
  33   2.0000      -0.770357       -20.9625
  34   2.0000      -0.709765       -19.3137
  35   2.0000      -0.704286       -19.1646
  36   2.0000      -0.695058       -18.9135
  37   2.0000      -0.658391       -17.9157
  38   2.0000      -0.639058       -17.3897
  39   2.0000      -0.617565       -16.8048
  40   2.0000      -0.603760       -16.4291
  41   2.0000      -0.574789       -15.6408
  42   2.0000      -0.556436       -15.1414
  43   2.0000      -0.551916       -15.0184
  44   2.0000      -0.545206       -14.8358
  45   2.0000      -0.530188       -14.4271
  46   2.0000      -0.519407       -14.1338
  47   2.0000      -0.509809       -13.8726
  48   2.0000      -0.501194       -13.6382
  49   2.0000      -0.497056       -13.5256
  50   2.0000      -0.487498       -13.2655
  51   2.0000      -0.476345       -12.9620
  52   2.0000      -0.471754       -12.8371
  53   2.0000      -0.468869       -12.7586
  54   2.0000      -0.460980       -12.5439
  55   2.0000      -0.449918       -12.2429
  56   2.0000      -0.442144       -12.0313
  57   2.0000      -0.437836       -11.9141
  58   2.0000      -0.434742       -11.8299
  59   2.0000      -0.420581       -11.4446
  60   2.0000      -0.418718       -11.3939
  61   2.0000      -0.410947       -11.1824
  62   2.0000      -0.407488       -11.0883
  63   2.0000      -0.359573        -9.7845
  64   2.0000      -0.332387        -9.0447
  65   2.0000      -0.323893        -8.8136
  66   2.0000      -0.286879        -7.8064
  67   0.0000       0.025272         0.6877
  68   0.0000       0.070660         1.9227
  69   0.0000       0.106469         2.8972
  70   0.0000       0.117658         3.2016
  71   0.0000       0.128161         3.4874

MULLIKEN ATOMIC CHARGES
-----------------------
   0 S :    0.124711
   1 C :   -0.117810
   2 C :   -0.112641
   3 C :    0.021798
   4 C :   -0.151015
   5 H :    0.023608
   6 C :    0.024255
   7 H :    0.057172
   8 H :    0.020420
   9 C :   -0.052111
  10 H :    0.022344
  11 H :    0.021088
  12 C :   -0.077380
  13 H :    0.035927
  14 H :    0.037561
  15 H :    0.038792
  16 S :    0.092440
  17 C :   -0.107739
  18 C :   -0.009256
  19 C :   -0.031863
  20 C :   -0.093542
  21 H :    0.009032
  22 C :    0.054498
  23 H :    0.016240
  24 H :    0.032846
  25 C :   -0.089027
  26 H :    0.037716
  27 H :    0.021838
  28 C :   -0.072491
  29 H :    0.043594
  30 H :    0.020813
  31 H :    0.024218
  32 H :    0.060120
  33 H :    0.073843
Sum of atomic charges:   -0.0000000

LOEWDIN ATOMIC CHARGES
----------------------
   0 S :    0.433010
   1 C :   -0.218399
   2 C :   -0.067162
   3 C :   -0.058626
   4 C :   -0.202818
   5 H :    0.033814
   6 C :   -0.041350
   7 H :    0.040416
   8 H :    0.031195
   9 C :   -0.040250
  10 H :    0.016998
  11 H :    0.022190
  12 C :   -0.071865
  13 H :    0.024319
  14 H :    0.028356
  15 H :    0.028434
  16 S :    0.391598
  17 C :   -0.173511
  18 C :   -0.066821
  19 C :   -0.051707
  20 C :   -0.202263
  21 H :    0.026639
  22 C :   -0.047652
  23 H :    0.034299
  24 H :    0.040090
  25 C :   -0.035979
  26 H :    0.033090
  27 H :    0.015736
  28 C :   -0.070271
  29 H :    0.025576
  30 H :    0.016841
  31 H :    0.023815
  32 H :    0.037396
  33 H :    0.044862

  Mayer bond orders larger than 0.100000
B(  0-S ,  1-C ) :   1.1383 B(  0-S ,  4-C ) :   1.1624 B(  1-C ,  2-C ) :   1.5918
B(  1-C , 32-H ) :   0.9687 B(  2-C ,  3-C ) :   1.2686 B(  2-C ,  6-C ) :   1.0168
B(  3-C ,  4-C ) :   1.5486 B(  3-C ,  5-H ) :   0.9834 B(  4-C , 20-C ) :   1.0439
B(  6-C ,  7-H ) :   0.9370 B(  6-C ,  8-H ) :   0.9489 B(  6-C ,  9-C ) :   1.0640
B(  9-C , 10-H ) :   0.9583 B(  9-C , 11-H ) :   0.9556 B(  9-C , 12-C ) :   1.0705
B( 12-C , 13-H ) :   0.9764 B( 12-C , 14-H ) :   0.9737 B( 12-C , 15-H ) :   0.9745
B( 16-S , 17-C ) :   1.1396 B( 16-S , 20-C ) :   1.1315 B( 17-C , 18-C ) :   1.6352
B( 17-C , 33-H ) :   0.9544 B( 18-C , 19-C ) :   1.2271 B( 18-C , 21-H ) :   0.9916
B( 19-C , 20-C ) :   1.5857 B( 19-C , 22-C ) :   1.0457 B( 22-C , 23-H ) :   0.9422
B( 22-C , 24-H ) :   0.9214 B( 22-C , 25-C ) :   1.0546 B( 25-C , 26-H ) :   0.9600
B( 25-C , 27-H ) :   0.9584 B( 25-C , 28-C ) :   1.0777 B( 28-C , 29-H ) :   0.9739
B( 28-C , 30-H ) :   0.9739 B( 28-C , 31-H ) :   0.9769

Dispersion correction           -0.014354552
FINAL SINGLE POINT ENERGY     -1339.863386819474

DIPOLE MOMENT
-------------
                                X             Y             Z
Electronic contribution:      5.01858     -24.78444       5.07375
Nuclear contribution   :     -5.04828      25.45105      -5.02799
                        -----------------------------------------
Total Dipole Moment    :     -0.02970       0.66662       0.04576
                        -----------------------------------------
Magnitude (a.u.)       :      0.66884
Magnitude (Debye)      :      1.70007

Rotational constants in cm-1:     0.018569     0.008911     0.007125
Rotational constants in MHz :   556.688264   267.151465   213.612858

                             ****ORCA TERMINATED NORMALLY****
TOTAL RUN TIME: 0 days 0 hours 0 minutes 35 seconds 707 msec
