                         Program Version 4.2.1 -  RELEASE  -
|  1> ! wB97X-D3 SP def2-SVP
|  2> %pal
|  3> nprocs 16
|  4> end
|  5>
|  6> * xyz 0 1
|  7> S 	 -31.0629 	 65.9708 	 105.442
|  8> C 	 -29.4653 	 65.5913 	 104.938
|  9> C 	 -28.7054 	 66.6418 	 104.413
| 10> C 	 -29.5944 	 67.8196 	 104.367
| 11> C 	 -30.951 	 67.6001 	 104.713
| 12> H 	 -29.214 	 68.8437 	 104.142
| 13> C 	 -27.2274 	 66.6011 	 103.998
| 14> H 	 -27.1523 	 65.7336 	 103.282
| 15> H 	 -26.671 	 66.2403 	 104.969
| 16> C 	 -26.5169 	 67.859 	 103.449
| 17> H 	 -27.0146 	 68.1425 	 102.5
| 18> H 	 -26.5906 	 68.6604 	 104.193
| 19> C 	 -25.0276 	 67.5943 	 103.237
| 20> H 	 -24.5155 	 68.4647 	 102.82
| 21> H 	 -24.5994 	 67.4159 	 104.257
| 22> H 	 -24.7795 	 66.7341 	 102.667
| 23> S 	 -33.2613 	 68.4473 	 106.053
| 24> C 	 -33.9741 	 69.9675 	 105.607
| 25> C 	 -33.5002 	 70.3962 	 104.343
| 26> C 	 -32.4419 	 69.5447 	 103.84
| 27> C 	 -32.0824 	 68.5859 	 104.753
| 28> H 	 -33.9029 	 71.2949 	 103.934
| 29> C 	 -31.6733 	 69.7619 	 102.523
| 30> H 	 -30.9898 	 68.9426 	 102.261
| 31> H 	 -31.1112 	 70.6199 	 102.671
| 32> C 	 -32.6127 	 70.1111 	 101.336
| 33> H 	 -32.0997 	 70.7815 	 100.595
| 34> H 	 -33.4259 	 70.6883 	 101.701
| 35> C 	 -33.0771 	 68.9433 	 100.443
| 36> H 	 -33.7696 	 68.2439 	 100.846
| 37> H 	 -32.2717 	 68.3521 	 100.092
| 38> H 	 -33.7528 	 69.1615 	 99.6085
| 39> H 	 -28.9903 	 64.6085 	 105.026
| 40> H 	 -34.7882 	 70.5156 	 106.155
| 41> *
| 42>
| 43>                          ****END OF INPUT****

CARTESIAN COORDINATES (ANGSTROEM)
---------------------------------
  S    -31.062900   65.970800  105.442000
  C    -29.465300   65.591300  104.938000
  C    -28.705400   66.641800  104.413000
  C    -29.594400   67.819600  104.367000
  C    -30.951000   67.600100  104.713000
  H    -29.214000   68.843700  104.142000
  C    -27.227400   66.601100  103.998000
  H    -27.152300   65.733600  103.282000
  H    -26.671000   66.240300  104.969000
  C    -26.516900   67.859000  103.449000
  H    -27.014600   68.142500  102.500000
  H    -26.590600   68.660400  104.193000
  C    -25.027600   67.594300  103.237000
  H    -24.515500   68.464700  102.820000
  H    -24.599400   67.415900  104.257000
  H    -24.779500   66.734100  102.667000
  S    -33.261300   68.447300  106.053000
  C    -33.974100   69.967500  105.607000
  C    -33.500200   70.396200  104.343000
  C    -32.441900   69.544700  103.840000
  C    -32.082400   68.585900  104.753000
  H    -33.902900   71.294900  103.934000
  C    -31.673300   69.761900  102.523000
  H    -30.989800   68.942600  102.261000
  H    -31.111200   70.619900  102.671000
  C    -32.612700   70.111100  101.336000
  H    -32.099700   70.781500  100.595000
  H    -33.425900   70.688300  101.701000
  C    -33.077100   68.943300  100.443000
  H    -33.769600   68.243900  100.846000
  H    -32.271700   68.352100  100.092000
  H    -33.752800   69.161500   99.608500
  H    -28.990300   64.608500  105.026000
  H    -34.788200   70.515600  106.155000

 Total Charge           Charge          ....    0
 Multiplicity           Mult            ....    1
 Number of Electrons    NEL             ....  134
 Basis Dimension        Dim             ....  322

ORBITAL ENERGIES
----------------

  NO   OCC          E(Eh)            E(eV)
   0   2.0000     -88.968608     -2420.9589
   1   2.0000     -88.965851     -2420.8839
   2   2.0000     -10.338049      -281.3126
   3   2.0000     -10.329216      -281.0723
   4   2.0000     -10.325026      -280.9583
   5   2.0000     -10.313554      -280.6461
   6   2.0000     -10.311696      -280.5955
   7   2.0000     -10.309089      -280.5246
   8   2.0000     -10.306883      -280.4645
   9   2.0000     -10.304475      -280.3990
  10   2.0000     -10.299715      -280.2695
  11   2.0000     -10.297848      -280.2187
  12   2.0000     -10.289538      -279.9926
  13   2.0000     -10.288168      -279.9553
  14   2.0000     -10.282843      -279.8104
  15   2.0000     -10.267094      -279.3818
  16   2.0000      -8.082975      -219.9489
  17   2.0000      -8.080713      -219.8874
  18   2.0000      -6.041559      -164.3992
  19   2.0000      -6.039271      -164.3369
  20   2.0000      -6.037648      -164.2927
  21   2.0000      -6.035302      -164.2289
  22   2.0000      -6.033587      -164.1822
  23   2.0000      -6.031335      -164.1210
  24   2.0000      -1.000231       -27.2177
  25   2.0000      -0.978582       -26.6286
  26   2.0000      -0.909433       -24.7469
  27   2.0000      -0.904376       -24.6093
  28   2.0000      -0.864175       -23.5154
  29   2.0000      -0.849664       -23.1205
  30   2.0000      -0.841326       -22.8937
  31   2.0000      -0.809785       -22.0354
  32   2.0000      -0.785372       -21.3711
  33   2.0000      -0.771690       -20.9988
  34   2.0000      -0.709855       -19.3161
  35   2.0000      -0.701308       -19.0836
  36   2.0000      -0.685434       -18.6516
  37   2.0000      -0.655117       -17.8266
  38   2.0000      -0.630900       -17.1676
  39   2.0000      -0.615441       -16.7470
  40   2.0000      -0.595708       -16.2101
  41   2.0000      -0.573565       -15.6075
  42   2.0000      -0.564065       -15.3490
  43   2.0000      -0.552930       -15.0460
  44   2.0000      -0.535983       -14.5848
  45   2.0000      -0.525989       -14.3129
  46   2.0000      -0.512192       -13.9375
  47   2.0000      -0.504343       -13.7239
  48   2.0000      -0.500871       -13.6294
  49   2.0000      -0.494080       -13.4446
  50   2.0000      -0.483425       -13.1547
  51   2.0000      -0.477903       -13.0044
  52   2.0000      -0.468810       -12.7570
  53   2.0000      -0.465236       -12.6597
  54   2.0000      -0.456567       -12.4238
  55   2.0000      -0.451578       -12.2881
  56   2.0000      -0.443629       -12.0718
  57   2.0000      -0.438358       -11.9283
  58   2.0000      -0.434465       -11.8224
  59   2.0000      -0.429719       -11.6932
  60   2.0000      -0.426193       -11.5973
  61   2.0000      -0.424014       -11.5380
  62   2.0000      -0.403757       -10.9868
  63   2.0000      -0.351686        -9.5699
  64   2.0000      -0.330185        -8.9848
  65   2.0000      -0.324419        -8.8279
  66   2.0000      -0.282415        -7.6849
  67   0.0000       0.025546         0.6951
  68   0.0000       0.069418         1.8890
  69   0.0000       0.099844         2.7169
  70   0.0000       0.115386         3.1398
  71   0.0000       0.135845         3.6965

MULLIKEN ATOMIC CHARGES
-----------------------
   0 S :    0.113059
   1 C :   -0.119143
   2 C :   -0.081418
   3 C :   -0.020499
   4 C :   -0.135088
   5 H :    0.033697
   6 C :   -0.028160
   7 H :    0.049186
   8 H :    0.051943
   9 C :   -0.066572
  10 H :    0.042129
  11 H :    0.041681
  12 C :   -0.038109
  13 H :    0.040569
  14 H :    0.028570
  15 H :    0.027155
  16 S :    0.103403
  17 C :   -0.111125
  18 C :   -0.043734
  19 C :   -0.039730
  20 C :   -0.150075
  21 H :    0.016969
  22 C :    0.111038
  23 H :    0.040032
  24 H :    0.019215
  25 C :   -0.078744
  26 H :    0.031065
  27 H :    0.016153
  28 C :   -0.034101
  29 H :    0.012709
  30 H :    0.022950
  31 H :    0.021751
  32 H :    0.045433
  33 H :    0.077790
Sum of atomic charges:    0.0000000

LOEWDIN ATOMIC CHARGES
----------------------
   0 S :    0.401998
   1 C :   -0.210952
   2 C :   -0.068465
   3 C :   -0.070465
   4 C :   -0.184814
   5 H :    0.033484
   6 C :   -0.046589
   7 H :    0.038900
   8 H :    0.044462
   9 C :   -0.043613
  10 H :    0.027543
  11 H :    0.028550
  12 C :   -0.062033
  13 H :    0.029142
  14 H :    0.030678
  15 H :    0.019112
  16 S :    0.397912
  17 C :   -0.194549
  18 C :   -0.071435
  19 C :   -0.052271
  20 C :   -0.193013
  21 H :    0.026140
  22 C :   -0.020694
  23 H :    0.034866
  24 H :    0.025497
  25 C :   -0.036013
  26 H :    0.030005
  27 H :    0.017168
  28 C :   -0.075325
  29 H :    0.021913
  30 H :    0.020004
  31 H :    0.030613
  32 H :    0.029628
  33 H :    0.042613

  Mayer bond orders larger than 0.100000
B(  0-S ,  1-C ) :   1.1527 B(  0-S ,  4-C ) :   1.1358 B(  1-C ,  2-C ) :   1.6208
B(  1-C , 32-H ) :   0.9633 B(  2-C ,  3-C ) :   1.2523 B(  2-C ,  6-C ) :   0.9962
B(  3-C ,  4-C ) :   1.5613 B(  3-C ,  5-H ) :   0.9787 B(  4-C , 20-C ) :   1.0573
B(  6-C ,  7-H ) :   0.9418 B(  6-C ,  8-H ) :   0.9420 B(  6-C ,  9-C ) :   1.0754
B(  9-C , 10-H ) :   0.9505 B(  9-C , 11-H ) :   0.9507 B(  9-C , 12-C ) :   1.0847
B( 12-C , 13-H ) :   0.9731 B( 12-C , 14-H ) :   0.9730 B( 12-C , 15-H ) :   0.9769
B( 16-S , 17-C ) :   1.1591 B( 16-S , 20-C ) :   1.1245 B( 17-C , 18-C ) :   1.6173
B( 17-C , 33-H ) :   0.9615 B( 18-C , 19-C ) :   1.2092 B( 18-C , 21-H ) :   0.9921
B( 19-C , 20-C ) :   1.6153 B( 19-C , 22-C ) :   1.0348 B( 22-C , 23-H ) :   0.9392
B( 22-C , 24-H ) :   0.9271 B( 22-C , 25-C ) :   1.0604 B( 25-C , 26-H ) :   0.9581
B( 25-C , 27-H ) :   0.9581 B( 25-C , 28-C ) :   1.0748 B( 28-C , 29-H ) :   0.9718
B( 28-C , 30-H ) :   0.9751 B( 28-C , 31-H ) :   0.9703

Dispersion correction           -0.013374961
FINAL SINGLE POINT ENERGY     -1339.863445773142

DIPOLE MOMENT
-------------
                                X             Y             Z
Electronic contribution:    -18.27027      -7.26405      21.61203
Nuclear contribution   :     18.76705       7.62416     -22.02321
                        -----------------------------------------
Total Dipole Moment    :      0.49677       0.36011      -0.41118
                        -----------------------------------------
Magnitude (a.u.)       :      0.73860
Magnitude (Debye)      :      1.87738

Rotational constants in cm-1:     0.017495     0.008049     0.006379
Rotational constants in MHz :   524.496568   241.303446   191.230885

                             ****ORCA TERMINATED NORMALLY****
TOTAL RUN TIME: 0 days 0 hours 0 minutes 28 seconds 757 msec
