                         Program Version 4.2.1 -  RELEASE  -
|  1> ! wB97X-D3 SP def2-SVP
|  2> %pal
|  3> nprocs 16
|  4> end
|  5>
|  6> * xyz 0 1
|  7> S 	 -1.94202 	 74.9718 	 51.1278
|  8> C 	 -1.88815 	 76.5128 	 51.9525
|  9> C 	 -1.61734 	 77.4911 	 51.0471
| 10> C 	 -1.62312 	 77.1109 	 49.6624
| 11> C 	 -1.97118 	 75.7847 	 49.5539
| 12> H 	 -1.49031 	 77.7913 	 48.8573
| 13> C 	 -1.18276 	 78.9281 	 51.444
| 14> H 	 -0.0959009 	 78.9028 	 51.3524
| 15> H 	 -1.33508 	 79.0247 	 52.4892
| 16> C 	 -1.87702 	 80.0959 	 50.6144
| 17> H 	 -1.7582 	 79.882 	 49.5651
| 18> H 	 -2.85682 	 80.1351 	 50.8244
| 19> C 	 -1.23316 	 81.5143 	 50.8998
| 20> H 	 -1.38694 	 81.912 	 51.901
| 21> H 	 -0.140082 	 81.5395 	 50.7709
| 22> H 	 -1.77567 	 82.2118 	 50.2164
| 23> S 	 -0.410357 	 74.1817 	 47.8406
| 24> C 	 -1.02365 	 73.5958 	 46.3398
| 25> C 	 -2.30172 	 74.0317 	 46.1336
| 26> C 	 -2.84307 	 74.777 	 47.2577
| 27> C 	 -1.93049 	 74.948 	 48.2537
| 28> H 	 -2.73651 	 73.6837 	 45.159
| 29> C 	 -4.19736 	 75.3664 	 47.134
| 30> H 	 -4.42504 	 75.6456 	 46.1276
| 31> H 	 -4.18166 	 76.3523 	 47.6192
| 32> C 	 -5.32929 	 74.506 	 47.7207
| 33> H 	 -4.98494 	 74.3125 	 48.7146
| 34> H 	 -5.25845 	 73.5355 	 47.1765
| 35> C 	 -6.72818 	 75.021 	 47.7507
| 36> H 	 -6.9121 	 75.3485 	 46.7321
| 37> H 	 -6.71889 	 75.8841 	 48.4207
| 38> H 	 -7.43053 	 74.2649 	 47.9814
| 39> H 	 -1.69707 	 76.6061 	 53.0722
| 40> H 	 -0.431125 	 73.0857 	 45.58
| 41> *
| 42>
| 43>                          ****END OF INPUT****

CARTESIAN COORDINATES (ANGSTROEM)
---------------------------------
  S     -1.942020   74.971800   51.127800
  C     -1.888150   76.512800   51.952500
  C     -1.617340   77.491100   51.047100
  C     -1.623120   77.110900   49.662400
  C     -1.971180   75.784700   49.553900
  H     -1.490310   77.791300   48.857300
  C     -1.182760   78.928100   51.444000
  H     -0.095901   78.902800   51.352400
  H     -1.335080   79.024700   52.489200
  C     -1.877020   80.095900   50.614400
  H     -1.758200   79.882000   49.565100
  H     -2.856820   80.135100   50.824400
  C     -1.233160   81.514300   50.899800
  H     -1.386940   81.912000   51.901000
  H     -0.140082   81.539500   50.770900
  H     -1.775670   82.211800   50.216400
  S     -0.410357   74.181700   47.840600
  C     -1.023650   73.595800   46.339800
  C     -2.301720   74.031700   46.133600
  C     -2.843070   74.777000   47.257700
  C     -1.930490   74.948000   48.253700
  H     -2.736510   73.683700   45.159000
  C     -4.197360   75.366400   47.134000
  H     -4.425040   75.645600   46.127600
  H     -4.181660   76.352300   47.619200
  C     -5.329290   74.506000   47.720700
  H     -4.984940   74.312500   48.714600
  H     -5.258450   73.535500   47.176500
  C     -6.728180   75.021000   47.750700
  H     -6.912100   75.348500   46.732100
  H     -6.718890   75.884100   48.420700
  H     -7.430530   74.264900   47.981400
  H     -1.697070   76.606100   53.072200
  H     -0.431125   73.085700   45.580000

 Total Charge           Charge          ....    0
 Multiplicity           Mult            ....    1
 Number of Electrons    NEL             ....  134
 Basis Dimension        Dim             ....  322

ORBITAL ENERGIES
----------------

  NO   OCC          E(Eh)            E(eV)
   0   2.0000     -88.964992     -2420.8605
   1   2.0000     -88.961223     -2420.7580
   2   2.0000     -10.338737      -281.3313
   3   2.0000     -10.329069      -281.0682
   4   2.0000     -10.316440      -280.7246
   5   2.0000     -10.313061      -280.6327
   6   2.0000     -10.302206      -280.3373
   7   2.0000     -10.300480      -280.2903
   8   2.0000     -10.296558      -280.1836
   9   2.0000     -10.294476      -280.1269
  10   2.0000     -10.292966      -280.0858
  11   2.0000     -10.287705      -279.9427
  12   2.0000     -10.286284      -279.9040
  13   2.0000     -10.282389      -279.7980
  14   2.0000     -10.275200      -279.6024
  15   2.0000     -10.270225      -279.4670
  16   2.0000      -8.079570      -219.8563
  17   2.0000      -8.076658      -219.7770
  18   2.0000      -6.038173      -164.3070
  19   2.0000      -6.035150      -164.2248
  20   2.0000      -6.034249      -164.2003
  21   2.0000      -6.031009      -164.1121
  22   2.0000      -6.030062      -164.0863
  23   2.0000      -6.027449      -164.0152
  24   2.0000      -1.005450       -27.3597
  25   2.0000      -0.987782       -26.8789
  26   2.0000      -0.911574       -24.8052
  27   2.0000      -0.900173       -24.4950
  28   2.0000      -0.863684       -23.5020
  29   2.0000      -0.853049       -23.2126
  30   2.0000      -0.845393       -23.0043
  31   2.0000      -0.818419       -22.2703
  32   2.0000      -0.781321       -21.2608
  33   2.0000      -0.769531       -20.9400
  34   2.0000      -0.714049       -19.4303
  35   2.0000      -0.694850       -18.9078
  36   2.0000      -0.685911       -18.6646
  37   2.0000      -0.656417       -17.8620
  38   2.0000      -0.640162       -17.4197
  39   2.0000      -0.622573       -16.9411
  40   2.0000      -0.595179       -16.1956
  41   2.0000      -0.566475       -15.4146
  42   2.0000      -0.564302       -15.3554
  43   2.0000      -0.557401       -15.1676
  44   2.0000      -0.527829       -14.3630
  45   2.0000      -0.524214       -14.2646
  46   2.0000      -0.514054       -13.9881
  47   2.0000      -0.513288       -13.9673
  48   2.0000      -0.508359       -13.8332
  49   2.0000      -0.493801       -13.4370
  50   2.0000      -0.489183       -13.3113
  51   2.0000      -0.484026       -13.1710
  52   2.0000      -0.470008       -12.7896
  53   2.0000      -0.463522       -12.6131
  54   2.0000      -0.459597       -12.5063
  55   2.0000      -0.451281       -12.2800
  56   2.0000      -0.446184       -12.1413
  57   2.0000      -0.442508       -12.0413
  58   2.0000      -0.430021       -11.7015
  59   2.0000      -0.424727       -11.5574
  60   2.0000      -0.417969       -11.3735
  61   2.0000      -0.410170       -11.1613
  62   2.0000      -0.407818       -11.0973
  63   2.0000      -0.338833        -9.2201
  64   2.0000      -0.326862        -8.8944
  65   2.0000      -0.324630        -8.8336
  66   2.0000      -0.314891        -8.5686
  67   0.0000       0.044293         1.2053
  68   0.0000       0.058733         1.5982
  69   0.0000       0.112504         3.0614
  70   0.0000       0.122533         3.3343
  71   0.0000       0.138988         3.7821

MULLIKEN ATOMIC CHARGES
-----------------------
   0 S :    0.096839
   1 C :   -0.133822
   2 C :   -0.121544
   3 C :    0.063925
   4 C :   -0.145282
   5 H :    0.013516
   6 C :    0.075017
   7 H :    0.039026
   8 H :    0.002994
   9 C :   -0.038268
  10 H :    0.030104
  11 H :    0.014749
  12 C :   -0.078969
  13 H :    0.031779
  14 H :    0.038792
  15 H :    0.041029
  16 S :    0.106875
  17 C :   -0.102127
  18 C :   -0.057896
  19 C :   -0.027469
  20 C :   -0.171027
  21 H :    0.037108
  22 C :    0.086053
  23 H :    0.003672
  24 H :    0.011306
  25 C :   -0.101068
  26 H :    0.017264
  27 H :    0.020359
  28 C :    0.023393
  29 H :    0.014630
  30 H :    0.033623
  31 H :    0.036084
  32 H :    0.078234
  33 H :    0.061103
Sum of atomic charges:    0.0000000

LOEWDIN ATOMIC CHARGES
----------------------
   0 S :    0.394804
   1 C :   -0.214533
   2 C :   -0.065781
   3 C :   -0.053707
   4 C :   -0.177920
   5 H :    0.029712
   6 C :   -0.026511
   7 H :    0.033817
   8 H :    0.020027
   9 C :   -0.020809
  10 H :    0.021704
  11 H :    0.010344
  12 C :   -0.068716
  13 H :    0.022421
  14 H :    0.026237
  15 H :    0.031734
  16 S :    0.409174
  17 C :   -0.194570
  18 C :   -0.080967
  19 C :   -0.056546
  20 C :   -0.200520
  21 H :    0.041821
  22 C :   -0.033429
  23 H :    0.021925
  24 H :    0.028792
  25 C :   -0.042591
  26 H :    0.018009
  27 H :    0.023531
  28 C :   -0.056067
  29 H :    0.023576
  30 H :    0.029472
  31 H :    0.025925
  32 H :    0.046242
  33 H :    0.033403

  Mayer bond orders larger than 0.100000
B(  0-S ,  1-C ) :   1.1181 B(  0-S ,  4-C ) :   1.1647 B(  1-C ,  2-C ) :   1.6532
B(  1-C , 32-H ) :   0.9543 B(  2-C ,  3-C ) :   1.2226 B(  2-C ,  6-C ) :   1.0151
B(  3-C ,  4-C ) :   1.5920 B(  3-C ,  5-H ) :   0.9995 B(  4-C , 20-C ) :   0.9628
B(  6-C ,  7-H ) :   0.9420 B(  6-C ,  8-H ) :   0.9435 B(  6-C ,  9-C ) :   1.0493
B(  9-C , 10-H ) :   0.9596 B(  9-C , 11-H ) :   0.9603 B(  9-C , 12-C ) :   1.0772
B( 12-C , 13-H ) :   0.9785 B( 12-C , 14-H ) :   0.9786 B( 12-C , 15-H ) :   0.9760
B( 16-S , 17-C ) :   1.1549 B( 16-S , 20-C ) :   1.1456 B( 17-C , 18-C ) :   1.6447
B( 17-C , 33-H ) :   0.9628 B( 18-C , 19-C ) :   1.2075 B( 18-C , 21-H ) :   0.9848
B( 19-C , 20-C ) :   1.6514 B( 19-C , 22-C ) :   1.0542 B( 22-C , 23-H ) :   0.9290
B( 22-C , 24-H ) :   0.9242 B( 22-C , 25-C ) :   1.0594 B( 25-C , 26-H ) :   0.9547
B( 25-C , 27-H ) :   0.9525 B( 25-C , 28-C ) :   1.0887 B( 28-C , 29-H ) :   0.9702
B( 28-C , 30-H ) :   0.9720 B( 28-C , 31-H ) :   0.9704

Dispersion correction           -0.013581116
FINAL SINGLE POINT ENERGY     -1339.868804713571

DIPOLE MOMENT
-------------
                                X             Y             Z
Electronic contribution:     14.37231     -20.33624       1.23605
Nuclear contribution   :    -14.41854      20.87991      -1.43683
                        -----------------------------------------
Total Dipole Moment    :     -0.04623       0.54367      -0.20078
                        -----------------------------------------
Magnitude (a.u.)       :      0.58140
Magnitude (Debye)      :      1.47781

Rotational constants in cm-1:     0.017016     0.007737     0.006841
Rotational constants in MHz :   510.133866   231.949526   205.081171

                             ****ORCA TERMINATED NORMALLY****
TOTAL RUN TIME: 0 days 0 hours 0 minutes 32 seconds 813 msec
