                         Program Version 4.2.1 -  RELEASE  -
|  1> ! wB97X-D3 SP def2-SVP
|  2> %pal
|  3> nprocs 16
|  4> end
|  5>
|  6> * xyz 0 1
|  7> S 	 -55.1629 	 29.2709 	 100.492
|  8> C 	 -56.6087 	 29.2106 	 99.4396
|  9> C 	 -56.2087 	 29.5799 	 98.1167
| 10> C 	 -54.8504 	 29.9306 	 98.0536
| 11> C 	 -54.149 	 29.912 	 99.2023
| 12> H 	 -54.3988 	 30.1159 	 97.1646
| 13> C 	 -57.0141 	 29.5713 	 96.8301
| 14> H 	 -56.358 	 29.3612 	 96.0258
| 15> H 	 -57.3026 	 30.621 	 96.583
| 16> C 	 -58.2359 	 28.7014 	 96.8374
| 17> H 	 -58.022 	 27.6188 	 96.9221
| 18> H 	 -58.7908 	 28.8514 	 97.7554
| 19> C 	 -59.0557 	 28.6683 	 95.5603
| 20> H 	 -58.442 	 28.6942 	 94.6781
| 21> H 	 -59.788 	 27.9526 	 95.5729
| 22> H 	 -59.5935 	 29.6086 	 95.3503
| 23> S 	 -51.9366 	 28.8655 	 100.191
| 24> C 	 -50.3726 	 29.7024 	 100.271
| 25> C 	 -50.4826 	 30.9585 	 99.6449
| 26> C 	 -51.8741 	 31.2311 	 99.1853
| 27> C 	 -52.7691 	 30.2285 	 99.5097
| 28> H 	 -49.6249 	 31.653 	 99.4669
| 29> C 	 -52.1811 	 32.5512 	 98.4259
| 30> H 	 -53.1975 	 32.5877 	 97.9605
| 31> H 	 -51.5166 	 32.4516 	 97.548
| 32> C 	 -51.9943 	 33.8837 	 99.2425
| 33> H 	 -50.9837 	 33.8767 	 99.6472
| 34> H 	 -52.7427 	 34.0268 	 100.001
| 35> C 	 -52.2603 	 35.0526 	 98.2501
| 36> H 	 -51.4898 	 35.058 	 97.5188
| 37> H 	 -52.1309 	 36.0707 	 98.657
| 38> H 	 -53.2524 	 34.9343 	 97.808
| 39> H 	 -57.482 	 28.6517 	 99.7094
| 40> H 	 -49.5256 	 29.1845 	 100.637
| 41> *
| 42>
| 43>                          ****END OF INPUT****

CARTESIAN COORDINATES (ANGSTROEM)
---------------------------------
  S    -55.162900   29.270900  100.492000
  C    -56.608700   29.210600   99.439600
  C    -56.208700   29.579900   98.116700
  C    -54.850400   29.930600   98.053600
  C    -54.149000   29.912000   99.202300
  H    -54.398800   30.115900   97.164600
  C    -57.014100   29.571300   96.830100
  H    -56.358000   29.361200   96.025800
  H    -57.302600   30.621000   96.583000
  C    -58.235900   28.701400   96.837400
  H    -58.022000   27.618800   96.922100
  H    -58.790800   28.851400   97.755400
  C    -59.055700   28.668300   95.560300
  H    -58.442000   28.694200   94.678100
  H    -59.788000   27.952600   95.572900
  H    -59.593500   29.608600   95.350300
  S    -51.936600   28.865500  100.191000
  C    -50.372600   29.702400  100.271000
  C    -50.482600   30.958500   99.644900
  C    -51.874100   31.231100   99.185300
  C    -52.769100   30.228500   99.509700
  H    -49.624900   31.653000   99.466900
  C    -52.181100   32.551200   98.425900
  H    -53.197500   32.587700   97.960500
  H    -51.516600   32.451600   97.548000
  C    -51.994300   33.883700   99.242500
  H    -50.983700   33.876700   99.647200
  H    -52.742700   34.026800  100.001000
  C    -52.260300   35.052600   98.250100
  H    -51.489800   35.058000   97.518800
  H    -52.130900   36.070700   98.657000
  H    -53.252400   34.934300   97.808000
  H    -57.482000   28.651700   99.709400
  H    -49.525600   29.184500  100.637000

 Total Charge           Charge          ....    0
 Multiplicity           Mult            ....    1
 Number of Electrons    NEL             ....  134
 Basis Dimension        Dim             ....  322

ORBITAL ENERGIES
----------------

  NO   OCC          E(Eh)            E(eV)
   0   2.0000     -88.963153     -2420.8105
   1   2.0000     -88.961103     -2420.7547
   2   2.0000     -10.328105      -281.0420
   3   2.0000     -10.326905      -281.0094
   4   2.0000     -10.324613      -280.9470
   5   2.0000     -10.319994      -280.8213
   6   2.0000     -10.313744      -280.6512
   7   2.0000     -10.310663      -280.5674
   8   2.0000     -10.305934      -280.4387
   9   2.0000     -10.301446      -280.3166
  10   2.0000     -10.293375      -280.0970
  11   2.0000     -10.290530      -280.0196
  12   2.0000     -10.285496      -279.8826
  13   2.0000     -10.281189      -279.7654
  14   2.0000     -10.277539      -279.6661
  15   2.0000     -10.272135      -279.5190
  16   2.0000      -8.077208      -219.7920
  17   2.0000      -8.076156      -219.7634
  18   2.0000      -6.035823      -164.2431
  19   2.0000      -6.034847      -164.2165
  20   2.0000      -6.031729      -164.1317
  21   2.0000      -6.030484      -164.0978
  22   2.0000      -6.027957      -164.0291
  23   2.0000      -6.026798      -163.9975
  24   2.0000      -1.005851       -27.3706
  25   2.0000      -0.977991       -26.6125
  26   2.0000      -0.917019       -24.9534
  27   2.0000      -0.901651       -24.5352
  28   2.0000      -0.869517       -23.6607
  29   2.0000      -0.853621       -23.2282
  30   2.0000      -0.843224       -22.9453
  31   2.0000      -0.817245       -22.2384
  32   2.0000      -0.781199       -21.2575
  33   2.0000      -0.768534       -20.9129
  34   2.0000      -0.716895       -19.5077
  35   2.0000      -0.704104       -19.1596
  36   2.0000      -0.692437       -18.8422
  37   2.0000      -0.666445       -18.1349
  38   2.0000      -0.647858       -17.6291
  39   2.0000      -0.624437       -16.9918
  40   2.0000      -0.597584       -16.2611
  41   2.0000      -0.570750       -15.5309
  42   2.0000      -0.564988       -15.3741
  43   2.0000      -0.557554       -15.1718
  44   2.0000      -0.538749       -14.6601
  45   2.0000      -0.524634       -14.2760
  46   2.0000      -0.521378       -14.1874
  47   2.0000      -0.517124       -14.0716
  48   2.0000      -0.508244       -13.8300
  49   2.0000      -0.496837       -13.5196
  50   2.0000      -0.488095       -13.2817
  51   2.0000      -0.479937       -13.0598
  52   2.0000      -0.473669       -12.8892
  53   2.0000      -0.465575       -12.6689
  54   2.0000      -0.452832       -12.3222
  55   2.0000      -0.449854       -12.2411
  56   2.0000      -0.446669       -12.1545
  57   2.0000      -0.445202       -12.1146
  58   2.0000      -0.431405       -11.7391
  59   2.0000      -0.429675       -11.6921
  60   2.0000      -0.422656       -11.5010
  61   2.0000      -0.409203       -11.1350
  62   2.0000      -0.402839       -10.9618
  63   2.0000      -0.346250        -9.4219
  64   2.0000      -0.329476        -8.9655
  65   2.0000      -0.324584        -8.8324
  66   2.0000      -0.295845        -8.0503
  67   0.0000       0.029124         0.7925
  68   0.0000       0.065956         1.7947
  69   0.0000       0.104484         2.8432
  70   0.0000       0.118565         3.2263
  71   0.0000       0.134840         3.6692

MULLIKEN ATOMIC CHARGES
-----------------------
   0 S :    0.093564
   1 C :   -0.127565
   2 C :   -0.092792
   3 C :    0.061402
   4 C :   -0.128246
   5 H :   -0.037561
   6 C :    0.093983
   7 H :    0.009953
   8 H :    0.039069
   9 C :   -0.105794
  10 H :    0.028327
  11 H :    0.026540
  12 C :    0.010715
  13 H :    0.017586
  14 H :    0.019196
  15 H :    0.009283
  16 S :    0.081494
  17 C :   -0.082085
  18 C :   -0.040687
  19 C :   -0.043032
  20 C :   -0.119530
  21 H :    0.044674
  22 C :    0.001552
  23 H :    0.025582
  24 H :    0.038934
  25 C :   -0.049570
  26 H :    0.031417
  27 H :    0.043121
  28 C :   -0.050851
  29 H :    0.014293
  30 H :    0.033695
  31 H :    0.038300
  32 H :    0.057933
  33 H :    0.057098
Sum of atomic charges:    0.0000000

LOEWDIN ATOMIC CHARGES
----------------------
   0 S :    0.389635
   1 C :   -0.195541
   2 C :   -0.048409
   3 C :   -0.059103
   4 C :   -0.184198
   5 H :    0.014708
   6 C :   -0.031092
   7 H :    0.025603
   8 H :    0.040558
   9 C :   -0.048639
  10 H :    0.030257
  11 H :    0.022510
  12 C :   -0.057338
  13 H :    0.026106
  14 H :    0.015774
  15 H :    0.023932
  16 S :    0.399962
  17 C :   -0.168692
  18 C :   -0.072206
  19 C :   -0.055586
  20 C :   -0.205038
  21 H :    0.038874
  22 C :   -0.037558
  23 H :    0.030887
  24 H :    0.034951
  25 C :   -0.030049
  26 H :    0.021941
  27 H :    0.026848
  28 C :   -0.066280
  29 H :    0.016822
  30 H :    0.027666
  31 H :    0.026866
  32 H :    0.023700
  33 H :    0.022127

  Mayer bond orders larger than 0.100000
B(  0-S ,  1-C ) :   1.1348 B(  0-S ,  4-C ) :   1.1495 B(  1-C ,  2-C ) :   1.5767
B(  1-C ,  4-C ) :   0.1104 B(  1-C , 32-H ) :   0.9685 B(  2-C ,  3-C ) :   1.2637
B(  2-C ,  6-C ) :   1.0159 B(  3-C ,  4-C ) :   1.5744 B(  3-C ,  5-H ) :   1.0193
B(  4-C , 20-C ) :   1.0015 B(  6-C ,  7-H ) :   0.9383 B(  6-C ,  8-H ) :   0.9273
B(  6-C ,  9-C ) :   1.0689 B(  9-C , 10-H ) :   0.9585 B(  9-C , 11-H ) :   0.9483
B(  9-C , 12-C ) :   1.0867 B( 12-C , 13-H ) :   0.9700 B( 12-C , 14-H ) :   0.9740
B( 12-C , 15-H ) :   0.9671 B( 16-S , 17-C ) :   1.1515 B( 16-S , 20-C ) :   1.1387
B( 17-C , 18-C ) :   1.5976 B( 17-C , 33-H ) :   0.9790 B( 18-C , 19-C ) :   1.2131
B( 18-C , 21-H ) :   0.9819 B( 19-C , 20-C ) :   1.6354 B( 19-C , 22-C ) :   1.0262
B( 22-C , 23-H ) :   0.9460 B( 22-C , 24-H ) :   0.9411 B( 22-C , 25-C ) :   1.0534
B( 25-C , 26-H ) :   0.9584 B( 25-C , 27-H ) :   0.9598 B( 25-C , 28-C ) :   1.0755
B( 28-C , 29-H ) :   0.9768 B( 28-C , 30-H ) :   0.9743 B( 28-C , 31-H ) :   0.9748

Dispersion correction           -0.013008268
FINAL SINGLE POINT ENERGY     -1339.860939911201

DIPOLE MOMENT
-------------
                                X             Y             Z
Electronic contribution:     11.38111     -14.94038      19.17885
Nuclear contribution   :    -11.31005      15.21400     -19.87523
                        -----------------------------------------
Total Dipole Moment    :      0.07107       0.27362      -0.69638
                        -----------------------------------------
Magnitude (a.u.)       :      0.75158
Magnitude (Debye)      :      1.91036

Rotational constants in cm-1:     0.019009     0.007309     0.005858
Rotational constants in MHz :   569.867712   219.127123   175.623622

                             ****ORCA TERMINATED NORMALLY****
TOTAL RUN TIME: 0 days 0 hours 0 minutes 28 seconds 404 msec
