                         Program Version 4.2.1 -  RELEASE  -
|  1> ! wB97X-D3 SP def2-SVP
|  2> %pal
|  3> nprocs 16
|  4> end
|  5>
|  6> * xyz 0 1
|  7> S 	 -15.8199 	 -2.26846 	 82.0226
|  8> C 	 -14.9129 	 -1.57662 	 83.3653
|  9> C 	 -14.7298 	 -0.247942 	 83.0846
| 10> C 	 -15.3297 	 0.279 	 81.9364
| 11> C 	 -15.9175 	 -0.741928 	 81.1934
| 12> H 	 -15.4913 	 1.31831 	 81.7127
| 13> C 	 -14.1561 	 0.756785 	 84.0163
| 14> H 	 -13.8254 	 1.7075 	 83.4962
| 15> H 	 -13.2084 	 0.419907 	 84.515
| 16> C 	 -15.1042 	 1.04369 	 85.1945
| 17> H 	 -15.9382 	 1.5507 	 84.6932
| 18> H 	 -15.4766 	 0.143499 	 85.6647
| 19> C 	 -14.4645 	 1.90607 	 86.2837
| 20> H 	 -15.3319 	 2.20619 	 86.8009
| 21> H 	 -13.716 	 1.37914 	 86.9445
| 22> H 	 -13.8415 	 2.7972 	 85.9023
| 23> S 	 -16.2578 	 -1.68276 	 78.5984
| 24> C 	 -17.4499 	 -0.990201 	 77.5481
| 25> C 	 -18.1308 	 0.0377624 	 78.2151
| 26> C 	 -17.7277 	 0.250909 	 79.5889
| 27> C 	 -16.7251 	 -0.609055 	 79.9644
| 28> H 	 -18.9453 	 0.609618 	 77.7292
| 29> C 	 -18.5047 	 1.20337 	 80.4557
| 30> H 	 -17.9445 	 1.17172 	 81.4931
| 31> H 	 -19.4383 	 0.683012 	 80.6845
| 32> C 	 -18.7852 	 2.57699 	 79.8474
| 33> H 	 -19.8484 	 2.80398 	 79.7829
| 34> H 	 -18.4633 	 2.63495 	 78.7891
| 35> C 	 -17.9864 	 3.69368 	 80.4836
| 36> H 	 -18.2466 	 3.94315 	 81.4625
| 37> H 	 -18.0725 	 4.60615 	 79.9682
| 38> H 	 -16.8643 	 3.59377 	 80.3898
| 39> H 	 -14.4923 	 -2.05029 	 84.2645
| 40> H 	 -17.6168 	 -1.26497 	 76.58
| 41> *
| 42>
| 43>                          ****END OF INPUT****

CARTESIAN COORDINATES (ANGSTROEM)
---------------------------------
  S    -15.819900   -2.268460   82.022600
  C    -14.912900   -1.576620   83.365300
  C    -14.729800   -0.247942   83.084600
  C    -15.329700    0.279000   81.936400
  C    -15.917500   -0.741928   81.193400
  H    -15.491300    1.318310   81.712700
  C    -14.156100    0.756785   84.016300
  H    -13.825400    1.707500   83.496200
  H    -13.208400    0.419907   84.515000
  C    -15.104200    1.043690   85.194500
  H    -15.938200    1.550700   84.693200
  H    -15.476600    0.143499   85.664700
  C    -14.464500    1.906070   86.283700
  H    -15.331900    2.206190   86.800900
  H    -13.716000    1.379140   86.944500
  H    -13.841500    2.797200   85.902300
  S    -16.257800   -1.682760   78.598400
  C    -17.449900   -0.990201   77.548100
  C    -18.130800    0.037762   78.215100
  C    -17.727700    0.250909   79.588900
  C    -16.725100   -0.609055   79.964400
  H    -18.945300    0.609618   77.729200
  C    -18.504700    1.203370   80.455700
  H    -17.944500    1.171720   81.493100
  H    -19.438300    0.683012   80.684500
  C    -18.785200    2.576990   79.847400
  H    -19.848400    2.803980   79.782900
  H    -18.463300    2.634950   78.789100
  C    -17.986400    3.693680   80.483600
  H    -18.246600    3.943150   81.462500
  H    -18.072500    4.606150   79.968200
  H    -16.864300    3.593770   80.389800
  H    -14.492300   -2.050290   84.264500
  H    -17.616800   -1.264970   76.580000

 Total Charge           Charge          ....    0
 Multiplicity           Mult            ....    1
 Number of Electrons    NEL             ....  134
 Basis Dimension        Dim             ....  322

ORBITAL ENERGIES
----------------

  NO   OCC          E(Eh)            E(eV)
   0   2.0000     -88.968441     -2420.9544
   1   2.0000     -88.963147     -2420.8103
   2   2.0000     -10.331519      -281.1349
   3   2.0000     -10.328943      -281.0648
   4   2.0000     -10.314772      -280.6792
   5   2.0000     -10.314426      -280.6698
   6   2.0000     -10.304523      -280.4003
   7   2.0000     -10.300078      -280.2794
   8   2.0000     -10.297472      -280.2085
   9   2.0000     -10.292683      -280.0782
  10   2.0000     -10.291830      -280.0549
  11   2.0000     -10.290749      -280.0255
  12   2.0000     -10.289904      -280.0025
  13   2.0000     -10.285504      -279.8828
  14   2.0000     -10.284061      -279.8435
  15   2.0000     -10.273778      -279.5637
  16   2.0000      -8.082830      -219.9450
  17   2.0000      -8.077576      -219.8020
  18   2.0000      -6.041398      -164.3948
  19   2.0000      -6.037250      -164.2819
  20   2.0000      -6.036199      -164.2533
  21   2.0000      -6.033654      -164.1841
  22   2.0000      -6.032026      -164.1398
  23   2.0000      -6.028334      -164.0393
  24   2.0000      -1.006324       -27.3835
  25   2.0000      -0.983660       -26.7667
  26   2.0000      -0.913327       -24.8529
  27   2.0000      -0.911650       -24.8073
  28   2.0000      -0.867326       -23.6011
  29   2.0000      -0.855517       -23.2798
  30   2.0000      -0.847584       -23.0639
  31   2.0000      -0.811473       -22.0813
  32   2.0000      -0.783453       -21.3188
  33   2.0000      -0.770017       -20.9532
  34   2.0000      -0.710405       -19.3311
  35   2.0000      -0.703023       -19.1302
  36   2.0000      -0.693828       -18.8800
  37   2.0000      -0.659173       -17.9370
  38   2.0000      -0.640294       -17.4233
  39   2.0000      -0.620058       -16.8726
  40   2.0000      -0.599876       -16.3235
  41   2.0000      -0.569214       -15.4891
  42   2.0000      -0.561396       -15.2764
  43   2.0000      -0.554692       -15.0939
  44   2.0000      -0.536396       -14.5961
  45   2.0000      -0.532346       -14.4859
  46   2.0000      -0.525494       -14.2994
  47   2.0000      -0.512385       -13.9427
  48   2.0000      -0.503878       -13.7112
  49   2.0000      -0.497578       -13.5398
  50   2.0000      -0.492637       -13.4053
  51   2.0000      -0.477811       -13.0019
  52   2.0000      -0.471595       -12.8327
  53   2.0000      -0.466402       -12.6914
  54   2.0000      -0.464177       -12.6309
  55   2.0000      -0.441225       -12.0063
  56   2.0000      -0.437686       -11.9101
  57   2.0000      -0.436989       -11.8911
  58   2.0000      -0.432261       -11.7624
  59   2.0000      -0.426849       -11.6152
  60   2.0000      -0.419485       -11.4148
  61   2.0000      -0.411822       -11.2062
  62   2.0000      -0.409734       -11.1494
  63   2.0000      -0.343407        -9.3446
  64   2.0000      -0.331745        -9.0272
  65   2.0000      -0.326718        -8.8904
  66   2.0000      -0.293828        -7.9955
  67   0.0000       0.030654         0.8341
  68   0.0000       0.067354         1.8328
  69   0.0000       0.114480         3.1152
  70   0.0000       0.120528         3.2797
  71   0.0000       0.124690         3.3930

MULLIKEN ATOMIC CHARGES
-----------------------
   0 S :    0.119613
   1 C :   -0.128592
   2 C :   -0.056269
   3 C :    0.031784
   4 C :   -0.148834
   5 H :    0.014781
   6 C :   -0.000148
   7 H :    0.033370
   8 H :    0.017726
   9 C :   -0.070438
  10 H :    0.022118
  11 H :    0.030512
  12 C :   -0.056037
  13 H :    0.035074
  14 H :    0.042977
  15 H :    0.037765
  16 S :    0.098324
  17 C :   -0.047092
  18 C :   -0.054666
  19 C :   -0.035850
  20 C :   -0.168395
  21 H :    0.030046
  22 C :    0.046970
  23 H :    0.044244
  24 H :    0.047624
  25 C :   -0.069829
  26 H :    0.030965
  27 H :    0.039820
  28 C :   -0.032273
  29 H :    0.021374
  30 H :    0.008033
  31 H :    0.034512
  32 H :    0.056050
  33 H :    0.024741
Sum of atomic charges:   -0.0000000

LOEWDIN ATOMIC CHARGES
----------------------
   0 S :    0.418183
   1 C :   -0.205907
   2 C :   -0.069002
   3 C :   -0.063418
   4 C :   -0.192066
   5 H :    0.032454
   6 C :   -0.044149
   7 H :    0.032977
   8 H :    0.026371
   9 C :   -0.037974
  10 H :    0.023437
  11 H :    0.024331
  12 C :   -0.073224
  13 H :    0.023278
  14 H :    0.029873
  15 H :    0.031796
  16 S :    0.391808
  17 C :   -0.172107
  18 C :   -0.074684
  19 C :   -0.059266
  20 C :   -0.189465
  21 H :    0.032732
  22 C :   -0.039617
  23 H :    0.044309
  24 H :    0.039677
  25 C :   -0.045018
  26 H :    0.027232
  27 H :    0.033245
  28 C :   -0.064573
  29 H :    0.013987
  30 H :    0.020478
  31 H :    0.033810
  32 H :    0.039065
  33 H :    0.011428

  Mayer bond orders larger than 0.100000
B(  0-S ,  1-C ) :   1.1228 B(  0-S ,  4-C ) :   1.1863 B(  1-C ,  2-C ) :   1.5904
B(  1-C ,  4-C ) :   0.1038 B(  1-C , 32-H ) :   0.9697 B(  2-C ,  3-C ) :   1.2587
B(  2-C ,  6-C ) :   1.0387 B(  3-C ,  4-C ) :   1.5323 B(  3-C ,  5-H ) :   1.0010
B(  4-C , 20-C ) :   1.0056 B(  6-C ,  7-H ) :   0.9445 B(  6-C ,  8-H ) :   0.9374
B(  6-C ,  9-C ) :   1.0587 B(  9-C , 10-H ) :   0.9563 B(  9-C , 11-H ) :   0.9545
B(  9-C , 12-C ) :   1.0716 B( 12-C , 13-H ) :   0.9741 B( 12-C , 14-H ) :   0.9736
B( 12-C , 15-H ) :   0.9735 B( 16-S , 17-C ) :   1.1551 B( 16-S , 20-C ) :   1.1291
B( 17-C , 18-C ) :   1.6065 B( 17-C , 33-H ) :   0.9818 B( 18-C , 19-C ) :   1.2224
B( 18-C , 21-H ) :   0.9793 B( 19-C , 20-C ) :   1.6211 B( 19-C , 22-C ) :   1.0444
B( 22-C , 23-H ) :   0.9401 B( 22-C , 24-H ) :   0.9348 B( 22-C , 25-C ) :   1.0207
B( 25-C , 26-H ) :   0.9539 B( 25-C , 27-H ) :   0.9639 B( 25-C , 28-C ) :   1.0895
B( 28-C , 29-H ) :   0.9762 B( 28-C , 30-H ) :   0.9662 B( 28-C , 31-H ) :   0.9700

Dispersion correction           -0.014094483
FINAL SINGLE POINT ENERGY     -1339.865297626380

DIPOLE MOMENT
-------------
                                X             Y             Z
Electronic contribution:      2.33140     -26.42093     -16.89261
Nuclear contribution   :     -2.67450      27.09989      17.12722
                        -----------------------------------------
Total Dipole Moment    :     -0.34310       0.67896       0.23461
                        -----------------------------------------
Magnitude (a.u.)       :      0.79608
Magnitude (Debye)      :      2.02347

Rotational constants in cm-1:     0.018477     0.008866     0.006379
Rotational constants in MHz :   553.938770   265.789996   191.228041

                             ****ORCA TERMINATED NORMALLY****
TOTAL RUN TIME: 0 days 0 hours 0 minutes 33 seconds 428 msec
