                         Program Version 4.2.1 -  RELEASE  -
|  1> ! wB97X-D3 SP def2-SVP
|  2> %pal
|  3> nprocs 16
|  4> end
|  5>
|  6> * xyz 0 1
|  7> S 	 5.44959 	 26.9162 	 68.1948
|  8> C 	 4.2183 	 26.8921 	 67.0178
|  9> C 	 4.64618 	 26.1412 	 65.9338
| 10> C 	 6.05552 	 26.0731 	 65.9014
| 11> C 	 6.7037 	 26.473 	 67.0337
| 12> H 	 6.68379 	 25.8185 	 65.0392
| 13> C 	 3.79139 	 25.7436 	 64.7342
| 14> H 	 4.27331 	 24.9345 	 64.2839
| 15> H 	 3.94014 	 26.4755 	 63.904
| 16> C 	 2.4311 	 25.1227 	 65.0237
| 17> H 	 2.50879 	 24.2543 	 65.6588
| 18> H 	 1.87775 	 25.8969 	 65.5238
| 19> C 	 1.61214 	 24.8523 	 63.7339
| 20> H 	 2.04606 	 24.0393 	 63.1861
| 21> H 	 0.611937 	 24.5502 	 63.9701
| 22> H 	 1.5954 	 25.7299 	 63.1031
| 23> S 	 8.62091 	 25.7246 	 68.8426
| 24> C 	 10.2958 	 26.1752 	 68.586
| 25> C 	 10.4318 	 26.8845 	 67.4599
| 26> C 	 9.20105 	 27.0631 	 66.7586
| 27> C 	 8.10396 	 26.4832 	 67.382
| 28> H 	 11.4001 	 27.252 	 67.191
| 29> C 	 9.14974 	 27.907 	 65.446
| 30> H 	 8.18047 	 27.9906 	 64.978
| 31> H 	 9.61185 	 27.279 	 64.6472
| 32> C 	 9.87414 	 29.3211 	 65.4325
| 33> H 	 10.9068 	 29.274 	 65.7279
| 34> H 	 9.29245 	 29.8502 	 66.0901
| 35> C 	 9.97291 	 29.9645 	 64.0199
| 36> H 	 9.82023 	 31.0836 	 64.1587
| 37> H 	 9.23867 	 29.6143 	 63.3429
| 38> H 	 10.8934 	 29.6804 	 63.4758
| 39> H 	 3.1679 	 27.1095 	 67.1198
| 40> H 	 11.0418 	 26.1295 	 69.3878
| 41> *
| 42>
| 43>                          ****END OF INPUT****

CARTESIAN COORDINATES (ANGSTROEM)
---------------------------------
  S      5.449590   26.916200   68.194800
  C      4.218300   26.892100   67.017800
  C      4.646180   26.141200   65.933800
  C      6.055520   26.073100   65.901400
  C      6.703700   26.473000   67.033700
  H      6.683790   25.818500   65.039200
  C      3.791390   25.743600   64.734200
  H      4.273310   24.934500   64.283900
  H      3.940140   26.475500   63.904000
  C      2.431100   25.122700   65.023700
  H      2.508790   24.254300   65.658800
  H      1.877750   25.896900   65.523800
  C      1.612140   24.852300   63.733900
  H      2.046060   24.039300   63.186100
  H      0.611937   24.550200   63.970100
  H      1.595400   25.729900   63.103100
  S      8.620910   25.724600   68.842600
  C     10.295800   26.175200   68.586000
  C     10.431800   26.884500   67.459900
  C      9.201050   27.063100   66.758600
  C      8.103960   26.483200   67.382000
  H     11.400100   27.252000   67.191000
  C      9.149740   27.907000   65.446000
  H      8.180470   27.990600   64.978000
  H      9.611850   27.279000   64.647200
  C      9.874140   29.321100   65.432500
  H     10.906800   29.274000   65.727900
  H      9.292450   29.850200   66.090100
  C      9.972910   29.964500   64.019900
  H      9.820230   31.083600   64.158700
  H      9.238670   29.614300   63.342900
  H     10.893400   29.680400   63.475800
  H      3.167900   27.109500   67.119800
  H     11.041800   26.129500   69.387800

 Total Charge           Charge          ....    0
 Multiplicity           Mult            ....    1
 Number of Electrons    NEL             ....  134
 Basis Dimension        Dim             ....  322

ORBITAL ENERGIES
----------------

  NO   OCC          E(Eh)            E(eV)
   0   2.0000     -88.962363     -2420.7890
   1   2.0000     -88.961158     -2420.7562
   2   2.0000     -10.326551      -280.9997
   3   2.0000     -10.325852      -280.9807
   4   2.0000     -10.313526      -280.6453
   5   2.0000     -10.311298      -280.5847
   6   2.0000     -10.306290      -280.4484
   7   2.0000     -10.299330      -280.2590
   8   2.0000     -10.295204      -280.1467
   9   2.0000     -10.292367      -280.0695
  10   2.0000     -10.289509      -279.9918
  11   2.0000     -10.288210      -279.9564
  12   2.0000     -10.287223      -279.9296
  13   2.0000     -10.282731      -279.8073
  14   2.0000     -10.282608      -279.8040
  15   2.0000     -10.276548      -279.6391
  16   2.0000      -8.077811      -219.8084
  17   2.0000      -8.076744      -219.7794
  18   2.0000      -6.036359      -164.2577
  19   2.0000      -6.035271      -164.2281
  20   2.0000      -6.032214      -164.1449
  21   2.0000      -6.031122      -164.1152
  22   2.0000      -6.028468      -164.0429
  23   2.0000      -6.027441      -164.0150
  24   2.0000      -1.013376       -27.5754
  25   2.0000      -0.992251       -27.0005
  26   2.0000      -0.914469       -24.8840
  27   2.0000      -0.897924       -24.4338
  28   2.0000      -0.876883       -23.8612
  29   2.0000      -0.852043       -23.1853
  30   2.0000      -0.844916       -22.9913
  31   2.0000      -0.820237       -22.3198
  32   2.0000      -0.782778       -21.3005
  33   2.0000      -0.769919       -20.9506
  34   2.0000      -0.712441       -19.3865
  35   2.0000      -0.706832       -19.2339
  36   2.0000      -0.698302       -19.0018
  37   2.0000      -0.659741       -17.9525
  38   2.0000      -0.641687       -17.4612
  39   2.0000      -0.615123       -16.7384
  40   2.0000      -0.597732       -16.2651
  41   2.0000      -0.577778       -15.7221
  42   2.0000      -0.568680       -15.4746
  43   2.0000      -0.563947       -15.3458
  44   2.0000      -0.526111       -14.3162
  45   2.0000      -0.525006       -14.2861
  46   2.0000      -0.517014       -14.0687
  47   2.0000      -0.514695       -14.0056
  48   2.0000      -0.510234       -13.8842
  49   2.0000      -0.499539       -13.5932
  50   2.0000      -0.491775       -13.3819
  51   2.0000      -0.483661       -13.1611
  52   2.0000      -0.472441       -12.8558
  53   2.0000      -0.464853       -12.6493
  54   2.0000      -0.460023       -12.5179
  55   2.0000      -0.451708       -12.2916
  56   2.0000      -0.447927       -12.1887
  57   2.0000      -0.439198       -11.9512
  58   2.0000      -0.429828       -11.6962
  59   2.0000      -0.424132       -11.5412
  60   2.0000      -0.421164       -11.4605
  61   2.0000      -0.413645       -11.2559
  62   2.0000      -0.404701       -11.0125
  63   2.0000      -0.353267        -9.6129
  64   2.0000      -0.330491        -8.9931
  65   2.0000      -0.326134        -8.8746
  66   2.0000      -0.292281        -7.9534
  67   0.0000       0.032977         0.8973
  68   0.0000       0.067647         1.8408
  69   0.0000       0.116908         3.1812
  70   0.0000       0.127247         3.4626
  71   0.0000       0.130913         3.5623

MULLIKEN ATOMIC CHARGES
-----------------------
   0 S :    0.111610
   1 C :   -0.095047
   2 C :   -0.098781
   3 C :    0.023944
   4 C :   -0.151559
   5 H :    0.015364
   6 C :    0.052778
   7 H :   -0.003039
   8 H :    0.043007
   9 C :   -0.073275
  10 H :    0.041300
  11 H :    0.019151
  12 C :   -0.025991
  13 H :    0.023305
  14 H :    0.029788
  15 H :    0.030077
  16 S :    0.094081
  17 C :   -0.095805
  18 C :   -0.021667
  19 C :   -0.015918
  20 C :   -0.152038
  21 H :    0.012039
  22 C :    0.027373
  23 H :    0.016036
  24 H :    0.023871
  25 C :   -0.038398
  26 H :    0.031959
  27 H :    0.026782
  28 C :   -0.074713
  29 H :    0.053146
  30 H :    0.016085
  31 H :    0.039083
  32 H :    0.048770
  33 H :    0.066682
Sum of atomic charges:    0.0000000

LOEWDIN ATOMIC CHARGES
----------------------
   0 S :    0.414209
   1 C :   -0.201184
   2 C :   -0.067624
   3 C :   -0.061337
   4 C :   -0.190578
   5 H :    0.034159
   6 C :   -0.043537
   7 H :    0.022925
   8 H :    0.040231
   9 C :   -0.032593
  10 H :    0.028314
  11 H :    0.015843
  12 C :   -0.055507
  13 H :    0.020221
  14 H :    0.024264
  15 H :    0.025415
  16 S :    0.406525
  17 C :   -0.183249
  18 C :   -0.067924
  19 C :   -0.057171
  20 C :   -0.206548
  21 H :    0.030942
  22 C :   -0.038259
  23 H :    0.024343
  24 H :    0.030337
  25 C :   -0.028411
  26 H :    0.023065
  27 H :    0.014342
  28 C :   -0.070269
  29 H :    0.039933
  30 H :    0.015252
  31 H :    0.029891
  32 H :    0.028900
  33 H :    0.035079

  Mayer bond orders larger than 0.100000
B(  0-S ,  1-C ) :   1.1592 B(  0-S ,  4-C ) :   1.1326 B(  1-C ,  2-C ) :   1.5873
B(  1-C ,  4-C ) :   0.1031 B(  1-C , 32-H ) :   0.9697 B(  2-C ,  3-C ) :   1.2401
B(  2-C ,  6-C ) :   1.0208 B(  3-C ,  4-C ) :   1.5867 B(  3-C ,  5-H ) :   0.9959
B(  4-C , 20-C ) :   1.0504 B(  6-C ,  7-H ) :   0.9341 B(  6-C ,  8-H ) :   0.9400
B(  6-C ,  9-C ) :   1.0491 B(  9-C , 10-H ) :   0.9599 B(  9-C , 11-H ) :   0.9580
B(  9-C , 12-C ) :   1.0840 B( 12-C , 13-H ) :   0.9763 B( 12-C , 14-H ) :   0.9737
B( 12-C , 15-H ) :   0.9757 B( 16-S , 17-C ) :   1.1452 B( 16-S , 20-C ) :   1.1426
B( 17-C , 18-C ) :   1.6290 B( 17-C , 33-H ) :   0.9617 B( 18-C , 19-C ) :   1.2338
B( 18-C , 21-H ) :   0.9962 B( 19-C , 20-C ) :   1.5974 B( 19-C , 22-C ) :   1.0345
B( 22-C , 23-H ) :   0.9378 B( 22-C , 24-H ) :   0.9378 B( 22-C , 25-C ) :   1.0538
B( 25-C , 26-H ) :   0.9584 B( 25-C , 27-H ) :   0.9672 B( 25-C , 28-C ) :   1.0680
B( 28-C , 29-H ) :   0.9756 B( 28-C , 30-H ) :   0.9777 B( 28-C , 31-H ) :   0.9770

Dispersion correction           -0.013173660
FINAL SINGLE POINT ENERGY     -1339.856190468772

DIPOLE MOMENT
-------------
                                X             Y             Z
Electronic contribution:      6.68093      -6.02288      25.67951
Nuclear contribution   :     -6.68807       6.14900     -26.35512
                        -----------------------------------------
Total Dipole Moment    :     -0.00714       0.12613      -0.67561
                        -----------------------------------------
Magnitude (a.u.)       :      0.68732
Magnitude (Debye)      :      1.74704

Rotational constants in cm-1:     0.019284     0.007212     0.005801
Rotational constants in MHz :   578.120433   216.205572   173.921361

                             ****ORCA TERMINATED NORMALLY****
TOTAL RUN TIME: 0 days 0 hours 0 minutes 33 seconds 457 msec
