                         Program Version 4.2.1 -  RELEASE  -
|  1> ! wB97X-D3 SP def2-SVP
|  2> %pal
|  3> nprocs 16
|  4> end
|  5>
|  6> * xyz 0 1
|  7> S 	 -8.67923 	 61.3165 	 56.2828
|  8> C 	 -7.81003 	 60.8084 	 57.756
|  9> C 	 -6.49353 	 60.3661 	 57.4664
| 10> C 	 -6.29242 	 60.3148 	 56.0219
| 11> C 	 -7.31114 	 60.8295 	 55.3009
| 12> H 	 -5.33359 	 59.9448 	 55.4825
| 13> C 	 -5.37516 	 60.0002 	 58.4224
| 14> H 	 -5.42801 	 60.7045 	 59.2392
| 15> H 	 -4.48169 	 60.3209 	 57.9458
| 16> C 	 -5.41674 	 58.5606 	 58.9151
| 17> H 	 -6.46486 	 58.3233 	 59.2177
| 18> H 	 -5.18885 	 57.9239 	 58.1344
| 19> C 	 -4.45722 	 58.298 	 60.1106
| 20> H 	 -4.64293 	 57.3083 	 60.4345
| 21> H 	 -3.41385 	 58.3587 	 59.8031
| 22> H 	 -4.51341 	 58.9025 	 61.0799
| 23> S 	 -7.18421 	 59.5605 	 52.8137
| 24> C 	 -7.22737 	 60.4841 	 51.3421
| 25> C 	 -6.94997 	 61.7705 	 51.6171
| 26> C 	 -7.12101 	 62.1138 	 52.9991
| 27> C 	 -7.23275 	 61.003 	 53.849
| 28> H 	 -6.82561 	 62.4081 	 50.7351
| 29> C 	 -7.12035 	 63.6448 	 53.4375
| 30> H 	 -6.0658 	 64.0065 	 53.2538
| 31> H 	 -7.37363 	 63.5932 	 54.4907
| 32> C 	 -8.1208 	 64.5536 	 52.645
| 33> H 	 -9.10844 	 64.0931 	 52.4861
| 34> H 	 -7.62421 	 64.5916 	 51.6833
| 35> C 	 -8.22654 	 65.8451 	 53.324
| 36> H 	 -9.05331 	 66.4455 	 52.9205
| 37> H 	 -7.29171 	 66.4565 	 53.1884
| 38> H 	 -8.52048 	 65.7136 	 54.3946
| 39> H 	 -8.08572 	 61.0643 	 58.7948
| 40> H 	 -7.0637 	 60.2121 	 50.3292
| 41> *
| 42>
| 43>                          ****END OF INPUT****

CARTESIAN COORDINATES (ANGSTROEM)
---------------------------------
  S     -8.679230   61.316500   56.282800
  C     -7.810030   60.808400   57.756000
  C     -6.493530   60.366100   57.466400
  C     -6.292420   60.314800   56.021900
  C     -7.311140   60.829500   55.300900
  H     -5.333590   59.944800   55.482500
  C     -5.375160   60.000200   58.422400
  H     -5.428010   60.704500   59.239200
  H     -4.481690   60.320900   57.945800
  C     -5.416740   58.560600   58.915100
  H     -6.464860   58.323300   59.217700
  H     -5.188850   57.923900   58.134400
  C     -4.457220   58.298000   60.110600
  H     -4.642930   57.308300   60.434500
  H     -3.413850   58.358700   59.803100
  H     -4.513410   58.902500   61.079900
  S     -7.184210   59.560500   52.813700
  C     -7.227370   60.484100   51.342100
  C     -6.949970   61.770500   51.617100
  C     -7.121010   62.113800   52.999100
  C     -7.232750   61.003000   53.849000
  H     -6.825610   62.408100   50.735100
  C     -7.120350   63.644800   53.437500
  H     -6.065800   64.006500   53.253800
  H     -7.373630   63.593200   54.490700
  C     -8.120800   64.553600   52.645000
  H     -9.108440   64.093100   52.486100
  H     -7.624210   64.591600   51.683300
  C     -8.226540   65.845100   53.324000
  H     -9.053310   66.445500   52.920500
  H     -7.291710   66.456500   53.188400
  H     -8.520480   65.713600   54.394600
  H     -8.085720   61.064300   58.794800
  H     -7.063700   60.212100   50.329200

 Total Charge           Charge          ....    0
 Multiplicity           Mult            ....    1
 Number of Electrons    NEL             ....  134
 Basis Dimension        Dim             ....  322

ORBITAL ENERGIES
----------------

  NO   OCC          E(Eh)            E(eV)
   0   2.0000     -88.971462     -2421.0366
   1   2.0000     -88.960691     -2420.7435
   2   2.0000     -10.329429      -281.0781
   3   2.0000     -10.328511      -281.0531
   4   2.0000     -10.322439      -280.8878
   5   2.0000     -10.308415      -280.5062
   6   2.0000     -10.308210      -280.5007
   7   2.0000     -10.307689      -280.4865
   8   2.0000     -10.299820      -280.2723
   9   2.0000     -10.296376      -280.1786
  10   2.0000     -10.288334      -279.9598
  11   2.0000     -10.288183      -279.9557
  12   2.0000     -10.288157      -279.9550
  13   2.0000     -10.282774      -279.8085
  14   2.0000     -10.281747      -279.7806
  15   2.0000     -10.279307      -279.7142
  16   2.0000      -8.085050      -220.0054
  17   2.0000      -8.075279      -219.7395
  18   2.0000      -6.043748      -164.4587
  19   2.0000      -6.039787      -164.3510
  20   2.0000      -6.035601      -164.2370
  21   2.0000      -6.033974      -164.1928
  22   2.0000      -6.029833      -164.0801
  23   2.0000      -6.025790      -163.9701
  24   2.0000      -1.002806       -27.2877
  25   2.0000      -0.981227       -26.7006
  26   2.0000      -0.912978       -24.8434
  27   2.0000      -0.906850       -24.6767
  28   2.0000      -0.870130       -23.6774
  29   2.0000      -0.847750       -23.0684
  30   2.0000      -0.842845       -22.9350
  31   2.0000      -0.815896       -22.2017
  32   2.0000      -0.781392       -21.2628
  33   2.0000      -0.765059       -20.8183
  34   2.0000      -0.709950       -19.3187
  35   2.0000      -0.701933       -19.1006
  36   2.0000      -0.691800       -18.8248
  37   2.0000      -0.652009       -17.7421
  38   2.0000      -0.631822       -17.1927
  39   2.0000      -0.615045       -16.7362
  40   2.0000      -0.584716       -15.9109
  41   2.0000      -0.571498       -15.5513
  42   2.0000      -0.570207       -15.5161
  43   2.0000      -0.560473       -15.2512
  44   2.0000      -0.528686       -14.3863
  45   2.0000      -0.516585       -14.0570
  46   2.0000      -0.516534       -14.0556
  47   2.0000      -0.510211       -13.8836
  48   2.0000      -0.503240       -13.6939
  49   2.0000      -0.496561       -13.5121
  50   2.0000      -0.492805       -13.4099
  51   2.0000      -0.480775       -13.0826
  52   2.0000      -0.468203       -12.7405
  53   2.0000      -0.464192       -12.6313
  54   2.0000      -0.460330       -12.5262
  55   2.0000      -0.445332       -12.1181
  56   2.0000      -0.441681       -12.0187
  57   2.0000      -0.436284       -11.8719
  58   2.0000      -0.427685       -11.6379
  59   2.0000      -0.426440       -11.6040
  60   2.0000      -0.420061       -11.4305
  61   2.0000      -0.418048       -11.3757
  62   2.0000      -0.404579       -11.0091
  63   2.0000      -0.340398        -9.2627
  64   2.0000      -0.331540        -9.0217
  65   2.0000      -0.322698        -8.7811
  66   2.0000      -0.302872        -8.2416
  67   0.0000       0.038100         1.0368
  68   0.0000       0.060882         1.6567
  69   0.0000       0.104474         2.8429
  70   0.0000       0.119380         3.2485
  71   0.0000       0.124547         3.3891

MULLIKEN ATOMIC CHARGES
-----------------------
   0 S :    0.119497
   1 C :   -0.122939
   2 C :   -0.132019
   3 C :   -0.004002
   4 C :   -0.146240
   5 H :    0.052964
   6 C :    0.100944
   7 H :    0.010582
   8 H :    0.011635
   9 C :   -0.032026
  10 H :    0.035397
  11 H :    0.016489
  12 C :   -0.060117
  13 H :    0.024601
  14 H :    0.031212
  15 H :    0.041823
  16 S :    0.094248
  17 C :   -0.056689
  18 C :   -0.070134
  19 C :   -0.036508
  20 C :   -0.171237
  21 H :    0.028898
  22 C :    0.040509
  23 H :    0.049281
  24 H :    0.019040
  25 C :   -0.074838
  26 H :    0.039689
  27 H :    0.024137
  28 C :   -0.048069
  29 H :    0.030987
  30 H :    0.039348
  31 H :    0.039577
  32 H :    0.059745
  33 H :    0.044213
Sum of atomic charges:   -0.0000000

LOEWDIN ATOMIC CHARGES
----------------------
   0 S :    0.395843
   1 C :   -0.200066
   2 C :   -0.052459
   3 C :   -0.070854
   4 C :   -0.201624
   5 H :    0.049197
   6 C :   -0.032313
   7 H :    0.029227
   8 H :    0.026782
   9 C :   -0.027207
  10 H :    0.031892
  11 H :    0.017994
  12 C :   -0.071418
  13 H :    0.020788
  14 H :    0.024251
  15 H :    0.033566
  16 S :    0.394537
  17 C :   -0.186007
  18 C :   -0.081542
  19 C :   -0.053259
  20 C :   -0.195825
  21 H :    0.033693
  22 C :   -0.026059
  23 H :    0.039055
  24 H :    0.018319
  25 C :   -0.047932
  26 H :    0.028824
  27 H :    0.021560
  28 C :   -0.072448
  29 H :    0.026463
  30 H :    0.032389
  31 H :    0.031859
  32 H :    0.033518
  33 H :    0.029254

  Mayer bond orders larger than 0.100000
B(  0-S ,  1-C ) :   1.1235 B(  0-S ,  4-C ) :   1.1267 B(  1-C ,  2-C ) :   1.6353
B(  1-C , 32-H ) :   0.9602 B(  2-C ,  3-C ) :   1.2187 B(  2-C ,  6-C ) :   1.0250
B(  3-C ,  4-C ) :   1.6268 B(  3-C ,  5-H ) :   0.9717 B(  4-C , 20-C ) :   1.0187
B(  6-C ,  7-H ) :   0.9356 B(  6-C ,  8-H ) :   0.9355 B(  6-C ,  9-C ) :   1.0576
B(  9-C , 10-H ) :   0.9590 B(  9-C , 11-H ) :   0.9523 B(  9-C , 12-C ) :   1.0762
B( 12-C , 13-H ) :   0.9748 B( 12-C , 14-H ) :   0.9752 B( 12-C , 15-H ) :   0.9772
B( 16-S , 17-C ) :   1.1465 B( 16-S , 20-C ) :   1.1250 B( 17-C , 18-C ) :   1.6630
B( 17-C , 33-H ) :   0.9588 B( 18-C , 19-C ) :   1.2193 B( 18-C , 21-H ) :   0.9798
B( 19-C , 20-C ) :   1.6149 B( 19-C , 22-C ) :   1.0228 B( 22-C , 23-H ) :   0.9430
B( 22-C , 24-H ) :   0.9419 B( 22-C , 25-C ) :   1.0487 B( 25-C , 26-H ) :   0.9587
B( 25-C , 27-H ) :   0.9494 B( 25-C , 28-C ) :   1.1050 B( 28-C , 29-H ) :   0.9706
B( 28-C , 30-H ) :   0.9685 B( 28-C , 31-H ) :   0.9707

Dispersion correction           -0.013518083
FINAL SINGLE POINT ENERGY     -1339.859171176678

DIPOLE MOMENT
-------------
                                X             Y             Z
Electronic contribution:     -9.57269      -9.18609     -11.13210
Nuclear contribution   :     10.05914       9.51355      11.23380
                        -----------------------------------------
Total Dipole Moment    :      0.48645       0.32746       0.10170
                        -----------------------------------------
Magnitude (a.u.)       :      0.59515
Magnitude (Debye)      :      1.51275

Rotational constants in cm-1:     0.021317     0.006968     0.005891
Rotational constants in MHz :   639.060914   208.908239   176.605623

                             ****ORCA TERMINATED NORMALLY****
TOTAL RUN TIME: 0 days 0 hours 0 minutes 34 seconds 306 msec
