                         Program Version 4.2.1 -  RELEASE  -
|  1> ! wB97X-D3 SP def2-SVP
|  2> %pal
|  3> nprocs 16
|  4> end
|  5>
|  6> * xyz 0 1
|  7> S 	 -3.6436 	 -23.7853 	 60.4152
|  8> C 	 -2.51596 	 -22.5846 	 60.9137
|  9> C 	 -1.55641 	 -22.2676 	 60.0237
| 10> C 	 -1.6332 	 -23.218 	 58.937
| 11> C 	 -2.70396 	 -24.1559 	 59.0169
| 12> H 	 -0.941467 	 -23.2129 	 58.1282
| 13> C 	 -0.391789 	 -21.3832 	 60.2712
| 14> H 	 0.326143 	 -22.0678 	 60.6537
| 15> H 	 -0.758492 	 -20.6557 	 61.0419
| 16> C 	 0.205406 	 -20.5422 	 59.1822
| 17> H 	 1.08814 	 -20.0032 	 59.5854
| 18> H 	 0.84203 	 -21.0367 	 58.4168
| 19> C 	 -0.783943 	 -19.5885 	 58.3787
| 20> H 	 -0.323599 	 -18.6598 	 58.1203
| 21> H 	 -0.99893 	 -19.988 	 57.3634
| 22> H 	 -1.71887 	 -19.3032 	 58.8639
| 23> S 	 -3.25303 	 -26.8456 	 58.5298
| 24> C 	 -4.30536 	 -27.1255 	 57.1697
| 25> C 	 -4.32358 	 -26.089 	 56.2355
| 26> C 	 -3.68485 	 -24.9222 	 56.8407
| 27> C 	 -3.18263 	 -25.1519 	 58.0803
| 28> H 	 -4.74159 	 -26.2123 	 55.2124
| 29> C 	 -3.6187 	 -23.6272 	 56.0321
| 30> H 	 -3.48378 	 -22.749 	 56.7283
| 31> H 	 -4.63667 	 -23.5998 	 55.6876
| 32> C 	 -2.45705 	 -23.5286 	 54.9383
| 33> H 	 -2.62094 	 -24.3362 	 54.218
| 34> H 	 -1.51672 	 -23.606 	 55.5653
| 35> C 	 -2.65188 	 -22.2547 	 54.1529
| 36> H 	 -2.03768 	 -22.0282 	 53.2783
| 37> H 	 -2.63789 	 -21.4347 	 54.8605
| 38> H 	 -3.63261 	 -22.2991 	 53.7755
| 39> H 	 -2.62303 	 -21.9902 	 61.811
| 40> H 	 -4.71161 	 -28.1225 	 56.927
| 41> *
| 42>
| 43>                          ****END OF INPUT****

CARTESIAN COORDINATES (ANGSTROEM)
---------------------------------
  S     -3.643600  -23.785300   60.415200
  C     -2.515960  -22.584600   60.913700
  C     -1.556410  -22.267600   60.023700
  C     -1.633200  -23.218000   58.937000
  C     -2.703960  -24.155900   59.016900
  H     -0.941467  -23.212900   58.128200
  C     -0.391789  -21.383200   60.271200
  H      0.326143  -22.067800   60.653700
  H     -0.758492  -20.655700   61.041900
  C      0.205406  -20.542200   59.182200
  H      1.088140  -20.003200   59.585400
  H      0.842030  -21.036700   58.416800
  C     -0.783943  -19.588500   58.378700
  H     -0.323599  -18.659800   58.120300
  H     -0.998930  -19.988000   57.363400
  H     -1.718870  -19.303200   58.863900
  S     -3.253030  -26.845600   58.529800
  C     -4.305360  -27.125500   57.169700
  C     -4.323580  -26.089000   56.235500
  C     -3.684850  -24.922200   56.840700
  C     -3.182630  -25.151900   58.080300
  H     -4.741590  -26.212300   55.212400
  C     -3.618700  -23.627200   56.032100
  H     -3.483780  -22.749000   56.728300
  H     -4.636670  -23.599800   55.687600
  C     -2.457050  -23.528600   54.938300
  H     -2.620940  -24.336200   54.218000
  H     -1.516720  -23.606000   55.565300
  C     -2.651880  -22.254700   54.152900
  H     -2.037680  -22.028200   53.278300
  H     -2.637890  -21.434700   54.860500
  H     -3.632610  -22.299100   53.775500
  H     -2.623030  -21.990200   61.811000
  H     -4.711610  -28.122500   56.927000

 Total Charge           Charge          ....    0
 Multiplicity           Mult            ....    1
 Number of Electrons    NEL             ....  134
 Basis Dimension        Dim             ....  322

ORBITAL ENERGIES
----------------

  NO   OCC          E(Eh)            E(eV)
   0   2.0000     -88.965178     -2420.8656
   1   2.0000     -88.962635     -2420.7964
   2   2.0000     -10.326115      -280.9879
   3   2.0000     -10.320503      -280.8352
   4   2.0000     -10.318771      -280.7880
   5   2.0000     -10.303561      -280.3741
   6   2.0000     -10.301381      -280.3148
   7   2.0000     -10.300314      -280.2858
   8   2.0000     -10.296663      -280.1864
   9   2.0000     -10.296643      -280.1859
  10   2.0000     -10.294201      -280.1195
  11   2.0000     -10.293826      -280.1092
  12   2.0000     -10.293305      -280.0951
  13   2.0000     -10.292227      -280.0657
  14   2.0000     -10.282180      -279.7924
  15   2.0000     -10.272666      -279.5335
  16   2.0000      -8.080219      -219.8739
  17   2.0000      -8.078378      -219.8238
  18   2.0000      -6.038692      -164.3212
  19   2.0000      -6.036782      -164.2692
  20   2.0000      -6.034991      -164.2205
  21   2.0000      -6.032722      -164.1587
  22   2.0000      -6.030687      -164.1033
  23   2.0000      -6.029210      -164.0631
  24   2.0000      -1.007516       -27.4159
  25   2.0000      -0.985652       -26.8210
  26   2.0000      -0.915252       -24.9053
  27   2.0000      -0.904832       -24.6217
  28   2.0000      -0.867559       -23.6075
  29   2.0000      -0.853513       -23.2253
  30   2.0000      -0.841832       -22.9074
  31   2.0000      -0.809816       -22.0362
  32   2.0000      -0.787599       -21.4317
  33   2.0000      -0.770449       -20.9650
  34   2.0000      -0.713741       -19.4219
  35   2.0000      -0.699557       -19.0359
  36   2.0000      -0.689065       -18.7504
  37   2.0000      -0.659769       -17.9532
  38   2.0000      -0.635952       -17.3051
  39   2.0000      -0.616665       -16.7803
  40   2.0000      -0.588466       -16.0130
  41   2.0000      -0.569838       -15.5061
  42   2.0000      -0.568766       -15.4769
  43   2.0000      -0.562640       -15.3102
  44   2.0000      -0.530319       -14.4307
  45   2.0000      -0.523502       -14.2452
  46   2.0000      -0.516225       -14.0472
  47   2.0000      -0.512988       -13.9591
  48   2.0000      -0.501418       -13.6443
  49   2.0000      -0.490240       -13.3401
  50   2.0000      -0.486601       -13.2411
  51   2.0000      -0.477174       -12.9846
  52   2.0000      -0.469602       -12.7785
  53   2.0000      -0.461804       -12.5663
  54   2.0000      -0.457577       -12.4513
  55   2.0000      -0.452287       -12.3074
  56   2.0000      -0.445256       -12.1160
  57   2.0000      -0.439181       -11.9507
  58   2.0000      -0.433485       -11.7957
  59   2.0000      -0.430669       -11.7191
  60   2.0000      -0.423154       -11.5146
  61   2.0000      -0.418030       -11.3752
  62   2.0000      -0.400655       -10.9024
  63   2.0000      -0.333068        -9.0632
  64   2.0000      -0.330153        -8.9839
  65   2.0000      -0.323129        -8.7928
  66   2.0000      -0.300685        -8.1820
  67   0.0000       0.037222         1.0129
  68   0.0000       0.067721         1.8428
  69   0.0000       0.105066         2.8590
  70   0.0000       0.118625         3.2279
  71   0.0000       0.121636         3.3099

MULLIKEN ATOMIC CHARGES
-----------------------
   0 S :    0.132252
   1 C :   -0.122921
   2 C :   -0.078632
   3 C :    0.037210
   4 C :   -0.167422
   5 H :   -0.010446
   6 C :    0.075134
   7 H :    0.047659
   8 H :    0.033042
   9 C :   -0.091450
  10 H :    0.026819
  11 H :    0.020494
  12 C :   -0.053776
  13 H :    0.019836
  14 H :    0.034967
  15 H :    0.040747
  16 S :    0.121856
  17 C :   -0.104926
  18 C :   -0.046621
  19 C :   -0.019735
  20 C :   -0.184841
  21 H :    0.041273
  22 C :    0.011363
  23 H :    0.038671
  24 H :    0.022649
  25 C :   -0.065783
  26 H :    0.029274
  27 H :    0.048723
  28 C :   -0.001003
  29 H :    0.040388
  30 H :    0.018848
  31 H :    0.008560
  32 H :    0.034229
  33 H :    0.063562
Sum of atomic charges:   -0.0000000

LOEWDIN ATOMIC CHARGES
----------------------
   0 S :    0.433393
   1 C :   -0.203848
   2 C :   -0.072955
   3 C :   -0.055113
   4 C :   -0.204583
   5 H :    0.017986
   6 C :   -0.032196
   7 H :    0.040184
   8 H :    0.039686
   9 C :   -0.055656
  10 H :    0.031727
  11 H :    0.026728
  12 C :   -0.071802
  13 H :    0.023690
  14 H :    0.030611
  15 H :    0.027389
  16 S :    0.402555
  17 C :   -0.183264
  18 C :   -0.075869
  19 C :   -0.047497
  20 C :   -0.218045
  21 H :    0.041093
  22 C :   -0.035645
  23 H :    0.033961
  24 H :    0.025370
  25 C :   -0.032497
  26 H :    0.023335
  27 H :    0.030966
  28 C :   -0.065270
  29 H :    0.027543
  30 H :    0.022792
  31 H :    0.021257
  32 H :    0.023860
  33 H :    0.030116

  Mayer bond orders larger than 0.100000
B(  0-S ,  1-C ) :   1.1505 B(  0-S ,  4-C ) :   1.1696 B(  1-C ,  2-C ) :   1.6233
B(  1-C , 32-H ) :   0.9589 B(  2-C ,  3-C ) :   1.2360 B(  2-C ,  6-C ) :   1.0220
B(  3-C ,  4-C ) :   1.5570 B(  3-C ,  5-H ) :   1.0052 B(  4-C , 20-C ) :   1.0338
B(  6-C ,  7-H ) :   0.9373 B(  6-C ,  8-H ) :   0.9361 B(  6-C ,  9-C ) :   1.0865
B(  9-C , 10-H ) :   0.9548 B(  9-C , 11-H ) :   0.9493 B(  9-C , 12-C ) :   1.0500
B( 12-C , 13-H ) :   0.9752 B( 12-C , 14-H ) :   0.9778 B( 12-C , 15-H ) :   0.9825
B( 16-S , 17-C ) :   1.1591 B( 16-S , 20-C ) :   1.1186 B( 17-C , 18-C ) :   1.6266
B( 17-C , 33-H ) :   0.9614 B( 18-C , 19-C ) :   1.2058 B( 18-C , 21-H ) :   0.9847
B( 19-C , 20-C ) :   1.6391 B( 19-C , 22-C ) :   1.0351 B( 22-C , 23-H ) :   0.9334
B( 22-C , 24-H ) :   0.9370 B( 22-C , 25-C ) :   1.0481 B( 25-C , 26-H ) :   0.9574
B( 25-C , 27-H ) :   0.9548 B( 25-C , 28-C ) :   1.0759 B( 28-C , 29-H ) :   0.9739
B( 28-C , 30-H ) :   0.9720 B( 28-C , 31-H ) :   0.9677

Dispersion correction           -0.014770953
FINAL SINGLE POINT ENERGY     -1339.859896316462

DIPOLE MOMENT
-------------
                                X             Y             Z
Electronic contribution:    -11.32968     -24.28997      16.45352
Nuclear contribution   :     11.60774      24.74485     -16.93503
                        -----------------------------------------
Total Dipole Moment    :      0.27806       0.45488      -0.48150
                        -----------------------------------------
Magnitude (a.u.)       :      0.71838
Magnitude (Debye)      :      1.82598

Rotational constants in cm-1:     0.017242     0.009966     0.006936
Rotational constants in MHz :   516.900456   298.770720   207.936849

                             ****ORCA TERMINATED NORMALLY****
TOTAL RUN TIME: 0 days 0 hours 0 minutes 36 seconds 76 msec
