                         Program Version 4.2.1 -  RELEASE  -
|  1> ! wB97X-D3 SP def2-SVP
|  2> %pal
|  3> nprocs 16
|  4> end
|  5>
|  6> * xyz 0 1
|  7> S 	 -28.918 	 61.8289 	 109.406
|  8> C 	 -28.9727 	 60.193 	 108.867
|  9> C 	 -29.5087 	 59.3465 	 109.808
| 10> C 	 -29.781 	 60.0149 	 111.097
| 11> C 	 -29.5774 	 61.3866 	 111.02
| 12> H 	 -30.2101 	 59.5798 	 111.956
| 13> C 	 -29.4842 	 57.8688 	 109.608
| 14> H 	 -29.2036 	 57.2999 	 110.541
| 15> H 	 -28.7285 	 57.6481 	 108.825
| 16> C 	 -30.797 	 57.2589 	 109.106
| 17> H 	 -31.5892 	 57.4212 	 109.89
| 18> H 	 -31.1871 	 57.8165 	 108.331
| 19> C 	 -30.6229 	 55.8073 	 108.515
| 20> H 	 -29.9827 	 55.6506 	 107.586
| 21> H 	 -30.2423 	 55.0307 	 109.248
| 22> H 	 -31.5385 	 55.3835 	 108.119
| 23> S 	 -31.5209 	 62.5395 	 112.72
| 24> C 	 -31.0628 	 63.7224 	 113.971
| 25> C 	 -29.7144 	 63.9136 	 113.899
| 26> C 	 -29.0369 	 63.22 	 112.835
| 27> C 	 -29.8778 	 62.3984 	 112.065
| 28> H 	 -29.258 	 64.5057 	 114.675
| 29> C 	 -27.5312 	 63.3411 	 112.555
| 30> H 	 -27.397 	 63.1953 	 111.519
| 31> H 	 -27.1171 	 62.4758 	 113.032
| 32> C 	 -26.7284 	 64.5675 	 112.968
| 33> H 	 -27.0938 	 64.9034 	 113.943
| 34> H 	 -27.0114 	 65.3611 	 112.217
| 35> C 	 -25.1782 	 64.3653 	 113.02
| 36> H 	 -25.0449 	 63.8062 	 113.976
| 37> H 	 -24.5727 	 65.309 	 113.098
| 38> H 	 -24.9275 	 63.8622 	 112.057
| 39> H 	 -28.5505 	 59.9319 	 107.913
| 40> H 	 -31.7419 	 64.1438 	 114.736
| 41> *
| 42>
| 43>                          ****END OF INPUT****

CARTESIAN COORDINATES (ANGSTROEM)
---------------------------------
  S    -28.918000   61.828900  109.406000
  C    -28.972700   60.193000  108.867000
  C    -29.508700   59.346500  109.808000
  C    -29.781000   60.014900  111.097000
  C    -29.577400   61.386600  111.020000
  H    -30.210100   59.579800  111.956000
  C    -29.484200   57.868800  109.608000
  H    -29.203600   57.299900  110.541000
  H    -28.728500   57.648100  108.825000
  C    -30.797000   57.258900  109.106000
  H    -31.589200   57.421200  109.890000
  H    -31.187100   57.816500  108.331000
  C    -30.622900   55.807300  108.515000
  H    -29.982700   55.650600  107.586000
  H    -30.242300   55.030700  109.248000
  H    -31.538500   55.383500  108.119000
  S    -31.520900   62.539500  112.720000
  C    -31.062800   63.722400  113.971000
  C    -29.714400   63.913600  113.899000
  C    -29.036900   63.220000  112.835000
  C    -29.877800   62.398400  112.065000
  H    -29.258000   64.505700  114.675000
  C    -27.531200   63.341100  112.555000
  H    -27.397000   63.195300  111.519000
  H    -27.117100   62.475800  113.032000
  C    -26.728400   64.567500  112.968000
  H    -27.093800   64.903400  113.943000
  H    -27.011400   65.361100  112.217000
  C    -25.178200   64.365300  113.020000
  H    -25.044900   63.806200  113.976000
  H    -24.572700   65.309000  113.098000
  H    -24.927500   63.862200  112.057000
  H    -28.550500   59.931900  107.913000
  H    -31.741900   64.143800  114.736000

 Total Charge           Charge          ....    0
 Multiplicity           Mult            ....    1
 Number of Electrons    NEL             ....  134
 Basis Dimension        Dim             ....  322

ORBITAL ENERGIES
----------------

  NO   OCC          E(Eh)            E(eV)
   0   2.0000     -88.966625     -2420.9049
   1   2.0000     -88.963869     -2420.8299
   2   2.0000     -10.339313      -281.3470
   3   2.0000     -10.332420      -281.1594
   4   2.0000     -10.323839      -280.9259
   5   2.0000     -10.315319      -280.6941
   6   2.0000     -10.310291      -280.5573
   7   2.0000     -10.305355      -280.4230
   8   2.0000     -10.301883      -280.3285
   9   2.0000     -10.294804      -280.1358
  10   2.0000     -10.294736      -280.1340
  11   2.0000     -10.290842      -280.0280
  12   2.0000     -10.289968      -280.0043
  13   2.0000     -10.289878      -280.0018
  14   2.0000     -10.287914      -279.9484
  15   2.0000     -10.283195      -279.8200
  16   2.0000      -8.080998      -219.8951
  17   2.0000      -8.077657      -219.8042
  18   2.0000      -6.039602      -164.3459
  19   2.0000      -6.036252      -164.2548
  20   2.0000      -6.035499      -164.2343
  21   2.0000      -6.032209      -164.1448
  22   2.0000      -6.031743      -164.1321
  23   2.0000      -6.028437      -164.0421
  24   2.0000      -0.999632       -27.2014
  25   2.0000      -0.980959       -26.6933
  26   2.0000      -0.908150       -24.7120
  27   2.0000      -0.904921       -24.6242
  28   2.0000      -0.869985       -23.6735
  29   2.0000      -0.845405       -23.0046
  30   2.0000      -0.840591       -22.8737
  31   2.0000      -0.818969       -22.2853
  32   2.0000      -0.777578       -21.1590
  33   2.0000      -0.767306       -20.8794
  34   2.0000      -0.707214       -19.2443
  35   2.0000      -0.698545       -19.0084
  36   2.0000      -0.694653       -18.9025
  37   2.0000      -0.655917       -17.8484
  38   2.0000      -0.645026       -17.5520
  39   2.0000      -0.616333       -16.7713
  40   2.0000      -0.596634       -16.2352
  41   2.0000      -0.574547       -15.6342
  42   2.0000      -0.567761       -15.4496
  43   2.0000      -0.553127       -15.0514
  44   2.0000      -0.527333       -14.3495
  45   2.0000      -0.520049       -14.1513
  46   2.0000      -0.512974       -13.9587
  47   2.0000      -0.511264       -13.9122
  48   2.0000      -0.504311       -13.7230
  49   2.0000      -0.500984       -13.6325
  50   2.0000      -0.490782       -13.3548
  51   2.0000      -0.476702       -12.9717
  52   2.0000      -0.471034       -12.8175
  53   2.0000      -0.463806       -12.6208
  54   2.0000      -0.458181       -12.4677
  55   2.0000      -0.450909       -12.2699
  56   2.0000      -0.442784       -12.0488
  57   2.0000      -0.435305       -11.8452
  58   2.0000      -0.429718       -11.6932
  59   2.0000      -0.424011       -11.5379
  60   2.0000      -0.417167       -11.3517
  61   2.0000      -0.412041       -11.2122
  62   2.0000      -0.409546       -11.1443
  63   2.0000      -0.343725        -9.3532
  64   2.0000      -0.332761        -9.0549
  65   2.0000      -0.324794        -8.8381
  66   2.0000      -0.300629        -8.1805
  67   0.0000       0.030809         0.8384
  68   0.0000       0.065059         1.7703
  69   0.0000       0.108378         2.9491
  70   0.0000       0.114005         3.1022
  71   0.0000       0.130248         3.5442

MULLIKEN ATOMIC CHARGES
-----------------------
   0 S :    0.103932
   1 C :   -0.118820
   2 C :   -0.064507
   3 C :    0.061381
   4 C :   -0.167667
   5 H :    0.006175
   6 C :    0.019005
   7 H :    0.041869
   8 H :    0.024313
   9 C :   -0.033140
  10 H :    0.033364
  11 H :    0.007606
  12 C :   -0.093338
  13 H :    0.038741
  14 H :    0.039482
  15 H :    0.028585
  16 S :    0.090275
  17 C :   -0.107604
  18 C :   -0.037299
  19 C :   -0.039915
  20 C :   -0.151370
  21 H :    0.019928
  22 C :    0.114243
  23 H :    0.004087
  24 H :    0.025013
  25 C :   -0.102165
  26 H :    0.022196
  27 H :    0.038654
  28 C :   -0.077793
  29 H :    0.047446
  30 H :    0.049530
  31 H :    0.049977
  32 H :    0.052707
  33 H :    0.075112
Sum of atomic charges:   -0.0000000

LOEWDIN ATOMIC CHARGES
----------------------
   0 S :    0.396551
   1 C :   -0.192771
   2 C :   -0.065423
   3 C :   -0.046245
   4 C :   -0.176628
   5 H :    0.026890
   6 C :   -0.038322
   7 H :    0.036732
   8 H :    0.032399
   9 C :   -0.040123
  10 H :    0.031317
  11 H :    0.013347
  12 C :   -0.083298
  13 H :    0.033701
  14 H :    0.028619
  15 H :    0.024181
  16 S :    0.383587
  17 C :   -0.176410
  18 C :   -0.079378
  19 C :   -0.045415
  20 C :   -0.201381
  21 H :    0.030244
  22 C :   -0.034248
  23 H :    0.017316
  24 H :    0.032250
  25 C :   -0.046645
  26 H :    0.015366
  27 H :    0.027918
  28 C :   -0.070436
  29 H :    0.032639
  30 H :    0.032997
  31 H :    0.031815
  32 H :    0.027080
  33 H :    0.041777

  Mayer bond orders larger than 0.100000
B(  0-S ,  1-C ) :   1.1426 B(  0-S ,  4-C ) :   1.1352 B(  1-C ,  2-C ) :   1.6208
B(  1-C , 32-H ) :   0.9694 B(  2-C ,  3-C ) :   1.2018 B(  2-C ,  6-C ) :   1.0342
B(  3-C ,  4-C ) :   1.6086 B(  3-C ,  5-H ) :   0.9994 B(  4-C , 20-C ) :   1.0210
B(  6-C ,  7-H ) :   0.9451 B(  6-C ,  8-H ) :   0.9490 B(  6-C ,  9-C ) :   1.0540
B(  9-C , 10-H ) :   0.9553 B(  9-C , 11-H ) :   0.9540 B(  9-C , 12-C ) :   1.0644
B( 12-C , 13-H ) :   0.9741 B( 12-C , 14-H ) :   0.9777 B( 12-C , 15-H ) :   0.9757
B( 16-S , 17-C ) :   1.1510 B( 16-S , 20-C ) :   1.1351 B( 17-C , 18-C ) :   1.6119
B( 17-C , 33-H ) :   0.9625 B( 18-C , 19-C ) :   1.2447 B( 18-C , 21-H ) :   0.9895
B( 19-C , 20-C ) :   1.5827 B( 19-C , 22-C ) :   1.0274 B( 22-C , 23-H ) :   0.9275
B( 22-C , 24-H ) :   0.9222 B( 22-C , 25-C ) :   1.0598 B( 25-C , 26-H ) :   0.9582
B( 25-C , 27-H ) :   0.9580 B( 25-C , 28-C ) :   1.0678 B( 28-C , 29-H ) :   0.9763
B( 28-C , 30-H ) :   0.9752 B( 28-C , 31-H ) :   0.9768

Dispersion correction           -0.013356394
FINAL SINGLE POINT ENERGY     -1339.873689240683

DIPOLE MOMENT
-------------
                                X             Y             Z
Electronic contribution:    -12.27355      11.75655       1.57875
Nuclear contribution   :     12.58543     -11.98896      -1.39318
                        -----------------------------------------
Total Dipole Moment    :      0.31188      -0.23241       0.18557
                        -----------------------------------------
Magnitude (a.u.)       :      0.43096
Magnitude (Debye)      :      1.09540

Rotational constants in cm-1:     0.021523     0.006779     0.005650
Rotational constants in MHz :   645.234690   203.232513   169.382726

                             ****ORCA TERMINATED NORMALLY****
TOTAL RUN TIME: 0 days 0 hours 0 minutes 27 seconds 296 msec
