                         Program Version 4.2.1 -  RELEASE  -
|  1> ! wB97X-D3 SP def2-SVP
|  2> %pal
|  3> nprocs 16
|  4> end
|  5>
|  6> * xyz 0 1
|  7> S 	 -13.5511 	 40.0589 	 31.7502
|  8> C 	 -14.2586 	 39.1056 	 33.0655
|  9> C 	 -15.6161 	 39.0398 	 32.9164
| 10> C 	 -16.097 	 39.7649 	 31.7418
| 11> C 	 -15.1439 	 40.3224 	 30.9725
| 12> H 	 -17.1628 	 39.7873 	 31.396
| 13> C 	 -16.4874 	 38.417 	 33.9732
| 14> H 	 -15.8781 	 37.6672 	 34.4742
| 15> H 	 -17.2679 	 37.9039 	 33.4608
| 16> C 	 -17.0613 	 39.4483 	 35.0279
| 17> H 	 -17.3161 	 38.9242 	 35.8779
| 18> H 	 -16.3009 	 40.1521 	 35.2677
| 19> C 	 -18.2373 	 40.204 	 34.4345
| 20> H 	 -18.6545 	 41.0666 	 34.9585
| 21> H 	 -17.9107 	 40.7313 	 33.5088
| 22> H 	 -18.9928 	 39.5237 	 34.0517
| 23> S 	 -15.5211 	 40.1471 	 28.3172
| 24> C 	 -15.6364 	 41.6138 	 27.3871
| 25> C 	 -15.56 	 42.6959 	 28.204
| 26> C 	 -15.3126 	 42.4061 	 29.5692
| 27> C 	 -15.3046 	 41.0546 	 29.7766
| 28> H 	 -15.5703 	 43.6828 	 27.7651
| 29> C 	 -15.1557 	 43.4943 	 30.6473
| 30> H 	 -14.8444 	 44.4263 	 30.1634
| 31> H 	 -14.2186 	 43.1588 	 31.194
| 32> C 	 -16.2648 	 43.6081 	 31.7289
| 33> H 	 -16.1325 	 44.3716 	 32.4739
| 34> H 	 -16.1996 	 42.6475 	 32.3018
| 35> C 	 -17.5956 	 43.8013 	 30.9721
| 36> H 	 -18.4056 	 43.9854 	 31.6586
| 37> H 	 -17.9032 	 42.8698 	 30.5404
| 38> H 	 -17.6514 	 44.6134 	 30.2298
| 39> H 	 -13.7351 	 38.5534 	 33.7749
| 40> H 	 -15.7707 	 41.7381 	 26.3157
| 41> *
| 42>
| 43>                          ****END OF INPUT****

CARTESIAN COORDINATES (ANGSTROEM)
---------------------------------
  S    -13.551100   40.058900   31.750200
  C    -14.258600   39.105600   33.065500
  C    -15.616100   39.039800   32.916400
  C    -16.097000   39.764900   31.741800
  C    -15.143900   40.322400   30.972500
  H    -17.162800   39.787300   31.396000
  C    -16.487400   38.417000   33.973200
  H    -15.878100   37.667200   34.474200
  H    -17.267900   37.903900   33.460800
  C    -17.061300   39.448300   35.027900
  H    -17.316100   38.924200   35.877900
  H    -16.300900   40.152100   35.267700
  C    -18.237300   40.204000   34.434500
  H    -18.654500   41.066600   34.958500
  H    -17.910700   40.731300   33.508800
  H    -18.992800   39.523700   34.051700
  S    -15.521100   40.147100   28.317200
  C    -15.636400   41.613800   27.387100
  C    -15.560000   42.695900   28.204000
  C    -15.312600   42.406100   29.569200
  C    -15.304600   41.054600   29.776600
  H    -15.570300   43.682800   27.765100
  C    -15.155700   43.494300   30.647300
  H    -14.844400   44.426300   30.163400
  H    -14.218600   43.158800   31.194000
  C    -16.264800   43.608100   31.728900
  H    -16.132500   44.371600   32.473900
  H    -16.199600   42.647500   32.301800
  C    -17.595600   43.801300   30.972100
  H    -18.405600   43.985400   31.658600
  H    -17.903200   42.869800   30.540400
  H    -17.651400   44.613400   30.229800
  H    -13.735100   38.553400   33.774900
  H    -15.770700   41.738100   26.315700

 Total Charge           Charge          ....    0
 Multiplicity           Mult            ....    1
 Number of Electrons    NEL             ....  134
 Basis Dimension        Dim             ....  322

ORBITAL ENERGIES
----------------

  NO   OCC          E(Eh)            E(eV)
   0   2.0000     -88.966297     -2420.8960
   1   2.0000     -88.961587     -2420.7679
   2   2.0000     -10.325573      -280.9731
   3   2.0000     -10.317559      -280.7551
   4   2.0000     -10.314020      -280.6588
   5   2.0000     -10.311380      -280.5869
   6   2.0000     -10.301492      -280.3179
   7   2.0000     -10.300652      -280.2950
   8   2.0000     -10.298266      -280.2301
   9   2.0000     -10.295598      -280.1575
  10   2.0000     -10.291420      -280.0438
  11   2.0000     -10.288846      -279.9737
  12   2.0000     -10.287557      -279.9386
  13   2.0000     -10.282295      -279.7955
  14   2.0000     -10.277520      -279.6655
  15   2.0000     -10.270679      -279.4794
  16   2.0000      -8.081521      -219.9094
  17   2.0000      -8.075468      -219.7447
  18   2.0000      -6.040044      -164.3579
  19   2.0000      -6.035932      -164.2461
  20   2.0000      -6.034162      -164.1979
  21   2.0000      -6.032251      -164.1459
  22   2.0000      -6.030074      -164.0867
  23   2.0000      -6.026086      -163.9781
  24   2.0000      -1.012322       -27.5467
  25   2.0000      -0.984454       -26.7884
  26   2.0000      -0.912890       -24.8410
  27   2.0000      -0.903310       -24.5803
  28   2.0000      -0.877401       -23.8753
  29   2.0000      -0.846776       -23.0420
  30   2.0000      -0.840097       -22.8602
  31   2.0000      -0.820950       -22.3392
  32   2.0000      -0.780939       -21.2504
  33   2.0000      -0.770665       -20.9709
  34   2.0000      -0.714893       -19.4532
  35   2.0000      -0.710546       -19.3349
  36   2.0000      -0.693358       -18.8672
  37   2.0000      -0.663803       -18.0630
  38   2.0000      -0.644258       -17.5311
  39   2.0000      -0.613707       -16.6998
  40   2.0000      -0.586475       -15.9588
  41   2.0000      -0.575847       -15.6696
  42   2.0000      -0.554430       -15.0868
  43   2.0000      -0.547241       -14.8912
  44   2.0000      -0.545670       -14.8484
  45   2.0000      -0.540029       -14.6949
  46   2.0000      -0.519806       -14.1447
  47   2.0000      -0.513904       -13.9840
  48   2.0000      -0.507013       -13.7965
  49   2.0000      -0.493934       -13.4406
  50   2.0000      -0.485084       -13.1998
  51   2.0000      -0.478285       -13.0148
  52   2.0000      -0.476754       -12.9731
  53   2.0000      -0.467645       -12.7253
  54   2.0000      -0.456984       -12.4352
  55   2.0000      -0.440966       -11.9993
  56   2.0000      -0.439257       -11.9528
  57   2.0000      -0.437162       -11.8958
  58   2.0000      -0.432863       -11.7788
  59   2.0000      -0.427814       -11.6414
  60   2.0000      -0.420539       -11.4434
  61   2.0000      -0.413977       -11.2649
  62   2.0000      -0.413226       -11.2445
  63   2.0000      -0.335882        -9.1398
  64   2.0000      -0.334590        -9.1047
  65   2.0000      -0.323515        -8.8033
  66   2.0000      -0.309659        -8.4262
  67   0.0000       0.045399         1.2354
  68   0.0000       0.053591         1.4583
  69   0.0000       0.117982         3.2105
  70   0.0000       0.119354         3.2478
  71   0.0000       0.126982         3.4554

MULLIKEN ATOMIC CHARGES
-----------------------
   0 S :    0.094695
   1 C :   -0.091483
   2 C :   -0.109888
   3 C :    0.031726
   4 C :   -0.171228
   5 H :    0.034250
   6 C :    0.059887
   7 H :    0.016268
   8 H :    0.018225
   9 C :    0.017721
  10 H :    0.018210
  11 H :    0.021913
  12 C :   -0.072954
  13 H :    0.038509
  14 H :    0.015897
  15 H :    0.025746
  16 S :    0.129620
  17 C :   -0.084707
  18 C :   -0.045396
  19 C :   -0.016205
  20 C :   -0.206467
  21 H :    0.010452
  22 C :    0.064328
  23 H :    0.023215
  24 H :    0.030402
  25 C :   -0.051088
  26 H :    0.030677
  27 H :    0.048394
  28 C :   -0.043849
  29 H :    0.015603
  30 H :    0.031223
  31 H :    0.035787
  32 H :    0.025261
  33 H :    0.055257
Sum of atomic charges:   -0.0000000

LOEWDIN ATOMIC CHARGES
----------------------
   0 S :    0.370203
   1 C :   -0.174621
   2 C :   -0.063585
   3 C :   -0.066617
   4 C :   -0.185906
   5 H :    0.039675
   6 C :   -0.022721
   7 H :    0.029366
   8 H :    0.024036
   9 C :   -0.020891
  10 H :    0.013433
  11 H :    0.023710
  12 C :   -0.074936
  13 H :    0.027897
  14 H :    0.028134
  15 H :    0.022874
  16 S :    0.425431
  17 C :   -0.189174
  18 C :   -0.073231
  19 C :   -0.050172
  20 C :   -0.213903
  21 H :    0.029574
  22 C :   -0.034817
  23 H :    0.026738
  24 H :    0.035532
  25 C :   -0.036579
  26 H :    0.022085
  27 H :    0.033734
  28 C :   -0.069200
  29 H :    0.020389
  30 H :    0.024065
  31 H :    0.027151
  32 H :    0.017813
  33 H :    0.034512

  Mayer bond orders larger than 0.100000
B(  0-S ,  1-C ) :   1.1207 B(  0-S ,  4-C ) :   1.1095 B(  1-C ,  2-C ) :   1.6482
B(  1-C , 32-H ) :   0.9749 B(  2-C ,  3-C ) :   1.1919 B(  2-C ,  6-C ) :   1.0388
B(  3-C ,  4-C ) :   1.6445 B(  3-C ,  5-H ) :   0.9792 B(  4-C , 20-C ) :   1.0373
B(  6-C ,  7-H ) :   0.9393 B(  6-C ,  8-H ) :   0.9398 B(  6-C ,  9-C ) :   1.0535
B(  9-C , 10-H ) :   0.9580 B(  9-C , 11-H ) :   0.9542 B(  9-C , 12-C ) :   1.0774
B( 12-C , 13-H ) :   0.9710 B( 12-C , 14-H ) :   0.9678 B( 12-C , 15-H ) :   0.9749
B( 16-S , 17-C ) :   1.1452 B( 16-S , 20-C ) :   1.1571 B( 17-C , 18-C ) :   1.6295
B( 17-C , 33-H ) :   0.9646 B( 18-C , 19-C ) :   1.2409 B( 18-C , 21-H ) :   0.9865
B( 19-C , 20-C ) :   1.5937 B( 19-C , 22-C ) :   1.0293 B( 22-C , 23-H ) :   0.9415
B( 22-C , 24-H ) :   0.9280 B( 22-C , 25-C ) :   1.0633 B( 25-C , 26-H ) :   0.9589
B( 25-C , 27-H ) :   0.9519 B( 25-C , 28-C ) :   1.0712 B( 28-C , 29-H ) :   0.9726
B( 28-C , 30-H ) :   0.9700 B( 28-C , 31-H ) :   0.9782

Dispersion correction           -0.016646380
FINAL SINGLE POINT ENERGY     -1339.883144539493

DIPOLE MOMENT
-------------
                                X             Y             Z
Electronic contribution:     16.59240      -9.72896     -17.38812
Nuclear contribution   :    -16.98124       9.92170      17.67890
                        -----------------------------------------
Total Dipole Moment    :     -0.38884       0.19274       0.29078
                        -----------------------------------------
Magnitude (a.u.)       :      0.52240
Magnitude (Debye)      :      1.32783

Rotational constants in cm-1:     0.019668     0.009848     0.008190
Rotational constants in MHz :   589.631727   295.225920   245.530722

                             ****ORCA TERMINATED NORMALLY****
TOTAL RUN TIME: 0 days 0 hours 0 minutes 36 seconds 783 msec
