                         Program Version 4.2.1 -  RELEASE  -
|  1> ! wB97X-D3 SP def2-SVP
|  2> %pal
|  3> nprocs 16
|  4> end
|  5>
|  6> * xyz 0 1
|  7> S 	 -2.52117 	 -15.1459 	 87.1659
|  8> C 	 -1.80853 	 -16.6789 	 87.3376
|  9> C 	 -2.21328 	 -17.4504 	 86.249
| 10> C 	 -2.82849 	 -16.7217 	 85.1876
| 11> C 	 -2.97991 	 -15.3908 	 85.5046
| 12> H 	 -3.20425 	 -17.1464 	 84.3362
| 13> C 	 -1.93853 	 -18.9144 	 86.0933
| 14> H 	 -1.22697 	 -19.2264 	 86.8491
| 15> H 	 -1.34945 	 -18.9514 	 85.1727
| 16> C 	 -3.18337 	 -19.7928 	 85.9256
| 17> H 	 -3.75487 	 -19.8433 	 86.8896
| 18> H 	 -3.90041 	 -19.3014 	 85.2546
| 19> C 	 -2.96904 	 -21.2547 	 85.6089
| 20> H 	 -3.92917 	 -21.8193 	 85.7399
| 21> H 	 -2.47743 	 -21.3147 	 84.6597
| 22> H 	 -2.27093 	 -21.6778 	 86.3845
| 23> S 	 -2.46963 	 -14.0311 	 83.1537
| 24> C 	 -3.6661 	 -12.7534 	 82.7092
| 25> C 	 -4.82439 	 -12.855 	 83.4376
| 26> C 	 -4.74744 	 -13.8458 	 84.4643
| 27> C 	 -3.46414 	 -14.3615 	 84.5588
| 28> H 	 -5.71047 	 -12.2468 	 83.173
| 29> C 	 -5.92189 	 -14.1819 	 85.3709
| 30> H 	 -6.74761 	 -13.4561 	 85.2073
| 31> H 	 -5.60461 	 -14.1629 	 86.4665
| 32> C 	 -6.36593 	 -15.6857 	 85.2351
| 33> H 	 -5.57954 	 -16.3338 	 85.5667
| 34> H 	 -6.59417 	 -15.945 	 84.2101
| 35> C 	 -7.58305 	 -15.9362 	 86.0195
| 36> H 	 -7.77721 	 -15.2243 	 86.826
| 37> H 	 -7.64234 	 -16.9566 	 86.2917
| 38> H 	 -8.40133 	 -15.8493 	 85.2879
| 39> H 	 -1.19907 	 -17.0444 	 88.1228
| 40> H 	 -3.62905 	 -11.9725 	 81.9647
| 41> *
| 42>
| 43>                          ****END OF INPUT****

CARTESIAN COORDINATES (ANGSTROEM)
---------------------------------
  S     -2.521170  -15.145900   87.165900
  C     -1.808530  -16.678900   87.337600
  C     -2.213280  -17.450400   86.249000
  C     -2.828490  -16.721700   85.187600
  C     -2.979910  -15.390800   85.504600
  H     -3.204250  -17.146400   84.336200
  C     -1.938530  -18.914400   86.093300
  H     -1.226970  -19.226400   86.849100
  H     -1.349450  -18.951400   85.172700
  C     -3.183370  -19.792800   85.925600
  H     -3.754870  -19.843300   86.889600
  H     -3.900410  -19.301400   85.254600
  C     -2.969040  -21.254700   85.608900
  H     -3.929170  -21.819300   85.739900
  H     -2.477430  -21.314700   84.659700
  H     -2.270930  -21.677800   86.384500
  S     -2.469630  -14.031100   83.153700
  C     -3.666100  -12.753400   82.709200
  C     -4.824390  -12.855000   83.437600
  C     -4.747440  -13.845800   84.464300
  C     -3.464140  -14.361500   84.558800
  H     -5.710470  -12.246800   83.173000
  C     -5.921890  -14.181900   85.370900
  H     -6.747610  -13.456100   85.207300
  H     -5.604610  -14.162900   86.466500
  C     -6.365930  -15.685700   85.235100
  H     -5.579540  -16.333800   85.566700
  H     -6.594170  -15.945000   84.210100
  C     -7.583050  -15.936200   86.019500
  H     -7.777210  -15.224300   86.826000
  H     -7.642340  -16.956600   86.291700
  H     -8.401330  -15.849300   85.287900
  H     -1.199070  -17.044400   88.122800
  H     -3.629050  -11.972500   81.964700

 Total Charge           Charge          ....    0
 Multiplicity           Mult            ....    1
 Number of Electrons    NEL             ....  134
 Basis Dimension        Dim             ....  322

ORBITAL ENERGIES
----------------

  NO   OCC          E(Eh)            E(eV)
   0   2.0000     -88.970139     -2421.0006
   1   2.0000     -88.964935     -2420.8589
   2   2.0000     -10.327261      -281.0190
   3   2.0000     -10.325121      -280.9608
   4   2.0000     -10.318004      -280.7672
   5   2.0000     -10.308426      -280.5065
   6   2.0000     -10.302169      -280.3363
   7   2.0000     -10.300261      -280.2844
   8   2.0000     -10.296885      -280.1925
   9   2.0000     -10.295017      -280.1417
  10   2.0000     -10.288699      -279.9697
  11   2.0000     -10.288299      -279.9589
  12   2.0000     -10.285077      -279.8712
  13   2.0000     -10.283230      -279.8209
  14   2.0000     -10.274987      -279.5966
  15   2.0000     -10.266501      -279.3657
  16   2.0000      -8.083626      -219.9666
  17   2.0000      -8.080355      -219.8776
  18   2.0000      -6.042326      -164.4201
  19   2.0000      -6.038842      -164.3252
  20   2.0000      -6.038588      -164.3183
  21   2.0000      -6.034666      -164.2116
  22   2.0000      -6.033974      -164.1928
  23   2.0000      -6.031187      -164.1169
  24   2.0000      -1.008802       -27.4509
  25   2.0000      -0.985044       -26.8044
  26   2.0000      -0.912613       -24.8335
  27   2.0000      -0.909077       -24.7372
  28   2.0000      -0.870992       -23.7009
  29   2.0000      -0.854300       -23.2467
  30   2.0000      -0.851103       -23.1597
  31   2.0000      -0.818319       -22.2676
  32   2.0000      -0.778354       -21.1801
  33   2.0000      -0.764755       -20.8100
  34   2.0000      -0.707377       -19.2487
  35   2.0000      -0.694873       -18.9084
  36   2.0000      -0.686074       -18.6690
  37   2.0000      -0.659877       -17.9562
  38   2.0000      -0.648232       -17.6393
  39   2.0000      -0.618289       -16.8245
  40   2.0000      -0.593867       -16.1599
  41   2.0000      -0.571779       -15.5589
  42   2.0000      -0.567532       -15.4433
  43   2.0000      -0.561455       -15.2780
  44   2.0000      -0.528780       -14.3888
  45   2.0000      -0.527128       -14.3439
  46   2.0000      -0.521113       -14.1802
  47   2.0000      -0.511754       -13.9255
  48   2.0000      -0.509058       -13.8522
  49   2.0000      -0.502357       -13.6698
  50   2.0000      -0.491716       -13.3803
  51   2.0000      -0.479242       -13.0408
  52   2.0000      -0.469638       -12.7795
  53   2.0000      -0.465420       -12.6647
  54   2.0000      -0.459865       -12.5136
  55   2.0000      -0.450949       -12.2710
  56   2.0000      -0.443951       -12.0805
  57   2.0000      -0.435792       -11.8585
  58   2.0000      -0.433194       -11.7878
  59   2.0000      -0.424758       -11.5583
  60   2.0000      -0.419616       -11.4183
  61   2.0000      -0.409741       -11.1496
  62   2.0000      -0.407920       -11.1001
  63   2.0000      -0.337095        -9.1728
  64   2.0000      -0.333468        -9.0741
  65   2.0000      -0.320028        -8.7084
  66   2.0000      -0.296528        -8.0689
  67   0.0000       0.039498         1.0748
  68   0.0000       0.050396         1.3713
  69   0.0000       0.096515         2.6263
  70   0.0000       0.121069         3.2945
  71   0.0000       0.135603         3.6899

MULLIKEN ATOMIC CHARGES
-----------------------
   0 S :    0.125870
   1 C :   -0.105663
   2 C :   -0.106934
   3 C :    0.062622
   4 C :   -0.171955
   5 H :   -0.017907
   6 C :    0.092008
   7 H :    0.005892
   8 H :    0.024841
   9 C :   -0.105719
  10 H :    0.025431
  11 H :    0.027508
  12 C :   -0.039721
  13 H :    0.050001
  14 H :    0.031179
  15 H :    0.031649
  16 S :    0.118982
  17 C :   -0.076139
  18 C :   -0.050886
  19 C :    0.002117
  20 C :   -0.172610
  21 H :    0.030749
  22 C :    0.028772
  23 H :    0.029858
  24 H :    0.042986
  25 C :   -0.090092
  26 H :    0.039141
  27 H :    0.021916
  28 C :   -0.004326
  29 H :    0.034848
  30 H :    0.018113
  31 H :    0.016311
  32 H :    0.035882
  33 H :    0.045276
Sum of atomic charges:    0.0000000

LOEWDIN ATOMIC CHARGES
----------------------
   0 S :    0.432605
   1 C :   -0.214304
   2 C :   -0.060372
   3 C :   -0.056574
   4 C :   -0.196418
   5 H :    0.015490
   6 C :   -0.036176
   7 H :    0.025574
   8 H :    0.032060
   9 C :   -0.050419
  10 H :    0.028191
  11 H :    0.021857
  12 C :   -0.066724
  13 H :    0.036099
  14 H :    0.019300
  15 H :    0.030414
  16 S :    0.389966
  17 C :   -0.170639
  18 C :   -0.071130
  19 C :   -0.054923
  20 C :   -0.197207
  21 H :    0.038244
  22 C :   -0.033789
  23 H :    0.030154
  24 H :    0.040459
  25 C :   -0.040161
  26 H :    0.021145
  27 H :    0.020348
  28 C :   -0.064198
  29 H :    0.025230
  30 H :    0.022294
  31 H :    0.028109
  32 H :    0.026207
  33 H :    0.029290

  Mayer bond orders larger than 0.100000
B(  0-S ,  1-C ) :   1.1477 B(  0-S ,  4-C ) :   1.1720 B(  1-C ,  2-C ) :   1.5761
B(  1-C , 32-H ) :   0.9785 B(  2-C ,  3-C ) :   1.2491 B(  2-C ,  6-C ) :   1.0346
B(  3-C ,  4-C ) :   1.5409 B(  3-C ,  5-H ) :   1.0124 B(  4-C , 20-C ) :   1.0177
B(  6-C ,  7-H ) :   0.9368 B(  6-C ,  8-H ) :   0.9373 B(  6-C ,  9-C ) :   1.0518
B(  9-C , 10-H ) :   0.9523 B(  9-C , 11-H ) :   0.9566 B(  9-C , 12-C ) :   1.0858
B( 12-C , 13-H ) :   0.9729 B( 12-C , 14-H ) :   0.9753 B( 12-C , 15-H ) :   0.9718
B( 16-S , 17-C ) :   1.1227 B( 16-S , 20-C ) :   1.1314 B( 17-C , 18-C ) :   1.6568
B( 17-C , 33-H ) :   0.9638 B( 18-C , 19-C ) :   1.2240 B( 18-C , 21-H ) :   0.9801
B( 19-C , 20-C ) :   1.6095 B( 19-C , 22-C ) :   1.0459 B( 22-C , 23-H ) :   0.9454
B( 22-C , 24-H ) :   0.9297 B( 22-C , 25-C ) :   1.0533 B( 25-C , 26-H ) :   0.9560
B( 25-C , 27-H ) :   0.9605 B( 25-C , 28-C ) :   1.0896 B( 28-C , 29-H ) :   0.9707
B( 28-C , 30-H ) :   0.9685 B( 28-C , 31-H ) :   0.9761

Dispersion correction           -0.014854184
FINAL SINGLE POINT ENERGY     -1339.860686959436

DIPOLE MOMENT
-------------
                                X             Y             Z
Electronic contribution:     15.22204      22.08799      -3.70645
Nuclear contribution   :    -15.61918     -22.51231       3.62816
                        -----------------------------------------
Total Dipole Moment    :     -0.39715      -0.42432      -0.07829
                        -----------------------------------------
Magnitude (a.u.)       :      0.58643
Magnitude (Debye)      :      1.49059

Rotational constants in cm-1:     0.017914     0.008735     0.007618
Rotational constants in MHz :   537.039831   261.862943   228.388369

                             ****ORCA TERMINATED NORMALLY****
TOTAL RUN TIME: 0 days 0 hours 0 minutes 32 seconds 982 msec
