                         Program Version 4.2.1 -  RELEASE  -
|  1> ! wB97X-D3 SP def2-SVP
|  2> %pal
|  3> nprocs 16
|  4> end
|  5>
|  6> * xyz 0 1
|  7> S 	 49.7576 	 2.87266 	 82.459
|  8> C 	 51.4631 	 3.02467 	 82.2609
|  9> C 	 52.0633 	 3.09192 	 83.5302
| 10> C 	 51.1161 	 2.75414 	 84.6321
| 11> C 	 49.8312 	 2.66464 	 84.1934
| 12> H 	 51.2813 	 2.67941 	 85.711
| 13> C 	 53.4962 	 3.38555 	 83.7753
| 14> H 	 54.019 	 3.22352 	 82.831
| 15> H 	 53.8835 	 2.63902 	 84.4027
| 16> C 	 53.8683 	 4.77871 	 84.2398
| 17> H 	 53.3907 	 5.52888 	 83.6089
| 18> H 	 53.4159 	 4.91596 	 85.1992
| 19> C 	 55.3639 	 5.08282 	 84.429
| 20> H 	 55.9693 	 4.58171 	 83.5915
| 21> H 	 55.5353 	 6.11373 	 84.6165
| 22> H 	 55.8214 	 4.77419 	 85.4271
| 23> S 	 47.663 	 1.15218 	 84.9507
| 24> C 	 46.6274 	 1.73774 	 86.2574
| 25> C 	 46.8759 	 3.0627 	 86.6114
| 26> C 	 48.0941 	 3.52089 	 85.9582
| 27> C 	 48.6244 	 2.60909 	 85.0319
| 28> H 	 46.3037 	 3.5473 	 87.384
| 29> C 	 48.6677 	 4.89473 	 86.3727
| 30> H 	 47.9863 	 5.72162 	 86.0727
| 31> H 	 49.5867 	 4.99152 	 85.801
| 32> C 	 48.9936 	 4.79513 	 87.9531
| 33> H 	 49.9305 	 4.20011 	 88.1321
| 34> H 	 48.127 	 4.44961 	 88.4754
| 35> C 	 49.3724 	 6.15885 	 88.4736
| 36> H 	 49.4111 	 6.05352 	 89.567
| 37> H 	 48.5429 	 6.92645 	 88.2871
| 38> H 	 50.3046 	 6.58163 	 88.0206
| 39> H 	 51.9267 	 3.43366 	 81.3771
| 40> H 	 45.8621 	 1.24519 	 86.7115
| 41> *
| 42>
| 43>                          ****END OF INPUT****

CARTESIAN COORDINATES (ANGSTROEM)
---------------------------------
  S     49.757600    2.872660   82.459000
  C     51.463100    3.024670   82.260900
  C     52.063300    3.091920   83.530200
  C     51.116100    2.754140   84.632100
  C     49.831200    2.664640   84.193400
  H     51.281300    2.679410   85.711000
  C     53.496200    3.385550   83.775300
  H     54.019000    3.223520   82.831000
  H     53.883500    2.639020   84.402700
  C     53.868300    4.778710   84.239800
  H     53.390700    5.528880   83.608900
  H     53.415900    4.915960   85.199200
  C     55.363900    5.082820   84.429000
  H     55.969300    4.581710   83.591500
  H     55.535300    6.113730   84.616500
  H     55.821400    4.774190   85.427100
  S     47.663000    1.152180   84.950700
  C     46.627400    1.737740   86.257400
  C     46.875900    3.062700   86.611400
  C     48.094100    3.520890   85.958200
  C     48.624400    2.609090   85.031900
  H     46.303700    3.547300   87.384000
  C     48.667700    4.894730   86.372700
  H     47.986300    5.721620   86.072700
  H     49.586700    4.991520   85.801000
  C     48.993600    4.795130   87.953100
  H     49.930500    4.200110   88.132100
  H     48.127000    4.449610   88.475400
  C     49.372400    6.158850   88.473600
  H     49.411100    6.053520   89.567000
  H     48.542900    6.926450   88.287100
  H     50.304600    6.581630   88.020600
  H     51.926700    3.433660   81.377100
  H     45.862100    1.245190   86.711500

 Total Charge           Charge          ....    0
 Multiplicity           Mult            ....    1
 Number of Electrons    NEL             ....  134
 Basis Dimension        Dim             ....  322

ORBITAL ENERGIES
----------------

  NO   OCC          E(Eh)            E(eV)
   0   2.0000     -88.966676     -2420.9063
   1   2.0000     -88.961815     -2420.7740
   2   2.0000     -10.328186      -281.0442
   3   2.0000     -10.327961      -281.0381
   4   2.0000     -10.314797      -280.6799
   5   2.0000     -10.314589      -280.6742
   6   2.0000     -10.309904      -280.5467
   7   2.0000     -10.308638      -280.5123
   8   2.0000     -10.298344      -280.2322
   9   2.0000     -10.298302      -280.2310
  10   2.0000     -10.297143      -280.1995
  11   2.0000     -10.294527      -280.1283
  12   2.0000     -10.288411      -279.9619
  13   2.0000     -10.284968      -279.8682
  14   2.0000     -10.284675      -279.8602
  15   2.0000     -10.283253      -279.8215
  16   2.0000      -8.081115      -219.8983
  17   2.0000      -8.077254      -219.7933
  18   2.0000      -6.039653      -164.3473
  19   2.0000      -6.035795      -164.2423
  20   2.0000      -6.035691      -164.2395
  21   2.0000      -6.031832      -164.1345
  22   2.0000      -6.031612      -164.1285
  23   2.0000      -6.027964      -164.0292
  24   2.0000      -1.003370       -27.3031
  25   2.0000      -0.980376       -26.6774
  26   2.0000      -0.914800       -24.8930
  27   2.0000      -0.902770       -24.5656
  28   2.0000      -0.870922       -23.6990
  29   2.0000      -0.849048       -23.1038
  30   2.0000      -0.844987       -22.9933
  31   2.0000      -0.819805       -22.3080
  32   2.0000      -0.778939       -21.1960
  33   2.0000      -0.764340       -20.7987
  34   2.0000      -0.705727       -19.2038
  35   2.0000      -0.697124       -18.9697
  36   2.0000      -0.694483       -18.8978
  37   2.0000      -0.660597       -17.9758
  38   2.0000      -0.648095       -17.6356
  39   2.0000      -0.615632       -16.7522
  40   2.0000      -0.590880       -16.0787
  41   2.0000      -0.572754       -15.5854
  42   2.0000      -0.565343       -15.3838
  43   2.0000      -0.560601       -15.2547
  44   2.0000      -0.529930       -14.4201
  45   2.0000      -0.528857       -14.3909
  46   2.0000      -0.520178       -14.1548
  47   2.0000      -0.512855       -13.9555
  48   2.0000      -0.506349       -13.7785
  49   2.0000      -0.503196       -13.6927
  50   2.0000      -0.495818       -13.4919
  51   2.0000      -0.477974       -13.0063
  52   2.0000      -0.465704       -12.6725
  53   2.0000      -0.462751       -12.5921
  54   2.0000      -0.455181       -12.3861
  55   2.0000      -0.451642       -12.2898
  56   2.0000      -0.443027       -12.0554
  57   2.0000      -0.433397       -11.7933
  58   2.0000      -0.432066       -11.7571
  59   2.0000      -0.426847       -11.6151
  60   2.0000      -0.418946       -11.4001
  61   2.0000      -0.412189       -11.2162
  62   2.0000      -0.408630       -11.1194
  63   2.0000      -0.342272        -9.3137
  64   2.0000      -0.328061        -8.9270
  65   2.0000      -0.323813        -8.8114
  66   2.0000      -0.301776        -8.2118
  67   0.0000       0.042435         1.1547
  68   0.0000       0.058145         1.5822
  69   0.0000       0.114203         3.1076
  70   0.0000       0.116999         3.1837
  71   0.0000       0.126210         3.4343

MULLIKEN ATOMIC CHARGES
-----------------------
   0 S :    0.106003
   1 C :   -0.089518
   2 C :   -0.148819
   3 C :    0.043224
   4 C :   -0.150693
   5 H :    0.021198
   6 C :    0.092646
   7 H :    0.005059
   8 H :    0.015777
   9 C :   -0.047899
  10 H :    0.027583
  11 H :    0.010394
  12 C :   -0.065036
  13 H :    0.048918
  14 H :    0.027392
  15 H :    0.028147
  16 S :    0.115203
  17 C :   -0.048363
  18 C :   -0.040658
  19 C :   -0.038764
  20 C :   -0.181503
  21 H :    0.026475
  22 C :    0.066536
  23 H :    0.049453
  24 H :    0.024741
  25 C :   -0.098171
  26 H :    0.048203
  27 H :    0.033964
  28 C :   -0.068345
  29 H :    0.036570
  30 H :    0.029771
  31 H :    0.043458
  32 H :    0.060363
  33 H :    0.016691
Sum of atomic charges:   -0.0000000

LOEWDIN ATOMIC CHARGES
----------------------
   0 S :    0.411818
   1 C :   -0.210227
   2 C :   -0.052697
   3 C :   -0.064657
   4 C :   -0.198951
   5 H :    0.035958
   6 C :   -0.037276
   7 H :    0.028789
   8 H :    0.026377
   9 C :   -0.041632
  10 H :    0.025600
  11 H :    0.019622
  12 C :   -0.077822
  13 H :    0.033955
  14 H :    0.024276
  15 H :    0.032265
  16 S :    0.404512
  17 C :   -0.159366
  18 C :   -0.066867
  19 C :   -0.046232
  20 C :   -0.214891
  21 H :    0.031056
  22 C :   -0.029468
  23 H :    0.036515
  24 H :    0.027187
  25 C :   -0.035453
  26 H :    0.035724
  27 H :    0.018870
  28 C :   -0.077152
  29 H :    0.026245
  30 H :    0.025830
  31 H :    0.028392
  32 H :    0.031720
  33 H :    0.007982

  Mayer bond orders larger than 0.100000
B(  0-S ,  1-C ) :   1.1348 B(  0-S ,  4-C ) :   1.1574 B(  1-C ,  2-C ) :   1.6263
B(  1-C , 32-H ) :   0.9632 B(  2-C ,  3-C ) :   1.1878 B(  2-C ,  6-C ) :   1.0524
B(  3-C ,  4-C ) :   1.6139 B(  3-C ,  5-H ) :   0.9942 B(  4-C , 20-C ) :   1.0014
B(  6-C ,  7-H ) :   0.9302 B(  6-C ,  8-H ) :   0.9340 B(  6-C ,  9-C ) :   1.0668
B(  9-C , 10-H ) :   0.9550 B(  9-C , 11-H ) :   0.9494 B(  9-C , 12-C ) :   1.0810
B( 12-C , 13-H ) :   0.9747 B( 12-C , 14-H ) :   0.9703 B( 12-C , 15-H ) :   0.9713
B( 16-S , 17-C ) :   1.1552 B( 16-S , 20-C ) :   1.1325 B( 17-C , 18-C ) :   1.6333
B( 17-C , 33-H ) :   0.9758 B( 18-C , 19-C ) :   1.2117 B( 18-C , 21-H ) :   0.9859
B( 19-C , 20-C ) :   1.6247 B( 19-C , 22-C ) :   1.0392 B( 22-C , 23-H ) :   0.9454
B( 22-C , 24-H ) :   0.9329 B( 22-C , 25-C ) :   1.0490 B( 25-C , 26-H ) :   0.9529
B( 25-C , 27-H ) :   0.9621 B( 25-C , 28-C ) :   1.0886 B( 28-C , 29-H ) :   0.9723
B( 28-C , 30-H ) :   0.9737 B( 28-C , 31-H ) :   0.9730

Dispersion correction           -0.013914453
FINAL SINGLE POINT ENERGY     -1339.861654921938

DIPOLE MOMENT
-------------
                                X             Y             Z
Electronic contribution:    -20.29410     -20.07112     -15.28735
Nuclear contribution   :     20.57255      20.62486      15.89892
                        -----------------------------------------
Total Dipole Moment    :      0.27845       0.55374       0.61156
                        -----------------------------------------
Magnitude (a.u.)       :      0.87073
Magnitude (Debye)      :      2.21322

Rotational constants in cm-1:     0.016902     0.008895     0.006324
Rotational constants in MHz :   506.721368   266.666764   189.602471

                             ****ORCA TERMINATED NORMALLY****
TOTAL RUN TIME: 0 days 0 hours 0 minutes 29 seconds 348 msec
