                         Program Version 4.2.1 -  RELEASE  -
|  1> ! wB97X-D3 SP def2-SVP
|  2> %pal
|  3> nprocs 16
|  4> end
|  5>
|  6> * xyz 0 1
|  7> S 	 45.7241 	 10.2508 	 53.744
|  8> C 	 44.1652 	 9.58895 	 53.7384
|  9> C 	 43.407 	 10.2209 	 52.7622
| 10> C 	 44.1266 	 11.2263 	 52.025
| 11> C 	 45.3216 	 11.5872 	 52.6326
| 12> H 	 43.7918 	 11.8279 	 51.1633
| 13> C 	 42.03 	 9.79071 	 52.3657
| 14> H 	 42.1336 	 8.69693 	 52.5093
| 15> H 	 41.9716 	 10.0239 	 51.3008
| 16> C 	 40.8501 	 10.3177 	 53.1377
| 17> H 	 40.8712 	 11.397 	 53.036
| 18> H 	 40.0326 	 9.98511 	 52.5008
| 19> C 	 40.6614 	 9.96487 	 54.6212
| 20> H 	 41.5578 	 10.4598 	 55.1814
| 21> H 	 39.686 	 10.3239 	 54.9416
| 22> H 	 40.6213 	 8.87374 	 54.8689
| 23> S 	 47.7282 	 12.1766 	 51.4261
| 24> C 	 48.22 	 13.7952 	 51.4232
| 25> C 	 47.2797 	 14.6914 	 51.8819
| 26> C 	 46.1812 	 14.0431 	 52.4423
| 27> C 	 46.258 	 12.6356 	 52.299
| 28> H 	 47.3918 	 15.747 	 51.9063
| 29> C 	 44.9854 	 14.7374 	 53.07
| 30> H 	 44.5143 	 13.8077 	 53.5052
| 31> H 	 44.3758 	 15.1975 	 52.2872
| 32> C 	 45.2643 	 15.789 	 54.1887
| 33> H 	 44.3657 	 16.307 	 54.3667
| 34> H 	 45.9575 	 16.6291 	 53.8264
| 35> C 	 45.8207 	 15.3964 	 55.5404
| 36> H 	 45.2419 	 14.4917 	 55.9231
| 37> H 	 46.0517 	 16.3132 	 56.1468
| 38> H 	 46.815 	 15.0093 	 55.4042
| 39> H 	 43.8632 	 8.77909 	 54.3316
| 40> H 	 49.0815 	 14.0476 	 50.9423
| 41> *
| 42>
| 43>                          ****END OF INPUT****

CARTESIAN COORDINATES (ANGSTROEM)
---------------------------------
  S     45.724100   10.250800   53.744000
  C     44.165200    9.588950   53.738400
  C     43.407000   10.220900   52.762200
  C     44.126600   11.226300   52.025000
  C     45.321600   11.587200   52.632600
  H     43.791800   11.827900   51.163300
  C     42.030000    9.790710   52.365700
  H     42.133600    8.696930   52.509300
  H     41.971600   10.023900   51.300800
  C     40.850100   10.317700   53.137700
  H     40.871200   11.397000   53.036000
  H     40.032600    9.985110   52.500800
  C     40.661400    9.964870   54.621200
  H     41.557800   10.459800   55.181400
  H     39.686000   10.323900   54.941600
  H     40.621300    8.873740   54.868900
  S     47.728200   12.176600   51.426100
  C     48.220000   13.795200   51.423200
  C     47.279700   14.691400   51.881900
  C     46.181200   14.043100   52.442300
  C     46.258000   12.635600   52.299000
  H     47.391800   15.747000   51.906300
  C     44.985400   14.737400   53.070000
  H     44.514300   13.807700   53.505200
  H     44.375800   15.197500   52.287200
  C     45.264300   15.789000   54.188700
  H     44.365700   16.307000   54.366700
  H     45.957500   16.629100   53.826400
  C     45.820700   15.396400   55.540400
  H     45.241900   14.491700   55.923100
  H     46.051700   16.313200   56.146800
  H     46.815000   15.009300   55.404200
  H     43.863200    8.779090   54.331600
  H     49.081500   14.047600   50.942300

 Total Charge           Charge          ....    0
 Multiplicity           Mult            ....    1
 Number of Electrons    NEL             ....  134
 Basis Dimension        Dim             ....  322

ORBITAL ENERGIES
----------------

  NO   OCC          E(Eh)            E(eV)
   0   2.0000     -88.966942     -2420.9136
   1   2.0000     -88.959399     -2420.7083
   2   2.0000     -10.328217      -281.0451
   3   2.0000     -10.324436      -280.9422
   4   2.0000     -10.307876      -280.4916
   5   2.0000     -10.307586      -280.4837
   6   2.0000     -10.302262      -280.3388
   7   2.0000     -10.297759      -280.2163
   8   2.0000     -10.296626      -280.1855
   9   2.0000     -10.296553      -280.1835
  10   2.0000     -10.290403      -280.0161
  11   2.0000     -10.286927      -279.9215
  12   2.0000     -10.286884      -279.9203
  13   2.0000     -10.286614      -279.9130
  14   2.0000     -10.284286      -279.8496
  15   2.0000     -10.279721      -279.7254
  16   2.0000      -8.082592      -219.9385
  17   2.0000      -8.074952      -219.7306
  18   2.0000      -6.040750      -164.3772
  19   2.0000      -6.036998      -164.2751
  20   2.0000      -6.033647      -164.1839
  21   2.0000      -6.033316      -164.1749
  22   2.0000      -6.029327      -164.0663
  23   2.0000      -6.025801      -163.9704
  24   2.0000      -1.008597       -27.4453
  25   2.0000      -0.989451       -26.9243
  26   2.0000      -0.912910       -24.8415
  27   2.0000      -0.905937       -24.6518
  28   2.0000      -0.871816       -23.7233
  29   2.0000      -0.855614       -23.2824
  30   2.0000      -0.845189       -22.9988
  31   2.0000      -0.814836       -22.1728
  32   2.0000      -0.783967       -21.3328
  33   2.0000      -0.770997       -20.9799
  34   2.0000      -0.707649       -19.2561
  35   2.0000      -0.698243       -19.0002
  36   2.0000      -0.694315       -18.8933
  37   2.0000      -0.658406       -17.9161
  38   2.0000      -0.645265       -17.5585
  39   2.0000      -0.612175       -16.6581
  40   2.0000      -0.596077       -16.2201
  41   2.0000      -0.570620       -15.5274
  42   2.0000      -0.555298       -15.1104
  43   2.0000      -0.548399       -14.9227
  44   2.0000      -0.539863       -14.6904
  45   2.0000      -0.533375       -14.5139
  46   2.0000      -0.524750       -14.2792
  47   2.0000      -0.519203       -14.1282
  48   2.0000      -0.508394       -13.8341
  49   2.0000      -0.493241       -13.4218
  50   2.0000      -0.487924       -13.2771
  51   2.0000      -0.483731       -13.1630
  52   2.0000      -0.471685       -12.8352
  53   2.0000      -0.463298       -12.6070
  54   2.0000      -0.456369       -12.4184
  55   2.0000      -0.451151       -12.2764
  56   2.0000      -0.441587       -12.0162
  57   2.0000      -0.438284       -11.9263
  58   2.0000      -0.432126       -11.7588
  59   2.0000      -0.423397       -11.5212
  60   2.0000      -0.418803       -11.3962
  61   2.0000      -0.403984       -10.9930
  62   2.0000      -0.403193       -10.9714
  63   2.0000      -0.340017        -9.2523
  64   2.0000      -0.333030        -9.0622
  65   2.0000      -0.318924        -8.6784
  66   2.0000      -0.296891        -8.0788
  67   0.0000       0.032650         0.8885
  68   0.0000       0.056743         1.5440
  69   0.0000       0.113923         3.1000
  70   0.0000       0.119389         3.2487
  71   0.0000       0.134551         3.6613

MULLIKEN ATOMIC CHARGES
-----------------------
   0 S :    0.105067
   1 C :   -0.086291
   2 C :   -0.130671
   3 C :    0.050175
   4 C :   -0.203403
   5 H :    0.027281
   6 C :    0.050982
   7 H :    0.025332
   8 H :    0.025955
   9 C :   -0.036434
  10 H :    0.020655
  11 H :    0.026038
  12 C :   -0.079471
  13 H :    0.060083
  14 H :    0.039624
  15 H :    0.034891
  16 S :    0.128005
  17 C :   -0.043283
  18 C :   -0.020448
  19 C :   -0.022179
  20 C :   -0.196428
  21 H :    0.002711
  22 C :    0.062207
  23 H :    0.046125
  24 H :    0.046731
  25 C :   -0.092787
  26 H :    0.018466
  27 H :    0.021585
  28 C :   -0.051152
  29 H :    0.048424
  30 H :    0.047126
  31 H :    0.022469
  32 H :    0.033271
  33 H :    0.019343
Sum of atomic charges:   -0.0000000

LOEWDIN ATOMIC CHARGES
----------------------
   0 S :    0.411865
   1 C :   -0.205304
   2 C :   -0.074025
   3 C :   -0.058937
   4 C :   -0.199370
   5 H :    0.037170
   6 C :   -0.038920
   7 H :    0.033049
   8 H :    0.034173
   9 C :   -0.045359
  10 H :    0.024345
  11 H :    0.025387
  12 C :   -0.075235
  13 H :    0.040809
  14 H :    0.028380
  15 H :    0.026064
  16 S :    0.434148
  17 C :   -0.177391
  18 C :   -0.070434
  19 C :   -0.049129
  20 C :   -0.213429
  21 H :    0.027139
  22 C :   -0.033912
  23 H :    0.042434
  24 H :    0.037854
  25 C :   -0.050428
  26 H :    0.016591
  27 H :    0.026194
  28 C :   -0.077391
  29 H :    0.036665
  30 H :    0.039179
  31 H :    0.021307
  32 H :    0.020705
  33 H :    0.005807

  Mayer bond orders larger than 0.100000
B(  0-S ,  1-C ) :   1.1597 B(  0-S ,  4-C ) :   1.1492 B(  1-C ,  2-C ) :   1.5724
B(  1-C ,  4-C ) :   0.1034 B(  1-C , 32-H ) :   0.9803 B(  2-C ,  3-C ) :   1.2521
B(  2-C ,  6-C ) :   1.0119 B(  3-C ,  4-C ) :   1.5610 B(  3-C ,  5-H ) :   0.9877
B(  4-C , 20-C ) :   1.0441 B(  6-C ,  7-H ) :   0.9413 B(  6-C ,  8-H ) :   0.9392
B(  6-C ,  9-C ) :   1.0750 B(  9-C , 10-H ) :   0.9498 B(  9-C , 11-H ) :   0.9514
B(  9-C , 12-C ) :   1.0763 B( 12-C , 13-H ) :   0.9696 B( 12-C , 14-H ) :   0.9717
B( 12-C , 15-H ) :   0.9750 B( 16-S , 17-C ) :   1.1923 B( 16-S , 20-C ) :   1.1615
B( 17-C , 18-C ) :   1.5535 B( 17-C , 20-C ) :   0.1091 B( 17-C , 33-H ) :   0.9774
B( 18-C , 19-C ) :   1.2816 B( 18-C , 21-H ) :   0.9989 B( 19-C , 20-C ) :   1.5559
B( 19-C , 22-C ) :   1.0252 B( 22-C , 23-H ) :   0.9345 B( 22-C , 24-H ) :   0.9337
B( 22-C , 25-C ) :   1.0690 B( 25-C , 26-H ) :   0.9541 B( 25-C , 27-H ) :   0.9516
B( 25-C , 28-C ) :   1.0830 B( 28-C , 29-H ) :   0.9693 B( 28-C , 30-H ) :   0.9678
B( 28-C , 31-H ) :   0.9718

Dispersion correction           -0.014412048
FINAL SINGLE POINT ENERGY     -1339.859789403846

DIPOLE MOMENT
-------------
                                X             Y             Z
Electronic contribution:     21.56708      -8.83711     -10.72250
Nuclear contribution   :    -22.02337       9.13778      10.53641
                        -----------------------------------------
Total Dipole Moment    :     -0.45629       0.30068      -0.18609
                        -----------------------------------------
Magnitude (a.u.)       :      0.57727
Magnitude (Debye)      :      1.46730

Rotational constants in cm-1:     0.019607     0.008347     0.006862
Rotational constants in MHz :   587.798184   250.224534   205.724933

                             ****ORCA TERMINATED NORMALLY****
TOTAL RUN TIME: 0 days 0 hours 0 minutes 34 seconds 748 msec
