                         Program Version 4.2.1 -  RELEASE  -
|  1> ! wB97X-D3 SP def2-SVP
|  2> %pal
|  3> nprocs 16
|  4> end
|  5>
|  6> * xyz 0 1
|  7> S 	 -99.0812 	 54.6313 	 115.876
|  8> C 	 -97.3914 	 55.2708 	 115.71
|  9> C 	 -96.6977 	 55.0812 	 116.938
| 10> C 	 -97.5546 	 54.4847 	 117.973
| 11> C 	 -98.8736 	 54.2478 	 117.576
| 12> H 	 -97.2809 	 54.2484 	 118.945
| 13> C 	 -95.2555 	 55.4171 	 117.179
| 14> H 	 -94.9869 	 56.1347 	 116.44
| 15> H 	 -94.8195 	 54.4651 	 116.887
| 16> C 	 -94.8371 	 55.7947 	 118.576
| 17> H 	 -94.9122 	 54.9497 	 119.241
| 18> H 	 -93.7458 	 55.9373 	 118.59
| 19> C 	 -95.3706 	 57.2469 	 118.798
| 20> H 	 -95.1523 	 57.7098 	 119.84
| 21> H 	 -94.981 	 58.0036 	 118.124
| 22> H 	 -96.4434 	 57.4102 	 118.723
| 23> S 	 -100.458 	 52.1508 	 118.109
| 24> C 	 -101.729 	 52.2891 	 119.32
| 25> C 	 -101.705 	 53.4911 	 119.992
| 26> C 	 -100.605 	 54.3232 	 119.533
| 27> C 	 -99.9063 	 53.7348 	 118.451
| 28> H 	 -102.355 	 53.7141 	 120.817
| 29> C 	 -100.299 	 55.6524 	 120.127
| 30> H 	 -99.29 	 55.9285 	 119.865
| 31> H 	 -100.352 	 55.485 	 121.246
| 32> C 	 -101.382 	 56.7868 	 119.856
| 33> H 	 -102.358 	 56.3479 	 119.942
| 34> H 	 -101.194 	 57.1123 	 118.867
| 35> C 	 -101.309 	 57.9412 	 120.796
| 36> H 	 -100.375 	 58.4762 	 120.822
| 37> H 	 -101.591 	 57.5652 	 121.762
| 38> H 	 -101.994 	 58.748 	 120.529
| 39> H 	 -96.9037 	 55.6299 	 114.853
| 40> H 	 -102.395 	 51.5439 	 119.699
| 41> *
| 42>
| 43>                          ****END OF INPUT****

CARTESIAN COORDINATES (ANGSTROEM)
---------------------------------
  S    -99.081200   54.631300  115.876000
  C    -97.391400   55.270800  115.710000
  C    -96.697700   55.081200  116.938000
  C    -97.554600   54.484700  117.973000
  C    -98.873600   54.247800  117.576000
  H    -97.280900   54.248400  118.945000
  C    -95.255500   55.417100  117.179000
  H    -94.986900   56.134700  116.440000
  H    -94.819500   54.465100  116.887000
  C    -94.837100   55.794700  118.576000
  H    -94.912200   54.949700  119.241000
  H    -93.745800   55.937300  118.590000
  C    -95.370600   57.246900  118.798000
  H    -95.152300   57.709800  119.840000
  H    -94.981000   58.003600  118.124000
  H    -96.443400   57.410200  118.723000
  S    -100.458000   52.150800  118.109000
  C    -101.729000   52.289100  119.320000
  C    -101.705000   53.491100  119.992000
  C    -100.605000   54.323200  119.533000
  C    -99.906300   53.734800  118.451000
  H    -102.355000   53.714100  120.817000
  C    -100.299000   55.652400  120.127000
  H    -99.290000   55.928500  119.865000
  H    -100.352000   55.485000  121.246000
  C    -101.382000   56.786800  119.856000
  H    -102.358000   56.347900  119.942000
  H    -101.194000   57.112300  118.867000
  C    -101.309000   57.941200  120.796000
  H    -100.375000   58.476200  120.822000
  H    -101.591000   57.565200  121.762000
  H    -101.994000   58.748000  120.529000
  H    -96.903700   55.629900  114.853000
  H    -102.395000   51.543900  119.699000

 Total Charge           Charge          ....    0
 Multiplicity           Mult            ....    1
 Number of Electrons    NEL             ....  134
 Basis Dimension        Dim             ....  322

ORBITAL ENERGIES
----------------

  NO   OCC          E(Eh)            E(eV)
   0   2.0000     -88.966478     -2420.9009
   1   2.0000     -88.966448     -2420.9001
   2   2.0000     -10.330054      -281.0950
   3   2.0000     -10.323228      -280.9093
   4   2.0000     -10.317091      -280.7423
   5   2.0000     -10.315500      -280.6990
   6   2.0000     -10.308565      -280.5103
   7   2.0000     -10.305600      -280.4296
   8   2.0000     -10.296091      -280.1709
   9   2.0000     -10.294585      -280.1299
  10   2.0000     -10.291614      -280.0491
  11   2.0000     -10.291257      -280.0393
  12   2.0000     -10.288489      -279.9640
  13   2.0000     -10.288350      -279.9602
  14   2.0000     -10.279227      -279.7120
  15   2.0000     -10.270655      -279.4787
  16   2.0000      -8.081531      -219.9096
  17   2.0000      -8.079650      -219.8585
  18   2.0000      -6.040089      -164.3592
  19   2.0000      -6.038405      -164.3134
  20   2.0000      -6.035860      -164.2441
  21   2.0000      -6.034292      -164.2014
  22   2.0000      -6.032353      -164.1487
  23   2.0000      -6.030307      -164.0930
  24   2.0000      -1.002346       -27.2752
  25   2.0000      -0.973340       -26.4859
  26   2.0000      -0.918186       -24.9851
  27   2.0000      -0.907210       -24.6864
  28   2.0000      -0.868754       -23.6400
  29   2.0000      -0.853909       -23.2360
  30   2.0000      -0.837973       -22.8024
  31   2.0000      -0.816012       -22.2048
  32   2.0000      -0.780662       -21.2429
  33   2.0000      -0.766778       -20.8651
  34   2.0000      -0.718472       -19.5506
  35   2.0000      -0.702592       -19.1185
  36   2.0000      -0.694695       -18.9036
  37   2.0000      -0.660885       -17.9836
  38   2.0000      -0.638824       -17.3833
  39   2.0000      -0.619187       -16.8489
  40   2.0000      -0.590401       -16.0656
  41   2.0000      -0.572757       -15.5855
  42   2.0000      -0.567204       -15.4344
  43   2.0000      -0.559491       -15.2245
  44   2.0000      -0.537515       -14.6265
  45   2.0000      -0.522175       -14.2091
  46   2.0000      -0.515947       -14.0396
  47   2.0000      -0.514101       -13.9894
  48   2.0000      -0.504535       -13.7291
  49   2.0000      -0.499546       -13.5933
  50   2.0000      -0.488209       -13.2848
  51   2.0000      -0.476738       -12.9727
  52   2.0000      -0.471396       -12.8273
  53   2.0000      -0.463474       -12.6118
  54   2.0000      -0.455586       -12.3971
  55   2.0000      -0.452522       -12.3138
  56   2.0000      -0.446646       -12.1539
  57   2.0000      -0.437312       -11.8999
  58   2.0000      -0.430552       -11.7159
  59   2.0000      -0.424935       -11.5631
  60   2.0000      -0.423750       -11.5308
  61   2.0000      -0.418902       -11.3989
  62   2.0000      -0.407879       -11.0990
  63   2.0000      -0.338597        -9.2137
  64   2.0000      -0.323696        -8.8082
  65   2.0000      -0.321915        -8.7597
  66   2.0000      -0.296336        -8.0637
  67   0.0000       0.038178         1.0389
  68   0.0000       0.059803         1.6273
  69   0.0000       0.112639         3.0651
  70   0.0000       0.119519         3.2523
  71   0.0000       0.127588         3.4718

MULLIKEN ATOMIC CHARGES
-----------------------
   0 S :    0.112740
   1 C :   -0.110613
   2 C :   -0.121009
   3 C :    0.067461
   4 C :   -0.155315
   5 H :   -0.015477
   6 C :    0.074755
   7 H :    0.010013
   8 H :    0.041644
   9 C :   -0.022360
  10 H :    0.035211
  11 H :    0.031040
  12 C :   -0.089588
  13 H :    0.038041
  14 H :    0.031786
  15 H :    0.039737
  16 S :    0.123710
  17 C :   -0.072117
  18 C :   -0.040007
  19 C :   -0.022965
  20 C :   -0.196944
  21 H :    0.017999
  22 C :    0.049096
  23 H :    0.019822
  24 H :    0.024623
  25 C :   -0.040116
  26 H :    0.022759
  27 H :    0.024597
  28 C :   -0.028597
  29 H :    0.026056
  30 H :    0.020381
  31 H :    0.028841
  32 H :    0.028484
  33 H :    0.046312
Sum of atomic charges:    0.0000000

LOEWDIN ATOMIC CHARGES
----------------------
   0 S :    0.383671
   1 C :   -0.189704
   2 C :   -0.047202
   3 C :   -0.057756
   4 C :   -0.197478
   5 H :    0.016505
   6 C :   -0.034883
   7 H :    0.026274
   8 H :    0.039525
   9 C :   -0.042874
  10 H :    0.027727
  11 H :    0.034647
  12 C :   -0.074955
  13 H :    0.032304
  14 H :    0.028022
  15 H :    0.023521
  16 S :    0.425090
  17 C :   -0.181686
  18 C :   -0.066738
  19 C :   -0.048780
  20 C :   -0.221844
  21 H :    0.030402
  22 C :   -0.033424
  23 H :    0.025832
  24 H :    0.035041
  25 C :   -0.029271
  26 H :    0.022407
  27 H :    0.020027
  28 C :   -0.063871
  29 H :    0.023433
  30 H :    0.020693
  31 H :    0.029330
  32 H :    0.018668
  33 H :    0.027348

  Mayer bond orders larger than 0.100000
B(  0-S ,  1-C ) :   1.1151 B(  0-S ,  4-C ) :   1.1438 B(  1-C ,  2-C ) :   1.6153
B(  1-C , 32-H ) :   0.9756 B(  2-C ,  3-C ) :   1.2136 B(  2-C ,  6-C ) :   1.0109
B(  3-C ,  4-C ) :   1.5807 B(  3-C ,  5-H ) :   0.9974 B(  4-C , 20-C ) :   1.0334
B(  6-C ,  7-H ) :   0.9394 B(  6-C ,  8-H ) :   0.9227 B(  6-C ,  9-C ) :   1.1011
B(  9-C , 10-H ) :   0.9498 B(  9-C , 11-H ) :   0.9481 B(  9-C , 12-C ) :   1.0434
B( 12-C , 13-H ) :   0.9768 B( 12-C , 14-H ) :   0.9736 B( 12-C , 15-H ) :   0.9812
B( 16-S , 17-C ) :   1.1474 B( 16-S , 20-C ) :   1.1548 B( 17-C , 18-C ) :   1.6269
B( 17-C , 33-H ) :   0.9655 B( 18-C , 19-C ) :   1.2346 B( 18-C , 21-H ) :   0.9862
B( 19-C , 20-C ) :   1.5771 B( 19-C , 22-C ) :   1.0599 B( 22-C , 23-H ) :   0.9301
B( 22-C , 24-H ) :   0.9334 B( 22-C , 25-C ) :   1.0511 B( 25-C , 26-H ) :   0.9588
B( 25-C , 27-H ) :   0.9540 B( 25-C , 28-C ) :   1.0942 B( 28-C , 29-H ) :   0.9729
B( 28-C , 30-H ) :   0.9737 B( 28-C , 31-H ) :   0.9699

Dispersion correction           -0.014348572
FINAL SINGLE POINT ENERGY     -1339.861890878423

DIPOLE MOMENT
-------------
                                X             Y             Z
Electronic contribution:     -9.95218     -22.15059     -15.22467
Nuclear contribution   :     10.33322      22.49922      15.72255
                        -----------------------------------------
Total Dipole Moment    :      0.38104       0.34864       0.49788
                        -----------------------------------------
Magnitude (a.u.)       :      0.71738
Magnitude (Debye)      :      1.82342

Rotational constants in cm-1:     0.016325     0.009483     0.007238
Rotational constants in MHz :   489.417283   284.306683   216.996581

                             ****ORCA TERMINATED NORMALLY****
TOTAL RUN TIME: 0 days 0 hours 0 minutes 35 seconds 178 msec
