                         Program Version 4.2.1 -  RELEASE  -
|  1> ! wB97X-D3 SP def2-SVP
|  2> %pal
|  3> nprocs 16
|  4> end
|  5>
|  6> * xyz 0 1
|  7> S 	 -69.934 	 40.0442 	 123.837
|  8> C 	 -70.4045 	 41.631 	 124.037
|  9> C 	 -69.4043 	 42.4446 	 124.516
| 10> C 	 -68.1619 	 41.7596 	 124.473
| 11> C 	 -68.2551 	 40.4216 	 124.15
| 12> H 	 -67.2209 	 42.2006 	 124.582
| 13> C 	 -69.5415 	 43.8483 	 124.888
| 14> H 	 -70.1956 	 44.4401 	 124.288
| 15> H 	 -68.6025 	 44.2643 	 124.466
| 16> C 	 -69.9214 	 44.2011 	 126.368
| 17> H 	 -69.0588 	 43.9553 	 126.944
| 18> H 	 -70.2269 	 45.235 	 126.485
| 19> C 	 -71.1171 	 43.4287 	 126.768
| 20> H 	 -71.9529 	 43.5366 	 126.121
| 21> H 	 -70.8761 	 42.3776 	 126.667
| 22> H 	 -71.3313 	 43.596 	 127.811
| 23> S 	 -67.3909 	 38.0952 	 123.018
| 24> C 	 -66.0752 	 37.2176 	 123.733
| 25> C 	 -65.4425 	 37.9404 	 124.712
| 26> C 	 -66.0826 	 39.1935 	 124.922
| 27> C 	 -67.2132 	 39.3956 	 124.12
| 28> H 	 -64.7083 	 37.4774 	 125.304
| 29> C 	 -65.6848 	 40.1655 	 125.946
| 30> H 	 -66.584 	 40.4272 	 126.565
| 31> H 	 -65.6223 	 41.1139 	 125.438
| 32> C 	 -64.4493 	 39.7321 	 126.797
| 33> H 	 -64.6618 	 38.7282 	 127.242
| 34> H 	 -64.2765 	 40.5259 	 127.557
| 35> C 	 -63.1471 	 39.9229 	 125.916
| 36> H 	 -63.2236 	 40.8808 	 125.427
| 37> H 	 -63.1956 	 39.1275 	 125.075
| 38> H 	 -62.2933 	 39.7979 	 126.441
| 39> H 	 -71.4521 	 42.037 	 123.984
| 40> H 	 -65.745 	 36.2081 	 123.527
| 41> *
| 42>
| 43>                          ****END OF INPUT****

CARTESIAN COORDINATES (ANGSTROEM)
---------------------------------
  S    -69.934000   40.044200  123.837000
  C    -70.404500   41.631000  124.037000
  C    -69.404300   42.444600  124.516000
  C    -68.161900   41.759600  124.473000
  C    -68.255100   40.421600  124.150000
  H    -67.220900   42.200600  124.582000
  C    -69.541500   43.848300  124.888000
  H    -70.195600   44.440100  124.288000
  H    -68.602500   44.264300  124.466000
  C    -69.921400   44.201100  126.368000
  H    -69.058800   43.955300  126.944000
  H    -70.226900   45.235000  126.485000
  C    -71.117100   43.428700  126.768000
  H    -71.952900   43.536600  126.121000
  H    -70.876100   42.377600  126.667000
  H    -71.331300   43.596000  127.811000
  S    -67.390900   38.095200  123.018000
  C    -66.075200   37.217600  123.733000
  C    -65.442500   37.940400  124.712000
  C    -66.082600   39.193500  124.922000
  C    -67.213200   39.395600  124.120000
  H    -64.708300   37.477400  125.304000
  C    -65.684800   40.165500  125.946000
  H    -66.584000   40.427200  126.565000
  H    -65.622300   41.113900  125.438000
  C    -64.449300   39.732100  126.797000
  H    -64.661800   38.728200  127.242000
  H    -64.276500   40.525900  127.557000
  C    -63.147100   39.922900  125.916000
  H    -63.223600   40.880800  125.427000
  H    -63.195600   39.127500  125.075000
  H    -62.293300   39.797900  126.441000
  H    -71.452100   42.037000  123.984000
  H    -65.745000   36.208100  123.527000

 Total Charge           Charge          ....    0
 Multiplicity           Mult            ....    1
 Number of Electrons    NEL             ....  134
 Basis Dimension        Dim             ....  322

ORBITAL ENERGIES
----------------

  NO   OCC          E(Eh)            E(eV)
   0   2.0000     -88.967013     -2420.9155
   1   2.0000     -88.965129     -2420.8642
   2   2.0000     -10.329151      -281.0705
   3   2.0000     -10.321749      -280.8691
   4   2.0000     -10.313558      -280.6462
   5   2.0000     -10.309923      -280.5473
   6   2.0000     -10.299508      -280.2639
   7   2.0000     -10.299364      -280.2599
   8   2.0000     -10.294022      -280.1146
   9   2.0000     -10.289007      -279.9781
  10   2.0000     -10.288802      -279.9725
  11   2.0000     -10.288649      -279.9684
  12   2.0000     -10.285655      -279.8869
  13   2.0000     -10.282783      -279.8087
  14   2.0000     -10.278541      -279.6933
  15   2.0000     -10.265806      -279.3468
  16   2.0000      -8.083264      -219.9568
  17   2.0000      -8.080591      -219.8840
  18   2.0000      -6.041633      -164.4012
  19   2.0000      -6.039063      -164.3313
  20   2.0000      -6.037480      -164.2882
  21   2.0000      -6.034844      -164.2164
  22   2.0000      -6.034148      -164.1975
  23   2.0000      -6.031510      -164.1257
  24   2.0000      -1.016887       -27.6709
  25   2.0000      -0.995182       -27.0803
  26   2.0000      -0.920633       -25.0517
  27   2.0000      -0.910861       -24.7858
  28   2.0000      -0.875034       -23.8109
  29   2.0000      -0.860636       -23.4191
  30   2.0000      -0.845129       -22.9971
  31   2.0000      -0.821237       -22.3470
  32   2.0000      -0.784929       -21.3590
  33   2.0000      -0.770809       -20.9748
  34   2.0000      -0.711958       -19.3734
  35   2.0000      -0.701999       -19.1024
  36   2.0000      -0.695933       -18.9373
  37   2.0000      -0.659794       -17.9539
  38   2.0000      -0.643129       -17.5004
  39   2.0000      -0.629117       -17.1192
  40   2.0000      -0.600449       -16.3391
  41   2.0000      -0.580191       -15.7878
  42   2.0000      -0.559781       -15.2324
  43   2.0000      -0.554314       -15.0837
  44   2.0000      -0.552256       -15.0276
  45   2.0000      -0.530301       -14.4302
  46   2.0000      -0.519922       -14.1478
  47   2.0000      -0.512712       -13.9516
  48   2.0000      -0.506272       -13.7764
  49   2.0000      -0.499818       -13.6007
  50   2.0000      -0.494600       -13.4588
  51   2.0000      -0.481616       -13.1054
  52   2.0000      -0.474522       -12.9124
  53   2.0000      -0.470079       -12.7915
  54   2.0000      -0.463263       -12.6060
  55   2.0000      -0.450046       -12.2464
  56   2.0000      -0.444014       -12.0822
  57   2.0000      -0.439382       -11.9562
  58   2.0000      -0.437671       -11.9096
  59   2.0000      -0.423796       -11.5321
  60   2.0000      -0.420591       -11.4449
  61   2.0000      -0.411975       -11.2104
  62   2.0000      -0.409187       -11.1345
  63   2.0000      -0.357563        -9.7298
  64   2.0000      -0.331961        -9.0331
  65   2.0000      -0.326880        -8.8949
  66   2.0000      -0.283127        -7.7043
  67   0.0000       0.025316         0.6889
  68   0.0000       0.082781         2.2526
  69   0.0000       0.116773         3.1775
  70   0.0000       0.121197         3.2979
  71   0.0000       0.129740         3.5304

MULLIKEN ATOMIC CHARGES
-----------------------
   0 S :    0.130260
   1 C :   -0.116756
   2 C :   -0.101608
   3 C :    0.008861
   4 C :   -0.126098
   5 H :   -0.011397
   6 C :    0.031355
   7 H :    0.010158
   8 H :    0.019293
   9 C :   -0.017143
  10 H :    0.024867
  11 H :    0.030001
  12 C :   -0.044401
  13 H :    0.015642
  14 H :    0.035078
  15 H :    0.034013
  16 S :    0.113674
  17 C :   -0.076137
  18 C :   -0.041089
  19 C :   -0.036248
  20 C :   -0.149996
  21 H :    0.009894
  22 C :    0.022499
  23 H :    0.041744
  24 H :    0.018874
  25 C :   -0.086731
  26 H :    0.055384
  27 H :    0.036933
  28 C :   -0.030521
  29 H :    0.032595
  30 H :    0.035634
  31 H :    0.021563
  32 H :    0.062275
  33 H :    0.047530
Sum of atomic charges:   -0.0000000

LOEWDIN ATOMIC CHARGES
----------------------
   0 S :    0.442342
   1 C :   -0.223724
   2 C :   -0.075533
   3 C :   -0.060221
   4 C :   -0.192675
   5 H :    0.019886
   6 C :   -0.044320
   7 H :    0.026013
   8 H :    0.036103
   9 C :   -0.028084
  10 H :    0.020456
  11 H :    0.025664
  12 C :   -0.062920
  13 H :    0.017971
  14 H :    0.025857
  15 H :    0.026835
  16 S :    0.427077
  17 C :   -0.187694
  18 C :   -0.072847
  19 C :   -0.052716
  20 C :   -0.216774
  21 H :    0.026363
  22 C :   -0.046696
  23 H :    0.041058
  24 H :    0.027206
  25 C :   -0.041252
  26 H :    0.030398
  27 H :    0.030707
  28 C :   -0.055082
  29 H :    0.026997
  30 H :    0.032377
  31 H :    0.006349
  32 H :    0.040457
  33 H :    0.030422

  Mayer bond orders larger than 0.100000
B(  0-S ,  1-C ) :   1.1674 B(  0-S ,  4-C ) :   1.1552 B(  1-C ,  2-C ) :   1.5789
B(  1-C , 32-H ) :   0.9563 B(  2-C ,  3-C ) :   1.2615 B(  2-C ,  6-C ) :   1.0272
B(  3-C ,  4-C ) :   1.5435 B(  3-C ,  5-H ) :   1.0053 B(  4-C , 20-C ) :   1.0714
B(  6-C ,  7-H ) :   0.9424 B(  6-C ,  8-H ) :   0.9401 B(  6-C ,  9-C ) :   1.0543
B(  9-C , 10-H ) :   0.9555 B(  9-C , 11-H ) :   0.9568 B(  9-C , 12-C ) :   1.0919
B( 12-C , 13-H ) :   0.9721 B( 12-C , 14-H ) :   0.9658 B( 12-C , 15-H ) :   0.9688
B( 16-S , 17-C ) :   1.1685 B( 16-S , 20-C ) :   1.1430 B( 17-C , 18-C ) :   1.5928
B( 17-C , 33-H ) :   0.9604 B( 18-C , 19-C ) :   1.2636 B( 18-C , 21-H ) :   0.9894
B( 19-C , 20-C ) :   1.5552 B( 19-C , 22-C ) :   1.0472 B( 22-C , 23-H ) :   0.9142
B( 22-C , 24-H ) :   0.9262 B( 22-C , 25-C ) :   1.0741 B( 25-C , 26-H ) :   0.9519
B( 25-C , 27-H ) :   0.9536 B( 25-C , 28-C ) :   1.0569 B( 28-C , 29-H ) :   0.9727
B( 28-C , 30-H ) :   0.9763 B( 28-C , 31-H ) :   0.9780

Dispersion correction           -0.014534387
FINAL SINGLE POINT ENERGY     -1339.859275119403

DIPOLE MOMENT
-------------
                                X             Y             Z
Electronic contribution:     -8.04840     -17.14236     -17.41505
Nuclear contribution   :      8.27989      17.50918      17.90065
                        -----------------------------------------
Total Dipole Moment    :      0.23150       0.36682       0.48560
                        -----------------------------------------
Magnitude (a.u.)       :      0.65112
Magnitude (Debye)      :      1.65501

Rotational constants in cm-1:     0.020945     0.008587     0.006496
Rotational constants in MHz :   627.918815   257.426443   194.733198

                             ****ORCA TERMINATED NORMALLY****
TOTAL RUN TIME: 0 days 0 hours 0 minutes 35 seconds 56 msec
