                         Program Version 4.2.1 -  RELEASE  -
|  1> ! wB97X-D3 SP def2-SVP
|  2> %pal
|  3> nprocs 16
|  4> end
|  5>
|  6> * xyz 0 1
|  7> S 	 -0.326326 	 -3.46457 	 84.9936
|  8> C 	 0.855741 	 -4.74041 	 85.0349
|  9> C 	 0.621364 	 -5.58459 	 86.0745
| 10> C 	 -0.475756 	 -5.17365 	 86.8095
| 11> C 	 -1.01089 	 -3.97131 	 86.4647
| 12> H 	 -0.815824 	 -5.73406 	 87.6526
| 13> C 	 1.42386 	 -6.77772 	 86.4682
| 14> H 	 1.74356 	 -7.18548 	 85.5402
| 15> H 	 0.754821 	 -7.50425 	 86.86
| 16> C 	 2.55212 	 -6.61706 	 87.4736
| 17> H 	 3.10268 	 -7.50942 	 87.697
| 18> H 	 3.32607 	 -6.01877 	 86.968
| 19> C 	 2.06795 	 -5.88104 	 88.7176
| 20> H 	 1.34175 	 -6.53921 	 89.1743
| 21> H 	 2.8226 	 -5.7661 	 89.4427
| 22> H 	 1.59993 	 -4.92494 	 88.6512
| 23> S 	 -3.69608 	 -4.03435 	 86.8387
| 24> C 	 -4.50257 	 -2.71168 	 87.6632
| 25> C 	 -3.55285 	 -1.88874 	 88.2594
| 26> C 	 -2.19883 	 -2.23318 	 87.9872
| 27> C 	 -2.14467 	 -3.29627 	 87.1128
| 28> H 	 -3.82472 	 -1.10629 	 88.9646
| 29> C 	 -0.998334 	 -1.40496 	 88.4527
| 30> H 	 -1.46732 	 -0.557684 	 88.9479
| 31> H 	 -0.6658 	 -1.0241 	 87.4502
| 32> C 	 0.14341 	 -2.01757 	 89.2649
| 33> H 	 0.885816 	 -1.26844 	 89.5643
| 34> H 	 0.69055 	 -2.76364 	 88.7635
| 35> C 	 -0.383184 	 -2.66205 	 90.6354
| 36> H 	 -1.31111 	 -3.27845 	 90.4629
| 37> H 	 -0.656339 	 -1.77441 	 91.2247
| 38> H 	 0.409169 	 -3.19094 	 91.1607
| 39> H 	 1.58855 	 -4.80516 	 84.2557
| 40> H 	 -5.62968 	 -2.62129 	 87.8735
| 41> *
| 42>
| 43>                          ****END OF INPUT****

CARTESIAN COORDINATES (ANGSTROEM)
---------------------------------
  S     -0.326326   -3.464570   84.993600
  C      0.855741   -4.740410   85.034900
  C      0.621364   -5.584590   86.074500
  C     -0.475756   -5.173650   86.809500
  C     -1.010890   -3.971310   86.464700
  H     -0.815824   -5.734060   87.652600
  C      1.423860   -6.777720   86.468200
  H      1.743560   -7.185480   85.540200
  H      0.754821   -7.504250   86.860000
  C      2.552120   -6.617060   87.473600
  H      3.102680   -7.509420   87.697000
  H      3.326070   -6.018770   86.968000
  C      2.067950   -5.881040   88.717600
  H      1.341750   -6.539210   89.174300
  H      2.822600   -5.766100   89.442700
  H      1.599930   -4.924940   88.651200
  S     -3.696080   -4.034350   86.838700
  C     -4.502570   -2.711680   87.663200
  C     -3.552850   -1.888740   88.259400
  C     -2.198830   -2.233180   87.987200
  C     -2.144670   -3.296270   87.112800
  H     -3.824720   -1.106290   88.964600
  C     -0.998334   -1.404960   88.452700
  H     -1.467320   -0.557684   88.947900
  H     -0.665800   -1.024100   87.450200
  C      0.143410   -2.017570   89.264900
  H      0.885816   -1.268440   89.564300
  H      0.690550   -2.763640   88.763500
  C     -0.383184   -2.662050   90.635400
  H     -1.311110   -3.278450   90.462900
  H     -0.656339   -1.774410   91.224700
  H      0.409169   -3.190940   91.160700
  H      1.588550   -4.805160   84.255700
  H     -5.629680   -2.621290   87.873500

 Total Charge           Charge          ....    0
 Multiplicity           Mult            ....    1
 Number of Electrons    NEL             ....  134
 Basis Dimension        Dim             ....  322

ORBITAL ENERGIES
----------------

  NO   OCC          E(Eh)            E(eV)
   0   2.0000     -88.965626     -2420.8777
   1   2.0000     -88.963103     -2420.8091
   2   2.0000     -10.323129      -280.9066
   3   2.0000     -10.321187      -280.8538
   4   2.0000     -10.320349      -280.8310
   5   2.0000     -10.308803      -280.5168
   6   2.0000     -10.302230      -280.3379
   7   2.0000     -10.296734      -280.1884
   8   2.0000     -10.293650      -280.1044
   9   2.0000     -10.290438      -280.0171
  10   2.0000     -10.287099      -279.9262
  11   2.0000     -10.285892      -279.8934
  12   2.0000     -10.281927      -279.7855
  13   2.0000     -10.281743      -279.7804
  14   2.0000     -10.280892      -279.7573
  15   2.0000     -10.268284      -279.4142
  16   2.0000      -8.080280      -219.8756
  17   2.0000      -8.079089      -219.8432
  18   2.0000      -6.038782      -164.3236
  19   2.0000      -6.037393      -164.2858
  20   2.0000      -6.034773      -164.2145
  21   2.0000      -6.033303      -164.1745
  22   2.0000      -6.031079      -164.1140
  23   2.0000      -6.030125      -164.0880
  24   2.0000      -1.016072       -27.6487
  25   2.0000      -0.990271       -26.9466
  26   2.0000      -0.919265       -25.0145
  27   2.0000      -0.902426       -24.5562
  28   2.0000      -0.868747       -23.6398
  29   2.0000      -0.851039       -23.1580
  30   2.0000      -0.844762       -22.9871
  31   2.0000      -0.814096       -22.1527
  32   2.0000      -0.787189       -21.4205
  33   2.0000      -0.772234       -21.0136
  34   2.0000      -0.711432       -19.3591
  35   2.0000      -0.707645       -19.2560
  36   2.0000      -0.687876       -18.7181
  37   2.0000      -0.661780       -18.0079
  38   2.0000      -0.647574       -17.6214
  39   2.0000      -0.616531       -16.7767
  40   2.0000      -0.585045       -15.9199
  41   2.0000      -0.573465       -15.6048
  42   2.0000      -0.557752       -15.1772
  43   2.0000      -0.552217       -15.0266
  44   2.0000      -0.550703       -14.9854
  45   2.0000      -0.541238       -14.7278
  46   2.0000      -0.512952       -13.9581
  47   2.0000      -0.509010       -13.8509
  48   2.0000      -0.500858       -13.6290
  49   2.0000      -0.495701       -13.4887
  50   2.0000      -0.485297       -13.2056
  51   2.0000      -0.475130       -12.9289
  52   2.0000      -0.472538       -12.8584
  53   2.0000      -0.464618       -12.6429
  54   2.0000      -0.461296       -12.5525
  55   2.0000      -0.450677       -12.2635
  56   2.0000      -0.445713       -12.1285
  57   2.0000      -0.439659       -11.9637
  58   2.0000      -0.438441       -11.9306
  59   2.0000      -0.429282       -11.6814
  60   2.0000      -0.418229       -11.3806
  61   2.0000      -0.414656       -11.2834
  62   2.0000      -0.409555       -11.1446
  63   2.0000      -0.335667        -9.1340
  64   2.0000      -0.330102        -8.9825
  65   2.0000      -0.324542        -8.8312
  66   2.0000      -0.307029        -8.3547
  67   0.0000       0.044708         1.2166
  68   0.0000       0.057860         1.5745
  69   0.0000       0.112930         3.0730
  70   0.0000       0.125577         3.4171
  71   0.0000       0.128611         3.4997

MULLIKEN ATOMIC CHARGES
-----------------------
   0 S :    0.117614
   1 C :   -0.142657
   2 C :   -0.076026
   3 C :    0.027807
   4 C :   -0.158223
   5 H :   -0.004509
   6 C :    0.107087
   7 H :    0.006492
   8 H :    0.010650
   9 C :   -0.020249
  10 H :    0.026782
  11 H :    0.015063
  12 C :   -0.035427
  13 H :    0.012878
  14 H :    0.015620
  15 H :    0.039618
  16 S :    0.126356
  17 C :   -0.118503
  18 C :   -0.049353
  19 C :   -0.044309
  20 C :   -0.195312
  21 H :    0.019280
  22 C :    0.082814
  23 H :    0.008771
  24 H :    0.047915
  25 C :   -0.029402
  26 H :    0.032671
  27 H :    0.023818
  28 C :   -0.100036
  29 H :    0.059152
  30 H :    0.028366
  31 H :    0.042051
  32 H :    0.037129
  33 H :    0.086073
Sum of atomic charges:   -0.0000000

LOEWDIN ATOMIC CHARGES
----------------------
   0 S :    0.433355
   1 C :   -0.189526
   2 C :   -0.068163
   3 C :   -0.062351
   4 C :   -0.218276
   5 H :    0.025741
   6 C :   -0.026625
   7 H :    0.026600
   8 H :    0.025889
   9 C :   -0.032211
  10 H :    0.025419
  11 H :    0.022098
  12 C :   -0.061495
  13 H :    0.023413
  14 H :    0.020348
  15 H :    0.024214
  16 S :    0.417435
  17 C :   -0.203597
  18 C :   -0.078261
  19 C :   -0.059391
  20 C :   -0.205766
  21 H :    0.030348
  22 C :   -0.032031
  23 H :    0.028079
  24 H :    0.044900
  25 C :   -0.034083
  26 H :    0.029807
  27 H :    0.013575
  28 C :   -0.070551
  29 H :    0.032707
  30 H :    0.023772
  31 H :    0.023799
  32 H :    0.021679
  33 H :    0.049151

  Mayer bond orders larger than 0.100000
B(  0-S ,  1-C ) :   1.1583 B(  0-S ,  4-C ) :   1.1768 B(  1-C ,  2-C ) :   1.5747
B(  1-C , 32-H ) :   0.9781 B(  2-C ,  3-C ) :   1.2764 B(  2-C ,  6-C ) :   1.0163
B(  3-C ,  4-C ) :   1.5565 B(  3-C ,  5-H ) :   1.0052 B(  4-C , 20-C ) :   0.9920
B(  6-C ,  7-H ) :   0.9287 B(  6-C ,  8-H ) :   0.9357 B(  6-C ,  9-C ) :   1.0762
B(  9-C , 10-H ) :   0.9541 B(  9-C , 11-H ) :   0.9506 B(  9-C , 12-C ) :   1.0801
B( 12-C , 13-H ) :   0.9686 B( 12-C , 14-H ) :   0.9656 B( 12-C , 15-H ) :   0.9710
B( 16-S , 17-C ) :   1.1531 B( 16-S , 20-C ) :   1.1651 B( 17-C , 18-C ) :   1.6008
B( 17-C , 20-C ) :   0.1034 B( 17-C , 33-H ) :   0.9562 B( 18-C , 19-C ) :   1.2621
B( 18-C , 21-H ) :   0.9802 B( 19-C , 20-C ) :   1.5887 B( 19-C , 22-C ) :   1.0165
B( 22-C , 23-H ) :   0.9339 B( 22-C , 24-H ) :   0.9306 B( 22-C , 25-C ) :   1.0680
B( 25-C , 26-H ) :   0.9507 B( 25-C , 27-H ) :   0.9591 B( 25-C , 28-C ) :   1.0616
B( 28-C , 29-H ) :   0.9778 B( 28-C , 30-H ) :   0.9791 B( 28-C , 31-H ) :   0.9768

Dispersion correction           -0.016444536
FINAL SINGLE POINT ENERGY     -1339.879961542055

DIPOLE MOMENT
-------------
                                X             Y             Z
Electronic contribution:    -17.94584       3.22045     -18.98186
Nuclear contribution   :     18.30996      -3.30230      19.39746
                        -----------------------------------------
Total Dipole Moment    :      0.36412      -0.08185       0.41560
                        -----------------------------------------
Magnitude (a.u.)       :      0.55858
Magnitude (Debye)      :      1.41979

Rotational constants in cm-1:     0.019094     0.010213     0.008262
Rotational constants in MHz :   572.426206   306.177906   247.679125

                             ****ORCA TERMINATED NORMALLY****
TOTAL RUN TIME: 0 days 0 hours 0 minutes 34 seconds 913 msec
