                         Program Version 4.2.1 -  RELEASE  -
|  1> ! wB97X-D3 SP def2-SVP
|  2> %pal
|  3> nprocs 16
|  4> end
|  5>
|  6> * xyz 0 1
|  7> S 	 -45.4702 	 55.1834 	 105.976
|  8> C 	 -43.7624 	 54.9101 	 105.729
|  9> C 	 -43.1147 	 54.9679 	 106.96
| 10> C 	 -44.0079 	 55.1253 	 108.065
| 11> C 	 -45.3024 	 55.2619 	 107.725
| 12> H 	 -43.6255 	 55.1677 	 109.089
| 13> C 	 -41.6816 	 54.7905 	 107.095
| 14> H 	 -41.3448 	 54.1044 	 106.292
| 15> H 	 -41.4657 	 54.2433 	 108.038
| 16> C 	 -40.9196 	 56.1158 	 106.892
| 17> H 	 -41.0936 	 56.8099 	 107.768
| 18> H 	 -39.8579 	 55.7466 	 106.93
| 19> C 	 -41.1625 	 56.9281 	 105.591
| 20> H 	 -42.2292 	 57.3474 	 105.587
| 21> H 	 -40.5732 	 57.8564 	 105.534
| 22> H 	 -40.9634 	 56.4726 	 104.589
| 23> S 	 -47.8559 	 54.5885 	 108.36
| 24> C 	 -48.7133 	 55.4096 	 109.581
| 25> C 	 -47.9058 	 56.3158 	 110.193
| 26> C 	 -46.5325 	 56.3543 	 109.8
| 27> C 	 -46.3856 	 55.4761 	 108.642
| 28> H 	 -48.3467 	 57.0034 	 110.867
| 29> C 	 -45.5435 	 57.3936 	 110.291
| 30> H 	 -44.6896 	 56.8232 	 110.514
| 31> H 	 -45.8613 	 57.705 	 111.317
| 32> C 	 -45.2425 	 58.6517 	 109.405
| 33> H 	 -45.2218 	 58.289 	 108.321
| 34> H 	 -44.2889 	 59.208 	 109.652
| 35> C 	 -46.3452 	 59.7629 	 109.483
| 36> H 	 -46.1419 	 60.5907 	 108.788
| 37> H 	 -46.391 	 60.1733 	 110.51
| 38> H 	 -47.3235 	 59.2579 	 109.334
| 39> H 	 -43.2431 	 54.8364 	 104.747
| 40> H 	 -49.8084 	 55.4767 	 109.483
| 41> *
| 42>
| 43>                          ****END OF INPUT****

CARTESIAN COORDINATES (ANGSTROEM)
---------------------------------
  S    -45.470200   55.183400  105.976000
  C    -43.762400   54.910100  105.729000
  C    -43.114700   54.967900  106.960000
  C    -44.007900   55.125300  108.065000
  C    -45.302400   55.261900  107.725000
  H    -43.625500   55.167700  109.089000
  C    -41.681600   54.790500  107.095000
  H    -41.344800   54.104400  106.292000
  H    -41.465700   54.243300  108.038000
  C    -40.919600   56.115800  106.892000
  H    -41.093600   56.809900  107.768000
  H    -39.857900   55.746600  106.930000
  C    -41.162500   56.928100  105.591000
  H    -42.229200   57.347400  105.587000
  H    -40.573200   57.856400  105.534000
  H    -40.963400   56.472600  104.589000
  S    -47.855900   54.588500  108.360000
  C    -48.713300   55.409600  109.581000
  C    -47.905800   56.315800  110.193000
  C    -46.532500   56.354300  109.800000
  C    -46.385600   55.476100  108.642000
  H    -48.346700   57.003400  110.867000
  C    -45.543500   57.393600  110.291000
  H    -44.689600   56.823200  110.514000
  H    -45.861300   57.705000  111.317000
  C    -45.242500   58.651700  109.405000
  H    -45.221800   58.289000  108.321000
  H    -44.288900   59.208000  109.652000
  C    -46.345200   59.762900  109.483000
  H    -46.141900   60.590700  108.788000
  H    -46.391000   60.173300  110.510000
  H    -47.323500   59.257900  109.334000
  H    -43.243100   54.836400  104.747000
  H    -49.808400   55.476700  109.483000

 Total Charge           Charge          ....    0
 Multiplicity           Mult            ....    1
 Number of Electrons    NEL             ....  134
 Basis Dimension        Dim             ....  322

ORBITAL ENERGIES
----------------

  NO   OCC          E(Eh)            E(eV)
   0   2.0000     -88.965734     -2420.8807
   1   2.0000     -88.963837     -2420.8291
   2   2.0000     -10.332102      -281.1508
   3   2.0000     -10.325578      -280.9733
   4   2.0000     -10.316322      -280.7214
   5   2.0000     -10.312257      -280.6108
   6   2.0000     -10.309225      -280.5283
   7   2.0000     -10.300589      -280.2933
   8   2.0000     -10.299939      -280.2756
   9   2.0000     -10.296563      -280.1837
  10   2.0000     -10.293706      -280.1060
  11   2.0000     -10.291780      -280.0536
  12   2.0000     -10.290436      -280.0170
  13   2.0000     -10.290301      -280.0133
  14   2.0000     -10.290222      -280.0112
  15   2.0000     -10.281967      -279.7866
  16   2.0000      -8.080292      -219.8759
  17   2.0000      -8.079731      -219.8607
  18   2.0000      -6.038895      -164.3267
  19   2.0000      -6.038019      -164.3028
  20   2.0000      -6.034790      -164.2150
  21   2.0000      -6.033831      -164.1889
  22   2.0000      -6.030977      -164.1112
  23   2.0000      -6.030902      -164.1092
  24   2.0000      -1.010186       -27.4886
  25   2.0000      -0.987983       -26.8844
  26   2.0000      -0.915427       -24.9100
  27   2.0000      -0.902618       -24.5615
  28   2.0000      -0.869686       -23.6654
  29   2.0000      -0.848653       -23.0930
  30   2.0000      -0.842640       -22.9294
  31   2.0000      -0.815138       -22.1810
  32   2.0000      -0.784519       -21.3479
  33   2.0000      -0.771223       -20.9860
  34   2.0000      -0.708712       -19.2850
  35   2.0000      -0.695117       -18.9151
  36   2.0000      -0.686997       -18.6941
  37   2.0000      -0.658394       -17.9158
  38   2.0000      -0.634870       -17.2757
  39   2.0000      -0.624768       -17.0008
  40   2.0000      -0.595661       -16.2087
  41   2.0000      -0.570001       -15.5105
  42   2.0000      -0.551759       -15.0141
  43   2.0000      -0.547224       -14.8907
  44   2.0000      -0.542502       -14.7622
  45   2.0000      -0.533280       -14.5113
  46   2.0000      -0.517576       -14.0839
  47   2.0000      -0.507086       -13.7985
  48   2.0000      -0.505565       -13.7571
  49   2.0000      -0.493622       -13.4321
  50   2.0000      -0.481762       -13.1094
  51   2.0000      -0.480158       -13.0658
  52   2.0000      -0.472243       -12.8504
  53   2.0000      -0.470248       -12.7961
  54   2.0000      -0.456299       -12.4165
  55   2.0000      -0.450283       -12.2528
  56   2.0000      -0.445706       -12.1283
  57   2.0000      -0.437547       -11.9063
  58   2.0000      -0.430611       -11.7175
  59   2.0000      -0.422632       -11.5004
  60   2.0000      -0.416539       -11.3346
  61   2.0000      -0.413626       -11.2553
  62   2.0000      -0.407189       -11.0802
  63   2.0000      -0.351233        -9.5575
  64   2.0000      -0.332567        -9.0496
  65   2.0000      -0.327033        -8.8990
  66   2.0000      -0.287219        -7.8156
  67   0.0000       0.020101         0.5470
  68   0.0000       0.077099         2.0980
  69   0.0000       0.117549         3.1987
  70   0.0000       0.119747         3.2585
  71   0.0000       0.126313         3.4372

MULLIKEN ATOMIC CHARGES
-----------------------
   0 S :    0.110012
   1 C :   -0.132631
   2 C :   -0.105751
   3 C :    0.017591
   4 C :   -0.108970
   5 H :    0.012863
   6 C :    0.046641
   7 H :    0.027028
   8 H :    0.034951
   9 C :   -0.077859
  10 H :    0.041607
  11 H :    0.040759
  12 C :   -0.099625
  13 H :    0.055172
  14 H :    0.037301
  15 H :    0.037947
  16 S :    0.108962
  17 C :   -0.097900
  18 C :   -0.039623
  19 C :   -0.043608
  20 C :   -0.187778
  21 H :    0.006073
  22 C :    0.098952
  23 H :    0.010455
  24 H :    0.017072
  25 C :   -0.091834
  26 H :    0.056904
  27 H :    0.042861
  28 C :   -0.076500
  29 H :    0.048929
  30 H :    0.026798
  31 H :    0.038270
  32 H :    0.067005
  33 H :    0.077926
Sum of atomic charges:   -0.0000000

LOEWDIN ATOMIC CHARGES
----------------------
   0 S :    0.400800
   1 C :   -0.202392
   2 C :   -0.069850
   3 C :   -0.062733
   4 C :   -0.200221
   5 H :    0.033645
   6 C :   -0.044262
   7 H :    0.034801
   8 H :    0.036935
   9 C :   -0.042823
  10 H :    0.031226
  11 H :    0.029236
  12 C :   -0.086637
  13 H :    0.036453
  14 H :    0.030467
  15 H :    0.026224
  16 S :    0.436253
  17 C :   -0.219791
  18 C :   -0.067634
  19 C :   -0.054716
  20 C :   -0.195025
  21 H :    0.024363
  22 C :   -0.037015
  23 H :    0.024737
  24 H :    0.034530
  25 C :   -0.044456
  26 H :    0.035300
  27 H :    0.030061
  28 C :   -0.073118
  29 H :    0.029053
  30 H :    0.022148
  31 H :    0.027120
  32 H :    0.039737
  33 H :    0.037587

  Mayer bond orders larger than 0.100000
B(  0-S ,  1-C ) :   1.1299 B(  0-S ,  4-C ) :   1.1382 B(  1-C ,  2-C ) :   1.5907
B(  1-C , 32-H ) :   0.9623 B(  2-C ,  3-C ) :   1.2543 B(  2-C ,  6-C ) :   1.0391
B(  3-C ,  4-C ) :   1.5550 B(  3-C ,  5-H ) :   0.9977 B(  4-C , 20-C ) :   1.0786
B(  6-C ,  7-H ) :   0.9395 B(  6-C ,  8-H ) :   0.9419 B(  6-C ,  9-C ) :   1.0559
B(  9-C , 10-H ) :   0.9547 B(  9-C , 11-H ) :   0.9578 B(  9-C , 12-C ) :   1.0770
B( 12-C , 13-H ) :   0.9659 B( 12-C , 14-H ) :   0.9715 B( 12-C , 15-H ) :   0.9741
B( 16-S , 17-C ) :   1.1607 B( 16-S , 20-C ) :   1.1945 B( 17-C , 18-C ) :   1.5865
B( 17-C , 20-C ) :   0.1046 B( 17-C , 33-H ) :   0.9583 B( 18-C , 19-C ) :   1.2831
B( 18-C , 21-H ) :   0.9897 B( 19-C , 20-C ) :   1.4900 B( 19-C , 22-C ) :   1.0502
B( 22-C , 23-H ) :   0.9231 B( 22-C , 24-H ) :   0.9316 B( 22-C , 25-C ) :   1.0413
B( 25-C , 26-H ) :   0.9590 B( 25-C , 27-H ) :   0.9582 B( 25-C , 28-C ) :   1.0691
B( 28-C , 29-H ) :   0.9754 B( 28-C , 30-H ) :   0.9756 B( 28-C , 31-H ) :   0.9777

Dispersion correction           -0.015248828
FINAL SINGLE POINT ENERGY     -1339.876789799436

DIPOLE MOMENT
-------------
                                X             Y             Z
Electronic contribution:    -19.26707     -18.24885      -3.63817
Nuclear contribution   :     19.79307      18.70497       3.77162
                        -----------------------------------------
Total Dipole Moment    :      0.52600       0.45612       0.13345
                        -----------------------------------------
Magnitude (a.u.)       :      0.70889
Magnitude (Debye)      :      1.80187

Rotational constants in cm-1:     0.020205     0.009134     0.007224
Rotational constants in MHz :   605.728880   273.827877   216.571229

                             ****ORCA TERMINATED NORMALLY****
TOTAL RUN TIME: 0 days 0 hours 0 minutes 31 seconds 423 msec
