                         Program Version 4.2.1 -  RELEASE  -
|  1> ! wB97X-D3 SP def2-SVP
|  2> %pal
|  3> nprocs 16
|  4> end
|  5>
|  6> * xyz 0 1
|  7> S 	 41.5917 	 32.435 	 50.2045
|  8> C 	 42.2224 	 33.3594 	 51.6025
|  9> C 	 41.1841 	 33.8667 	 52.3779
| 10> C 	 39.9425 	 33.3372 	 51.8989
| 11> C 	 39.9527 	 32.6358 	 50.6744
| 12> H 	 38.9789 	 33.4772 	 52.3769
| 13> C 	 41.2867 	 34.7396 	 53.5564
| 14> H 	 41.8861 	 34.1635 	 54.3114
| 15> H 	 40.308 	 34.8647 	 54.059
| 16> C 	 41.838 	 36.1615 	 53.2493
| 17> H 	 42.0294 	 36.5935 	 54.2134
| 18> H 	 42.7191 	 35.9376 	 52.6403
| 19> C 	 40.921 	 37.0433 	 52.4301
| 20> H 	 40.2309 	 36.4626 	 51.7921
| 21> H 	 40.2868 	 37.7056 	 53.0455
| 22> H 	 41.5112 	 37.7335 	 51.8135
| 23> S 	 38.9997 	 30.5672 	 49.1201
| 24> C 	 37.4198 	 30.7799 	 48.3712
| 25> C 	 36.7992 	 31.9357 	 48.7697
| 26> C 	 37.6572 	 32.7502 	 49.537
| 27> C 	 38.8062 	 32.1527 	 49.9277
| 28> H 	 35.7939 	 32.1239 	 48.4862
| 29> C 	 37.16 	 34.0991 	 50.009
| 30> H 	 36.8552 	 34.4934 	 49.0783
| 31> H 	 38.0573 	 34.6744 	 50.3499
| 32> C 	 36.0464 	 34.0797 	 51.0414
| 33> H 	 36.3865 	 33.4239 	 51.8289
| 34> H 	 35.2105 	 33.5646 	 50.6421
| 35> C 	 35.7231 	 35.4724 	 51.6517
| 36> H 	 35.3691 	 35.4605 	 52.6701
| 37> H 	 34.9858 	 35.9767 	 51.0967
| 38> H 	 36.6304 	 36.105 	 51.8634
| 39> H 	 43.244 	 33.8037 	 51.6623
| 40> H 	 37.0376 	 30.1238 	 47.6403
| 41> *
| 42>
| 43>                          ****END OF INPUT****

CARTESIAN COORDINATES (ANGSTROEM)
---------------------------------
  S     41.591700   32.435000   50.204500
  C     42.222400   33.359400   51.602500
  C     41.184100   33.866700   52.377900
  C     39.942500   33.337200   51.898900
  C     39.952700   32.635800   50.674400
  H     38.978900   33.477200   52.376900
  C     41.286700   34.739600   53.556400
  H     41.886100   34.163500   54.311400
  H     40.308000   34.864700   54.059000
  C     41.838000   36.161500   53.249300
  H     42.029400   36.593500   54.213400
  H     42.719100   35.937600   52.640300
  C     40.921000   37.043300   52.430100
  H     40.230900   36.462600   51.792100
  H     40.286800   37.705600   53.045500
  H     41.511200   37.733500   51.813500
  S     38.999700   30.567200   49.120100
  C     37.419800   30.779900   48.371200
  C     36.799200   31.935700   48.769700
  C     37.657200   32.750200   49.537000
  C     38.806200   32.152700   49.927700
  H     35.793900   32.123900   48.486200
  C     37.160000   34.099100   50.009000
  H     36.855200   34.493400   49.078300
  H     38.057300   34.674400   50.349900
  C     36.046400   34.079700   51.041400
  H     36.386500   33.423900   51.828900
  H     35.210500   33.564600   50.642100
  C     35.723100   35.472400   51.651700
  H     35.369100   35.460500   52.670100
  H     34.985800   35.976700   51.096700
  H     36.630400   36.105000   51.863400
  H     43.244000   33.803700   51.662300
  H     37.037600   30.123800   47.640300

 Total Charge           Charge          ....    0
 Multiplicity           Mult            ....    1
 Number of Electrons    NEL             ....  134
 Basis Dimension        Dim             ....  322

ORBITAL ENERGIES
----------------

  NO   OCC          E(Eh)            E(eV)
   0   2.0000     -88.968071     -2420.9443
   1   2.0000     -88.963509     -2420.8202
   2   2.0000     -10.330113      -281.0967
   3   2.0000     -10.326097      -280.9874
   4   2.0000     -10.318551      -280.7821
   5   2.0000     -10.317007      -280.7400
   6   2.0000     -10.302007      -280.3319
   7   2.0000     -10.298323      -280.2316
   8   2.0000     -10.295474      -280.1541
   9   2.0000     -10.293363      -280.0966
  10   2.0000     -10.290784      -280.0265
  11   2.0000     -10.288997      -279.9779
  12   2.0000     -10.286723      -279.9160
  13   2.0000     -10.286222      -279.9023
  14   2.0000     -10.280784      -279.7543
  15   2.0000     -10.280266      -279.7402
  16   2.0000      -8.082379      -219.9327
  17   2.0000      -8.077952      -219.8122
  18   2.0000      -6.040953      -164.3827
  19   2.0000      -6.036812      -164.2700
  20   2.0000      -6.036448      -164.2601
  21   2.0000      -6.033206      -164.1719
  22   2.0000      -6.032677      -164.1575
  23   2.0000      -6.028577      -164.0459
  24   2.0000      -1.007679       -27.4203
  25   2.0000      -0.984611       -26.7926
  26   2.0000      -0.918238       -24.9865
  27   2.0000      -0.911131       -24.7931
  28   2.0000      -0.870516       -23.6879
  29   2.0000      -0.853236       -23.2177
  30   2.0000      -0.844878       -22.9903
  31   2.0000      -0.811608       -22.0850
  32   2.0000      -0.785630       -21.3781
  33   2.0000      -0.776942       -21.1417
  34   2.0000      -0.713125       -19.4051
  35   2.0000      -0.705925       -19.2092
  36   2.0000      -0.698105       -18.9964
  37   2.0000      -0.669761       -18.2251
  38   2.0000      -0.633485       -17.2380
  39   2.0000      -0.610532       -16.6134
  40   2.0000      -0.595099       -16.1935
  41   2.0000      -0.585355       -15.9283
  42   2.0000      -0.570352       -15.5201
  43   2.0000      -0.552842       -15.0436
  44   2.0000      -0.544725       -14.8227
  45   2.0000      -0.520884       -14.1740
  46   2.0000      -0.517820       -14.0906
  47   2.0000      -0.513502       -13.9731
  48   2.0000      -0.507570       -13.8117
  49   2.0000      -0.497022       -13.5247
  50   2.0000      -0.489612       -13.3230
  51   2.0000      -0.487820       -13.2743
  52   2.0000      -0.471616       -12.8333
  53   2.0000      -0.465900       -12.6778
  54   2.0000      -0.461354       -12.5541
  55   2.0000      -0.450304       -12.2534
  56   2.0000      -0.443857       -12.0780
  57   2.0000      -0.435801       -11.8588
  58   2.0000      -0.434313       -11.8182
  59   2.0000      -0.428974       -11.6730
  60   2.0000      -0.422760       -11.5039
  61   2.0000      -0.414802       -11.2873
  62   2.0000      -0.407750       -11.0954
  63   2.0000      -0.348172        -9.4742
  64   2.0000      -0.333625        -9.0784
  65   2.0000      -0.329374        -8.9627
  66   2.0000      -0.290126        -7.8947
  67   0.0000       0.024366         0.6630
  68   0.0000       0.070332         1.9138
  69   0.0000       0.101781         2.7696
  70   0.0000       0.121126         3.2960
  71   0.0000       0.123428         3.3587

MULLIKEN ATOMIC CHARGES
-----------------------
   0 S :    0.114999
   1 C :   -0.141317
   2 C :   -0.091097
   3 C :    0.006537
   4 C :   -0.135092
   5 H :    0.001499
   6 C :    0.023294
   7 H :    0.052074
   8 H :    0.020201
   9 C :   -0.047001
  10 H :    0.033196
  11 H :    0.025628
  12 C :   -0.054825
  13 H :    0.041923
  14 H :    0.027341
  15 H :    0.036100
  16 S :    0.085158
  17 C :   -0.070792
  18 C :   -0.023531
  19 C :   -0.057992
  20 C :   -0.145214
  21 H :    0.010617
  22 C :    0.072889
  23 H :    0.012923
  24 H :    0.031947
  25 C :   -0.030850
  26 H :    0.021567
  27 H :    0.014801
  28 C :   -0.035540
  29 H :    0.021833
  30 H :    0.032808
  31 H :    0.032201
  32 H :    0.069644
  33 H :    0.044070
Sum of atomic charges:   -0.0000000

LOEWDIN ATOMIC CHARGES
----------------------
   0 S :    0.412310
   1 C :   -0.203807
   2 C :   -0.065618
   3 C :   -0.070020
   4 C :   -0.205347
   5 H :    0.024488
   6 C :   -0.040678
   7 H :    0.042761
   8 H :    0.029241
   9 C :   -0.034795
  10 H :    0.024847
  11 H :    0.023925
  12 C :   -0.068738
  13 H :    0.028217
  14 H :    0.025769
  15 H :    0.030063
  16 S :    0.374471
  17 C :   -0.158388
  18 C :   -0.067683
  19 C :   -0.053035
  20 C :   -0.184692
  21 H :    0.028631
  22 C :   -0.028869
  23 H :    0.023803
  24 H :    0.032845
  25 C :   -0.034361
  26 H :    0.023701
  27 H :    0.020199
  28 C :   -0.066988
  29 H :    0.026547
  30 H :    0.019730
  31 H :    0.034491
  32 H :    0.036475
  33 H :    0.020503

  Mayer bond orders larger than 0.100000
B(  0-S ,  1-C ) :   1.1360 B(  0-S ,  4-C ) :   1.1657 B(  1-C ,  2-C ) :   1.5891
B(  1-C ,  4-C ) :   0.1009 B(  1-C , 32-H ) :   0.9551 B(  2-C ,  3-C ) :   1.2561
B(  2-C ,  6-C ) :   1.0258 B(  3-C ,  4-C ) :   1.5366 B(  3-C ,  5-H ) :   0.9954
B(  4-C , 20-C ) :   1.0545 B(  6-C ,  7-H ) :   0.9385 B(  6-C ,  8-H ) :   0.9431
B(  6-C ,  9-C ) :   1.0641 B(  9-C , 10-H ) :   0.9562 B(  9-C , 11-H ) :   0.9632
B(  9-C , 12-C ) :   1.0685 B( 12-C , 13-H ) :   0.9785 B( 12-C , 14-H ) :   0.9743
B( 12-C , 15-H ) :   0.9743 B( 16-S , 17-C ) :   1.1532 B( 16-S , 20-C ) :   1.1028
B( 17-C , 18-C ) :   1.6240 B( 17-C , 33-H ) :   0.9713 B( 18-C , 19-C ) :   1.2113
B( 18-C , 21-H ) :   0.9976 B( 19-C , 20-C ) :   1.6384 B( 19-C , 22-C ) :   1.0382
B( 22-C , 23-H ) :   0.9218 B( 22-C , 24-H ) :   0.9317 B( 22-C , 25-C ) :   1.0646
B( 25-C , 26-H ) :   0.9546 B( 25-C , 27-H ) :   0.9517 B( 25-C , 28-C ) :   1.0752
B( 28-C , 29-H ) :   0.9737 B( 28-C , 30-H ) :   0.9793 B( 28-C , 31-H ) :   0.9731

Dispersion correction           -0.014776840
FINAL SINGLE POINT ENERGY     -1339.875175118464

DIPOLE MOMENT
-------------
                                X             Y             Z
Electronic contribution:      9.86222     -25.96676     -14.75765
Nuclear contribution   :    -10.33169      26.59314      15.02735
                        -----------------------------------------
Total Dipole Moment    :     -0.46946       0.62637       0.26970
                        -----------------------------------------
Magnitude (a.u.)       :      0.82794
Magnitude (Debye)      :      2.10445

Rotational constants in cm-1:     0.017644     0.010017     0.006798
Rotational constants in MHz :   528.945858   300.309315   203.792098

                             ****ORCA TERMINATED NORMALLY****
TOTAL RUN TIME: 0 days 0 hours 0 minutes 36 seconds 673 msec
