                         Program Version 4.2.1 -  RELEASE  -
|  1> ! wB97X-D3 SP def2-SVP
|  2> %pal
|  3> nprocs 16
|  4> end
|  5>
|  6> * xyz 0 1
|  7> S 	 -1.10851 	 58.8582 	 49.1777
|  8> C 	 -2.0984 	 57.9911 	 50.4161
|  9> C 	 -3.3802 	 57.757 	 49.9592
| 10> C 	 -3.60267 	 58.3264 	 48.644
| 11> C 	 -2.50159 	 58.9717 	 48.1105
| 12> H 	 -4.47292 	 58.3606 	 48.0364
| 13> C 	 -4.38481 	 56.9108 	 50.6521
| 14> H 	 -4.01432 	 56.6597 	 51.6999
| 15> H 	 -4.48831 	 56.0256 	 50.0952
| 16> C 	 -5.79647 	 57.5228 	 50.8204
| 17> H 	 -5.57336 	 58.5941 	 51.0462
| 18> H 	 -6.22244 	 57.5978 	 49.8043
| 19> C 	 -6.6743 	 56.8085 	 51.9177
| 20> H 	 -7.61252 	 57.3706 	 52.167
| 21> H 	 -7.06536 	 55.8481 	 51.6172
| 22> H 	 -6.23172 	 56.6793 	 52.9198
| 23> S 	 -2.51166 	 61.5482 	 47.2654
| 24> C 	 -2.55106 	 61.9213 	 45.6623
| 25> C 	 -2.49725 	 60.8535 	 44.8866
| 26> C 	 -2.38914 	 59.6555 	 45.6198
| 27> C 	 -2.41867 	 59.892 	 47.0051
| 28> H 	 -2.60966 	 61.0193 	 43.8005
| 29> C 	 -2.29672 	 58.2929 	 44.9455
| 30> H 	 -2.75419 	 58.337 	 43.9915
| 31> H 	 -2.79634 	 57.4565 	 45.5577
| 32> C 	 -0.809858 	 57.7369 	 44.6838
| 33> H 	 -0.264178 	 58.4493 	 43.9849
| 34> H 	 -0.936234 	 56.8374 	 44.0934
| 35> C 	 -0.000320072 	 57.3973 	 45.9246
| 36> H 	 -0.625265 	 56.8562 	 46.6127
| 37> H 	 0.131868 	 58.3964 	 46.2642
| 38> H 	 0.880696 	 56.8561 	 45.63
| 39> H 	 -1.68164 	 57.6857 	 51.4176
| 40> H 	 -2.59536 	 62.9663 	 45.3672
| 41> *
| 42>
| 43>                          ****END OF INPUT****

CARTESIAN COORDINATES (ANGSTROEM)
---------------------------------
  S     -1.108510   58.858200   49.177700
  C     -2.098400   57.991100   50.416100
  C     -3.380200   57.757000   49.959200
  C     -3.602670   58.326400   48.644000
  C     -2.501590   58.971700   48.110500
  H     -4.472920   58.360600   48.036400
  C     -4.384810   56.910800   50.652100
  H     -4.014320   56.659700   51.699900
  H     -4.488310   56.025600   50.095200
  C     -5.796470   57.522800   50.820400
  H     -5.573360   58.594100   51.046200
  H     -6.222440   57.597800   49.804300
  C     -6.674300   56.808500   51.917700
  H     -7.612520   57.370600   52.167000
  H     -7.065360   55.848100   51.617200
  H     -6.231720   56.679300   52.919800
  S     -2.511660   61.548200   47.265400
  C     -2.551060   61.921300   45.662300
  C     -2.497250   60.853500   44.886600
  C     -2.389140   59.655500   45.619800
  C     -2.418670   59.892000   47.005100
  H     -2.609660   61.019300   43.800500
  C     -2.296720   58.292900   44.945500
  H     -2.754190   58.337000   43.991500
  H     -2.796340   57.456500   45.557700
  C     -0.809858   57.736900   44.683800
  H     -0.264178   58.449300   43.984900
  H     -0.936234   56.837400   44.093400
  C     -0.000320   57.397300   45.924600
  H     -0.625265   56.856200   46.612700
  H      0.131868   58.396400   46.264200
  H      0.880696   56.856100   45.630000
  H     -1.681640   57.685700   51.417600
  H     -2.595360   62.966300   45.367200

 Total Charge           Charge          ....    0
 Multiplicity           Mult            ....    1
 Number of Electrons    NEL             ....  134
 Basis Dimension        Dim             ....  322

ORBITAL ENERGIES
----------------

  NO   OCC          E(Eh)            E(eV)
   0   2.0000     -88.962465     -2420.7917
   1   2.0000     -88.960820     -2420.7470
   2   2.0000     -10.328048      -281.0405
   3   2.0000     -10.322688      -280.8946
   4   2.0000     -10.317389      -280.7504
   5   2.0000     -10.305123      -280.4166
   6   2.0000     -10.302774      -280.3527
   7   2.0000     -10.302525      -280.3460
   8   2.0000     -10.296219      -280.1744
   9   2.0000     -10.295865      -280.1647
  10   2.0000     -10.294441      -280.1260
  11   2.0000     -10.290765      -280.0259
  12   2.0000     -10.288776      -279.9718
  13   2.0000     -10.285650      -279.8868
  14   2.0000     -10.284671      -279.8601
  15   2.0000     -10.262478      -279.2562
  16   2.0000      -8.079400      -219.8517
  17   2.0000      -8.076289      -219.7670
  18   2.0000      -6.037442      -164.2871
  19   2.0000      -6.034871      -164.2172
  20   2.0000      -6.033202      -164.1718
  21   2.0000      -6.030896      -164.1090
  22   2.0000      -6.030542      -164.0994
  23   2.0000      -6.027036      -164.0040
  24   2.0000      -1.025195       -27.8970
  25   2.0000      -0.985244       -26.8098
  26   2.0000      -0.911373       -24.7997
  27   2.0000      -0.900545       -24.5051
  28   2.0000      -0.871956       -23.7271
  29   2.0000      -0.852531       -23.1985
  30   2.0000      -0.840512       -22.8715
  31   2.0000      -0.817383       -22.2421
  32   2.0000      -0.784625       -21.3507
  33   2.0000      -0.772022       -21.0078
  34   2.0000      -0.711570       -19.3628
  35   2.0000      -0.694026       -18.8854
  36   2.0000      -0.684953       -18.6385
  37   2.0000      -0.655161       -17.8278
  38   2.0000      -0.644277       -17.5317
  39   2.0000      -0.618171       -16.8213
  40   2.0000      -0.598622       -16.2893
  41   2.0000      -0.572733       -15.5849
  42   2.0000      -0.559735       -15.2312
  43   2.0000      -0.552977       -15.0473
  44   2.0000      -0.539598       -14.6832
  45   2.0000      -0.518383       -14.1059
  46   2.0000      -0.513360       -13.9692
  47   2.0000      -0.507734       -13.8161
  48   2.0000      -0.505852       -13.7649
  49   2.0000      -0.500826       -13.6282
  50   2.0000      -0.491167       -13.3653
  51   2.0000      -0.484067       -13.1721
  52   2.0000      -0.474885       -12.9223
  53   2.0000      -0.467273       -12.7151
  54   2.0000      -0.457520       -12.4498
  55   2.0000      -0.446942       -12.1619
  56   2.0000      -0.438418       -11.9300
  57   2.0000      -0.431612       -11.7448
  58   2.0000      -0.429404       -11.6847
  59   2.0000      -0.421442       -11.4680
  60   2.0000      -0.419629       -11.4187
  61   2.0000      -0.417433       -11.3589
  62   2.0000      -0.405921       -11.0457
  63   2.0000      -0.341220        -9.2851
  64   2.0000      -0.326147        -8.8749
  65   2.0000      -0.323795        -8.8109
  66   2.0000      -0.308437        -8.3930
  67   0.0000       0.043642         1.1876
  68   0.0000       0.063024         1.7150
  69   0.0000       0.109477         2.9790
  70   0.0000       0.127767         3.4767
  71   0.0000       0.131092         3.5672

MULLIKEN ATOMIC CHARGES
-----------------------
   0 S :    0.095203
   1 C :   -0.148630
   2 C :   -0.071977
   3 C :    0.068831
   4 C :   -0.193172
   5 H :    0.001964
   6 C :    0.075846
   7 H :    0.022288
   8 H :    0.032561
   9 C :   -0.110125
  10 H :    0.038756
  11 H :    0.038365
  12 C :   -0.052523
  13 H :    0.036632
  14 H :    0.030604
  15 H :    0.037731
  16 S :    0.146646
  17 C :   -0.096047
  18 C :   -0.045657
  19 C :   -0.011763
  20 C :   -0.178275
  21 H :    0.025705
  22 C :    0.055977
  23 H :    0.012994
  24 H :    0.039444
  25 C :   -0.125547
  26 H :    0.029136
  27 H :    0.018943
  28 C :    0.005347
  29 H :    0.028987
  30 H :    0.026731
  31 H :    0.039518
  32 H :    0.069910
  33 H :    0.055596
Sum of atomic charges:   -0.0000000

LOEWDIN ATOMIC CHARGES
----------------------
   0 S :    0.381540
   1 C :   -0.184870
   2 C :   -0.064504
   3 C :   -0.054997
   4 C :   -0.187665
   5 H :    0.028119
   6 C :   -0.032721
   7 H :    0.034227
   8 H :    0.026398
   9 C :   -0.046302
  10 H :    0.029133
  11 H :    0.025544
  12 C :   -0.073367
  13 H :    0.033775
  14 H :    0.023549
  15 H :    0.029479
  16 S :    0.486886
  17 C :   -0.214394
  18 C :   -0.085852
  19 C :   -0.055664
  20 C :   -0.245066
  21 H :    0.039757
  22 C :   -0.032647
  23 H :    0.023777
  24 H :    0.037577
  25 C :   -0.039597
  26 H :    0.022818
  27 H :    0.013536
  28 C :   -0.059596
  29 H :    0.021510
  30 H :    0.021713
  31 H :    0.027259
  32 H :    0.039485
  33 H :    0.031161

  Mayer bond orders larger than 0.100000
B(  0-S ,  1-C ) :   1.1205 B(  0-S ,  4-C ) :   1.1455 B(  1-C ,  2-C ) :   1.6386
B(  1-C , 32-H ) :   0.9612 B(  2-C ,  3-C ) :   1.1779 B(  2-C ,  6-C ) :   1.0405
B(  3-C ,  4-C ) :   1.6340 B(  3-C ,  5-H ) :   0.9972 B(  4-C , 20-C ) :   1.0023
B(  6-C ,  7-H ) :   0.9438 B(  6-C ,  8-H ) :   0.9338 B(  6-C ,  9-C ) :   1.0450
B(  9-C , 10-H ) :   0.9651 B(  9-C , 11-H ) :   0.9541 B(  9-C , 12-C ) :   1.0686
B( 12-C , 13-H ) :   0.9759 B( 12-C , 14-H ) :   0.9765 B( 12-C , 15-H ) :   0.9762
B( 16-S , 17-C ) :   1.2071 B( 16-S , 20-C ) :   1.1901 B( 17-C , 18-C ) :   1.5701
B( 17-C , 33-H ) :   0.9658 B( 18-C , 19-C ) :   1.2761 B( 18-C , 21-H ) :   0.9953
B( 19-C , 20-C ) :   1.5357 B( 19-C , 22-C ) :   1.0525 B( 22-C , 23-H ) :   0.9308
B( 22-C , 24-H ) :   0.9364 B( 22-C , 25-C ) :   1.0719 B( 25-C , 26-H ) :   0.9582
B( 25-C , 27-H ) :   0.9566 B( 25-C , 28-C ) :   1.0620 B( 28-C , 29-H ) :   0.9728
B( 28-C , 30-H ) :   0.9784 B( 28-C , 31-H ) :   0.9719

Dispersion correction           -0.014957368
FINAL SINGLE POINT ENERGY     -1339.872275150179

DIPOLE MOMENT
-------------
                                X             Y             Z
Electronic contribution:      9.51485      17.62988      -1.48310
Nuclear contribution   :     -9.97191     -17.85387       1.34613
                        -----------------------------------------
Total Dipole Moment    :     -0.45706      -0.22399      -0.13697
                        -----------------------------------------
Magnitude (a.u.)       :      0.52710
Magnitude (Debye)      :      1.33978

Rotational constants in cm-1:     0.020870     0.007848     0.007145
Rotational constants in MHz :   625.671663   235.268673   214.200240

                             ****ORCA TERMINATED NORMALLY****
TOTAL RUN TIME: 0 days 0 hours 0 minutes 33 seconds 983 msec
