                         Program Version 4.2.1 -  RELEASE  -
|  1> ! wB97X-D3 SP def2-SVP
|  2> %pal
|  3> nprocs 16
|  4> end
|  5>
|  6> * xyz 0 1
|  7> S 	 37.7185 	 11.3484 	 78.642
|  8> C 	 39.1433 	 10.2914 	 78.7388
|  9> C 	 39.7276 	 10.2119 	 77.5016
| 10> C 	 38.8239 	 10.636 	 76.4811
| 11> C 	 37.7511 	 11.3218 	 76.9375
| 12> H 	 39.0446 	 10.7003 	 75.4133
| 13> C 	 41.0735 	 9.50188 	 77.2493
| 14> H 	 41.2635 	 9.48922 	 76.1421
| 15> H 	 41.0825 	 8.46565 	 77.5661
| 16> C 	 42.3166 	 10.1572 	 77.8569
| 17> H 	 42.2291 	 9.89925 	 79.0037
| 18> H 	 43.2323 	 9.60124 	 77.6414
| 19> C 	 42.3663 	 11.6667 	 77.5966
| 20> H 	 42.1798 	 11.9237 	 76.5289
| 21> H 	 41.7237 	 12.2785 	 78.1865
| 22> H 	 43.4081 	 12.0078 	 77.8362
| 23> S 	 35.1828 	 11.0636 	 76.0248
| 24> C 	 34.5623 	 12.0332 	 74.7523
| 25> C 	 35.52 	 12.9797 	 74.3632
| 26> C 	 36.7388 	 12.9214 	 75.1569
| 27> C 	 36.7017 	 11.9041 	 76.1027
| 28> H 	 35.2888 	 13.514 	 73.4012
| 29> C 	 37.9408 	 13.8492 	 74.8897
| 30> H 	 38.5018 	 13.9497 	 75.8243
| 31> H 	 37.5009 	 14.8146 	 74.5034
| 32> C 	 38.946 	 13.3786 	 73.8597
| 33> H 	 38.3819 	 13.0987 	 72.8839
| 34> H 	 39.3172 	 12.4221 	 74.2255
| 35> C 	 40.138 	 14.2934 	 73.6751
| 36> H 	 40.7923 	 13.9045 	 72.8809
| 37> H 	 40.7565 	 14.2881 	 74.5574
| 38> H 	 39.7584 	 15.3006 	 73.3392
| 39> H 	 39.7281 	 10.104 	 79.6024
| 40> H 	 33.5919 	 11.9267 	 74.3556
| 41> *
| 42>
| 43>                          ****END OF INPUT****

CARTESIAN COORDINATES (ANGSTROEM)
---------------------------------
  S     37.718500   11.348400   78.642000
  C     39.143300   10.291400   78.738800
  C     39.727600   10.211900   77.501600
  C     38.823900   10.636000   76.481100
  C     37.751100   11.321800   76.937500
  H     39.044600   10.700300   75.413300
  C     41.073500    9.501880   77.249300
  H     41.263500    9.489220   76.142100
  H     41.082500    8.465650   77.566100
  C     42.316600   10.157200   77.856900
  H     42.229100    9.899250   79.003700
  H     43.232300    9.601240   77.641400
  C     42.366300   11.666700   77.596600
  H     42.179800   11.923700   76.528900
  H     41.723700   12.278500   78.186500
  H     43.408100   12.007800   77.836200
  S     35.182800   11.063600   76.024800
  C     34.562300   12.033200   74.752300
  C     35.520000   12.979700   74.363200
  C     36.738800   12.921400   75.156900
  C     36.701700   11.904100   76.102700
  H     35.288800   13.514000   73.401200
  C     37.940800   13.849200   74.889700
  H     38.501800   13.949700   75.824300
  H     37.500900   14.814600   74.503400
  C     38.946000   13.378600   73.859700
  H     38.381900   13.098700   72.883900
  H     39.317200   12.422100   74.225500
  C     40.138000   14.293400   73.675100
  H     40.792300   13.904500   72.880900
  H     40.756500   14.288100   74.557400
  H     39.758400   15.300600   73.339200
  H     39.728100   10.104000   79.602400
  H     33.591900   11.926700   74.355600

 Total Charge           Charge          ....    0
 Multiplicity           Mult            ....    1
 Number of Electrons    NEL             ....  134
 Basis Dimension        Dim             ....  322

ORBITAL ENERGIES
----------------

  NO   OCC          E(Eh)            E(eV)
   0   2.0000     -88.967030     -2420.9160
   1   2.0000     -88.963203     -2420.8118
   2   2.0000     -10.325686      -280.9762
   3   2.0000     -10.325415      -280.9688
   4   2.0000     -10.315433      -280.6972
   5   2.0000     -10.311959      -280.6027
   6   2.0000     -10.310055      -280.5508
   7   2.0000     -10.303985      -280.3857
   8   2.0000     -10.301356      -280.3142
   9   2.0000     -10.298736      -280.2429
  10   2.0000     -10.296837      -280.1912
  11   2.0000     -10.295497      -280.1547
  12   2.0000     -10.291688      -280.0511
  13   2.0000     -10.289369      -279.9880
  14   2.0000     -10.283612      -279.8313
  15   2.0000     -10.283208      -279.8203
  16   2.0000      -8.082168      -219.9270
  17   2.0000      -8.078895      -219.8379
  18   2.0000      -6.040637      -164.3741
  19   2.0000      -6.037294      -164.2831
  20   2.0000      -6.036625      -164.2649
  21   2.0000      -6.033077      -164.1684
  22   2.0000      -6.032920      -164.1641
  23   2.0000      -6.029888      -164.0816
  24   2.0000      -1.013257       -27.5721
  25   2.0000      -0.988294       -26.8928
  26   2.0000      -0.912144       -24.8207
  27   2.0000      -0.911259       -24.7966
  28   2.0000      -0.869774       -23.6678
  29   2.0000      -0.850057       -23.1312
  30   2.0000      -0.844635       -22.9837
  31   2.0000      -0.815069       -22.1791
  32   2.0000      -0.785400       -21.3718
  33   2.0000      -0.776161       -21.1204
  34   2.0000      -0.704632       -19.1740
  35   2.0000      -0.700134       -19.0516
  36   2.0000      -0.687469       -18.7070
  37   2.0000      -0.660270       -17.9669
  38   2.0000      -0.640988       -17.4422
  39   2.0000      -0.612300       -16.6615
  40   2.0000      -0.593668       -16.1545
  41   2.0000      -0.573719       -15.6117
  42   2.0000      -0.570594       -15.5267
  43   2.0000      -0.553935       -15.0733
  44   2.0000      -0.543999       -14.8030
  45   2.0000      -0.520732       -14.1698
  46   2.0000      -0.516343       -14.0504
  47   2.0000      -0.515281       -14.0215
  48   2.0000      -0.502977       -13.6867
  49   2.0000      -0.497489       -13.5374
  50   2.0000      -0.493733       -13.4352
  51   2.0000      -0.483392       -13.1538
  52   2.0000      -0.474265       -12.9054
  53   2.0000      -0.468850       -12.7581
  54   2.0000      -0.461522       -12.5587
  55   2.0000      -0.449692       -12.2367
  56   2.0000      -0.442978       -12.0540
  57   2.0000      -0.434428       -11.8214
  58   2.0000      -0.428491       -11.6598
  59   2.0000      -0.427113       -11.6223
  60   2.0000      -0.421106       -11.4589
  61   2.0000      -0.412220       -11.2171
  62   2.0000      -0.403343       -10.9755
  63   2.0000      -0.337962        -9.1964
  64   2.0000      -0.332414        -9.0455
  65   2.0000      -0.325872        -8.8674
  66   2.0000      -0.310745        -8.4558
  67   0.0000       0.038932         1.0594
  68   0.0000       0.059681         1.6240
  69   0.0000       0.109702         2.9851
  70   0.0000       0.117585         3.1997
  71   0.0000       0.126380         3.4390

MULLIKEN ATOMIC CHARGES
-----------------------
   0 S :    0.116459
   1 C :   -0.092778
   2 C :   -0.103567
   3 C :    0.045124
   4 C :   -0.169391
   5 H :    0.020139
   6 C :    0.045124
   7 H :    0.025464
   8 H :    0.042937
   9 C :   -0.112768
  10 H :    0.025810
  11 H :    0.036500
  12 C :   -0.038771
  13 H :    0.032629
  14 H :    0.039142
  15 H :    0.035522
  16 S :    0.118658
  17 C :   -0.093046
  18 C :   -0.065106
  19 C :   -0.023605
  20 C :   -0.165066
  21 H :    0.044837
  22 C :    0.069008
  23 H :    0.028635
  24 H :    0.030432
  25 C :   -0.100387
  26 H :    0.033420
  27 H :    0.000562
  28 C :   -0.025736
  29 H :    0.035959
  30 H :    0.034642
  31 H :    0.039124
  32 H :    0.041522
  33 H :    0.048571
Sum of atomic charges:    0.0000000

LOEWDIN ATOMIC CHARGES
----------------------
   0 S :    0.417921
   1 C :   -0.183188
   2 C :   -0.058875
   3 C :   -0.064924
   4 C :   -0.212164
   5 H :    0.031062
   6 C :   -0.036251
   7 H :    0.029753
   8 H :    0.033100
   9 C :   -0.051388
  10 H :    0.026928
  11 H :    0.025998
  12 C :   -0.069690
  13 H :    0.027629
  14 H :    0.024075
  15 H :    0.032332
  16 S :    0.432187
  17 C :   -0.190291
  18 C :   -0.084778
  19 C :   -0.051936
  20 C :   -0.211463
  21 H :    0.041798
  22 C :   -0.032809
  23 H :    0.032118
  24 H :    0.034951
  25 C :   -0.052255
  26 H :    0.028998
  27 H :    0.014682
  28 C :   -0.064685
  29 H :    0.030857
  30 H :    0.025261
  31 H :    0.030773
  32 H :    0.021911
  33 H :    0.022363

  Mayer bond orders larger than 0.100000
B(  0-S ,  1-C ) :   1.1342 B(  0-S ,  4-C ) :   1.1643 B(  1-C ,  2-C ) :   1.6192
B(  1-C , 32-H ) :   0.9678 B(  2-C ,  3-C ) :   1.2350 B(  2-C ,  6-C ) :   1.0073
B(  3-C ,  4-C ) :   1.6018 B(  3-C ,  5-H ) :   0.9823 B(  4-C , 20-C ) :   0.9941
B(  6-C ,  7-H ) :   0.9462 B(  6-C ,  8-H ) :   0.9479 B(  6-C ,  9-C ) :   1.0742
B(  9-C , 10-H ) :   0.9520 B(  9-C , 11-H ) :   0.9596 B(  9-C , 12-C ) :   1.0641
B( 12-C , 13-H ) :   0.9774 B( 12-C , 14-H ) :   0.9700 B( 12-C , 15-H ) :   0.9739
B( 16-S , 17-C ) :   1.1811 B( 16-S , 20-C ) :   1.1592 B( 17-C , 18-C ) :   1.5924
B( 17-C , 33-H ) :   0.9744 B( 18-C , 19-C ) :   1.2411 B( 18-C , 21-H ) :   0.9819
B( 19-C , 20-C ) :   1.5985 B( 19-C , 22-C ) :   1.0470 B( 22-C , 23-H ) :   0.9294
B( 22-C , 24-H ) :   0.9332 B( 22-C , 25-C ) :   1.0754 B( 25-C , 26-H ) :   0.9517
B( 25-C , 27-H ) :   0.9431 B( 25-C , 28-C ) :   1.0889 B( 28-C , 29-H ) :   0.9708
B( 28-C , 30-H ) :   0.9704 B( 28-C , 31-H ) :   0.9731

Dispersion correction           -0.015277240
FINAL SINGLE POINT ENERGY     -1339.878796845285

DIPOLE MOMENT
-------------
                                X             Y             Z
Electronic contribution:    -27.68619      -7.16868       9.92420
Nuclear contribution   :     28.30051       7.24067     -10.33627
                        -----------------------------------------
Total Dipole Moment    :      0.61432       0.07199      -0.41207
                        -----------------------------------------
Magnitude (a.u.)       :      0.74322
Magnitude (Debye)      :      1.88911

Rotational constants in cm-1:     0.018507     0.009770     0.007087
Rotational constants in MHz :   554.812473   292.911155   212.472079

                             ****ORCA TERMINATED NORMALLY****
TOTAL RUN TIME: 0 days 0 hours 0 minutes 31 seconds 576 msec
