                         Program Version 4.2.1 -  RELEASE  -
|  1> ! wB97X-D3 SP def2-SVP
|  2> %pal
|  3> nprocs 16
|  4> end
|  5>
|  6> * xyz 0 1
|  7> S 	 -68.8618 	 36.6939 	 115.492
|  8> C 	 -70.4322 	 36.8333 	 116.348
|  9> C 	 -71.3 	 37.4932 	 115.522
| 10> C 	 -70.7633 	 37.7582 	 114.234
| 11> C 	 -69.4519 	 37.4177 	 114.036
| 12> H 	 -71.2512 	 38.443 	 113.455
| 13> C 	 -72.7548 	 37.8258 	 115.852
| 14> H 	 -73.0152 	 37.1692 	 116.602
| 15> H 	 -73.3722 	 37.7389 	 114.954
| 16> C 	 -73.0757 	 39.267 	 116.366
| 17> H 	 -72.6595 	 39.3524 	 117.333
| 18> H 	 -72.541 	 39.9908 	 115.718
| 19> C 	 -74.6726 	 39.5045 	 116.515
| 20> H 	 -75.1053 	 38.6202 	 117.065
| 21> H 	 -74.8604 	 40.4268 	 117.059
| 22> H 	 -75.281 	 39.5859 	 115.602
| 23> S 	 -67.3487 	 36.6205 	 112.512
| 24> C 	 -66.6847 	 37.6644 	 111.231
| 25> C 	 -67.5511 	 38.7264 	 110.942
| 26> C 	 -68.514 	 38.8995 	 111.972
| 27> C 	 -68.5784 	 37.8245 	 112.901
| 28> H 	 -67.4281 	 39.408 	 110.087
| 29> C 	 -69.4808 	 40.0304 	 111.811
| 30> H 	 -70.4813 	 39.542 	 111.642
| 31> H 	 -69.2174 	 40.6337 	 110.857
| 32> C 	 -69.5529 	 41.0172 	 112.98
| 33> H 	 -68.5775 	 41.5075 	 113.14
| 34> H 	 -69.6392 	 40.3249 	 113.853
| 35> C 	 -70.6459 	 42.0773 	 112.728
| 36> H 	 -70.9078 	 42.6891 	 113.584
| 37> H 	 -71.4509 	 41.6966 	 112.124
| 38> H 	 -70.2545 	 42.9482 	 112.059
| 39> H 	 -70.5671 	 36.4265 	 117.344
| 40> H 	 -65.9692 	 37.4342 	 110.48
| 41> *
| 42>
| 43>                          ****END OF INPUT****

CARTESIAN COORDINATES (ANGSTROEM)
---------------------------------
  S    -68.861800   36.693900  115.492000
  C    -70.432200   36.833300  116.348000
  C    -71.300000   37.493200  115.522000
  C    -70.763300   37.758200  114.234000
  C    -69.451900   37.417700  114.036000
  H    -71.251200   38.443000  113.455000
  C    -72.754800   37.825800  115.852000
  H    -73.015200   37.169200  116.602000
  H    -73.372200   37.738900  114.954000
  C    -73.075700   39.267000  116.366000
  H    -72.659500   39.352400  117.333000
  H    -72.541000   39.990800  115.718000
  C    -74.672600   39.504500  116.515000
  H    -75.105300   38.620200  117.065000
  H    -74.860400   40.426800  117.059000
  H    -75.281000   39.585900  115.602000
  S    -67.348700   36.620500  112.512000
  C    -66.684700   37.664400  111.231000
  C    -67.551100   38.726400  110.942000
  C    -68.514000   38.899500  111.972000
  C    -68.578400   37.824500  112.901000
  H    -67.428100   39.408000  110.087000
  C    -69.480800   40.030400  111.811000
  H    -70.481300   39.542000  111.642000
  H    -69.217400   40.633700  110.857000
  C    -69.552900   41.017200  112.980000
  H    -68.577500   41.507500  113.140000
  H    -69.639200   40.324900  113.853000
  C    -70.645900   42.077300  112.728000
  H    -70.907800   42.689100  113.584000
  H    -71.450900   41.696600  112.124000
  H    -70.254500   42.948200  112.059000
  H    -70.567100   36.426500  117.344000
  H    -65.969200   37.434200  110.480000

 Total Charge           Charge          ....    0
 Multiplicity           Mult            ....    1
 Number of Electrons    NEL             ....  134
 Basis Dimension        Dim             ....  322

ORBITAL ENERGIES
----------------

  NO   OCC          E(Eh)            E(eV)
   0   2.0000     -88.971185     -2421.0290
   1   2.0000     -88.964394     -2420.8442
   2   2.0000     -10.338260      -281.3184
   3   2.0000     -10.334016      -281.2029
   4   2.0000     -10.320799      -280.8432
   5   2.0000     -10.319917      -280.8192
   6   2.0000     -10.308781      -280.5162
   7   2.0000     -10.304078      -280.3882
   8   2.0000     -10.301025      -280.3052
   9   2.0000     -10.299378      -280.2603
  10   2.0000     -10.296450      -280.1806
  11   2.0000     -10.293527      -280.1011
  12   2.0000     -10.290782      -280.0264
  13   2.0000     -10.290721      -280.0248
  14   2.0000     -10.287918      -279.9485
  15   2.0000     -10.286772      -279.9173
  16   2.0000      -8.084879      -220.0007
  17   2.0000      -8.079058      -219.8423
  18   2.0000      -6.043472      -164.4512
  19   2.0000      -6.039508      -164.3434
  20   2.0000      -6.037702      -164.2942
  21   2.0000      -6.035621      -164.2376
  22   2.0000      -6.033510      -164.1802
  23   2.0000      -6.029699      -164.0765
  24   2.0000      -1.006670       -27.3929
  25   2.0000      -0.983459       -26.7613
  26   2.0000      -0.910101       -24.7651
  27   2.0000      -0.905357       -24.6360
  28   2.0000      -0.867444       -23.6043
  29   2.0000      -0.849250       -23.1093
  30   2.0000      -0.839620       -22.8472
  31   2.0000      -0.815412       -22.1885
  32   2.0000      -0.779429       -21.2093
  33   2.0000      -0.769321       -20.9343
  34   2.0000      -0.710424       -19.3316
  35   2.0000      -0.704671       -19.1751
  36   2.0000      -0.689578       -18.7644
  37   2.0000      -0.665990       -18.1225
  38   2.0000      -0.643127       -17.5004
  39   2.0000      -0.620358       -16.8808
  40   2.0000      -0.592569       -16.1246
  41   2.0000      -0.568515       -15.4701
  42   2.0000      -0.563192       -15.3252
  43   2.0000      -0.553404       -15.0589
  44   2.0000      -0.526893       -14.3375
  45   2.0000      -0.522183       -14.2093
  46   2.0000      -0.518177       -14.1003
  47   2.0000      -0.509165       -13.8551
  48   2.0000      -0.504592       -13.7306
  49   2.0000      -0.496023       -13.4975
  50   2.0000      -0.488427       -13.2908
  51   2.0000      -0.485347       -13.2070
  52   2.0000      -0.470913       -12.8142
  53   2.0000      -0.465888       -12.6775
  54   2.0000      -0.459409       -12.5012
  55   2.0000      -0.449084       -12.2202
  56   2.0000      -0.441195       -12.0055
  57   2.0000      -0.436394       -11.8749
  58   2.0000      -0.434494       -11.8232
  59   2.0000      -0.432052       -11.7567
  60   2.0000      -0.424395       -11.5484
  61   2.0000      -0.412743       -11.2313
  62   2.0000      -0.401537       -10.9264
  63   2.0000      -0.352484        -9.5916
  64   2.0000      -0.332721        -9.0538
  65   2.0000      -0.330293        -8.9877
  66   2.0000      -0.290992        -7.9183
  67   0.0000       0.018098         0.4925
  68   0.0000       0.072226         1.9654
  69   0.0000       0.094500         2.5715
  70   0.0000       0.116031         3.1574
  71   0.0000       0.126596         3.4449

MULLIKEN ATOMIC CHARGES
-----------------------
   0 S :    0.090761
   1 C :   -0.138013
   2 C :   -0.075618
   3 C :   -0.020489
   4 C :   -0.090187
   5 H :    0.030866
   6 C :    0.085768
   7 H :    0.001386
   8 H :    0.030021
   9 C :   -0.062473
  10 H :    0.019753
  11 H :    0.037217
  12 C :   -0.084624
  13 H :    0.038959
  14 H :    0.042606
  15 H :    0.039301
  16 S :    0.102274
  17 C :   -0.059186
  18 C :   -0.069358
  19 C :   -0.024635
  20 C :   -0.143691
  21 H :    0.037383
  22 C :   -0.042533
  23 H :    0.053665
  24 H :    0.030560
  25 C :   -0.069822
  26 H :    0.034006
  27 H :    0.045418
  28 C :   -0.045742
  29 H :    0.041033
  30 H :    0.030509
  31 H :    0.029558
  32 H :    0.056615
  33 H :    0.048715
Sum of atomic charges:    0.0000000

LOEWDIN ATOMIC CHARGES
----------------------
   0 S :    0.392595
   1 C :   -0.179727
   2 C :   -0.063579
   3 C :   -0.083097
   4 C :   -0.203506
   5 H :    0.040511
   6 C :   -0.023902
   7 H :    0.017130
   8 H :    0.032774
   9 C :   -0.030507
  10 H :    0.016403
  11 H :    0.025137
  12 C :   -0.073373
  13 H :    0.031512
  14 H :    0.026701
  15 H :    0.025282
  16 S :    0.402848
  17 C :   -0.177016
  18 C :   -0.065899
  19 C :   -0.058888
  20 C :   -0.190909
  21 H :    0.037861
  22 C :   -0.043237
  23 H :    0.033140
  24 H :    0.034177
  25 C :   -0.049062
  26 H :    0.029255
  27 H :    0.029012
  28 C :   -0.075160
  29 H :    0.027710
  30 H :    0.021817
  31 H :    0.037232
  32 H :    0.031956
  33 H :    0.024809

  Mayer bond orders larger than 0.100000
B(  0-S ,  1-C ) :   1.1225 B(  0-S ,  4-C ) :   1.1570 B(  1-C ,  2-C ) :   1.5961
B(  1-C , 32-H ) :   0.9767 B(  2-C ,  3-C ) :   1.2520 B(  2-C ,  6-C ) :   1.0268
B(  3-C ,  4-C ) :   1.5729 B(  3-C ,  5-H ) :   0.9800 B(  4-C , 20-C ) :   1.0287
B(  6-C ,  7-H ) :   0.9361 B(  6-C ,  8-H ) :   0.9487 B(  6-C ,  9-C ) :   1.0610
B(  9-C , 10-H ) :   0.9566 B(  9-C , 11-H ) :   0.9614 B(  9-C , 12-C ) :   1.0597
B( 12-C , 13-H ) :   0.9758 B( 12-C , 14-H ) :   0.9783 B( 12-C , 15-H ) :   0.9793
B( 16-S , 17-C ) :   1.1558 B( 16-S , 20-C ) :   1.1451 B( 17-C , 18-C ) :   1.5986
B( 17-C , 20-C ) :   0.1089 B( 17-C , 33-H ) :   0.9650 B( 18-C , 19-C ) :   1.2806
B( 18-C , 21-H ) :   0.9778 B( 19-C , 20-C ) :   1.5528 B( 19-C , 22-C ) :   1.0378
B( 22-C , 23-H ) :   0.9352 B( 22-C , 24-H ) :   0.9388 B( 22-C , 25-C ) :   1.0519
B( 25-C , 26-H ) :   0.9523 B( 25-C , 27-H ) :   0.9594 B( 25-C , 28-C ) :   1.0663
B( 28-C , 29-H ) :   0.9732 B( 28-C , 30-H ) :   0.9757 B( 28-C , 31-H ) :   0.9698

Dispersion correction           -0.014202193
FINAL SINGLE POINT ENERGY     -1339.858689880485

DIPOLE MOMENT
-------------
                                X             Y             Z
Electronic contribution:     24.62484     -23.02115      -3.03540
Nuclear contribution   :    -25.13633      23.57714       2.89318
                        -----------------------------------------
Total Dipole Moment    :     -0.51149       0.55599      -0.14222
                        -----------------------------------------
Magnitude (a.u.)       :      0.76875
Magnitude (Debye)      :      1.95401

Rotational constants in cm-1:     0.018706     0.008992     0.006433
Rotational constants in MHz :   560.795489   269.576499   192.853273

                             ****ORCA TERMINATED NORMALLY****
TOTAL RUN TIME: 0 days 0 hours 0 minutes 34 seconds 284 msec
