                         Program Version 4.2.1 -  RELEASE  -
|  1> ! wB97X-D3 SP def2-SVP
|  2> %pal
|  3> nprocs 16
|  4> end
|  5>
|  6> * xyz 0 1
|  7> S 	 10.4559 	 24.6113 	 65.0826
|  8> C 	 11.6182 	 23.5706 	 65.9544
|  9> C 	 10.9625 	 22.7379 	 66.7811
| 10> C 	 9.53879 	 22.8743 	 66.7376
| 11> C 	 9.12277 	 23.7302 	 65.7915
| 12> H 	 8.8219 	 22.3504 	 67.3068
| 13> C 	 11.6826 	 21.8177 	 67.7987
| 14> H 	 11.052 	 21.8956 	 68.6898
| 15> H 	 12.5712 	 22.3355 	 68.2059
| 16> C 	 11.7903 	 20.2992 	 67.5007
| 17> H 	 11.7902 	 19.7799 	 68.4179
| 18> H 	 10.8915 	 19.908 	 67.0323
| 19> C 	 13.1114 	 19.954 	 66.7318
| 20> H 	 13.1101 	 18.8317 	 66.5799
| 21> H 	 13.1431 	 20.4686 	 65.7726
| 22> H 	 14.031 	 20.1572 	 67.2666
| 23> S 	 6.89678 	 25.3515 	 66.2924
| 24> C 	 5.34581 	 24.9607 	 65.5491
| 25> C 	 5.47642 	 23.9286 	 64.604
| 26> C 	 6.8254 	 23.4307 	 64.5773
| 27> C 	 7.72329 	 24.0945 	 65.4417
| 28> H 	 4.70804 	 23.6087 	 63.9518
| 29> C 	 7.16702 	 22.2669 	 63.7093
| 30> H 	 8.19856 	 22.3013 	 63.3855
| 31> H 	 6.67451 	 22.3944 	 62.7489
| 32> C 	 6.80476 	 20.8661 	 64.2433
| 33> H 	 5.87354 	 20.8245 	 64.8495
| 34> H 	 7.56197 	 20.6161 	 64.9587
| 35> C 	 6.93792 	 19.8023 	 63.1745
| 36> H 	 7.97521 	 19.4833 	 63.1568
| 37> H 	 6.52234 	 20.1264 	 62.2907
| 38> H 	 6.2889 	 18.9458 	 63.3831
| 39> H 	 12.7006 	 23.744 	 65.9582
| 40> H 	 4.41213 	 25.5754 	 65.4583
| 41> *
| 42>
| 43>                          ****END OF INPUT****

CARTESIAN COORDINATES (ANGSTROEM)
---------------------------------
  S     10.455900   24.611300   65.082600
  C     11.618200   23.570600   65.954400
  C     10.962500   22.737900   66.781100
  C      9.538790   22.874300   66.737600
  C      9.122770   23.730200   65.791500
  H      8.821900   22.350400   67.306800
  C     11.682600   21.817700   67.798700
  H     11.052000   21.895600   68.689800
  H     12.571200   22.335500   68.205900
  C     11.790300   20.299200   67.500700
  H     11.790200   19.779900   68.417900
  H     10.891500   19.908000   67.032300
  C     13.111400   19.954000   66.731800
  H     13.110100   18.831700   66.579900
  H     13.143100   20.468600   65.772600
  H     14.031000   20.157200   67.266600
  S      6.896780   25.351500   66.292400
  C      5.345810   24.960700   65.549100
  C      5.476420   23.928600   64.604000
  C      6.825400   23.430700   64.577300
  C      7.723290   24.094500   65.441700
  H      4.708040   23.608700   63.951800
  C      7.167020   22.266900   63.709300
  H      8.198560   22.301300   63.385500
  H      6.674510   22.394400   62.748900
  C      6.804760   20.866100   64.243300
  H      5.873540   20.824500   64.849500
  H      7.561970   20.616100   64.958700
  C      6.937920   19.802300   63.174500
  H      7.975210   19.483300   63.156800
  H      6.522340   20.126400   62.290700
  H      6.288900   18.945800   63.383100
  H     12.700600   23.744000   65.958200
  H      4.412130   25.575400   65.458300

 Total Charge           Charge          ....    0
 Multiplicity           Mult            ....    1
 Number of Electrons    NEL             ....  134
 Basis Dimension        Dim             ....  322

ORBITAL ENERGIES
----------------

  NO   OCC          E(Eh)            E(eV)
   0   2.0000     -88.969547     -2420.9845
   1   2.0000     -88.961780     -2420.7731
   2   2.0000     -10.328167      -281.0437
   3   2.0000     -10.327061      -281.0136
   4   2.0000     -10.323196      -280.9084
   5   2.0000     -10.314288      -280.6660
   6   2.0000     -10.302592      -280.3478
   7   2.0000     -10.300321      -280.2860
   8   2.0000     -10.295603      -280.1576
   9   2.0000     -10.294227      -280.1202
  10   2.0000     -10.289695      -279.9968
  11   2.0000     -10.289093      -279.9804
  12   2.0000     -10.282992      -279.8144
  13   2.0000     -10.282388      -279.7980
  14   2.0000     -10.280176      -279.7378
  15   2.0000     -10.268411      -279.4177
  16   2.0000      -8.083821      -219.9719
  17   2.0000      -8.076439      -219.7711
  18   2.0000      -6.042436      -164.4231
  19   2.0000      -6.038170      -164.3070
  20   2.0000      -6.035070      -164.2226
  21   2.0000      -6.034712      -164.2129
  22   2.0000      -6.031022      -164.1125
  23   2.0000      -6.027006      -164.0032
  24   2.0000      -1.006123       -27.3780
  25   2.0000      -0.983460       -26.7613
  26   2.0000      -0.909537       -24.7498
  27   2.0000      -0.903919       -24.5969
  28   2.0000      -0.866825       -23.5875
  29   2.0000      -0.852256       -23.1911
  30   2.0000      -0.844305       -22.9747
  31   2.0000      -0.818007       -22.2591
  32   2.0000      -0.781441       -21.2641
  33   2.0000      -0.768681       -20.9169
  34   2.0000      -0.708405       -19.2767
  35   2.0000      -0.701605       -19.0916
  36   2.0000      -0.690691       -18.7947
  37   2.0000      -0.661410       -17.9979
  38   2.0000      -0.646283       -17.5863
  39   2.0000      -0.619802       -16.8657
  40   2.0000      -0.593542       -16.1511
  41   2.0000      -0.570122       -15.5138
  42   2.0000      -0.565220       -15.3804
  43   2.0000      -0.547048       -14.8859
  44   2.0000      -0.529627       -14.4119
  45   2.0000      -0.519008       -14.1229
  46   2.0000      -0.517450       -14.0805
  47   2.0000      -0.514147       -13.9907
  48   2.0000      -0.511261       -13.9121
  49   2.0000      -0.500798       -13.6274
  50   2.0000      -0.485113       -13.2006
  51   2.0000      -0.481579       -13.1044
  52   2.0000      -0.472704       -12.8629
  53   2.0000      -0.464061       -12.6277
  54   2.0000      -0.454244       -12.3606
  55   2.0000      -0.448877       -12.2146
  56   2.0000      -0.446454       -12.1486
  57   2.0000      -0.440128       -11.9765
  58   2.0000      -0.432427       -11.7669
  59   2.0000      -0.424660       -11.5556
  60   2.0000      -0.419420       -11.4130
  61   2.0000      -0.409446       -11.1416
  62   2.0000      -0.407164       -11.0795
  63   2.0000      -0.337259        -9.1773
  64   2.0000      -0.329514        -8.9665
  65   2.0000      -0.324535        -8.8310
  66   2.0000      -0.312377        -8.5002
  67   0.0000       0.045045         1.2257
  68   0.0000       0.054960         1.4955
  69   0.0000       0.112727         3.0675
  70   0.0000       0.116846         3.1796
  71   0.0000       0.132284         3.5996

MULLIKEN ATOMIC CHARGES
-----------------------
   0 S :    0.092557
   1 C :   -0.131998
   2 C :   -0.070537
   3 C :    0.074258
   4 C :   -0.170046
   5 H :   -0.002481
   6 C :    0.033523
   7 H :    0.014971
   8 H :    0.027679
   9 C :   -0.016465
  10 H :    0.016297
  11 H :    0.025567
  12 C :   -0.073620
  13 H :    0.038021
  14 H :    0.041385
  15 H :    0.032478
  16 S :    0.127083
  17 C :   -0.106935
  18 C :   -0.025426
  19 C :   -0.034368
  20 C :   -0.166006
  21 H :    0.011097
  22 C :    0.066038
  23 H :    0.019405
  24 H :    0.008175
  25 C :   -0.078867
  26 H :    0.032322
  27 H :    0.013836
  28 C :   -0.001025
  29 H :    0.042328
  30 H :    0.005190
  31 H :    0.022825
  32 H :    0.055225
  33 H :    0.077512
Sum of atomic charges:    0.0000000

LOEWDIN ATOMIC CHARGES
----------------------
   0 S :    0.380759
   1 C :   -0.182730
   2 C :   -0.066499
   3 C :   -0.054013
   4 C :   -0.187529
   5 H :    0.028141
   6 C :   -0.036674
   7 H :    0.031952
   8 H :    0.033236
   9 C :   -0.034719
  10 H :    0.019551
  11 H :    0.027266
  12 C :   -0.068484
  13 H :    0.031201
  14 H :    0.025072
  15 H :    0.022424
  16 S :    0.422630
  17 C :   -0.200474
  18 C :   -0.062906
  19 C :   -0.051321
  20 C :   -0.220154
  21 H :    0.026773
  22 C :   -0.037330
  23 H :    0.030390
  24 H :    0.026477
  25 C :   -0.042224
  26 H :    0.025439
  27 H :    0.020672
  28 C :   -0.057566
  29 H :    0.031267
  30 H :    0.010847
  31 H :    0.030643
  32 H :    0.033614
  33 H :    0.044270

  Mayer bond orders larger than 0.100000
B(  0-S ,  1-C ) :   1.1136 B(  0-S ,  4-C ) :   1.1443 B(  1-C ,  2-C ) :   1.6617
B(  1-C , 32-H ) :   0.9685 B(  2-C ,  3-C ) :   1.1990 B(  2-C ,  6-C ) :   1.0075
B(  3-C ,  4-C ) :   1.6384 B(  3-C ,  5-H ) :   1.0033 B(  4-C , 20-C ) :   0.9792
B(  6-C ,  7-H ) :   0.9391 B(  6-C ,  8-H ) :   0.9496 B(  6-C ,  9-C ) :   1.0603
B(  9-C , 10-H ) :   0.9539 B(  9-C , 11-H ) :   0.9557 B(  9-C , 12-C ) :   1.0748
B( 12-C , 13-H ) :   0.9756 B( 12-C , 14-H ) :   0.9793 B( 12-C , 15-H ) :   0.9783
B( 16-S , 17-C ) :   1.1660 B( 16-S , 20-C ) :   1.1543 B( 17-C , 18-C ) :   1.5838
B( 17-C , 33-H ) :   0.9549 B( 18-C , 19-C ) :   1.2744 B( 18-C , 21-H ) :   0.9912
B( 19-C , 20-C ) :   1.5769 B( 19-C , 22-C ) :   1.0607 B( 22-C , 23-H ) :   0.9252
B( 22-C , 24-H ) :   0.9348 B( 22-C , 25-C ) :   1.0519 B( 25-C , 26-H ) :   0.9624
B( 25-C , 27-H ) :   0.9534 B( 25-C , 28-C ) :   1.0777 B( 28-C , 29-H ) :   0.9785
B( 28-C , 30-H ) :   0.9752 B( 28-C , 31-H ) :   0.9706

Dispersion correction           -0.014248600
FINAL SINGLE POINT ENERGY     -1339.871562406920

DIPOLE MOMENT
-------------
                                X             Y             Z
Electronic contribution:     -6.73168      28.55688       1.85372
Nuclear contribution   :      6.70752     -29.14629      -1.74655
                        -----------------------------------------
Total Dipole Moment    :     -0.02417      -0.58941       0.10717
                        -----------------------------------------
Magnitude (a.u.)       :      0.59956
Magnitude (Debye)      :      1.52396

Rotational constants in cm-1:     0.017880     0.008687     0.006742
Rotational constants in MHz :   536.027945   260.423134   202.128610

                             ****ORCA TERMINATED NORMALLY****
TOTAL RUN TIME: 0 days 0 hours 0 minutes 33 seconds 883 msec
