                         Program Version 4.2.1 -  RELEASE  -
|  1> ! wB97X-D3 SP def2-SVP
|  2> %pal
|  3> nprocs 16
|  4> end
|  5>
|  6> * xyz 0 1
|  7> S 	 0.438537 	 -20.5601 	 60.0421
|  8> C 	 0.353427 	 -20.8393 	 58.267
|  9> C 	 -0.915826 	 -21.1849 	 57.9223
| 10> C 	 -1.87797 	 -20.7932 	 58.922
| 11> C 	 -1.30741 	 -20.4293 	 60.1398
| 12> H 	 -2.93591 	 -20.95 	 58.7691
| 13> C 	 -1.372 	 -21.613 	 56.5479
| 14> H 	 -0.722868 	 -21.0967 	 55.8504
| 15> H 	 -2.338 	 -21.2278 	 56.2832
| 16> C 	 -1.30271 	 -23.0864 	 56.2458
| 17> H 	 -1.6627 	 -23.4329 	 55.2214
| 18> H 	 -0.263015 	 -23.3997 	 56.3256
| 19> C 	 -2.05513 	 -24.1136 	 57.0634
| 20> H 	 -2.99334 	 -23.7668 	 57.4528
| 21> H 	 -2.3427 	 -25.0771 	 56.5617
| 22> H 	 -1.45291 	 -24.4211 	 57.9828
| 23> S 	 -1.48355 	 -21.1784 	 62.75
| 24> C 	 -2.64156 	 -20.3485 	 63.7706
| 25> C 	 -3.44243 	 -19.4955 	 63.0989
| 26> C 	 -3.11259 	 -19.4541 	 61.7219
| 27> C 	 -2.01614 	 -20.1948 	 61.4028
| 28> H 	 -4.24053 	 -19.0529 	 63.6051
| 29> C 	 -4.08352 	 -18.6428 	 60.8669
| 30> H 	 -4.92798 	 -18.1975 	 61.4612
| 31> H 	 -4.63009 	 -19.3844 	 60.2233
| 32> C 	 -3.43091 	 -17.556 	 59.9992
| 33> H 	 -2.67768 	 -17.9701 	 59.2783
| 34> H 	 -2.84533 	 -16.7747 	 60.5587
| 35> C 	 -4.42769 	 -16.8198 	 59.1164
| 36> H 	 -5.15406 	 -16.3969 	 59.7983
| 37> H 	 -4.75807 	 -17.4276 	 58.2844
| 38> H 	 -3.83444 	 -15.9613 	 58.6536
| 39> H 	 1.21833 	 -20.855 	 57.5945
| 40> H 	 -2.79535 	 -20.594 	 64.8136
| 41> *
| 42>
| 43>                          ****END OF INPUT****

CARTESIAN COORDINATES (ANGSTROEM)
---------------------------------
  S      0.438537  -20.560100   60.042100
  C      0.353427  -20.839300   58.267000
  C     -0.915826  -21.184900   57.922300
  C     -1.877970  -20.793200   58.922000
  C     -1.307410  -20.429300   60.139800
  H     -2.935910  -20.950000   58.769100
  C     -1.372000  -21.613000   56.547900
  H     -0.722868  -21.096700   55.850400
  H     -2.338000  -21.227800   56.283200
  C     -1.302710  -23.086400   56.245800
  H     -1.662700  -23.432900   55.221400
  H     -0.263015  -23.399700   56.325600
  C     -2.055130  -24.113600   57.063400
  H     -2.993340  -23.766800   57.452800
  H     -2.342700  -25.077100   56.561700
  H     -1.452910  -24.421100   57.982800
  S     -1.483550  -21.178400   62.750000
  C     -2.641560  -20.348500   63.770600
  C     -3.442430  -19.495500   63.098900
  C     -3.112590  -19.454100   61.721900
  C     -2.016140  -20.194800   61.402800
  H     -4.240530  -19.052900   63.605100
  C     -4.083520  -18.642800   60.866900
  H     -4.927980  -18.197500   61.461200
  H     -4.630090  -19.384400   60.223300
  C     -3.430910  -17.556000   59.999200
  H     -2.677680  -17.970100   59.278300
  H     -2.845330  -16.774700   60.558700
  C     -4.427690  -16.819800   59.116400
  H     -5.154060  -16.396900   59.798300
  H     -4.758070  -17.427600   58.284400
  H     -3.834440  -15.961300   58.653600
  H      1.218330  -20.855000   57.594500
  H     -2.795350  -20.594000   64.813600

 Total Charge           Charge          ....    0
 Multiplicity           Mult            ....    1
 Number of Electrons    NEL             ....  134
 Basis Dimension        Dim             ....  322

ORBITAL ENERGIES
----------------

  NO   OCC          E(Eh)            E(eV)
   0   2.0000     -88.966936     -2420.9134
   1   2.0000     -88.964985     -2420.8603
   2   2.0000     -10.333554      -281.1903
   3   2.0000     -10.325503      -280.9712
   4   2.0000     -10.319161      -280.7986
   5   2.0000     -10.311549      -280.5915
   6   2.0000     -10.302309      -280.3401
   7   2.0000     -10.300228      -280.2835
   8   2.0000     -10.300077      -280.2794
   9   2.0000     -10.294897      -280.1384
  10   2.0000     -10.291984      -280.0591
  11   2.0000     -10.288360      -279.9605
  12   2.0000     -10.285070      -279.8710
  13   2.0000     -10.283676      -279.8330
  14   2.0000     -10.278346      -279.6880
  15   2.0000     -10.277455      -279.6638
  16   2.0000      -8.080936      -219.8935
  17   2.0000      -8.079999      -219.8679
  18   2.0000      -6.039650      -164.3472
  19   2.0000      -6.038558      -164.3175
  20   2.0000      -6.035695      -164.2396
  21   2.0000      -6.034592      -164.2096
  22   2.0000      -6.031361      -164.1217
  23   2.0000      -6.030568      -164.1001
  24   2.0000      -1.009080       -27.4585
  25   2.0000      -0.985897       -26.8276
  26   2.0000      -0.915279       -24.9060
  27   2.0000      -0.905133       -24.6299
  28   2.0000      -0.871897       -23.7255
  29   2.0000      -0.852702       -23.2032
  30   2.0000      -0.844448       -22.9786
  31   2.0000      -0.815895       -22.2016
  32   2.0000      -0.786258       -21.3952
  33   2.0000      -0.772349       -21.0167
  34   2.0000      -0.705246       -19.1907
  35   2.0000      -0.695085       -18.9142
  36   2.0000      -0.684677       -18.6310
  37   2.0000      -0.664469       -18.0811
  38   2.0000      -0.637268       -17.3410
  39   2.0000      -0.618500       -16.8302
  40   2.0000      -0.596563       -16.2333
  41   2.0000      -0.577614       -15.7177
  42   2.0000      -0.565667       -15.3926
  43   2.0000      -0.550801       -14.9881
  44   2.0000      -0.546405       -14.8684
  45   2.0000      -0.523656       -14.2494
  46   2.0000      -0.512213       -13.9380
  47   2.0000      -0.509579       -13.8663
  48   2.0000      -0.503898       -13.7118
  49   2.0000      -0.496872       -13.5206
  50   2.0000      -0.494692       -13.4612
  51   2.0000      -0.485244       -13.2041
  52   2.0000      -0.475110       -12.9284
  53   2.0000      -0.466059       -12.6821
  54   2.0000      -0.459337       -12.4992
  55   2.0000      -0.446993       -12.1633
  56   2.0000      -0.444008       -12.0821
  57   2.0000      -0.431469       -11.7409
  58   2.0000      -0.426843       -11.6150
  59   2.0000      -0.417538       -11.3618
  60   2.0000      -0.414378       -11.2758
  61   2.0000      -0.409848       -11.1525
  62   2.0000      -0.402203       -10.9445
  63   2.0000      -0.350992        -9.5510
  64   2.0000      -0.333360        -9.0712
  65   2.0000      -0.330100        -8.9825
  66   2.0000      -0.290979        -7.9179
  67   0.0000       0.029397         0.7999
  68   0.0000       0.064688         1.7602
  69   0.0000       0.102982         2.8023
  70   0.0000       0.117721         3.2034
  71   0.0000       0.125586         3.4174

MULLIKEN ATOMIC CHARGES
-----------------------
   0 S :    0.100498
   1 C :   -0.130690
   2 C :   -0.080768
   3 C :    0.026658
   4 C :   -0.130742
   5 H :    0.011310
   6 C :    0.109504
   7 H :    0.021822
   8 H :    0.013398
   9 C :   -0.085810
  10 H :    0.038410
  11 H :    0.025140
  12 C :   -0.086533
  13 H :    0.013779
  14 H :    0.039038
  15 H :    0.040165
  16 S :    0.103434
  17 C :   -0.085432
  18 C :   -0.018118
  19 C :   -0.002795
  20 C :   -0.152579
  21 H :   -0.003504
  22 C :    0.052826
  23 H :    0.023058
  24 H :    0.036271
  25 C :   -0.129903
  26 H :    0.045166
  27 H :    0.038867
  28 C :   -0.044069
  29 H :    0.029961
  30 H :    0.037726
  31 H :    0.036095
  32 H :    0.057540
  33 H :    0.050278
Sum of atomic charges:    0.0000000

LOEWDIN ATOMIC CHARGES
----------------------
   0 S :    0.382864
   1 C :   -0.179777
   2 C :   -0.060988
   3 C :   -0.062778
   4 C :   -0.186455
   5 H :    0.028392
   6 C :   -0.029434
   7 H :    0.036629
   8 H :    0.026386
   9 C :   -0.054092
  10 H :    0.035585
  11 H :    0.024370
  12 C :   -0.079501
  13 H :    0.015367
  14 H :    0.031719
  15 H :    0.030982
  16 S :    0.399713
  17 C :   -0.174702
  18 C :   -0.064758
  19 C :   -0.056333
  20 C :   -0.195129
  21 H :    0.025523
  22 C :   -0.035021
  23 H :    0.032266
  24 H :    0.035841
  25 C :   -0.055683
  26 H :    0.028885
  27 H :    0.029121
  28 C :   -0.067175
  29 H :    0.020849
  30 H :    0.022552
  31 H :    0.034831
  32 H :    0.032995
  33 H :    0.026955

  Mayer bond orders larger than 0.100000
B(  0-S ,  1-C ) :   1.1153 B(  0-S ,  4-C ) :   1.1449 B(  1-C ,  2-C ) :   1.6327
B(  1-C , 32-H ) :   0.9674 B(  2-C ,  3-C ) :   1.2265 B(  2-C ,  6-C ) :   1.0147
B(  3-C ,  4-C ) :   1.5661 B(  3-C ,  5-H ) :   0.9947 B(  4-C , 20-C ) :   1.0379
B(  6-C ,  7-H ) :   0.9380 B(  6-C ,  8-H ) :   0.9448 B(  6-C ,  9-C ) :   1.0710
B(  9-C , 10-H ) :   0.9613 B(  9-C , 11-H ) :   0.9589 B(  9-C , 12-C ) :   1.0648
B( 12-C , 13-H ) :   0.9749 B( 12-C , 14-H ) :   0.9786 B( 12-C , 15-H ) :   0.9743
B( 16-S , 17-C ) :   1.1428 B( 16-S , 20-C ) :   1.1339 B( 17-C , 18-C ) :   1.6392
B( 17-C , 33-H ) :   0.9636 B( 18-C , 19-C ) :   1.2173 B( 18-C , 21-H ) :   1.0038
B( 19-C , 20-C ) :   1.6410 B( 19-C , 22-C ) :   1.0265 B( 22-C , 23-H ) :   0.9416
B( 22-C , 24-H ) :   0.9303 B( 22-C , 25-C ) :   1.0566 B( 25-C , 26-H ) :   0.9519
B( 25-C , 27-H ) :   0.9586 B( 25-C , 28-C ) :   1.0876 B( 28-C , 29-H ) :   0.9738
B( 28-C , 30-H ) :   0.9760 B( 28-C , 31-H ) :   0.9745

Dispersion correction           -0.014337489
FINAL SINGLE POINT ENERGY     -1339.865604559100

DIPOLE MOMENT
-------------
                                X             Y             Z
Electronic contribution:     14.62089      -2.25902      20.26553
Nuclear contribution   :    -15.14628       2.27507     -20.65377
                        -----------------------------------------
Total Dipole Moment    :     -0.52539       0.01606      -0.38824
                        -----------------------------------------
Magnitude (a.u.)       :      0.65347
Magnitude (Debye)      :      1.66099

Rotational constants in cm-1:     0.017216     0.009064     0.007376
Rotational constants in MHz :   516.110564   271.727767   221.126569

                             ****ORCA TERMINATED NORMALLY****
TOTAL RUN TIME: 0 days 0 hours 0 minutes 35 seconds 519 msec
