                         Program Version 4.2.1 -  RELEASE  -
|  1> ! wB97X-D3 SP def2-SVP
|  2> %pal
|  3> nprocs 16
|  4> end
|  5>
|  6> * xyz 0 1
|  7> S 	 -42.3554 	 26.3689 	 84.1819
|  8> C 	 -42.8858 	 24.9744 	 85.0736
|  9> C 	 -43.4324 	 23.9635 	 84.3175
| 10> C 	 -43.4752 	 24.3881 	 82.9522
| 11> C 	 -42.9576 	 25.6365 	 82.717
| 12> H 	 -43.9198 	 23.7796 	 82.1627
| 13> C 	 -44.0576 	 22.695 	 84.825
| 14> H 	 -44.9219 	 22.555 	 84.1524
| 15> H 	 -44.2399 	 22.9685 	 85.8218
| 16> C 	 -43.1072 	 21.4788 	 84.8597
| 17> H 	 -43.7318 	 20.6154 	 85.0239
| 18> H 	 -42.7024 	 21.4168 	 83.8521
| 19> C 	 -41.9962 	 21.6428 	 85.8295
| 20> H 	 -41.2484 	 20.8261 	 85.7824
| 21> H 	 -41.4931 	 22.5918 	 85.7406
| 22> H 	 -42.328 	 21.6654 	 86.8818
| 23> S 	 -43.2759 	 28.2035 	 81.6198
| 24> C 	 -43.0469 	 28.3499 	 79.9168
| 25> C 	 -42.8128 	 27.2043 	 79.2135
| 26> C 	 -42.7104 	 26.0431 	 80.0804
| 27> C 	 -42.9879 	 26.3692 	 81.413
| 28> H 	 -42.6698 	 27.1905 	 78.1236
| 29> C 	 -42.5144 	 24.5636 	 79.576
| 30> H 	 -41.951 	 24.1063 	 80.2885
| 31> H 	 -41.7832 	 24.5745 	 78.7063
| 32> C 	 -43.8949 	 23.853 	 79.3277
| 33> H 	 -44.5136 	 23.7454 	 80.2211
| 34> H 	 -43.7493 	 22.7753 	 79.0628
| 35> C 	 -44.7677 	 24.702 	 78.3309
| 36> H 	 -45.5514 	 23.968 	 77.9063
| 37> H 	 -44.1616 	 25.007 	 77.5535
| 38> H 	 -45.1984 	 25.522 	 78.8283
| 39> H 	 -42.929 	 24.7886 	 86.0802
| 40> H 	 -43.3768 	 29.2545 	 79.3538
| 41> *
| 42>
| 43>                          ****END OF INPUT****

CARTESIAN COORDINATES (ANGSTROEM)
---------------------------------
  S    -42.355400   26.368900   84.181900
  C    -42.885800   24.974400   85.073600
  C    -43.432400   23.963500   84.317500
  C    -43.475200   24.388100   82.952200
  C    -42.957600   25.636500   82.717000
  H    -43.919800   23.779600   82.162700
  C    -44.057600   22.695000   84.825000
  H    -44.921900   22.555000   84.152400
  H    -44.239900   22.968500   85.821800
  C    -43.107200   21.478800   84.859700
  H    -43.731800   20.615400   85.023900
  H    -42.702400   21.416800   83.852100
  C    -41.996200   21.642800   85.829500
  H    -41.248400   20.826100   85.782400
  H    -41.493100   22.591800   85.740600
  H    -42.328000   21.665400   86.881800
  S    -43.275900   28.203500   81.619800
  C    -43.046900   28.349900   79.916800
  C    -42.812800   27.204300   79.213500
  C    -42.710400   26.043100   80.080400
  C    -42.987900   26.369200   81.413000
  H    -42.669800   27.190500   78.123600
  C    -42.514400   24.563600   79.576000
  H    -41.951000   24.106300   80.288500
  H    -41.783200   24.574500   78.706300
  C    -43.894900   23.853000   79.327700
  H    -44.513600   23.745400   80.221100
  H    -43.749300   22.775300   79.062800
  C    -44.767700   24.702000   78.330900
  H    -45.551400   23.968000   77.906300
  H    -44.161600   25.007000   77.553500
  H    -45.198400   25.522000   78.828300
  H    -42.929000   24.788600   86.080200
  H    -43.376800   29.254500   79.353800

 Total Charge           Charge          ....    0
 Multiplicity           Mult            ....    1
 Number of Electrons    NEL             ....  134
 Basis Dimension        Dim             ....  322

ORBITAL ENERGIES
----------------

  NO   OCC          E(Eh)            E(eV)
   0   2.0000     -88.970880     -2421.0207
   1   2.0000     -88.965674     -2420.8791
   2   2.0000     -10.338979      -281.3379
   3   2.0000     -10.330576      -281.1093
   4   2.0000     -10.317225      -280.7460
   5   2.0000     -10.313871      -280.6547
   6   2.0000     -10.303499      -280.3725
   7   2.0000     -10.299587      -280.2660
   8   2.0000     -10.297839      -280.2184
   9   2.0000     -10.297571      -280.2111
  10   2.0000     -10.294353      -280.1236
  11   2.0000     -10.290234      -280.0115
  12   2.0000     -10.289823      -280.0003
  13   2.0000     -10.284787      -279.8633
  14   2.0000     -10.276546      -279.6390
  15   2.0000     -10.276330      -279.6332
  16   2.0000      -8.085465      -220.0167
  17   2.0000      -8.079528      -219.8551
  18   2.0000      -6.044099      -164.4683
  19   2.0000      -6.040105      -164.3596
  20   2.0000      -6.038022      -164.3029
  21   2.0000      -6.035987      -164.2475
  22   2.0000      -6.034452      -164.2058
  23   2.0000      -6.030054      -164.0861
  24   2.0000      -1.003469       -27.3058
  25   2.0000      -0.979077       -26.6420
  26   2.0000      -0.921077       -25.0638
  27   2.0000      -0.902278       -24.5522
  28   2.0000      -0.865316       -23.5465
  29   2.0000      -0.851535       -23.1715
  30   2.0000      -0.841721       -22.9044
  31   2.0000      -0.813232       -22.1292
  32   2.0000      -0.787982       -21.4421
  33   2.0000      -0.776681       -21.1346
  34   2.0000      -0.711765       -19.3681
  35   2.0000      -0.703590       -19.1456
  36   2.0000      -0.693437       -18.8694
  37   2.0000      -0.655942       -17.8491
  38   2.0000      -0.636527       -17.3208
  39   2.0000      -0.620555       -16.8862
  40   2.0000      -0.589021       -16.0281
  41   2.0000      -0.569489       -15.4966
  42   2.0000      -0.558224       -15.1901
  43   2.0000      -0.548954       -14.9378
  44   2.0000      -0.547455       -14.8970
  45   2.0000      -0.543394       -14.7865
  46   2.0000      -0.520391       -14.1606
  47   2.0000      -0.508754       -13.8439
  48   2.0000      -0.496718       -13.5164
  49   2.0000      -0.486783       -13.2460
  50   2.0000      -0.484973       -13.1968
  51   2.0000      -0.481532       -13.1031
  52   2.0000      -0.474391       -12.9088
  53   2.0000      -0.463611       -12.6155
  54   2.0000      -0.455224       -12.3873
  55   2.0000      -0.451018       -12.2728
  56   2.0000      -0.447544       -12.1783
  57   2.0000      -0.440740       -11.9931
  58   2.0000      -0.434823       -11.8321
  59   2.0000      -0.428961       -11.6726
  60   2.0000      -0.425468       -11.5776
  61   2.0000      -0.418253       -11.3812
  62   2.0000      -0.409919       -11.1545
  63   2.0000      -0.352011        -9.5787
  64   2.0000      -0.335096        -9.1184
  65   2.0000      -0.331522        -9.0212
  66   2.0000      -0.287142        -7.8135
  67   0.0000       0.026964         0.7337
  68   0.0000       0.067980         1.8498
  69   0.0000       0.099650         2.7116
  70   0.0000       0.120781         3.2866
  71   0.0000       0.131474         3.5776

MULLIKEN ATOMIC CHARGES
-----------------------
   0 S :    0.128088
   1 C :   -0.065675
   2 C :   -0.149704
   3 C :    0.005247
   4 C :   -0.104063
   5 H :   -0.012956
   6 C :    0.094499
   7 H :    0.037746
   8 H :    0.000299
   9 C :   -0.013890
  10 H :    0.031355
  11 H :    0.019785
  12 C :   -0.066194
  13 H :    0.040967
  14 H :    0.033206
  15 H :    0.020099
  16 S :    0.078845
  17 C :   -0.084072
  18 C :   -0.047641
  19 C :   -0.079037
  20 C :   -0.158594
  21 H :    0.031263
  22 C :    0.098914
  23 H :    0.004198
  24 H :    0.038180
  25 C :   -0.106218
  26 H :    0.042127
  27 H :    0.038989
  28 C :   -0.033275
  29 H :    0.043089
  30 H :    0.013725
  31 H :    0.053491
  32 H :   -0.003894
  33 H :    0.071099
Sum of atomic charges:    0.0000000

LOEWDIN ATOMIC CHARGES
----------------------
   0 S :    0.413616
   1 C :   -0.197251
   2 C :   -0.059382
   3 C :   -0.070118
   4 C :   -0.194811
   5 H :    0.026329
   6 C :   -0.022805
   7 H :    0.038206
   8 H :    0.022428
   9 C :   -0.035530
  10 H :    0.023967
  11 H :    0.024117
  12 C :   -0.070943
  13 H :    0.031647
  14 H :    0.025361
  15 H :    0.024684
  16 S :    0.357772
  17 C :   -0.194919
  18 C :   -0.079078
  19 C :   -0.047638
  20 C :   -0.153859
  21 H :    0.036376
  22 C :   -0.024433
  23 H :    0.014703
  24 H :    0.039374
  25 C :   -0.040499
  26 H :    0.021465
  27 H :    0.027371
  28 C :   -0.053751
  29 H :    0.038265
  30 H :    0.009445
  31 H :    0.024083
  32 H :    0.008301
  33 H :    0.037504

  Mayer bond orders larger than 0.100000
B(  0-S ,  1-C ) :   1.1252 B(  0-S ,  4-C ) :   1.1390 B(  1-C ,  2-C ) :   1.6366
B(  1-C , 32-H ) :   0.9565 B(  2-C ,  3-C ) :   1.2449 B(  2-C ,  6-C ) :   1.0084
B(  3-C ,  4-C ) :   1.5832 B(  3-C ,  5-H ) :   0.9881 B(  4-C , 20-C ) :   1.0387
B(  6-C ,  7-H ) :   0.9398 B(  6-C ,  8-H ) :   0.9322 B(  6-C ,  9-C ) :   1.0664
B(  9-C , 10-H ) :   0.9554 B(  9-C , 11-H ) :   0.9525 B(  9-C , 12-C ) :   1.0814
B( 12-C , 13-H ) :   0.9709 B( 12-C , 14-H ) :   0.9703 B( 12-C , 15-H ) :   0.9714
B( 16-S , 17-C ) :   1.1456 B( 16-S , 20-C ) :   1.1084 B( 17-C , 18-C ) :   1.6571
B( 17-C , 33-H ) :   0.9503 B( 18-C , 19-C ) :   1.2037 B( 18-C , 21-H ) :   0.9825
B( 19-C , 20-C ) :   1.6352 B( 19-C , 22-C ) :   1.0283 B( 22-C , 23-H ) :   0.9292
B( 22-C , 24-H ) :   0.9434 B( 22-C , 25-C ) :   1.0556 B( 25-C , 26-H ) :   0.9520
B( 25-C , 27-H ) :   0.9611 B( 25-C , 28-C ) :   1.0633 B( 28-C , 29-H ) :   0.9724
B( 28-C , 30-H ) :   0.9815 B( 28-C , 31-H ) :   0.9733

Dispersion correction           -0.015123118
FINAL SINGLE POINT ENERGY     -1339.859659142759

DIPOLE MOMENT
-------------
                                X             Y             Z
Electronic contribution:      4.08244      25.71161       4.39019
Nuclear contribution   :     -4.29961     -26.36031      -4.68200
                        -----------------------------------------
Total Dipole Moment    :     -0.21716      -0.64869      -0.29180
                        -----------------------------------------
Magnitude (a.u.)       :      0.74372
Magnitude (Debye)      :      1.89038

Rotational constants in cm-1:     0.021163     0.008707     0.006630
Rotational constants in MHz :   634.445978   261.040638   198.771291

                             ****ORCA TERMINATED NORMALLY****
TOTAL RUN TIME: 0 days 0 hours 0 minutes 31 seconds 319 msec
