                         Program Version 4.2.1 -  RELEASE  -
|  1> ! wB97X-D3 SP def2-SVP
|  2> %pal
|  3> nprocs 16
|  4> end
|  5>
|  6> * xyz 0 1
|  7> S 	 54.9503 	 19.5734 	 46.6096
|  8> C 	 53.4111 	 20.2401 	 46.288
|  9> C 	 52.8169 	 19.5847 	 45.2251
| 10> C 	 53.502 	 18.3877 	 44.8237
| 11> C 	 54.646 	 18.1643 	 45.5587
| 12> H 	 53.1129 	 17.6957 	 44.1103
| 13> C 	 51.4749 	 19.96 	 44.6617
| 14> H 	 51.7643 	 20.5938 	 43.8101
| 15> H 	 50.988 	 20.6628 	 45.3488
| 16> C 	 50.4923 	 18.7693 	 44.5708
| 17> H 	 49.5717 	 19.2077 	 44.4258
| 18> H 	 50.7394 	 18.1888 	 43.6333
| 19> C 	 50.4395 	 17.966 	 45.8791
| 20> H 	 49.6977 	 17.1734 	 45.7756
| 21> H 	 51.3891 	 17.5926 	 46.1036
| 22> H 	 50.1818 	 18.4924 	 46.7598
| 23> S 	 57.2038 	 17.1595 	 45.8948
| 24> C 	 57.5879 	 15.4864 	 45.6144
| 25> C 	 56.449 	 14.8648 	 45.1072
| 26> C 	 55.2912 	 15.7346 	 45.0519
| 27> C 	 55.52 	 17.0435 	 45.4828
| 28> H 	 56.408 	 13.8632 	 44.817
| 29> C 	 53.9955 	 15.1328 	 44.6064
| 30> H 	 53.182 	 15.8213 	 44.9517
| 31> H 	 53.926 	 14.1732 	 45.0658
| 32> C 	 53.7576 	 15.1089 	 43.1067
| 33> H 	 54.3915 	 14.4125 	 42.5245
| 34> H 	 53.9113 	 16.1198 	 42.624
| 35> C 	 52.2675 	 14.6622 	 42.8132
| 36> H 	 52.1969 	 13.6487 	 43.1781
| 37> H 	 52.0249 	 14.7435 	 41.7498
| 38> H 	 51.5003 	 15.2439 	 43.4053
| 39> H 	 52.9112 	 20.9636 	 46.7957
| 40> H 	 58.5992 	 15.079 	 45.7465
| 41> *
| 42>
| 43>                          ****END OF INPUT****

CARTESIAN COORDINATES (ANGSTROEM)
---------------------------------
  S     54.950300   19.573400   46.609600
  C     53.411100   20.240100   46.288000
  C     52.816900   19.584700   45.225100
  C     53.502000   18.387700   44.823700
  C     54.646000   18.164300   45.558700
  H     53.112900   17.695700   44.110300
  C     51.474900   19.960000   44.661700
  H     51.764300   20.593800   43.810100
  H     50.988000   20.662800   45.348800
  C     50.492300   18.769300   44.570800
  H     49.571700   19.207700   44.425800
  H     50.739400   18.188800   43.633300
  C     50.439500   17.966000   45.879100
  H     49.697700   17.173400   45.775600
  H     51.389100   17.592600   46.103600
  H     50.181800   18.492400   46.759800
  S     57.203800   17.159500   45.894800
  C     57.587900   15.486400   45.614400
  C     56.449000   14.864800   45.107200
  C     55.291200   15.734600   45.051900
  C     55.520000   17.043500   45.482800
  H     56.408000   13.863200   44.817000
  C     53.995500   15.132800   44.606400
  H     53.182000   15.821300   44.951700
  H     53.926000   14.173200   45.065800
  C     53.757600   15.108900   43.106700
  H     54.391500   14.412500   42.524500
  H     53.911300   16.119800   42.624000
  C     52.267500   14.662200   42.813200
  H     52.196900   13.648700   43.178100
  H     52.024900   14.743500   41.749800
  H     51.500300   15.243900   43.405300
  H     52.911200   20.963600   46.795700
  H     58.599200   15.079000   45.746500

 Total Charge           Charge          ....    0
 Multiplicity           Mult            ....    1
 Number of Electrons    NEL             ....  134
 Basis Dimension        Dim             ....  322

ORBITAL ENERGIES
----------------

  NO   OCC          E(Eh)            E(eV)
   0   2.0000     -88.964987     -2420.8604
   1   2.0000     -88.962714     -2420.7985
   2   2.0000     -10.333305      -281.1835
   3   2.0000     -10.327082      -281.0142
   4   2.0000     -10.322533      -280.8904
   5   2.0000     -10.303336      -280.3680
   6   2.0000     -10.301561      -280.3197
   7   2.0000     -10.296777      -280.1895
   8   2.0000     -10.296208      -280.1741
   9   2.0000     -10.293885      -280.1109
  10   2.0000     -10.293115      -280.0899
  11   2.0000     -10.290919      -280.0301
  12   2.0000     -10.290912      -280.0299
  13   2.0000     -10.289477      -279.9909
  14   2.0000     -10.285134      -279.8727
  15   2.0000     -10.270967      -279.4872
  16   2.0000      -8.079888      -219.8649
  17   2.0000      -8.077985      -219.8132
  18   2.0000      -6.038556      -164.3175
  19   2.0000      -6.036618      -164.2647
  20   2.0000      -6.034397      -164.2043
  21   2.0000      -6.032243      -164.1457
  22   2.0000      -6.030448      -164.0968
  23   2.0000      -6.028756      -164.0508
  24   2.0000      -1.010121       -27.4868
  25   2.0000      -0.986938       -26.8560
  26   2.0000      -0.915808       -24.9204
  27   2.0000      -0.911680       -24.8081
  28   2.0000      -0.877226       -23.8705
  29   2.0000      -0.849908       -23.1272
  30   2.0000      -0.842877       -22.9358
  31   2.0000      -0.820057       -22.3149
  32   2.0000      -0.783034       -21.3074
  33   2.0000      -0.771389       -20.9906
  34   2.0000      -0.715445       -19.4682
  35   2.0000      -0.703901       -19.1541
  36   2.0000      -0.695359       -18.9217
  37   2.0000      -0.669129       -18.2079
  38   2.0000      -0.641405       -17.4535
  39   2.0000      -0.628780       -17.1100
  40   2.0000      -0.597947       -16.2710
  41   2.0000      -0.572074       -15.5669
  42   2.0000      -0.564866       -15.3708
  43   2.0000      -0.560099       -15.2411
  44   2.0000      -0.544639       -14.8204
  45   2.0000      -0.527948       -14.3662
  46   2.0000      -0.519158       -14.1270
  47   2.0000      -0.515655       -14.0317
  48   2.0000      -0.507457       -13.8086
  49   2.0000      -0.504073       -13.7165
  50   2.0000      -0.496160       -13.5012
  51   2.0000      -0.486790       -13.2462
  52   2.0000      -0.470518       -12.8035
  53   2.0000      -0.464828       -12.6486
  54   2.0000      -0.460118       -12.5204
  55   2.0000      -0.453101       -12.3295
  56   2.0000      -0.447560       -12.1787
  57   2.0000      -0.445895       -12.1334
  58   2.0000      -0.431741       -11.7483
  59   2.0000      -0.423514       -11.5244
  60   2.0000      -0.417855       -11.3704
  61   2.0000      -0.413081       -11.2405
  62   2.0000      -0.405075       -11.0227
  63   2.0000      -0.365546        -9.9470
  64   2.0000      -0.330465        -8.9924
  65   2.0000      -0.324160        -8.8208
  66   2.0000      -0.281552        -7.6614
  67   0.0000       0.019828         0.5395
  68   0.0000       0.082333         2.2404
  69   0.0000       0.107971         2.9380
  70   0.0000       0.120971         3.2918
  71   0.0000       0.124679         3.3927

MULLIKEN ATOMIC CHARGES
-----------------------
   0 S :    0.112675
   1 C :   -0.060959
   2 C :   -0.140879
   3 C :    0.014463
   4 C :   -0.118788
   5 H :   -0.015840
   6 C :    0.057875
   7 H :    0.051916
   8 H :    0.007922
   9 C :   -0.061668
  10 H :    0.013737
  11 H :    0.044400
  12 C :   -0.011300
  13 H :    0.035115
  14 H :    0.033186
  15 H :    0.016312
  16 S :    0.091859
  17 C :   -0.095225
  18 C :    0.003786
  19 C :   -0.078759
  20 C :   -0.093380
  21 H :   -0.004857
  22 C :    0.058124
  23 H :    0.018021
  24 H :    0.025452
  25 C :   -0.104962
  26 H :    0.032394
  27 H :    0.045494
  28 C :   -0.062369
  29 H :    0.028174
  30 H :    0.045046
  31 H :    0.034123
  32 H :    0.003510
  33 H :    0.075405
Sum of atomic charges:   -0.0000000

LOEWDIN ATOMIC CHARGES
----------------------
   0 S :    0.403323
   1 C :   -0.197475
   2 C :   -0.061222
   3 C :   -0.060985
   4 C :   -0.171051
   5 H :    0.024810
   6 C :   -0.039359
   7 H :    0.040346
   8 H :    0.027385
   9 C :   -0.034190
  10 H :    0.015062
  11 H :    0.028848
  12 C :   -0.054338
  13 H :    0.029812
  14 H :    0.018462
  15 H :    0.024572
  16 S :    0.412045
  17 C :   -0.188361
  18 C :   -0.064513
  19 C :   -0.058136
  20 C :   -0.203172
  21 H :    0.020320
  22 C :   -0.036726
  23 H :    0.034572
  24 H :    0.028756
  25 C :   -0.043543
  26 H :    0.023770
  27 H :    0.027463
  28 C :   -0.069443
  29 H :    0.022366
  30 H :    0.026664
  31 H :    0.025900
  32 H :    0.010064
  33 H :    0.037976

  Mayer bond orders larger than 0.100000
B(  0-S ,  1-C ) :   1.1299 B(  0-S ,  4-C ) :   1.1326 B(  1-C ,  2-C ) :   1.6114
B(  1-C , 32-H ) :   0.9778 B(  2-C ,  3-C ) :   1.2321 B(  2-C ,  6-C ) :   1.0217
B(  3-C ,  4-C ) :   1.5433 B(  3-C ,  5-H ) :   0.9977 B(  4-C , 20-C ) :   1.1159
B(  6-C ,  7-H ) :   0.9356 B(  6-C ,  8-H ) :   0.9425 B(  6-C ,  9-C ) :   1.0578
B(  9-C , 10-H ) :   0.9562 B(  9-C , 11-H ) :   0.9516 B(  9-C , 12-C ) :   1.0745
B( 12-C , 13-H ) :   0.9723 B( 12-C , 14-H ) :   0.9680 B( 12-C , 15-H ) :   0.9684
B( 16-S , 17-C ) :   1.1657 B( 16-S , 20-C ) :   1.1294 B( 17-C , 18-C ) :   1.5526
B( 17-C , 33-H ) :   0.9707 B( 18-C , 19-C ) :   1.2720 B( 18-C , 21-H ) :   1.0013
B( 19-C , 20-C ) :   1.5522 B( 19-C , 22-C ) :   1.0576 B( 22-C , 23-H ) :   0.9309
B( 22-C , 24-H ) :   0.9302 B( 22-C , 25-C ) :   1.0614 B( 25-C , 26-H ) :   0.9520
B( 25-C , 27-H ) :   0.9523 B( 25-C , 28-C ) :   1.0708 B( 28-C , 29-H ) :   0.9742
B( 28-C , 30-H ) :   0.9761 B( 28-C , 31-H ) :   0.9741

Dispersion correction           -0.015896997
FINAL SINGLE POINT ENERGY     -1339.873463863076

DIPOLE MOMENT
-------------
                                X             Y             Z
Electronic contribution:     27.12792      10.15103      12.17535
Nuclear contribution   :    -27.75982     -10.49694     -12.47711
                        -----------------------------------------
Total Dipole Moment    :     -0.63189      -0.34591      -0.30176
                        -----------------------------------------
Magnitude (a.u.)       :      0.78103
Magnitude (Debye)      :      1.98522

Rotational constants in cm-1:     0.017408     0.011316     0.007304
Rotational constants in MHz :   521.890834   339.237820   218.953963

                             ****ORCA TERMINATED NORMALLY****
TOTAL RUN TIME: 0 days 0 hours 0 minutes 38 seconds 76 msec
