                         Program Version 4.2.1 -  RELEASE  -
|  1> ! wB97X-D3 SP def2-SVP
|  2> %pal
|  3> nprocs 16
|  4> end
|  5>
|  6> * xyz 0 1
|  7> S 	 5.62076 	 77.5114 	 42.8608
|  8> C 	 5.00754 	 75.873 	 42.5638
|  9> C 	 4.95618 	 75.0935 	 43.7042
| 10> C 	 5.46643 	 75.7569 	 44.832
| 11> C 	 5.81069 	 77.0747 	 44.6046
| 12> H 	 5.64613 	 75.2373 	 45.7702
| 13> C 	 4.49958 	 73.6332 	 43.7486
| 14> H 	 4.55575 	 73.1583 	 44.7698
| 15> H 	 5.33085 	 73.1779 	 43.1389
| 16> C 	 3.22383 	 73.3285 	 43.0394
| 17> H 	 2.38492 	 73.9708 	 43.2933
| 18> H 	 3.26974 	 73.536 	 41.9471
| 19> C 	 2.74612 	 71.8737 	 43.2591
| 20> H 	 1.7976 	 71.6945 	 42.7072
| 21> H 	 3.5285 	 71.2866 	 42.8609
| 22> H 	 2.54499 	 71.6305 	 44.308
| 23> S 	 7.78911 	 78.8443 	 45.3672
| 24> C 	 7.84896 	 79.3953 	 46.9813
| 25> C 	 6.75537 	 78.9611 	 47.7166
| 26> C 	 5.88406 	 78.1314 	 46.9176
| 27> C 	 6.34001 	 77.9485 	 45.6248
| 28> H 	 6.54472 	 79.3049 	 48.6913
| 29> C 	 4.48075 	 77.6991 	 47.3523
| 30> H 	 4.40898 	 78.0886 	 48.3295
| 31> H 	 4.48305 	 76.6414 	 47.4199
| 32> C 	 3.26394 	 78.1994 	 46.5149
| 33> H 	 2.29246 	 77.8908 	 46.9588
| 34> H 	 3.30588 	 77.7509 	 45.5147
| 35> C 	 3.26472 	 79.7305 	 46.5682
| 36> H 	 2.50355 	 80.1967 	 45.8318
| 37> H 	 4.21654 	 80.1392 	 46.1405
| 38> H 	 3.10627 	 80.0982 	 47.6182
| 39> H 	 5.05378 	 75.2896 	 41.6385
| 40> H 	 8.55216 	 80.1205 	 47.3567
| 41> *
| 42>
| 43>                          ****END OF INPUT****

CARTESIAN COORDINATES (ANGSTROEM)
---------------------------------
  S      5.620760   77.511400   42.860800
  C      5.007540   75.873000   42.563800
  C      4.956180   75.093500   43.704200
  C      5.466430   75.756900   44.832000
  C      5.810690   77.074700   44.604600
  H      5.646130   75.237300   45.770200
  C      4.499580   73.633200   43.748600
  H      4.555750   73.158300   44.769800
  H      5.330850   73.177900   43.138900
  C      3.223830   73.328500   43.039400
  H      2.384920   73.970800   43.293300
  H      3.269740   73.536000   41.947100
  C      2.746120   71.873700   43.259100
  H      1.797600   71.694500   42.707200
  H      3.528500   71.286600   42.860900
  H      2.544990   71.630500   44.308000
  S      7.789110   78.844300   45.367200
  C      7.848960   79.395300   46.981300
  C      6.755370   78.961100   47.716600
  C      5.884060   78.131400   46.917600
  C      6.340010   77.948500   45.624800
  H      6.544720   79.304900   48.691300
  C      4.480750   77.699100   47.352300
  H      4.408980   78.088600   48.329500
  H      4.483050   76.641400   47.419900
  C      3.263940   78.199400   46.514900
  H      2.292460   77.890800   46.958800
  H      3.305880   77.750900   45.514700
  C      3.264720   79.730500   46.568200
  H      2.503550   80.196700   45.831800
  H      4.216540   80.139200   46.140500
  H      3.106270   80.098200   47.618200
  H      5.053780   75.289600   41.638500
  H      8.552160   80.120500   47.356700

 Total Charge           Charge          ....    0
 Multiplicity           Mult            ....    1
 Number of Electrons    NEL             ....  134
 Basis Dimension        Dim             ....  322

ORBITAL ENERGIES
----------------

  NO   OCC          E(Eh)            E(eV)
   0   2.0000     -88.971999     -2421.0512
   1   2.0000     -88.966235     -2420.8943
   2   2.0000     -10.333611      -281.1919
   3   2.0000     -10.319818      -280.8165
   4   2.0000     -10.316181      -280.7176
   5   2.0000     -10.312445      -280.6159
   6   2.0000     -10.301877      -280.3283
   7   2.0000     -10.301665      -280.3225
   8   2.0000     -10.300354      -280.2869
   9   2.0000     -10.293929      -280.1121
  10   2.0000     -10.292396      -280.0703
  11   2.0000     -10.286884      -279.9203
  12   2.0000     -10.285703      -279.8882
  13   2.0000     -10.283190      -279.8198
  14   2.0000     -10.282140      -279.7913
  15   2.0000     -10.279223      -279.7119
  16   2.0000      -8.084952      -220.0027
  17   2.0000      -8.082187      -219.9275
  18   2.0000      -6.043599      -164.4547
  19   2.0000      -6.040497      -164.3703
  20   2.0000      -6.039870      -164.3532
  21   2.0000      -6.036438      -164.2598
  22   2.0000      -6.035513      -164.2347
  23   2.0000      -6.033177      -164.1711
  24   2.0000      -1.009438       -27.4682
  25   2.0000      -0.984135       -26.7797
  26   2.0000      -0.914849       -24.8943
  27   2.0000      -0.905458       -24.6388
  28   2.0000      -0.870322       -23.6827
  29   2.0000      -0.851656       -23.1747
  30   2.0000      -0.843694       -22.9581
  31   2.0000      -0.812993       -22.1227
  32   2.0000      -0.780084       -21.2272
  33   2.0000      -0.768126       -20.9018
  34   2.0000      -0.710674       -19.3384
  35   2.0000      -0.699884       -19.0448
  36   2.0000      -0.685912       -18.6646
  37   2.0000      -0.667964       -18.1762
  38   2.0000      -0.631959       -17.1965
  39   2.0000      -0.619468       -16.8566
  40   2.0000      -0.587897       -15.9975
  41   2.0000      -0.574025       -15.6200
  42   2.0000      -0.562394       -15.3035
  43   2.0000      -0.555352       -15.1119
  44   2.0000      -0.542143       -14.7525
  45   2.0000      -0.525181       -14.2909
  46   2.0000      -0.521171       -14.1818
  47   2.0000      -0.508299       -13.8315
  48   2.0000      -0.500405       -13.6167
  49   2.0000      -0.492954       -13.4140
  50   2.0000      -0.485112       -13.2006
  51   2.0000      -0.476373       -12.9628
  52   2.0000      -0.471385       -12.8270
  53   2.0000      -0.467921       -12.7328
  54   2.0000      -0.455790       -12.4027
  55   2.0000      -0.451006       -12.2725
  56   2.0000      -0.445371       -12.1192
  57   2.0000      -0.438294       -11.9266
  58   2.0000      -0.432537       -11.7699
  59   2.0000      -0.428662       -11.6645
  60   2.0000      -0.417860       -11.3706
  61   2.0000      -0.410794       -11.1783
  62   2.0000      -0.407637       -11.0924
  63   2.0000      -0.346402        -9.4261
  64   2.0000      -0.333529        -9.0758
  65   2.0000      -0.329263        -8.9597
  66   2.0000      -0.289533        -7.8786
  67   0.0000       0.020571         0.5598
  68   0.0000       0.072484         1.9724
  69   0.0000       0.106387         2.8949
  70   0.0000       0.124376         3.3845
  71   0.0000       0.131785         3.5860

MULLIKEN ATOMIC CHARGES
-----------------------
   0 S :    0.110259
   1 C :   -0.121609
   2 C :   -0.090524
   3 C :    0.013493
   4 C :   -0.149373
   5 H :    0.021507
   6 C :    0.043452
   7 H :    0.035402
   8 H :    0.046579
   9 C :   -0.097573
  10 H :    0.027429
  11 H :    0.027313
  12 C :   -0.040290
  13 H :    0.039189
  14 H :    0.023227
  15 H :    0.036833
  16 S :    0.124666
  17 C :   -0.088788
  18 C :   -0.015161
  19 C :   -0.102804
  20 C :   -0.152161
  21 H :    0.003501
  22 C :    0.128840
  23 H :   -0.008569
  24 H :    0.015607
  25 C :   -0.053095
  26 H :    0.032251
  27 H :    0.050849
  28 C :   -0.106000
  29 H :    0.042529
  30 H :    0.047699
  31 H :    0.040463
  32 H :    0.056825
  33 H :    0.058036
Sum of atomic charges:   -0.0000000

LOEWDIN ATOMIC CHARGES
----------------------
   0 S :    0.374319
   1 C :   -0.209994
   2 C :   -0.058166
   3 C :   -0.059863
   4 C :   -0.171575
   5 H :    0.034983
   6 C :   -0.039777
   7 H :    0.035977
   8 H :    0.044487
   9 C :   -0.051091
  10 H :    0.021988
  11 H :    0.026886
  12 C :   -0.060440
  13 H :    0.031836
  14 H :    0.017920
  15 H :    0.025058
  16 S :    0.439248
  17 C :   -0.195096
  18 C :   -0.067652
  19 C :   -0.052629
  20 C :   -0.218599
  21 H :    0.024322
  22 C :   -0.024966
  23 H :    0.020316
  24 H :    0.022881
  25 C :   -0.039337
  26 H :    0.028160
  27 H :    0.027833
  28 C :   -0.079948
  29 H :    0.032594
  30 H :    0.028449
  31 H :    0.027784
  32 H :    0.034061
  33 H :    0.030033

  Mayer bond orders larger than 0.100000
B(  0-S ,  1-C ) :   1.1182 B(  0-S ,  4-C ) :   1.1278 B(  1-C ,  2-C ) :   1.6242
B(  1-C ,  4-C ) :   0.1019 B(  1-C , 32-H ) :   0.9540 B(  2-C ,  3-C ) :   1.2678
B(  2-C ,  6-C ) :   1.0026 B(  3-C ,  4-C ) :   1.5638 B(  3-C ,  5-H ) :   0.9919
B(  4-C , 20-C ) :   1.0661 B(  6-C ,  7-H ) :   0.9538 B(  6-C ,  8-H ) :   0.9256
B(  6-C ,  9-C ) :   1.0635 B(  9-C , 10-H ) :   0.9596 B(  9-C , 11-H ) :   0.9459
B(  9-C , 12-C ) :   1.0844 B( 12-C , 13-H ) :   0.9738 B( 12-C , 14-H ) :   0.9761
B( 12-C , 15-H ) :   0.9765 B( 16-S , 17-C ) :   1.1843 B( 16-S , 20-C ) :   1.1455
B( 17-C , 18-C ) :   1.5718 B( 17-C , 33-H ) :   0.9676 B( 18-C , 19-C ) :   1.2728
B( 18-C , 21-H ) :   0.9959 B( 19-C , 20-C ) :   1.5603 B( 19-C , 22-C ) :   1.0336
B( 22-C , 23-H ) :   0.9307 B( 22-C , 24-H ) :   0.9221 B( 22-C , 25-C ) :   1.0704
B( 25-C , 26-H ) :   0.9553 B( 25-C , 27-H ) :   0.9524 B( 25-C , 28-C ) :   1.0671
B( 28-C , 29-H ) :   0.9735 B( 28-C , 30-H ) :   0.9742 B( 28-C , 31-H ) :   0.9745

Dispersion correction           -0.015191284
FINAL SINGLE POINT ENERGY     -1339.877916527452

DIPOLE MOMENT
-------------
                                X             Y             Z
Electronic contribution:     21.21211      15.04177      -4.49931
Nuclear contribution   :    -21.42050     -15.47688       4.84141
                        -----------------------------------------
Total Dipole Moment    :     -0.20839      -0.43511       0.34211
                        -----------------------------------------
Magnitude (a.u.)       :      0.59142
Magnitude (Debye)      :      1.50327

Rotational constants in cm-1:     0.022838     0.007875     0.006963
Rotational constants in MHz :   684.656934   236.098443   208.754787

                             ****ORCA TERMINATED NORMALLY****
TOTAL RUN TIME: 0 days 0 hours 0 minutes 32 seconds 864 msec
