                         Program Version 4.2.1 -  RELEASE  -
|  1> ! wB97X-D3 SP def2-SVP
|  2> %pal
|  3> nprocs 16
|  4> end
|  5>
|  6> * xyz 0 1
|  7> S 	 1.77356 	 -27.681 	 84.2263
|  8> C 	 0.810366 	 -29.1159 	 83.8267
|  9> C 	 -0.295322 	 -29.2803 	 84.6894
| 10> C 	 -0.411192 	 -28.1691 	 85.5672
| 11> C 	 0.554932 	 -27.2196 	 85.4685
| 12> H 	 -1.19918 	 -28.1232 	 86.3095
| 13> C 	 -1.45112 	 -30.2848 	 84.5127
| 14> H 	 -2.28736 	 -29.7608 	 84.1585
| 15> H 	 -1.84336 	 -30.5225 	 85.461
| 16> C 	 -1.27758 	 -31.4693 	 83.5894
| 17> H 	 -2.27194 	 -31.9944 	 83.4053
| 18> H 	 -0.858378 	 -31.2018 	 82.6343
| 19> C 	 -0.462582 	 -32.5698 	 84.2789
| 20> H 	 0.51073 	 -32.3597 	 84.6781
| 21> H 	 -0.979919 	 -32.921 	 85.1864
| 22> H 	 -0.37973 	 -33.4045 	 83.626
| 23> S 	 2.10495 	 -25.3159 	 86.5033
| 24> C 	 1.37305 	 -24.0153 	 87.4518
| 25> C 	 0.0611675 	 -24.2524 	 87.6977
| 26> C 	 -0.501048 	 -25.3266 	 86.9004
| 27> C 	 0.501835 	 -25.9365 	 86.1664
| 28> H 	 -0.462856 	 -23.6083 	 88.3691
| 29> C 	 -2.02234 	 -25.5642 	 86.9409
| 30> H 	 -2.2688 	 -26.522 	 87.407
| 31> H 	 -2.22906 	 -25.7559 	 85.8752
| 32> C 	 -2.89052 	 -24.3806 	 87.4659
| 33> H 	 -2.77798 	 -23.5636 	 86.7981
| 34> H 	 -2.7299 	 -23.9646 	 88.4542
| 35> C 	 -4.41301 	 -24.6151 	 87.1108
| 36> H 	 -4.95316 	 -23.6982 	 87.2986
| 37> H 	 -4.82304 	 -25.5094 	 87.629
| 38> H 	 -4.54595 	 -24.8576 	 86.0961
| 39> H 	 1.17901 	 -29.8522 	 83.12
| 40> H 	 1.95308 	 -23.3295 	 88.0667
| 41> *
| 42>
| 43>                          ****END OF INPUT****

CARTESIAN COORDINATES (ANGSTROEM)
---------------------------------
  S      1.773560  -27.681000   84.226300
  C      0.810366  -29.115900   83.826700
  C     -0.295322  -29.280300   84.689400
  C     -0.411192  -28.169100   85.567200
  C      0.554932  -27.219600   85.468500
  H     -1.199180  -28.123200   86.309500
  C     -1.451120  -30.284800   84.512700
  H     -2.287360  -29.760800   84.158500
  H     -1.843360  -30.522500   85.461000
  C     -1.277580  -31.469300   83.589400
  H     -2.271940  -31.994400   83.405300
  H     -0.858378  -31.201800   82.634300
  C     -0.462582  -32.569800   84.278900
  H      0.510730  -32.359700   84.678100
  H     -0.979919  -32.921000   85.186400
  H     -0.379730  -33.404500   83.626000
  S      2.104950  -25.315900   86.503300
  C      1.373050  -24.015300   87.451800
  C      0.061167  -24.252400   87.697700
  C     -0.501048  -25.326600   86.900400
  C      0.501835  -25.936500   86.166400
  H     -0.462856  -23.608300   88.369100
  C     -2.022340  -25.564200   86.940900
  H     -2.268800  -26.522000   87.407000
  H     -2.229060  -25.755900   85.875200
  C     -2.890520  -24.380600   87.465900
  H     -2.777980  -23.563600   86.798100
  H     -2.729900  -23.964600   88.454200
  C     -4.413010  -24.615100   87.110800
  H     -4.953160  -23.698200   87.298600
  H     -4.823040  -25.509400   87.629000
  H     -4.545950  -24.857600   86.096100
  H      1.179010  -29.852200   83.120000
  H      1.953080  -23.329500   88.066700

 Total Charge           Charge          ....    0
 Multiplicity           Mult            ....    1
 Number of Electrons    NEL             ....  134
 Basis Dimension        Dim             ....  322

ORBITAL ENERGIES
----------------

  NO   OCC          E(Eh)            E(eV)
   0   2.0000     -88.966901     -2420.9124
   1   2.0000     -88.962545     -2420.7939
   2   2.0000     -10.330191      -281.0988
   3   2.0000     -10.327442      -281.0240
   4   2.0000     -10.318480      -280.7801
   5   2.0000     -10.313574      -280.6466
   6   2.0000     -10.308734      -280.5149
   7   2.0000     -10.306475      -280.4535
   8   2.0000     -10.304632      -280.4033
   9   2.0000     -10.293458      -280.0992
  10   2.0000     -10.293306      -280.0951
  11   2.0000     -10.290959      -280.0312
  12   2.0000     -10.290078      -280.0073
  13   2.0000     -10.287271      -279.9309
  14   2.0000     -10.281505      -279.7740
  15   2.0000     -10.270672      -279.4792
  16   2.0000      -8.080436      -219.8798
  17   2.0000      -8.077420      -219.7978
  18   2.0000      -6.039158      -164.3339
  19   2.0000      -6.035968      -164.2470
  20   2.0000      -6.035228      -164.2269
  21   2.0000      -6.032144      -164.1430
  22   2.0000      -6.030933      -164.1100
  23   2.0000      -6.027910      -164.0278
  24   2.0000      -1.004065       -27.3220
  25   2.0000      -0.978602       -26.6291
  26   2.0000      -0.914015       -24.8716
  27   2.0000      -0.907262       -24.6878
  28   2.0000      -0.868456       -23.6319
  29   2.0000      -0.854995       -23.2656
  30   2.0000      -0.844973       -22.9929
  31   2.0000      -0.813449       -22.1351
  32   2.0000      -0.785263       -21.3681
  33   2.0000      -0.774137       -21.0654
  34   2.0000      -0.714794       -19.4505
  35   2.0000      -0.710243       -19.3267
  36   2.0000      -0.692836       -18.8530
  37   2.0000      -0.659783       -17.9536
  38   2.0000      -0.636029       -17.3072
  39   2.0000      -0.618572       -16.8322
  40   2.0000      -0.595889       -16.2150
  41   2.0000      -0.574088       -15.6217
  42   2.0000      -0.567400       -15.4398
  43   2.0000      -0.553347       -15.0573
  44   2.0000      -0.540237       -14.7006
  45   2.0000      -0.532394       -14.4872
  46   2.0000      -0.513406       -13.9705
  47   2.0000      -0.511804       -13.9269
  48   2.0000      -0.507017       -13.7966
  49   2.0000      -0.493097       -13.4178
  50   2.0000      -0.485195       -13.2028
  51   2.0000      -0.476358       -12.9624
  52   2.0000      -0.473085       -12.8733
  53   2.0000      -0.470379       -12.7997
  54   2.0000      -0.458435       -12.4747
  55   2.0000      -0.451465       -12.2850
  56   2.0000      -0.443347       -12.0641
  57   2.0000      -0.441374       -12.0104
  58   2.0000      -0.434512       -11.8237
  59   2.0000      -0.427622       -11.6362
  60   2.0000      -0.426233       -11.5984
  61   2.0000      -0.418598       -11.3906
  62   2.0000      -0.412833       -11.2338
  63   2.0000      -0.358567        -9.7571
  64   2.0000      -0.332916        -9.0591
  65   2.0000      -0.326352        -8.8805
  66   2.0000      -0.283037        -7.7018
  67   0.0000       0.022142         0.6025
  68   0.0000       0.080149         2.1810
  69   0.0000       0.090401         2.4599
  70   0.0000       0.118838         3.2338
  71   0.0000       0.138632         3.7724

MULLIKEN ATOMIC CHARGES
-----------------------
   0 S :    0.100132
   1 C :   -0.145512
   2 C :   -0.053577
   3 C :   -0.042008
   4 C :   -0.075475
   5 H :   -0.001930
   6 C :    0.097063
   7 H :    0.019054
   8 H :   -0.002121
   9 C :   -0.072227
  10 H :    0.039240
  11 H :    0.031584
  12 C :   -0.044018
  13 H :    0.027579
  14 H :    0.017685
  15 H :    0.023742
  16 S :    0.075502
  17 C :   -0.063446
  18 C :   -0.040553
  19 C :   -0.064779
  20 C :   -0.117508
  21 H :    0.009771
  22 C :    0.038491
  23 H :    0.049013
  24 H :    0.039145
  25 C :   -0.080576
  26 H :    0.026719
  27 H :    0.048942
  28 C :   -0.040078
  29 H :    0.038325
  30 H :    0.029946
  31 H :    0.017931
  32 H :    0.059349
  33 H :    0.054597
Sum of atomic charges:    0.0000000

LOEWDIN ATOMIC CHARGES
----------------------
   0 S :    0.368222
   1 C :   -0.191948
   2 C :   -0.052940
   3 C :   -0.067879
   4 C :   -0.176954
   5 H :    0.028931
   6 C :   -0.030087
   7 H :    0.031044
   8 H :    0.024825
   9 C :   -0.037623
  10 H :    0.038935
  11 H :    0.021343
  12 C :   -0.067617
  13 H :    0.019914
  14 H :    0.026298
  15 H :    0.019137
  16 S :    0.387811
  17 C :   -0.178394
  18 C :   -0.064184
  19 C :   -0.054603
  20 C :   -0.185898
  21 H :    0.027395
  22 C :   -0.033645
  23 H :    0.028196
  24 H :    0.041731
  25 C :   -0.040357
  26 H :    0.026968
  27 H :    0.024259
  28 C :   -0.056450
  29 H :    0.026979
  30 H :    0.023808
  31 H :    0.017758
  32 H :    0.025821
  33 H :    0.029205

  Mayer bond orders larger than 0.100000
B(  0-S ,  1-C ) :   1.1275 B(  0-S ,  4-C ) :   1.1115 B(  1-C ,  2-C ) :   1.6115
B(  1-C , 32-H ) :   0.9602 B(  2-C ,  3-C ) :   1.2427 B(  2-C ,  6-C ) :   1.0101
B(  3-C ,  4-C ) :   1.6057 B(  3-C ,  5-H ) :   0.9912 B(  4-C , 20-C ) :   1.0607
B(  6-C ,  7-H ) :   0.9332 B(  6-C ,  8-H ) :   0.9296 B(  6-C ,  9-C ) :   1.0872
B(  9-C , 10-H ) :   0.9517 B(  9-C , 11-H ) :   0.9513 B(  9-C , 12-C ) :   1.0768
B( 12-C , 13-H ) :   0.9792 B( 12-C , 14-H ) :   0.9719 B( 12-C , 15-H ) :   0.9763
B( 16-S , 17-C ) :   1.1294 B( 16-S , 20-C ) :   1.1315 B( 17-C , 18-C ) :   1.6550
B( 17-C , 33-H ) :   0.9604 B( 18-C , 19-C ) :   1.2235 B( 18-C , 21-H ) :   0.9857
B( 19-C , 20-C ) :   1.6287 B( 19-C , 22-C ) :   1.0095 B( 22-C , 23-H ) :   0.9284
B( 22-C , 24-H ) :   0.9405 B( 22-C , 25-C ) :   1.0670 B( 25-C , 26-H ) :   0.9556
B( 25-C , 27-H ) :   0.9546 B( 25-C , 28-C ) :   1.0704 B( 28-C , 29-H ) :   0.9768
B( 28-C , 30-H ) :   0.9764 B( 28-C , 31-H ) :   0.9767

Dispersion correction           -0.013404708
FINAL SINGLE POINT ENERGY     -1339.860820305236

DIPOLE MOMENT
-------------
                                X             Y             Z
Electronic contribution:     26.14374      11.67606      -1.43000
Nuclear contribution   :    -27.01058     -11.81277       1.67450
                        -----------------------------------------
Total Dipole Moment    :     -0.86684      -0.13671       0.24450
                        -----------------------------------------
Magnitude (a.u.)       :      0.91098
Magnitude (Debye)      :      2.31552

Rotational constants in cm-1:     0.018393     0.007991     0.005834
Rotational constants in MHz :   551.411536   239.574607   174.903792

                             ****ORCA TERMINATED NORMALLY****
TOTAL RUN TIME: 0 days 0 hours 0 minutes 32 seconds 987 msec
