                         Program Version 4.2.1 -  RELEASE  -
|  1> ! wB97X-D3 SP def2-SVP
|  2> %pal
|  3> nprocs 16
|  4> end
|  5>
|  6> * xyz 0 1
|  7> S 	 -4.55215 	 27.7482 	 54.9942
|  8> C 	 -4.89952 	 26.118 	 55.0502
|  9> C 	 -5.27798 	 25.5502 	 53.833
| 10> C 	 -5.26625 	 26.5643 	 52.8301
| 11> C 	 -4.94094 	 27.8267 	 53.2921
| 12> H 	 -5.50765 	 26.3739 	 51.7943
| 13> C 	 -5.51878 	 24.0864 	 53.6072
| 14> H 	 -6.43736 	 24.0735 	 52.9101
| 15> H 	 -5.68451 	 23.4809 	 54.5626
| 16> C 	 -4.39381 	 23.3769 	 52.8057
| 17> H 	 -4.7628 	 22.4031 	 52.4835
| 18> H 	 -4.1911 	 23.8813 	 51.9637
| 19> C 	 -2.95514 	 23.2092 	 53.4307
| 20> H 	 -2.54273 	 24.175 	 53.7463
| 21> H 	 -2.89409 	 22.6829 	 54.4292
| 22> H 	 -2.24714 	 22.7181 	 52.6901
| 23> S 	 -3.50691 	 30.0397 	 52.4572
| 24> C 	 -3.95779 	 30.8266 	 50.9861
| 25> C 	 -4.97375 	 30.1385 	 50.4003
| 26> C 	 -5.43845 	 29.071 	 51.1164
| 27> C 	 -4.84308 	 28.9104 	 52.3562
| 28> H 	 -5.28132 	 30.5749 	 49.4578
| 29> C 	 -6.6249 	 28.2859 	 50.5533
| 30> H 	 -6.30353 	 27.3265 	 50.1261
| 31> H 	 -6.90467 	 28.7794 	 49.6387
| 32> C 	 -7.99947 	 28.0776 	 51.2615
| 33> H 	 -7.85082 	 27.5852 	 52.2032
| 34> H 	 -8.67027 	 27.4298 	 50.5928
| 35> C 	 -8.57476 	 29.4613 	 51.6163
| 36> H 	 -9.60277 	 29.3128 	 52.0723
| 37> H 	 -8.82494 	 30.0517 	 50.7639
| 38> H 	 -7.88276 	 29.9705 	 52.2935
| 39> H 	 -4.6947 	 25.5833 	 55.8801
| 40> H 	 -3.3101 	 31.5908 	 50.4957
| 41> *
| 42>
| 43>                          ****END OF INPUT****

CARTESIAN COORDINATES (ANGSTROEM)
---------------------------------
  S     -4.552150   27.748200   54.994200
  C     -4.899520   26.118000   55.050200
  C     -5.277980   25.550200   53.833000
  C     -5.266250   26.564300   52.830100
  C     -4.940940   27.826700   53.292100
  H     -5.507650   26.373900   51.794300
  C     -5.518780   24.086400   53.607200
  H     -6.437360   24.073500   52.910100
  H     -5.684510   23.480900   54.562600
  C     -4.393810   23.376900   52.805700
  H     -4.762800   22.403100   52.483500
  H     -4.191100   23.881300   51.963700
  C     -2.955140   23.209200   53.430700
  H     -2.542730   24.175000   53.746300
  H     -2.894090   22.682900   54.429200
  H     -2.247140   22.718100   52.690100
  S     -3.506910   30.039700   52.457200
  C     -3.957790   30.826600   50.986100
  C     -4.973750   30.138500   50.400300
  C     -5.438450   29.071000   51.116400
  C     -4.843080   28.910400   52.356200
  H     -5.281320   30.574900   49.457800
  C     -6.624900   28.285900   50.553300
  H     -6.303530   27.326500   50.126100
  H     -6.904670   28.779400   49.638700
  C     -7.999470   28.077600   51.261500
  H     -7.850820   27.585200   52.203200
  H     -8.670270   27.429800   50.592800
  C     -8.574760   29.461300   51.616300
  H     -9.602770   29.312800   52.072300
  H     -8.824940   30.051700   50.763900
  H     -7.882760   29.970500   52.293500
  H     -4.694700   25.583300   55.880100
  H     -3.310100   31.590800   50.495700

 Total Charge           Charge          ....    0
 Multiplicity           Mult            ....    1
 Number of Electrons    NEL             ....  134
 Basis Dimension        Dim             ....  322

ORBITAL ENERGIES
----------------

  NO   OCC          E(Eh)            E(eV)
   0   2.0000     -88.971429     -2421.0357
   1   2.0000     -88.963313     -2420.8148
   2   2.0000     -10.327598      -281.0282
   3   2.0000     -10.327333      -281.0210
   4   2.0000     -10.313991      -280.6580
   5   2.0000     -10.307432      -280.4795
   6   2.0000     -10.302208      -280.3373
   7   2.0000     -10.300480      -280.2903
   8   2.0000     -10.300044      -280.2785
   9   2.0000     -10.291952      -280.0582
  10   2.0000     -10.290300      -280.0133
  11   2.0000     -10.289863      -280.0014
  12   2.0000     -10.286888      -279.9205
  13   2.0000     -10.286035      -279.8972
  14   2.0000     -10.282831      -279.8101
  15   2.0000     -10.274097      -279.5724
  16   2.0000      -8.087374      -220.0686
  17   2.0000      -8.078739      -219.8337
  18   2.0000      -6.045714      -164.5122
  19   2.0000      -6.041698      -164.4030
  20   2.0000      -6.038267      -164.3096
  21   2.0000      -6.037051      -164.2765
  22   2.0000      -6.033050      -164.1676
  23   2.0000      -6.029775      -164.0785
  24   2.0000      -1.017538       -27.6886
  25   2.0000      -0.996576       -27.1182
  26   2.0000      -0.908875       -24.7317
  27   2.0000      -0.905044       -24.6275
  28   2.0000      -0.879362       -23.9287
  29   2.0000      -0.853271       -23.2187
  30   2.0000      -0.846515       -23.0348
  31   2.0000      -0.813112       -22.1259
  32   2.0000      -0.780988       -21.2518
  33   2.0000      -0.773337       -21.0436
  34   2.0000      -0.713301       -19.4099
  35   2.0000      -0.702380       -19.1127
  36   2.0000      -0.688926       -18.7466
  37   2.0000      -0.666077       -18.1249
  38   2.0000      -0.641860       -17.4659
  39   2.0000      -0.624740       -17.0001
  40   2.0000      -0.594048       -16.1649
  41   2.0000      -0.572650       -15.5826
  42   2.0000      -0.550989       -14.9932
  43   2.0000      -0.547743       -14.9048
  44   2.0000      -0.541278       -14.7289
  45   2.0000      -0.536690       -14.6041
  46   2.0000      -0.520724       -14.1696
  47   2.0000      -0.507844       -13.8192
  48   2.0000      -0.506450       -13.7812
  49   2.0000      -0.494133       -13.4460
  50   2.0000      -0.485287       -13.2053
  51   2.0000      -0.480903       -13.0860
  52   2.0000      -0.474084       -12.9005
  53   2.0000      -0.469141       -12.7660
  54   2.0000      -0.457951       -12.4615
  55   2.0000      -0.447938       -12.1890
  56   2.0000      -0.441018       -12.0007
  57   2.0000      -0.437877       -11.9152
  58   2.0000      -0.426262       -11.5992
  59   2.0000      -0.422886       -11.5073
  60   2.0000      -0.421371       -11.4661
  61   2.0000      -0.417575       -11.3628
  62   2.0000      -0.409805       -11.1514
  63   2.0000      -0.362896        -9.8749
  64   2.0000      -0.335866        -9.1394
  65   2.0000      -0.329898        -8.9770
  66   2.0000      -0.282932        -7.6990
  67   0.0000       0.022219         0.6046
  68   0.0000       0.082991         2.2583
  69   0.0000       0.114714         3.1215
  70   0.0000       0.116102         3.1593
  71   0.0000       0.137638         3.7453

MULLIKEN ATOMIC CHARGES
-----------------------
   0 S :    0.141347
   1 C :   -0.081342
   2 C :   -0.062152
   3 C :   -0.007836
   4 C :   -0.131476
   5 H :   -0.001772
   6 C :    0.023411
   7 H :    0.045589
   8 H :    0.044827
   9 C :   -0.014188
  10 H :    0.027184
  11 H :   -0.001617
  12 C :   -0.106210
  13 H :    0.036280
  14 H :    0.029468
  15 H :    0.053701
  16 S :    0.091480
  17 C :   -0.112811
  18 C :   -0.043053
  19 C :   -0.027717
  20 C :   -0.120012
  21 H :    0.016063
  22 C :    0.034158
  23 H :    0.029640
  24 H :   -0.001912
  25 C :   -0.055668
  26 H :    0.035627
  27 H :    0.040570
  28 C :   -0.067737
  29 H :    0.034583
  30 H :    0.019050
  31 H :    0.057164
  32 H :    0.001317
  33 H :    0.074045
Sum of atomic charges:   -0.0000000

LOEWDIN ATOMIC CHARGES
----------------------
   0 S :    0.447974
   1 C :   -0.204420
   2 C :   -0.066349
   3 C :   -0.051422
   4 C :   -0.205921
   5 H :    0.029316
   6 C :   -0.036320
   7 H :    0.044971
   8 H :    0.039657
   9 C :   -0.033754
  10 H :    0.024925
  11 H :    0.007208
  12 C :   -0.079378
  13 H :    0.024721
  14 H :    0.024890
  15 H :    0.036409
  16 S :    0.412478
  17 C :   -0.198589
  18 C :   -0.076806
  19 C :   -0.067501
  20 C :   -0.188327
  21 H :    0.035599
  22 C :   -0.040173
  23 H :    0.026048
  24 H :    0.026432
  25 C :   -0.039597
  26 H :    0.019313
  27 H :    0.033533
  28 C :   -0.067359
  29 H :    0.031321
  30 H :    0.015951
  31 H :    0.032100
  32 H :    0.003009
  33 H :    0.040062

  Mayer bond orders larger than 0.100000
B(  0-S ,  1-C ) :   1.1729 B(  0-S ,  4-C ) :   1.1480 B(  1-C ,  2-C ) :   1.5577
B(  1-C , 32-H ) :   0.9784 B(  2-C ,  3-C ) :   1.2749 B(  2-C ,  6-C ) :   1.0320
B(  3-C ,  4-C ) :   1.5321 B(  3-C ,  5-H ) :   0.9887 B(  4-C , 20-C ) :   1.0939
B(  6-C ,  7-H ) :   0.9314 B(  6-C ,  8-H ) :   0.9464 B(  6-C ,  9-C ) :   1.0738
B(  9-C , 10-H ) :   0.9565 B(  9-C , 11-H ) :   0.9526 B(  9-C , 12-C ) :   1.0602
B( 12-C , 13-H ) :   0.9755 B( 12-C , 14-H ) :   0.9765 B( 12-C , 15-H ) :   0.9749
B( 16-S , 17-C ) :   1.1688 B( 16-S , 20-C ) :   1.1507 B( 17-C , 18-C ) :   1.5806
B( 17-C , 20-C ) :   0.1057 B( 17-C , 33-H ) :   0.9602 B( 18-C , 19-C ) :   1.2837
B( 18-C , 21-H ) :   0.9964 B( 19-C , 20-C ) :   1.5403 B( 19-C , 22-C ) :   1.0262
B( 22-C , 23-H ) :   0.9243 B( 22-C , 24-H ) :   0.9298 B( 22-C , 25-C ) :   1.0660
B( 25-C , 26-H ) :   0.9514 B( 25-C , 27-H ) :   0.9518 B( 25-C , 28-C ) :   1.0749
B( 28-C , 29-H ) :   0.9737 B( 28-C , 30-H ) :   0.9781 B( 28-C , 31-H ) :   0.9738

Dispersion correction           -0.015227661
FINAL SINGLE POINT ENERGY     -1339.863382212761

DIPOLE MOMENT
-------------
                                X             Y             Z
Electronic contribution:     11.36230      17.66263       9.36492
Nuclear contribution   :    -11.49768     -18.06766      -9.85320
                        -----------------------------------------
Total Dipole Moment    :     -0.13538      -0.40502      -0.48828
                        -----------------------------------------
Magnitude (a.u.)       :      0.64868
Magnitude (Debye)      :      1.64882

Rotational constants in cm-1:     0.019167     0.009037     0.007807
Rotational constants in MHz :   574.600941   270.934794   234.054270

                             ****ORCA TERMINATED NORMALLY****
TOTAL RUN TIME: 0 days 0 hours 0 minutes 34 seconds 694 msec
