                         Program Version 4.2.1 -  RELEASE  -
|  1> ! wB97X-D3 SP def2-SVP
|  2> %pal
|  3> nprocs 16
|  4> end
|  5>
|  6> * xyz 0 1
|  7> S 	 -62.7676 	 35.6311 	 116.546
|  8> C 	 -62.6402 	 35.4552 	 118.315
|  9> C 	 -62.1538 	 36.5879 	 118.886
| 10> C 	 -61.7493 	 37.6363 	 117.974
| 11> C 	 -62.0557 	 37.2506 	 116.705
| 12> H 	 -61.3284 	 38.6572 	 118.144
| 13> C 	 -61.7023 	 36.7062 	 120.325
| 14> H 	 -60.9781 	 37.5234 	 120.369
| 15> H 	 -61.2677 	 35.8252 	 120.652
| 16> C 	 -62.7862 	 37.0817 	 121.34
| 17> H 	 -62.2738 	 37.0067 	 122.316
| 18> H 	 -62.9613 	 38.2159 	 121.346
| 19> C 	 -64.1876 	 36.3447 	 121.279
| 20> H 	 -64.7618 	 36.6935 	 122.184
| 21> H 	 -64.7697 	 36.7092 	 120.424
| 22> H 	 -64.1139 	 35.2445 	 121.356
| 23> S 	 -60.232 	 37.7312 	 114.547
| 24> C 	 -60.4669 	 39.0065 	 113.431
| 25> C 	 -61.7565 	 39.485 	 113.655
| 26> C 	 -62.4107 	 39.0599 	 114.844
| 27> C 	 -61.728 	 38.0834 	 115.484
| 28> H 	 -62.166 	 40.2438 	 112.972
| 29> C 	 -63.7718 	 39.5307 	 115.337
| 30> H 	 -64.1951 	 38.9574 	 116.146
| 31> H 	 -64.414 	 39.311 	 114.472
| 32> C 	 -63.903 	 40.9617 	 115.782
| 33> H 	 -64.9276 	 41.1931 	 115.965
| 34> H 	 -63.5814 	 41.5426 	 114.93
| 35> C 	 -63.0557 	 41.2051 	 117.025
| 36> H 	 -62.0429 	 41.3175 	 116.755
| 37> H 	 -63.0795 	 40.5033 	 117.873
| 38> H 	 -63.5309 	 42.0893 	 117.438
| 39> H 	 -63.0751 	 34.6366 	 118.976
| 40> H 	 -59.8 	 39.2289 	 112.609
| 41> *
| 42>
| 43>                          ****END OF INPUT****

CARTESIAN COORDINATES (ANGSTROEM)
---------------------------------
  S    -62.767600   35.631100  116.546000
  C    -62.640200   35.455200  118.315000
  C    -62.153800   36.587900  118.886000
  C    -61.749300   37.636300  117.974000
  C    -62.055700   37.250600  116.705000
  H    -61.328400   38.657200  118.144000
  C    -61.702300   36.706200  120.325000
  H    -60.978100   37.523400  120.369000
  H    -61.267700   35.825200  120.652000
  C    -62.786200   37.081700  121.340000
  H    -62.273800   37.006700  122.316000
  H    -62.961300   38.215900  121.346000
  C    -64.187600   36.344700  121.279000
  H    -64.761800   36.693500  122.184000
  H    -64.769700   36.709200  120.424000
  H    -64.113900   35.244500  121.356000
  S    -60.232000   37.731200  114.547000
  C    -60.466900   39.006500  113.431000
  C    -61.756500   39.485000  113.655000
  C    -62.410700   39.059900  114.844000
  C    -61.728000   38.083400  115.484000
  H    -62.166000   40.243800  112.972000
  C    -63.771800   39.530700  115.337000
  H    -64.195100   38.957400  116.146000
  H    -64.414000   39.311000  114.472000
  C    -63.903000   40.961700  115.782000
  H    -64.927600   41.193100  115.965000
  H    -63.581400   41.542600  114.930000
  C    -63.055700   41.205100  117.025000
  H    -62.042900   41.317500  116.755000
  H    -63.079500   40.503300  117.873000
  H    -63.530900   42.089300  117.438000
  H    -63.075100   34.636600  118.976000
  H    -59.800000   39.228900  112.609000

 Total Charge           Charge          ....    0
 Multiplicity           Mult            ....    1
 Number of Electrons    NEL             ....  134
 Basis Dimension        Dim             ....  322

ORBITAL ENERGIES
----------------

  NO   OCC          E(Eh)            E(eV)
   0   2.0000     -88.969354     -2420.9792
   1   2.0000     -88.957718     -2420.6626
   2   2.0000     -10.332607      -281.1645
   3   2.0000     -10.325022      -280.9581
   4   2.0000     -10.318875      -280.7909
   5   2.0000     -10.318359      -280.7768
   6   2.0000     -10.299673      -280.2683
   7   2.0000     -10.298594      -280.2390
   8   2.0000     -10.298355      -280.2325
   9   2.0000     -10.294824      -280.1364
  10   2.0000     -10.294810      -280.1360
  11   2.0000     -10.289510      -279.9918
  12   2.0000     -10.284193      -279.8471
  13   2.0000     -10.283325      -279.8235
  14   2.0000     -10.278973      -279.7051
  15   2.0000     -10.271002      -279.4882
  16   2.0000      -8.082957      -219.9485
  17   2.0000      -8.072792      -219.6718
  18   2.0000      -6.041637      -164.4013
  19   2.0000      -6.037782      -164.2964
  20   2.0000      -6.033435      -164.1781
  21   2.0000      -6.031204      -164.1174
  22   2.0000      -6.027172      -164.0077
  23   2.0000      -6.023691      -163.9130
  24   2.0000      -1.003233       -27.2994
  25   2.0000      -0.984583       -26.7919
  26   2.0000      -0.915050       -24.8998
  27   2.0000      -0.906374       -24.6637
  28   2.0000      -0.862954       -23.4822
  29   2.0000      -0.845826       -23.0161
  30   2.0000      -0.843347       -22.9486
  31   2.0000      -0.809488       -22.0273
  32   2.0000      -0.785094       -21.3635
  33   2.0000      -0.779762       -21.2184
  34   2.0000      -0.701693       -19.0940
  35   2.0000      -0.695696       -18.9309
  36   2.0000      -0.693044       -18.8587
  37   2.0000      -0.653912       -17.7938
  38   2.0000      -0.635363       -17.2891
  39   2.0000      -0.613532       -16.6951
  40   2.0000      -0.600915       -16.3517
  41   2.0000      -0.564006       -15.3474
  42   2.0000      -0.561457       -15.2780
  43   2.0000      -0.546279       -14.8650
  44   2.0000      -0.543720       -14.7954
  45   2.0000      -0.530191       -14.4272
  46   2.0000      -0.520700       -14.1690
  47   2.0000      -0.514416       -13.9980
  48   2.0000      -0.499523       -13.5927
  49   2.0000      -0.497306       -13.5324
  50   2.0000      -0.488736       -13.2992
  51   2.0000      -0.479173       -13.0390
  52   2.0000      -0.472230       -12.8500
  53   2.0000      -0.466796       -12.7022
  54   2.0000      -0.462346       -12.5811
  55   2.0000      -0.451917       -12.2973
  56   2.0000      -0.441538       -12.0149
  57   2.0000      -0.431608       -11.7447
  58   2.0000      -0.426965       -11.6183
  59   2.0000      -0.420714       -11.4482
  60   2.0000      -0.415009       -11.2930
  61   2.0000      -0.409610       -11.1461
  62   2.0000      -0.404034       -10.9943
  63   2.0000      -0.336905        -9.1676
  64   2.0000      -0.328952        -8.9512
  65   2.0000      -0.321926        -8.7600
  66   2.0000      -0.312539        -8.5046
  67   0.0000       0.047774         1.3000
  68   0.0000       0.052993         1.4420
  69   0.0000       0.108965         2.9651
  70   0.0000       0.120665         3.2835
  71   0.0000       0.124678         3.3927

MULLIKEN ATOMIC CHARGES
-----------------------
   0 S :    0.115650
   1 C :   -0.146253
   2 C :   -0.075764
   3 C :    0.029016
   4 C :   -0.165095
   5 H :    0.045479
   6 C :    0.100120
   7 H :    0.021325
   8 H :    0.017053
   9 C :   -0.122238
  10 H :    0.026984
  11 H :    0.027346
  12 C :   -0.072498
  13 H :    0.040839
  14 H :    0.055604
  15 H :    0.041567
  16 S :    0.090920
  17 C :   -0.093188
  18 C :   -0.057024
  19 C :   -0.007527
  20 C :   -0.200595
  21 H :    0.022702
  22 C :    0.058309
  23 H :    0.025162
  24 H :    0.028827
  25 C :   -0.037748
  26 H :    0.023138
  27 H :    0.020757
  28 C :   -0.049799
  29 H :    0.039069
  30 H :    0.028879
  31 H :    0.026938
  32 H :    0.073409
  33 H :    0.068636
Sum of atomic charges:    0.0000000

LOEWDIN ATOMIC CHARGES
----------------------
   0 S :    0.382009
   1 C :   -0.200594
   2 C :   -0.065097
   3 C :   -0.060728
   4 C :   -0.177760
   5 H :    0.047324
   6 C :   -0.027091
   7 H :    0.034769
   8 H :    0.020592
   9 C :   -0.050277
  10 H :    0.023232
  11 H :    0.026648
  12 C :   -0.076146
  13 H :    0.035130
  14 H :    0.030811
  15 H :    0.024115
  16 S :    0.393812
  17 C :   -0.191831
  18 C :   -0.082751
  19 C :   -0.062047
  20 C :   -0.187563
  21 H :    0.029255
  22 C :   -0.030656
  23 H :    0.027634
  24 H :    0.033040
  25 C :   -0.033568
  26 H :    0.021088
  27 H :    0.022505
  28 C :   -0.064301
  29 H :    0.022391
  30 H :    0.025498
  31 H :    0.029030
  32 H :    0.046658
  33 H :    0.034870

  Mayer bond orders larger than 0.100000
B(  0-S ,  1-C ) :   1.1039 B(  0-S ,  4-C ) :   1.1402 B(  1-C ,  2-C ) :   1.6736
B(  1-C , 32-H ) :   0.9523 B(  2-C ,  3-C ) :   1.1839 B(  2-C ,  6-C ) :   1.0175
B(  3-C ,  4-C ) :   1.6490 B(  3-C ,  5-H ) :   0.9764 B(  4-C , 20-C ) :   0.9862
B(  6-C ,  7-H ) :   0.9420 B(  6-C ,  8-H ) :   0.9472 B(  6-C ,  9-C ) :   1.0721
B(  9-C , 10-H ) :   0.9583 B(  9-C , 11-H ) :   0.9560 B(  9-C , 12-C ) :   1.0701
B( 12-C , 13-H ) :   0.9727 B( 12-C , 14-H ) :   0.9714 B( 12-C , 15-H ) :   0.9756
B( 16-S , 17-C ) :   1.1738 B( 16-S , 20-C ) :   1.1398 B( 17-C , 18-C ) :   1.5803
B( 17-C , 33-H ) :   0.9719 B( 18-C , 19-C ) :   1.2450 B( 18-C , 21-H ) :   0.9848
B( 19-C , 20-C ) :   1.6198 B( 19-C , 22-C ) :   1.0258 B( 22-C , 23-H ) :   0.9376
B( 22-C , 24-H ) :   0.9329 B( 22-C , 25-C ) :   1.0846 B( 25-C , 26-H ) :   0.9577
B( 25-C , 27-H ) :   0.9540 B( 25-C , 28-C ) :   1.0647 B( 28-C , 29-H ) :   0.9761
B( 28-C , 30-H ) :   0.9739 B( 28-C , 31-H ) :   0.9727

Dispersion correction           -0.015438716
FINAL SINGLE POINT ENERGY     -1339.865779858834

DIPOLE MOMENT
-------------
                                X             Y             Z
Electronic contribution:     11.80988     -12.88818     -20.52223
Nuclear contribution   :    -12.07438      13.31330      20.89950
                        -----------------------------------------
Total Dipole Moment    :     -0.26450       0.42512       0.37727
                        -----------------------------------------
Magnitude (a.u.)       :      0.62691
Magnitude (Debye)      :      1.59348

Rotational constants in cm-1:     0.020946     0.008616     0.007136
Rotational constants in MHz :   627.959790   258.310097   213.946678

                             ****ORCA TERMINATED NORMALLY****
TOTAL RUN TIME: 0 days 0 hours 0 minutes 29 seconds 333 msec
