                         Program Version 4.2.1 -  RELEASE  -
|  1> ! wB97X-D3 SP def2-SVP
|  2> %pal
|  3> nprocs 16
|  4> end
|  5>
|  6> * xyz 0 1
|  7> S 	 -67.5685 	 52.3697 	 133.37
|  8> C 	 -68.0047 	 53.8001 	 134.307
|  9> C 	 -68.177 	 53.4716 	 135.699
| 10> C 	 -68.0665 	 52.0489 	 135.904
| 11> C 	 -67.6713 	 51.3239 	 134.765
| 12> H 	 -68.0911 	 51.5697 	 136.84
| 13> C 	 -68.4495 	 54.4813 	 136.781
| 14> H 	 -67.5892 	 55.1062 	 136.892
| 15> H 	 -68.5004 	 54.0393 	 137.759
| 16> C 	 -69.7837 	 55.2542 	 136.636
| 17> H 	 -69.6735 	 55.9074 	 135.743
| 18> H 	 -70.593 	 54.5701 	 136.401
| 19> C 	 -69.9743 	 56.239 	 137.798
| 20> H 	 -70.4016 	 55.8526 	 138.714
| 21> H 	 -69.0182 	 56.6436 	 138.237
| 22> H 	 -70.545 	 57.0484 	 137.387
| 23> S 	 -65.89 	 49.174 	 134.579
| 24> C 	 -66.5378 	 47.5282 	 134.798
| 25> C 	 -67.9282 	 47.5095 	 134.827
| 26> C 	 -68.4373 	 48.8737 	 134.93
| 27> C 	 -67.488 	 49.8644 	 134.772
| 28> H 	 -68.3975 	 46.5933 	 134.906
| 29> C 	 -69.907 	 49.1822 	 135.005
| 30> H 	 -70.0819 	 50.1658 	 135.466
| 31> H 	 -70.361 	 48.4556 	 135.68
| 32> C 	 -70.5302 	 48.9617 	 133.626
| 33> H 	 -70.7081 	 47.8909 	 133.527
| 34> H 	 -69.8778 	 49.3099 	 132.8
| 35> C 	 -71.9358 	 49.6867 	 133.487
| 36> H 	 -71.9366 	 50.6509 	 133.945
| 37> H 	 -72.7324 	 48.9868 	 133.657
| 38> H 	 -72.1496 	 49.9311 	 132.457
| 39> H 	 -68.3072 	 54.7347 	 133.86
| 40> H 	 -65.9707 	 46.6253 	 134.677
| 41> *
| 42>
| 43>                          ****END OF INPUT****

CARTESIAN COORDINATES (ANGSTROEM)
---------------------------------
  S    -67.568500   52.369700  133.370000
  C    -68.004700   53.800100  134.307000
  C    -68.177000   53.471600  135.699000
  C    -68.066500   52.048900  135.904000
  C    -67.671300   51.323900  134.765000
  H    -68.091100   51.569700  136.840000
  C    -68.449500   54.481300  136.781000
  H    -67.589200   55.106200  136.892000
  H    -68.500400   54.039300  137.759000
  C    -69.783700   55.254200  136.636000
  H    -69.673500   55.907400  135.743000
  H    -70.593000   54.570100  136.401000
  C    -69.974300   56.239000  137.798000
  H    -70.401600   55.852600  138.714000
  H    -69.018200   56.643600  138.237000
  H    -70.545000   57.048400  137.387000
  S    -65.890000   49.174000  134.579000
  C    -66.537800   47.528200  134.798000
  C    -67.928200   47.509500  134.827000
  C    -68.437300   48.873700  134.930000
  C    -67.488000   49.864400  134.772000
  H    -68.397500   46.593300  134.906000
  C    -69.907000   49.182200  135.005000
  H    -70.081900   50.165800  135.466000
  H    -70.361000   48.455600  135.680000
  C    -70.530200   48.961700  133.626000
  H    -70.708100   47.890900  133.527000
  H    -69.877800   49.309900  132.800000
  C    -71.935800   49.686700  133.487000
  H    -71.936600   50.650900  133.945000
  H    -72.732400   48.986800  133.657000
  H    -72.149600   49.931100  132.457000
  H    -68.307200   54.734700  133.860000
  H    -65.970700   46.625300  134.677000

 Total Charge           Charge          ....    0
 Multiplicity           Mult            ....    1
 Number of Electrons    NEL             ....  134
 Basis Dimension        Dim             ....  322

ORBITAL ENERGIES
----------------

  NO   OCC          E(Eh)            E(eV)
   0   2.0000     -88.972003     -2421.0513
   1   2.0000     -88.962901     -2420.8036
   2   2.0000     -10.331513      -281.1348
   3   2.0000     -10.323591      -280.9192
   4   2.0000     -10.320243      -280.8281
   5   2.0000     -10.319195      -280.7996
   6   2.0000     -10.308840      -280.5178
   7   2.0000     -10.302870      -280.3554
   8   2.0000     -10.294322      -280.1228
   9   2.0000     -10.294113      -280.1171
  10   2.0000     -10.292196      -280.0649
  11   2.0000     -10.288084      -279.9530
  12   2.0000     -10.285958      -279.8951
  13   2.0000     -10.284490      -279.8552
  14   2.0000     -10.281604      -279.7767
  15   2.0000     -10.269973      -279.4602
  16   2.0000      -8.085858      -220.0274
  17   2.0000      -8.077192      -219.7916
  18   2.0000      -6.044314      -164.4742
  19   2.0000      -6.040299      -164.3649
  20   2.0000      -6.036928      -164.2732
  21   2.0000      -6.035829      -164.2433
  22   2.0000      -6.031795      -164.1335
  23   2.0000      -6.027823      -164.0254
  24   2.0000      -0.998999       -27.1842
  25   2.0000      -0.976059       -26.5599
  26   2.0000      -0.911759       -24.8102
  27   2.0000      -0.903143       -24.5758
  28   2.0000      -0.865336       -23.5470
  29   2.0000      -0.849661       -23.1204
  30   2.0000      -0.840786       -22.8789
  31   2.0000      -0.813404       -22.1339
  32   2.0000      -0.780827       -21.2474
  33   2.0000      -0.767038       -20.8722
  34   2.0000      -0.708072       -19.2676
  35   2.0000      -0.699139       -19.0245
  36   2.0000      -0.691678       -18.8215
  37   2.0000      -0.662221       -18.0200
  38   2.0000      -0.645533       -17.5658
  39   2.0000      -0.615425       -16.7466
  40   2.0000      -0.589628       -16.0446
  41   2.0000      -0.574708       -15.6386
  42   2.0000      -0.566268       -15.4089
  43   2.0000      -0.562098       -15.2955
  44   2.0000      -0.528681       -14.3861
  45   2.0000      -0.523039       -14.2326
  46   2.0000      -0.517173       -14.0730
  47   2.0000      -0.511230       -13.9113
  48   2.0000      -0.498303       -13.5595
  49   2.0000      -0.495795       -13.4913
  50   2.0000      -0.490647       -13.3512
  51   2.0000      -0.475278       -12.9330
  52   2.0000      -0.473309       -12.8794
  53   2.0000      -0.464641       -12.6435
  54   2.0000      -0.456616       -12.4252
  55   2.0000      -0.453169       -12.3314
  56   2.0000      -0.445031       -12.1099
  57   2.0000      -0.434400       -11.8206
  58   2.0000      -0.428770       -11.6674
  59   2.0000      -0.425355       -11.5745
  60   2.0000      -0.417531       -11.3616
  61   2.0000      -0.412906       -11.2358
  62   2.0000      -0.409471       -11.1423
  63   2.0000      -0.338206        -9.2030
  64   2.0000      -0.330518        -8.9939
  65   2.0000      -0.323160        -8.7936
  66   2.0000      -0.296761        -8.0753
  67   0.0000       0.036642         0.9971
  68   0.0000       0.055596         1.5128
  69   0.0000       0.118086         3.2133
  70   0.0000       0.121139         3.2964
  71   0.0000       0.124288         3.3820

MULLIKEN ATOMIC CHARGES
-----------------------
   0 S :    0.127476
   1 C :   -0.134468
   2 C :   -0.095062
   3 C :    0.060874
   4 C :   -0.167931
   5 H :    0.002226
   6 C :    0.079992
   7 H :    0.032285
   8 H :    0.006121
   9 C :   -0.092734
  10 H :    0.026634
  11 H :    0.041849
  12 C :   -0.045070
  13 H :    0.033148
  14 H :    0.028861
  15 H :    0.037464
  16 S :    0.098746
  17 C :   -0.091193
  18 C :   -0.003889
  19 C :   -0.060602
  20 C :   -0.162730
  21 H :   -0.001224
  22 C :    0.095621
  23 H :    0.027664
  24 H :    0.018036
  25 C :   -0.101568
  26 H :    0.029079
  27 H :    0.045324
  28 C :   -0.021964
  29 H :    0.034919
  30 H :    0.027985
  31 H :    0.012123
  32 H :    0.057834
  33 H :    0.054177
Sum of atomic charges:   -0.0000000

LOEWDIN ATOMIC CHARGES
----------------------
   0 S :    0.417050
   1 C :   -0.202841
   2 C :   -0.053624
   3 C :   -0.054482
   4 C :   -0.202326
   5 H :    0.025051
   6 C :   -0.036321
   7 H :    0.031671
   8 H :    0.025785
   9 C :   -0.037017
  10 H :    0.023674
  11 H :    0.027440
  12 C :   -0.069903
  13 H :    0.023138
  14 H :    0.032824
  15 H :    0.026740
  16 S :    0.386768
  17 C :   -0.166743
  18 C :   -0.058673
  19 C :   -0.047136
  20 C :   -0.208867
  21 H :    0.021234
  22 C :   -0.035556
  23 H :    0.029144
  24 H :    0.029334
  25 C :   -0.034394
  26 H :    0.023607
  27 H :    0.027209
  28 C :   -0.067797
  29 H :    0.023843
  30 H :    0.024410
  31 H :    0.025102
  32 H :    0.025842
  33 H :    0.025815

  Mayer bond orders larger than 0.100000
B(  0-S ,  1-C ) :   1.1560 B(  0-S ,  4-C ) :   1.1675 B(  1-C ,  2-C ) :   1.5500
B(  1-C ,  4-C ) :   0.1089 B(  1-C , 32-H ) :   0.9716 B(  2-C ,  3-C ) :   1.2807
B(  2-C ,  6-C ) :   1.0254 B(  3-C ,  4-C ) :   1.5432 B(  3-C ,  5-H ) :   0.9951
B(  4-C , 20-C ) :   1.0216 B(  6-C ,  7-H ) :   0.9331 B(  6-C ,  8-H ) :   0.9442
B(  6-C ,  9-C ) :   1.0579 B(  9-C , 10-H ) :   0.9615 B(  9-C , 11-H ) :   0.9603
B(  9-C , 12-C ) :   1.0661 B( 12-C , 13-H ) :   0.9755 B( 12-C , 14-H ) :   0.9718
B( 12-C , 15-H ) :   0.9778 B( 16-S , 17-C ) :   1.1511 B( 16-S , 20-C ) :   1.1211
B( 17-C , 18-C ) :   1.6384 B( 17-C , 33-H ) :   0.9652 B( 18-C , 19-C ) :   1.1984
B( 18-C , 21-H ) :   1.0007 B( 19-C , 20-C ) :   1.6322 B( 19-C , 22-C ) :   1.0641
B( 22-C , 23-H ) :   0.9350 B( 22-C , 24-H ) :   0.9246 B( 22-C , 25-C ) :   1.0489
B( 25-C , 26-H ) :   0.9580 B( 25-C , 27-H ) :   0.9667 B( 25-C , 28-C ) :   1.0778
B( 28-C , 29-H ) :   0.9783 B( 28-C , 30-H ) :   0.9766 B( 28-C , 31-H ) :   0.9739

Dispersion correction           -0.014276647
FINAL SINGLE POINT ENERGY     -1339.868337733396

DIPOLE MOMENT
-------------
                                X             Y             Z
Electronic contribution:     23.11975     -11.51231      -9.27583
Nuclear contribution   :    -23.68474      11.58359       9.57507
                        -----------------------------------------
Total Dipole Moment    :     -0.56499       0.07128       0.29924
                        -----------------------------------------
Magnitude (a.u.)       :      0.64331
Magnitude (Debye)      :      1.63516

Rotational constants in cm-1:     0.019739     0.007735     0.006648
Rotational constants in MHz :   591.746017   231.890002   199.299760

                             ****ORCA TERMINATED NORMALLY****
TOTAL RUN TIME: 0 days 0 hours 0 minutes 34 seconds 588 msec
