                         Program Version 4.2.1 -  RELEASE  -
|  1> ! wB97X-D3 SP def2-SVP
|  2> %pal
|  3> nprocs 16
|  4> end
|  5>
|  6> * xyz 0 1
|  7> S 	 12.1042 	 -7.85265 	 69.1564
|  8> C 	 12.8695 	 -6.6022 	 70.1656
|  9> C 	 11.9099 	 -6.2302 	 71.1308
| 10> C 	 10.6553 	 -6.92317 	 71.0131
| 11> C 	 10.5919 	 -7.90592 	 70.066
| 12> H 	 9.75624 	 -6.72485 	 71.6035
| 13> C 	 12.0099 	 -5.12922 	 72.1763
| 14> H 	 13.086 	 -4.92577 	 72.423
| 15> H 	 11.5674 	 -5.37362 	 73.1465
| 16> C 	 11.1668 	 -3.86286 	 71.8362
| 17> H 	 10.0857 	 -4.08169 	 71.8641
| 18> H 	 11.3818 	 -3.12021 	 72.539
| 19> C 	 11.4194 	 -3.26682 	 70.4617
| 20> H 	 11.1814 	 -3.92561 	 69.692
| 21> H 	 10.8241 	 -2.33684 	 70.3145
| 22> H 	 12.5035 	 -3.05021 	 70.4363
| 23> S 	 9.29869 	 -8.63995 	 67.877
| 24> C 	 7.95821 	 -9.78043 	 67.8967
| 25> C 	 7.58168 	 -9.88436 	 69.2157
| 26> C 	 8.46254 	 -9.32838 	 70.2196
| 27> C 	 9.43479 	 -8.62652 	 69.5932
| 28> H 	 6.72497 	 -10.5714 	 69.4017
| 29> C 	 8.38291 	 -9.53669 	 71.7345
| 30> H 	 7.37583 	 -9.98394 	 71.869
| 31> H 	 8.53377 	 -8.5354 	 72.2355
| 32> C 	 9.41339 	 -10.4929 	 72.3535
| 33> H 	 10.3968 	 -10.2773 	 71.8188
| 34> H 	 9.17645 	 -11.4979 	 71.9865
| 35> C 	 9.59935 	 -10.5055 	 73.88
| 36> H 	 8.67403 	 -10.9827 	 74.2599
| 37> H 	 9.69061 	 -9.53578 	 74.3672
| 38> H 	 10.4658 	 -11.1464 	 74.0288
| 39> H 	 13.8739 	 -6.26103 	 70.1433
| 40> H 	 7.50523 	 -10.1048 	 67.0241
| 41> *
| 42>
| 43>                          ****END OF INPUT****

CARTESIAN COORDINATES (ANGSTROEM)
---------------------------------
  S     12.104200   -7.852650   69.156400
  C     12.869500   -6.602200   70.165600
  C     11.909900   -6.230200   71.130800
  C     10.655300   -6.923170   71.013100
  C     10.591900   -7.905920   70.066000
  H      9.756240   -6.724850   71.603500
  C     12.009900   -5.129220   72.176300
  H     13.086000   -4.925770   72.423000
  H     11.567400   -5.373620   73.146500
  C     11.166800   -3.862860   71.836200
  H     10.085700   -4.081690   71.864100
  H     11.381800   -3.120210   72.539000
  C     11.419400   -3.266820   70.461700
  H     11.181400   -3.925610   69.692000
  H     10.824100   -2.336840   70.314500
  H     12.503500   -3.050210   70.436300
  S      9.298690   -8.639950   67.877000
  C      7.958210   -9.780430   67.896700
  C      7.581680   -9.884360   69.215700
  C      8.462540   -9.328380   70.219600
  C      9.434790   -8.626520   69.593200
  H      6.724970  -10.571400   69.401700
  C      8.382910   -9.536690   71.734500
  H      7.375830   -9.983940   71.869000
  H      8.533770   -8.535400   72.235500
  C      9.413390  -10.492900   72.353500
  H     10.396800  -10.277300   71.818800
  H      9.176450  -11.497900   71.986500
  C      9.599350  -10.505500   73.880000
  H      8.674030  -10.982700   74.259900
  H      9.690610   -9.535780   74.367200
  H     10.465800  -11.146400   74.028800
  H     13.873900   -6.261030   70.143300
  H      7.505230  -10.104800   67.024100

 Total Charge           Charge          ....    0
 Multiplicity           Mult            ....    1
 Number of Electrons    NEL             ....  134
 Basis Dimension        Dim             ....  322

ORBITAL ENERGIES
----------------

  NO   OCC          E(Eh)            E(eV)
   0   2.0000     -88.966002     -2420.8880
   1   2.0000     -88.960480     -2420.7377
   2   2.0000     -10.330862      -281.1170
   3   2.0000     -10.323406      -280.9142
   4   2.0000     -10.322636      -280.8932
   5   2.0000     -10.315142      -280.6893
   6   2.0000     -10.308609      -280.5115
   7   2.0000     -10.304840      -280.4090
   8   2.0000     -10.301488      -280.3177
   9   2.0000     -10.301372      -280.3146
  10   2.0000     -10.297610      -280.2122
  11   2.0000     -10.294702      -280.1331
  12   2.0000     -10.288655      -279.9685
  13   2.0000     -10.282394      -279.7982
  14   2.0000     -10.282246      -279.7941
  15   2.0000     -10.268018      -279.4070
  16   2.0000      -8.079835      -219.8635
  17   2.0000      -8.076161      -219.7635
  18   2.0000      -6.038561      -164.3176
  19   2.0000      -6.034674      -164.2118
  20   2.0000      -6.034292      -164.2014
  21   2.0000      -6.030525      -164.0989
  22   2.0000      -6.030421      -164.0961
  23   2.0000      -6.026937      -164.0013
  24   2.0000      -1.013596       -27.5813
  25   2.0000      -0.983751       -26.7692
  26   2.0000      -0.910283       -24.7701
  27   2.0000      -0.906547       -24.6684
  28   2.0000      -0.873420       -23.7670
  29   2.0000      -0.852386       -23.1946
  30   2.0000      -0.840296       -22.8656
  31   2.0000      -0.817620       -22.2486
  32   2.0000      -0.781883       -21.2761
  33   2.0000      -0.776550       -21.1310
  34   2.0000      -0.709910       -19.3176
  35   2.0000      -0.696165       -18.9436
  36   2.0000      -0.689150       -18.7527
  37   2.0000      -0.667281       -18.1576
  38   2.0000      -0.642286       -17.4775
  39   2.0000      -0.620368       -16.8811
  40   2.0000      -0.596198       -16.2234
  41   2.0000      -0.565856       -15.3977
  42   2.0000      -0.562020       -15.2934
  43   2.0000      -0.550386       -14.9768
  44   2.0000      -0.544131       -14.8066
  45   2.0000      -0.529650       -14.4125
  46   2.0000      -0.523108       -14.2345
  47   2.0000      -0.520137       -14.1537
  48   2.0000      -0.509504       -13.8643
  49   2.0000      -0.499683       -13.5971
  50   2.0000      -0.492777       -13.4091
  51   2.0000      -0.487504       -13.2657
  52   2.0000      -0.468415       -12.7462
  53   2.0000      -0.463597       -12.6151
  54   2.0000      -0.459494       -12.5035
  55   2.0000      -0.441934       -12.0256
  56   2.0000      -0.439728       -11.9656
  57   2.0000      -0.435251       -11.8438
  58   2.0000      -0.430231       -11.7072
  59   2.0000      -0.423735       -11.5304
  60   2.0000      -0.413417       -11.2497
  61   2.0000      -0.411945       -11.2096
  62   2.0000      -0.404689       -11.0122
  63   2.0000      -0.356279        -9.6948
  64   2.0000      -0.330207        -8.9854
  65   2.0000      -0.326013        -8.8713
  66   2.0000      -0.294950        -8.0260
  67   0.0000       0.023924         0.6510
  68   0.0000       0.073640         2.0039
  69   0.0000       0.108742         2.9590
  70   0.0000       0.115551         3.1443
  71   0.0000       0.137917         3.7529

MULLIKEN ATOMIC CHARGES
-----------------------
   0 S :    0.092870
   1 C :   -0.102511
   2 C :   -0.080235
   3 C :   -0.000867
   4 C :   -0.118782
   5 H :    0.022782
   6 C :    0.049738
   7 H :    0.028772
   8 H :    0.029049
   9 C :   -0.083367
  10 H :    0.032580
  11 H :    0.022166
  12 C :   -0.042965
  13 H :    0.034731
  14 H :    0.037042
  15 H :    0.021795
  16 S :    0.089623
  17 C :   -0.075979
  18 C :   -0.049015
  19 C :   -0.043930
  20 C :   -0.148981
  21 H :    0.029639
  22 C :    0.077795
  23 H :    0.024076
  24 H :    0.031522
  25 C :   -0.119970
  26 H :    0.042029
  27 H :    0.022849
  28 C :   -0.022877
  29 H :    0.032428
  30 H :    0.038076
  31 H :    0.046776
  32 H :    0.044570
  33 H :    0.038571
Sum of atomic charges:   -0.0000000

LOEWDIN ATOMIC CHARGES
----------------------
   0 S :    0.389593
   1 C :   -0.185173
   2 C :   -0.060345
   3 C :   -0.067369
   4 C :   -0.189087
   5 H :    0.031598
   6 C :   -0.037553
   7 H :    0.031540
   8 H :    0.033350
   9 C :   -0.037424
  10 H :    0.024189
  11 H :    0.017329
  12 C :   -0.062485
  13 H :    0.015630
  14 H :    0.030225
  15 H :    0.024358
  16 S :    0.407985
  17 C :   -0.171153
  18 C :   -0.070958
  19 C :   -0.066966
  20 C :   -0.194680
  21 H :    0.033964
  22 C :   -0.034202
  23 H :    0.032630
  24 H :    0.033925
  25 C :   -0.051029
  26 H :    0.028894
  27 H :    0.023318
  28 C :   -0.062497
  29 H :    0.028807
  30 H :    0.024835
  31 H :    0.033943
  32 H :    0.027764
  33 H :    0.017046

  Mayer bond orders larger than 0.100000
B(  0-S ,  1-C ) :   1.1286 B(  0-S ,  4-C ) :   1.1354 B(  1-C ,  2-C ) :   1.5823
B(  1-C , 32-H ) :   0.9781 B(  2-C ,  3-C ) :   1.2390 B(  2-C ,  6-C ) :   1.0398
B(  3-C ,  4-C ) :   1.5765 B(  3-C ,  5-H ) :   0.9863 B(  4-C , 20-C ) :   1.0445
B(  6-C ,  7-H ) :   0.9443 B(  6-C ,  8-H ) :   0.9431 B(  6-C ,  9-C ) :   1.0607
B(  9-C , 10-H ) :   0.9559 B(  9-C , 11-H ) :   0.9563 B(  9-C , 12-C ) :   1.0838
B( 12-C , 13-H ) :   0.9732 B( 12-C , 14-H ) :   0.9729 B( 12-C , 15-H ) :   0.9762
B( 16-S , 17-C ) :   1.1347 B( 16-S , 20-C ) :   1.1574 B( 17-C , 18-C ) :   1.6157
B( 17-C , 33-H ) :   0.9843 B( 18-C , 19-C ) :   1.2266 B( 18-C , 21-H ) :   0.9790
B( 19-C , 20-C ) :   1.6099 B( 19-C , 22-C ) :   1.0467 B( 22-C , 23-H ) :   0.9261
B( 22-C , 24-H ) :   0.9328 B( 22-C , 25-C ) :   1.0620 B( 25-C , 26-H ) :   0.9605
B( 25-C , 27-H ) :   0.9501 B( 25-C , 28-C ) :   1.0732 B( 28-C , 29-H ) :   0.9750
B( 28-C , 30-H ) :   0.9758 B( 28-C , 31-H ) :   0.9725

Dispersion correction           -0.014648967
FINAL SINGLE POINT ENERGY     -1339.874054979236

DIPOLE MOMENT
-------------
                                X             Y             Z
Electronic contribution:      1.56225      -7.88947     -21.83198
Nuclear contribution   :     -1.79790       7.97368      22.37522
                        -----------------------------------------
Total Dipole Moment    :     -0.23564       0.08420       0.54324
                        -----------------------------------------
Magnitude (a.u.)       :      0.59810
Magnitude (Debye)      :      1.52025

Rotational constants in cm-1:     0.017665     0.009411     0.007513
Rotational constants in MHz :   529.570046   282.121085   225.243120

                             ****ORCA TERMINATED NORMALLY****
TOTAL RUN TIME: 0 days 0 hours 0 minutes 35 seconds 338 msec
